<event>
 5    1  0.4133473E-007  0.2000190E+02  0.7818608E-02  0.1745290E+00
         -3   -1    0    0    0  501 -0.00000000000E+00  0.00000000000E+00  0.89230650837E+02  0.89230699302E+02  0.93000000000E-01 0. -1.
          3   -1    0    0  501    0  0.00000000000E+00 -0.00000000000E+00 -0.11189259236E+01  0.11227841389E+01  0.93000000000E-01 0.  1.
       1023    2    1    2    0    0  0.00000000000E+00  0.00000000000E+00  0.88111724914E+02  0.90353483441E+02  0.20001897474E+02 0.  0.
        -11    1    3    3    0    0  0.10924259709E+01 -0.99409336470E+01  0.43791725166E+02  0.44919157935E+02  0.51100000000E-03 0. -1.
         11    1    3    3    0    0 -0.10924259709E+01  0.99409336470E+01  0.44319999747E+02  0.45434325506E+02  0.51100000000E-03 0.  1.
<mgrwt>
<rscale>  0 0.20001897E+02</rscale>
<asrwt>0</asrwt>
<pdfrwt beam="2">  1        3 0.17244288E-03 0.20001897E+02</pdfrwt>
<pdfrwt beam="1">  1       -3 0.13728099E-01 0.20001897E+02</pdfrwt>
<totfact> 0.14521126E+06</totfact>
</mgrwt>
</event>
<event>
 5    1  0.4133473E-007  0.2000019E+02  0.7818608E-02  0.1745324E+00
         -3   -1    0    0    0  501 -0.00000000000E+00  0.00000000000E+00  0.89714502923E+00  0.90195243969E+00  0.93000000000E-01 0. -1.
          3   -1    0    0  501    0  0.00000000000E+00 -0.00000000000E+00 -0.11116408337E+03  0.11116412227E+03  0.93000000000E-01 0.  1.
       1023    2    1    2    0    0  0.00000000000E+00  0.00000000000E+00 -0.11026693834E+03  0.11206607471E+03  0.20000185255E+02 0.  0.
        -11    1    3    3    0    0 -0.39449808591E+00  0.99923052260E+01 -0.55090128736E+02  0.55990392719E+02  0.51100000000E-03 0. -1.
         11    1    3    3    0    0  0.39449808591E+00 -0.99923052260E+01 -0.55176809607E+02  0.56075681994E+02  0.51100000000E-03 0.  1.
<mgrwt>
<rscale>  0 0.20000185E+02</rscale>
<asrwt>0</asrwt>
<pdfrwt beam="2">  1        3 0.17102529E-01 0.20000185E+02</pdfrwt>
<pdfrwt beam="1">  1       -3 0.13839519E-03 0.20000185E+02</pdfrwt>
<totfact> 0.13773268E+06</totfact>
</mgrwt>
</event>
<event>
 5    1  0.4254798E-007  0.2000242E+02  0.7818608E-02  0.1745280E+00
          3   -1    0    0  501    0  0.00000000000E+00  0.00000000000E+00  0.52065889130E+01  0.52074194290E+01  0.93000000000E-01 0.  1.
         -3   -1    0    0    0  501 -0.00000000000E+00 -0.00000000000E+00 -0.19208597668E+02  0.19208822800E+02  0.93000000000E-01 0. -1.
       1023    2    1    2    0    0  0.00000000000E+00  0.00000000000E+00 -0.14002008755E+02  0.24416242229E+02  0.20002415739E+02 0.  0.
        -11    1    3    3    0    0 -0.77182823584E+01  0.63597683172E+01 -0.69094709688E+01  0.12155629352E+02  0.51100000000E-03 0.  1.
         11    1    3    3    0    0  0.77182823584E+01 -0.63597683172E+01 -0.70925377857E+01  0.12260612877E+02  0.51100000000E-03 0. -1.
<mgrwt>
<rscale>  0 0.20002416E+02</rscale>
<asrwt>0</asrwt>
<pdfrwt beam="1">  1        3 0.80109489E-03 0.20002416E+02</pdfrwt>
<pdfrwt beam="2">  1       -3 0.29552500E-02 0.20002416E+02</pdfrwt>
<totfact> 0.17599436E+06</totfact>
</mgrwt>
</event>
<event>
 5    1  0.4133473E-007  0.2000086E+02  0.7818608E-02  0.1745311E+00
         -3   -1    0    0    0  501 -0.00000000000E+00  0.00000000000E+00  0.20373125059E+01  0.20394340506E+01  0.93000000000E-01 0. -1.
          3   -1    0    0  501    0  0.00000000000E+00 -0.00000000000E+00 -0.49060772204E+02  0.49060860349E+02  0.93000000000E-01 0.  1.
       1023    2    1    2    0    0  0.00000000000E+00  0.00000000000E+00 -0.47023459698E+02  0.51100294400E+02  0.20000858127E+02 0.  0.
        -11    1    3    3    0    0  0.97023868308E+01  0.24230121321E+01 -0.23603250652E+02  0.25634366379E+02  0.51100000000E-03 0. -1.
         11    1    3    3    0    0 -0.97023868308E+01 -0.24230121321E+01 -0.23420209045E+02  0.25465928021E+02  0.51100000000E-03 0.  1.
<mgrwt>
<rscale>  0 0.20000858E+02</rscale>
<asrwt>0</asrwt>
<pdfrwt beam="2">  1        3 0.75479802E-02 0.20000858E+02</pdfrwt>
<pdfrwt beam="1">  1       -3 0.31360270E-03 0.20000858E+02</pdfrwt>
<totfact> 0.16152831E+06</totfact>
</mgrwt>
</event>
<event>
 4    1  0.4133473E-007  0.2002508E+02  0.7818608E-02  0.1744830E+00
         -3   -1    0    0    0  501 -0.00000000000E+00  0.00000000000E+00  0.32368755275E+02  0.32368888876E+02  0.93000000000E-01 0.  1.
          3   -1    0    0  501    0  0.00000000000E+00 -0.00000000000E+00 -0.30963150813E+01  0.30977114267E+01  0.93000000000E-01 0. -1.
        -11    1    1    2    0    0  0.93096464431E+01  0.36838365378E+01  0.14451933397E+02  0.17581198700E+02  0.51100000000E-03 0. -1.
         11    1    1    2    0    0 -0.93096464431E+01 -0.36838365378E+01  0.14820506796E+02  0.17885401603E+02  0.51100000000E-03 0.  1.
<mgrwt>
<rscale>  0 0.20025084E+02</rscale>
<asrwt>0</asrwt>
<pdfrwt beam="2">  1        3 0.47647384E-03 0.20025084E+02</pdfrwt>
<pdfrwt beam="1">  1       -3 0.49799263E-02 0.20025084E+02</pdfrwt>
<totfact> 0.16912640E+06</totfact>
</mgrwt>
</event>
<event>
 5    1  0.4133473E-007  0.2000005E+02  0.7818608E-02  0.1745327E+00
         -3   -1    0    0    0  501 -0.00000000000E+00  0.00000000000E+00  0.83815625503E+01  0.83820784883E+01  0.93000000000E-01 0.  1.
          3   -1    0    0  501    0  0.00000000000E+00 -0.00000000000E+00 -0.11929944351E+02  0.11930306837E+02  0.93000000000E-01 0. -1.
       1023    2    1    2    0    0  0.00000000000E+00  0.00000000000E+00 -0.35483818008E+01  0.20312385325E+02  0.20000049605E+02 0.  0.
        -11    1    3    3    0    0 -0.86022320371E+01  0.50991932773E+01 -0.17925757627E+01  0.10159404324E+02  0.51100000000E-03 0.  1.
         11    1    3    3    0    0  0.86022320371E+01 -0.50991932773E+01 -0.17558060381E+01  0.10152981001E+02  0.51100000000E-03 0. -1.
<mgrwt>
<rscale>  0 0.20000050E+02</rscale>
<asrwt>0</asrwt>
<pdfrwt beam="2">  1        3 0.18354436E-02 0.20000050E+02</pdfrwt>
<pdfrwt beam="1">  1       -3 0.12895387E-02 0.20000050E+02</pdfrwt>
<totfact> 0.17864922E+06</totfact>
</mgrwt>
</event>
<event>
 5    1  0.4133473E-007  0.2000775E+02  0.7818608E-02  0.1745174E+00
          3   -1    0    0  501    0  0.00000000000E+00  0.00000000000E+00  0.48455010410E+01  0.48463934362E+01  0.93000000000E-01 0. -1.
         -3   -1    0    0    0  501 -0.00000000000E+00 -0.00000000000E+00 -0.20650808552E+02  0.20651017961E+02  0.93000000000E-01 0.  1.
       1023    2    1    2    0    0  0.00000000000E+00  0.00000000000E+00 -0.15805307511E+02  0.25497411397E+02  0.20007754558E+02 0.  0.
        -11    1    3    3    0    0 -0.42510319223E+01 -0.90542219034E+01 -0.81134221942E+01  0.12879356608E+02  0.51100000000E-03 0.  1.
         11    1    3    3    0    0  0.42510319223E+01  0.90542219034E+01 -0.76918853163E+01  0.12618054789E+02  0.51100000000E-03 0. -1.
<mgrwt>
<rscale>  0 0.20007755E+02</rscale>
<asrwt>0</asrwt>
<pdfrwt beam="1">  1        3 0.74554646E-03 0.20007755E+02</pdfrwt>
<pdfrwt beam="2">  1       -3 0.31771322E-02 0.20007755E+02</pdfrwt>
<totfact> 0.17522586E+06</totfact>
</mgrwt>
</event>
<event>
 5    1  0.4133473E-007  0.2000016E+02  0.7818608E-02  0.1745325E+00
         -3   -1    0    0    0  501 -0.00000000000E+00  0.00000000000E+00  0.95652440930E+01  0.95656961879E+01  0.93000000000E-01 0.  1.
          3   -1    0    0  501    0  0.00000000000E+00 -0.00000000000E+00 -0.10453775907E+02  0.10454189577E+02  0.93000000000E-01 0. -1.
       1023    2    1    2    0    0  0.00000000000E+00  0.00000000000E+00 -0.88853181372E+00  0.20019885765E+02  0.20000158431E+02 0.  0.
        -11    1    3    3    0    0 -0.37001185910E+01  0.92903296308E+01 -0.42229400017E+00  0.10008967715E+02  0.51100000000E-03 0.  1.
         11    1    3    3    0    0  0.37001185910E+01 -0.92903296308E+01 -0.46623781356E+00  0.10010918050E+02  0.51100000000E-03 0. -1.
<mgrwt>
<rscale>  0 0.20000158E+02</rscale>
<asrwt>0</asrwt>
<pdfrwt beam="2">  1        3 0.16083398E-02 0.20000158E+02</pdfrwt>
<pdfrwt beam="1">  1       -3 0.14716426E-02 0.20000158E+02</pdfrwt>
<totfact> 0.17883991E+06</totfact>
</mgrwt>
</event>
<event>
 5    1  0.4133473E-007  0.2000071E+02  0.7818608E-02  0.1745314E+00
          3   -1    0    0  501    0  0.00000000000E+00  0.00000000000E+00  0.94353408032E+00  0.94810630244E+00  0.93000000000E-01 0. -1.
         -3   -1    0    0    0  501 -0.00000000000E+00 -0.00000000000E+00 -0.10573127246E+03  0.10573131336E+03  0.93000000000E-01 0.  1.
       1023    2    1    2    0    0  0.00000000000E+00  0.00000000000E+00 -0.10478773838E+03  0.10667941966E+03  0.20000711612E+02 0.  0.
        -11    1    3    3    0    0 -0.98552623996E+01 -0.16956323091E+01 -0.51989412135E+02  0.52942424767E+02  0.51100000000E-03 0.  1.
         11    1    3    3    0    0  0.98552623996E+01  0.16956323091E+01 -0.52798326245E+02  0.53736994896E+02  0.51100000000E-03 0. -1.
<mgrwt>
<rscale>  0 0.20000712E+02</rscale>
<asrwt>0</asrwt>
<pdfrwt beam="1">  1        3 0.14551403E-03 0.20000712E+02</pdfrwt>
<pdfrwt beam="2">  1       -3 0.16266695E-01 0.20000712E+02</pdfrwt>
<totfact> 0.13952649E+06</totfact>
</mgrwt>
</event>
<event>
 5    1  0.4133473E-007  0.2000093E+02  0.7818608E-02  0.1745310E+00
          3   -1    0    0  501    0  0.00000000000E+00  0.00000000000E+00  0.23125480464E+02  0.23125667464E+02  0.93000000000E-01 0. -1.
         -3   -1    0    0    0  501 -0.00000000000E+00 -0.00000000000E+00 -0.43239333916E+01  0.43249334070E+01  0.93000000000E-01 0.  1.
       1023    2    1    2    0    0  0.00000000000E+00  0.00000000000E+00  0.18801547072E+02  0.27450600871E+02  0.20000932876E+02 0.  0.
        -11    1    3    3    0    0 -0.94073032933E+01  0.33927637873E+01  0.94468553911E+01  0.13756862957E+02  0.51100000000E-03 0.  1.
         11    1    3    3    0    0  0.94073032933E+01 -0.33927637873E+01  0.93546916808E+01  0.13693737915E+02  0.51100000000E-03 0. -1.
<mgrwt>
<rscale>  0 0.20000933E+02</rscale>
<asrwt>0</asrwt>
<pdfrwt beam="1">  1        3 0.35578575E-02 0.20000933E+02</pdfrwt>
<pdfrwt beam="2">  1       -3 0.66531184E-03 0.20000933E+02</pdfrwt>
<totfact> 0.17415592E+06</totfact>
</mgrwt>
</event>
<event>
 4    1  0.4133473E-007  0.2002504E+02  0.7818608E-02  0.1744830E+00
         -3   -1    0    0    0  501 -0.00000000000E+00  0.00000000000E+00  0.16455029142E+02  0.16455291947E+02  0.93000000000E-01 0.  1.
          3   -1    0    0  501    0  0.00000000000E+00 -0.00000000000E+00 -0.60917325450E+01  0.60924424002E+01  0.93000000000E-01 0. -1.
        -11    1    1    2    0    0 -0.39901208563E+01  0.91822096216E+01  0.50367349760E+01  0.11207262711E+02  0.51100000000E-03 0. -1.
         11    1    1    2    0    0  0.39901208563E+01 -0.91822096216E+01  0.53265616210E+01  0.11340471637E+02  0.51100000000E-03 0.  1.
<mgrwt>
<rscale>  0 0.20025045E+02</rscale>
<asrwt>0</asrwt>
<pdfrwt beam="2">  1        3 0.93726445E-03 0.20025045E+02</pdfrwt>
<pdfrwt beam="1">  1       -3 0.25316177E-02 0.20025045E+02</pdfrwt>
<totfact> 0.17673619E+06</totfact>
</mgrwt>
</event>
<event>
 5    1  0.4133473E-007  0.2000396E+02  0.7818608E-02  0.1745249E+00
          3   -1    0    0  501    0  0.00000000000E+00  0.00000000000E+00  0.16870187526E+02  0.16870443864E+02  0.93000000000E-01 0. -1.
         -3   -1    0    0    0  501 -0.00000000000E+00 -0.00000000000E+00 -0.59292964895E+01  0.59300257891E+01  0.93000000000E-01 0.  1.
       1023    2    1    2    0    0  0.00000000000E+00  0.00000000000E+00  0.10940891037E+02  0.22800469653E+02  0.20003957602E+02 0.  0.
        -11    1    3    3    0    0  0.87848084616E+01 -0.47815565024E+01  0.55372709174E+01  0.11432301245E+02  0.51100000000E-03 0. -1.
         11    1    3    3    0    0 -0.87848084616E+01  0.47815565024E+01  0.54036201196E+01  0.11368168408E+02  0.51100000000E-03 0.  1.
<mgrwt>
<rscale>  0 0.20003958E+02</rscale>
<asrwt>0</asrwt>
<pdfrwt beam="1">  1        3 0.25954892E-02 0.20003958E+02</pdfrwt>
<pdfrwt beam="2">  1       -3 0.91227530E-03 0.20003958E+02</pdfrwt>
<totfact> 0.17696821E+06</totfact>
</mgrwt>
</event>
<event>
 5    1  0.4162937E-007  0.2000069E+02  0.7818608E-02  0.1745314E+00
         -3   -1    0    0    0  501 -0.00000000000E+00  0.00000000000E+00  0.38253622016E+01  0.38264925158E+01  0.93000000000E-01 0.  1.
          3   -1    0    0  501    0  0.00000000000E+00 -0.00000000000E+00 -0.26138047775E+02  0.26138213223E+02  0.93000000000E-01 0. -1.
       1023    2    1    2    0    0  0.00000000000E+00  0.00000000000E+00 -0.22312685573E+02  0.29964705738E+02  0.20000691301E+02 0.  0.
        -11    1    3    3    0    0 -0.73610639524E+01 -0.67688147579E+01 -0.11052576661E+02  0.14905085268E+02  0.51100000000E-03 0.  1.
         11    1    3    3    0    0  0.73610639524E+01  0.67688147579E+01 -0.11260108913E+02  0.15059620471E+02  0.51100000000E-03 0. -1.
<mgrwt>
<rscale>  0 0.20000691E+02</rscale>
<asrwt>0</asrwt>
<pdfrwt beam="2">  1        3 0.40213377E-02 0.20000691E+02</pdfrwt>
<pdfrwt beam="1">  1       -3 0.58861695E-03 0.20000691E+02</pdfrwt>
<totfact> 0.17267167E+06</totfact>
</mgrwt>
</event>
<event>
 5    1  0.4133473E-007  0.2000009E+02  0.7818608E-02  0.1745326E+00
         -3   -1    0    0    0  501 -0.00000000000E+00  0.00000000000E+00  0.28132237141E+01  0.28147604988E+01  0.93000000000E-01 0.  1.
          3   -1    0    0  501    0  0.00000000000E+00 -0.00000000000E+00 -0.35535431194E+02  0.35535552889E+02  0.93000000000E-01 0. -1.
       1023    2    1    2    0    0  0.00000000000E+00  0.00000000000E+00 -0.32722207480E+02  0.38350313388E+02  0.20000091865E+02 0.  0.
        -11    1    3    3    0    0  0.87834708280E+01  0.47803303287E+01 -0.16359681658E+02  0.19173943309E+02  0.51100000000E-03 0. -1.
         11    1    3    3    0    0 -0.87834708280E+01 -0.47803303287E+01 -0.16362525822E+02  0.19176370078E+02  0.51100000000E-03 0.  1.
<mgrwt>
<rscale>  0 0.20000092E+02</rscale>
<asrwt>0</asrwt>
<pdfrwt beam="2">  1        3 0.54671167E-02 0.20000092E+02</pdfrwt>
<pdfrwt beam="1">  1       -3 0.43293125E-03 0.20000092E+02</pdfrwt>
<totfact> 0.16799367E+06</totfact>
</mgrwt>
</event>
<event>
 5    1  0.4133473E-007  0.2000050E+02  0.7818608E-02  0.1745318E+00
          3   -1    0    0  501    0  0.00000000000E+00  0.00000000000E+00  0.45504037431E+02  0.45504132466E+02  0.93000000000E-01 0. -1.
         -3   -1    0    0    0  501 -0.00000000000E+00 -0.00000000000E+00 -0.21966348609E+01  0.21986026726E+01  0.93000000000E-01 0.  1.
       1023    2    1    2    0    0  0.00000000000E+00  0.00000000000E+00  0.43307402570E+02  0.47702735139E+02  0.20000495553E+02 0.  0.
        -11    1    3    3    0    0  0.94594239078E+01 -0.32436591049E+01  0.21524592184E+02  0.23734154588E+02  0.51100000000E-03 0.  1.
         11    1    3    3    0    0 -0.94594239078E+01  0.32436591049E+01  0.21782810386E+02  0.23968580551E+02  0.51100000000E-03 0. -1.
<mgrwt>
<rscale>  0 0.20000496E+02</rscale>
<asrwt>0</asrwt>
<pdfrwt beam="1">  1        3 0.70007798E-02 0.20000496E+02</pdfrwt>
<pdfrwt beam="2">  1       -3 0.33810251E-03 0.20000496E+02</pdfrwt>
<totfact> 0.16318336E+06</totfact>
</mgrwt>
</event>
<event>
 5    1  0.4133473E-007  0.2000504E+02  0.7818608E-02  0.1745228E+00
         -3   -1    0    0    0  501 -0.00000000000E+00  0.00000000000E+00  0.25861221026E+02  0.25861388245E+02  0.93000000000E-01 0. -1.
          3   -1    0    0  501    0  0.00000000000E+00 -0.00000000000E+00 -0.38680031985E+01  0.38691210557E+01  0.93000000000E-01 0.  1.
       1023    2    1    2    0    0  0.00000000000E+00  0.00000000000E+00  0.21993217828E+02  0.29730509301E+02  0.20005038187E+02 0.  0.
        -11    1    3    3    0    0 -0.71220155809E+01 -0.70227080655E+01  0.10856772855E+02  0.14761810580E+02  0.51100000000E-03 0. -1.
         11    1    3    3    0    0  0.71220155809E+01  0.70227080655E+01  0.11136444973E+02  0.14968698721E+02  0.51100000000E-03 0.  1.
<mgrwt>
<rscale>  0 0.20005038E+02</rscale>
<asrwt>0</asrwt>
<pdfrwt beam="2">  1        3 0.59517628E-03 0.20005038E+02</pdfrwt>
<pdfrwt beam="1">  1       -3 0.39787482E-02 0.20005038E+02</pdfrwt>
<totfact> 0.17274433E+06</totfact>
</mgrwt>
</event>
<event>
 5    1  0.4133473E-007  0.2000076E+02  0.7818608E-02  0.1745313E+00
         -3   -1    0    0    0  501 -0.00000000000E+00  0.00000000000E+00  0.11887279712E+03  0.11887283350E+03  0.93000000000E-01 0. -1.
          3   -1    0    0  501    0  0.00000000000E+00 -0.00000000000E+00 -0.83869280881E+00  0.84383329370E+00  0.93000000000E-01 0.  1.
       1023    2    1    2    0    0  0.00000000000E+00  0.00000000000E+00  0.11803410431E+03  0.11971666679E+03  0.20000763172E+02 0.  0.
        -11    1    3    3    0    0  0.45321436188E+01 -0.89141145944E+01  0.59475520585E+02  0.60310358263E+02  0.51100000000E-03 0. -1.
         11    1    3    3    0    0 -0.45321436188E+01  0.89141145944E+01  0.58558583727E+02  0.59406308530E+02  0.51100000000E-03 0.  1.
<mgrwt>
<rscale>  0 0.20000763E+02</rscale>
<asrwt>0</asrwt>
<pdfrwt beam="2">  1        3 0.12942787E-03 0.20000763E+02</pdfrwt>
<pdfrwt beam="1">  1       -3 0.18288523E-01 0.20000763E+02</pdfrwt>
<totfact> 0.13531391E+06</totfact>
</mgrwt>
</event>
<event>
 5    1  0.4133473E-007  0.2000731E+02  0.7818608E-02  0.1745183E+00
          3   -1    0    0  501    0  0.00000000000E+00  0.00000000000E+00  0.22829020142E+02  0.22829209571E+02  0.93000000000E-01 0.  1.
         -3   -1    0    0    0  501 -0.00000000000E+00 -0.00000000000E+00 -0.43828907058E+01  0.43838772723E+01  0.93000000000E-01 0. -1.
       1023    2    1    2    0    0  0.00000000000E+00  0.00000000000E+00  0.18446129436E+02  0.27213086843E+02  0.20007308774E+02 0.  0.
        -11    1    3    3    0    0 -0.96690719659E+01  0.25517561923E+01  0.95846938996E+01  0.13851670288E+02  0.51100000000E-03 0.  1.
         11    1    3    3    0    0  0.96690719659E+01 -0.25517561923E+01  0.88614355362E+01  0.13361416555E+02  0.51100000000E-03 0. -1.
<mgrwt>
<rscale>  0 0.20007309E+02</rscale>
<asrwt>0</asrwt>
<pdfrwt beam="1">  1        3 0.35122475E-02 0.20007309E+02</pdfrwt>
<pdfrwt beam="2">  1       -3 0.67438133E-03 0.20007309E+02</pdfrwt>
<totfact> 0.17417907E+06</totfact>
</mgrwt>
</event>
<event>
 5    1  0.4133473E-007  0.2000019E+02  0.7818608E-02  0.1745324E+00
         -3   -1    0    0    0  501 -0.00000000000E+00  0.00000000000E+00  0.84157903812E+00  0.84670200036E+00  0.93000000000E-01 0. -1.
          3   -1    0    0  501    0  0.00000000000E+00 -0.00000000000E+00 -0.11846075953E+03  0.11846079604E+03  0.93000000000E-01 0.  1.
       1023    2    1    2    0    0  0.00000000000E+00  0.00000000000E+00 -0.11761918049E+03  0.11930749804E+03  0.20000186701E+02 0.  0.
        -11    1    3    3    0    0  0.97858910778E+01  0.20584099578E+01 -0.58607207213E+02  0.59454229903E+02  0.51100000000E-03 0.  1.
         11    1    3    3    0    0 -0.97858910778E+01 -0.20584099578E+01 -0.59011973281E+02  0.59853268136E+02  0.51100000000E-03 0. -1.
<mgrwt>
<rscale>  0 0.20000187E+02</rscale>
<asrwt>0</asrwt>
<pdfrwt beam="2">  1        3 0.18225116E-01 0.20000187E+02</pdfrwt>
<pdfrwt beam="1">  1       -3 0.12987067E-03 0.20000187E+02</pdfrwt>
<totfact> 0.13542410E+06</totfact>
</mgrwt>
</event>
<event>
 5    1  0.4265998E-007  0.2000140E+02  0.7818608E-02  0.1745300E+00
          3   -1    0    0  501    0  0.00000000000E+00  0.00000000000E+00  0.33463550846E+01  0.33476471368E+01  0.93000000000E-01 0. -1.
         -3   -1    0    0    0  501 -0.00000000000E+00 -0.00000000000E+00 -0.29880319044E+02  0.29880463771E+02  0.93000000000E-01 0.  1.
       1023    2    1    2    0    0  0.00000000000E+00  0.00000000000E+00 -0.26533963959E+02  0.33228110908E+02  0.20001402728E+02 0.  0.
        -11    1    3    3    0    0 -0.65508207366E+01  0.75562558506E+01 -0.13164941624E+02  0.16532572184E+02  0.51100000000E-03 0.  1.
         11    1    3    3    0    0  0.65508207366E+01 -0.75562558506E+01 -0.13369022336E+02  0.16695538724E+02  0.51100000000E-03 0. -1.
<mgrwt>
<rscale>  0 0.20001403E+02</rscale>
<asrwt>0</asrwt>
<pdfrwt beam="1">  1        3 0.51493440E-03 0.20001403E+02</pdfrwt>
<pdfrwt beam="2">  1       -3 0.45970825E-02 0.20001403E+02</pdfrwt>
<totfact> 0.17080428E+06</totfact>
</mgrwt>
</event>
<event>
 5    1  0.4230505E-007  0.2000153E+02  0.7818608E-02  0.1745298E+00
          3   -1    0    0  501    0  0.00000000000E+00  0.00000000000E+00  0.26857862418E+02  0.26858023432E+02  0.93000000000E-01 0. -1.
         -3   -1    0    0    0  501 -0.00000000000E+00 -0.00000000000E+00 -0.37231215806E+01  0.37242829248E+01  0.93000000000E-01 0.  1.
       1023    2    1    2    0    0  0.00000000000E+00  0.00000000000E+00  0.23134740838E+02  0.30582306357E+02  0.20001530653E+02 0.  0.
        -11    1    3    3    0    0  0.97839752355E+01 -0.20682393695E+01  0.11731489428E+02  0.15415305055E+02  0.51100000000E-03 0. -1.
         11    1    3    3    0    0 -0.97839752355E+01  0.20682393695E+01  0.11403251410E+02  0.15167001302E+02  0.51100000000E-03 0.  1.
<mgrwt>
<rscale>  0 0.20001531E+02</rscale>
<asrwt>0</asrwt>
<pdfrwt beam="1">  1        3 0.41320807E-02 0.20001531E+02</pdfrwt>
<pdfrwt beam="2">  1       -3 0.57288964E-03 0.20001531E+02</pdfrwt>
<totfact> 0.17229696E+06</totfact>
</mgrwt>
</event>
<event>
 5    1  0.4133473E-007  0.2000523E+02  0.7818608E-02  0.1745224E+00
         -3   -1    0    0    0  501 -0.00000000000E+00  0.00000000000E+00  0.12225235064E+01  0.12260557588E+01  0.93000000000E-01 0.  1.
          3   -1    0    0  501    0  0.00000000000E+00 -0.00000000000E+00 -0.81719149966E+02  0.81719202885E+02  0.93000000000E-01 0. -1.
       1023    2    1    2    0    0  0.00000000000E+00  0.00000000000E+00 -0.80496626460E+02  0.82945258644E+02  0.20005225820E+02 0.  0.
        -11    1    3    3    0    0 -0.62407441279E+01 -0.78148019610E+01 -0.41015611969E+02  0.42217276587E+02  0.51100000000E-03 0. -1.
         11    1    3    3    0    0  0.62407441279E+01  0.78148019610E+01 -0.39481014491E+02  0.40727982057E+02  0.51100000000E-03 0.  1.
<mgrwt>
<rscale>  0 0.20005226E+02</rscale>
<asrwt>0</asrwt>
<pdfrwt beam="2">  1        3 0.12572448E-01 0.20005226E+02</pdfrwt>
<pdfrwt beam="1">  1       -3 0.18835639E-03 0.20005226E+02</pdfrwt>
<totfact> 0.14789694E+06</totfact>
</mgrwt>
</event>
<event>
 5    1  0.4133473E-007  0.2000077E+02  0.7818608E-02  0.1745313E+00
         -3   -1    0    0    0  501 -0.00000000000E+00  0.00000000000E+00  0.94523913322E+00  0.94980314749E+00  0.93000000000E-01 0. -1.
          3   -1    0    0  501    0  0.00000000000E+00 -0.00000000000E+00 -0.10554207246E+03  0.10554211343E+03  0.93000000000E-01 0.  1.
       1023    2    1    2    0    0  0.00000000000E+00  0.00000000000E+00 -0.10459683333E+03  0.10649191658E+03  0.20000768866E+02 0.  0.
        -11    1    3    3    0    0  0.88198475695E+01 -0.47135901466E+01 -0.52334264726E+02  0.53281168417E+02  0.51100000000E-03 0.  1.
         11    1    3    3    0    0 -0.88198475695E+01  0.47135901466E+01 -0.52262568601E+02  0.53210748164E+02  0.51100000000E-03 0. -1.
<mgrwt>
<rscale>  0 0.20000769E+02</rscale>
<asrwt>0</asrwt>
<pdfrwt beam="2">  1        3 0.16237587E-01 0.20000769E+02</pdfrwt>
<pdfrwt beam="1">  1       -3 0.14577572E-03 0.20000769E+02</pdfrwt>
<totfact> 0.13956052E+06</totfact>
</mgrwt>
</event>
<event>
 5    1  0.4133473E-007  0.2000377E+02  0.7818608E-02  0.1745253E+00
         -3   -1    0    0    0  501 -0.00000000000E+00  0.00000000000E+00  0.39235404071E+02  0.39235514290E+02  0.93000000000E-01 0.  1.
          3   -1    0    0  501    0  0.00000000000E+00 -0.00000000000E+00 -0.25487167212E+01  0.25504128930E+01  0.93000000000E-01 0. -1.
       1023    2    1    2    0    0  0.00000000000E+00  0.00000000000E+00  0.36686687350E+02  0.41785927183E+02  0.20003766692E+02 0.  0.
        -11    1    3    3    0    0 -0.96147687494E+01  0.27519635211E+01  0.18643076691E+02  0.21156119448E+02  0.51100000000E-03 0.  1.
         11    1    3    3    0    0  0.96147687494E+01 -0.27519635211E+01  0.18043610658E+02  0.20629807735E+02  0.51100000000E-03 0. -1.
<mgrwt>
<rscale>  0 0.20003767E+02</rscale>
<asrwt>0</asrwt>
<pdfrwt beam="2">  1        3 0.39224923E-03 0.20003767E+02</pdfrwt>
<pdfrwt beam="1">  1       -3 0.60363547E-02 0.20003767E+02</pdfrwt>
<totfact> 0.16614017E+06</totfact>
</mgrwt>
</event>
<event>
 5    1  0.4133473E-007  0.2000024E+02  0.7818608E-02  0.1745323E+00
         -3   -1    0    0    0  501 -0.00000000000E+00  0.00000000000E+00  0.46836544380E+02  0.46836636711E+02  0.93000000000E-01 0. -1.
          3   -1    0    0  501    0  0.00000000000E+00 -0.00000000000E+00 -0.21340286405E+01  0.21360541282E+01  0.93000000000E-01 0.  1.
       1023    2    1    2    0    0  0.00000000000E+00  0.00000000000E+00  0.44702515739E+02  0.48972690840E+02  0.20000238365E+02 0.  0.
        -11    1    3    3    0    0 -0.10000062921E+02 -0.10773058984E-01  0.22429034471E+02  0.24557340288E+02  0.51100000000E-03 0.  1.
         11    1    3    3    0    0  0.10000062921E+02  0.10773058984E-01  0.22273481268E+02  0.24415350551E+02  0.51100000000E-03 0. -1.
<mgrwt>
<rscale>  0 0.20000238E+02</rscale>
<asrwt>0</asrwt>
<pdfrwt beam="2">  1        3 0.32847503E-03 0.20000238E+02</pdfrwt>
<pdfrwt beam="1">  1       -3 0.72057846E-02 0.20000238E+02</pdfrwt>
<totfact> 0.16259130E+06</totfact>
</mgrwt>
</event>
<event>
 5    1  0.4133473E-007  0.2000608E+02  0.7818608E-02  0.1745207E+00
          3   -1    0    0  501    0  0.00000000000E+00  0.00000000000E+00  0.28184855678E+01  0.28200194850E+01  0.93000000000E-01 0.  1.
         -3   -1    0    0    0  501 -0.00000000000E+00 -0.00000000000E+00 -0.35490371821E+02  0.35490493671E+02  0.93000000000E-01 0. -1.
       1023    2    1    2    0    0  0.00000000000E+00  0.00000000000E+00 -0.32671886253E+02  0.38310513156E+02  0.20006080748E+02 0.  0.
        -11    1    3    3    0    0 -0.30495496199E+01 -0.95268472581E+01 -0.16305975529E+02  0.19129699678E+02  0.51100000000E-03 0.  1.
         11    1    3    3    0    0  0.30495496199E+01  0.95268472581E+01 -0.16365910725E+02  0.19180813478E+02  0.51100000000E-03 0. -1.
<mgrwt>
<rscale>  0 0.20006081E+02</rscale>
<asrwt>0</asrwt>
<pdfrwt beam="1">  1        3 0.43374056E-03 0.20006081E+02</pdfrwt>
<pdfrwt beam="2">  1       -3 0.54601842E-02 0.20006081E+02</pdfrwt>
<totfact> 0.16792851E+06</totfact>
</mgrwt>
</event>
<event>
 4    1  0.4133473E-007  0.2058058E+02  0.7818608E-02  0.1734023E+00
         -3   -1    0    0    0  501 -0.00000000000E+00  0.00000000000E+00  0.16208219068E+02  0.16208485874E+02  0.93000000000E-01 0.  1.
          3   -1    0    0  501    0  0.00000000000E+00 -0.00000000000E+00 -0.65324561118E+01  0.65331180804E+01  0.93000000000E-01 0. -1.
        -11    1    1    2    0    0 -0.60417343664E+01  0.83168930117E+01  0.53523629902E+01  0.11589696000E+02  0.51100000000E-03 0.  1.
         11    1    1    2    0    0  0.60417343664E+01 -0.83168930117E+01  0.43233999655E+01  0.11151907955E+02  0.51100000000E-03 0. -1.
<mgrwt>
<rscale>  0 0.20580577E+02</rscale>
<asrwt>0</asrwt>
<pdfrwt beam="2">  1        3 0.10050647E-02 0.20580577E+02</pdfrwt>
<pdfrwt beam="1">  1       -3 0.24936436E-02 0.20580577E+02</pdfrwt>
<totfact> 0.16645092E+06</totfact>
</mgrwt>
</event>
<event>
 5    1  0.4133473E-007  0.2000073E+02  0.7818608E-02  0.1745314E+00
          3   -1    0    0  501    0  0.00000000000E+00  0.00000000000E+00  0.15568372731E+02  0.15568650503E+02  0.93000000000E-01 0. -1.
         -3   -1    0    0    0  501 -0.00000000000E+00 -0.00000000000E+00 -0.64230733568E+01  0.64237465973E+01  0.93000000000E-01 0.  1.
       1023    2    1    2    0    0  0.00000000000E+00  0.00000000000E+00  0.91452993740E+01  0.21992397100E+02  0.20000725726E+02 0.  0.
        -11    1    3    3    0    0  0.58088309476E+01  0.81402591169E+01  0.46060317607E+01  0.11010080123E+02  0.51100000000E-03 0.  1.
         11    1    3    3    0    0 -0.58088309476E+01 -0.81402591169E+01  0.45392676132E+01  0.10982316977E+02  0.51100000000E-03 0. -1.
<mgrwt>
<rscale>  0 0.20000726E+02</rscale>
<asrwt>0</asrwt>
<pdfrwt beam="1">  1        3 0.23952074E-02 0.20000726E+02</pdfrwt>
<pdfrwt beam="2">  1       -3 0.98823829E-03 0.20000726E+02</pdfrwt>
<totfact> 0.17754547E+06</totfact>
</mgrwt>
</event>
<event>
 5    1  0.4133473E-007  0.2000021E+02  0.7818608E-02  0.1745324E+00
          3   -1    0    0  501    0  0.00000000000E+00  0.00000000000E+00  0.22917951368E+02  0.22918140062E+02  0.93000000000E-01 0. -1.
         -3   -1    0    0    0  501 -0.00000000000E+00 -0.00000000000E+00 -0.43627816531E+01  0.43637727660E+01  0.93000000000E-01 0.  1.
       1023    2    1    2    0    0  0.00000000000E+00  0.00000000000E+00  0.18555169714E+02  0.27281912828E+02  0.20000211109E+02 0.  0.
        -11    1    3    3    0    0  0.50553153721E+01  0.86282025596E+01  0.92833591273E+01  0.13644883652E+02  0.51100000000E-03 0.  1.
         11    1    3    3    0    0 -0.50553153721E+01 -0.86282025596E+01  0.92718105872E+01  0.13637029176E+02  0.51100000000E-03 0. -1.
<mgrwt>
<rscale>  0 0.20000211E+02</rscale>
<asrwt>0</asrwt>
<pdfrwt beam="1">  1        3 0.35259294E-02 0.20000211E+02</pdfrwt>
<pdfrwt beam="2">  1       -3 0.67128794E-03 0.20000211E+02</pdfrwt>
<totfact> 0.17427076E+06</totfact>
</mgrwt>
</event>
<event>
 5    1  0.4137756E-007  0.2000109E+02  0.7818608E-02  0.1745306E+00
          3   -1    0    0  501    0  0.00000000000E+00  0.00000000000E+00  0.42809230203E+02  0.42809331220E+02  0.93000000000E-01 0. -1.
         -3   -1    0    0    0  501 -0.00000000000E+00 -0.00000000000E+00 -0.23351712413E+01  0.23370224060E+01  0.93000000000E-01 0.  1.
       1023    2    1    2    0    0  0.00000000000E+00  0.00000000000E+00  0.40474058961E+02  0.45146353626E+02  0.20001094894E+02 0.  0.
        -11    1    3    3    0    0 -0.37878890617E+01 -0.92553601713E+01  0.20313692144E+02  0.22641905490E+02  0.51100000000E-03 0. -1.
         11    1    3    3    0    0  0.37878890617E+01  0.92553601713E+01  0.20160366817E+02  0.22504448136E+02  0.51100000000E-03 0.  1.
<mgrwt>
<rscale>  0 0.20001095E+02</rscale>
<asrwt>0</asrwt>
<pdfrwt beam="1">  1        3 0.65861854E-02 0.20001095E+02</pdfrwt>
<pdfrwt beam="2">  1       -3 0.35940729E-03 0.20001095E+02</pdfrwt>
<totfact> 0.16444615E+06</totfact>
</mgrwt>
</event>
<event>
 5    1  0.4133473E-007  0.2000018E+02  0.7818608E-02  0.1745325E+00
          3   -1    0    0  501    0  0.00000000000E+00  0.00000000000E+00  0.40252306384E+02  0.40252413819E+02  0.93000000000E-01 0. -1.
         -3   -1    0    0    0  501 -0.00000000000E+00 -0.00000000000E+00 -0.24833929630E+01  0.24851337205E+01  0.93000000000E-01 0.  1.
       1023    2    1    2    0    0  0.00000000000E+00  0.00000000000E+00  0.37768913421E+02  0.42737547540E+02  0.20000178716E+02 0.  0.
        -11    1    3    3    0    0  0.42304372778E+01 -0.90611849429E+01  0.18861563884E+02  0.21348542445E+02  0.51100000000E-03 0.  1.
         11    1    3    3    0    0 -0.42304372778E+01  0.90611849429E+01  0.18907349537E+02  0.21389005094E+02  0.51100000000E-03 0. -1.
<mgrwt>
<rscale>  0 0.20000179E+02</rscale>
<asrwt>0</asrwt>
<pdfrwt beam="1">  1        3 0.61928040E-02 0.20000179E+02</pdfrwt>
<pdfrwt beam="2">  1       -3 0.38220266E-03 0.20000179E+02</pdfrwt>
<totfact> 0.16568955E+06</totfact>
</mgrwt>
</event>
<event>
 5    1  0.4133473E-007  0.2000088E+02  0.7818608E-02  0.1745311E+00
         -3   -1    0    0    0  501 -0.00000000000E+00  0.00000000000E+00  0.10134017245E+01  0.10176600883E+01  0.93000000000E-01 0.  1.
          3   -1    0    0  501    0  0.00000000000E+00 -0.00000000000E+00 -0.98475015156E+02  0.98475059071E+02  0.93000000000E-01 0. -1.
       1023    2    1    2    0    0  0.00000000000E+00  0.00000000000E+00 -0.97461613432E+02  0.99492719159E+02  0.20000876805E+02 0.  0.
        -11    1    3    3    0    0 -0.95432205924E+01  0.29892130461E+01 -0.48642649652E+02  0.49660002208E+02  0.51100000000E-03 0. -1.
         11    1    3    3    0    0  0.95432205924E+01 -0.29892130461E+01 -0.48818963780E+02  0.49832716951E+02  0.51100000000E-03 0.  1.
<mgrwt>
<rscale>  0 0.20000877E+02</rscale>
<asrwt>0</asrwt>
<pdfrwt beam="2">  1        3 0.15150326E-01 0.20000877E+02</pdfrwt>
<pdfrwt beam="1">  1       -3 0.15623898E-03 0.20000877E+02</pdfrwt>
<totfact> 0.14194277E+06</totfact>
</mgrwt>
</event>
<event>
 5    1  0.4208015E-007  0.2000071E+02  0.7818608E-02  0.1745314E+00
         -3   -1    0    0    0  501 -0.00000000000E+00  0.00000000000E+00  0.18612107676E+02  0.18612340023E+02  0.93000000000E-01 0.  1.
          3   -1    0    0  501    0  0.00000000000E+00 -0.00000000000E+00 -0.53725599898E+01  0.53733648530E+01  0.93000000000E-01 0. -1.
       1023    2    1    2    0    0  0.00000000000E+00  0.00000000000E+00  0.13239547686E+02  0.23985704876E+02  0.20000710374E+02 0.  0.
        -11    1    3    3    0    0  0.50455066100E+01 -0.86341272717E+01  0.66708355915E+01  0.12021037328E+02  0.51100000000E-03 0. -1.
         11    1    3    3    0    0 -0.50455066100E+01  0.86341272717E+01  0.65687120946E+01  0.11964667548E+02  0.51100000000E-03 0.  1.
<mgrwt>
<rscale>  0 0.20000710E+02</rscale>
<asrwt>0</asrwt>
<pdfrwt beam="2">  1        3 0.82662747E-03 0.20000710E+02</pdfrwt>
<pdfrwt beam="1">  1       -3 0.28634810E-02 0.20000710E+02</pdfrwt>
<totfact> 0.17629471E+06</totfact>
</mgrwt>
</event>
<event>
 5    1  0.4133473E-007  0.2000276E+02  0.7818608E-02  0.1745273E+00
          3   -1    0    0  501    0  0.00000000000E+00  0.00000000000E+00  0.97285706454E+02  0.97285750905E+02  0.93000000000E-01 0. -1.
         -3   -1    0    0    0  501 -0.00000000000E+00 -0.00000000000E+00 -0.10260361272E+01  0.10302422697E+01  0.93000000000E-01 0.  1.
       1023    2    1    2    0    0  0.00000000000E+00  0.00000000000E+00  0.96259670327E+02  0.98315993175E+02  0.20002759375E+02 0.  0.
        -11    1    3    3    0    0 -0.36966678212E+01 -0.92927655035E+01  0.47725965720E+02  0.48762574254E+02  0.51100000000E-03 0. -1.
         11    1    3    3    0    0  0.36966678212E+01  0.92927655035E+01  0.48533704607E+02  0.49553418922E+02  0.51100000000E-03 0.  1.
<mgrwt>
<rscale>  0 0.20002759E+02</rscale>
<asrwt>0</asrwt>
<pdfrwt beam="1">  1        3 0.14967359E-01 0.20002759E+02</pdfrwt>
<pdfrwt beam="2">  1       -3 0.15817868E-03 0.20002759E+02</pdfrwt>
<totfact> 0.14232378E+06</totfact>
</mgrwt>
</event>
<event>
 5    1  0.4154136E-007  0.2000163E+02  0.7818608E-02  0.1745296E+00
         -3   -1    0    0    0  501 -0.00000000000E+00  0.00000000000E+00  0.15934542408E+01  0.15961658490E+01  0.93000000000E-01 0. -1.
          3   -1    0    0  501    0  0.00000000000E+00 -0.00000000000E+00 -0.62710883143E+02  0.62710952102E+02  0.93000000000E-01 0.  1.
       1023    2    1    2    0    0  0.00000000000E+00  0.00000000000E+00 -0.61117428902E+02  0.64307117952E+02  0.20001632523E+02 0.  0.
        -11    1    3    3    0    0  0.34519972395E+01 -0.93858817736E+01 -0.30325447786E+02  0.31931862540E+02  0.51100000000E-03 0.  1.
         11    1    3    3    0    0 -0.34519972395E+01  0.93858817736E+01 -0.30791981116E+02  0.32375255411E+02  0.51100000000E-03 0. -1.
<mgrwt>
<rscale>  0 0.20001633E+02</rscale>
<asrwt>0</asrwt>
<pdfrwt beam="2">  1        3 0.96480401E-02 0.20001633E+02</pdfrwt>
<pdfrwt beam="1">  1       -3 0.24536074E-03 0.20001633E+02</pdfrwt>
<totfact> 0.15551628E+06</totfact>
</mgrwt>
</event>
<event>
 5    1  0.4133473E-007  0.2000031E+02  0.7818608E-02  0.1745322E+00
         -3   -1    0    0    0  501 -0.00000000000E+00  0.00000000000E+00  0.11803120880E+02  0.11803487260E+02  0.93000000000E-01 0.  1.
          3   -1    0    0  501    0  0.00000000000E+00 -0.00000000000E+00 -0.84718411963E+01  0.84723516366E+01  0.93000000000E-01 0. -1.
       1023    2    1    2    0    0  0.00000000000E+00  0.00000000000E+00  0.33312796833E+01  0.20275838897E+02  0.20000305463E+02 0.  0.
        -11    1    3    3    0    0 -0.68692388380E+01  0.72674590237E+01  0.16915164223E+01  0.10142170919E+02  0.51100000000E-03 0.  1.
         11    1    3    3    0    0  0.68692388380E+01 -0.72674590237E+01  0.16397632610E+01  0.10133667978E+02  0.51100000000E-03 0. -1.
<mgrwt>
<rscale>  0 0.20000305E+02</rscale>
<asrwt>0</asrwt>
<pdfrwt beam="2">  1        3 0.13034276E-02 0.20000305E+02</pdfrwt>
<pdfrwt beam="1">  1       -3 0.18159322E-02 0.20000305E+02</pdfrwt>
<totfact> 0.17867127E+06</totfact>
</mgrwt>
</event>
<event>
 5    1  0.4156988E-007  0.2000081E+02  0.7818608E-02  0.1745312E+00
         -3   -1    0    0    0  501 -0.00000000000E+00  0.00000000000E+00  0.15762712871E+02  0.15762987218E+02  0.93000000000E-01 0. -1.
          3   -1    0    0  501    0  0.00000000000E+00 -0.00000000000E+00 -0.63439299092E+01  0.63446115478E+01  0.93000000000E-01 0.  1.
       1023    2    1    2    0    0  0.00000000000E+00  0.00000000000E+00  0.94187829617E+01  0.22107598766E+02  0.20000811252E+02 0.  0.
        -11    1    3    3    0    0  0.57572187609E+01 -0.81764726143E+01  0.46115200100E+01  0.11012101949E+02  0.51100000000E-03 0. -1.
         11    1    3    3    0    0 -0.57572187609E+01  0.81764726143E+01  0.48072629516E+01  0.11095496817E+02  0.51100000000E-03 0.  1.
<mgrwt>
<rscale>  0 0.20000811E+02</rscale>
<asrwt>0</asrwt>
<pdfrwt beam="2">  1        3 0.97606277E-03 0.20000811E+02</pdfrwt>
<pdfrwt beam="1">  1       -3 0.24251062E-02 0.20000811E+02</pdfrwt>
<totfact> 0.17747812E+06</totfact>
</mgrwt>
</event>
<event>
 5    1  0.4133473E-007  0.2000035E+02  0.7818608E-02  0.1745321E+00
          3   -1    0    0  501    0  0.00000000000E+00  0.00000000000E+00  0.32542708954E+01  0.32555994933E+01  0.93000000000E-01 0. -1.
         -3   -1    0    0    0  501 -0.00000000000E+00 -0.00000000000E+00 -0.30722241135E+02  0.30722381895E+02  0.93000000000E-01 0.  1.
       1023    2    1    2    0    0  0.00000000000E+00  0.00000000000E+00 -0.27467970239E+02  0.33977981389E+02  0.20000345752E+02 0.  0.
        -11    1    3    3    0    0 -0.97553597509E+01 -0.21990242965E+01 -0.13779111129E+02  0.17025470786E+02  0.51100000000E-03 0.  1.
         11    1    3    3    0    0  0.97553597509E+01  0.21990242965E+01 -0.13688859110E+02  0.16952510602E+02  0.51100000000E-03 0. -1.
<mgrwt>
<rscale>  0 0.20000346E+02</rscale>
<asrwt>0</asrwt>
<pdfrwt beam="1">  1        3 0.50077011E-03 0.20000346E+02</pdfrwt>
<pdfrwt beam="2">  1       -3 0.47266114E-02 0.20000346E+02</pdfrwt>
<totfact> 0.17040264E+06</totfact>
</mgrwt>
</event>
<event>
 5    1  0.4133473E-007  0.2000051E+02  0.7818608E-02  0.1745318E+00
         -3   -1    0    0    0  501 -0.00000000000E+00  0.00000000000E+00  0.33750632538E+01  0.33763443200E+01  0.93000000000E-01 0.  1.
          3   -1    0    0  501    0  0.00000000000E+00 -0.00000000000E+00 -0.29623606039E+02  0.29623752020E+02  0.93000000000E-01 0. -1.
       1023    2    1    2    0    0  0.00000000000E+00  0.00000000000E+00 -0.26248542785E+02  0.33000096340E+02  0.20000508996E+02 0.  0.
        -11    1    3    3    0    0 -0.74657605482E+01  0.66532787891E+01 -0.13062743940E+02  0.16451108738E+02  0.51100000000E-03 0. -1.
         11    1    3    3    0    0  0.74657605482E+01 -0.66532787891E+01 -0.13185798845E+02  0.16548987602E+02  0.51100000000E-03 0.  1.
<mgrwt>
<rscale>  0 0.20000509E+02</rscale>
<asrwt>0</asrwt>
<pdfrwt beam="2">  1        3 0.45575875E-02 0.20000509E+02</pdfrwt>
<pdfrwt beam="1">  1       -3 0.51935029E-03 0.20000509E+02</pdfrwt>
<totfact> 0.17093057E+06</totfact>
</mgrwt>
</event>
<event>
 4    1  0.4133473E-007  0.2001312E+02  0.7818608E-02  0.1745067E+00
          3   -1    0    0  501    0  0.00000000000E+00  0.00000000000E+00  0.10720494704E+03  0.10720498738E+03  0.93000000000E-01 0. -1.
         -3   -1    0    0    0  501 -0.00000000000E+00 -0.00000000000E+00 -0.93166110777E+00  0.93629131136E+00  0.93000000000E-01 0.  1.
        -11    1    1    2    0    0  0.55653716698E+01  0.83142928676E+01  0.52194731790E+02  0.53144998397E+02  0.51100000000E-03 0.  1.
         11    1    1    2    0    0 -0.55653716698E+01 -0.83142928676E+01  0.54078554145E+02  0.54996280296E+02  0.51100000000E-03 0. -1.
<mgrwt>
<rscale>  0 0.20013117E+02</rscale>
<asrwt>0</asrwt>
<pdfrwt beam="1">  1        3 0.16493434E-01 0.20013117E+02</pdfrwt>
<pdfrwt beam="2">  1       -3 0.14369170E-03 0.20013117E+02</pdfrwt>
<totfact> 0.13882746E+06</totfact>
</mgrwt>
</event>
<event>
 5    1  0.4236678E-007  0.2000083E+02  0.7818608E-02  0.1745311E+00
          3   -1    0    0  501    0  0.00000000000E+00  0.00000000000E+00  0.17293494985E+02  0.17293745048E+02  0.93000000000E-01 0. -1.
         -3   -1    0    0    0  501 -0.00000000000E+00 -0.00000000000E+00 -0.57823375774E+01  0.57830854099E+01  0.93000000000E-01 0.  1.
       1023    2    1    2    0    0  0.00000000000E+00  0.00000000000E+00  0.11511157407E+02  0.23076830458E+02  0.20000833961E+02 0.  0.
        -11    1    3    3    0    0  0.95542566495E+01  0.29526367428E+01  0.56628747204E+01  0.11492172737E+02  0.51100000000E-03 0.  1.
         11    1    3    3    0    0 -0.95542566495E+01 -0.29526367428E+01  0.58482826868E+01  0.11584657721E+02  0.51100000000E-03 0. -1.
<mgrwt>
<rscale>  0 0.20000834E+02</rscale>
<asrwt>0</asrwt>
<pdfrwt beam="1">  1        3 0.26606144E-02 0.20000834E+02</pdfrwt>
<pdfrwt beam="2">  1       -3 0.88966717E-03 0.20000834E+02</pdfrwt>
<totfact> 0.17685259E+06</totfact>
</mgrwt>
</event>
<event>
 5    1  0.4133473E-007  0.2000042E+02  0.7818608E-02  0.1745320E+00
         -3   -1    0    0    0  501 -0.00000000000E+00  0.00000000000E+00  0.32769419739E+02  0.32769551707E+02  0.93000000000E-01 0.  1.
          3   -1    0    0  501    0  0.00000000000E+00 -0.00000000000E+00 -0.30509058557E+01  0.30523229744E+01  0.93000000000E-01 0. -1.
       1023    2    1    2    0    0  0.00000000000E+00  0.00000000000E+00  0.29718513884E+02  0.35821874681E+02  0.20000415951E+02 0.  0.
        -11    1    3    3    0    0 -0.35354120711E+00  0.99938754708E+01  0.14931367426E+02  0.17970761581E+02  0.51100000000E-03 0.  1.
         11    1    3    3    0    0  0.35354120711E+00 -0.99938754708E+01  0.14787146458E+02  0.17851113101E+02  0.51100000000E-03 0. -1.
<mgrwt>
<rscale>  0 0.20000416E+02</rscale>
<asrwt>0</asrwt>
<pdfrwt beam="2">  1        3 0.46948933E-03 0.20000416E+02</pdfrwt>
<pdfrwt beam="1">  1       -3 0.50415679E-02 0.20000416E+02</pdfrwt>
<totfact> 0.16938009E+06</totfact>
</mgrwt>
</event>
<event>
 5    1  0.4133473E-007  0.2000253E+02  0.7818608E-02  0.1745278E+00
         -3   -1    0    0    0  501 -0.00000000000E+00  0.00000000000E+00  0.86726579637E+00  0.87223790422E+00  0.93000000000E-01 0.  1.
          3   -1    0    0  501    0  0.00000000000E+00 -0.00000000000E+00 -0.11499942464E+03  0.11499946224E+03  0.93000000000E-01 0. -1.
       1023    2    1    2    0    0  0.00000000000E+00  0.00000000000E+00 -0.11413215884E+03  0.11587170015E+03  0.20002530166E+02 0.  0.
        -11    1    3    3    0    0 -0.57220185156E+01  0.82015982592E+01 -0.57834437491E+02  0.58692673053E+02  0.51100000000E-03 0. -1.
         11    1    3    3    0    0  0.57220185156E+01 -0.82015982592E+01 -0.56297721350E+02  0.57179027093E+02  0.51100000000E-03 0.  1.
<mgrwt>
<rscale>  0 0.20002530E+02</rscale>
<asrwt>0</asrwt>
<pdfrwt beam="2">  1        3 0.17692592E-01 0.20002530E+02</pdfrwt>
<pdfrwt beam="1">  1       -3 0.13381096E-03 0.20002530E+02</pdfrwt>
<totfact> 0.13647457E+06</totfact>
</mgrwt>
</event>
<event>
 5    1  0.4312361E-007  0.2000205E+02  0.7818608E-02  0.1745287E+00
         -3   -1    0    0    0  501 -0.00000000000E+00  0.00000000000E+00  0.86219902182E+01  0.86224917699E+01  0.93000000000E-01 0.  1.
          3   -1    0    0  501    0  0.00000000000E+00 -0.00000000000E+00 -0.11599607035E+02  0.11599979843E+02  0.93000000000E-01 0. -1.
       1023    2    1    2    0    0  0.00000000000E+00  0.00000000000E+00 -0.29776168165E+01  0.20222471613E+02  0.20002053800E+02 0.  0.
        -11    1    3    3    0    0  0.44658229130E+01  0.89485588034E+01 -0.14725109714E+01  0.10108836123E+02  0.51100000000E-03 0. -1.
         11    1    3    3    0    0 -0.44658229130E+01 -0.89485588034E+01 -0.15051058451E+01  0.10113635489E+02  0.51100000000E-03 0.  1.
<mgrwt>
<rscale>  0 0.20002054E+02</rscale>
<asrwt>0</asrwt>
<pdfrwt beam="2">  1        3 0.17846222E-02 0.20002054E+02</pdfrwt>
<pdfrwt beam="1">  1       -3 0.13265273E-02 0.20002054E+02</pdfrwt>
<totfact> 0.17866984E+06</totfact>
</mgrwt>
</event>
<event>
 5    1  0.4133473E-007  0.2000016E+02  0.7818608E-02  0.1745325E+00
         -3   -1    0    0    0  501 -0.00000000000E+00  0.00000000000E+00  0.45868952700E+02  0.45869046979E+02  0.93000000000E-01 0.  1.
          3   -1    0    0  501    0  0.00000000000E+00 -0.00000000000E+00 -0.21790694110E+01  0.21810530709E+01  0.93000000000E-01 0. -1.
       1023    2    1    2    0    0  0.00000000000E+00  0.00000000000E+00  0.43689883289E+02  0.48050100050E+02  0.20000155325E+02 0.  0.
        -11    1    3    3    0    0 -0.78315679743E+01  0.62183493108E+01  0.21808671972E+02  0.23992071577E+02  0.51100000000E-03 0. -1.
         11    1    3    3    0    0  0.78315679743E+01 -0.62183493108E+01  0.21881211316E+02  0.24058028473E+02  0.51100000000E-03 0.  1.
<mgrwt>
<rscale>  0 0.20000155E+02</rscale>
<asrwt>0</asrwt>
<pdfrwt beam="2">  1        3 0.33540135E-03 0.20000155E+02</pdfrwt>
<pdfrwt beam="1">  1       -3 0.70569206E-02 0.20000155E+02</pdfrwt>
<totfact> 0.16304366E+06</totfact>
</mgrwt>
</event>
<event>
 5    1  0.4133473E-007  0.2000032E+02  0.7818608E-02  0.1745322E+00
          3   -1    0    0  501    0  0.00000000000E+00  0.00000000000E+00  0.55668295436E+02  0.55668373120E+02  0.93000000000E-01 0.  1.
         -3   -1    0    0    0  501 -0.00000000000E+00 -0.00000000000E+00 -0.17951291469E+01  0.17975365515E+01  0.93000000000E-01 0. -1.
       1023    2    1    2    0    0  0.00000000000E+00  0.00000000000E+00  0.53873166289E+02  0.57465909671E+02  0.20000318205E+02 0.  0.
        -11    1    3    3    0    0 -0.92272873930E+01 -0.38548515086E+01  0.26998809039E+02  0.28791290394E+02  0.51100000000E-03 0.  1.
         11    1    3    3    0    0  0.92272873930E+01  0.38548515086E+01  0.26874357251E+02  0.28674619277E+02  0.51100000000E-03 0. -1.
<mgrwt>
<rscale>  0 0.20000318E+02</rscale>
<asrwt>0</asrwt>
<pdfrwt beam="1">  1        3 0.85645431E-02 0.20000318E+02</pdfrwt>
<pdfrwt beam="2">  1       -3 0.27636491E-03 0.20000318E+02</pdfrwt>
<totfact> 0.15857131E+06</totfact>
</mgrwt>
</event>
<event>
 5    1  0.4133473E-007  0.2000381E+02  0.7818608E-02  0.1745252E+00
         -3   -1    0    0    0  501 -0.00000000000E+00  0.00000000000E+00  0.11559743013E+02  0.11560117107E+02  0.93000000000E-01 0.  1.
          3   -1    0    0  501    0  0.00000000000E+00 -0.00000000000E+00 -0.86532431094E+01  0.86537428498E+01  0.93000000000E-01 0. -1.
       1023    2    1    2    0    0  0.00000000000E+00  0.00000000000E+00  0.29064999036E+01  0.20213859957E+02  0.20003809454E+02 0.  0.
        -11    1    3    3    0    0  0.89333144816E+01  0.44981212762E+01  0.14834850453E+01  0.10111277406E+02  0.51100000000E-03 0.  1.
         11    1    3    3    0    0 -0.89333144816E+01 -0.44981212762E+01  0.14230148582E+01  0.10102582551E+02  0.51100000000E-03 0. -1.
<mgrwt>
<rscale>  0 0.20003809E+02</rscale>
<asrwt>0</asrwt>
<pdfrwt beam="2">  1        3 0.13313354E-02 0.20003809E+02</pdfrwt>
<pdfrwt beam="1">  1       -3 0.17784892E-02 0.20003809E+02</pdfrwt>
<totfact> 0.17864431E+06</totfact>
</mgrwt>
</event>
<event>
 5    1  0.4133473E-007  0.2000022E+02  0.7818608E-02  0.1745324E+00
          3   -1    0    0  501    0  0.00000000000E+00  0.00000000000E+00  0.81131193410E+01  0.81136523490E+01  0.93000000000E-01 0. -1.
         -3   -1    0    0    0  501 -0.00000000000E+00 -0.00000000000E+00 -0.12324872399E+02  0.12325223270E+02  0.93000000000E-01 0.  1.
       1023    2    1    2    0    0  0.00000000000E+00  0.00000000000E+00 -0.42117530581E+01  0.20438875619E+02  0.20000219317E+02 0.  0.
        -11    1    3    3    0    0 -0.15761089998E+01 -0.98750977348E+01 -0.21291369553E+01  0.10224230988E+02  0.51100000000E-03 0.  1.
         11    1    3    3    0    0  0.15761089998E+01  0.98750977348E+01 -0.20826161028E+01  0.10214644631E+02  0.51100000000E-03 0. -1.
<mgrwt>
<rscale>  0 0.20000219E+02</rscale>
<asrwt>0</asrwt>
<pdfrwt beam="1">  1        3 0.12482402E-02 0.20000219E+02</pdfrwt>
<pdfrwt beam="2">  1       -3 0.18962022E-02 0.20000219E+02</pdfrwt>
<totfact> 0.17856672E+06</totfact>
</mgrwt>
</event>
<event>
 5    1  0.4133473E-007  0.2000025E+02  0.7818608E-02  0.1745323E+00
          3   -1    0    0  501    0  0.00000000000E+00  0.00000000000E+00  0.41992798146E+02  0.41992901128E+02  0.93000000000E-01 0. -1.
         -3   -1    0    0    0  501 -0.00000000000E+00 -0.00000000000E+00 -0.23804062700E+01  0.23822222840E+01  0.93000000000E-01 0.  1.
       1023    2    1    2    0    0  0.00000000000E+00  0.00000000000E+00  0.39612391876E+02  0.44375123412E+02  0.20000249690E+02 0.  0.
        -11    1    3    3    0    0 -0.80608835107E+01  0.59181286339E+01  0.19850965799E+02  0.22227526469E+02  0.51100000000E-03 0.  1.
         11    1    3    3    0    0  0.80608835107E+01 -0.59181286339E+01  0.19761426077E+02  0.22147596943E+02  0.51100000000E-03 0. -1.
<mgrwt>
<rscale>  0 0.20000250E+02</rscale>
<asrwt>0</asrwt>
<pdfrwt beam="1">  1        3 0.64605783E-02 0.20000250E+02</pdfrwt>
<pdfrwt beam="2">  1       -3 0.36636395E-03 0.20000250E+02</pdfrwt>
<totfact> 0.16485104E+06</totfact>
</mgrwt>
</event>
<event>
 5    1  0.4133473E-007  0.2000814E+02  0.7818608E-02  0.1745166E+00
         -3   -1    0    0    0  501 -0.00000000000E+00  0.00000000000E+00  0.94208213053E+00  0.94666136536E+00  0.93000000000E-01 0.  1.
          3   -1    0    0  501    0  0.00000000000E+00 -0.00000000000E+00 -0.10597211693E+03  0.10597215773E+03  0.93000000000E-01 0. -1.
       1023    2    1    2    0    0  0.00000000000E+00  0.00000000000E+00 -0.10503003480E+03  0.10691881910E+03  0.20008140055E+02 0.  0.
        -11    1    3    3    0    0 -0.49980782060E+01 -0.86645210837E+01 -0.51641749142E+02  0.52601568095E+02  0.51100000000E-03 0.  1.
         11    1    3    3    0    0  0.49980782060E+01  0.86645210837E+01 -0.53388285655E+02  0.54317251005E+02  0.51100000000E-03 0. -1.
<mgrwt>
<rscale>  0 0.20008140E+02</rscale>
<asrwt>0</asrwt>
<pdfrwt beam="2">  1        3 0.16303749E-01 0.20008140E+02</pdfrwt>
<pdfrwt beam="1">  1       -3 0.14529118E-03 0.20008140E+02</pdfrwt>
<totfact> 0.13930775E+06</totfact>
</mgrwt>
</event>
<event>
 5    1  0.4133473E-007  0.2000036E+02  0.7818608E-02  0.1745321E+00
          3   -1    0    0  501    0  0.00000000000E+00  0.00000000000E+00  0.18526857596E+01  0.18550184700E+01  0.93000000000E-01 0. -1.
         -3   -1    0    0    0  501 -0.00000000000E+00 -0.00000000000E+00 -0.53941303190E+02  0.53941383360E+02  0.93000000000E-01 0.  1.
       1023    2    1    2    0    0  0.00000000000E+00  0.00000000000E+00 -0.52088617430E+02  0.55796401830E+02  0.20000359782E+02 0.  0.
        -11    1    3    3    0    0  0.18503241918E+01 -0.98275030427E+01 -0.26019058201E+02  0.27874628349E+02  0.51100000000E-03 0. -1.
         11    1    3    3    0    0 -0.18503241918E+01  0.98275030427E+01 -0.26069559229E+02  0.27921773481E+02  0.51100000000E-03 0.  1.
<mgrwt>
<rscale>  0 0.20000360E+02</rscale>
<asrwt>0</asrwt>
<pdfrwt beam="1">  1        3 0.28521423E-03 0.20000360E+02</pdfrwt>
<pdfrwt beam="2">  1       -3 0.82988464E-02 0.20000360E+02</pdfrwt>
<totfact> 0.15936088E+06</totfact>
</mgrwt>
</event>
<event>
 5    1  0.4133473E-007  0.2000025E+02  0.7818608E-02  0.1745323E+00
          3   -1    0    0  501    0  0.00000000000E+00  0.00000000000E+00  0.60581307508E+01  0.60588445428E+01  0.93000000000E-01 0. -1.
         -3   -1    0    0    0  501 -0.00000000000E+00 -0.00000000000E+00 -0.16505333134E+02  0.16505595138E+02  0.93000000000E-01 0.  1.
       1023    2    1    2    0    0  0.00000000000E+00  0.00000000000E+00 -0.10447202383E+02  0.22564439681E+02  0.20000247510E+02 0.  0.
        -11    1    3    3    0    0  0.85764682634E+01 -0.51424107976E+01 -0.52774508037E+01  0.11307151893E+02  0.51100000000E-03 0.  1.
         11    1    3    3    0    0 -0.85764682634E+01  0.51424107976E+01 -0.51697515793E+01  0.11257287788E+02  0.51100000000E-03 0. -1.
<mgrwt>
<rscale>  0 0.20000248E+02</rscale>
<asrwt>0</asrwt>
<pdfrwt beam="1">  1        3 0.93209518E-03 0.20000248E+02</pdfrwt>
<pdfrwt beam="2">  1       -3 0.25393571E-02 0.20000248E+02</pdfrwt>
<totfact> 0.17719795E+06</totfact>
</mgrwt>
</event>
<event>
 5    1  0.4261255E-007  0.2000072E+02  0.7818608E-02  0.1745314E+00
          3   -1    0    0  501    0  0.00000000000E+00  0.00000000000E+00  0.10298108626E+02  0.10298528549E+02  0.93000000000E-01 0. -1.
         -3   -1    0    0    0  501 -0.00000000000E+00 -0.00000000000E+00 -0.97103805209E+01  0.97108258588E+01  0.93000000000E-01 0.  1.
       1023    2    1    2    0    0  0.00000000000E+00  0.00000000000E+00  0.58772810530E+00  0.20009354408E+02  0.20000720974E+02 0.  0.
        -11    1    3    3    0    0 -0.91374569898E+01  0.40637411231E+01  0.28398776418E+00  0.10004387111E+02  0.51100000000E-03 0.  1.
         11    1    3    3    0    0  0.91374569898E+01 -0.40637411231E+01  0.30374034112E+00  0.10004967297E+02  0.51100000000E-03 0. -1.
<mgrwt>
<rscale>  0 0.20000721E+02</rscale>
<asrwt>0</asrwt>
<pdfrwt beam="1">  1        3 0.15843910E-02 0.20000721E+02</pdfrwt>
<pdfrwt beam="2">  1       -3 0.14939713E-02 0.20000721E+02</pdfrwt>
<totfact> 0.17883605E+06</totfact>
</mgrwt>
</event>
<event>
 5    1  0.4248186E-007  0.2000102E+02  0.7818608E-02  0.1745308E+00
         -3   -1    0    0    0  501 -0.00000000000E+00  0.00000000000E+00  0.14526840564E+02  0.14527138252E+02  0.93000000000E-01 0.  1.
          3   -1    0    0  501    0  0.00000000000E+00 -0.00000000000E+00 -0.68838321091E+01  0.68844602916E+01  0.93000000000E-01 0. -1.
       1023    2    1    2    0    0  0.00000000000E+00  0.00000000000E+00  0.76430084554E+01  0.21411598543E+02  0.20001024322E+02 0.  0.
        -11    1    3    3    0    0 -0.84304973855E+01  0.53791675385E+01  0.38631536663E+01  0.10720666308E+02  0.51100000000E-03 0. -1.
         11    1    3    3    0    0  0.84304973855E+01 -0.53791675385E+01  0.37798547891E+01  0.10690932235E+02  0.51100000000E-03 0.  1.
<mgrwt>
<rscale>  0 0.20001024E+02</rscale>
<asrwt>0</asrwt>
<pdfrwt beam="2">  1        3 0.10591223E-02 0.20001024E+02</pdfrwt>
<pdfrwt beam="1">  1       -3 0.22349697E-02 0.20001024E+02</pdfrwt>
<totfact> 0.17792035E+06</totfact>
</mgrwt>
</event>
<event>
 5    1  0.4133473E-007  0.2000031E+02  0.7818608E-02  0.1745322E+00
          3   -1    0    0  501    0  0.00000000000E+00  0.00000000000E+00  0.23498930655E+02  0.23499114684E+02  0.93000000000E-01 0. -1.
         -3   -1    0    0    0  501 -0.00000000000E+00 -0.00000000000E+00 -0.42549369719E+01  0.42559531993E+01  0.93000000000E-01 0.  1.
       1023    2    1    2    0    0  0.00000000000E+00  0.00000000000E+00  0.19243993683E+02  0.27755067883E+02  0.20000312506E+02 0.  0.
        -11    1    3    3    0    0  0.57421460505E+01 -0.81872248795E+01  0.96431490536E+01  0.13892199841E+02  0.51100000000E-03 0. -1.
         11    1    3    3    0    0 -0.57421460505E+01  0.81872248795E+01  0.96008446292E+01  0.13862868042E+02  0.51100000000E-03 0.  1.
<mgrwt>
<rscale>  0 0.20000313E+02</rscale>
<asrwt>0</asrwt>
<pdfrwt beam="1">  1        3 0.36153124E-02 0.20000313E+02</pdfrwt>
<pdfrwt beam="2">  1       -3 0.65469803E-03 0.20000313E+02</pdfrwt>
<totfact> 0.17398509E+06</totfact>
</mgrwt>
</event>
<event>
 5    1  0.4133473E-007  0.2000062E+02  0.7818608E-02  0.1745316E+00
         -3   -1    0    0    0  501 -0.00000000000E+00  0.00000000000E+00  0.34758643494E+02  0.34758767909E+02  0.93000000000E-01 0. -1.
          3   -1    0    0  501    0  0.00000000000E+00 -0.00000000000E+00 -0.28762803180E+01  0.28777834296E+01  0.93000000000E-01 0.  1.
       1023    2    1    2    0    0  0.00000000000E+00  0.00000000000E+00  0.31882363176E+02  0.37636551339E+02  0.20000622865E+02 0.  0.
        -11    1    3    3    0    0  0.44068593570E-02  0.10000262787E+02  0.15999280905E+02  0.18867492281E+02  0.51100000000E-03 0.  1.
         11    1    3    3    0    0 -0.44068593570E-02 -0.10000262787E+02  0.15883082271E+02  0.18769059058E+02  0.51100000000E-03 0. -1.
<mgrwt>
<rscale>  0 0.20000623E+02</rscale>
<asrwt>0</asrwt>
<pdfrwt beam="2">  1        3 0.44262987E-03 0.20000623E+02</pdfrwt>
<pdfrwt beam="1">  1       -3 0.53476087E-02 0.20000623E+02</pdfrwt>
<totfact> 0.16838935E+06</totfact>
</mgrwt>
</event>
<event>
 5    1  0.4133473E-007  0.2000037E+02  0.7818608E-02  0.1745321E+00
          3   -1    0    0  501    0  0.00000000000E+00  0.00000000000E+00  0.10080847493E+01  0.10123654784E+01  0.93000000000E-01 0. -1.
         -3   -1    0    0    0  501 -0.00000000000E+00 -0.00000000000E+00 -0.98987205512E+02  0.98987249199E+02  0.93000000000E-01 0.  1.
       1023    2    1    2    0    0  0.00000000000E+00  0.00000000000E+00 -0.97979120763E+02  0.99999614678E+02  0.20000370754E+02 0.  0.
        -11    1    3    3    0    0  0.70561512627E+01 -0.70860305593E+01 -0.48734243718E+02  0.49749649353E+02  0.51100000000E-03 0.  1.
         11    1    3    3    0    0 -0.70561512627E+01  0.70860305593E+01 -0.49244877045E+02  0.50249965325E+02  0.51100000000E-03 0. -1.
<mgrwt>
<rscale>  0 0.20000371E+02</rscale>
<asrwt>0</asrwt>
<pdfrwt beam="1">  1        3 0.15542269E-03 0.20000371E+02</pdfrwt>
<pdfrwt beam="2">  1       -3 0.15229126E-01 0.20000371E+02</pdfrwt>
<totfact> 0.14180316E+06</totfact>
</mgrwt>
</event>
<event>
 5    1  0.4133473E-007  0.2000025E+02  0.7818608E-02  0.1745323E+00
          3   -1    0    0  501    0  0.00000000000E+00  0.00000000000E+00  0.17734227569E+01  0.17758595875E+01  0.93000000000E-01 0.  1.
         -3   -1    0    0    0  501 -0.00000000000E+00 -0.00000000000E+00 -0.56348372815E+02  0.56348449560E+02  0.93000000000E-01 0. -1.
       1023    2    1    2    0    0  0.00000000000E+00  0.00000000000E+00 -0.54574950058E+02  0.58124309148E+02  0.20000253501E+02 0.  0.
        -11    1    3    3    0    0 -0.98253916837E+01 -0.18608386573E+01 -0.27399749928E+02  0.29167573410E+02  0.51100000000E-03 0.  1.
         11    1    3    3    0    0  0.98253916837E+01  0.18608386573E+01 -0.27175200130E+02  0.28956735738E+02  0.51100000000E-03 0. -1.
<mgrwt>
<rscale>  0 0.20000254E+02</rscale>
<asrwt>0</asrwt>
<pdfrwt beam="1">  1        3 0.27302767E-03 0.20000254E+02</pdfrwt>
<pdfrwt beam="2">  1       -3 0.86691724E-02 0.20000254E+02</pdfrwt>
<totfact> 0.15830147E+06</totfact>
</mgrwt>
</event>
<event>
 5    1  0.4133473E-007  0.2000043E+02  0.7818608E-02  0.1745320E+00
         -3   -1    0    0    0  501 -0.00000000000E+00  0.00000000000E+00  0.76080243759E+02  0.76080300600E+02  0.93000000000E-01 0. -1.
          3   -1    0    0  501    0  0.00000000000E+00 -0.00000000000E+00 -0.13127559691E+01  0.13160460609E+01  0.93000000000E-01 0.  1.
       1023    2    1    2    0    0  0.00000000000E+00  0.00000000000E+00  0.74767487790E+02  0.77396346661E+02  0.20000431147E+02 0.  0.
        -11    1    3    3    0    0 -0.41719969624E+01  0.90883822259E+01  0.37413997313E+02  0.38727399155E+02  0.51100000000E-03 0. -1.
         11    1    3    3    0    0  0.41719969624E+01 -0.90883822259E+01  0.37353490477E+02  0.38668947506E+02  0.51100000000E-03 0.  1.
<mgrwt>
<rscale>  0 0.20000431E+02</rscale>
<asrwt>0</asrwt>
<pdfrwt beam="2">  1        3 0.20221994E-03 0.20000431E+02</pdfrwt>
<pdfrwt beam="1">  1       -3 0.11704909E-01 0.20000431E+02</pdfrwt>
<totfact> 0.15015669E+06</totfact>
</mgrwt>
</event>
<event>
 5    1  0.4133473E-007  0.2000035E+02  0.7818608E-02  0.1745321E+00
         -3   -1    0    0    0  501 -0.00000000000E+00  0.00000000000E+00  0.88315540490E+01  0.88320437001E+01  0.93000000000E-01 0.  1.
          3   -1    0    0  501    0  0.00000000000E+00 -0.00000000000E+00 -0.11322437227E+02  0.11322819161E+02  0.93000000000E-01 0. -1.
       1023    2    1    2    0    0  0.00000000000E+00  0.00000000000E+00 -0.24908831778E+01  0.20154862861E+02  0.20000349946E+02 0.  0.
        -11    1    3    3    0    0 -0.57882536299E+01  0.81547085815E+01 -0.12266672301E+01  0.10075111160E+02  0.51100000000E-03 0.  1.
         11    1    3    3    0    0  0.57882536299E+01 -0.81547085815E+01 -0.12642159476E+01  0.10079751701E+02  0.51100000000E-03 0. -1.
<mgrwt>
<rscale>  0 0.20000350E+02</rscale>
<asrwt>0</asrwt>
<pdfrwt beam="2">  1        3 0.17419805E-02 0.20000350E+02</pdfrwt>
<pdfrwt beam="1">  1       -3 0.13587677E-02 0.20000350E+02</pdfrwt>
<totfact> 0.17874733E+06</totfact>
</mgrwt>
</event>
<event>
 5    1  0.4133473E-007  0.2000409E+02  0.7818608E-02  0.1745247E+00
          3   -1    0    0  501    0  0.00000000000E+00  0.00000000000E+00  0.57669158757E+01  0.57676657078E+01  0.93000000000E-01 0. -1.
         -3   -1    0    0    0  501 -0.00000000000E+00 -0.00000000000E+00 -0.17345382601E+02  0.17345631916E+02  0.93000000000E-01 0.  1.
       1023    2    1    2    0    0  0.00000000000E+00  0.00000000000E+00 -0.11578466725E+02  0.23113297624E+02  0.20004090465E+02 0.  0.
        -11    1    3    3    0    0 -0.44687784552E+01  0.89472601175E+01 -0.56365414543E+01  0.11480158724E+02  0.51100000000E-03 0. -1.
         11    1    3    3    0    0  0.44687784552E+01 -0.89472601175E+01 -0.59419252711E+01  0.11633138901E+02  0.51100000000E-03 0.  1.
<mgrwt>
<rscale>  0 0.20004090E+02</rscale>
<asrwt>0</asrwt>
<pdfrwt beam="1">  1        3 0.88729469E-03 0.20004090E+02</pdfrwt>
<pdfrwt beam="2">  1       -3 0.26685972E-02 0.20004090E+02</pdfrwt>
<totfact> 0.17677728E+06</totfact>
</mgrwt>
</event>
<event>
 5    1  0.4133473E-007  0.2000089E+02  0.7818608E-02  0.1745310E+00
         -3   -1    0    0    0  501 -0.00000000000E+00  0.00000000000E+00  0.43689080615E+01  0.43698977848E+01  0.93000000000E-01 0.  1.
          3   -1    0    0  501    0  0.00000000000E+00 -0.00000000000E+00 -0.22887384858E+02  0.22887573804E+02  0.93000000000E-01 0. -1.
       1023    2    1    2    0    0  0.00000000000E+00  0.00000000000E+00 -0.18518476796E+02  0.27257471588E+02  0.20000894344E+02 0.  0.
        -11    1    3    3    0    0 -0.41400455118E+01  0.91029721376E+01 -0.91641847893E+01  0.13564157242E+02  0.51100000000E-03 0.  1.
         11    1    3    3    0    0  0.41400455118E+01 -0.91029721376E+01 -0.93542920067E+01  0.13693314346E+02  0.51100000000E-03 0. -1.
<mgrwt>
<rscale>  0 0.20000894E+02</rscale>
<asrwt>0</asrwt>
<pdfrwt beam="2">  1        3 0.35212267E-02 0.20000894E+02</pdfrwt>
<pdfrwt beam="1">  1       -3 0.67223038E-03 0.20000894E+02</pdfrwt>
<totfact> 0.17427264E+06</totfact>
</mgrwt>
</event>
<event>
 5    1  0.4133473E-007  0.2000037E+02  0.7818608E-02  0.1745321E+00
          3   -1    0    0  501    0  0.00000000000E+00  0.00000000000E+00  0.10524253561E+03  0.10524257670E+03  0.93000000000E-01 0.  1.
         -3   -1    0    0    0  501 -0.00000000000E+00 -0.00000000000E+00 -0.94790481371E+00  0.95245605455E+00  0.93000000000E-01 0. -1.
       1023    2    1    2    0    0  0.00000000000E+00  0.00000000000E+00  0.10429463080E+03  0.10619503276E+03  0.20000374221E+02 0.  0.
        -11    1    3    3    0    0 -0.30053243815E+00 -0.99955582480E+01  0.52398476544E+02  0.53344182896E+02  0.51100000000E-03 0.  1.
         11    1    3    3    0    0  0.30053243815E+00  0.99955582480E+01  0.51896154256E+02  0.52850849863E+02  0.51100000000E-03 0. -1.
<mgrwt>
<rscale>  0 0.20000374E+02</rscale>
<asrwt>0</asrwt>
<pdfrwt beam="1">  1        3 0.16191512E-01 0.20000374E+02</pdfrwt>
<pdfrwt beam="2">  1       -3 0.14618477E-03 0.20000374E+02</pdfrwt>
<totfact> 0.13966575E+06</totfact>
</mgrwt>
</event>
<event>
 5    1  0.4133473E-007  0.2000488E+02  0.7818608E-02  0.1745231E+00
         -3   -1    0    0    0  501 -0.00000000000E+00  0.00000000000E+00  0.35163572573E+02  0.35163695556E+02  0.93000000000E-01 0.  1.
          3   -1    0    0  501    0  0.00000000000E+00 -0.00000000000E+00 -0.28443532913E+01  0.28458732659E+01  0.93000000000E-01 0. -1.
       1023    2    1    2    0    0  0.00000000000E+00  0.00000000000E+00  0.32319219282E+02  0.38009568821E+02  0.20004884078E+02 0.  0.
        -11    1    3    3    0    0  0.78092121507E+01  0.62500619774E+01  0.16239711684E+02  0.19072894509E+02  0.51100000000E-03 0.  1.
         11    1    3    3    0    0 -0.78092121507E+01 -0.62500619774E+01  0.16079507598E+02  0.18936674312E+02  0.51100000000E-03 0. -1.
<mgrwt>
<rscale>  0 0.20004884E+02</rscale>
<asrwt>0</asrwt>
<pdfrwt beam="2">  1        3 0.43771918E-03 0.20004884E+02</pdfrwt>
<pdfrwt beam="1">  1       -3 0.54099070E-02 0.20004884E+02</pdfrwt>
<totfact> 0.16811151E+06</totfact>
</mgrwt>
</event>
<event>
 5    1  0.4133473E-007  0.2000167E+02  0.7818608E-02  0.1745295E+00
         -3   -1    0    0    0  501 -0.00000000000E+00  0.00000000000E+00  0.49190668295E+01  0.49199458811E+01  0.93000000000E-01 0. -1.
          3   -1    0    0  501    0  0.00000000000E+00 -0.00000000000E+00 -0.20329650940E+02  0.20329863658E+02  0.93000000000E-01 0.  1.
       1023    2    1    2    0    0  0.00000000000E+00  0.00000000000E+00 -0.15410584111E+02  0.25249809539E+02  0.20001669408E+02 0.  0.
        -11    1    3    3    0    0 -0.90652954199E+01  0.42233504181E+01 -0.76792760108E+01  0.12609026533E+02  0.51100000000E-03 0.  1.
         11    1    3    3    0    0  0.90652954199E+01 -0.42233504181E+01 -0.77313081001E+01  0.12640783006E+02  0.51100000000E-03 0. -1.
<mgrwt>
<rscale>  0 0.20001669E+02</rscale>
<asrwt>0</asrwt>
<pdfrwt beam="2">  1        3 0.31277225E-02 0.20001669E+02</pdfrwt>
<pdfrwt beam="1">  1       -3 0.75686350E-03 0.20001669E+02</pdfrwt>
<totfact> 0.17548029E+06</totfact>
</mgrwt>
</event>
<event>
 5    1  0.4133473E-007  0.2000046E+02  0.7818608E-02  0.1745319E+00
          3   -1    0    0  501    0  0.00000000000E+00  0.00000000000E+00  0.20682807550E+02  0.20683016636E+02  0.93000000000E-01 0. -1.
         -3   -1    0    0    0  501 -0.00000000000E+00 -0.00000000000E+00 -0.48344739538E+01  0.48353683841E+01  0.93000000000E-01 0.  1.
       1023    2    1    2    0    0  0.00000000000E+00  0.00000000000E+00  0.15848333596E+02  0.25518385020E+02  0.20000457401E+02 0.  0.
        -11    1    3    3    0    0 -0.98690553867E+01 -0.16138191868E+01  0.79798869222E+01  0.12793797800E+02  0.51100000000E-03 0. -1.
         11    1    3    3    0    0  0.98690553867E+01  0.16138191868E+01  0.78684466742E+01  0.12724587220E+02  0.51100000000E-03 0.  1.
<mgrwt>
<rscale>  0 0.20000457E+02</rscale>
<asrwt>0</asrwt>
<pdfrwt beam="1">  1        3 0.31820553E-02 0.20000457E+02</pdfrwt>
<pdfrwt beam="2">  1       -3 0.74385011E-03 0.20000457E+02</pdfrwt>
<totfact> 0.17533787E+06</totfact>
</mgrwt>
</event>
<event>
 5    1  0.4213798E-007  0.2000062E+02  0.7818608E-02  0.1745316E+00
         -3   -1    0    0    0  501 -0.00000000000E+00  0.00000000000E+00  0.58036981354E+01  0.58044432159E+01  0.93000000000E-01 0.  1.
          3   -1    0    0  501    0  0.00000000000E+00 -0.00000000000E+00 -0.17229483007E+02  0.17229734000E+02  0.93000000000E-01 0. -1.
       1023    2    1    2    0    0  0.00000000000E+00  0.00000000000E+00 -0.11425784872E+02  0.23034177215E+02  0.20000618992E+02 0.  0.
        -11    1    3    3    0    0  0.99487526349E+01  0.10139547450E+01 -0.56896715277E+01  0.11505570198E+02  0.51100000000E-03 0.  1.
         11    1    3    3    0    0 -0.99487526349E+01 -0.10139547450E+01 -0.57361133440E+01  0.11528607018E+02  0.51100000000E-03 0. -1.
<mgrwt>
<rscale>  0 0.20000619E+02</rscale>
<asrwt>0</asrwt>
<pdfrwt beam="2">  1        3 0.26507663E-02 0.20000619E+02</pdfrwt>
<pdfrwt beam="1">  1       -3 0.89295327E-03 0.20000619E+02</pdfrwt>
<totfact> 0.17688367E+06</totfact>
</mgrwt>
</event>
<event>
 5    1  0.4263985E-007  0.2000109E+02  0.7818608E-02  0.1745306E+00
         -3   -1    0    0    0  501 -0.00000000000E+00  0.00000000000E+00  0.31665149080E+02  0.31665285649E+02  0.93000000000E-01 0.  1.
          3   -1    0    0  501    0  0.00000000000E+00 -0.00000000000E+00 -0.31575609169E+01  0.31589301898E+01  0.93000000000E-01 0. -1.
       1023    2    1    2    0    0  0.00000000000E+00  0.00000000000E+00  0.28507588163E+02  0.34824215839E+02  0.20001085619E+02 0.  0.
        -11    1    3    3    0    0 -0.27637175245E+01 -0.96110236508E+01  0.14200240907E+02  0.17368268545E+02  0.51100000000E-03 0. -1.
         11    1    3    3    0    0  0.27637175245E+01  0.96110236508E+01  0.14307347256E+02  0.17455947295E+02  0.51100000000E-03 0.  1.
<mgrwt>
<rscale>  0 0.20001086E+02</rscale>
<asrwt>0</asrwt>
<pdfrwt beam="2">  1        3 0.48589445E-03 0.20001086E+02</pdfrwt>
<pdfrwt beam="1">  1       -3 0.48716771E-02 0.20001086E+02</pdfrwt>
<totfact> 0.16991798E+06</totfact>
</mgrwt>
</event>
<event>
 5    1  0.4133473E-007  0.2000022E+02  0.7818608E-02  0.1745324E+00
         -3   -1    0    0    0  501 -0.00000000000E+00  0.00000000000E+00  0.75949493015E+01  0.75955186717E+01  0.93000000000E-01 0. -1.
          3   -1    0    0  501    0  0.00000000000E+00 -0.00000000000E+00 -0.13165712891E+02  0.13166041354E+02  0.93000000000E-01 0.  1.
       1023    2    1    2    0    0  0.00000000000E+00  0.00000000000E+00 -0.55707635894E+01  0.20761560025E+02  0.20000224192E+02 0.  0.
        -11    1    3    3    0    0 -0.99814558677E+01 -0.61020909210E+00 -0.28067894557E+01  0.10386524139E+02  0.51100000000E-03 0.  1.
         11    1    3    3    0    0  0.99814558677E+01  0.61020909210E+00 -0.27639741337E+01  0.10375035887E+02  0.51100000000E-03 0. -1.
<mgrwt>
<rscale>  0 0.20000224E+02</rscale>
<asrwt>0</asrwt>
<pdfrwt beam="2">  1        3 0.20255634E-02 0.20000224E+02</pdfrwt>
<pdfrwt beam="1">  1       -3 0.11685228E-02 0.20000224E+02</pdfrwt>
<totfact> 0.17835226E+06</totfact>
</mgrwt>
</event>
<event>
 5    1  0.4149157E-007  0.2000165E+02  0.7818608E-02  0.1745295E+00
         -3   -1    0    0    0  501 -0.00000000000E+00  0.00000000000E+00  0.29222344112E+01  0.29237138974E+01  0.93000000000E-01 0.  1.
          3   -1    0    0  501    0  0.00000000000E+00 -0.00000000000E+00 -0.34215848366E+02  0.34215974755E+02  0.93000000000E-01 0. -1.
       1023    2    1    2    0    0  0.00000000000E+00  0.00000000000E+00 -0.31293613955E+02  0.37139688652E+02  0.20001654902E+02 0.  0.
        -11    1    3    3    0    0 -0.59166507870E+01  0.80628416032E+01 -0.15610697019E+02  0.18539418355E+02  0.51100000000E-03 0.  1.
         11    1    3    3    0    0  0.59166507870E+01 -0.80628416032E+01 -0.15682916936E+02  0.18600270298E+02  0.51100000000E-03 0. -1.
<mgrwt>
<rscale>  0 0.20001655E+02</rscale>
<asrwt>0</asrwt>
<pdfrwt beam="2">  1        3 0.52640999E-02 0.20001655E+02</pdfrwt>
<pdfrwt beam="1">  1       -3 0.44969808E-03 0.20001655E+02</pdfrwt>
<totfact> 0.16861825E+06</totfact>
</mgrwt>
</event>
<event>
 5    1  0.4135079E-007  0.2000113E+02  0.7818608E-02  0.1745306E+00
         -3   -1    0    0    0  501 -0.00000000000E+00  0.00000000000E+00  0.20478231217E+01  0.20499337886E+01  0.93000000000E-01 0. -1.
          3   -1    0    0  501    0  0.00000000000E+00 -0.00000000000E+00 -0.48810539847E+02  0.48810628445E+02  0.93000000000E-01 0.  1.
       1023    2    1    2    0    0  0.00000000000E+00  0.00000000000E+00 -0.46762716725E+02  0.50860562233E+02  0.20001127847E+02 0.  0.
        -11    1    3    3    0    0  0.93129977254E+01  0.36431326397E+01 -0.23593143566E+02  0.25625002744E+02  0.51100000000E-03 0. -1.
         11    1    3    3    0    0 -0.93129977254E+01 -0.36431326397E+01 -0.23169573159E+02  0.25235559489E+02  0.51100000000E-03 0.  1.
<mgrwt>
<rscale>  0 0.20001128E+02</rscale>
<asrwt>0</asrwt>
<pdfrwt beam="2">  1        3 0.75094821E-02 0.20001128E+02</pdfrwt>
<pdfrwt beam="1">  1       -3 0.31521892E-03 0.20001128E+02</pdfrwt>
<totfact> 0.16163839E+06</totfact>
</mgrwt>
</event>
<event>
 5    1  0.4133473E-007  0.2000734E+02  0.7818608E-02  0.1745182E+00
         -3   -1    0    0    0  501 -0.00000000000E+00  0.00000000000E+00  0.13337171654E+01  0.13369556752E+01  0.93000000000E-01 0. -1.
          3   -1    0    0  501    0  0.00000000000E+00 -0.00000000000E+00 -0.74939238240E+02  0.74939295946E+02  0.93000000000E-01 0.  1.
       1023    2    1    2    0    0  0.00000000000E+00  0.00000000000E+00 -0.73605521074E+02  0.76276251621E+02  0.20007344372E+02 0.  0.
        -11    1    3    3    0    0  0.58888044938E+01 -0.80867129593E+01 -0.36716487710E+02  0.38054873733E+02  0.51100000000E-03 0. -1.
         11    1    3    3    0    0 -0.58888044938E+01  0.80867129593E+01 -0.36889033364E+02  0.38221377888E+02  0.51100000000E-03 0.  1.
<mgrwt>
<rscale>  0 0.20007344E+02</rscale>
<asrwt>0</asrwt>
<pdfrwt beam="2">  1        3 0.11529364E-01 0.20007344E+02</pdfrwt>
<pdfrwt beam="1">  1       -3 0.20544087E-03 0.20007344E+02</pdfrwt>
<totfact> 0.15046014E+06</totfact>
</mgrwt>
</event>
<event>
 5    1  0.4133473E-007  0.2001203E+02  0.7818608E-02  0.1745089E+00
          3   -1    0    0  501    0  0.00000000000E+00  0.00000000000E+00  0.25391452632E+02  0.25391622945E+02  0.93000000000E-01 0. -1.
         -3   -1    0    0    0  501 -0.00000000000E+00 -0.00000000000E+00 -0.39423412795E+01  0.39434380639E+01  0.93000000000E-01 0.  1.
       1023    2    1    2    0    0  0.00000000000E+00  0.00000000000E+00  0.21449111353E+02  0.29335061009E+02  0.20012032045E+02 0.  0.
        -11    1    3    3    0    0  0.15784928345E+01 -0.98753126580E+01  0.10245243466E+02  0.14317068613E+02  0.51100000000E-03 0. -1.
         11    1    3    3    0    0 -0.15784928345E+01  0.98753126580E+01  0.11203867886E+02  0.15017992396E+02  0.51100000000E-03 0.  1.
<mgrwt>
<rscale>  0 0.20012032E+02</rscale>
<asrwt>0</asrwt>
<pdfrwt beam="1">  1        3 0.39064750E-02 0.20012032E+02</pdfrwt>
<pdfrwt beam="2">  1       -3 0.60661149E-03 0.20012032E+02</pdfrwt>
<totfact> 0.17282953E+06</totfact>
</mgrwt>
</event>
<event>
 5    1  0.4133473E-007  0.2000264E+02  0.7818608E-02  0.1745275E+00
          3   -1    0    0  501    0  0.00000000000E+00  0.00000000000E+00  0.13789185125E+01  0.13820511076E+01  0.93000000000E-01 0.  1.
         -3   -1    0    0    0  501 -0.00000000000E+00 -0.00000000000E+00 -0.72454313576E+02  0.72454373261E+02  0.93000000000E-01 0. -1.
       1023    2    1    2    0    0  0.00000000000E+00  0.00000000000E+00 -0.71075395063E+02  0.73836424369E+02  0.20002644331E+02 0.  0.
        -11    1    3    3    0    0  0.67442593794E+01  0.73852155446E+01 -0.35533055177E+02  0.36913743426E+02  0.51100000000E-03 0. -1.
         11    1    3    3    0    0 -0.67442593794E+01 -0.73852155446E+01 -0.35542339886E+02  0.36922680943E+02  0.51100000000E-03 0.  1.
<mgrwt>
<rscale>  0 0.20002644E+02</rscale>
<asrwt>0</asrwt>
<pdfrwt beam="1">  1        3 0.21238693E-03 0.20002644E+02</pdfrwt>
<pdfrwt beam="2">  1       -3 0.11147060E-01 0.20002644E+02</pdfrwt>
<totfact> 0.15154388E+06</totfact>
</mgrwt>
</event>
<event>
 4    1  0.4133473E-007  0.2001269E+02  0.7818608E-02  0.1745076E+00
         -3   -1    0    0    0  501 -0.00000000000E+00  0.00000000000E+00  0.64243490526E+01  0.64250221595E+01  0.93000000000E-01 0.  1.
          3   -1    0    0  501    0  0.00000000000E+00 -0.00000000000E+00 -0.15583902557E+02  0.15584180052E+02  0.93000000000E-01 0. -1.
        -11    1    1    2    0    0  0.81695216079E+01 -0.57680910549E+01 -0.49526147918E+01  0.11159764839E+02  0.51100000000E-03 0. -1.
         11    1    1    2    0    0 -0.81695216079E+01  0.57680910549E+01 -0.42069387125E+01  0.10849437373E+02  0.51100000000E-03 0.  1.
<mgrwt>
<rscale>  0 0.20012685E+02</rscale>
<asrwt>0</asrwt>
<pdfrwt beam="2">  1        3 0.23975966E-02 0.20012685E+02</pdfrwt>
<pdfrwt beam="1">  1       -3 0.98843452E-03 0.20012685E+02</pdfrwt>
<totfact> 0.17730622E+06</totfact>
</mgrwt>
</event>
<event>
 4    1  0.4133473E-007  0.2016438E+02  0.7818608E-02  0.1742079E+00
         -3   -1    0    0    0  501 -0.00000000000E+00  0.00000000000E+00  0.14431572490E+02  0.14431872142E+02  0.93000000000E-01 0.  1.
          3   -1    0    0  501    0  0.00000000000E+00 -0.00000000000E+00 -0.70429414663E+01  0.70435554586E+01  0.93000000000E-01 0. -1.
        -11    1    1    2    0    0 -0.84296985909E+01  0.55091388238E+01  0.31724551263E+01  0.10558167488E+02  0.51100000000E-03 0. -1.
         11    1    1    2    0    0  0.84296985909E+01 -0.55091388238E+01  0.42161758970E+01  0.10917260113E+02  0.51100000000E-03 0.  1.
<mgrwt>
<rscale>  0 0.20164378E+02</rscale>
<asrwt>0</asrwt>
<pdfrwt beam="2">  1        3 0.10835998E-02 0.20164378E+02</pdfrwt>
<pdfrwt beam="1">  1       -3 0.22203122E-02 0.20164378E+02</pdfrwt>
<totfact> 0.17478664E+06</totfact>
</mgrwt>
</event>
<event>
 5    1  0.4133473E-007  0.2000013E+02  0.7818608E-02  0.1745325E+00
          3   -1    0    0  501    0  0.00000000000E+00  0.00000000000E+00  0.10533033056E+03  0.10533037162E+03  0.93000000000E-01 0.  1.
         -3   -1    0    0    0  501 -0.00000000000E+00 -0.00000000000E+00 -0.94708786835E+00  0.95164301625E+00  0.93000000000E-01 0. -1.
       1023    2    1    2    0    0  0.00000000000E+00  0.00000000000E+00  0.10438324269E+03  0.10628201463E+03  0.20000131989E+02 0.  0.
        -11    1    3    3    0    0 -0.47320320848E+01  0.88095675940E+01  0.52049945096E+02  0.53001862171E+02  0.51100000000E-03 0.  1.
         11    1    3    3    0    0  0.47320320848E+01 -0.88095675940E+01  0.52333297595E+02  0.53280152461E+02  0.51100000000E-03 0. -1.
<mgrwt>
<rscale>  0 0.20000132E+02</rscale>
<asrwt>0</asrwt>
<pdfrwt beam="1">  1        3 0.16205008E-01 0.20000132E+02</pdfrwt>
<pdfrwt beam="2">  1       -3 0.14605948E-03 0.20000132E+02</pdfrwt>
<totfact> 0.13964028E+06</totfact>
</mgrwt>
</event>
<event>
 5    1  0.4271962E-007  0.2000113E+02  0.7818608E-02  0.1745306E+00
         -3   -1    0    0    0  501 -0.00000000000E+00  0.00000000000E+00  0.58895353428E+01  0.58902695655E+01  0.93000000000E-01 0.  1.
          3   -1    0    0  501    0  0.00000000000E+00 -0.00000000000E+00 -0.16979265243E+02  0.16979519934E+02  0.93000000000E-01 0. -1.
       1023    2    1    2    0    0  0.00000000000E+00  0.00000000000E+00 -0.11089729900E+02  0.22869789499E+02  0.20001129030E+02 0.  0.
        -11    1    3    3    0    0  0.99804258040E+01 -0.62576466207E+00 -0.56637466200E+01  0.11492541350E+02  0.51100000000E-03 0.  1.
         11    1    3    3    0    0 -0.99804258040E+01  0.62576466207E+00 -0.54259832801E+01  0.11377248150E+02  0.51100000000E-03 0. -1.
<mgrwt>
<rscale>  0 0.20001129E+02</rscale>
<asrwt>0</asrwt>
<pdfrwt beam="2">  1        3 0.26122707E-02 0.20001129E+02</pdfrwt>
<pdfrwt beam="1">  1       -3 0.90615844E-03 0.20001129E+02</pdfrwt>
<totfact> 0.17697812E+06</totfact>
</mgrwt>
</event>
<event>
 5    1  0.4133473E-007  0.2000011E+02  0.7818608E-02  0.1745326E+00
          3   -1    0    0  501    0  0.00000000000E+00  0.00000000000E+00  0.15002203549E+01  0.15031001674E+01  0.93000000000E-01 0. -1.
         -3   -1    0    0    0  501 -0.00000000000E+00 -0.00000000000E+00 -0.66590808675E+02  0.66590873616E+02  0.93000000000E-01 0.  1.
       1023    2    1    2    0    0  0.00000000000E+00  0.00000000000E+00 -0.65090588320E+02  0.68093973784E+02  0.20000114445E+02 0.  0.
        -11    1    3    3    0    0  0.67691686075E+01 -0.73606712218E+01 -0.32560412290E+02  0.34061438214E+02  0.51100000000E-03 0. -1.
         11    1    3    3    0    0 -0.67691686075E+01  0.73606712218E+01 -0.32530176030E+02  0.34032535569E+02  0.51100000000E-03 0.  1.
<mgrwt>
<rscale>  0 0.20000114E+02</rscale>
<asrwt>0</asrwt>
<pdfrwt beam="1">  1        3 0.23102970E-03 0.20000114E+02</pdfrwt>
<pdfrwt beam="2">  1       -3 0.10244964E-01 0.20000114E+02</pdfrwt>
<totfact> 0.15395445E+06</totfact>
</mgrwt>
</event>
<event>
 5    1  0.4133473E-007  0.2001150E+02  0.7818608E-02  0.1745100E+00
         -3   -1    0    0    0  501 -0.00000000000E+00  0.00000000000E+00  0.18524224560E+02  0.18524458010E+02  0.93000000000E-01 0.  1.
          3   -1    0    0  501    0  0.00000000000E+00 -0.00000000000E+00 -0.54038781217E+01  0.54046783210E+01  0.93000000000E-01 0. -1.
       1023    2    1    2    0    0  0.00000000000E+00  0.00000000000E+00  0.13120346439E+02  0.23929136331E+02  0.20011498567E+02 0.  0.
        -11    1    3    3    0    0  0.99514750531E+01 -0.10395478710E+01  0.66199969371E+01  0.11997369512E+02  0.51100000000E-03 0.  1.
         11    1    3    3    0    0 -0.99514750531E+01  0.10395478710E+01  0.65003495018E+01  0.11931766819E+02  0.51100000000E-03 0. -1.
<mgrwt>
<rscale>  0 0.20011499E+02</rscale>
<asrwt>0</asrwt>
<pdfrwt beam="2">  1        3 0.83144537E-03 0.20011499E+02</pdfrwt>
<pdfrwt beam="1">  1       -3 0.28499602E-02 0.20011499E+02</pdfrwt>
<totfact> 0.17612531E+06</totfact>
</mgrwt>
</event>
<event>
 5    1  0.4133473E-007  0.2000012E+02  0.7818608E-02  0.1745326E+00
         -3   -1    0    0    0  501 -0.00000000000E+00  0.00000000000E+00  0.78853731540E+01  0.78859215554E+01  0.93000000000E-01 0.  1.
          3   -1    0    0  501    0  0.00000000000E+00 -0.00000000000E+00 -0.12680705159E+02  0.12681046185E+02  0.93000000000E-01 0. -1.
       1023    2    1    2    0    0  0.00000000000E+00  0.00000000000E+00 -0.47953320054E+01  0.20566967740E+02  0.20000123824E+02 0.  0.
        -11    1    3    3    0    0  0.68297374465E+00 -0.99766893197E+01 -0.23757291108E+01  0.10278369131E+02  0.51100000000E-03 0. -1.
         11    1    3    3    0    0 -0.68297374465E+00  0.99766893197E+01 -0.24196028946E+01  0.10288598609E+02  0.51100000000E-03 0.  1.
<mgrwt>
<rscale>  0 0.20000124E+02</rscale>
<asrwt>0</asrwt>
<pdfrwt beam="2">  1        3 0.19509461E-02 0.20000124E+02</pdfrwt>
<pdfrwt beam="1">  1       -3 0.12132027E-02 0.20000124E+02</pdfrwt>
<totfact> 0.17848114E+06</totfact>
</mgrwt>
</event>
<event>
 5    1  0.4133473E-007  0.2000045E+02  0.7818608E-02  0.1745319E+00
         -3   -1    0    0    0  501 -0.00000000000E+00  0.00000000000E+00  0.49152998142E+02  0.49153086122E+02  0.93000000000E-01 0. -1.
          3   -1    0    0  501    0  0.00000000000E+00 -0.00000000000E+00 -0.20334036549E+01  0.20355292736E+01  0.93000000000E-01 0.  1.
       1023    2    1    2    0    0  0.00000000000E+00  0.00000000000E+00  0.47119594487E+02  0.51188615396E+02  0.20000454033E+02 0.  0.
        -11    1    3    3    0    0 -0.57025139670E+01 -0.82149348982E+01  0.23491160541E+02  0.25531126978E+02  0.51100000000E-03 0. -1.
         11    1    3    3    0    0  0.57025139670E+01  0.82149348982E+01  0.23628433945E+02  0.25657488418E+02  0.51100000000E-03 0.  1.
<mgrwt>
<rscale>  0 0.20000454E+02</rscale>
<asrwt>0</asrwt>
<pdfrwt beam="2">  1        3 0.31300165E-03 0.20000454E+02</pdfrwt>
<pdfrwt beam="1">  1       -3 0.75621689E-02 0.20000454E+02</pdfrwt>
<totfact> 0.16151905E+06</totfact>
</mgrwt>
</event>
<event>
 5    1  0.4223005E-007  0.2000092E+02  0.7818608E-02  0.1745310E+00
         -3   -1    0    0    0  501 -0.00000000000E+00  0.00000000000E+00  0.30749132783E+02  0.30749273420E+02  0.93000000000E-01 0. -1.
          3   -1    0    0  501    0  0.00000000000E+00 -0.00000000000E+00 -0.32516111507E+01  0.32529408349E+01  0.93000000000E-01 0.  1.
       1023    2    1    2    0    0  0.00000000000E+00  0.00000000000E+00  0.27497521632E+02  0.34002214255E+02  0.20000921938E+02 0.  0.
        -11    1    3    3    0    0  0.91658544123E+01 -0.39993922222E+01  0.13690015501E+02  0.16953599911E+02  0.51100000000E-03 0.  1.
         11    1    3    3    0    0 -0.91658544123E+01  0.39993922222E+01  0.13807506131E+02  0.17048614345E+02  0.51100000000E-03 0. -1.
<mgrwt>
<rscale>  0 0.20000922E+02</rscale>
<asrwt>0</asrwt>
<pdfrwt beam="2">  1        3 0.50036101E-03 0.20000922E+02</pdfrwt>
<pdfrwt beam="1">  1       -3 0.47307485E-02 0.20000922E+02</pdfrwt>
<totfact> 0.17037854E+06</totfact>
</mgrwt>
</event>
<event>
 5    1  0.4241500E-007  0.2000084E+02  0.7818608E-02  0.1745311E+00
          3   -1    0    0  501    0  0.00000000000E+00  0.00000000000E+00  0.12777258846E+02  0.12777597295E+02  0.93000000000E-01 0. -1.
         -3   -1    0    0    0  501 -0.00000000000E+00 -0.00000000000E+00 -0.78263409927E+01  0.78268935302E+01  0.93000000000E-01 0.  1.
       1023    2    1    2    0    0  0.00000000000E+00  0.00000000000E+00  0.49509178536E+01  0.20604490825E+02  0.20000836347E+02 0.  0.
        -11    1    3    3    0    0  0.86622562830E+01 -0.49973249810E+01  0.24542837101E+01  0.10297157359E+02  0.51100000000E-03 0. -1.
         11    1    3    3    0    0 -0.86622562830E+01  0.49973249810E+01  0.24966341435E+01  0.10307333466E+02  0.51100000000E-03 0.  1.
<mgrwt>
<rscale>  0 0.20000836E+02</rscale>
<asrwt>0</asrwt>
<pdfrwt beam="1">  1        3 0.19658007E-02 0.20000836E+02</pdfrwt>
<pdfrwt beam="2">  1       -3 0.12041210E-02 0.20000836E+02</pdfrwt>
<totfact> 0.17844297E+06</totfact>
</mgrwt>
</event>
<event>
 5    1  0.4133473E-007  0.2000050E+02  0.7818608E-02  0.1745318E+00
         -3   -1    0    0    0  501 -0.00000000000E+00  0.00000000000E+00  0.20721363482E+01  0.20742222749E+01  0.93000000000E-01 0.  1.
          3   -1    0    0  501    0  0.00000000000E+00 -0.00000000000E+00 -0.48235393389E+02  0.48235483043E+02  0.93000000000E-01 0. -1.
       1023    2    1    2    0    0  0.00000000000E+00  0.00000000000E+00 -0.46163257040E+02  0.50309705317E+02  0.20000503708E+02 0.  0.
        -11    1    3    3    0    0 -0.73845336829E+01  0.67430824777E+01 -0.23251076563E+02  0.25310335055E+02  0.51100000000E-03 0. -1.
         11    1    3    3    0    0  0.73845336829E+01 -0.67430824777E+01 -0.22912180478E+02  0.24999370262E+02  0.51100000000E-03 0.  1.
<mgrwt>
<rscale>  0 0.20000504E+02</rscale>
<asrwt>0</asrwt>
<pdfrwt beam="2">  1        3 0.74209963E-02 0.20000504E+02</pdfrwt>
<pdfrwt beam="1">  1       -3 0.31895760E-03 0.20000504E+02</pdfrwt>
<totfact> 0.16191383E+06</totfact>
</mgrwt>
</event>
<event>
 5    1  0.4133473E-007  0.2000914E+02  0.7818608E-02  0.1745146E+00
          3   -1    0    0  501    0  0.00000000000E+00  0.00000000000E+00  0.11005116352E+02  0.11005509299E+02  0.93000000000E-01 0. -1.
         -3   -1    0    0    0  501 -0.00000000000E+00 -0.00000000000E+00 -0.90941984512E+01  0.90946739617E+01  0.93000000000E-01 0.  1.
       1023    2    1    2    0    0  0.00000000000E+00  0.00000000000E+00  0.19109179012E+01  0.20100183261E+02  0.20009141908E+02 0.  0.
        -11    1    3    3    0    0 -0.99906635237E+01 -0.52635320515E+00  0.92315099532E+00  0.10047020123E+02  0.51100000000E-03 0. -1.
         11    1    3    3    0    0  0.99906635237E+01  0.52635320515E+00  0.98776690587E+00  0.10053163137E+02  0.51100000000E-03 0.  1.
<mgrwt>
<rscale>  0 0.20009142E+02</rscale>
<asrwt>0</asrwt>
<pdfrwt beam="1">  1        3 0.16931616E-02 0.20009142E+02</pdfrwt>
<pdfrwt beam="2">  1       -3 0.13991743E-02 0.20009142E+02</pdfrwt>
<totfact> 0.17861426E+06</totfact>
</mgrwt>
</event>
<event>
 5    1  0.4133473E-007  0.2000239E+02  0.7818608E-02  0.1745281E+00
          3   -1    0    0  501    0  0.00000000000E+00  0.00000000000E+00  0.52849266547E+01  0.52857448619E+01  0.93000000000E-01 0. -1.
         -3   -1    0    0    0  501 -0.00000000000E+00 -0.00000000000E+00 -0.18923862737E+02  0.18924091257E+02  0.93000000000E-01 0.  1.
       1023    2    1    2    0    0  0.00000000000E+00  0.00000000000E+00 -0.13638936082E+02  0.24209836119E+02  0.20002389543E+02 0.  0.
        -11    1    3    3    0    0 -0.94321825919E+01  0.33243935719E+01 -0.67238925227E+01  0.12051074308E+02  0.51100000000E-03 0.  1.
         11    1    3    3    0    0  0.94321825919E+01 -0.33243935719E+01 -0.69150435598E+01  0.12158761810E+02  0.51100000000E-03 0. -1.
<mgrwt>
<rscale>  0 0.20002390E+02</rscale>
<asrwt>0</asrwt>
<pdfrwt beam="1">  1        3 0.81314616E-03 0.20002390E+02</pdfrwt>
<pdfrwt beam="2">  1       -3 0.29114440E-02 0.20002390E+02</pdfrwt>
<totfact> 0.17612337E+06</totfact>
</mgrwt>
</event>
<event>
 5    1  0.4133473E-007  0.2000355E+02  0.7818608E-02  0.1745258E+00
          3   -1    0    0  501    0  0.00000000000E+00  0.00000000000E+00  0.22159911612E+02  0.22160106761E+02  0.93000000000E-01 0. -1.
         -3   -1    0    0    0  501 -0.00000000000E+00 -0.00000000000E+00 -0.45135597655E+01  0.45145177767E+01  0.93000000000E-01 0.  1.
       1023    2    1    2    0    0  0.00000000000E+00  0.00000000000E+00  0.17646351847E+02  0.26674624538E+02  0.20003546204E+02 0.  0.
        -11    1    3    3    0    0  0.19858840715E+01 -0.98025871554E+01  0.87807037752E+01  0.13309215211E+02  0.51100000000E-03 0.  1.
         11    1    3    3    0    0 -0.19858840715E+01  0.98025871554E+01  0.88656480717E+01  0.13365409327E+02  0.51100000000E-03 0. -1.
<mgrwt>
<rscale>  0 0.20003546E+02</rscale>
<asrwt>0</asrwt>
<pdfrwt beam="1">  1        3 0.34093059E-02 0.20003546E+02</pdfrwt>
<pdfrwt beam="2">  1       -3 0.69448251E-03 0.20003546E+02</pdfrwt>
<totfact> 0.17457452E+06</totfact>
</mgrwt>
</event>
<event>
 5    1  0.4240663E-007  0.2000085E+02  0.7818608E-02  0.1745311E+00
          3   -1    0    0  501    0  0.00000000000E+00  0.00000000000E+00  0.27425806284E+01  0.27441569749E+01  0.93000000000E-01 0. -1.
         -3   -1    0    0    0  501 -0.00000000000E+00 -0.00000000000E+00 -0.36452983440E+02  0.36453102072E+02  0.93000000000E-01 0.  1.
       1023    2    1    2    0    0  0.00000000000E+00  0.00000000000E+00 -0.33710402812E+02  0.39197259047E+02  0.20000846459E+02 0.  0.
        -11    1    3    3    0    0  0.60409728067E+01 -0.79694034323E+01 -0.16974747836E+02  0.19701441771E+02  0.51100000000E-03 0. -1.
         11    1    3    3    0    0 -0.60409728067E+01  0.79694034323E+01 -0.16735654976E+02  0.19495817276E+02  0.51100000000E-03 0.  1.
<mgrwt>
<rscale>  0 0.20000846E+02</rscale>
<asrwt>0</asrwt>
<pdfrwt beam="1">  1        3 0.42206589E-03 0.20000846E+02</pdfrwt>
<pdfrwt beam="2">  1       -3 0.56082813E-02 0.20000846E+02</pdfrwt>
<totfact> 0.16755000E+06</totfact>
</mgrwt>
</event>
<event>
 5    1  0.4133473E-007  0.2000063E+02  0.7818608E-02  0.1745316E+00
         -3   -1    0    0    0  501 -0.00000000000E+00  0.00000000000E+00  0.19492030109E+01  0.19514203488E+01  0.93000000000E-01 0. -1.
          3   -1    0    0  501    0  0.00000000000E+00 -0.00000000000E+00 -0.51274821667E+02  0.51274906006E+02  0.93000000000E-01 0.  1.
       1023    2    1    2    0    0  0.00000000000E+00  0.00000000000E+00 -0.49325618656E+02  0.53226326355E+02  0.20000629027E+02 0.  0.
        -11    1    3    3    0    0  0.36502695777E+01 -0.93102296096E+01 -0.24561586677E+02  0.26519358660E+02  0.51100000000E-03 0.  1.
         11    1    3    3    0    0 -0.36502695777E+01  0.93102296096E+01 -0.24764031979E+02  0.26706967696E+02  0.51100000000E-03 0. -1.
<mgrwt>
<rscale>  0 0.20000629E+02</rscale>
<asrwt>0</asrwt>
<pdfrwt beam="2">  1        3 0.78886101E-02 0.20000629E+02</pdfrwt>
<pdfrwt beam="1">  1       -3 0.30005448E-03 0.20000629E+02</pdfrwt>
<totfact> 0.16052444E+06</totfact>
</mgrwt>
</event>
<event>
 5    1  0.4216681E-007  0.2000096E+02  0.7818608E-02  0.1745309E+00
          3   -1    0    0  501    0  0.00000000000E+00  0.00000000000E+00  0.56542621327E+02  0.56542697809E+02  0.93000000000E-01 0. -1.
         -3   -1    0    0    0  501 -0.00000000000E+00 -0.00000000000E+00 -0.17674465580E+01  0.17698916169E+01  0.93000000000E-01 0.  1.
       1023    2    1    2    0    0  0.00000000000E+00  0.00000000000E+00  0.54775174769E+02  0.58312589426E+02  0.20000957842E+02 0.  0.
        -11    1    3    3    0    0 -0.78591672901E+01  0.61835245427E+01  0.27633114605E+02  0.29386927524E+02  0.51100000000E-03 0. -1.
         11    1    3    3    0    0  0.78591672901E+01 -0.61835245427E+01  0.27142060164E+02  0.28925661902E+02  0.51100000000E-03 0.  1.
<mgrwt>
<rscale>  0 0.20000958E+02</rscale>
<asrwt>0</asrwt>
<pdfrwt beam="1">  1        3 0.86990597E-02 0.20000958E+02</pdfrwt>
<pdfrwt beam="2">  1       -3 0.27210879E-03 0.20000958E+02</pdfrwt>
<totfact> 0.15817711E+06</totfact>
</mgrwt>
</event>
<event>
 5    1  0.4133473E-007  0.2000073E+02  0.7818608E-02  0.1745314E+00
          3   -1    0    0  501    0  0.00000000000E+00  0.00000000000E+00  0.22785968685E+01  0.22804939572E+01  0.93000000000E-01 0. -1.
         -3   -1    0    0    0  501 -0.00000000000E+00 -0.00000000000E+00 -0.43869662605E+02  0.43869761181E+02  0.93000000000E-01 0.  1.
       1023    2    1    2    0    0  0.00000000000E+00  0.00000000000E+00 -0.41591065736E+02  0.46150255138E+02  0.20000732492E+02 0.  0.
        -11    1    3    3    0    0  0.92721387446E+01  0.37461199825E+01 -0.20880406466E+02  0.23151616493E+02  0.51100000000E-03 0.  1.
         11    1    3    3    0    0 -0.92721387446E+01 -0.37461199825E+01 -0.20710659270E+02  0.22998638644E+02  0.51100000000E-03 0. -1.
<mgrwt>
<rscale>  0 0.20000732E+02</rscale>
<asrwt>0</asrwt>
<pdfrwt beam="1">  1        3 0.35070691E-03 0.20000732E+02</pdfrwt>
<pdfrwt beam="2">  1       -3 0.67493317E-02 0.20000732E+02</pdfrwt>
<totfact> 0.16397360E+06</totfact>
</mgrwt>
</event>
<event>
 5    1  0.4133473E-007  0.2000153E+02  0.7818608E-02  0.1745298E+00
         -3   -1    0    0    0  501 -0.00000000000E+00  0.00000000000E+00  0.13355922686E+01  0.13388262426E+01  0.93000000000E-01 0. -1.
          3   -1    0    0  501    0  0.00000000000E+00 -0.00000000000E+00 -0.74790808164E+02  0.74790865985E+02  0.93000000000E-01 0.  1.
       1023    2    1    2    0    0  0.00000000000E+00  0.00000000000E+00 -0.73455215895E+02  0.76129692228E+02  0.20001532353E+02 0.  0.
        -11    1    3    3    0    0  0.63823755509E+00  0.99802245241E+01 -0.36515854787E+02  0.37860531954E+02  0.51100000000E-03 0. -1.
         11    1    3    3    0    0 -0.63823755509E+00 -0.99802245241E+01 -0.36939361108E+02  0.38269160274E+02  0.51100000000E-03 0.  1.
<mgrwt>
<rscale>  0 0.20001532E+02</rscale>
<asrwt>0</asrwt>
<pdfrwt beam="2">  1        3 0.11506528E-01 0.20001532E+02</pdfrwt>
<pdfrwt beam="1">  1       -3 0.20572901E-03 0.20001532E+02</pdfrwt>
<totfact> 0.15061240E+06</totfact>
</mgrwt>
</event>
<event>
 5    1  0.4133473E-007  0.2000047E+02  0.7818608E-02  0.1745319E+00
          3   -1    0    0  501    0  0.00000000000E+00  0.00000000000E+00  0.18448774245E+02  0.18449008650E+02  0.93000000000E-01 0.  1.
         -3   -1    0    0    0  501 -0.00000000000E+00 -0.00000000000E+00 -0.54200018602E+01  0.54207996795E+01  0.93000000000E-01 0. -1.
       1023    2    1    2    0    0  0.00000000000E+00  0.00000000000E+00  0.13028772385E+02  0.23869808329E+02  0.20000470990E+02 0.  0.
        -11    1    3    3    0    0 -0.86105009743E+01  0.50853313378E+01  0.64449204724E+01  0.11896987938E+02  0.51100000000E-03 0. -1.
         11    1    3    3    0    0  0.86105009743E+01 -0.50853313378E+01  0.65838519127E+01  0.11972820391E+02  0.51100000000E-03 0.  1.
<mgrwt>
<rscale>  0 0.20000471E+02</rscale>
<asrwt>0</asrwt>
<pdfrwt beam="1">  1        3 0.28383523E-02 0.20000471E+02</pdfrwt>
<pdfrwt beam="2">  1       -3 0.83392586E-03 0.20000471E+02</pdfrwt>
<totfact> 0.17636073E+06</totfact>
</mgrwt>
</event>
<event>
 5    1  0.4133473E-007  0.2000587E+02  0.7818608E-02  0.1745211E+00
         -3   -1    0    0    0  501 -0.00000000000E+00  0.00000000000E+00  0.55839671855E+01  0.55847415812E+01  0.93000000000E-01 0. -1.
          3   -1    0    0  501    0  0.00000000000E+00 -0.00000000000E+00 -0.17916796805E+02  0.17917038169E+02  0.93000000000E-01 0.  1.
       1023    2    1    2    0    0  0.00000000000E+00  0.00000000000E+00 -0.12332829620E+02  0.23501779750E+02  0.20005873263E+02 0.  0.
        -11    1    3    3    0    0 -0.53095601808E-01  0.10001870763E+02 -0.63262105736E+01  0.11834744543E+02  0.51100000000E-03 0. -1.
         11    1    3    3    0    0  0.53095601808E-01 -0.10001870763E+02 -0.60066190461E+01  0.11667035208E+02  0.51100000000E-03 0.  1.
<mgrwt>
<rscale>  0 0.20005873E+02</rscale>
<asrwt>0</asrwt>
<pdfrwt beam="2">  1        3 0.27565084E-02 0.20005873E+02</pdfrwt>
<pdfrwt beam="1">  1       -3 0.85915002E-03 0.20005873E+02</pdfrwt>
<totfact> 0.17648885E+06</totfact>
</mgrwt>
</event>
<event>
 4    1  0.4133473E-007  0.2036444E+02  0.7818608E-02  0.1738176E+00
          3   -1    0    0  501    0  0.00000000000E+00  0.00000000000E+00  0.28530646838E+01  0.28545800199E+01  0.93000000000E-01 0. -1.
         -3   -1    0    0    0  501 -0.00000000000E+00 -0.00000000000E+00 -0.36327813281E+02  0.36327932322E+02  0.93000000000E-01 0.  1.
        -11    1    1    2    0    0  0.56053619774E+01 -0.84435201240E+01 -0.14847765302E+02  0.17976908792E+02  0.51100000000E-03 0.  1.
         11    1    1    2    0    0 -0.56053619774E+01  0.84435201240E+01 -0.18626983295E+02  0.21205603550E+02  0.51100000000E-03 0. -1.
<mgrwt>
<rscale>  0 0.20364442E+02</rscale>
<asrwt>0</asrwt>
<pdfrwt beam="1">  1        3 0.43905878E-03 0.20364442E+02</pdfrwt>
<pdfrwt beam="2">  1       -3 0.55890197E-02 0.20364442E+02</pdfrwt>
<totfact> 0.16117456E+06</totfact>
</mgrwt>
</event>
<event>
 5    1  0.4133473E-007  0.2000043E+02  0.7818608E-02  0.1745320E+00
          3   -1    0    0  501    0  0.00000000000E+00  0.00000000000E+00  0.55956826864E+02  0.55956904146E+02  0.93000000000E-01 0.  1.
         -3   -1    0    0    0  501 -0.00000000000E+00 -0.00000000000E+00 -0.17858806783E+01  0.17883005332E+01  0.93000000000E-01 0. -1.
       1023    2    1    2    0    0  0.00000000000E+00  0.00000000000E+00  0.54170946185E+02  0.57745204680E+02  0.20000431317E+02 0.  0.
        -11    1    3    3    0    0 -0.57987930795E+01 -0.81472836116E+01  0.27111542600E+02  0.28897058221E+02  0.51100000000E-03 0.  1.
         11    1    3    3    0    0  0.57987930795E+01  0.81472836116E+01  0.27059403586E+02  0.28848146459E+02  0.51100000000E-03 0. -1.
<mgrwt>
<rscale>  0 0.20000431E+02</rscale>
<asrwt>0</asrwt>
<pdfrwt beam="1">  1        3 0.86089343E-02 0.20000431E+02</pdfrwt>
<pdfrwt beam="2">  1       -3 0.27494297E-03 0.20000431E+02</pdfrwt>
<totfact> 0.15844265E+06</totfact>
</mgrwt>
</event>
<event>
 5    1  0.4133473E-007  0.2000277E+02  0.7818608E-02  0.1745273E+00
         -3   -1    0    0    0  501 -0.00000000000E+00  0.00000000000E+00  0.16747439605E+02  0.16747697822E+02  0.93000000000E-01 0.  1.
          3   -1    0    0  501    0  0.00000000000E+00 -0.00000000000E+00 -0.59720472723E+01  0.59727713519E+01  0.93000000000E-01 0. -1.
       1023    2    1    2    0    0  0.00000000000E+00  0.00000000000E+00  0.10775392333E+02  0.22720469174E+02  0.20002765797E+02 0.  0.
        -11    1    3    3    0    0  0.89208102751E+01 -0.45210010115E+01  0.54850996963E+01  0.11406429110E+02  0.51100000000E-03 0. -1.
         11    1    3    3    0    0 -0.89208102751E+01  0.45210010115E+01  0.52902926365E+01  0.11314040063E+02  0.51100000000E-03 0.  1.
<mgrwt>
<rscale>  0 0.20002766E+02</rscale>
<asrwt>0</asrwt>
<pdfrwt beam="2">  1        3 0.91885207E-03 0.20002766E+02</pdfrwt>
<pdfrwt beam="1">  1       -3 0.25766047E-02 0.20002766E+02</pdfrwt>
<totfact> 0.17705086E+06</totfact>
</mgrwt>
</event>
<event>
 5    1  0.4133473E-007  0.2000280E+02  0.7818608E-02  0.1745272E+00
          3   -1    0    0  501    0  0.00000000000E+00  0.00000000000E+00  0.69166722569E+01  0.69172974570E+01  0.93000000000E-01 0. -1.
         -3   -1    0    0    0  501 -0.00000000000E+00 -0.00000000000E+00 -0.14460444718E+02  0.14460743772E+02  0.93000000000E-01 0.  1.
       1023    2    1    2    0    0  0.00000000000E+00  0.00000000000E+00 -0.75437724615E+01  0.21378041229E+02  0.20002803400E+02 0.  0.
        -11    1    3    3    0    0 -0.61058970913E+01  0.79199584098E+01 -0.36195554737E+01  0.10635266926E+02  0.51100000000E-03 0. -1.
         11    1    3    3    0    0  0.61058970913E+01 -0.79199584098E+01 -0.39242169878E+01  0.10742774303E+02  0.51100000000E-03 0.  1.
<mgrwt>
<rscale>  0 0.20002803E+02</rscale>
<asrwt>0</asrwt>
<pdfrwt beam="1">  1        3 0.10641745E-02 0.20002803E+02</pdfrwt>
<pdfrwt beam="2">  1       -3 0.22247549E-02 0.20002803E+02</pdfrwt>
<totfact> 0.17790790E+06</totfact>
</mgrwt>
</event>
<event>
 5    1  0.4133473E-007  0.2000300E+02  0.7818608E-02  0.1745268E+00
          3   -1    0    0  501    0  0.00000000000E+00  0.00000000000E+00  0.13000987263E+01  0.13034207678E+01  0.93000000000E-01 0.  1.
         -3   -1    0    0    0  501 -0.00000000000E+00 -0.00000000000E+00 -0.76838818707E+02  0.76838874987E+02  0.93000000000E-01 0. -1.
       1023    2    1    2    0    0  0.00000000000E+00  0.00000000000E+00 -0.75538719981E+02  0.78142295755E+02  0.20003004013E+02 0.  0.
        -11    1    3    3    0    0  0.69945576161E+00 -0.99755843558E+01 -0.38429095198E+02  0.39708901768E+02  0.51100000000E-03 0. -1.
         11    1    3    3    0    0 -0.69945576161E+00  0.99755843558E+01 -0.37109624783E+02  0.38433393988E+02  0.51100000000E-03 0.  1.
<mgrwt>
<rscale>  0 0.20003004E+02</rscale>
<asrwt>0</asrwt>
<pdfrwt beam="1">  1        3 0.20027512E-03 0.20003004E+02</pdfrwt>
<pdfrwt beam="2">  1       -3 0.11821613E-01 0.20003004E+02</pdfrwt>
<totfact> 0.14982124E+06</totfact>
</mgrwt>
</event>
<event>
 5    1  0.4133473E-007  0.2000025E+02  0.7818608E-02  0.1745323E+00
         -3   -1    0    0    0  501 -0.00000000000E+00  0.00000000000E+00  0.16763330446E+01  0.16789108006E+01  0.93000000000E-01 0.  1.
          3   -1    0    0  501    0  0.00000000000E+00 -0.00000000000E+00 -0.59607049115E+02  0.59607121665E+02  0.93000000000E-01 0. -1.
       1023    2    1    2    0    0  0.00000000000E+00  0.00000000000E+00 -0.57930716070E+02  0.61286032466E+02  0.20000247773E+02 0.  0.
        -11    1    3    3    0    0  0.95205238164E+01  0.30597081170E+01 -0.29017538731E+02  0.30692340116E+02  0.51100000000E-03 0. -1.
         11    1    3    3    0    0 -0.95205238164E+01 -0.30597081170E+01 -0.28913177339E+02  0.30593692350E+02  0.51100000000E-03 0.  1.
<mgrwt>
<rscale>  0 0.20000248E+02</rscale>
<asrwt>0</asrwt>
<pdfrwt beam="2">  1        3 0.91705175E-02 0.20000248E+02</pdfrwt>
<pdfrwt beam="1">  1       -3 0.25810131E-03 0.20000248E+02</pdfrwt>
<totfact> 0.15686066E+06</totfact>
</mgrwt>
</event>
<event>
 4    1  0.4133473E-007  0.2001563E+02  0.7818608E-02  0.1745017E+00
          3   -1    0    0  501    0  0.00000000000E+00  0.00000000000E+00  0.18439501078E+01  0.18462938553E+01  0.93000000000E-01 0.  1.
         -3   -1    0    0    0  501 -0.00000000000E+00 -0.00000000000E+00 -0.54279319764E+02  0.54279399435E+02  0.93000000000E-01 0. -1.
        -11    1    1    2    0    0 -0.65796116612E+01  0.75384603411E+01 -0.26754797884E+02  0.28564643950E+02  0.51100000000E-03 0.  1.
         11    1    1    2    0    0  0.65796116612E+01 -0.75384603411E+01 -0.25680571772E+02  0.27561049340E+02  0.51100000000E-03 0. -1.
<mgrwt>
<rscale>  0 0.20015630E+02</rscale>
<asrwt>0</asrwt>
<pdfrwt beam="1">  1        3 0.28387109E-03 0.20015630E+02</pdfrwt>
<pdfrwt beam="2">  1       -3 0.83508498E-02 0.20015630E+02</pdfrwt>
<totfact> 0.15894875E+06</totfact>
</mgrwt>
</event>
<event>
 5    1  0.4133473E-007  0.2000233E+02  0.7818608E-02  0.1745282E+00
          3   -1    0    0  501    0  0.00000000000E+00  0.00000000000E+00  0.20679797113E+02  0.20680006229E+02  0.93000000000E-01 0.  1.
         -3   -1    0    0    0  501 -0.00000000000E+00 -0.00000000000E+00 -0.48360840619E+01  0.48369781945E+01  0.93000000000E-01 0. -1.
       1023    2    1    2    0    0  0.00000000000E+00  0.00000000000E+00  0.15843713051E+02  0.25516984423E+02  0.20002331135E+02 0.  0.
        -11    1    3    3    0    0  0.51207679184E+01  0.85895747506E+01  0.81034097107E+01  0.12871220131E+02  0.51100000000E-03 0. -1.
         11    1    3    3    0    0 -0.51207679184E+01 -0.85895747506E+01  0.77403033402E+01  0.12645764292E+02  0.51100000000E-03 0.  1.
<mgrwt>
<rscale>  0 0.20002331E+02</rscale>
<asrwt>0</asrwt>
<pdfrwt beam="1">  1        3 0.31815922E-02 0.20002331E+02</pdfrwt>
<pdfrwt beam="2">  1       -3 0.74409779E-03 0.20002331E+02</pdfrwt>
<totfact> 0.17530337E+06</totfact>
</mgrwt>
</event>
<event>
 5    1  0.4133473E-007  0.2000028E+02  0.7818608E-02  0.1745322E+00
         -3   -1    0    0    0  501 -0.00000000000E+00  0.00000000000E+00  0.29227120398E+01  0.29241912843E+01  0.93000000000E-01 0.  1.
          3   -1    0    0  501    0  0.00000000000E+00 -0.00000000000E+00 -0.34205571887E+02  0.34205698314E+02  0.93000000000E-01 0. -1.
       1023    2    1    2    0    0  0.00000000000E+00  0.00000000000E+00 -0.31282859848E+02  0.37129889598E+02  0.20000284531E+02 0.  0.
        -11    1    3    3    0    0 -0.77697495095E+01  0.62953930610E+01 -0.15721577728E+02  0.18632471327E+02  0.51100000000E-03 0. -1.
         11    1    3    3    0    0  0.77697495095E+01 -0.62953930610E+01 -0.15561282120E+02  0.18497418272E+02  0.51100000000E-03 0.  1.
<mgrwt>
<rscale>  0 0.20000285E+02</rscale>
<asrwt>0</asrwt>
<pdfrwt beam="2">  1        3 0.52625189E-02 0.20000285E+02</pdfrwt>
<pdfrwt beam="1">  1       -3 0.44977154E-03 0.20000285E+02</pdfrwt>
<totfact> 0.16864840E+06</totfact>
</mgrwt>
</event>
<event>
 5    1  0.4133473E-007  0.2000328E+02  0.7818608E-02  0.1745263E+00
         -3   -1    0    0    0  501 -0.00000000000E+00  0.00000000000E+00  0.56843246164E+02  0.56843322242E+02  0.93000000000E-01 0.  1.
          3   -1    0    0  501    0  0.00000000000E+00 -0.00000000000E+00 -0.17584941826E+01  0.17609516718E+01  0.93000000000E-01 0. -1.
       1023    2    1    2    0    0  0.00000000000E+00  0.00000000000E+00  0.55084751981E+02  0.58604273913E+02  0.20003275233E+02 0.  0.
        -11    1    3    3    0    0 -0.77255593556E+01  0.63508741851E+01  0.27899809328E+02  0.29638104377E+02  0.51100000000E-03 0. -1.
         11    1    3    3    0    0  0.77255593556E+01 -0.63508741851E+01  0.27184942653E+02  0.28966169536E+02  0.51100000000E-03 0.  1.
<mgrwt>
<rscale>  0 0.20003275E+02</rscale>
<asrwt>0</asrwt>
<pdfrwt beam="2">  1        3 0.27073245E-03 0.20003275E+02</pdfrwt>
<pdfrwt beam="1">  1       -3 0.87453099E-02 0.20003275E+02</pdfrwt>
<totfact> 0.15803375E+06</totfact>
</mgrwt>
</event>
<event>
 5    1  0.4133473E-007  0.2000074E+02  0.7818608E-02  0.1745313E+00
          3   -1    0    0  501    0  0.00000000000E+00  0.00000000000E+00  0.20586460995E+01  0.20607456813E+01  0.93000000000E-01 0.  1.
         -3   -1    0    0    0  501 -0.00000000000E+00 -0.00000000000E+00 -0.48552310526E+02  0.48552399595E+02  0.93000000000E-01 0. -1.
       1023    2    1    2    0    0  0.00000000000E+00  0.00000000000E+00 -0.46493664427E+02  0.50613145276E+02  0.20000741059E+02 0.  0.
        -11    1    3    3    0    0 -0.99114102273E+01 -0.13284741045E+01 -0.23042586868E+02  0.25118951132E+02  0.51100000000E-03 0.  1.
         11    1    3    3    0    0  0.99114102273E+01  0.13284741045E+01 -0.23451077558E+02  0.25494194144E+02  0.51100000000E-03 0. -1.
<mgrwt>
<rscale>  0 0.20000741E+02</rscale>
<asrwt>0</asrwt>
<pdfrwt beam="1">  1        3 0.31688318E-03 0.20000741E+02</pdfrwt>
<pdfrwt beam="2">  1       -3 0.74697537E-02 0.20000741E+02</pdfrwt>
<totfact> 0.16178961E+06</totfact>
</mgrwt>
</event>
<event>
 5    1  0.4174362E-007  0.2000088E+02  0.7818608E-02  0.1745310E+00
          3   -1    0    0  501    0  0.00000000000E+00  0.00000000000E+00  0.39156563873E+02  0.39156674314E+02  0.93000000000E-01 0.  1.
         -3   -1    0    0    0  501 -0.00000000000E+00 -0.00000000000E+00 -0.25531154944E+01  0.25548087459E+01  0.93000000000E-01 0. -1.
       1023    2    1    2    0    0  0.00000000000E+00  0.00000000000E+00  0.36603448379E+02  0.41711483060E+02  0.20000884627E+02 0.  0.
        -11    1    3    3    0    0  0.60068521101E+00 -0.99820312940E+01  0.18126311380E+02  0.20701809969E+02  0.51100000000E-03 0. -1.
         11    1    3    3    0    0 -0.60068521101E+00  0.99820312940E+01  0.18477136999E+02  0.21009673092E+02  0.51100000000E-03 0.  1.
<mgrwt>
<rscale>  0 0.20000885E+02</rscale>
<asrwt>0</asrwt>
<pdfrwt beam="1">  1        3 0.60242250E-02 0.20000885E+02</pdfrwt>
<pdfrwt beam="2">  1       -3 0.39292578E-03 0.20000885E+02</pdfrwt>
<totfact> 0.16620716E+06</totfact>
</mgrwt>
</event>
<event>
 5    1  0.4133473E-007  0.2000051E+02  0.7818608E-02  0.1745318E+00
         -3   -1    0    0    0  501 -0.00000000000E+00  0.00000000000E+00  0.23737118115E+01  0.23755329432E+01  0.93000000000E-01 0. -1.
          3   -1    0    0  501    0  0.00000000000E+00 -0.00000000000E+00 -0.42112237078E+02  0.42112339768E+02  0.93000000000E-01 0.  1.
       1023    2    1    2    0    0  0.00000000000E+00  0.00000000000E+00 -0.39738525267E+02  0.44487872711E+02  0.20000510693E+02 0.  0.
        -11    1    3    3    0    0  0.64689690585E+01  0.76259742952E+01 -0.19970270704E+02  0.22334161209E+02  0.51100000000E-03 0.  1.
         11    1    3    3    0    0 -0.64689690585E+01 -0.76259742952E+01 -0.19768254562E+02  0.22153711502E+02  0.51100000000E-03 0. -1.
<mgrwt>
<rscale>  0 0.20000511E+02</rscale>
<asrwt>0</asrwt>
<pdfrwt beam="2">  1        3 0.64789532E-02 0.20000511E+02</pdfrwt>
<pdfrwt beam="1">  1       -3 0.36533445E-03 0.20000511E+02</pdfrwt>
<totfact> 0.16478924E+06</totfact>
</mgrwt>
</event>
<event>
 5    1  0.4133473E-007  0.2000042E+02  0.7818608E-02  0.1745320E+00
          3   -1    0    0  501    0  0.00000000000E+00  0.00000000000E+00  0.75653321902E+01  0.75659037893E+01  0.93000000000E-01 0. -1.
         -3   -1    0    0    0  501 -0.00000000000E+00 -0.00000000000E+00 -0.13217510547E+02  0.13217837722E+02  0.93000000000E-01 0.  1.
       1023    2    1    2    0    0  0.00000000000E+00  0.00000000000E+00 -0.56521783567E+01  0.20783741512E+02  0.20000419772E+02 0.  0.
        -11    1    3    3    0    0 -0.39570455188E+01  0.91838436522E+01 -0.28830448832E+01  0.10407359969E+02  0.51100000000E-03 0.  1.
         11    1    3    3    0    0  0.39570455188E+01 -0.91838436522E+01 -0.27691334735E+01  0.10376381543E+02  0.51100000000E-03 0. -1.
<mgrwt>
<rscale>  0 0.20000420E+02</rscale>
<asrwt>0</asrwt>
<pdfrwt beam="1">  1        3 0.11639664E-02 0.20000420E+02</pdfrwt>
<pdfrwt beam="2">  1       -3 0.20335323E-02 0.20000420E+02</pdfrwt>
<totfact> 0.17833892E+06</totfact>
</mgrwt>
</event>
<event>
 5    1  0.4133473E-007  0.2000052E+02  0.7818608E-02  0.1745318E+00
         -3   -1    0    0    0  501 -0.00000000000E+00  0.00000000000E+00  0.45797663187E+01  0.45807104835E+01  0.93000000000E-01 0. -1.
          3   -1    0    0  501    0  0.00000000000E+00 -0.00000000000E+00 -0.21833009201E+02  0.21833207272E+02  0.93000000000E-01 0.  1.
       1023    2    1    2    0    0  0.00000000000E+00  0.00000000000E+00 -0.17253242883E+02  0.26413917756E+02  0.20000516524E+02 0.  0.
        -11    1    3    3    0    0  0.99911233382E+01  0.42521606698E+00 -0.85704229196E+01  0.13170250702E+02  0.51100000000E-03 0.  1.
         11    1    3    3    0    0 -0.99911233382E+01 -0.42521606698E+00 -0.86828199631E+01  0.13243667054E+02  0.51100000000E-03 0. -1.
<mgrwt>
<rscale>  0 0.20000517E+02</rscale>
<asrwt>0</asrwt>
<pdfrwt beam="2">  1        3 0.33590123E-02 0.20000517E+02</pdfrwt>
<pdfrwt beam="1">  1       -3 0.70466731E-03 0.20000517E+02</pdfrwt>
<totfact> 0.17478959E+06</totfact>
</mgrwt>
</event>
<event>
 5    1  0.4133473E-007  0.2000030E+02  0.7818608E-02  0.1745322E+00
          3   -1    0    0  501    0  0.00000000000E+00  0.00000000000E+00  0.47974323944E+01  0.47983337294E+01  0.93000000000E-01 0.  1.
         -3   -1    0    0    0  501 -0.00000000000E+00 -0.00000000000E+00 -0.20842137693E+02  0.20842345181E+02  0.93000000000E-01 0. -1.
       1023    2    1    2    0    0  0.00000000000E+00  0.00000000000E+00 -0.16044705299E+02  0.25640678910E+02  0.20000296169E+02 0.  0.
        -11    1    3    3    0    0  0.99649075655E+01 -0.83816413430E+00 -0.79806222634E+01  0.12794226584E+02  0.51100000000E-03 0. -1.
         11    1    3    3    0    0 -0.99649075655E+01  0.83816413430E+00 -0.80640830354E+01  0.12846452326E+02  0.51100000000E-03 0.  1.
<mgrwt>
<rscale>  0 0.20000296E+02</rscale>
<asrwt>0</asrwt>
<pdfrwt beam="1">  1        3 0.73815183E-03 0.20000296E+02</pdfrwt>
<pdfrwt beam="2">  1       -3 0.32065680E-02 0.20000296E+02</pdfrwt>
<totfact> 0.17527876E+06</totfact>
</mgrwt>
</event>
<event>
 5    1  0.4133473E-007  0.2000028E+02  0.7818608E-02  0.1745322E+00
          3   -1    0    0  501    0  0.00000000000E+00  0.00000000000E+00  0.34872569211E+02  0.34872693219E+02  0.93000000000E-01 0. -1.
         -3   -1    0    0    0  501 -0.00000000000E+00 -0.00000000000E+00 -0.28667807857E+01  0.28682888755E+01  0.93000000000E-01 0.  1.
       1023    2    1    2    0    0  0.00000000000E+00  0.00000000000E+00  0.32005788425E+02  0.37740982095E+02  0.20000280917E+02 0.  0.
        -11    1    3    3    0    0  0.95543016027E+01  0.29524346579E+01  0.15935927313E+02  0.18813700569E+02  0.51100000000E-03 0. -1.
         11    1    3    3    0    0 -0.95543016027E+01 -0.29524346579E+01  0.16069861113E+02  0.18927281526E+02  0.51100000000E-03 0.  1.
<mgrwt>
<rscale>  0 0.20000281E+02</rscale>
<asrwt>0</asrwt>
<pdfrwt beam="1">  1        3 0.53651359E-02 0.20000281E+02</pdfrwt>
<pdfrwt beam="2">  1       -3 0.44116877E-03 0.20000281E+02</pdfrwt>
<totfact> 0.16831787E+06</totfact>
</mgrwt>
</event>
<event>
 5    1  0.4133473E-007  0.2000140E+02  0.7818608E-02  0.1745300E+00
         -3   -1    0    0    0  501 -0.00000000000E+00  0.00000000000E+00  0.79978373952E+02  0.79978428022E+02  0.93000000000E-01 0.  1.
          3   -1    0    0  501    0  0.00000000000E+00 -0.00000000000E+00 -0.12487287929E+01  0.12521871259E+01  0.93000000000E-01 0. -1.
       1023    2    1    2    0    0  0.00000000000E+00  0.00000000000E+00  0.78729645159E+02  0.81230615148E+02  0.20001395216E+02 0.  0.
        -11    1    3    3    0    0 -0.99054537889E+01 -0.13762686129E+01  0.39191453334E+02  0.40447276110E+02  0.51100000000E-03 0.  1.
         11    1    3    3    0    0  0.99054537889E+01  0.13762686129E+01  0.39538191825E+02  0.40783339038E+02  0.51100000000E-03 0. -1.
<mgrwt>
<rscale>  0 0.20001395E+02</rscale>
<asrwt>0</asrwt>
<pdfrwt beam="2">  1        3 0.19238228E-03 0.20001395E+02</pdfrwt>
<pdfrwt beam="1">  1       -3 0.12304637E-01 0.20001395E+02</pdfrwt>
<totfact> 0.14864457E+06</totfact>
</mgrwt>
</event>
<event>
 5    1  0.4231030E-007  0.2000209E+02  0.7818608E-02  0.1745287E+00
         -3   -1    0    0    0  501 -0.00000000000E+00  0.00000000000E+00  0.65158569727E+01  0.65165206275E+01  0.93000000000E-01 0. -1.
          3   -1    0    0  501    0  0.00000000000E+00 -0.00000000000E+00 -0.15348789804E+02  0.15349071550E+02  0.93000000000E-01 0.  1.
       1023    2    1    2    0    0  0.00000000000E+00  0.00000000000E+00 -0.88329328313E+01  0.21865592177E+02  0.20002085363E+02 0.  0.
        -11    1    3    3    0    0 -0.98324317998E+01 -0.18260536509E+01 -0.45239497974E+01  0.10976215608E+02  0.51100000000E-03 0.  1.
         11    1    3    3    0    0  0.98324317998E+01  0.18260536509E+01 -0.43089830338E+01  0.10889376570E+02  0.51100000000E-03 0. -1.
<mgrwt>
<rscale>  0 0.20002085E+02</rscale>
<asrwt>0</asrwt>
<pdfrwt beam="2">  1        3 0.23614250E-02 0.20002085E+02</pdfrwt>
<pdfrwt beam="1">  1       -3 0.10025123E-02 0.20002085E+02</pdfrwt>
<totfact> 0.17760081E+06</totfact>
</mgrwt>
</event>
<event>
 5    1  0.4133473E-007  0.2000036E+02  0.7818608E-02  0.1745321E+00
          3   -1    0    0  501    0  0.00000000000E+00  0.00000000000E+00  0.45474594240E+01  0.45484102952E+01  0.93000000000E-01 0.  1.
         -3   -1    0    0    0  501 -0.00000000000E+00 -0.00000000000E+00 -0.21987736644E+02  0.21987933321E+02  0.93000000000E-01 0. -1.
       1023    2    1    2    0    0  0.00000000000E+00  0.00000000000E+00 -0.17440277220E+02  0.26536343616E+02  0.20000356572E+02 0.  0.
        -11    1    3    3    0    0  0.90697121909E+01  0.42123416340E+01 -0.87307714787E+01  0.13275159967E+02  0.51100000000E-03 0. -1.
         11    1    3    3    0    0 -0.90697121909E+01 -0.42123416340E+01 -0.87095057414E+01  0.13261183650E+02  0.51100000000E-03 0.  1.
<mgrwt>
<rscale>  0 0.20000357E+02</rscale>
<asrwt>0</asrwt>
<pdfrwt beam="1">  1        3 0.69969743E-03 0.20000357E+02</pdfrwt>
<pdfrwt beam="2">  1       -3 0.33828169E-02 0.20000357E+02</pdfrwt>
<totfact> 0.17473213E+06</totfact>
</mgrwt>
</event>
<event>
 5    1  0.4133473E-007  0.2000535E+02  0.7818608E-02  0.1745222E+00
         -3   -1    0    0    0  501 -0.00000000000E+00  0.00000000000E+00  0.45694844972E+01  0.45704307861E+01  0.93000000000E-01 0. -1.
          3   -1    0    0  501    0  0.00000000000E+00 -0.00000000000E+00 -0.21892701392E+02  0.21892898923E+02  0.93000000000E-01 0.  1.
       1023    2    1    2    0    0  0.00000000000E+00  0.00000000000E+00 -0.17323216895E+02  0.26463329709E+02  0.20005348677E+02 0.  0.
        -11    1    3    3    0    0 -0.95363550302E+01 -0.30173401190E+01 -0.87729528810E+01  0.13304552272E+02  0.51100000000E-03 0. -1.
         11    1    3    3    0    0  0.95363550302E+01  0.30173401190E+01 -0.85502640141E+01  0.13158777437E+02  0.51100000000E-03 0.  1.
<mgrwt>
<rscale>  0 0.20005349E+02</rscale>
<asrwt>0</asrwt>
<pdfrwt beam="2">  1        3 0.33681958E-02 0.20005349E+02</pdfrwt>
<pdfrwt beam="1">  1       -3 0.70308561E-03 0.20005349E+02</pdfrwt>
<totfact> 0.17466872E+06</totfact>
</mgrwt>
</event>
<event>
 5    1  0.4133473E-007  0.2000030E+02  0.7818608E-02  0.1745322E+00
          3   -1    0    0  501    0  0.00000000000E+00  0.00000000000E+00  0.36016489086E+02  0.36016609156E+02  0.93000000000E-01 0.  1.
         -3   -1    0    0    0  501 -0.00000000000E+00 -0.00000000000E+00 -0.27756869001E+01  0.27772444559E+01  0.93000000000E-01 0. -1.
       1023    2    1    2    0    0  0.00000000000E+00  0.00000000000E+00  0.33240802186E+02  0.38793853611E+02  0.20000303700E+02 0.  0.
        -11    1    3    3    0    0 -0.74116782800E+01 -0.67132039530E+01  0.16725832420E+02  0.19487266423E+02  0.51100000000E-03 0.  1.
         11    1    3    3    0    0  0.74116782800E+01  0.67132039530E+01  0.16514969766E+02  0.19306587189E+02  0.51100000000E-03 0. -1.
<mgrwt>
<rscale>  0 0.20000304E+02</rscale>
<asrwt>0</asrwt>
<pdfrwt beam="1">  1        3 0.55411276E-02 0.20000304E+02</pdfrwt>
<pdfrwt beam="2">  1       -3 0.42715778E-03 0.20000304E+02</pdfrwt>
<totfact> 0.16775261E+06</totfact>
</mgrwt>
</event>
<event>
 5    1  0.4316628E-007  0.2000188E+02  0.7818608E-02  0.1745291E+00
         -3   -1    0    0    0  501 -0.00000000000E+00  0.00000000000E+00  0.76250305672E+01  0.76255976914E+01  0.93000000000E-01 0.  1.
          3   -1    0    0  501    0  0.00000000000E+00 -0.00000000000E+00 -0.13115944164E+02  0.13116273873E+02  0.93000000000E-01 0. -1.
       1023    2    1    2    0    0  0.00000000000E+00  0.00000000000E+00 -0.54909135967E+01  0.20741871564E+02  0.20001877509E+02 0.  0.
        -11    1    3    3    0    0  0.80504416954E+01 -0.59335124979E+01 -0.27982688438E+01  0.10384916506E+02  0.51100000000E-03 0. -1.
         11    1    3    3    0    0 -0.80504416954E+01  0.59335124979E+01 -0.26926447529E+01  0.10356955058E+02  0.51100000000E-03 0.  1.
<mgrwt>
<rscale>  0 0.20001878E+02</rscale>
<asrwt>0</asrwt>
<pdfrwt beam="2">  1        3 0.20179066E-02 0.20001878E+02</pdfrwt>
<pdfrwt beam="1">  1       -3 0.11731506E-02 0.20001878E+02</pdfrwt>
<totfact> 0.17833341E+06</totfact>
</mgrwt>
</event>
<event>
 5    1  0.4133473E-007  0.2000038E+02  0.7818608E-02  0.1745321E+00
         -3   -1    0    0    0  501 -0.00000000000E+00  0.00000000000E+00  0.30184680215E+01  0.30199003621E+01  0.93000000000E-01 0.  1.
          3   -1    0    0  501    0  0.00000000000E+00 -0.00000000000E+00 -0.33121281208E+02  0.33121411774E+02  0.93000000000E-01 0. -1.
       1023    2    1    2    0    0  0.00000000000E+00  0.00000000000E+00 -0.30102813187E+02  0.36141312136E+02  0.20000377025E+02 0.  0.
        -11    1    3    3    0    0  0.71513906589E+01  0.69900498239E+01 -0.15007695570E+02  0.18034248293E+02  0.51100000000E-03 0.  1.
         11    1    3    3    0    0 -0.71513906589E+01 -0.69900498239E+01 -0.15095117617E+02  0.18107063843E+02  0.51100000000E-03 0. -1.
<mgrwt>
<rscale>  0 0.20000377E+02</rscale>
<asrwt>0</asrwt>
<pdfrwt beam="2">  1        3 0.50957017E-02 0.20000377E+02</pdfrwt>
<pdfrwt beam="1">  1       -3 0.46449994E-03 0.20000377E+02</pdfrwt>
<totfact> 0.16918527E+06</totfact>
</mgrwt>
</event>
<event>
 4    1  0.4133473E-007  0.2006321E+02  0.7818608E-02  0.1744074E+00
         -3   -1    0    0    0  501 -0.00000000000E+00  0.00000000000E+00  0.12838563048E+01  0.12872202653E+01  0.93000000000E-01 0.  1.
          3   -1    0    0  501    0  0.00000000000E+00 -0.00000000000E+00 -0.78277523565E+02  0.78277578811E+02  0.93000000000E-01 0. -1.
        -11    1    1    2    0    0  0.35095720457E+01  0.93976167278E+01 -0.38610192439E+02  0.39892095163E+02  0.51100000000E-03 0.  1.
         11    1    1    2    0    0 -0.35095720457E+01 -0.93976167278E+01 -0.38383474822E+02  0.39672703913E+02  0.51100000000E-03 0. -1.
<mgrwt>
<rscale>  0 0.20063211E+02</rscale>
<asrwt>0</asrwt>
<pdfrwt beam="2">  1        3 0.12042955E-01 0.20063211E+02</pdfrwt>
<pdfrwt beam="1">  1       -3 0.19777943E-03 0.20063211E+02</pdfrwt>
<totfact> 0.14827510E+06</totfact>
</mgrwt>
</event>
<event>
 4    1  0.4133473E-007  0.2016081E+02  0.7818608E-02  0.1742149E+00
          3   -1    0    0  501    0  0.00000000000E+00  0.00000000000E+00  0.89065847181E+01  0.89070702445E+01  0.93000000000E-01 0. -1.
         -3   -1    0    0    0  501 -0.00000000000E+00 -0.00000000000E+00 -0.11407939538E+02  0.11408318610E+02  0.93000000000E-01 0.  1.
        -11    1    1    2    0    0 -0.10035402001E+02 -0.95054059044E+00 -0.12927237404E+01  0.10162871428E+02  0.51100000000E-03 0. -1.
         11    1    1    2    0    0  0.10035402001E+02  0.95054059044E+00 -0.12086310798E+01  0.10152517426E+02  0.51100000000E-03 0.  1.
<mgrwt>
<rscale>  0 0.20160810E+02</rscale>
<asrwt>0</asrwt>
<pdfrwt beam="1">  1        3 0.13703103E-02 0.20160810E+02</pdfrwt>
<pdfrwt beam="2">  1       -3 0.17551341E-02 0.20160810E+02</pdfrwt>
<totfact> 0.17559246E+06</totfact>
</mgrwt>
</event>
<event>
 5    1  0.4133473E-007  0.2000419E+02  0.7818608E-02  0.1745245E+00
          3   -1    0    0  501    0  0.00000000000E+00  0.00000000000E+00  0.93108310231E+02  0.93108356677E+02  0.93000000000E-01 0.  1.
         -3   -1    0    0    0  501 -0.00000000000E+00 -0.00000000000E+00 -0.10724086567E+01  0.10764336148E+01  0.93000000000E-01 0. -1.
       1023    2    1    2    0    0  0.00000000000E+00  0.00000000000E+00  0.92035901574E+02  0.94184790292E+02  0.20004188154E+02 0.  0.
        -11    1    3    3    0    0  0.86937291729E+01  0.49436207050E+01  0.45326413339E+02  0.46416635585E+02  0.51100000000E-03 0.  1.
         11    1    3    3    0    0 -0.86937291729E+01 -0.49436207050E+01  0.46709488235E+02  0.47768154707E+02  0.51100000000E-03 0. -1.
<mgrwt>
<rscale>  0 0.20004188E+02</rscale>
<asrwt>0</asrwt>
<pdfrwt beam="1">  1        3 0.14324668E-01 0.20004188E+02</pdfrwt>
<pdfrwt beam="2">  1       -3 0.16529914E-03 0.20004188E+02</pdfrwt>
<totfact> 0.14376169E+06</totfact>
</mgrwt>
</event>
<event>
 5    1  0.4133473E-007  0.2000355E+02  0.7818608E-02  0.1745258E+00
         -3   -1    0    0    0  501 -0.00000000000E+00  0.00000000000E+00  0.36015134906E+02  0.36015254980E+02  0.93000000000E-01 0.  1.
          3   -1    0    0  501    0  0.00000000000E+00 -0.00000000000E+00 -0.27766926120E+01  0.27782496038E+01  0.93000000000E-01 0. -1.
       1023    2    1    2    0    0  0.00000000000E+00  0.00000000000E+00  0.33238442294E+02  0.38793504584E+02  0.20003548480E+02 0.  0.
        -11    1    3    3    0    0 -0.99997829028E+01 -0.13726199866E+00  0.16900181488E+02  0.19637480326E+02  0.51100000000E-03 0. -1.
         11    1    3    3    0    0  0.99997829028E+01  0.13726199866E+00  0.16338260806E+02  0.19156024258E+02  0.51100000000E-03 0.  1.
<mgrwt>
<rscale>  0 0.20003548E+02</rscale>
<asrwt>0</asrwt>
<pdfrwt beam="2">  1        3 0.42731247E-03 0.20003548E+02</pdfrwt>
<pdfrwt beam="1">  1       -3 0.55409191E-02 0.20003548E+02</pdfrwt>
<totfact> 0.16771615E+06</totfact>
</mgrwt>
</event>
<event>
 5    1  0.4133473E-007  0.2000048E+02  0.7818608E-02  0.1745318E+00
         -3   -1    0    0    0  501 -0.00000000000E+00  0.00000000000E+00  0.73128354314E+02  0.73128413450E+02  0.93000000000E-01 0.  1.
          3   -1    0    0  501    0  0.00000000000E+00 -0.00000000000E+00 -0.13658840608E+01  0.13690464812E+01  0.93000000000E-01 0. -1.
       1023    2    1    2    0    0  0.00000000000E+00  0.00000000000E+00  0.71762470253E+02  0.74497459931E+02  0.20000484977E+02 0.  0.
        -11    1    3    3    0    0  0.84195162687E+00  0.99647361742E+01  0.35880957364E+02  0.37248462400E+02  0.51100000000E-03 0. -1.
         11    1    3    3    0    0 -0.84195162687E+00 -0.99647361742E+01  0.35881512890E+02  0.37248997531E+02  0.51100000000E-03 0.  1.
<mgrwt>
<rscale>  0 0.20000485E+02</rscale>
<asrwt>0</asrwt>
<pdfrwt beam="2">  1        3 0.21038379E-03 0.20000485E+02</pdfrwt>
<pdfrwt beam="1">  1       -3 0.11250765E-01 0.20000485E+02</pdfrwt>
<totfact> 0.15131221E+06</totfact>
</mgrwt>
</event>
<event>
 5    1  0.4133473E-007  0.2000213E+02  0.7818608E-02  0.1745286E+00
          3   -1    0    0  501    0  0.00000000000E+00  0.00000000000E+00  0.91751392479E+02  0.91751439612E+02  0.93000000000E-01 0.  1.
         -3   -1    0    0    0  501 -0.00000000000E+00 -0.00000000000E+00 -0.10881032002E+01  0.10920703156E+01  0.93000000000E-01 0. -1.
       1023    2    1    2    0    0  0.00000000000E+00  0.00000000000E+00  0.90663289279E+02  0.92843509927E+02  0.20002132706E+02 0.  0.
        -11    1    3    3    0    0  0.99775023371E+01  0.68240922095E+00  0.45000399485E+02  0.46098288356E+02  0.51100000000E-03 0.  1.
         11    1    3    3    0    0 -0.99775023371E+01 -0.68240922095E+00  0.45662889793E+02  0.46745221572E+02  0.51100000000E-03 0. -1.
<mgrwt>
<rscale>  0 0.20002133E+02</rscale>
<asrwt>0</asrwt>
<pdfrwt beam="1">  1        3 0.14115911E-01 0.20002133E+02</pdfrwt>
<pdfrwt beam="2">  1       -3 0.16770924E-03 0.20002133E+02</pdfrwt>
<totfact> 0.14427486E+06</totfact>
</mgrwt>
</event>
<event>
 5    1  0.4133473E-007  0.2000887E+02  0.7818608E-02  0.1745152E+00
          3   -1    0    0  501    0  0.00000000000E+00  0.00000000000E+00  0.27181951262E+01  0.27197856063E+01  0.93000000000E-01 0. -1.
         -3   -1    0    0    0  501 -0.00000000000E+00 -0.00000000000E+00 -0.36809341875E+02  0.36809459358E+02  0.93000000000E-01 0.  1.
       1023    2    1    2    0    0  0.00000000000E+00  0.00000000000E+00 -0.34091146748E+02  0.39529244964E+02  0.20008871054E+02 0.  0.
        -11    1    3    3    0    0  0.31614643134E+01  0.94915002850E+01 -0.17189339645E+02  0.19888610609E+02  0.51100000000E-03 0.  1.
         11    1    3    3    0    0 -0.31614643134E+01 -0.94915002850E+01 -0.16901807103E+02  0.19640634355E+02  0.51100000000E-03 0. -1.
<mgrwt>
<rscale>  0 0.20008871E+02</rscale>
<asrwt>0</asrwt>
<pdfrwt beam="1">  1        3 0.41831527E-03 0.20008871E+02</pdfrwt>
<pdfrwt beam="2">  1       -3 0.56631067E-02 0.20008871E+02</pdfrwt>
<totfact> 0.16722972E+06</totfact>
</mgrwt>
</event>
<event>
 5    1  0.4133473E-007  0.2000106E+02  0.7818608E-02  0.1745307E+00
          3   -1    0    0  501    0  0.00000000000E+00  0.00000000000E+00  0.10026175783E+01  0.10069215502E+01  0.93000000000E-01 0.  1.
         -3   -1    0    0    0  501 -0.00000000000E+00 -0.00000000000E+00 -0.99531502374E+02  0.99531545823E+02  0.93000000000E-01 0. -1.
       1023    2    1    2    0    0  0.00000000000E+00  0.00000000000E+00 -0.98528884796E+02  0.10053846737E+03  0.20001057036E+02 0.  0.
        -11    1    3    3    0    0 -0.96634113597E+01 -0.25736912953E+01 -0.49625676694E+02  0.50623247561E+02  0.51100000000E-03 0. -1.
         11    1    3    3    0    0  0.96634113597E+01  0.25736912953E+01 -0.48903208102E+02  0.49915219813E+02  0.51100000000E-03 0.  1.
<mgrwt>
<rscale>  0 0.20001057E+02</rscale>
<asrwt>0</asrwt>
<pdfrwt beam="1">  1        3 0.15458335E-03 0.20001057E+02</pdfrwt>
<pdfrwt beam="2">  1       -3 0.15312865E-01 0.20001057E+02</pdfrwt>
<totfact> 0.14160644E+06</totfact>
</mgrwt>
</event>
<event>
 5    1  0.4133473E-007  0.2000051E+02  0.7818608E-02  0.1745318E+00
          3   -1    0    0  501    0  0.00000000000E+00  0.00000000000E+00  0.38038607092E+01  0.38049974107E+01  0.93000000000E-01 0.  1.
         -3   -1    0    0    0  501 -0.00000000000E+00 -0.00000000000E+00 -0.26285281777E+02  0.26285446299E+02  0.93000000000E-01 0. -1.
       1023    2    1    2    0    0  0.00000000000E+00  0.00000000000E+00 -0.22481421068E+02  0.30090443709E+02  0.20000512728E+02 0.  0.
        -11    1    3    3    0    0 -0.86542086625E+01 -0.50106771171E+01 -0.11321929489E+02  0.15105902832E+02  0.51100000000E-03 0. -1.
         11    1    3    3    0    0  0.86542086625E+01  0.50106771171E+01 -0.11159491579E+02  0.14984540878E+02  0.51100000000E-03 0.  1.
<mgrwt>
<rscale>  0 0.20000513E+02</rscale>
<asrwt>0</asrwt>
<pdfrwt beam="1">  1        3 0.58530945E-03 0.20000513E+02</pdfrwt>
<pdfrwt beam="2">  1       -3 0.40439895E-02 0.20000513E+02</pdfrwt>
<totfact> 0.17261852E+06</totfact>
</mgrwt>
</event>
<event>
 5    1  0.4133473E-007  0.2000930E+02  0.7818608E-02  0.1745143E+00
          3   -1    0    0  501    0  0.00000000000E+00  0.00000000000E+00  0.11297462233E+01  0.11335676111E+01  0.93000000000E-01 0.  1.
         -3   -1    0    0    0  501 -0.00000000000E+00 -0.00000000000E+00 -0.88444383701E+02  0.88444432597E+02  0.93000000000E-01 0. -1.
       1023    2    1    2    0    0  0.00000000000E+00  0.00000000000E+00 -0.87314637478E+02  0.89578000208E+02  0.20009302918E+02 0.  0.
        -11    1    3    3    0    0  0.73980812588E+01  0.67350462778E+01 -0.43766600705E+02  0.44895520848E+02  0.51100000000E-03 0. -1.
         11    1    3    3    0    0 -0.73980812588E+01 -0.67350462778E+01 -0.43548036773E+02  0.44682479359E+02  0.51100000000E-03 0.  1.
<mgrwt>
<rscale>  0 0.20009303E+02</rscale>
<asrwt>0</asrwt>
<pdfrwt beam="1">  1        3 0.17410490E-03 0.20009303E+02</pdfrwt>
<pdfrwt beam="2">  1       -3 0.13607121E-01 0.20009303E+02</pdfrwt>
<totfact> 0.14537989E+06</totfact>
</mgrwt>
</event>
<event>
 5    1  0.4300820E-007  0.2000127E+02  0.7818608E-02  0.1745303E+00
         -3   -1    0    0    0  501 -0.00000000000E+00  0.00000000000E+00  0.14919245396E+02  0.14919535253E+02  0.93000000000E-01 0.  1.
          3   -1    0    0  501    0  0.00000000000E+00 -0.00000000000E+00 -0.67029266965E+01  0.67035718313E+01  0.93000000000E-01 0. -1.
       1023    2    1    2    0    0  0.00000000000E+00  0.00000000000E+00  0.82163186991E+01  0.21623107085E+02  0.20001271635E+02 0.  0.
        -11    1    3    3    0    0 -0.52897055945E+01  0.84870978201E+01  0.41406245499E+01  0.10823889625E+02  0.51100000000E-03 0.  1.
         11    1    3    3    0    0  0.52897055945E+01 -0.84870978201E+01  0.40756941491E+01  0.10799217460E+02  0.51100000000E-03 0. -1.
<mgrwt>
<rscale>  0 0.20001272E+02</rscale>
<asrwt>0</asrwt>
<pdfrwt beam="2">  1        3 0.10312914E-02 0.20001272E+02</pdfrwt>
<pdfrwt beam="1">  1       -3 0.22953404E-02 0.20001272E+02</pdfrwt>
<totfact> 0.17777949E+06</totfact>
</mgrwt>
</event>
<event>
 5    1  0.4133473E-007  0.2000033E+02  0.7818608E-02  0.1745321E+00
          3   -1    0    0  501    0  0.00000000000E+00  0.00000000000E+00  0.29360695995E+02  0.29360843283E+02  0.93000000000E-01 0. -1.
         -3   -1    0    0    0  501 -0.00000000000E+00 -0.00000000000E+00 -0.34052367349E+01  0.34065064539E+01  0.93000000000E-01 0.  1.
       1023    2    1    2    0    0  0.00000000000E+00  0.00000000000E+00  0.25955459260E+02  0.32767349737E+02  0.20000333582E+02 0.  0.
        -11    1    3    3    0    0 -0.64956124088E+01 -0.76031318345E+01  0.13063509394E+02  0.16451622175E+02  0.51100000000E-03 0.  1.
         11    1    3    3    0    0  0.64956124088E+01  0.76031318345E+01  0.12891949866E+02  0.16315727562E+02  0.51100000000E-03 0. -1.
<mgrwt>
<rscale>  0 0.20000334E+02</rscale>
<asrwt>0</asrwt>
<pdfrwt beam="1">  1        3 0.45171393E-02 0.20000334E+02</pdfrwt>
<pdfrwt beam="2">  1       -3 0.52399155E-03 0.20000334E+02</pdfrwt>
<totfact> 0.17106564E+06</totfact>
</mgrwt>
</event>
<event>
 5    1  0.4133473E-007  0.2000072E+02  0.7818608E-02  0.1745314E+00
         -3   -1    0    0    0  501 -0.00000000000E+00  0.00000000000E+00  0.95764497771E+02  0.95764542929E+02  0.93000000000E-01 0.  1.
          3   -1    0    0  501    0  0.00000000000E+00 -0.00000000000E+00 -0.10421879330E+01  0.10463291488E+01  0.93000000000E-01 0. -1.
       1023    2    1    2    0    0  0.00000000000E+00  0.00000000000E+00  0.94722309838E+02  0.96810872078E+02  0.20000724271E+02 0.  0.
        -11    1    3    3    0    0  0.79210965876E+01  0.61043799572E+01  0.47380974601E+02  0.48424828138E+02  0.51100000000E-03 0.  1.
         11    1    3    3    0    0 -0.79210965876E+01 -0.61043799572E+01  0.47341335237E+02  0.48386043940E+02  0.51100000000E-03 0. -1.
<mgrwt>
<rscale>  0 0.20000724E+02</rscale>
<asrwt>0</asrwt>
<pdfrwt beam="2">  1        3 0.16065867E-03 0.20000724E+02</pdfrwt>
<pdfrwt beam="1">  1       -3 0.14733319E-01 0.20000724E+02</pdfrwt>
<totfact> 0.14291158E+06</totfact>
</mgrwt>
</event>
<event>
 5    1  0.4133473E-007  0.2000656E+02  0.7818608E-02  0.1745198E+00
         -3   -1    0    0    0  501 -0.00000000000E+00  0.00000000000E+00  0.10799914422E+02  0.10800314835E+02  0.93000000000E-01 0. -1.
          3   -1    0    0  501    0  0.00000000000E+00 -0.00000000000E+00 -0.92646041598E+01  0.92650709246E+01  0.93000000000E-01 0.  1.
       1023    2    1    2    0    0  0.00000000000E+00  0.00000000000E+00  0.15353102624E+01  0.20065385759E+02  0.20006562125E+02 0.  0.
        -11    1    3    3    0    0  0.68047182939E+01  0.73303677016E+01  0.60239792676E+00  0.10020048165E+02  0.51100000000E-03 0.  1.
         11    1    3    3    0    0 -0.68047182939E+01 -0.73303677016E+01  0.93291233562E+00  0.10045337594E+02  0.51100000000E-03 0. -1.
<mgrwt>
<rscale>  0 0.20006562E+02</rscale>
<asrwt>0</asrwt>
<pdfrwt beam="2">  1        3 0.14253904E-02 0.20006562E+02</pdfrwt>
<pdfrwt beam="1">  1       -3 0.16615920E-02 0.20006562E+02</pdfrwt>
<totfact> 0.17868804E+06</totfact>
</mgrwt>
</event>
<event>
 5    1  0.4133473E-007  0.2000157E+02  0.7818608E-02  0.1745297E+00
         -3   -1    0    0    0  501 -0.00000000000E+00  0.00000000000E+00  0.76479678194E+02  0.76479734738E+02  0.93000000000E-01 0.  1.
          3   -1    0    0  501    0  0.00000000000E+00 -0.00000000000E+00 -0.13060310734E+01  0.13093380635E+01  0.93000000000E-01 0. -1.
       1023    2    1    2    0    0  0.00000000000E+00  0.00000000000E+00  0.75173647120E+02  0.77789072802E+02  0.20001565588E+02 0.  0.
        -11    1    3    3    0    0  0.59060016476E+01 -0.80696568673E+01  0.38070062121E+02  0.39361527506E+02  0.51100000000E-03 0.  1.
         11    1    3    3    0    0 -0.59060016476E+01  0.80696568673E+01  0.37103584999E+02  0.38427545296E+02  0.51100000000E-03 0. -1.
<mgrwt>
<rscale>  0 0.20001566E+02</rscale>
<asrwt>0</asrwt>
<pdfrwt beam="2">  1        3 0.20118652E-03 0.20001566E+02</pdfrwt>
<pdfrwt beam="1">  1       -3 0.11766367E-01 0.20001566E+02</pdfrwt>
<totfact> 0.14998341E+06</totfact>
</mgrwt>
</event>
<event>
 5    1  0.4133473E-007  0.2000027E+02  0.7818608E-02  0.1745323E+00
         -3   -1    0    0    0  501 -0.00000000000E+00  0.00000000000E+00  0.59533290582E+02  0.59533363222E+02  0.93000000000E-01 0.  1.
          3   -1    0    0  501    0  0.00000000000E+00 -0.00000000000E+00 -0.16784160622E+01  0.16809906240E+01  0.93000000000E-01 0. -1.
       1023    2    1    2    0    0  0.00000000000E+00  0.00000000000E+00  0.57854874520E+02  0.61214353846E+02  0.20000265275E+02 0.  0.
        -11    1    3    3    0    0 -0.97775880955E+01 -0.20979503913E+01  0.28911329360E+02  0.30591953034E+02  0.51100000000E-03 0. -1.
         11    1    3    3    0    0  0.97775880955E+01  0.20979503913E+01  0.28943545160E+02  0.30622400812E+02  0.51100000000E-03 0.  1.
<mgrwt>
<rscale>  0 0.20000265E+02</rscale>
<asrwt>0</asrwt>
<pdfrwt beam="2">  1        3 0.25842151E-03 0.20000265E+02</pdfrwt>
<pdfrwt beam="1">  1       -3 0.91591705E-02 0.20000265E+02</pdfrwt>
<totfact> 0.15691991E+06</totfact>
</mgrwt>
</event>
<event>
 5    1  0.4133473E-007  0.2001235E+02  0.7818608E-02  0.1745083E+00
          3   -1    0    0  501    0  0.00000000000E+00  0.00000000000E+00  0.84401126084E+02  0.84401177322E+02  0.93000000000E-01 0.  1.
         -3   -1    0    0    0  501 -0.00000000000E+00 -0.00000000000E+00 -0.11844075296E+01  0.11880531116E+01  0.93000000000E-01 0. -1.
       1023    2    1    2    0    0  0.00000000000E+00  0.00000000000E+00  0.83216718555E+02  0.85589230433E+02  0.20012349166E+02 0.  0.
        -11    1    3    3    0    0 -0.35044832344E+01 -0.93720869107E+01  0.41942765258E+02  0.43119751548E+02  0.51100000000E-03 0. -1.
         11    1    3    3    0    0  0.35044832344E+01  0.93720869107E+01  0.41273953297E+02  0.42469478886E+02  0.51100000000E-03 0.  1.
<mgrwt>
<rscale>  0 0.20012349E+02</rscale>
<asrwt>0</asrwt>
<pdfrwt beam="1">  1        3 0.12985078E-01 0.20012349E+02</pdfrwt>
<pdfrwt beam="2">  1       -3 0.18250085E-03 0.20012349E+02</pdfrwt>
<totfact> 0.14678416E+06</totfact>
</mgrwt>
</event>
<event>
 5    1  0.4133473E-007  0.2000048E+02  0.7818608E-02  0.1745319E+00
          3   -1    0    0  501    0  0.00000000000E+00  0.00000000000E+00  0.26178163338E+01  0.26194677622E+01  0.93000000000E-01 0. -1.
         -3   -1    0    0    0  501 -0.00000000000E+00 -0.00000000000E+00 -0.38187840254E+02  0.38187953497E+02  0.93000000000E-01 0.  1.
       1023    2    1    2    0    0  0.00000000000E+00  0.00000000000E+00 -0.35570023920E+02  0.40807421259E+02  0.20000475697E+02 0.  0.
        -11    1    3    3    0    0  0.38876158522E+01  0.92135920628E+01 -0.17846933436E+02  0.20457684840E+02  0.51100000000E-03 0.  1.
         11    1    3    3    0    0 -0.38876158522E+01 -0.92135920628E+01 -0.17723090485E+02  0.20349736418E+02  0.51100000000E-03 0. -1.
<mgrwt>
<rscale>  0 0.20000476E+02</rscale>
<asrwt>0</asrwt>
<pdfrwt beam="1">  1        3 0.40287675E-03 0.20000476E+02</pdfrwt>
<pdfrwt beam="2">  1       -3 0.58751877E-02 0.20000476E+02</pdfrwt>
<totfact> 0.16670819E+06</totfact>
</mgrwt>
</event>
<event>
 5    1  0.4289703E-007  0.2000137E+02  0.7818608E-02  0.1745301E+00
          3   -1    0    0  501    0  0.00000000000E+00  0.00000000000E+00  0.60671983743E+01  0.60679110997E+01  0.93000000000E-01 0.  1.
         -3   -1    0    0    0  501 -0.00000000000E+00 -0.00000000000E+00 -0.16482514402E+02  0.16482776769E+02  0.93000000000E-01 0. -1.
       1023    2    1    2    0    0  0.00000000000E+00  0.00000000000E+00 -0.10415316028E+02  0.22550687869E+02  0.20001367838E+02 0.  0.
        -11    1    3    3    0    0  0.72905019997E+01 -0.68454914258E+01 -0.52514161139E+01  0.11295554158E+02  0.51100000000E-03 0. -1.
         11    1    3    3    0    0 -0.72905019997E+01  0.68454914258E+01 -0.51638999140E+01  0.11255133711E+02  0.51100000000E-03 0.  1.
<mgrwt>
<rscale>  0 0.20001368E+02</rscale>
<asrwt>0</asrwt>
<pdfrwt beam="1">  1        3 0.93349015E-03 0.20001368E+02</pdfrwt>
<pdfrwt beam="2">  1       -3 0.25358464E-02 0.20001368E+02</pdfrwt>
<totfact> 0.17718531E+06</totfact>
</mgrwt>
</event>
<event>
 5    1  0.4263817E-007  0.2000179E+02  0.7818608E-02  0.1745293E+00
         -3   -1    0    0    0  501 -0.00000000000E+00  0.00000000000E+00  0.52499799710E+01  0.52508036238E+01  0.93000000000E-01 0.  1.
          3   -1    0    0  501    0  0.00000000000E+00 -0.00000000000E+00 -0.19048664543E+02  0.19048891566E+02  0.93000000000E-01 0. -1.
       1023    2    1    2    0    0  0.00000000000E+00  0.00000000000E+00 -0.13798684572E+02  0.24299695189E+02  0.20001787179E+02 0.  0.
        -11    1    3    3    0    0 -0.22551112580E+01  0.97429085851E+01 -0.70085315325E+01  0.12211851170E+02  0.51100000000E-03 0.  1.
         11    1    3    3    0    0  0.22551112580E+01 -0.97429085851E+01 -0.67901530396E+01  0.12087844020E+02  0.51100000000E-03 0. -1.
<mgrwt>
<rscale>  0 0.20001787E+02</rscale>
<asrwt>0</asrwt>
<pdfrwt beam="2">  1        3 0.29306446E-02 0.20001787E+02</pdfrwt>
<pdfrwt beam="1">  1       -3 0.80777006E-03 0.20001787E+02</pdfrwt>
<totfact> 0.17606745E+06</totfact>
</mgrwt>
</event>
<event>
 5    1  0.4160043E-007  0.2000078E+02  0.7818608E-02  0.1745313E+00
         -3   -1    0    0    0  501 -0.00000000000E+00  0.00000000000E+00  0.38660626448E+01  0.38671810629E+01  0.93000000000E-01 0. -1.
          3   -1    0    0  501    0  0.00000000000E+00 -0.00000000000E+00 -0.25863187975E+02  0.25863355181E+02  0.93000000000E-01 0.  1.
       1023    2    1    2    0    0  0.00000000000E+00  0.00000000000E+00 -0.21997125330E+02  0.29730536244E+02  0.20000781549E+02 0.  0.
        -11    1    3    3    0    0 -0.15689352731E+01  0.98765124460E+01 -0.11039525435E+02  0.14895575789E+02  0.51100000000E-03 0.  1.
         11    1    3    3    0    0  0.15689352731E+01 -0.98765124460E+01 -0.10957599895E+02  0.14834960455E+02  0.51100000000E-03 0. -1.
<mgrwt>
<rscale>  0 0.20000782E+02</rscale>
<asrwt>0</asrwt>
<pdfrwt beam="2">  1        3 0.39790508E-02 0.20000782E+02</pdfrwt>
<pdfrwt beam="1">  1       -3 0.59487778E-03 0.20000782E+02</pdfrwt>
<totfact> 0.17280684E+06</totfact>
</mgrwt>
</event>
<event>
 5    1  0.4133473E-007  0.2000068E+02  0.7818608E-02  0.1745315E+00
          3   -1    0    0  501    0  0.00000000000E+00  0.00000000000E+00  0.30031764644E+02  0.30031908641E+02  0.93000000000E-01 0.  1.
         -3   -1    0    0    0  501 -0.00000000000E+00 -0.00000000000E+00 -0.33292318732E+01  0.33305305681E+01  0.93000000000E-01 0. -1.
       1023    2    1    2    0    0  0.00000000000E+00  0.00000000000E+00  0.26702532771E+02  0.33362439209E+02  0.20000677329E+02 0.  0.
        -11    1    3    3    0    0 -0.88345970889E+01 -0.46850725650E+01  0.13488438602E+02  0.16791009107E+02  0.51100000000E-03 0. -1.
         11    1    3    3    0    0  0.88345970889E+01  0.46850725650E+01  0.13214094169E+02  0.16571430102E+02  0.51100000000E-03 0.  1.
<mgrwt>
<rscale>  0 0.20000677E+02</rscale>
<asrwt>0</asrwt>
<pdfrwt beam="1">  1        3 0.46203826E-02 0.20000677E+02</pdfrwt>
<pdfrwt beam="2">  1       -3 0.51230048E-03 0.20000677E+02</pdfrwt>
<totfact> 0.17072289E+06</totfact>
</mgrwt>
</event>
<event>
 5    1  0.4133473E-007  0.2000275E+02  0.7818608E-02  0.1745273E+00
         -3   -1    0    0    0  501 -0.00000000000E+00  0.00000000000E+00  0.19726076711E+02  0.19726295938E+02  0.93000000000E-01 0.  1.
          3   -1    0    0  501    0  0.00000000000E+00 -0.00000000000E+00 -0.50701537506E+01  0.50710066115E+01  0.93000000000E-01 0. -1.
       1023    2    1    2    0    0  0.00000000000E+00  0.00000000000E+00  0.14655922961E+02  0.24797302549E+02  0.20002753208E+02 0.  0.
        -11    1    3    3    0    0  0.64341827392E+01  0.76556093640E+01  0.75053350957E+01  0.12503484211E+02  0.51100000000E-03 0. -1.
         11    1    3    3    0    0 -0.64341827392E+01 -0.76556093640E+01  0.71505878652E+01  0.12293818338E+02  0.51100000000E-03 0.  1.
<mgrwt>
<rscale>  0 0.20002753E+02</rscale>
<asrwt>0</asrwt>
<pdfrwt beam="2">  1        3 0.78010613E-03 0.20002753E+02</pdfrwt>
<pdfrwt beam="1">  1       -3 0.30348635E-02 0.20002753E+02</pdfrwt>
<totfact> 0.17575156E+06</totfact>
</mgrwt>
</event>
<event>
 5    1  0.4133473E-007  0.2000447E+02  0.7818608E-02  0.1745239E+00
         -3   -1    0    0    0  501 -0.00000000000E+00  0.00000000000E+00  0.58122003761E+01  0.58129443669E+01  0.93000000000E-01 0. -1.
          3   -1    0    0  501    0  0.00000000000E+00 -0.00000000000E+00 -0.17210910606E+02  0.17211161870E+02  0.93000000000E-01 0.  1.
       1023    2    1    2    0    0  0.00000000000E+00  0.00000000000E+00 -0.11398710230E+02  0.23024106237E+02  0.20004471327E+02 0.  0.
        -11    1    3    3    0    0 -0.18802073693E+01  0.98223390163E+01 -0.54960750651E+01  0.11411413799E+02  0.51100000000E-03 0.  1.
         11    1    3    3    0    0  0.18802073693E+01 -0.98223390163E+01 -0.59026351652E+01  0.11612692438E+02  0.51100000000E-03 0. -1.
<mgrwt>
<rscale>  0 0.20004471E+02</rscale>
<asrwt>0</asrwt>
<pdfrwt beam="2">  1        3 0.26479089E-02 0.20004471E+02</pdfrwt>
<pdfrwt beam="1">  1       -3 0.89426124E-03 0.20004471E+02</pdfrwt>
<totfact> 0.17681669E+06</totfact>
</mgrwt>
</event>
<event>
 5    1  0.4133473E-007  0.2000018E+02  0.7818608E-02  0.1745325E+00
          3   -1    0    0  501    0  0.00000000000E+00  0.00000000000E+00  0.80732443201E+01  0.80737799606E+01  0.93000000000E-01 0.  1.
         -3   -1    0    0    0  501 -0.00000000000E+00 -0.00000000000E+00 -0.12385693633E+02  0.12386042781E+02  0.93000000000E-01 0. -1.
       1023    2    1    2    0    0  0.00000000000E+00  0.00000000000E+00 -0.43124493130E+01  0.20459822742E+02  0.20000178188E+02 0.  0.
        -11    1    3    3    0    0 -0.27949155384E+01 -0.96015733768E+01 -0.21519516029E+01  0.10229010712E+02  0.51100000000E-03 0.  1.
         11    1    3    3    0    0  0.27949155384E+01  0.96015733768E+01 -0.21604977101E+01  0.10230812030E+02  0.51100000000E-03 0. -1.
<mgrwt>
<rscale>  0 0.20000178E+02</rscale>
<asrwt>0</asrwt>
<pdfrwt beam="1">  1        3 0.12421056E-02 0.20000178E+02</pdfrwt>
<pdfrwt beam="2">  1       -3 0.19055594E-02 0.20000178E+02</pdfrwt>
<totfact> 0.17855389E+06</totfact>
</mgrwt>
</event>
<event>
 5    1  0.4133473E-007  0.2000042E+02  0.7818608E-02  0.1745320E+00
          3   -1    0    0  501    0  0.00000000000E+00  0.00000000000E+00  0.10867566055E+03  0.10867570034E+03  0.93000000000E-01 0.  1.
         -3   -1    0    0    0  501 -0.00000000000E+00 -0.00000000000E+00 -0.91781771356E+00  0.92251740110E+00  0.93000000000E-01 0. -1.
       1023    2    1    2    0    0  0.00000000000E+00  0.00000000000E+00  0.10775784284E+03  0.10959821774E+03  0.20000415992E+02 0.  0.
        -11    1    3    3    0    0 -0.41779679534E+01  0.90856327007E+01  0.53904571731E+02  0.54824328464E+02  0.51100000000E-03 0. -1.
         11    1    3    3    0    0  0.41779679534E+01 -0.90856327007E+01  0.53853271105E+02  0.54773889279E+02  0.51100000000E-03 0.  1.
<mgrwt>
<rscale>  0 0.20000416E+02</rscale>
<asrwt>0</asrwt>
<pdfrwt beam="1">  1        3 0.16719684E-01 0.20000416E+02</pdfrwt>
<pdfrwt beam="2">  1       -3 0.14156741E-03 0.20000416E+02</pdfrwt>
<totfact> 0.13853576E+06</totfact>
</mgrwt>
</event>
<event>
 5    1  0.4133473E-007  0.2000042E+02  0.7818608E-02  0.1745320E+00
          3   -1    0    0  501    0  0.00000000000E+00  0.00000000000E+00  0.88126377390E+01  0.88131284411E+01  0.93000000000E-01 0. -1.
         -3   -1    0    0    0  501 -0.00000000000E+00 -0.00000000000E+00 -0.11346820408E+02  0.11347201522E+02  0.93000000000E-01 0.  1.
       1023    2    1    2    0    0  0.00000000000E+00  0.00000000000E+00 -0.25341826691E+01  0.20160329963E+02  0.20000420556E+02 0.  0.
        -11    1    3    3    0    0  0.75658186193E+01 -0.65392404924E+01 -0.12363889067E+01  0.10076305642E+02  0.51100000000E-03 0.  1.
         11    1    3    3    0    0 -0.75658186193E+01  0.65392404924E+01 -0.12977937624E+01  0.10084024321E+02  0.51100000000E-03 0. -1.
<mgrwt>
<rscale>  0 0.20000421E+02</rscale>
<asrwt>0</asrwt>
<pdfrwt beam="1">  1        3 0.13558575E-02 0.20000421E+02</pdfrwt>
<pdfrwt beam="2">  1       -3 0.17457317E-02 0.20000421E+02</pdfrwt>
<totfact> 0.17874459E+06</totfact>
</mgrwt>
</event>
<event>
 5    1  0.4153848E-007  0.2000121E+02  0.7818608E-02  0.1745304E+00
          3   -1    0    0  501    0  0.00000000000E+00  0.00000000000E+00  0.24316365503E+01  0.24334143324E+01  0.93000000000E-01 0.  1.
         -3   -1    0    0    0  501 -0.00000000000E+00 -0.00000000000E+00 -0.41112700349E+02  0.41112805535E+02  0.93000000000E-01 0. -1.
       1023    2    1    2    0    0  0.00000000000E+00  0.00000000000E+00 -0.38681063799E+02  0.43546219868E+02  0.20001214167E+02 0.  0.
        -11    1    3    3    0    0 -0.98580533715E+01  0.16794190555E+01 -0.19563383384E+02  0.21971063569E+02  0.51100000000E-03 0.  1.
         11    1    3    3    0    0  0.98580533715E+01 -0.16794190555E+01 -0.19117680415E+02  0.21575156299E+02  0.51100000000E-03 0. -1.
<mgrwt>
<rscale>  0 0.20001214E+02</rscale>
<asrwt>0</asrwt>
<pdfrwt beam="1">  1        3 0.37424280E-03 0.20001214E+02</pdfrwt>
<pdfrwt beam="2">  1       -3 0.63251752E-02 0.20001214E+02</pdfrwt>
<totfact> 0.16527984E+06</totfact>
</mgrwt>
</event>
<event>
 5    1  0.4133473E-007  0.2000082E+02  0.7818608E-02  0.1745312E+00
          3   -1    0    0  501    0  0.00000000000E+00  0.00000000000E+00  0.20411186025E+01  0.20432361952E+01  0.93000000000E-01 0.  1.
         -3   -1    0    0    0  501 -0.00000000000E+00 -0.00000000000E+00 -0.48969197667E+02  0.48969285977E+02  0.93000000000E-01 0. -1.
       1023    2    1    2    0    0  0.00000000000E+00  0.00000000000E+00 -0.46928079064E+02  0.51012522172E+02  0.20000820327E+02 0.  0.
        -11    1    3    3    0    0 -0.96492704410E+01 -0.26252788110E+01 -0.23687763935E+02  0.25712072445E+02  0.51100000000E-03 0.  1.
         11    1    3    3    0    0  0.96492704410E+01  0.26252788110E+01 -0.23240315129E+02  0.25300449728E+02  0.51100000000E-03 0. -1.
<mgrwt>
<rscale>  0 0.20000820E+02</rscale>
<asrwt>0</asrwt>
<pdfrwt beam="1">  1        3 0.31418797E-03 0.20000820E+02</pdfrwt>
<pdfrwt beam="2">  1       -3 0.75338915E-02 0.20000820E+02</pdfrwt>
<totfact> 0.16159687E+06</totfact>
</mgrwt>
</event>
<event>
 5    1  0.4133473E-007  0.2000472E+02  0.7818608E-02  0.1745234E+00
          3   -1    0    0  501    0  0.00000000000E+00  0.00000000000E+00  0.60631252340E+01  0.60638384380E+01  0.93000000000E-01 0. -1.
         -3   -1    0    0    0  501 -0.00000000000E+00 -0.00000000000E+00 -0.16499111146E+02  0.16499373249E+02  0.93000000000E-01 0.  1.
       1023    2    1    2    0    0  0.00000000000E+00  0.00000000000E+00 -0.10435985912E+02  0.22563211687E+02  0.20004717436E+02 0.  0.
        -11    1    3    3    0    0  0.28470479857E+00  0.99982547441E+01 -0.51818843184E+01  0.11264904798E+02  0.51100000000E-03 0. -1.
         11    1    3    3    0    0 -0.28470479857E+00 -0.99982547441E+01 -0.52541015938E+01  0.11298306889E+02  0.51100000000E-03 0.  1.
<mgrwt>
<rscale>  0 0.20004717E+02</rscale>
<asrwt>0</asrwt>
<pdfrwt beam="1">  1        3 0.93286353E-03 0.20004717E+02</pdfrwt>
<pdfrwt beam="2">  1       -3 0.25383998E-02 0.20004717E+02</pdfrwt>
<totfact> 0.17711345E+06</totfact>
</mgrwt>
</event>
<event>
 5    1  0.4133473E-007  0.2000012E+02  0.7818608E-02  0.1745326E+00
         -3   -1    0    0    0  501 -0.00000000000E+00  0.00000000000E+00  0.25752719601E+02  0.25752887524E+02  0.93000000000E-01 0. -1.
          3   -1    0    0  501    0  0.00000000000E+00 -0.00000000000E+00 -0.38823957905E+01  0.38835095048E+01  0.93000000000E-01 0.  1.
       1023    2    1    2    0    0  0.00000000000E+00  0.00000000000E+00  0.21870323810E+02  0.29636397029E+02  0.20000124132E+02 0.  0.
        -11    1    3    3    0    0 -0.89652150765E+00  0.99597481615E+01  0.10979784059E+02  0.14851127651E+02  0.51100000000E-03 0. -1.
         11    1    3    3    0    0  0.89652150765E+00 -0.99597481615E+01  0.10890539751E+02  0.14785269378E+02  0.51100000000E-03 0.  1.
<mgrwt>
<rscale>  0 0.20000124E+02</rscale>
<asrwt>0</asrwt>
<pdfrwt beam="2">  1        3 0.59739025E-03 0.20000124E+02</pdfrwt>
<pdfrwt beam="1">  1       -3 0.39620554E-02 0.20000124E+02</pdfrwt>
<totfact> 0.17289070E+06</totfact>
</mgrwt>
</event>
<event>
 5    1  0.4271095E-007  0.2000060E+02  0.7818608E-02  0.1745316E+00
         -3   -1    0    0    0  501 -0.00000000000E+00  0.00000000000E+00  0.25487149533E+02  0.25487319206E+02  0.93000000000E-01 0.  1.
          3   -1    0    0  501    0  0.00000000000E+00 -0.00000000000E+00 -0.39230471213E+01  0.39241492984E+01  0.93000000000E-01 0. -1.
       1023    2    1    2    0    0  0.00000000000E+00  0.00000000000E+00  0.21564102411E+02  0.29411468504E+02  0.20000599160E+02 0.  0.
        -11    1    3    3    0    0 -0.61358068540E+01  0.78966790427E+01  0.10808593247E+02  0.14725194528E+02  0.51100000000E-03 0. -1.
         11    1    3    3    0    0  0.61358068540E+01 -0.78966790427E+01  0.10755509165E+02  0.14686273976E+02  0.51100000000E-03 0.  1.
<mgrwt>
<rscale>  0 0.20000599E+02</rscale>
<asrwt>0</asrwt>
<pdfrwt beam="2">  1        3 0.60364356E-03 0.20000599E+02</pdfrwt>
<pdfrwt beam="1">  1       -3 0.39211977E-02 0.20000599E+02</pdfrwt>
<totfact> 0.17301363E+06</totfact>
</mgrwt>
</event>
<event>
 5    1  0.4133473E-007  0.2000289E+02  0.7818608E-02  0.1745271E+00
         -3   -1    0    0    0  501 -0.00000000000E+00  0.00000000000E+00  0.10523811336E+03  0.10523815445E+03  0.93000000000E-01 0.  1.
          3   -1    0    0  501    0  0.00000000000E+00 -0.00000000000E+00 -0.94818476723E+00  0.95273467073E+00  0.93000000000E-01 0. -1.
       1023    2    1    2    0    0  0.00000000000E+00  0.00000000000E+00  0.10428992859E+03  0.10619088912E+03  0.20002892963E+02 0.  0.
        -11    1    3    3    0    0 -0.58009463398E+01  0.81470880086E+01  0.52431343408E+02  0.53376697100E+02  0.51100000000E-03 0. -1.
         11    1    3    3    0    0  0.58009463398E+01 -0.81470880086E+01  0.51858585183E+02  0.52814192022E+02  0.51100000000E-03 0.  1.
<mgrwt>
<rscale>  0 0.20002893E+02</rscale>
<asrwt>0</asrwt>
<pdfrwt beam="2">  1        3 0.14622780E-03 0.20002893E+02</pdfrwt>
<pdfrwt beam="1">  1       -3 0.16190824E-01 0.20002893E+02</pdfrwt>
<totfact> 0.13965722E+06</totfact>
</mgrwt>
</event>
<event>
 5    1  0.4133473E-007  0.2000041E+02  0.7818608E-02  0.1745320E+00
         -3   -1    0    0    0  501 -0.00000000000E+00  0.00000000000E+00  0.56419964566E+01  0.56427628885E+01  0.93000000000E-01 0.  1.
          3   -1    0    0  501    0  0.00000000000E+00 -0.00000000000E+00 -0.17722850361E+02  0.17723094367E+02  0.93000000000E-01 0. -1.
       1023    2    1    2    0    0  0.00000000000E+00  0.00000000000E+00 -0.12080853905E+02  0.23365857255E+02  0.20000406351E+02 0.  0.
        -11    1    3    3    0    0 -0.26236518310E+01  0.96498691723E+01 -0.60132960142E+01  0.11668901113E+02  0.51100000000E-03 0.  1.
         11    1    3    3    0    0  0.26236518310E+01 -0.96498691723E+01 -0.60675578905E+01  0.11696956142E+02  0.51100000000E-03 0. -1.
<mgrwt>
<rscale>  0 0.20000406E+02</rscale>
<asrwt>0</asrwt>
<pdfrwt beam="2">  1        3 0.27266701E-02 0.20000406E+02</pdfrwt>
<pdfrwt beam="1">  1       -3 0.86807719E-03 0.20000406E+02</pdfrwt>
<totfact> 0.17667830E+06</totfact>
</mgrwt>
</event>
<event>
 5    1  0.4133473E-007  0.2000038E+02  0.7818608E-02  0.1745321E+00
         -3   -1    0    0    0  501 -0.00000000000E+00  0.00000000000E+00  0.41757479991E+01  0.41767834936E+01  0.93000000000E-01 0. -1.
          3   -1    0    0  501    0  0.00000000000E+00 -0.00000000000E+00 -0.23944615541E+02  0.23944796145E+02  0.93000000000E-01 0.  1.
       1023    2    1    2    0    0  0.00000000000E+00  0.00000000000E+00 -0.19768867542E+02  0.28121579638E+02  0.20000377933E+02 0.  0.
        -11    1    3    3    0    0 -0.78795584739E+01 -0.61576242646E+01 -0.98856718891E+01  0.14061660190E+02  0.51100000000E-03 0.  1.
         11    1    3    3    0    0  0.78795584739E+01  0.61576242646E+01 -0.98831956527E+01  0.14059919449E+02  0.51100000000E-03 0. -1.
<mgrwt>
<rscale>  0 0.20000378E+02</rscale>
<asrwt>0</asrwt>
<pdfrwt beam="2">  1        3 0.36838805E-02 0.20000378E+02</pdfrwt>
<pdfrwt beam="1">  1       -3 0.64251633E-03 0.20000378E+02</pdfrwt>
<totfact> 0.17376480E+06</totfact>
</mgrwt>
</event>
<event>
 4    1  0.4189660E-007  0.2027249E+02  0.7818608E-02  0.1739963E+00
         -3   -1    0    0    0  501 -0.00000000000E+00  0.00000000000E+00  0.32203269677E+01  0.32216695639E+01  0.93000000000E-01 0. -1.
          3   -1    0    0  501    0  0.00000000000E+00 -0.00000000000E+00 -0.31896614596E+02  0.31896750174E+02  0.93000000000E-01 0.  1.
        -11    1    1    2    0    0 -0.99042357725E+01  0.15545635153E+01 -0.16926745808E+02  0.19672958036E+02  0.51100000000E-03 0.  1.
         11    1    1    2    0    0  0.99042357725E+01 -0.15545635153E+01 -0.11749541820E+02  0.15445461702E+02  0.51100000000E-03 0. -1.
<mgrwt>
<rscale>  0 0.20272492E+02</rscale>
<asrwt>0</asrwt>
<pdfrwt beam="2">  1        3 0.49072850E-02 0.20272492E+02</pdfrwt>
<pdfrwt beam="1">  1       -3 0.49554865E-03 0.20272492E+02</pdfrwt>
<totfact> 0.16487761E+06</totfact>
</mgrwt>
</event>
<event>
 5    1  0.4133473E-007  0.2000017E+02  0.7818608E-02  0.1745325E+00
          3   -1    0    0  501    0  0.00000000000E+00  0.00000000000E+00  0.53455533936E+02  0.53455614834E+02  0.93000000000E-01 0.  1.
         -3   -1    0    0    0  501 -0.00000000000E+00 -0.00000000000E+00 -0.18695069283E+01  0.18718186758E+01  0.93000000000E-01 0. -1.
       1023    2    1    2    0    0  0.00000000000E+00  0.00000000000E+00  0.51586027007E+02  0.55327433510E+02  0.20000167910E+02 0.  0.
        -11    1    3    3    0    0 -0.93040192234E+01  0.36656380502E+01  0.25797663718E+02  0.27668052508E+02  0.51100000000E-03 0. -1.
         11    1    3    3    0    0  0.93040192234E+01 -0.36656380502E+01  0.25788363289E+02  0.27659381002E+02  0.51100000000E-03 0.  1.
<mgrwt>
<rscale>  0 0.20000168E+02</rscale>
<asrwt>0</asrwt>
<pdfrwt beam="1">  1        3 0.82241118E-02 0.20000168E+02</pdfrwt>
<pdfrwt beam="2">  1       -3 0.28780052E-03 0.20000168E+02</pdfrwt>
<totfact> 0.15955345E+06</totfact>
</mgrwt>
</event>
<event>
 5    1  0.4133473E-007  0.2000447E+02  0.7818608E-02  0.1745239E+00
          3   -1    0    0  501    0  0.00000000000E+00  0.00000000000E+00  0.35132086654E+01  0.35144393759E+01  0.93000000000E-01 0.  1.
         -3   -1    0    0    0  501 -0.00000000000E+00 -0.00000000000E+00 -0.28470439734E+02  0.28470591628E+02  0.93000000000E-01 0. -1.
       1023    2    1    2    0    0  0.00000000000E+00  0.00000000000E+00 -0.24957231069E+02  0.31985031004E+02  0.20004470143E+02 0.  0.
        -11    1    3    3    0    0 -0.89257332636E+00 -0.99622576279E+01 -0.12417900060E+02  0.15945140524E+02  0.51100000000E-03 0.  1.
         11    1    3    3    0    0  0.89257332636E+00  0.99622576279E+01 -0.12539331009E+02  0.16039890480E+02  0.51100000000E-03 0. -1.
<mgrwt>
<rscale>  0 0.20004470E+02</rscale>
<asrwt>0</asrwt>
<pdfrwt beam="1">  1        3 0.54060001E-03 0.20004470E+02</pdfrwt>
<pdfrwt beam="2">  1       -3 0.43801739E-02 0.20004470E+02</pdfrwt>
<totfact> 0.17145315E+06</totfact>
</mgrwt>
</event>
<event>
 5    1  0.4133473E-007  0.2000141E+02  0.7818608E-02  0.1745300E+00
          3   -1    0    0  501    0  0.00000000000E+00  0.00000000000E+00  0.28355526273E+02  0.28355678782E+02  0.93000000000E-01 0.  1.
         -3   -1    0    0    0  501 -0.00000000000E+00 -0.00000000000E+00 -0.35263708835E+01  0.35275970020E+01  0.93000000000E-01 0. -1.
       1023    2    1    2    0    0  0.00000000000E+00  0.00000000000E+00  0.24829155389E+02  0.31883275784E+02  0.20001407885E+02 0.  0.
        -11    1    3    3    0    0  0.83105706910E+01 -0.55631093020E+01  0.12386567182E+02  0.15919824658E+02  0.51100000000E-03 0.  1.
         11    1    3    3    0    0 -0.83105706910E+01  0.55631093020E+01  0.12442588207E+02  0.15963451126E+02  0.51100000000E-03 0. -1.
<mgrwt>
<rscale>  0 0.20001408E+02</rscale>
<asrwt>0</asrwt>
<pdfrwt beam="1">  1        3 0.43624947E-02 0.20001408E+02</pdfrwt>
<pdfrwt beam="2">  1       -3 0.54262465E-03 0.20001408E+02</pdfrwt>
<totfact> 0.17154968E+06</totfact>
</mgrwt>
</event>
<event>
 5    1  0.4133473E-007  0.2000091E+02  0.7818608E-02  0.1745310E+00
          3   -1    0    0  501    0  0.00000000000E+00  0.00000000000E+00  0.82579826085E+02  0.82579878452E+02  0.93000000000E-01 0.  1.
         -3   -1    0    0    0  501 -0.00000000000E+00 -0.00000000000E+00 -0.12092209041E+01  0.12127919009E+01  0.93000000000E-01 0. -1.
       1023    2    1    2    0    0  0.00000000000E+00  0.00000000000E+00  0.81370605180E+02  0.83792670353E+02  0.20000905415E+02 0.  0.
        -11    1    3    3    0    0 -0.51474523470E+01  0.85737094174E+01  0.40410733910E+02  0.41629703029E+02  0.51100000000E-03 0. -1.
         11    1    3    3    0    0  0.51474523470E+01 -0.85737094174E+01  0.40959871270E+02  0.42162967324E+02  0.51100000000E-03 0.  1.
<mgrwt>
<rscale>  0 0.20000905E+02</rscale>
<asrwt>0</asrwt>
<pdfrwt beam="1">  1        3 0.12704863E-01 0.20000905E+02</pdfrwt>
<pdfrwt beam="2">  1       -3 0.18631277E-03 0.20000905E+02</pdfrwt>
<totfact> 0.14764307E+06</totfact>
</mgrwt>
</event>
<event>
 5    1  0.4133473E-007  0.2000042E+02  0.7818608E-02  0.1745320E+00
          3   -1    0    0  501    0  0.00000000000E+00  0.00000000000E+00  0.74518515914E+01  0.74524318944E+01  0.93000000000E-01 0.  1.
         -3   -1    0    0    0  501 -0.00000000000E+00 -0.00000000000E+00 -0.13418783361E+02  0.13419105629E+02  0.93000000000E-01 0. -1.
       1023    2    1    2    0    0  0.00000000000E+00  0.00000000000E+00 -0.59669317694E+01  0.20871537524E+02  0.20000420092E+02 0.  0.
        -11    1    3    3    0    0 -0.76304461648E+01  0.64637359876E+01 -0.29577107600E+01  0.10428405669E+02  0.51100000000E-03 0.  1.
         11    1    3    3    0    0  0.76304461648E+01 -0.64637359876E+01 -0.30092210094E+01  0.10443131855E+02  0.51100000000E-03 0. -1.
<mgrwt>
<rscale>  0 0.20000420E+02</rscale>
<asrwt>0</asrwt>
<pdfrwt beam="1">  1        3 0.11465081E-02 0.20000420E+02</pdfrwt>
<pdfrwt beam="2">  1       -3 0.20644976E-02 0.20000420E+02</pdfrwt>
<totfact> 0.17828173E+06</totfact>
</mgrwt>
</event>
<event>
 5    1  0.4133473E-007  0.2000073E+02  0.7818608E-02  0.1745314E+00
          3   -1    0    0  501    0  0.00000000000E+00  0.00000000000E+00  0.35969998710E+01  0.35982019220E+01  0.93000000000E-01 0.  1.
         -3   -1    0    0    0  501 -0.00000000000E+00 -0.00000000000E+00 -0.27797051039E+02  0.27797206613E+02  0.93000000000E-01 0. -1.
       1023    2    1    2    0    0  0.00000000000E+00  0.00000000000E+00 -0.24200051168E+02  0.31395408535E+02  0.20000730000E+02 0.  0.
        -11    1    3    3    0    0 -0.87022354624E+01  0.49273053000E+01 -0.12087835458E+02  0.15688307936E+02  0.51100000000E-03 0. -1.
         11    1    3    3    0    0  0.87022354624E+01 -0.49273053000E+01 -0.12112215710E+02  0.15707100599E+02  0.51100000000E-03 0.  1.
<mgrwt>
<rscale>  0 0.20000730E+02</rscale>
<asrwt>0</asrwt>
<pdfrwt beam="1">  1        3 0.55348905E-03 0.20000730E+02</pdfrwt>
<pdfrwt beam="2">  1       -3 0.42765737E-02 0.20000730E+02</pdfrwt>
<totfact> 0.17186012E+06</totfact>
</mgrwt>
</event>
<event>
 5    1  0.4133473E-007  0.2000498E+02  0.7818608E-02  0.1745229E+00
          3   -1    0    0  501    0  0.00000000000E+00  0.00000000000E+00  0.18585470450E+02  0.18585703130E+02  0.93000000000E-01 0. -1.
         -3   -1    0    0    0  501 -0.00000000000E+00 -0.00000000000E+00 -0.53825569529E+01  0.53833603215E+01  0.93000000000E-01 0.  1.
       1023    2    1    2    0    0  0.00000000000E+00  0.00000000000E+00  0.13202913497E+02  0.23969063452E+02  0.20004976329E+02 0.  0.
        -11    1    3    3    0    0  0.90906049196E+01 -0.41724035054E+01  0.66511535851E+01  0.12011906305E+02  0.51100000000E-03 0. -1.
         11    1    3    3    0    0 -0.90906049196E+01  0.41724035054E+01  0.65517599120E+01  0.11957157146E+02  0.51100000000E-03 0.  1.
<mgrwt>
<rscale>  0 0.20004976E+02</rscale>
<asrwt>0</asrwt>
<pdfrwt beam="1">  1        3 0.28593828E-02 0.20004976E+02</pdfrwt>
<pdfrwt beam="2">  1       -3 0.82816538E-03 0.20004976E+02</pdfrwt>
<totfact> 0.17621318E+06</totfact>
</mgrwt>
</event>
<event>
 5    1  0.4133473E-007  0.2000036E+02  0.7818608E-02  0.1745321E+00
          3   -1    0    0  501    0  0.00000000000E+00  0.00000000000E+00  0.54407518056E+01  0.54415465825E+01  0.93000000000E-01 0.  1.
         -3   -1    0    0    0  501 -0.00000000000E+00 -0.00000000000E+00 -0.18378211049E+02  0.18378446353E+02  0.93000000000E-01 0. -1.
       1023    2    1    2    0    0  0.00000000000E+00  0.00000000000E+00 -0.12937459243E+02  0.23819992936E+02  0.20000355291E+02 0.  0.
        -11    1    3    3    0    0 -0.97778263717E+01  0.20963208976E+01 -0.64023885463E+01  0.11873964343E+02  0.51100000000E-03 0.  1.
         11    1    3    3    0    0  0.97778263717E+01 -0.20963208976E+01 -0.65350706970E+01  0.11946028593E+02  0.51100000000E-03 0. -1.
<mgrwt>
<rscale>  0 0.20000355E+02</rscale>
<asrwt>0</asrwt>
<pdfrwt beam="1">  1        3 0.83711798E-03 0.20000355E+02</pdfrwt>
<pdfrwt beam="2">  1       -3 0.28274963E-02 0.20000355E+02</pdfrwt>
<totfact> 0.17640485E+06</totfact>
</mgrwt>
</event>
<event>
 5    1  0.4133473E-007  0.2000198E+02  0.7818608E-02  0.1745289E+00
          3   -1    0    0  501    0  0.00000000000E+00  0.00000000000E+00  0.58165674603E+02  0.58165748950E+02  0.93000000000E-01 0. -1.
         -3   -1    0    0    0  501 -0.00000000000E+00 -0.00000000000E+00 -0.17182338128E+01  0.17207488008E+01  0.93000000000E-01 0.  1.
       1023    2    1    2    0    0  0.00000000000E+00  0.00000000000E+00  0.56447440790E+02  0.59886497751E+02  0.20001975932E+02 0.  0.
        -11    1    3    3    0    0 -0.63272447008E+01 -0.77448857801E+01  0.28074655407E+02  0.29802744131E+02  0.51100000000E-03 0. -1.
         11    1    3    3    0    0  0.63272447008E+01  0.77448857801E+01  0.28372785383E+02  0.30083753620E+02  0.51100000000E-03 0.  1.
<mgrwt>
<rscale>  0 0.20001976E+02</rscale>
<asrwt>0</asrwt>
<pdfrwt beam="1">  1        3 0.89487663E-02 0.20001976E+02</pdfrwt>
<pdfrwt beam="2">  1       -3 0.26454279E-03 0.20001976E+02</pdfrwt>
<totfact> 0.15745364E+06</totfact>
</mgrwt>
</event>
<event>
 5    1  0.4133473E-007  0.2000050E+02  0.7818608E-02  0.1745318E+00
         -3   -1    0    0    0  501 -0.00000000000E+00  0.00000000000E+00  0.12569260992E+02  0.12569605041E+02  0.93000000000E-01 0.  1.
          3   -1    0    0  501    0  0.00000000000E+00 -0.00000000000E+00 -0.79555920775E+01  0.79561356389E+01  0.93000000000E-01 0. -1.
       1023    2    1    2    0    0  0.00000000000E+00  0.00000000000E+00  0.46136689150E+01  0.20525740680E+02  0.20000502234E+02 0.  0.
        -11    1    3    3    0    0 -0.93046679837E+01 -0.36639364562E+01  0.23696421545E+01  0.10276987927E+02  0.51100000000E-03 0. -1.
         11    1    3    3    0    0  0.93046679837E+01  0.36639364562E+01  0.22440267605E+01  0.10248752754E+02  0.51100000000E-03 0.  1.
<mgrwt>
<rscale>  0 0.20000502E+02</rscale>
<asrwt>0</asrwt>
<pdfrwt beam="2">  1        3 0.12240055E-02 0.20000502E+02</pdfrwt>
<pdfrwt beam="1">  1       -3 0.19338007E-02 0.20000502E+02</pdfrwt>
<totfact> 0.17850484E+06</totfact>
</mgrwt>
</event>
<event>
 5    1  0.4133473E-007  0.2000023E+02  0.7818608E-02  0.1745323E+00
         -3   -1    0    0    0  501 -0.00000000000E+00  0.00000000000E+00  0.21776362084E+02  0.21776560670E+02  0.93000000000E-01 0.  1.
          3   -1    0    0  501    0  0.00000000000E+00 -0.00000000000E+00 -0.45915520703E+01  0.45924938121E+01  0.93000000000E-01 0. -1.
       1023    2    1    2    0    0  0.00000000000E+00  0.00000000000E+00  0.17184810013E+02  0.26369054482E+02  0.20000233475E+02 0.  0.
        -11    1    3    3    0    0 -0.99686813403E+01 -0.79204115415E+00  0.85661137456E+01  0.13167393129E+02  0.51100000000E-03 0.  1.
         11    1    3    3    0    0  0.99686813403E+01  0.79204115415E+00  0.86186962678E+01  0.13201661353E+02  0.51100000000E-03 0. -1.
<mgrwt>
<rscale>  0 0.20000233E+02</rscale>
<asrwt>0</asrwt>
<pdfrwt beam="2">  1        3 0.70648034E-03 0.20000233E+02</pdfrwt>
<pdfrwt beam="1">  1       -3 0.33502973E-02 0.20000233E+02</pdfrwt>
<totfact> 0.17483587E+06</totfact>
</mgrwt>
</event>
<event>
 5    1  0.4133473E-007  0.2000570E+02  0.7818608E-02  0.1745215E+00
         -3   -1    0    0    0  501 -0.00000000000E+00  0.00000000000E+00  0.62300391480E+01  0.62307332462E+01  0.93000000000E-01 0. -1.
          3   -1    0    0  501    0  0.00000000000E+00 -0.00000000000E+00 -0.16058698414E+02  0.16058967705E+02  0.93000000000E-01 0.  1.
       1023    2    1    2    0    0  0.00000000000E+00  0.00000000000E+00 -0.98286592656E+01  0.22289700951E+02  0.20005704824E+02 0.  0.
        -11    1    3    3    0    0 -0.48503012875E+01 -0.87482349911E+01 -0.49095920827E+01  0.11142761449E+02  0.51100000000E-03 0.  1.
         11    1    3    3    0    0  0.48503012875E+01  0.87482349911E+01 -0.49190671829E+01  0.11146939502E+02  0.51100000000E-03 0. -1.
<mgrwt>
<rscale>  0 0.20005705E+02</rscale>
<asrwt>0</asrwt>
<pdfrwt beam="2">  1        3 0.24706431E-02 0.20005705E+02</pdfrwt>
<pdfrwt beam="1">  1       -3 0.95854168E-03 0.20005705E+02</pdfrwt>
<totfact> 0.17726027E+06</totfact>
</mgrwt>
</event>
<event>
 5    1  0.4368327E-007  0.2000103E+02  0.7818608E-02  0.1745308E+00
          3   -1    0    0  501    0  0.00000000000E+00  0.00000000000E+00  0.51902266891E+01  0.51910598229E+01  0.93000000000E-01 0.  1.
         -3   -1    0    0    0  501 -0.00000000000E+00 -0.00000000000E+00 -0.19266467193E+02  0.19266691649E+02  0.93000000000E-01 0. -1.
       1023    2    1    2    0    0  0.00000000000E+00  0.00000000000E+00 -0.14076240504E+02  0.24457751472E+02  0.20001026482E+02 0.  0.
        -11    1    3    3    0    0 -0.12193343166E+01 -0.99258793075E+01 -0.70134015917E+01  0.12214649334E+02  0.51100000000E-03 0.  1.
         11    1    3    3    0    0  0.12193343166E+01  0.99258793075E+01 -0.70628389122E+01  0.12243102138E+02  0.51100000000E-03 0. -1.
<mgrwt>
<rscale>  0 0.20001026E+02</rscale>
<asrwt>0</asrwt>
<pdfrwt beam="1">  1        3 0.79857778E-03 0.20001026E+02</pdfrwt>
<pdfrwt beam="2">  1       -3 0.29641532E-02 0.20001026E+02</pdfrwt>
<totfact> 0.17599487E+06</totfact>
</mgrwt>
</event>
<event>
 5    1  0.4161214E-007  0.2000056E+02  0.7818608E-02  0.1745317E+00
          3   -1    0    0  501    0  0.00000000000E+00  0.00000000000E+00  0.32136085408E+02  0.32136219976E+02  0.93000000000E-01 0. -1.
         -3   -1    0    0    0  501 -0.00000000000E+00 -0.00000000000E+00 -0.31111051496E+01  0.31124948597E+01  0.93000000000E-01 0.  1.
       1023    2    1    2    0    0  0.00000000000E+00  0.00000000000E+00  0.29024980258E+02  0.35248714836E+02  0.20000560456E+02 0.  0.
        -11    1    3    3    0    0 -0.10252115240E+01 -0.99474943891E+01  0.14435647434E+02  0.17561082551E+02  0.51100000000E-03 0.  1.
         11    1    3    3    0    0  0.10252115240E+01  0.99474943891E+01  0.14589332825E+02  0.17687632284E+02  0.51100000000E-03 0. -1.
<mgrwt>
<rscale>  0 0.20000560E+02</rscale>
<asrwt>0</asrwt>
<pdfrwt beam="1">  1        3 0.49441307E-02 0.20000560E+02</pdfrwt>
<pdfrwt beam="2">  1       -3 0.47874879E-03 0.20000560E+02</pdfrwt>
<totfact> 0.16967270E+06</totfact>
</mgrwt>
</event>
<event>
 4    1  0.4133473E-007  0.2013186E+02  0.7818608E-02  0.1742718E+00
          3   -1    0    0  501    0  0.00000000000E+00  0.00000000000E+00  0.30119619671E+02  0.30119763248E+02  0.93000000000E-01 0.  1.
         -3   -1    0    0    0  501 -0.00000000000E+00 -0.00000000000E+00 -0.33632250128E+01  0.33645105866E+01  0.93000000000E-01 0. -1.
        -11    1    1    2    0    0 -0.10000909088E+02  0.89469405859E+00  0.12197028649E+02  0.15798296369E+02  0.51100000000E-03 0. -1.
         11    1    1    2    0    0  0.10000909088E+02 -0.89469405859E+00  0.14559366010E+02  0.17685977466E+02  0.51100000000E-03 0.  1.
<mgrwt>
<rscale>  0 0.20131864E+02</rscale>
<asrwt>0</asrwt>
<pdfrwt beam="1">  1        3 0.46338977E-02 0.20131864E+02</pdfrwt>
<pdfrwt beam="2">  1       -3 0.51752915E-03 0.20131864E+02</pdfrwt>
<totfact> 0.16827009E+06</totfact>
</mgrwt>
</event>
<event>
 4    1  0.4133473E-007  0.2009220E+02  0.7818608E-02  0.1743501E+00
         -3   -1    0    0    0  501 -0.00000000000E+00  0.00000000000E+00  0.15815418365E+01  0.15842738339E+01  0.93000000000E-01 0. -1.
          3   -1    0    0  501    0  0.00000000000E+00 -0.00000000000E+00 -0.63755916953E+02  0.63755984782E+02  0.93000000000E-01 0.  1.
        -11    1    1    2    0    0 -0.75992049002E+01  0.65581123167E+01 -0.32417602827E+02  0.33936082944E+02  0.51100000000E-03 0.  1.
         11    1    1    2    0    0  0.75992049002E+01 -0.65581123167E+01 -0.29756772290E+02  0.31404175672E+02  0.51100000000E-03 0. -1.
<mgrwt>
<rscale>  0 0.20092199E+02</rscale>
<asrwt>0</asrwt>
<pdfrwt beam="2">  1        3 0.98088160E-02 0.20092199E+02</pdfrwt>
<pdfrwt beam="1">  1       -3 0.24352955E-03 0.20092199E+02</pdfrwt>
<totfact> 0.15357320E+06</totfact>
</mgrwt>
</event>
<event>
 5    1  0.4133473E-007  0.2000069E+02  0.7818608E-02  0.1745314E+00
         -3   -1    0    0    0  501 -0.00000000000E+00  0.00000000000E+00  0.58909122088E+02  0.58909195497E+02  0.93000000000E-01 0. -1.
          3   -1    0    0  501    0  0.00000000000E+00 -0.00000000000E+00 -0.16962982129E+01  0.16988456749E+01  0.93000000000E-01 0.  1.
       1023    2    1    2    0    0  0.00000000000E+00  0.00000000000E+00  0.57212823875E+02  0.60608041172E+02  0.20000685964E+02 0.  0.
        -11    1    3    3    0    0  0.92630981059E+01 -0.37683242646E+01  0.28727821018E+02  0.30418628421E+02  0.51100000000E-03 0. -1.
         11    1    3    3    0    0 -0.92630981059E+01  0.37683242646E+01  0.28485002856E+02  0.30189412751E+02  0.51100000000E-03 0.  1.
<mgrwt>
<rscale>  0 0.20000686E+02</rscale>
<asrwt>0</asrwt>
<pdfrwt beam="2">  1        3 0.26117063E-03 0.20000686E+02</pdfrwt>
<pdfrwt beam="1">  1       -3 0.90631409E-02 0.20000686E+02</pdfrwt>
<totfact> 0.15718163E+06</totfact>
</mgrwt>
</event>
<event>
 5    1  0.4133473E-007  0.2000380E+02  0.7818608E-02  0.1745253E+00
         -3   -1    0    0    0  501 -0.00000000000E+00  0.00000000000E+00  0.53039058003E+01  0.53047210802E+01  0.93000000000E-01 0. -1.
          3   -1    0    0  501    0  0.00000000000E+00 -0.00000000000E+00 -0.18858815537E+02  0.18859044845E+02  0.93000000000E-01 0.  1.
       1023    2    1    2    0    0  0.00000000000E+00  0.00000000000E+00 -0.13554909736E+02  0.24163765925E+02  0.20003799782E+02 0.  0.
        -11    1    3    3    0    0  0.99890608725E+01 -0.50238019116E+00 -0.68564649234E+01  0.12126204455E+02  0.51100000000E-03 0.  1.
         11    1    3    3    0    0 -0.99890608725E+01  0.50238019116E+00 -0.66984448131E+01  0.12037561470E+02  0.51100000000E-03 0. -1.
<mgrwt>
<rscale>  0 0.20003800E+02</rscale>
<asrwt>0</asrwt>
<pdfrwt beam="2">  1        3 0.29014365E-02 0.20003800E+02</pdfrwt>
<pdfrwt beam="1">  1       -3 0.81606587E-03 0.20003800E+02</pdfrwt>
<totfact> 0.17611407E+06</totfact>
</mgrwt>
</event>
<event>
 4    1  0.4133473E-007  0.2003907E+02  0.7818608E-02  0.1744552E+00
          3   -1    0    0  501    0  0.00000000000E+00  0.00000000000E+00  0.13054584590E+02  0.13054915849E+02  0.93000000000E-01 0. -1.
         -3   -1    0    0    0  501 -0.00000000000E+00 -0.00000000000E+00 -0.76893917807E+01  0.76899541583E+01  0.93000000000E-01 0.  1.
        -11    1    1    2    0    0 -0.68869811119E+01  0.72720968551E+01  0.29701991583E+01  0.10446816970E+02  0.51100000000E-03 0. -1.
         11    1    1    2    0    0  0.68869811119E+01 -0.72720968551E+01  0.23949936511E+01  0.10298053037E+02  0.51100000000E-03 0.  1.
<mgrwt>
<rscale>  0 0.20039070E+02</rscale>
<asrwt>0</asrwt>
<pdfrwt beam="1">  1        3 0.20084664E-02 0.20039070E+02</pdfrwt>
<pdfrwt beam="2">  1       -3 0.11830521E-02 0.20039070E+02</pdfrwt>
<totfact> 0.17761907E+06</totfact>
</mgrwt>
</event>
<event>
 5    1  0.4133473E-007  0.2000233E+02  0.7818608E-02  0.1745282E+00
         -3   -1    0    0    0  501 -0.00000000000E+00  0.00000000000E+00  0.43278672903E+01  0.43288663969E+01  0.93000000000E-01 0. -1.
          3   -1    0    0  501    0  0.00000000000E+00 -0.00000000000E+00 -0.23107681356E+02  0.23107868501E+02  0.93000000000E-01 0.  1.
       1023    2    1    2    0    0  0.00000000000E+00  0.00000000000E+00 -0.18779814066E+02  0.27436734898E+02  0.20002325003E+02 0.  0.
        -11    1    3    3    0    0  0.17773436747E+01  0.98419187577E+01 -0.94318665693E+01  0.13747087787E+02  0.51100000000E-03 0. -1.
         11    1    3    3    0    0 -0.17773436747E+01 -0.98419187577E+01 -0.93479474967E+01  0.13689647111E+02  0.51100000000E-03 0.  1.
<mgrwt>
<rscale>  0 0.20002325E+02</rscale>
<asrwt>0</asrwt>
<pdfrwt beam="2">  1        3 0.35551191E-02 0.20002325E+02</pdfrwt>
<pdfrwt beam="1">  1       -3 0.66591700E-03 0.20002325E+02</pdfrwt>
<totfact> 0.17413815E+06</totfact>
</mgrwt>
</event>
<event>
 4    1  0.4133473E-007  0.2005401E+02  0.7818608E-02  0.1744256E+00
          3   -1    0    0  501    0  0.00000000000E+00  0.00000000000E+00  0.75345665353E+02  0.75345722749E+02  0.93000000000E-01 0.  1.
         -3   -1    0    0    0  501 -0.00000000000E+00 -0.00000000000E+00 -0.13327159741E+01  0.13359569109E+01  0.93000000000E-01 0. -1.
        -11    1    1    2    0    0  0.30606356395E+01  0.95483109256E+01  0.36793659590E+02  0.38135431272E+02  0.51100000000E-03 0. -1.
         11    1    1    2    0    0 -0.30606356395E+01 -0.95483109256E+01  0.37219289789E+02  0.38546248387E+02  0.51100000000E-03 0.  1.
<mgrwt>
<rscale>  0 0.20054010E+02</rscale>
<asrwt>0</asrwt>
<pdfrwt beam="1">  1        3 0.11591895E-01 0.20054010E+02</pdfrwt>
<pdfrwt beam="2">  1       -3 0.20528694E-03 0.20054010E+02</pdfrwt>
<totfact> 0.14954881E+06</totfact>
</mgrwt>
</event>
<event>
 5    1  0.4133473E-007  0.2000003E+02  0.7818608E-02  0.1745328E+00
          3   -1    0    0  501    0  0.00000000000E+00  0.00000000000E+00  0.35548062729E+02  0.35548184381E+02  0.93000000000E-01 0. -1.
         -3   -1    0    0    0  501 -0.00000000000E+00 -0.00000000000E+00 -0.28122050494E+01  0.28137423905E+01  0.93000000000E-01 0.  1.
       1023    2    1    2    0    0  0.00000000000E+00  0.00000000000E+00  0.32735857679E+02  0.38361926771E+02  0.20000026190E+02 0.  0.
        -11    1    3    3    0    0 -0.99923427949E+01 -0.39139295650E+00  0.16392089344E+02  0.19201580568E+02  0.51100000000E-03 0.  1.
         11    1    3    3    0    0  0.99923427949E+01  0.39139295650E+00  0.16343768335E+02  0.19160346203E+02  0.51100000000E-03 0. -1.
<mgrwt>
<rscale>  0 0.20000026E+02</rscale>
<asrwt>0</asrwt>
<pdfrwt beam="1">  1        3 0.54690603E-02 0.20000026E+02</pdfrwt>
<pdfrwt beam="2">  1       -3 0.43277455E-03 0.20000026E+02</pdfrwt>
<totfact> 0.16798863E+06</totfact>
</mgrwt>
</event>
<event>
 5    1  0.4133473E-007  0.2000035E+02  0.7818608E-02  0.1745321E+00
         -3   -1    0    0    0  501 -0.00000000000E+00  0.00000000000E+00  0.17740695530E+01  0.17765054964E+01  0.93000000000E-01 0.  1.
          3   -1    0    0  501    0  0.00000000000E+00 -0.00000000000E+00 -0.56328421000E+02  0.56328497773E+02  0.93000000000E-01 0. -1.
       1023    2    1    2    0    0  0.00000000000E+00  0.00000000000E+00 -0.54554351447E+02  0.58105003269E+02  0.20000353575E+02 0.  0.
        -11    1    3    3    0    0  0.93035627934E+01  0.36668386020E+01 -0.27391536407E+02  0.29159874022E+02  0.51100000000E-03 0.  1.
         11    1    3    3    0    0 -0.93035627934E+01 -0.36668386020E+01 -0.27162815040E+02  0.28945129247E+02  0.51100000000E-03 0. -1.
<mgrwt>
<rscale>  0 0.20000354E+02</rscale>
<asrwt>0</asrwt>
<pdfrwt beam="2">  1        3 0.86661028E-02 0.20000354E+02</pdfrwt>
<pdfrwt beam="1">  1       -3 0.27312711E-03 0.20000354E+02</pdfrwt>
<totfact> 0.15828113E+06</totfact>
</mgrwt>
</event>
<event>
 4    1  0.4133473E-007  0.2004341E+02  0.7818608E-02  0.1744466E+00
          3   -1    0    0  501    0  0.00000000000E+00  0.00000000000E+00  0.45689105264E+01  0.45698569342E+01  0.93000000000E-01 0. -1.
         -3   -1    0    0    0  501 -0.00000000000E+00 -0.00000000000E+00 -0.21978841954E+02  0.21979038710E+02  0.93000000000E-01 0.  1.
        -11    1    1    2    0    0  0.98822780481E+01 -0.15330775919E+01 -0.95682666907E+01  0.13840573473E+02  0.51100000000E-03 0.  1.
         11    1    1    2    0    0 -0.98822780481E+01  0.15330775919E+01 -0.78416647368E+01  0.12708322172E+02  0.51100000000E-03 0. -1.
<mgrwt>
<rscale>  0 0.20043407E+02</rscale>
<asrwt>0</asrwt>
<pdfrwt beam="1">  1        3 0.70299726E-03 0.20043407E+02</pdfrwt>
<pdfrwt beam="2">  1       -3 0.33814482E-02 0.20043407E+02</pdfrwt>
<totfact> 0.17391747E+06</totfact>
</mgrwt>
</event>
<event>
 5    1  0.4133473E-007  0.2000910E+02  0.7818608E-02  0.1745147E+00
         -3   -1    0    0    0  501 -0.00000000000E+00  0.00000000000E+00  0.37594127036E+01  0.37605628404E+01  0.93000000000E-01 0.  1.
          3   -1    0    0  501    0  0.00000000000E+00 -0.00000000000E+00 -0.26618819753E+02  0.26618982213E+02  0.93000000000E-01 0. -1.
       1023    2    1    2    0    0  0.00000000000E+00  0.00000000000E+00 -0.22859407050E+02  0.30379545053E+02  0.20009104602E+02 0.  0.
        -11    1    3    3    0    0 -0.86348991315E+01 -0.50468023826E+01 -0.11059761083E+02  0.14911405460E+02  0.51100000000E-03 0.  1.
         11    1    3    3    0    0  0.86348991315E+01  0.50468023826E+01 -0.11799645966E+02  0.15468139594E+02  0.51100000000E-03 0. -1.
<mgrwt>
<rscale>  0 0.20009105E+02</rscale>
<asrwt>0</asrwt>
<pdfrwt beam="2">  1        3 0.40953039E-02 0.20009105E+02</pdfrwt>
<pdfrwt beam="1">  1       -3 0.57847217E-03 0.20009105E+02</pdfrwt>
<totfact> 0.17227420E+06</totfact>
</mgrwt>
</event>
<event>
 5    1  0.4133473E-007  0.2000011E+02  0.7818608E-02  0.1745326E+00
          3   -1    0    0  501    0  0.00000000000E+00  0.00000000000E+00  0.85460979748E+00  0.85965510872E+00  0.93000000000E-01 0.  1.
         -3   -1    0    0    0  501 -0.00000000000E+00 -0.00000000000E+00 -0.11666424651E+03  0.11666428358E+03  0.93000000000E-01 0. -1.
       1023    2    1    2    0    0  0.00000000000E+00  0.00000000000E+00 -0.11580963672E+03  0.11752393869E+03  0.20000105223E+02 0.  0.
        -11    1    3    3    0    0 -0.39291561509E+01 -0.91957860477E+01 -0.57802552550E+02  0.58661195271E+02  0.51100000000E-03 0. -1.
         11    1    3    3    0    0  0.39291561509E+01  0.91957860477E+01 -0.58007084167E+02  0.58862743420E+02  0.51100000000E-03 0.  1.
<mgrwt>
<rscale>  0 0.20000105E+02</rscale>
<asrwt>0</asrwt>
<pdfrwt beam="1">  1        3 0.13186948E-03 0.20000105E+02</pdfrwt>
<pdfrwt beam="2">  1       -3 0.17948724E-01 0.20000105E+02</pdfrwt>
<totfact> 0.13601255E+06</totfact>
</mgrwt>
</event>
<event>
 5    1  0.4133473E-007  0.2000307E+02  0.7818608E-02  0.1745267E+00
         -3   -1    0    0    0  501 -0.00000000000E+00  0.00000000000E+00  0.29032880053E+02  0.29033029004E+02  0.93000000000E-01 0. -1.
          3   -1    0    0  501    0  0.00000000000E+00 -0.00000000000E+00 -0.34446431812E+01  0.34458983801E+01  0.93000000000E-01 0.  1.
       1023    2    1    2    0    0  0.00000000000E+00  0.00000000000E+00  0.25588236872E+02  0.32478927385E+02  0.20003071210E+02 0.  0.
        -11    1    3    3    0    0  0.49119154252E+01 -0.87118349417E+01  0.12936902305E+02  0.16351954706E+02  0.51100000000E-03 0.  1.
         11    1    3    3    0    0 -0.49119154252E+01  0.87118349417E+01  0.12651334567E+02  0.16126972679E+02  0.51100000000E-03 0. -1.
<mgrwt>
<rscale>  0 0.20003071E+02</rscale>
<asrwt>0</asrwt>
<pdfrwt beam="2">  1        3 0.53005309E-03 0.20003071E+02</pdfrwt>
<pdfrwt beam="1">  1       -3 0.44667052E-02 0.20003071E+02</pdfrwt>
<totfact> 0.17119757E+06</totfact>
</mgrwt>
</event>
<event>
 5    1  0.4133473E-007  0.2000006E+02  0.7818608E-02  0.1745327E+00
          3   -1    0    0  501    0  0.00000000000E+00  0.00000000000E+00  0.41400505118E+02  0.41400609573E+02  0.93000000000E-01 0. -1.
         -3   -1    0    0    0  501 -0.00000000000E+00 -0.00000000000E+00 -0.24144409174E+01  0.24162313515E+01  0.93000000000E-01 0.  1.
       1023    2    1    2    0    0  0.00000000000E+00  0.00000000000E+00  0.38986064201E+02  0.43816840925E+02  0.20000058669E+02 0.  0.
        -11    1    3    3    0    0 -0.97009190879E+01 -0.24274993276E+01  0.19489713643E+02  0.21905467863E+02  0.51100000000E-03 0. -1.
         11    1    3    3    0    0  0.97009190879E+01  0.24274993276E+01  0.19496350557E+02  0.21911373062E+02  0.51100000000E-03 0.  1.
<mgrwt>
<rscale>  0 0.20000059E+02</rscale>
<asrwt>0</asrwt>
<pdfrwt beam="1">  1        3 0.63694538E-02 0.20000059E+02</pdfrwt>
<pdfrwt beam="2">  1       -3 0.37159823E-03 0.20000059E+02</pdfrwt>
<totfact> 0.16513845E+06</totfact>
</mgrwt>
</event>
<event>
 5    1  0.4133473E-007  0.2000015E+02  0.7818608E-02  0.1745325E+00
         -3   -1    0    0    0  501 -0.00000000000E+00  0.00000000000E+00  0.33731261341E+02  0.33731389545E+02  0.93000000000E-01 0. -1.
          3   -1    0    0  501    0  0.00000000000E+00 -0.00000000000E+00 -0.29637895014E+01  0.29652482541E+01  0.93000000000E-01 0.  1.
       1023    2    1    2    0    0  0.00000000000E+00  0.00000000000E+00  0.30767471839E+02  0.36696637799E+02  0.20000147559E+02 0.  0.
        -11    1    3    3    0    0  0.99984928099E+01  0.17706850930E+00  0.15413526037E+02  0.18373295755E+02  0.51100000000E-03 0.  1.
         11    1    3    3    0    0 -0.99984928099E+01 -0.17706850930E+00  0.15353945802E+02  0.18323342045E+02  0.51100000000E-03 0. -1.
<mgrwt>
<rscale>  0 0.20000148E+02</rscale>
<asrwt>0</asrwt>
<pdfrwt beam="2">  1        3 0.45608968E-03 0.20000148E+02</pdfrwt>
<pdfrwt beam="1">  1       -3 0.51895470E-02 0.20000148E+02</pdfrwt>
<totfact> 0.16890723E+06</totfact>
</mgrwt>
</event>
<event>
 5    1  0.4133473E-007  0.2000021E+02  0.7818608E-02  0.1745324E+00
          3   -1    0    0  501    0  0.00000000000E+00  0.00000000000E+00  0.53872966216E+01  0.53880992835E+01  0.93000000000E-01 0.  1.
         -3   -1    0    0    0  501 -0.00000000000E+00 -0.00000000000E+00 -0.18560281192E+02  0.18560514188E+02  0.93000000000E-01 0. -1.
       1023    2    1    2    0    0  0.00000000000E+00  0.00000000000E+00 -0.13172984571E+02  0.23948613472E+02  0.20000214117E+02 0.  0.
        -11    1    3    3    0    0 -0.83032202489E+01 -0.55729565702E+01 -0.65520057071E+01  0.11955337322E+02  0.51100000000E-03 0.  1.
         11    1    3    3    0    0  0.83032202489E+01  0.55729565702E+01 -0.66209788635E+01  0.11993276150E+02  0.51100000000E-03 0. -1.
<mgrwt>
<rscale>  0 0.20000214E+02</rscale>
<asrwt>0</asrwt>
<pdfrwt beam="1">  1        3 0.82889454E-03 0.20000214E+02</pdfrwt>
<pdfrwt beam="2">  1       -3 0.28555075E-02 0.20000214E+02</pdfrwt>
<totfact> 0.17632725E+06</totfact>
</mgrwt>
</event>
<event>
 5    1  0.4196727E-007  0.2000091E+02  0.7818608E-02  0.1745310E+00
          3   -1    0    0  501    0  0.00000000000E+00  0.00000000000E+00  0.55659571904E+02  0.55659649599E+02  0.93000000000E-01 0.  1.
         -3   -1    0    0    0  501 -0.00000000000E+00 -0.00000000000E+00 -0.17955179865E+01  0.17979248704E+01  0.93000000000E-01 0. -1.
       1023    2    1    2    0    0  0.00000000000E+00  0.00000000000E+00  0.53864053917E+02  0.57457574470E+02  0.20000913967E+02 0.  0.
        -11    1    3    3    0    0  0.45850349463E+01  0.88871279352E+01  0.27146065455E+02  0.28929439303E+02  0.51100000000E-03 0. -1.
         11    1    3    3    0    0 -0.45850349463E+01 -0.88871279352E+01  0.26717988462E+02  0.28528135167E+02  0.51100000000E-03 0.  1.
<mgrwt>
<rscale>  0 0.20000914E+02</rscale>
<asrwt>0</asrwt>
<pdfrwt beam="1">  1        3 0.85632023E-02 0.20000914E+02</pdfrwt>
<pdfrwt beam="2">  1       -3 0.27642465E-03 0.20000914E+02</pdfrwt>
<totfact> 0.15856494E+06</totfact>
</mgrwt>
</event>
<event>
 5    1  0.4170380E-007  0.2000116E+02  0.7818608E-02  0.1745305E+00
         -3   -1    0    0    0  501 -0.00000000000E+00  0.00000000000E+00  0.50845600063E+01  0.50854104513E+01  0.93000000000E-01 0.  1.
          3   -1    0    0  501    0  0.00000000000E+00 -0.00000000000E+00 -0.19667055695E+02  0.19667275580E+02  0.93000000000E-01 0. -1.
       1023    2    1    2    0    0  0.00000000000E+00  0.00000000000E+00 -0.14582495689E+02  0.24752686031E+02  0.20001157097E+02 0.  0.
        -11    1    3    3    0    0 -0.99270219644E+01 -0.12091994527E+01 -0.72165555549E+01  0.12332339711E+02  0.51100000000E-03 0. -1.
         11    1    3    3    0    0  0.99270219644E+01  0.12091994527E+01 -0.73659401342E+01  0.12420346320E+02  0.51100000000E-03 0.  1.
<mgrwt>
<rscale>  0 0.20001157E+02</rscale>
<asrwt>0</asrwt>
<pdfrwt beam="2">  1        3 0.30257832E-02 0.20001157E+02</pdfrwt>
<pdfrwt beam="1">  1       -3 0.78232235E-03 0.20001157E+02</pdfrwt>
<totfact> 0.17579745E+06</totfact>
</mgrwt>
</event>
<event>
 5    1  0.4316748E-007  0.2000117E+02  0.7818608E-02  0.1745305E+00
          3   -1    0    0  501    0  0.00000000000E+00  0.00000000000E+00  0.25499911246E+01  0.25516864493E+01  0.93000000000E-01 0. -1.
         -3   -1    0    0    0  501 -0.00000000000E+00 -0.00000000000E+00 -0.39205619724E+02  0.39205730027E+02  0.93000000000E-01 0.  1.
       1023    2    1    2    0    0  0.00000000000E+00  0.00000000000E+00 -0.36655628599E+02  0.41757416476E+02  0.20001168035E+02 0.  0.
        -11    1    3    3    0    0  0.22895954718E+01  0.97347298576E+01 -0.18467359692E+02  0.21001204420E+02  0.51100000000E-03 0. -1.
         11    1    3    3    0    0 -0.22895954718E+01 -0.97347298576E+01 -0.18188268907E+02  0.20756212056E+02  0.51100000000E-03 0.  1.
<mgrwt>
<rscale>  0 0.20001168E+02</rscale>
<asrwt>0</asrwt>
<pdfrwt beam="1">  1        3 0.39244525E-03 0.20001168E+02</pdfrwt>
<pdfrwt beam="2">  1       -3 0.60317723E-02 0.20001168E+02</pdfrwt>
<totfact> 0.16620134E+06</totfact>
</mgrwt>
</event>
<event>
 4    1  0.4133473E-007  0.2046316E+02  0.7818608E-02  0.1736271E+00
          3   -1    0    0  501    0  0.00000000000E+00  0.00000000000E+00  0.10608293531E+01  0.10648980779E+01  0.93000000000E-01 0.  1.
         -3   -1    0    0    0  501 -0.00000000000E+00 -0.00000000000E+00 -0.98489480284E+02  0.98489524192E+02  0.93000000000E-01 0. -1.
        -11    1    1    2    0    0  0.58516641871E+01 -0.83728348337E+01 -0.45882103810E+02  0.47005465503E+02  0.51100000000E-03 0. -1.
         11    1    1    2    0    0 -0.58516641871E+01  0.83728348337E+01 -0.51546547121E+02  0.52548956767E+02  0.51100000000E-03 0.  1.
<mgrwt>
<rscale>  0 0.20463161E+02</rscale>
<asrwt>0</asrwt>
<pdfrwt beam="1">  1        3 0.16352095E-03 0.20463161E+02</pdfrwt>
<pdfrwt beam="2">  1       -3 0.15152537E-01 0.20463161E+02</pdfrwt>
<totfact> 0.13513297E+06</totfact>
</mgrwt>
</event>
<event>
 4    1  0.4133473E-007  0.2012001E+02  0.7818608E-02  0.1742952E+00
          3   -1    0    0  501    0  0.00000000000E+00  0.00000000000E+00  0.11688796151E+02  0.11689166115E+02  0.93000000000E-01 0. -1.
         -3   -1    0    0    0  501 -0.00000000000E+00 -0.00000000000E+00 -0.86574193898E+01  0.86579188892E+01  0.93000000000E-01 0.  1.
        -11    1    1    2    0    0  0.61656039211E+01  0.79069676757E+01  0.68862810222E+00  0.10050324296E+02  0.51100000000E-03 0. -1.
         11    1    1    2    0    0 -0.61656039211E+01 -0.79069676757E+01  0.23427486592E+01  0.10296760708E+02  0.51100000000E-03 0.  1.
<mgrwt>
<rscale>  0 0.20120006E+02</rscale>
<asrwt>0</asrwt>
<pdfrwt beam="1">  1        3 0.17983432E-02 0.20120006E+02</pdfrwt>
<pdfrwt beam="2">  1       -3 0.13319776E-02 0.20120006E+02</pdfrwt>
<totfact> 0.17633869E+06</totfact>
</mgrwt>
</event>
<event>
 5    1  0.4133473E-007  0.2000661E+02  0.7818608E-02  0.1745197E+00
         -3   -1    0    0    0  501 -0.00000000000E+00  0.00000000000E+00  0.21786993037E+02  0.21787191526E+02  0.93000000000E-01 0. -1.
          3   -1    0    0  501    0  0.00000000000E+00 -0.00000000000E+00 -0.45922409245E+01  0.45931825251E+01  0.93000000000E-01 0.  1.
       1023    2    1    2    0    0  0.00000000000E+00  0.00000000000E+00  0.17194752112E+02  0.26380374051E+02  0.20006614778E+02 0.  0.
        -11    1    3    3    0    0 -0.99785383296E+01 -0.69544949933E+00  0.87374270024E+01  0.13281472361E+02  0.51100000000E-03 0.  1.
         11    1    3    3    0    0  0.99785383296E+01  0.69544949933E+00  0.84573251100E+01  0.13098901690E+02  0.51100000000E-03 0. -1.
<mgrwt>
<rscale>  0 0.20006615E+02</rscale>
<asrwt>0</asrwt>
<pdfrwt beam="2">  1        3 0.70658630E-03 0.20006615E+02</pdfrwt>
<pdfrwt beam="1">  1       -3 0.33519328E-02 0.20006615E+02</pdfrwt>
<totfact> 0.17470897E+06</totfact>
</mgrwt>
</event>
<event>
 5    1  0.4133473E-007  0.2000036E+02  0.7818608E-02  0.1745321E+00
         -3   -1    0    0    0  501 -0.00000000000E+00  0.00000000000E+00  0.41241370382E+01  0.41251854880E+01  0.93000000000E-01 0. -1.
          3   -1    0    0  501    0  0.00000000000E+00 -0.00000000000E+00 -0.24244147660E+02  0.24244326032E+02  0.93000000000E-01 0.  1.
       1023    2    1    2    0    0  0.00000000000E+00  0.00000000000E+00 -0.20120010622E+02  0.28369511520E+02  0.20000358909E+02 0.  0.
        -11    1    3    3    0    0  0.92021218066E+01  0.39143558291E+01 -0.10128936104E+02  0.14233642336E+02  0.51100000000E-03 0.  1.
         11    1    3    3    0    0 -0.92021218066E+01 -0.39143558291E+01 -0.99910745178E+01  0.14135869184E+02  0.51100000000E-03 0. -1.
<mgrwt>
<rscale>  0 0.20000359E+02</rscale>
<asrwt>0</asrwt>
<pdfrwt beam="2">  1        3 0.37299632E-02 0.20000359E+02</pdfrwt>
<pdfrwt beam="1">  1       -3 0.63457700E-03 0.20000359E+02</pdfrwt>
<totfact> 0.17361751E+06</totfact>
</mgrwt>
</event>
<event>
 5    1  0.4133473E-007  0.2000087E+02  0.7818608E-02  0.1745311E+00
         -3   -1    0    0    0  501 -0.00000000000E+00  0.00000000000E+00  0.11577684250E+01  0.11614976220E+01  0.93000000000E-01 0. -1.
          3   -1    0    0  501    0  0.00000000000E+00 -0.00000000000E+00 -0.86237965106E+02  0.86238015252E+02  0.93000000000E-01 0.  1.
       1023    2    1    2    0    0  0.00000000000E+00  0.00000000000E+00 -0.85080196681E+02  0.87399512874E+02  0.20000874565E+02 0.  0.
        -11    1    3    3    0    0 -0.58713979057E+01  0.80952566321E+01 -0.42332716700E+02  0.43497878073E+02  0.51100000000E-03 0.  1.
         11    1    3    3    0    0  0.58713979057E+01 -0.80952566321E+01 -0.42747479980E+02  0.43901634801E+02  0.51100000000E-03 0. -1.
<mgrwt>
<rscale>  0 0.20000875E+02</rscale>
<asrwt>0</asrwt>
<pdfrwt beam="2">  1        3 0.13267665E-01 0.20000875E+02</pdfrwt>
<pdfrwt beam="1">  1       -3 0.17840901E-03 0.20000875E+02</pdfrwt>
<totfact> 0.14628781E+06</totfact>
</mgrwt>
</event>
<event>
 5    1  0.4133473E-007  0.2000501E+02  0.7818608E-02  0.1745229E+00
         -3   -1    0    0    0  501 -0.00000000000E+00  0.00000000000E+00  0.36126930526E+01  0.36138898838E+01  0.93000000000E-01 0. -1.
          3   -1    0    0  501    0  0.00000000000E+00 -0.00000000000E+00 -0.27688178858E+02  0.27688335044E+02  0.93000000000E-01 0.  1.
       1023    2    1    2    0    0  0.00000000000E+00  0.00000000000E+00 -0.24075485806E+02  0.31302224928E+02  0.20005006089E+02 0.  0.
        -11    1    3    3    0    0  0.98061200945E+01  0.19706975289E+01 -0.12163182673E+02  0.15747591976E+02  0.51100000000E-03 0. -1.
         11    1    3    3    0    0 -0.98061200945E+01 -0.19706975289E+01 -0.11912303133E+02  0.15554632951E+02  0.51100000000E-03 0.  1.
<mgrwt>
<rscale>  0 0.20005006E+02</rscale>
<asrwt>0</asrwt>
<pdfrwt beam="2">  1        3 0.42598238E-02 0.20005006E+02</pdfrwt>
<pdfrwt beam="1">  1       -3 0.55590303E-03 0.20005006E+02</pdfrwt>
<totfact> 0.17181698E+06</totfact>
</mgrwt>
</event>
<event>
 5    1  0.4133473E-007  0.2000050E+02  0.7818608E-02  0.1745318E+00
         -3   -1    0    0    0  501 -0.00000000000E+00  0.00000000000E+00  0.97919839444E+00  0.98360484732E+00  0.93000000000E-01 0.  1.
          3   -1    0    0  501    0  0.00000000000E+00 -0.00000000000E+00 -0.10189578989E+03  0.10189583233E+03  0.93000000000E-01 0. -1.
       1023    2    1    2    0    0  0.00000000000E+00  0.00000000000E+00 -0.10091659149E+03  0.10287943717E+03  0.20000503866E+02 0.  0.
        -11    1    3    3    0    0 -0.41913434758E+01  0.90795004170E+01 -0.50361993015E+02  0.51345253224E+02  0.51100000000E-03 0. -1.
         11    1    3    3    0    0  0.41913434758E+01 -0.90795004170E+01 -0.50554598477E+02  0.51534183950E+02  0.51100000000E-03 0.  1.
<mgrwt>
<rscale>  0 0.20000504E+02</rscale>
<asrwt>0</asrwt>
<pdfrwt beam="2">  1        3 0.15676609E-01 0.20000504E+02</pdfrwt>
<pdfrwt beam="1">  1       -3 0.15098821E-03 0.20000504E+02</pdfrwt>
<totfact> 0.14078375E+06</totfact>
</mgrwt>
</event>
<event>
 5    1  0.4133473E-007  0.2001114E+02  0.7818608E-02  0.1745107E+00
         -3   -1    0    0    0  501 -0.00000000000E+00  0.00000000000E+00  0.30305701767E+02  0.30305844463E+02  0.93000000000E-01 0.  1.
          3   -1    0    0  501    0  0.00000000000E+00 -0.00000000000E+00 -0.33025820780E+01  0.33038912485E+01  0.93000000000E-01 0. -1.
       1023    2    1    2    0    0  0.00000000000E+00  0.00000000000E+00  0.27003119689E+02  0.33609735711E+02  0.20011143436E+02 0.  0.
        -11    1    3    3    0    0  0.40363978505E+01 -0.91529623702E+01  0.13846736746E+02  0.17082193844E+02  0.51100000000E-03 0.  1.
         11    1    3    3    0    0 -0.40363978505E+01  0.91529623702E+01  0.13156382943E+02  0.16527541867E+02  0.51100000000E-03 0. -1.
<mgrwt>
<rscale>  0 0.20011143E+02</rscale>
<asrwt>0</asrwt>
<pdfrwt beam="2">  1        3 0.50820125E-03 0.20011143E+02</pdfrwt>
<pdfrwt beam="1">  1       -3 0.46625272E-02 0.20011143E+02</pdfrwt>
<totfact> 0.17041105E+06</totfact>
</mgrwt>
</event>
<event>
 5    1  0.4133473E-007  0.2000005E+02  0.7818608E-02  0.1745327E+00
         -3   -1    0    0    0  501 -0.00000000000E+00  0.00000000000E+00  0.11676191859E+01  0.11713170209E+01  0.93000000000E-01 0. -1.
          3   -1    0    0  501    0  0.00000000000E+00 -0.00000000000E+00 -0.85505700036E+02  0.85505750612E+02  0.93000000000E-01 0.  1.
       1023    2    1    2    0    0  0.00000000000E+00  0.00000000000E+00 -0.84338080850E+02  0.86677067633E+02  0.20000054297E+02 0.  0.
        -11    1    3    3    0    0  0.74777528011E+00  0.99720247695E+01 -0.42126392701E+02  0.43297036945E+02  0.51100000000E-03 0. -1.
         11    1    3    3    0    0 -0.74777528011E+00 -0.99720247695E+01 -0.42211688149E+02  0.43380030688E+02  0.51100000000E-03 0.  1.
<mgrwt>
<rscale>  0 0.20000054E+02</rscale>
<asrwt>0</asrwt>
<pdfrwt beam="2">  1        3 0.13155007E-01 0.20000054E+02</pdfrwt>
<pdfrwt beam="1">  1       -3 0.17992213E-03 0.20000054E+02</pdfrwt>
<totfact> 0.14657011E+06</totfact>
</mgrwt>
</event>
<event>
 5    1  0.4133473E-007  0.2000011E+02  0.7818608E-02  0.1745326E+00
          3   -1    0    0  501    0  0.00000000000E+00  0.00000000000E+00  0.54824301803E+02  0.54824380682E+02  0.93000000000E-01 0. -1.
         -3   -1    0    0    0  501 -0.00000000000E+00 -0.00000000000E+00 -0.18227622263E+01  0.18251331824E+01  0.93000000000E-01 0.  1.
       1023    2    1    2    0    0  0.00000000000E+00  0.00000000000E+00  0.53001539576E+02  0.56649513864E+02  0.20000105590E+02 0.  0.
        -11    1    3    3    0    0  0.18330803665E+01 -0.98306069650E+01  0.26483147328E+02  0.28308269279E+02  0.51100000000E-03 0.  1.
         11    1    3    3    0    0 -0.18330803665E+01  0.98306069650E+01  0.26518392249E+02  0.28341244585E+02  0.51100000000E-03 0. -1.
<mgrwt>
<rscale>  0 0.20000106E+02</rscale>
<asrwt>0</asrwt>
<pdfrwt beam="1">  1        3 0.84346966E-02 0.20000106E+02</pdfrwt>
<pdfrwt beam="2">  1       -3 0.28061340E-03 0.20000106E+02</pdfrwt>
<totfact> 0.15894695E+06</totfact>
</mgrwt>
</event>
<event>
 5    1  0.4133473E-007  0.2000412E+02  0.7818608E-02  0.1745246E+00
         -3   -1    0    0    0  501 -0.00000000000E+00  0.00000000000E+00  0.21778694473E+01  0.21798541991E+01  0.93000000000E-01 0.  1.
          3   -1    0    0  501    0  0.00000000000E+00 -0.00000000000E+00 -0.45912413568E+02  0.45912507758E+02  0.93000000000E-01 0. -1.
       1023    2    1    2    0    0  0.00000000000E+00  0.00000000000E+00 -0.43734544121E+02  0.48092361957E+02  0.20004122805E+02 0.  0.
        -11    1    3    3    0    0 -0.47092037955E+01 -0.88240581648E+01 -0.21927574372E+02  0.24101019086E+02  0.51100000000E-03 0. -1.
         11    1    3    3    0    0  0.47092037955E+01  0.88240581648E+01 -0.21806969749E+02  0.23991342871E+02  0.51100000000E-03 0.  1.
<mgrwt>
<rscale>  0 0.20004123E+02</rscale>
<asrwt>0</asrwt>
<pdfrwt beam="2">  1        3 0.70636074E-02 0.20004123E+02</pdfrwt>
<pdfrwt beam="1">  1       -3 0.33521679E-03 0.20004123E+02</pdfrwt>
<totfact> 0.16292832E+06</totfact>
</mgrwt>
</event>
<event>
 5    1  0.4133473E-007  0.2000139E+02  0.7818608E-02  0.1745300E+00
          3   -1    0    0  501    0  0.00000000000E+00  0.00000000000E+00  0.29622121065E+02  0.29622267054E+02  0.93000000000E-01 0.  1.
         -3   -1    0    0    0  501 -0.00000000000E+00 -0.00000000000E+00 -0.33755295024E+01  0.33768103917E+01  0.93000000000E-01 0. -1.
       1023    2    1    2    0    0  0.00000000000E+00  0.00000000000E+00  0.26246591563E+02  0.32999077446E+02  0.20001388542E+02 0.  0.
        -11    1    3    3    0    0 -0.96743104601E+01  0.25338245564E+01  0.13183596818E+02  0.16547500569E+02  0.51100000000E-03 0. -1.
         11    1    3    3    0    0  0.96743104601E+01 -0.25338245564E+01  0.13062994745E+02  0.16451576877E+02  0.51100000000E-03 0.  1.
<mgrwt>
<rscale>  0 0.20001389E+02</rscale>
<asrwt>0</asrwt>
<pdfrwt beam="1">  1        3 0.45573590E-02 0.20001389E+02</pdfrwt>
<pdfrwt beam="2">  1       -3 0.51942200E-03 0.20001389E+02</pdfrwt>
<totfact> 0.17091498E+06</totfact>
</mgrwt>
</event>
<event>
 5    1  0.4133473E-007  0.2000079E+02  0.7818608E-02  0.1745312E+00
         -3   -1    0    0    0  501 -0.00000000000E+00  0.00000000000E+00  0.27718123007E+01  0.27733720325E+01  0.93000000000E-01 0.  1.
          3   -1    0    0  501    0  0.00000000000E+00 -0.00000000000E+00 -0.36068552739E+02  0.36068672635E+02  0.93000000000E-01 0. -1.
       1023    2    1    2    0    0  0.00000000000E+00  0.00000000000E+00 -0.33296740438E+02  0.38842044668E+02  0.20000787739E+02 0.  0.
        -11    1    3    3    0    0  0.89881236871E+01 -0.43840154934E+01 -0.16563318785E+02  0.19348113311E+02  0.51100000000E-03 0. -1.
         11    1    3    3    0    0 -0.89881236871E+01  0.43840154934E+01 -0.16733421652E+02  0.19493931356E+02  0.51100000000E-03 0.  1.
<mgrwt>
<rscale>  0 0.20000788E+02</rscale>
<asrwt>0</asrwt>
<pdfrwt beam="2">  1        3 0.55491370E-02 0.20000788E+02</pdfrwt>
<pdfrwt beam="1">  1       -3 0.42656189E-03 0.20000788E+02</pdfrwt>
<totfact> 0.16771818E+06</totfact>
</mgrwt>
</event>
<event>
 5    1  0.4133473E-007  0.2000083E+02  0.7818608E-02  0.1745312E+00
         -3   -1    0    0    0  501 -0.00000000000E+00  0.00000000000E+00  0.52425891696E+01  0.52434139834E+01  0.93000000000E-01 0. -1.
          3   -1    0    0  501    0  0.00000000000E+00 -0.00000000000E+00 -0.19073694214E+02  0.19073920938E+02  0.93000000000E-01 0.  1.
       1023    2    1    2    0    0  0.00000000000E+00  0.00000000000E+00 -0.13831105044E+02  0.24317334921E+02  0.20000832756E+02 0.  0.
        -11    1    3    3    0    0  0.54239879707E+01 -0.84016822892E+01 -0.68907343482E+01  0.12144551491E+02  0.51100000000E-03 0. -1.
         11    1    3    3    0    0 -0.54239879707E+01  0.84016822892E+01 -0.69403706957E+01  0.12172783431E+02  0.51100000000E-03 0.  1.
<mgrwt>
<rscale>  0 0.20000833E+02</rscale>
<asrwt>0</asrwt>
<pdfrwt beam="2">  1        3 0.29344954E-02 0.20000833E+02</pdfrwt>
<pdfrwt beam="1">  1       -3 0.80663308E-03 0.20000833E+02</pdfrwt>
<totfact> 0.17607453E+06</totfact>
</mgrwt>
</event>
<event>
 5    1  0.4267202E-007  0.2000100E+02  0.7818608E-02  0.1745308E+00
         -3   -1    0    0    0  501 -0.00000000000E+00  0.00000000000E+00  0.14622367687E+02  0.14622663430E+02  0.93000000000E-01 0.  1.
          3   -1    0    0  501    0  0.00000000000E+00 -0.00000000000E+00 -0.68388406405E+01  0.68394729553E+01  0.93000000000E-01 0. -1.
       1023    2    1    2    0    0  0.00000000000E+00  0.00000000000E+00  0.77835270465E+01  0.21462136385E+02  0.20001000098E+02 0.  0.
        -11    1    3    3    0    0 -0.47270249380E+01  0.88126808779E+01  0.38450894399E+01  0.10714141220E+02  0.51100000000E-03 0.  1.
         11    1    3    3    0    0  0.47270249380E+01 -0.88126808779E+01  0.39384376066E+01  0.10747995165E+02  0.51100000000E-03 0. -1.
<mgrwt>
<rscale>  0 0.20001000E+02</rscale>
<asrwt>0</asrwt>
<pdfrwt beam="2">  1        3 0.10522007E-02 0.20001000E+02</pdfrwt>
<pdfrwt beam="1">  1       -3 0.22496664E-02 0.20001000E+02</pdfrwt>
<totfact> 0.17788825E+06</totfact>
</mgrwt>
</event>
<event>
 5    1  0.4133473E-007  0.2000053E+02  0.7818608E-02  0.1745318E+00
          3   -1    0    0  501    0  0.00000000000E+00  0.00000000000E+00  0.15764920276E+01  0.15792327609E+01  0.93000000000E-01 0. -1.
         -3   -1    0    0    0  501 -0.00000000000E+00 -0.00000000000E+00 -0.63377459707E+02  0.63377527941E+02  0.93000000000E-01 0.  1.
       1023    2    1    2    0    0  0.00000000000E+00  0.00000000000E+00 -0.61800967680E+02  0.64956760702E+02  0.20000528862E+02 0.  0.
        -11    1    3    3    0    0  0.92229148287E+01 -0.38656302614E+01 -0.30881777494E+02  0.32460582816E+02  0.51100000000E-03 0.  1.
         11    1    3    3    0    0 -0.92229148287E+01  0.38656302614E+01 -0.30919190185E+02  0.32496177887E+02  0.51100000000E-03 0. -1.
<mgrwt>
<rscale>  0 0.20000529E+02</rscale>
<asrwt>0</asrwt>
<pdfrwt beam="1">  1        3 0.24275336E-03 0.20000529E+02</pdfrwt>
<pdfrwt beam="2">  1       -3 0.97505925E-02 0.20000529E+02</pdfrwt>
<totfact> 0.15528270E+06</totfact>
</mgrwt>
</event>
<event>
 5    1  0.4133473E-007  0.2000218E+02  0.7818608E-02  0.1745285E+00
          3   -1    0    0  501    0  0.00000000000E+00  0.00000000000E+00  0.35446936827E+02  0.35447058826E+02  0.93000000000E-01 0.  1.
         -3   -1    0    0    0  501 -0.00000000000E+00 -0.00000000000E+00 -0.28208412423E+01  0.28223738793E+01  0.93000000000E-01 0. -1.
       1023    2    1    2    0    0  0.00000000000E+00  0.00000000000E+00  0.32626095585E+02  0.38269432706E+02  0.20002184043E+02 0.  0.
        -11    1    3    3    0    0 -0.42580841520E+01 -0.90487898241E+01  0.16122071630E+02  0.18971902167E+02  0.51100000000E-03 0.  1.
         11    1    3    3    0    0  0.42580841520E+01  0.90487898241E+01  0.16504023955E+02  0.19297530538E+02  0.51100000000E-03 0. -1.
<mgrwt>
<rscale>  0 0.20002184E+02</rscale>
<asrwt>0</asrwt>
<pdfrwt beam="1">  1        3 0.54535020E-02 0.20002184E+02</pdfrwt>
<pdfrwt beam="2">  1       -3 0.43410287E-03 0.20002184E+02</pdfrwt>
<totfact> 0.16799926E+06</totfact>
</mgrwt>
</event>
<event>
 5    1  0.4133473E-007  0.2000047E+02  0.7818608E-02  0.1745319E+00
          3   -1    0    0  501    0  0.00000000000E+00  0.00000000000E+00  0.13754664996E+01  0.13786069387E+01  0.93000000000E-01 0.  1.
         -3   -1    0    0    0  501 -0.00000000000E+00 -0.00000000000E+00 -0.72619932172E+02  0.72619991722E+02  0.93000000000E-01 0. -1.
       1023    2    1    2    0    0  0.00000000000E+00  0.00000000000E+00 -0.71244465673E+02  0.73998598661E+02  0.20000467863E+02 0.  0.
        -11    1    3    3    0    0  0.96641749838E+01  0.25705518220E+01 -0.35717545391E+02  0.37091064473E+02  0.51100000000E-03 0.  1.
         11    1    3    3    0    0 -0.96641749838E+01 -0.25705518220E+01 -0.35526920282E+02  0.36907534187E+02  0.51100000000E-03 0. -1.
<mgrwt>
<rscale>  0 0.20000468E+02</rscale>
<asrwt>0</asrwt>
<pdfrwt beam="1">  1        3 0.21185644E-03 0.20000468E+02</pdfrwt>
<pdfrwt beam="2">  1       -3 0.11172540E-01 0.20000468E+02</pdfrwt>
<totfact> 0.15151373E+06</totfact>
</mgrwt>
</event>
<event>
 5    1  0.4133473E-007  0.2000295E+02  0.7818608E-02  0.1745269E+00
          3   -1    0    0  501    0  0.00000000000E+00  0.00000000000E+00  0.18263661293E+02  0.18263898073E+02  0.93000000000E-01 0. -1.
         -3   -1    0    0    0  501 -0.00000000000E+00 -0.00000000000E+00 -0.54763039140E+01  0.54770935320E+01  0.93000000000E-01 0.  1.
       1023    2    1    2    0    0  0.00000000000E+00  0.00000000000E+00  0.12787357379E+02  0.23740991605E+02  0.20002954123E+02 0.  0.
        -11    1    3    3    0    0  0.62714362713E+01  0.77896499820E+01  0.62258989621E+01  0.11780126396E+02  0.51100000000E-03 0.  1.
         11    1    3    3    0    0 -0.62714362713E+01 -0.77896499820E+01  0.65614584172E+01  0.11960865210E+02  0.51100000000E-03 0. -1.
<mgrwt>
<rscale>  0 0.20002954E+02</rscale>
<asrwt>0</asrwt>
<pdfrwt beam="1">  1        3 0.28098729E-02 0.20002954E+02</pdfrwt>
<pdfrwt beam="2">  1       -3 0.84258727E-03 0.20002954E+02</pdfrwt>
<totfact> 0.17639422E+06</totfact>
</mgrwt>
</event>
<event>
 5    1  0.4133473E-007  0.2000036E+02  0.7818608E-02  0.1745321E+00
          3   -1    0    0  501    0  0.00000000000E+00  0.00000000000E+00  0.23030152109E+01  0.23048922018E+01  0.93000000000E-01 0. -1.
         -3   -1    0    0    0  501 -0.00000000000E+00 -0.00000000000E+00 -0.43403281017E+02  0.43403380652E+02  0.93000000000E-01 0.  1.
       1023    2    1    2    0    0  0.00000000000E+00  0.00000000000E+00 -0.41100265806E+02  0.45708272854E+02  0.20000358946E+02 0.  0.
        -11    1    3    3    0    0  0.99224156303E+01 -0.12445351485E+01 -0.20595239570E+02  0.22894695737E+02  0.51100000000E-03 0.  1.
         11    1    3    3    0    0 -0.99224156303E+01  0.12445351485E+01 -0.20505026236E+02  0.22813577117E+02  0.51100000000E-03 0. -1.
<mgrwt>
<rscale>  0 0.20000359E+02</rscale>
<asrwt>0</asrwt>
<pdfrwt beam="1">  1        3 0.35446211E-03 0.20000359E+02</pdfrwt>
<pdfrwt beam="2">  1       -3 0.66775793E-02 0.20000359E+02</pdfrwt>
<totfact> 0.16420117E+06</totfact>
</mgrwt>
</event>
<event>
 5    1  0.4133473E-007  0.2000642E+02  0.7818608E-02  0.1745200E+00
          3   -1    0    0  501    0  0.00000000000E+00  0.00000000000E+00  0.58494667908E+02  0.58494741838E+02  0.93000000000E-01 0.  1.
         -3   -1    0    0    0  501 -0.00000000000E+00 -0.00000000000E+00 -0.17093156825E+01  0.17118437728E+01  0.93000000000E-01 0. -1.
       1023    2    1    2    0    0  0.00000000000E+00  0.00000000000E+00  0.56785352226E+02  0.60206585611E+02  0.20006417058E+02 0.  0.
        -11    1    3    3    0    0  0.90567975043E+01 -0.42405217099E+01  0.27676882570E+02  0.29428174161E+02  0.51100000000E-03 0.  1.
         11    1    3    3    0    0 -0.90567975043E+01  0.42405217099E+01  0.29108469656E+02  0.30778411450E+02  0.51100000000E-03 0. -1.
<mgrwt>
<rscale>  0 0.20006417E+02</rscale>
<asrwt>0</asrwt>
<pdfrwt beam="1">  1        3 0.89993786E-02 0.20006417E+02</pdfrwt>
<pdfrwt beam="2">  1       -3 0.26317184E-03 0.20006417E+02</pdfrwt>
<totfact> 0.15723579E+06</totfact>
</mgrwt>
</event>
<event>
 5    1  0.4133473E-007  0.2001058E+02  0.7818608E-02  0.1745118E+00
         -3   -1    0    0    0  501 -0.00000000000E+00  0.00000000000E+00  0.11973980564E+01  0.12010042071E+01  0.93000000000E-01 0. -1.
          3   -1    0    0  501    0  0.00000000000E+00 -0.00000000000E+00 -0.83473463069E+02  0.83473514876E+02  0.93000000000E-01 0.  1.
       1023    2    1    2    0    0  0.00000000000E+00  0.00000000000E+00 -0.82276065013E+02  0.84674519083E+02  0.20010579901E+02 0.  0.
        -11    1    3    3    0    0 -0.60311314375E+00  0.99870045816E+01 -0.40957473482E+02  0.42161814954E+02  0.51100000000E-03 0.  1.
         11    1    3    3    0    0  0.60311314375E+00 -0.99870045816E+01 -0.41318591531E+02  0.42512704129E+02  0.51100000000E-03 0. -1.
<mgrwt>
<rscale>  0 0.20010580E+02</rscale>
<asrwt>0</asrwt>
<pdfrwt beam="2">  1        3 0.12842348E-01 0.20010580E+02</pdfrwt>
<pdfrwt beam="1">  1       -3 0.18449653E-03 0.20010580E+02</pdfrwt>
<totfact> 0.14715637E+06</totfact>
</mgrwt>
</event>
<event>
 4    1  0.4133473E-007  0.2001751E+02  0.7818608E-02  0.1744980E+00
          3   -1    0    0  501    0  0.00000000000E+00  0.00000000000E+00  0.90586908296E+02  0.90586956035E+02  0.93000000000E-01 0.  1.
         -3   -1    0    0    0  501 -0.00000000000E+00 -0.00000000000E+00 -0.11038424339E+01  0.11077531850E+01  0.93000000000E-01 0. -1.
        -11    1    1    2    0    0  0.51577659494E+01  0.85769486842E+01  0.44317794376E+02  0.45433836476E+02  0.51100000000E-03 0.  1.
         11    1    1    2    0    0 -0.51577659494E+01 -0.85769486842E+01  0.45165271486E+02  0.46260872744E+02  0.51100000000E-03 0. -1.
<mgrwt>
<rscale>  0 0.20017508E+02</rscale>
<asrwt>0</asrwt>
<pdfrwt beam="1">  1        3 0.13936756E-01 0.20017508E+02</pdfrwt>
<pdfrwt beam="2">  1       -3 0.17012636E-03 0.20017508E+02</pdfrwt>
<totfact> 0.14445169E+06</totfact>
</mgrwt>
</event>
<event>
 5    1  0.4164126E-007  0.2000225E+02  0.7818608E-02  0.1745283E+00
          3   -1    0    0  501    0  0.00000000000E+00  0.00000000000E+00  0.25487620014E+01  0.25504581431E+01  0.93000000000E-01 0.  1.
         -3   -1    0    0    0  501 -0.00000000000E+00 -0.00000000000E+00 -0.39228763057E+02  0.39228873294E+02  0.93000000000E-01 0. -1.
       1023    2    1    2    0    0  0.00000000000E+00  0.00000000000E+00 -0.36680001055E+02  0.41779331438E+02  0.20002251322E+02 0.  0.
        -11    1    3    3    0    0 -0.76707390686E+01  0.64170843667E+01 -0.18219928446E+02  0.20784248904E+02  0.51100000000E-03 0.  1.
         11    1    3    3    0    0  0.76707390686E+01 -0.64170843667E+01 -0.18460072609E+02  0.20995082534E+02  0.51100000000E-03 0. -1.
<mgrwt>
<rscale>  0 0.20002251E+02</rscale>
<asrwt>0</asrwt>
<pdfrwt beam="1">  1        3 0.39225621E-03 0.20002251E+02</pdfrwt>
<pdfrwt beam="2">  1       -3 0.60353328E-02 0.20002251E+02</pdfrwt>
<totfact> 0.16617064E+06</totfact>
</mgrwt>
</event>
<event>
 5    1  0.4133473E-007  0.2000005E+02  0.7818608E-02  0.1745327E+00
          3   -1    0    0  501    0  0.00000000000E+00  0.00000000000E+00  0.14584284821E+02  0.14584581336E+02  0.93000000000E-01 0.  1.
         -3   -1    0    0    0  501 -0.00000000000E+00 -0.00000000000E+00 -0.68560473910E+01  0.68566781190E+01  0.93000000000E-01 0. -1.
       1023    2    1    2    0    0  0.00000000000E+00  0.00000000000E+00  0.77282374301E+01  0.21441259455E+02  0.20000048831E+02 0.  0.
        -11    1    3    3    0    0  0.64844234001E+01  0.76126401769E+01  0.38868795536E+01  0.10728833591E+02  0.51100000000E-03 0.  1.
         11    1    3    3    0    0 -0.64844234001E+01 -0.76126401769E+01  0.38413578766E+01  0.10712425864E+02  0.51100000000E-03 0. -1.
<mgrwt>
<rscale>  0 0.20000049E+02</rscale>
<asrwt>0</asrwt>
<pdfrwt beam="1">  1        3 0.22438075E-02 0.20000049E+02</pdfrwt>
<pdfrwt beam="2">  1       -3 0.10548478E-02 0.20000049E+02</pdfrwt>
<totfact> 0.17791324E+06</totfact>
</mgrwt>
</event>
<event>
 5    1  0.4133473E-007  0.2000139E+02  0.7818608E-02  0.1745300E+00
         -3   -1    0    0    0  501 -0.00000000000E+00  0.00000000000E+00  0.81771968272E+02  0.81772021157E+02  0.93000000000E-01 0.  1.
          3   -1    0    0  501    0  0.00000000000E+00 -0.00000000000E+00 -0.12212614749E+01  0.12247973669E+01  0.93000000000E-01 0. -1.
       1023    2    1    2    0    0  0.00000000000E+00  0.00000000000E+00  0.80550706797E+02  0.82996818524E+02  0.20001387941E+02 0.  0.
        -11    1    3    3    0    0 -0.91578939865E+01 -0.40166679116E+01  0.40752754870E+02  0.41961740588E+02  0.51100000000E-03 0.  1.
         11    1    3    3    0    0  0.91578939865E+01  0.40166679116E+01  0.39797951927E+02  0.41035077936E+02  0.51100000000E-03 0. -1.
<mgrwt>
<rscale>  0 0.20001388E+02</rscale>
<asrwt>0</asrwt>
<pdfrwt beam="2">  1        3 0.18816246E-03 0.20001388E+02</pdfrwt>
<pdfrwt beam="1">  1       -3 0.12580577E-01 0.20001388E+02</pdfrwt>
<totfact> 0.14796736E+06</totfact>
</mgrwt>
</event>
<event>
 5    1  0.4133473E-007  0.2000024E+02  0.7818608E-02  0.1745323E+00
          3   -1    0    0  501    0  0.00000000000E+00  0.00000000000E+00  0.48385748571E+01  0.48394685294E+01  0.93000000000E-01 0.  1.
         -3   -1    0    0    0  501 -0.00000000000E+00 -0.00000000000E+00 -0.20664835594E+02  0.20665044862E+02  0.93000000000E-01 0. -1.
       1023    2    1    2    0    0  0.00000000000E+00  0.00000000000E+00 -0.15826260737E+02  0.25504513391E+02  0.20000241858E+02 0.  0.
        -11    1    3    3    0    0 -0.55466409001E+01 -0.83208455500E+01 -0.79474047475E+01  0.12773524902E+02  0.51100000000E-03 0. -1.
         11    1    3    3    0    0  0.55466409001E+01  0.83208455500E+01 -0.78788559895E+01  0.12730988489E+02  0.51100000000E-03 0.  1.
<mgrwt>
<rscale>  0 0.20000242E+02</rscale>
<asrwt>0</asrwt>
<pdfrwt beam="1">  1        3 0.74448098E-03 0.20000242E+02</pdfrwt>
<pdfrwt beam="2">  1       -3 0.31792903E-02 0.20000242E+02</pdfrwt>
<totfact> 0.17536325E+06</totfact>
</mgrwt>
</event>
<event>
 5    1  0.4133473E-007  0.2000155E+02  0.7818608E-02  0.1745297E+00
         -3   -1    0    0    0  501 -0.00000000000E+00  0.00000000000E+00  0.11860260562E+03  0.11860264208E+03  0.93000000000E-01 0. -1.
          3   -1    0    0  501    0  0.00000000000E+00 -0.00000000000E+00 -0.84068160479E+00  0.84581000268E+00  0.93000000000E-01 0.  1.
       1023    2    1    2    0    0  0.00000000000E+00  0.00000000000E+00  0.11776192401E+03  0.11944845208E+03  0.20001548882E+02 0.  0.
        -11    1    3    3    0    0 -0.87951163529E+01  0.47600398793E+01  0.59231116810E+02  0.60069436905E+02  0.51100000000E-03 0.  1.
         11    1    3    3    0    0  0.87951163529E+01 -0.47600398793E+01  0.58530807205E+02  0.59379015179E+02  0.51100000000E-03 0. -1.
<mgrwt>
<rscale>  0 0.20001549E+02</rscale>
<asrwt>0</asrwt>
<pdfrwt beam="2">  1        3 0.12973290E-03 0.20001549E+02</pdfrwt>
<pdfrwt beam="1">  1       -3 0.18246956E-01 0.20001549E+02</pdfrwt>
<totfact> 0.13538637E+06</totfact>
</mgrwt>
</event>
<event>
 5    1  0.4133473E-007  0.2000117E+02  0.7818608E-02  0.1745305E+00
          3   -1    0    0  501    0  0.00000000000E+00  0.00000000000E+00  0.19715291626E+01  0.19737214188E+01  0.93000000000E-01 0. -1.
         -3   -1    0    0    0  501 -0.00000000000E+00 -0.00000000000E+00 -0.50697550084E+02  0.50697635384E+02  0.93000000000E-01 0.  1.
       1023    2    1    2    0    0  0.00000000000E+00  0.00000000000E+00 -0.48726020921E+02  0.52671356802E+02  0.20001167781E+02 0.  0.
        -11    1    3    3    0    0 -0.11973379404E+01  0.99283516483E+01 -0.24565171860E+02  0.26522696947E+02  0.51100000000E-03 0. -1.
         11    1    3    3    0    0  0.11973379404E+01 -0.99283516483E+01 -0.24160849061E+02  0.26148659855E+02  0.51100000000E-03 0.  1.
<mgrwt>
<rscale>  0 0.20001168E+02</rscale>
<asrwt>0</asrwt>
<pdfrwt beam="1">  1        3 0.30348741E-03 0.20001168E+02</pdfrwt>
<pdfrwt beam="2">  1       -3 0.77997973E-02 0.20001168E+02</pdfrwt>
<totfact> 0.16080280E+06</totfact>
</mgrwt>
</event>
<event>
 5    1  0.4149052E-007  0.2000102E+02  0.7818608E-02  0.1745308E+00
          3   -1    0    0  501    0  0.00000000000E+00  0.00000000000E+00  0.29357931058E+01  0.29372657626E+01  0.93000000000E-01 0.  1.
         -3   -1    0    0    0  501 -0.00000000000E+00 -0.00000000000E+00 -0.34055737356E+02  0.34055864339E+02  0.93000000000E-01 0. -1.
       1023    2    1    2    0    0  0.00000000000E+00  0.00000000000E+00 -0.31119944250E+02  0.36993130101E+02  0.20001018588E+02 0.  0.
        -11    1    3    3    0    0  0.57596499949E+01  0.81753286142E+01 -0.15606020788E+02  0.18535302833E+02  0.51100000000E-03 0. -1.
         11    1    3    3    0    0 -0.57596499949E+01 -0.81753286142E+01 -0.15513923462E+02  0.18457827268E+02  0.51100000000E-03 0.  1.
<mgrwt>
<rscale>  0 0.20001019E+02</rscale>
<asrwt>0</asrwt>
<pdfrwt beam="1">  1        3 0.45178355E-03 0.20001019E+02</pdfrwt>
<pdfrwt beam="2">  1       -3 0.52394670E-02 0.20001019E+02</pdfrwt>
<totfact> 0.16873036E+06</totfact>
</mgrwt>
</event>
<event>
 5    1  0.4133473E-007  0.2000023E+02  0.7818608E-02  0.1745323E+00
          3   -1    0    0  501    0  0.00000000000E+00  0.00000000000E+00  0.21147651223E+01  0.21168090426E+01  0.93000000000E-01 0. -1.
         -3   -1    0    0    0  501 -0.00000000000E+00 -0.00000000000E+00 -0.47262749558E+02  0.47262841057E+02  0.93000000000E-01 0.  1.
       1023    2    1    2    0    0  0.00000000000E+00  0.00000000000E+00 -0.45147984436E+02  0.49379650100E+02  0.20000233633E+02 0.  0.
        -11    1    3    3    0    0  0.94851029130E+01  0.31678158239E+01 -0.22549092097E+02  0.24667058784E+02  0.51100000000E-03 0. -1.
         11    1    3    3    0    0 -0.94851029130E+01 -0.31678158239E+01 -0.22598892338E+02  0.24712591316E+02  0.51100000000E-03 0.  1.
<mgrwt>
<rscale>  0 0.20000234E+02</rscale>
<asrwt>0</asrwt>
<pdfrwt beam="1">  1        3 0.32551278E-03 0.20000234E+02</pdfrwt>
<pdfrwt beam="2">  1       -3 0.72713557E-02 0.20000234E+02</pdfrwt>
<totfact> 0.16239363E+06</totfact>
</mgrwt>
</event>
<event>
 5    1  0.4133473E-007  0.2000104E+02  0.7818608E-02  0.1745307E+00
          3   -1    0    0  501    0  0.00000000000E+00  0.00000000000E+00  0.69970415270E+02  0.69970477075E+02  0.93000000000E-01 0. -1.
         -3   -1    0    0    0  501 -0.00000000000E+00 -0.00000000000E+00 -0.14277492403E+01  0.14307749275E+01  0.93000000000E-01 0.  1.
       1023    2    1    2    0    0  0.00000000000E+00  0.00000000000E+00  0.68542666030E+02  0.71401252002E+02  0.20001042998E+02 0.  0.
        -11    1    3    3    0    0 -0.36970276579E+01 -0.92920555636E+01  0.34310421269E+02  0.35738149337E+02  0.51100000000E-03 0.  1.
         11    1    3    3    0    0  0.36970276579E+01  0.92920555636E+01  0.34232244761E+02  0.35663102666E+02  0.51100000000E-03 0. -1.
<mgrwt>
<rscale>  0 0.20001043E+02</rscale>
<asrwt>0</asrwt>
<pdfrwt beam="1">  1        3 0.10764917E-01 0.20001043E+02</pdfrwt>
<pdfrwt beam="2">  1       -3 0.21989122E-03 0.20001043E+02</pdfrwt>
<totfact> 0.15253433E+06</totfact>
</mgrwt>
</event>
<event>
 5    1  0.4133473E-007  0.2000270E+02  0.7818608E-02  0.1745274E+00
          3   -1    0    0  501    0  0.00000000000E+00  0.00000000000E+00  0.72223837676E+01  0.72229825063E+01  0.93000000000E-01 0.  1.
         -3   -1    0    0    0  501 -0.00000000000E+00 -0.00000000000E+00 -0.13848250922E+02  0.13848563196E+02  0.93000000000E-01 0. -1.
       1023    2    1    2    0    0  0.00000000000E+00  0.00000000000E+00 -0.66258671542E+01  0.21071545702E+02  0.20002697887E+02 0.  0.
        -11    1    3    3    0    0 -0.22431352033E+01 -0.97462746043E+01 -0.32351202847E+01  0.10511304758E+02  0.51100000000E-03 0.  1.
         11    1    3    3    0    0  0.22431352033E+01  0.97462746043E+01 -0.33907468695E+01  0.10560240944E+02  0.51100000000E-03 0. -1.
<mgrwt>
<rscale>  0 0.20002698E+02</rscale>
<asrwt>0</asrwt>
<pdfrwt beam="1">  1        3 0.11112060E-02 0.20002698E+02</pdfrwt>
<pdfrwt beam="2">  1       -3 0.21305702E-02 0.20002698E+02</pdfrwt>
<totfact> 0.17810810E+06</totfact>
</mgrwt>
</event>
<event>
 4    1  0.4133473E-007  0.2064504E+02  0.7818608E-02  0.1732797E+00
          3   -1    0    0  501    0  0.00000000000E+00  0.00000000000E+00  0.86476605101E+02  0.86476655109E+02  0.93000000000E-01 0.  1.
         -3   -1    0    0    0  501 -0.00000000000E+00 -0.00000000000E+00 -0.12303707557E+01  0.12338805438E+01  0.93000000000E-01 0. -1.
        -11    1    1    2    0    0 -0.42523679289E+01  0.93909777697E+01  0.40369799711E+02  0.41665259215E+02  0.51100000000E-03 0. -1.
         11    1    1    2    0    0  0.42523679289E+01 -0.93909777697E+01  0.44876434634E+02  0.46045276438E+02  0.51100000000E-03 0.  1.
<mgrwt>
<rscale>  0 0.20645038E+02</rscale>
<asrwt>0</asrwt>
<pdfrwt beam="1">  1        3 0.13304367E-01 0.20645038E+02</pdfrwt>
<pdfrwt beam="2">  1       -3 0.18956165E-03 0.20645038E+02</pdfrwt>
<totfact> 0.13651201E+06</totfact>
</mgrwt>
</event>
<event>
 5    1  0.4133473E-007  0.2000368E+02  0.7818608E-02  0.1745255E+00
          3   -1    0    0  501    0  0.00000000000E+00  0.00000000000E+00  0.33091502032E+01  0.33104567762E+01  0.93000000000E-01 0. -1.
         -3   -1    0    0    0  501 -0.00000000000E+00 -0.00000000000E+00 -0.30223003191E+02  0.30223146277E+02  0.93000000000E-01 0.  1.
       1023    2    1    2    0    0  0.00000000000E+00  0.00000000000E+00 -0.26913852987E+02  0.33533603053E+02  0.20003675939E+02 0.  0.
        -11    1    3    3    0    0 -0.48945626762E+01 -0.87212722955E+01 -0.13690588133E+02  0.16954336848E+02  0.51100000000E-03 0. -1.
         11    1    3    3    0    0  0.48945626762E+01  0.87212722955E+01 -0.13223264854E+02  0.16579266205E+02  0.51100000000E-03 0.  1.
<mgrwt>
<rscale>  0 0.20003676E+02</rscale>
<asrwt>0</asrwt>
<pdfrwt beam="1">  1        3 0.50921156E-03 0.20003676E+02</pdfrwt>
<pdfrwt beam="2">  1       -3 0.46498041E-02 0.20003676E+02</pdfrwt>
<totfact> 0.17059065E+06</totfact>
</mgrwt>
</event>
<event>
 5    1  0.4133473E-007  0.2000073E+02  0.7818608E-02  0.1745314E+00
         -3   -1    0    0    0  501 -0.00000000000E+00  0.00000000000E+00  0.91543965138E+02  0.91544012378E+02  0.93000000000E-01 0.  1.
          3   -1    0    0  501    0  0.00000000000E+00 -0.00000000000E+00 -0.10904240796E+01  0.10943827820E+01  0.93000000000E-01 0. -1.
       1023    2    1    2    0    0  0.00000000000E+00  0.00000000000E+00  0.90453541059E+02  0.92638395160E+02  0.20000729180E+02 0.  0.
        -11    1    3    3    0    0  0.97734554107E+01 -0.21181601932E+01  0.45152315168E+02  0.46246498230E+02  0.51100000000E-03 0. -1.
         11    1    3    3    0    0 -0.97734554107E+01  0.21181601932E+01  0.45301225891E+02  0.46391896930E+02  0.51100000000E-03 0.  1.
<mgrwt>
<rscale>  0 0.20000729E+02</rscale>
<asrwt>0</asrwt>
<pdfrwt beam="2">  1        3 0.16806561E-03 0.20000729E+02</pdfrwt>
<pdfrwt beam="1">  1       -3 0.14084002E-01 0.20000729E+02</pdfrwt>
<totfact> 0.14439942E+06</totfact>
</mgrwt>
</event>
<event>
 5    1  0.4133473E-007  0.2000138E+02  0.7818608E-02  0.1745301E+00
         -3   -1    0    0    0  501 -0.00000000000E+00  0.00000000000E+00  0.50540764618E+02  0.50540850183E+02  0.93000000000E-01 0.  1.
          3   -1    0    0  501    0  0.00000000000E+00 -0.00000000000E+00 -0.19776945849E+01  0.19798800144E+01  0.93000000000E-01 0. -1.
       1023    2    1    2    0    0  0.00000000000E+00  0.00000000000E+00  0.48563070034E+02  0.52520730197E+02  0.20001383187E+02 0.  0.
        -11    1    3    3    0    0  0.65497330253E+01 -0.75568663555E+01  0.24038019462E+02  0.26035199475E+02  0.51100000000E-03 0.  1.
         11    1    3    3    0    0 -0.65497330253E+01  0.75568663555E+01  0.24525050572E+02  0.26485530722E+02  0.51100000000E-03 0. -1.
<mgrwt>
<rscale>  0 0.20001383E+02</rscale>
<asrwt>0</asrwt>
<pdfrwt beam="2">  1        3 0.30443539E-03 0.20001383E+02</pdfrwt>
<pdfrwt beam="1">  1       -3 0.77756770E-02 0.20001383E+02</pdfrwt>
<totfact> 0.16087019E+06</totfact>
</mgrwt>
</event>
<event>
 4    1  0.4133473E-007  0.2004015E+02  0.7818608E-02  0.1744531E+00
         -3   -1    0    0    0  501 -0.00000000000E+00  0.00000000000E+00  0.44260254186E+02  0.44260351892E+02  0.93000000000E-01 0. -1.
          3   -1    0    0  501    0  0.00000000000E+00 -0.00000000000E+00 -0.22673914407E+01  0.22692978970E+01  0.93000000000E-01 0.  1.
        -11    1    1    2    0    0 -0.75947588031E+01 -0.65058112065E+01  0.19535332523E+02  0.21946187773E+02  0.51100000000E-03 0.  1.
         11    1    1    2    0    0  0.75947588031E+01  0.65058112065E+01  0.22457530222E+02  0.24583462016E+02  0.51100000000E-03 0. -1.
<mgrwt>
<rscale>  0 0.20040154E+02</rscale>
<asrwt>0</asrwt>
<pdfrwt beam="2">  1        3 0.34898361E-03 0.20040154E+02</pdfrwt>
<pdfrwt beam="1">  1       -3 0.68094242E-02 0.20040154E+02</pdfrwt>
<totfact> 0.16309296E+06</totfact>
</mgrwt>
</event>
<event>
 5    1  0.4133473E-007  0.2000043E+02  0.7818608E-02  0.1745320E+00
          3   -1    0    0  501    0  0.00000000000E+00  0.00000000000E+00  0.98301555658E+00  0.98740497491E+00  0.93000000000E-01 0.  1.
         -3   -1    0    0    0  501 -0.00000000000E+00 -0.00000000000E+00 -0.10150110385E+03  0.10150114646E+03  0.93000000000E-01 0. -1.
       1023    2    1    2    0    0  0.00000000000E+00  0.00000000000E+00 -0.10051808830E+03  0.10248855143E+03  0.20000427499E+02 0.  0.
        -11    1    3    3    0    0 -0.71937104029E+01 -0.69465320205E+01 -0.50144655936E+02  0.51132086752E+02  0.51100000000E-03 0.  1.
         11    1    3    3    0    0  0.71937104029E+01  0.69465320205E+01 -0.50373432360E+02  0.51356464680E+02  0.51100000000E-03 0. -1.
<mgrwt>
<rscale>  0 0.20000427E+02</rscale>
<asrwt>0</asrwt>
<pdfrwt beam="1">  1        3 0.15157417E-03 0.20000427E+02</pdfrwt>
<pdfrwt beam="2">  1       -3 0.15615887E-01 0.20000427E+02</pdfrwt>
<totfact> 0.14094641E+06</totfact>
</mgrwt>
</event>
<event>
 5    1  0.4217608E-007  0.2000066E+02  0.7818608E-02  0.1745315E+00
         -3   -1    0    0    0  501 -0.00000000000E+00  0.00000000000E+00  0.31417095808E+02  0.31417233456E+02  0.93000000000E-01 0.  1.
          3   -1    0    0  501    0  0.00000000000E+00 -0.00000000000E+00 -0.31823652937E+01  0.31837238986E+01  0.93000000000E-01 0. -1.
       1023    2    1    2    0    0  0.00000000000E+00  0.00000000000E+00  0.28234730515E+02  0.34600957355E+02  0.20000656055E+02 0.  0.
        -11    1    3    3    0    0  0.99776252216E+01  0.67268497836E+00  0.14173430093E+02  0.17346228149E+02  0.51100000000E-03 0. -1.
         11    1    3    3    0    0 -0.99776252216E+01 -0.67268497836E+00  0.14061300421E+02  0.17254729205E+02  0.51100000000E-03 0.  1.
<mgrwt>
<rscale>  0 0.20000656E+02</rscale>
<asrwt>0</asrwt>
<pdfrwt beam="2">  1        3 0.48970976E-03 0.20000656E+02</pdfrwt>
<pdfrwt beam="1">  1       -3 0.48335144E-02 0.20000656E+02</pdfrwt>
<totfact> 0.17004972E+06</totfact>
</mgrwt>
</event>
<event>
 5    1  0.4133473E-007  0.2001022E+02  0.7818608E-02  0.1745125E+00
          3   -1    0    0  501    0  0.00000000000E+00  0.00000000000E+00  0.11268293360E+02  0.11268677130E+02  0.93000000000E-01 0.  1.
         -3   -1    0    0    0  501 -0.00000000000E+00 -0.00000000000E+00 -0.88827536491E+01  0.88832404781E+01  0.93000000000E-01 0. -1.
       1023    2    1    2    0    0  0.00000000000E+00  0.00000000000E+00  0.23855397111E+01  0.20151917608E+02  0.20010221977E+02 0.  0.
        -11    1    3    3    0    0 -0.98879313440E+01 -0.15246581605E+01  0.12738186636E+01  0.10085553184E+02  0.51100000000E-03 0. -1.
         11    1    3    3    0    0  0.98879313440E+01  0.15246581605E+01  0.11117210475E+01  0.10066364424E+02  0.51100000000E-03 0.  1.
<mgrwt>
<rscale>  0 0.20010222E+02</rscale>
<asrwt>0</asrwt>
<pdfrwt beam="1">  1        3 0.17336506E-02 0.20010222E+02</pdfrwt>
<pdfrwt beam="2">  1       -3 0.13666445E-02 0.20010222E+02</pdfrwt>
<totfact> 0.17855938E+06</totfact>
</mgrwt>
</event>
<event>
 5    1  0.4133473E-007  0.2000183E+02  0.7818608E-02  0.1745292E+00
          3   -1    0    0  501    0  0.00000000000E+00  0.00000000000E+00  0.14091756791E+01  0.14122411602E+01  0.93000000000E-01 0.  1.
         -3   -1    0    0    0  501 -0.00000000000E+00 -0.00000000000E+00 -0.70896272276E+02  0.70896333274E+02  0.93000000000E-01 0. -1.
       1023    2    1    2    0    0  0.00000000000E+00  0.00000000000E+00 -0.69487096597E+02  0.72308574434E+02  0.20001833495E+02 0.  0.
        -11    1    3    3    0    0  0.28679260021E+01 -0.95808329266E+01 -0.34856511189E+02  0.36262842299E+02  0.51100000000E-03 0. -1.
         11    1    3    3    0    0 -0.28679260021E+01  0.95808329266E+01 -0.34630585409E+02  0.36045732135E+02  0.51100000000E-03 0.  1.
<mgrwt>
<rscale>  0 0.20001833E+02</rscale>
<asrwt>0</asrwt>
<pdfrwt beam="1">  1        3 0.21703681E-03 0.20001833E+02</pdfrwt>
<pdfrwt beam="2">  1       -3 0.10907357E-01 0.20001833E+02</pdfrwt>
<totfact> 0.15217823E+06</totfact>
</mgrwt>
</event>
<event>
 5    1  0.4133473E-007  0.2000059E+02  0.7818608E-02  0.1745316E+00
          3   -1    0    0  501    0  0.00000000000E+00  0.00000000000E+00  0.12119487677E+03  0.12119491246E+03  0.93000000000E-01 0.  1.
         -3   -1    0    0    0  501 -0.00000000000E+00 -0.00000000000E+00 -0.82250967065E+00  0.82775066193E+00  0.93000000000E-01 0. -1.
       1023    2    1    2    0    0  0.00000000000E+00  0.00000000000E+00  0.12037236710E+03  0.12202266312E+03  0.20000588801E+02 0.  0.
        -11    1    3    3    0    0 -0.71373397357E+01 -0.70045823369E+01  0.60126526349E+02  0.60952481191E+02  0.51100000000E-03 0.  1.
         11    1    3    3    0    0  0.71373397357E+01  0.70045823369E+01  0.60245840755E+02  0.61070181928E+02  0.51100000000E-03 0. -1.
<mgrwt>
<rscale>  0 0.20000589E+02</rscale>
<asrwt>0</asrwt>
<pdfrwt beam="1">  1        3 0.18645763E-01 0.20000589E+02</pdfrwt>
<pdfrwt beam="2">  1       -3 0.12694591E-03 0.20000589E+02</pdfrwt>
<totfact> 0.13457402E+06</totfact>
</mgrwt>
</event>
<event>
 5    1  0.4133473E-007  0.2000202E+02  0.7818608E-02  0.1745288E+00
          3   -1    0    0  501    0  0.00000000000E+00  0.00000000000E+00  0.72120825637E+02  0.72120885599E+02  0.93000000000E-01 0. -1.
         -3   -1    0    0    0  501 -0.00000000000E+00 -0.00000000000E+00 -0.13852226839E+01  0.13883410546E+01  0.93000000000E-01 0.  1.
       1023    2    1    2    0    0  0.00000000000E+00  0.00000000000E+00  0.70735602953E+02  0.73509226653E+02  0.20002021849E+02 0.  0.
        -11    1    3    3    0    0 -0.98963340471E+01  0.14376641251E+01  0.34904192975E+02  0.36308497535E+02  0.51100000000E-03 0.  1.
         11    1    3    3    0    0  0.98963340471E+01 -0.14376641251E+01  0.35831409978E+02  0.37200729119E+02  0.51100000000E-03 0. -1.
<mgrwt>
<rscale>  0 0.20002022E+02</rscale>
<asrwt>0</asrwt>
<pdfrwt beam="1">  1        3 0.11095760E-01 0.20002022E+02</pdfrwt>
<pdfrwt beam="2">  1       -3 0.21335559E-03 0.20002022E+02</pdfrwt>
<totfact> 0.15165750E+06</totfact>
</mgrwt>
</event>
<event>
 5    1  0.4133473E-007  0.2000069E+02  0.7818608E-02  0.1745314E+00
         -3   -1    0    0    0  501 -0.00000000000E+00  0.00000000000E+00  0.38365002626E+02  0.38365115346E+02  0.93000000000E-01 0. -1.
          3   -1    0    0  501    0  0.00000000000E+00 -0.00000000000E+00 -0.26057767693E+01  0.26074358230E+01  0.93000000000E-01 0.  1.
       1023    2    1    2    0    0  0.00000000000E+00  0.00000000000E+00  0.35759225857E+02  0.40972551169E+02  0.20000692873E+02 0.  0.
        -11    1    3    3    0    0  0.42059158932E+00 -0.99914877650E+01  0.17850386195E+02  0.20460767645E+02  0.51100000000E-03 0. -1.
         11    1    3    3    0    0 -0.42059158932E+00  0.99914877650E+01  0.17908839662E+02  0.20511783524E+02  0.51100000000E-03 0.  1.
<mgrwt>
<rscale>  0 0.20000693E+02</rscale>
<asrwt>0</asrwt>
<pdfrwt beam="2">  1        3 0.40102505E-03 0.20000693E+02</pdfrwt>
<pdfrwt beam="1">  1       -3 0.59024440E-02 0.20000693E+02</pdfrwt>
<totfact> 0.16661803E+06</totfact>
</mgrwt>
</event>
<event>
 5    1  0.4133473E-007  0.2000281E+02  0.7818608E-02  0.1745272E+00
          3   -1    0    0  501    0  0.00000000000E+00  0.00000000000E+00  0.96923976159E+02  0.96924020776E+02  0.93000000000E-01 0. -1.
         -3   -1    0    0    0  501 -0.00000000000E+00 -0.00000000000E+00 -0.10298867432E+01  0.10340772233E+01  0.93000000000E-01 0.  1.
       1023    2    1    2    0    0  0.00000000000E+00  0.00000000000E+00  0.95894089416E+02  0.97958098000E+02  0.20002814273E+02 0.  0.
        -11    1    3    3    0    0 -0.44261247839E+01  0.89686990380E+01  0.47941231747E+02  0.48973358520E+02  0.51100000000E-03 0. -1.
         11    1    3    3    0    0  0.44261247839E+01 -0.89686990380E+01  0.47952857668E+02  0.48984739479E+02  0.51100000000E-03 0.  1.
<mgrwt>
<rscale>  0 0.20002814E+02</rscale>
<asrwt>0</asrwt>
<pdfrwt beam="1">  1        3 0.14911701E-01 0.20002814E+02</pdfrwt>
<pdfrwt beam="2">  1       -3 0.15876995E-03 0.20002814E+02</pdfrwt>
<totfact> 0.14244809E+06</totfact>
</mgrwt>
</event>
<event>
 5    1  0.4133473E-007  0.2000255E+02  0.7818608E-02  0.1745277E+00
          3   -1    0    0  501    0  0.00000000000E+00  0.00000000000E+00  0.15596641449E+02  0.15596918718E+02  0.93000000000E-01 0. -1.
         -3   -1    0    0    0  501 -0.00000000000E+00 -0.00000000000E+00 -0.64126004774E+01  0.64132748174E+01  0.93000000000E-01 0.  1.
       1023    2    1    2    0    0  0.00000000000E+00  0.00000000000E+00  0.91840409715E+01  0.22010193535E+02  0.20002550109E+02 0.  0.
        -11    1    3    3    0    0  0.43066562515E+00  0.99919365585E+01  0.45533759098E+01  0.10988971813E+02  0.51100000000E-03 0.  1.
         11    1    3    3    0    0 -0.43066562515E+00 -0.99919365585E+01  0.46306650617E+01  0.11021221722E+02  0.51100000000E-03 0. -1.
<mgrwt>
<rscale>  0 0.20002550E+02</rscale>
<asrwt>0</asrwt>
<pdfrwt beam="1">  1        3 0.23995565E-02 0.20002550E+02</pdfrwt>
<pdfrwt beam="2">  1       -3 0.98662713E-03 0.20002550E+02</pdfrwt>
<totfact> 0.17749918E+06</totfact>
</mgrwt>
</event>
<event>
 5    1  0.4133473E-007  0.2000245E+02  0.7818608E-02  0.1745279E+00
         -3   -1    0    0    0  501 -0.00000000000E+00  0.00000000000E+00  0.32684931919E+02  0.32685064228E+02  0.93000000000E-01 0. -1.
          3   -1    0    0  501    0  0.00000000000E+00 -0.00000000000E+00 -0.30594197216E+01  0.30608328985E+01  0.93000000000E-01 0.  1.
       1023    2    1    2    0    0  0.00000000000E+00  0.00000000000E+00  0.29625512198E+02  0.35745897126E+02  0.20002454559E+02 0.  0.
        -11    1    3    3    0    0 -0.56238864502E+01  0.82697571761E+01  0.14968183167E+02  0.18001763529E+02  0.51100000000E-03 0.  1.
         11    1    3    3    0    0  0.56238864502E+01 -0.82697571761E+01  0.14657329030E+02  0.17744133597E+02  0.51100000000E-03 0. -1.
<mgrwt>
<rscale>  0 0.20002455E+02</rscale>
<asrwt>0</asrwt>
<pdfrwt beam="2">  1        3 0.47079886E-03 0.20002455E+02</pdfrwt>
<pdfrwt beam="1">  1       -3 0.50285697E-02 0.20002455E+02</pdfrwt>
<totfact> 0.16938466E+06</totfact>
</mgrwt>
</event>
<event>
 5    1  0.4133473E-007  0.2000253E+02  0.7818608E-02  0.1745278E+00
         -3   -1    0    0    0  501 -0.00000000000E+00  0.00000000000E+00  0.56090563914E+02  0.56090641012E+02  0.93000000000E-01 0.  1.
          3   -1    0    0  501    0  0.00000000000E+00 -0.00000000000E+00 -0.17819904703E+01  0.17844156007E+01  0.93000000000E-01 0. -1.
       1023    2    1    2    0    0  0.00000000000E+00  0.00000000000E+00  0.54308573444E+02  0.57875056613E+02  0.20002525553E+02 0.  0.
        -11    1    3    3    0    0  0.91821358442E+01 -0.39613801313E+01  0.26733941600E+02  0.28543086464E+02  0.51100000000E-03 0.  1.
         11    1    3    3    0    0 -0.91821358442E+01  0.39613801313E+01  0.27574631844E+02  0.29331970149E+02  0.51100000000E-03 0. -1.
<mgrwt>
<rscale>  0 0.20002526E+02</rscale>
<asrwt>0</asrwt>
<pdfrwt beam="2">  1        3 0.27434485E-03 0.20002526E+02</pdfrwt>
<pdfrwt beam="1">  1       -3 0.86295102E-02 0.20002526E+02</pdfrwt>
<totfact> 0.15837552E+06</totfact>
</mgrwt>
</event>
<event>
 5    1  0.4133473E-007  0.2000030E+02  0.7818608E-02  0.1745322E+00
          3   -1    0    0  501    0  0.00000000000E+00  0.00000000000E+00  0.68038800763E+01  0.68045156398E+01  0.93000000000E-01 0. -1.
         -3   -1    0    0    0  501 -0.00000000000E+00 -0.00000000000E+00 -0.14696465874E+02  0.14696760126E+02  0.93000000000E-01 0.  1.
       1023    2    1    2    0    0  0.00000000000E+00  0.00000000000E+00 -0.78925857981E+01  0.21501275766E+02  0.20000298722E+02 0.  0.
        -11    1    3    3    0    0  0.38580154955E+01  0.92259451267E+01 -0.39734883939E+01  0.10760620675E+02  0.51100000000E-03 0. -1.
         11    1    3    3    0    0 -0.38580154955E+01 -0.92259451267E+01 -0.39190974042E+01  0.10740655090E+02  0.51100000000E-03 0.  1.
<mgrwt>
<rscale>  0 0.20000299E+02</rscale>
<asrwt>0</asrwt>
<pdfrwt beam="1">  1        3 0.10468223E-02 0.20000299E+02</pdfrwt>
<pdfrwt beam="2">  1       -3 0.22610663E-02 0.20000299E+02</pdfrwt>
<totfact> 0.17787648E+06</totfact>
</mgrwt>
</event>
<event>
 5    1  0.4133473E-007  0.2000006E+02  0.7818608E-02  0.1745327E+00
          3   -1    0    0  501    0  0.00000000000E+00  0.00000000000E+00  0.13097524399E+01  0.13130500576E+01  0.93000000000E-01 0. -1.
         -3   -1    0    0    0  501 -0.00000000000E+00 -0.00000000000E+00 -0.76251460267E+02  0.76251516981E+02  0.93000000000E-01 0.  1.
       1023    2    1    2    0    0  0.00000000000E+00  0.00000000000E+00 -0.74941707827E+02  0.77564567038E+02  0.20000062195E+02 0.  0.
        -11    1    3    3    0    0 -0.97084071067E+01  0.23973403877E+01 -0.37414359110E+02  0.38727699097E+02  0.51100000000E-03 0. -1.
         11    1    3    3    0    0  0.97084071067E+01 -0.23973403877E+01 -0.37527348717E+02  0.38836867941E+02  0.51100000000E-03 0.  1.
<mgrwt>
<rscale>  0 0.20000062E+02</rscale>
<asrwt>0</asrwt>
<pdfrwt beam="1">  1        3 0.20175846E-03 0.20000062E+02</pdfrwt>
<pdfrwt beam="2">  1       -3 0.11731248E-01 0.20000062E+02</pdfrwt>
<totfact> 0.15009620E+06</totfact>
</mgrwt>
</event>
<event>
 5    1  0.4133473E-007  0.2000103E+02  0.7818608E-02  0.1745308E+00
          3   -1    0    0  501    0  0.00000000000E+00  0.00000000000E+00  0.10108212741E+03  0.10108217020E+03  0.93000000000E-01 0. -1.
         -3   -1    0    0    0  501 -0.00000000000E+00 -0.00000000000E+00 -0.98716785226E+00  0.99153888907E+00  0.93000000000E-01 0.  1.
       1023    2    1    2    0    0  0.00000000000E+00  0.00000000000E+00  0.10009495956E+03  0.10207370909E+03  0.20001028892E+02 0.  0.
        -11    1    3    3    0    0 -0.99182205844E+01  0.12802759062E+01  0.50093964074E+02  0.51082437715E+02  0.51100000000E-03 0. -1.
         11    1    3    3    0    0  0.99182205844E+01 -0.12802759062E+01  0.50000995487E+02  0.50991271370E+02  0.51100000000E-03 0.  1.
<mgrwt>
<rscale>  0 0.20001029E+02</rscale>
<asrwt>0</asrwt>
<pdfrwt beam="1">  1        3 0.15551437E-01 0.20001029E+02</pdfrwt>
<pdfrwt beam="2">  1       -3 0.15221149E-03 0.20001029E+02</pdfrwt>
<totfact> 0.14105092E+06</totfact>
</mgrwt>
</event>
<event>
 5    1  0.4181347E-007  0.2000076E+02  0.7818608E-02  0.1745313E+00
         -3   -1    0    0    0  501 -0.00000000000E+00  0.00000000000E+00  0.73049927837E+01  0.73055847521E+01  0.93000000000E-01 0.  1.
          3   -1    0    0  501    0  0.00000000000E+00 -0.00000000000E+00 -0.13688996639E+02  0.13689312546E+02  0.93000000000E-01 0. -1.
       1023    2    1    2    0    0  0.00000000000E+00  0.00000000000E+00 -0.63840038555E+01  0.20994897298E+02  0.20000755169E+02 0.  0.
        -11    1    3    3    0    0 -0.96682799850E+01  0.25552773595E+01 -0.31398185733E+01  0.10481581044E+02  0.51100000000E-03 0. -1.
         11    1    3    3    0    0  0.96682799850E+01 -0.25552773595E+01 -0.32441852823E+01  0.10513316254E+02  0.51100000000E-03 0.  1.
<mgrwt>
<rscale>  0 0.20000755E+02</rscale>
<asrwt>0</asrwt>
<pdfrwt beam="2">  1        3 0.21060693E-02 0.20000755E+02</pdfrwt>
<pdfrwt beam="1">  1       -3 0.11239149E-02 0.20000755E+02</pdfrwt>
<totfact> 0.17818954E+06</totfact>
</mgrwt>
</event>
<event>
 5    1  0.4133473E-007  0.2000071E+02  0.7818608E-02  0.1745314E+00
         -3   -1    0    0    0  501 -0.00000000000E+00  0.00000000000E+00  0.17142779596E+02  0.17143031858E+02  0.93000000000E-01 0. -1.
          3   -1    0    0  501    0  0.00000000000E+00 -0.00000000000E+00 -0.58331053791E+01  0.58338467038E+01  0.93000000000E-01 0.  1.
       1023    2    1    2    0    0  0.00000000000E+00  0.00000000000E+00  0.11309674217E+02  0.22976878562E+02  0.20000705426E+02 0.  0.
        -11    1    3    3    0    0 -0.99705498860E+01  0.77143546253E+00  0.56648799682E+01  0.11493382575E+02  0.51100000000E-03 0. -1.
         11    1    3    3    0    0  0.99705498860E+01 -0.77143546253E+00  0.56447942489E+01  0.11483495987E+02  0.51100000000E-03 0.  1.
<mgrwt>
<rscale>  0 0.20000705E+02</rscale>
<asrwt>0</asrwt>
<pdfrwt beam="2">  1        3 0.89747728E-03 0.20000705E+02</pdfrwt>
<pdfrwt beam="1">  1       -3 0.26374271E-02 0.20000705E+02</pdfrwt>
<totfact> 0.17692784E+06</totfact>
</mgrwt>
</event>
<event>
 5    1  0.4231527E-007  0.2000148E+02  0.7818608E-02  0.1745299E+00
         -3   -1    0    0    0  501 -0.00000000000E+00  0.00000000000E+00  0.19288892831E+02  0.19289117026E+02  0.93000000000E-01 0. -1.
          3   -1    0    0  501    0  0.00000000000E+00 -0.00000000000E+00 -0.51844271355E+01  0.51852612011E+01  0.93000000000E-01 0.  1.
       1023    2    1    2    0    0  0.00000000000E+00  0.00000000000E+00  0.14104465695E+02  0.24474378227E+02  0.20001480871E+02 0.  0.
        -11    1    3    3    0    0  0.79991680012E+01  0.60017745945E+01  0.69511667267E+01  0.12178945197E+02  0.51100000000E-03 0. -1.
         11    1    3    3    0    0 -0.79991680012E+01 -0.60017745945E+01  0.71532989687E+01  0.12295433030E+02  0.51100000000E-03 0.  1.
<mgrwt>
<rscale>  0 0.20001481E+02</rscale>
<asrwt>0</asrwt>
<pdfrwt beam="2">  1        3 0.79768560E-03 0.20001481E+02</pdfrwt>
<pdfrwt beam="1">  1       -3 0.29676033E-02 0.20001481E+02</pdfrwt>
<totfact> 0.17597593E+06</totfact>
</mgrwt>
</event>
<event>
 5    1  0.4133473E-007  0.2000029E+02  0.7818608E-02  0.1745322E+00
         -3   -1    0    0    0  501 -0.00000000000E+00  0.00000000000E+00  0.97569952698E+01  0.97574384802E+01  0.93000000000E-01 0.  1.
          3   -1    0    0  501    0  0.00000000000E+00 -0.00000000000E+00 -0.10248463518E+02  0.10248885475E+02  0.93000000000E-01 0. -1.
       1023    2    1    2    0    0  0.00000000000E+00  0.00000000000E+00 -0.49146824846E+00  0.20006323955E+02  0.20000286427E+02 0.  0.
        -11    1    3    3    0    0 -0.41523890542E+00 -0.99914745907E+01 -0.21612475013E+00  0.10002434604E+02  0.51100000000E-03 0. -1.
         11    1    3    3    0    0  0.41523890542E+00  0.99914745907E+01 -0.27534349832E+00  0.10003889351E+02  0.51100000000E-03 0.  1.
<mgrwt>
<rscale>  0 0.20000286E+02</rscale>
<asrwt>0</asrwt>
<pdfrwt beam="2">  1        3 0.15767532E-02 0.20000286E+02</pdfrwt>
<pdfrwt beam="1">  1       -3 0.15011427E-02 0.20000286E+02</pdfrwt>
<totfact> 0.17884644E+06</totfact>
</mgrwt>
</event>
<event>
 5    1  0.4133473E-007  0.2000068E+02  0.7818608E-02  0.1745315E+00
          3   -1    0    0  501    0  0.00000000000E+00  0.00000000000E+00  0.17454347032E+02  0.17454594791E+02  0.93000000000E-01 0.  1.
         -3   -1    0    0    0  501 -0.00000000000E+00 -0.00000000000E+00 -0.57289567623E+01  0.57297115620E+01  0.93000000000E-01 0. -1.
       1023    2    1    2    0    0  0.00000000000E+00  0.00000000000E+00  0.11725390270E+02  0.23184306353E+02  0.20000682091E+02 0.  0.
        -11    1    3    3    0    0  0.75624796739E+01  0.65433393037E+01  0.58385826433E+01  0.11579958359E+02  0.51100000000E-03 0. -1.
         11    1    3    3    0    0 -0.75624796739E+01 -0.65433393037E+01  0.58868076265E+01  0.11604347994E+02  0.51100000000E-03 0.  1.
<mgrwt>
<rscale>  0 0.20000682E+02</rscale>
<asrwt>0</asrwt>
<pdfrwt beam="1">  1        3 0.26853612E-02 0.20000682E+02</pdfrwt>
<pdfrwt beam="2">  1       -3 0.88145510E-03 0.20000682E+02</pdfrwt>
<totfact> 0.17678756E+06</totfact>
</mgrwt>
</event>
<event>
 5    1  0.4133473E-007  0.2000036E+02  0.7818608E-02  0.1745321E+00
          3   -1    0    0  501    0  0.00000000000E+00  0.00000000000E+00  0.20553748040E+02  0.20553958439E+02  0.93000000000E-01 0.  1.
         -3   -1    0    0    0  501 -0.00000000000E+00 -0.00000000000E+00 -0.48647874098E+01  0.48656762678E+01  0.93000000000E-01 0. -1.
       1023    2    1    2    0    0  0.00000000000E+00  0.00000000000E+00  0.15688960631E+02  0.25419634707E+02  0.20000358571E+02 0.  0.
        -11    1    3    3    0    0  0.53553944155E+01  0.84452612349E+01  0.78825837687E+01  0.12733334748E+02  0.51100000000E-03 0.  1.
         11    1    3    3    0    0 -0.53553944155E+01 -0.84452612349E+01  0.78063768618E+01  0.12686299959E+02  0.51100000000E-03 0. -1.
<mgrwt>
<rscale>  0 0.20000359E+02</rscale>
<asrwt>0</asrwt>
<pdfrwt beam="1">  1        3 0.31621996E-02 0.20000359E+02</pdfrwt>
<pdfrwt beam="2">  1       -3 0.74851339E-03 0.20000359E+02</pdfrwt>
<totfact> 0.17540046E+06</totfact>
</mgrwt>
</event>
<event>
 5    1  0.4133473E-007  0.2000192E+02  0.7818608E-02  0.1745290E+00
          3   -1    0    0  501    0  0.00000000000E+00  0.00000000000E+00  0.21053005505E+01  0.21073536504E+01  0.93000000000E-01 0.  1.
         -3   -1    0    0    0  501 -0.00000000000E+00 -0.00000000000E+00 -0.47483021162E+02  0.47483112236E+02  0.93000000000E-01 0. -1.
       1023    2    1    2    0    0  0.00000000000E+00  0.00000000000E+00 -0.45377720611E+02  0.49590465887E+02  0.20001919383E+02 0.  0.
        -11    1    3    3    0    0  0.94205620302E+01  0.33565370644E+01 -0.22498997283E+02  0.24621498919E+02  0.51100000000E-03 0. -1.
         11    1    3    3    0    0 -0.94205620302E+01 -0.33565370644E+01 -0.22878723329E+02  0.24968966968E+02  0.51100000000E-03 0.  1.
<mgrwt>
<rscale>  0 0.20001919E+02</rscale>
<asrwt>0</asrwt>
<pdfrwt beam="1">  1        3 0.32405736E-03 0.20001919E+02</pdfrwt>
<pdfrwt beam="2">  1       -3 0.73052443E-02 0.20001919E+02</pdfrwt>
<totfact> 0.16226207E+06</totfact>
</mgrwt>
</event>
<event>
 5    1  0.4133473E-007  0.2000050E+02  0.7818608E-02  0.1745318E+00
         -3   -1    0    0    0  501 -0.00000000000E+00  0.00000000000E+00  0.18895328095E+01  0.18918200861E+01  0.93000000000E-01 0.  1.
          3   -1    0    0  501    0  0.00000000000E+00 -0.00000000000E+00 -0.52891464639E+02  0.52891546401E+02  0.93000000000E-01 0. -1.
       1023    2    1    2    0    0  0.00000000000E+00  0.00000000000E+00 -0.51001931830E+02  0.54783366487E+02  0.20000504826E+02 0.  0.
        -11    1    3    3    0    0  0.16607781468E+01 -0.98613152959E+01 -0.25600657208E+02  0.27484493322E+02  0.51100000000E-03 0.  1.
         11    1    3    3    0    0 -0.16607781468E+01  0.98613152959E+01 -0.25401274622E+02  0.27298873165E+02  0.51100000000E-03 0. -1.
<mgrwt>
<rscale>  0 0.20000505E+02</rscale>
<asrwt>0</asrwt>
<pdfrwt beam="2">  1        3 0.81373295E-02 0.20000505E+02</pdfrwt>
<pdfrwt beam="1">  1       -3 0.29087963E-03 0.20000505E+02</pdfrwt>
<totfact> 0.15979957E+06</totfact>
</mgrwt>
</event>
<event>
 5    1  0.4309920E-007  0.2000106E+02  0.7818608E-02  0.1745307E+00
         -3   -1    0    0    0  501 -0.00000000000E+00  0.00000000000E+00  0.27901373289E+02  0.27901528281E+02  0.93000000000E-01 0.  1.
          3   -1    0    0  501    0  0.00000000000E+00 -0.00000000000E+00 -0.35836657364E+01  0.35848722585E+01  0.93000000000E-01 0. -1.
       1023    2    1    2    0    0  0.00000000000E+00  0.00000000000E+00  0.24317707553E+02  0.31486400540E+02  0.20001062930E+02 0.  0.
        -11    1    3    3    0    0 -0.73784286560E+01  0.67502649894E+01  0.12067840838E+02  0.15672908780E+02  0.51100000000E-03 0.  1.
         11    1    3    3    0    0  0.73784286560E+01 -0.67502649894E+01  0.12249866715E+02  0.15813491760E+02  0.51100000000E-03 0. -1.
<mgrwt>
<rscale>  0 0.20001063E+02</rscale>
<asrwt>0</asrwt>
<pdfrwt beam="2">  1        3 0.55143793E-03 0.20001063E+02</pdfrwt>
<pdfrwt beam="1">  1       -3 0.42926237E-02 0.20001063E+02</pdfrwt>
<totfact> 0.17180166E+06</totfact>
</mgrwt>
</event>
<event>
 5    1  0.4133473E-007  0.2000219E+02  0.7818608E-02  0.1745284E+00
         -3   -1    0    0    0  501 -0.00000000000E+00  0.00000000000E+00  0.25413325615E+01  0.25430336584E+01  0.93000000000E-01 0.  1.
          3   -1    0    0  501    0  0.00000000000E+00 -0.00000000000E+00 -0.39343141487E+02  0.39343251404E+02  0.93000000000E-01 0. -1.
       1023    2    1    2    0    0  0.00000000000E+00  0.00000000000E+00 -0.36801808926E+02  0.41886285063E+02  0.20002193284E+02 0.  0.
        -11    1    3    3    0    0  0.58047681605E+01 -0.81441013988E+01 -0.18370357411E+02  0.20916303513E+02  0.51100000000E-03 0. -1.
         11    1    3    3    0    0 -0.58047681605E+01  0.81441013988E+01 -0.18431451515E+02  0.20969981550E+02  0.51100000000E-03 0.  1.
<mgrwt>
<rscale>  0 0.20002193E+02</rscale>
<asrwt>0</asrwt>
<pdfrwt beam="2">  1        3 0.60529299E-02 0.20002193E+02</pdfrwt>
<pdfrwt beam="1">  1       -3 0.39111358E-03 0.20002193E+02</pdfrwt>
<totfact> 0.16609320E+06</totfact>
</mgrwt>
</event>
<event>
 5    1  0.4133473E-007  0.2000017E+02  0.7818608E-02  0.1745325E+00
         -3   -1    0    0    0  501 -0.00000000000E+00  0.00000000000E+00  0.13073619695E+01  0.13106656016E+01  0.93000000000E-01 0. -1.
          3   -1    0    0  501    0  0.00000000000E+00 -0.00000000000E+00 -0.76391386110E+02  0.76391442720E+02  0.93000000000E-01 0.  1.
       1023    2    1    2    0    0  0.00000000000E+00  0.00000000000E+00 -0.75084024140E+02  0.77702108321E+02  0.20000173911E+02 0.  0.
        -11    1    3    3    0    0  0.98119060654E+01  0.19307212511E+01 -0.37450595758E+02  0.38762718017E+02  0.51100000000E-03 0.  1.
         11    1    3    3    0    0 -0.98119060654E+01 -0.19307212511E+01 -0.37633428382E+02  0.38939390304E+02  0.51100000000E-03 0. -1.
<mgrwt>
<rscale>  0 0.20000174E+02</rscale>
<asrwt>0</asrwt>
<pdfrwt beam="2">  1        3 0.11752776E-01 0.20000174E+02</pdfrwt>
<pdfrwt beam="1">  1       -3 0.20139115E-03 0.20000174E+02</pdfrwt>
<totfact> 0.15001102E+06</totfact>
</mgrwt>
</event>
<event>
 5    1  0.4133473E-007  0.2000353E+02  0.7818608E-02  0.1745258E+00
         -3   -1    0    0    0  501 -0.00000000000E+00  0.00000000000E+00  0.19773601376E+02  0.19773820076E+02  0.93000000000E-01 0. -1.
          3   -1    0    0  501    0  0.00000000000E+00 -0.00000000000E+00 -0.50583612640E+01  0.50592161129E+01  0.93000000000E-01 0.  1.
       1023    2    1    2    0    0  0.00000000000E+00  0.00000000000E+00  0.14715240112E+02  0.24833036188E+02  0.20003534557E+02 0.  0.
        -11    1    3    3    0    0  0.11679133834E+01 -0.99331142739E+01  0.72737192055E+01  0.12366801211E+02  0.51100000000E-03 0.  1.
         11    1    3    3    0    0 -0.11679133834E+01  0.99331142739E+01  0.74415209065E+01  0.12466234977E+02  0.51100000000E-03 0. -1.
<mgrwt>
<rscale>  0 0.20003535E+02</rscale>
<asrwt>0</asrwt>
<pdfrwt beam="2">  1        3 0.77829201E-03 0.20003535E+02</pdfrwt>
<pdfrwt beam="1">  1       -3 0.30421751E-02 0.20003535E+02</pdfrwt>
<totfact> 0.17571467E+06</totfact>
</mgrwt>
</event>
<event>
 5    1  0.4133473E-007  0.2000004E+02  0.7818608E-02  0.1745327E+00
         -3   -1    0    0    0  501 -0.00000000000E+00  0.00000000000E+00  0.31055315720E+02  0.31055454971E+02  0.93000000000E-01 0. -1.
          3   -1    0    0  501    0  0.00000000000E+00 -0.00000000000E+00 -0.32192541140E+01  0.32205971574E+01  0.93000000000E-01 0.  1.
       1023    2    1    2    0    0  0.00000000000E+00  0.00000000000E+00  0.27836061606E+02  0.34276052129E+02  0.20000035595E+02 0.  0.
        -11    1    3    3    0    0  0.65839567512E+01 -0.75267301046E+01  0.13942455762E+02  0.17157861916E+02  0.51100000000E-03 0.  1.
         11    1    3    3    0    0 -0.65839567512E+01  0.75267301046E+01  0.13893605844E+02  0.17118190213E+02  0.51100000000E-03 0. -1.
<mgrwt>
<rscale>  0 0.20000036E+02</rscale>
<asrwt>0</asrwt>
<pdfrwt beam="2">  1        3 0.49538391E-03 0.20000036E+02</pdfrwt>
<pdfrwt beam="1">  1       -3 0.47778547E-02 0.20000036E+02</pdfrwt>
<totfact> 0.17024189E+06</totfact>
</mgrwt>
</event>
<event>
 5    1  0.4142375E-007  0.2000094E+02  0.7818608E-02  0.1745309E+00
          3   -1    0    0  501    0  0.00000000000E+00  0.00000000000E+00  0.21719624606E+02  0.21719823711E+02  0.93000000000E-01 0. -1.
         -3   -1    0    0    0  501 -0.00000000000E+00 -0.00000000000E+00 -0.46038756314E+01  0.46048148529E+01  0.93000000000E-01 0.  1.
       1023    2    1    2    0    0  0.00000000000E+00  0.00000000000E+00  0.17115748975E+02  0.26324638564E+02  0.20000943291E+02 0.  0.
        -11    1    3    3    0    0  0.99031853524E+01  0.13889548940E+01  0.86692216312E+01  0.13234714949E+02  0.51100000000E-03 0.  1.
         11    1    3    3    0    0 -0.99031853524E+01 -0.13889548940E+01  0.84465273434E+01  0.13089923615E+02  0.51100000000E-03 0. -1.
<mgrwt>
<rscale>  0 0.20000943E+02</rscale>
<asrwt>0</asrwt>
<pdfrwt beam="1">  1        3 0.33415683E-02 0.20000943E+02</pdfrwt>
<pdfrwt beam="2">  1       -3 0.70837612E-03 0.20000943E+02</pdfrwt>
<totfact> 0.17483584E+06</totfact>
</mgrwt>
</event>
<event>
 5    1  0.4237778E-007  0.2000061E+02  0.7818608E-02  0.1745316E+00
          3   -1    0    0  501    0  0.00000000000E+00  0.00000000000E+00  0.85973230052E+01  0.85978259959E+01  0.93000000000E-01 0. -1.
         -3   -1    0    0    0  501 -0.00000000000E+00 -0.00000000000E+00 -0.11631211297E+02  0.11631583092E+02  0.93000000000E-01 0.  1.
       1023    2    1    2    0    0  0.00000000000E+00  0.00000000000E+00 -0.30338882914E+01  0.20229409088E+02  0.20000612838E+02 0.  0.
        -11    1    3    3    0    0 -0.21000680842E+01  0.97770357429E+01 -0.15913680231E+01  0.10125866201E+02  0.51100000000E-03 0.  1.
         11    1    3    3    0    0  0.21000680842E+01 -0.97770357429E+01 -0.14425202683E+01  0.10103542887E+02  0.51100000000E-03 0. -1.
<mgrwt>
<rscale>  0 0.20000613E+02</rscale>
<asrwt>0</asrwt>
<pdfrwt beam="1">  1        3 0.13227324E-02 0.20000613E+02</pdfrwt>
<pdfrwt beam="2">  1       -3 0.17894844E-02 0.20000613E+02</pdfrwt>
<totfact> 0.17869568E+06</totfact>
</mgrwt>
</event>
<event>
 4    1  0.4133473E-007  0.2001280E+02  0.7818608E-02  0.1745074E+00
         -3   -1    0    0    0  501 -0.00000000000E+00  0.00000000000E+00  0.32040736393E+02  0.32040871361E+02  0.93000000000E-01 0.  1.
          3   -1    0    0  501    0  0.00000000000E+00 -0.00000000000E+00 -0.31241893997E+01  0.31255732923E+01  0.93000000000E-01 0. -1.
        -11    1    1    2    0    0  0.58504539072E+00 -0.99865777827E+01  0.14866687641E+02  0.17919051749E+02  0.51100000000E-03 0.  1.
         11    1    1    2    0    0 -0.58504539072E+00  0.99865777827E+01  0.14049859352E+02  0.17247392904E+02  0.51100000000E-03 0. -1.
<mgrwt>
<rscale>  0 0.20012799E+02</rscale>
<asrwt>0</asrwt>
<pdfrwt beam="2">  1        3 0.48076134E-03 0.20012799E+02</pdfrwt>
<pdfrwt beam="1">  1       -3 0.49294611E-02 0.20012799E+02</pdfrwt>
<totfact> 0.16951506E+06</totfact>
</mgrwt>
</event>
<event>
 5    1  0.4133473E-007  0.2000522E+02  0.7818608E-02  0.1745224E+00
          3   -1    0    0  501    0  0.00000000000E+00  0.00000000000E+00  0.11062251167E+03  0.11062255076E+03  0.93000000000E-01 0.  1.
         -3   -1    0    0    0  501 -0.00000000000E+00 -0.00000000000E+00 -0.90201705215E+00  0.90679863386E+00  0.93000000000E-01 0. -1.
       1023    2    1    2    0    0  0.00000000000E+00  0.00000000000E+00  0.10972049462E+03  0.11152934940E+03  0.20005220258E+02 0.  0.
        -11    1    3    3    0    0  0.52264478870E+01  0.85273180003E+01  0.54046613708E+02  0.54964237131E+02  0.51100000000E-03 0.  1.
         11    1    3    3    0    0 -0.52264478870E+01 -0.85273180003E+01  0.55673880909E+02  0.56565112265E+02  0.51100000000E-03 0. -1.
<mgrwt>
<rscale>  0 0.20005220E+02</rscale>
<asrwt>0</asrwt>
<pdfrwt beam="1">  1        3 0.17019206E-01 0.20005220E+02</pdfrwt>
<pdfrwt beam="2">  1       -3 0.13914278E-03 0.20005220E+02</pdfrwt>
<totfact> 0.13783274E+06</totfact>
</mgrwt>
</event>
<event>
 5    1  0.4514620E-007  0.2000101E+02  0.7818608E-02  0.1745308E+00
         -3   -1    0    0    0  501 -0.00000000000E+00  0.00000000000E+00  0.71256819783E+01  0.71262888418E+01  0.93000000000E-01 0.  1.
          3   -1    0    0  501    0  0.00000000000E+00 -0.00000000000E+00 -0.14033804049E+02  0.14034112194E+02  0.93000000000E-01 0. -1.
       1023    2    1    2    0    0  0.00000000000E+00  0.00000000000E+00 -0.69081220707E+01  0.21160401036E+02  0.20001010511E+02 0.  0.
        -11    1    3    3    0    0  0.40232270333E+01 -0.91551750944E+01 -0.33686448188E+01  0.10552315146E+02  0.51100000000E-03 0. -1.
         11    1    3    3    0    0 -0.40232270333E+01  0.91551750944E+01 -0.35394772519E+01  0.10608085890E+02  0.51100000000E-03 0.  1.
<mgrwt>
<rscale>  0 0.20001011E+02</rscale>
<asrwt>0</asrwt>
<pdfrwt beam="2">  1        3 0.21591172E-02 0.20001011E+02</pdfrwt>
<pdfrwt beam="1">  1       -3 0.10963292E-02 0.20001011E+02</pdfrwt>
<totfact> 0.17807690E+06</totfact>
</mgrwt>
</event>
<event>
 5    1  0.4133473E-007  0.2000264E+02  0.7818608E-02  0.1745276E+00
         -3   -1    0    0    0  501 -0.00000000000E+00  0.00000000000E+00  0.38353766223E+01  0.38365039860E+01  0.93000000000E-01 0. -1.
          3   -1    0    0  501    0  0.00000000000E+00 -0.00000000000E+00 -0.26074897354E+02  0.26075063203E+02  0.93000000000E-01 0.  1.
       1023    2    1    2    0    0  0.00000000000E+00  0.00000000000E+00 -0.22239520732E+02  0.29911567189E+02  0.20002639059E+02 0.  0.
        -11    1    3    3    0    0  0.73482509496E+01 -0.67844356304E+01 -0.11071693125E+02  0.14920045166E+02  0.51100000000E-03 0.  1.
         11    1    3    3    0    0 -0.73482509496E+01  0.67844356304E+01 -0.11167827608E+02  0.14991522023E+02  0.51100000000E-03 0. -1.
<mgrwt>
<rscale>  0 0.20002639E+02</rscale>
<asrwt>0</asrwt>
<pdfrwt beam="2">  1        3 0.40116220E-02 0.20002639E+02</pdfrwt>
<pdfrwt beam="1">  1       -3 0.59015744E-03 0.20002639E+02</pdfrwt>
<totfact> 0.17266651E+06</totfact>
</mgrwt>
</event>
<event>
 5    1  0.4220857E-007  0.2000053E+02  0.7818608E-02  0.1745318E+00
         -3   -1    0    0    0  501 -0.00000000000E+00  0.00000000000E+00  0.23593071998E+02  0.23593255293E+02  0.93000000000E-01 0.  1.
          3   -1    0    0  501    0  0.00000000000E+00 -0.00000000000E+00 -0.42380466796E+01  0.42390669562E+01  0.93000000000E-01 0. -1.
       1023    2    1    2    0    0  0.00000000000E+00  0.00000000000E+00  0.19355025318E+02  0.27832322249E+02  0.20000528910E+02 0.  0.
        -11    1    3    3    0    0 -0.71560001759E+01 -0.69852596984E+01  0.96000660558E+01  0.13862303564E+02  0.51100000000E-03 0. -1.
         11    1    3    3    0    0  0.71560001759E+01  0.69852596984E+01  0.97549592627E+01  0.13970018685E+02  0.51100000000E-03 0.  1.
<mgrwt>
<rscale>  0 0.20000529E+02</rscale>
<asrwt>0</asrwt>
<pdfrwt beam="2">  1        3 0.65209978E-03 0.20000529E+02</pdfrwt>
<pdfrwt beam="1">  1       -3 0.36297959E-02 0.20000529E+02</pdfrwt>
<totfact> 0.17394984E+06</totfact>
</mgrwt>
</event>
<event>
 5    1  0.4133473E-007  0.2000027E+02  0.7818608E-02  0.1745323E+00
         -3   -1    0    0    0  501 -0.00000000000E+00  0.00000000000E+00  0.16079497810E+01  0.16106369853E+01  0.93000000000E-01 0. -1.
          3   -1    0    0  501    0  0.00000000000E+00 -0.00000000000E+00 -0.62138001497E+02  0.62138071092E+02  0.93000000000E-01 0.  1.
       1023    2    1    2    0    0  0.00000000000E+00  0.00000000000E+00 -0.60530051716E+02  0.63748708077E+02  0.20000265518E+02 0.  0.
        -11    1    3    3    0    0 -0.53728355903E+01 -0.84341662695E+01 -0.30301645430E+02  0.31909124698E+02  0.51100000000E-03 0. -1.
         11    1    3    3    0    0  0.53728355903E+01  0.84341662695E+01 -0.30228406286E+02  0.31839583379E+02  0.51100000000E-03 0.  1.
<mgrwt>
<rscale>  0 0.20000266E+02</rscale>
<asrwt>0</asrwt>
<pdfrwt beam="2">  1        3 0.95599027E-02 0.20000266E+02</pdfrwt>
<pdfrwt beam="1">  1       -3 0.24758900E-03 0.20000266E+02</pdfrwt>
<totfact> 0.15578112E+06</totfact>
</mgrwt>
</event>
<event>
 5    1  0.4133473E-007  0.2000252E+02  0.7818608E-02  0.1745278E+00
          3   -1    0    0  501    0  0.00000000000E+00  0.00000000000E+00  0.14142228516E+01  0.14172774161E+01  0.93000000000E-01 0. -1.
         -3   -1    0    0    0  501 -0.00000000000E+00 -0.00000000000E+00 -0.70648662943E+02  0.70648724154E+02  0.93000000000E-01 0.  1.
       1023    2    1    2    0    0  0.00000000000E+00  0.00000000000E+00 -0.69234440091E+02  0.72066001570E+02  0.20002522031E+02 0.  0.
        -11    1    3    3    0    0 -0.15669294787E+01  0.98777281071E+01 -0.34692887131E+02  0.36105694818E+02  0.51100000000E-03 0. -1.
         11    1    3    3    0    0  0.15669294787E+01 -0.98777281071E+01 -0.34541552960E+02  0.35960306752E+02  0.51100000000E-03 0.  1.
<mgrwt>
<rscale>  0 0.20002522E+02</rscale>
<asrwt>0</asrwt>
<pdfrwt beam="1">  1        3 0.21781248E-03 0.20002522E+02</pdfrwt>
<pdfrwt beam="2">  1       -3 0.10869262E-01 0.20002522E+02</pdfrwt>
<totfact> 0.15226621E+06</totfact>
</mgrwt>
</event>
<event>
 5    1  0.4133473E-007  0.2000073E+02  0.7818608E-02  0.1745314E+00
         -3   -1    0    0    0  501 -0.00000000000E+00  0.00000000000E+00  0.70204643453E+02  0.70204705051E+02  0.93000000000E-01 0.  1.
          3   -1    0    0  501    0  0.00000000000E+00 -0.00000000000E+00 -0.14229314463E+01  0.14259673562E+01  0.93000000000E-01 0. -1.
       1023    2    1    2    0    0  0.00000000000E+00  0.00000000000E+00  0.68781712007E+02  0.71630672408E+02  0.20000733062E+02 0.  0.
        -11    1    3    3    0    0  0.79918783764E+01  0.60114106299E+01  0.34346593401E+02  0.35772834054E+02  0.51100000000E-03 0.  1.
         11    1    3    3    0    0 -0.79918783764E+01 -0.60114106299E+01  0.34435118605E+02  0.35857838353E+02  0.51100000000E-03 0. -1.
<mgrwt>
<rscale>  0 0.20000733E+02</rscale>
<asrwt>0</asrwt>
<pdfrwt beam="2">  1        3 0.21915076E-03 0.20000733E+02</pdfrwt>
<pdfrwt beam="1">  1       -3 0.10800955E-01 0.20000733E+02</pdfrwt>
<totfact> 0.15247396E+06</totfact>
</mgrwt>
</event>
<event>
 5    1  0.4133473E-007  0.2000579E+02  0.7818608E-02  0.1745213E+00
         -3   -1    0    0    0  501 -0.00000000000E+00  0.00000000000E+00  0.53313175072E+01  0.53321285958E+01  0.93000000000E-01 0.  1.
          3   -1    0    0  501    0  0.00000000000E+00 -0.00000000000E+00 -0.18765605749E+02  0.18765836196E+02  0.93000000000E-01 0. -1.
       1023    2    1    2    0    0  0.00000000000E+00  0.00000000000E+00 -0.13434288242E+02  0.24097964792E+02  0.20005794324E+02 0.  0.
        -11    1    3    3    0    0 -0.81523943995E+01 -0.57954498568E+01 -0.68325414845E+01  0.12113314860E+02  0.51100000000E-03 0. -1.
         11    1    3    3    0    0  0.81523943995E+01  0.57954498568E+01 -0.66017467578E+01  0.11984649932E+02  0.51100000000E-03 0.  1.
<mgrwt>
<rscale>  0 0.20005794E+02</rscale>
<asrwt>0</asrwt>
<pdfrwt beam="2">  1        3 0.28870964E-02 0.20005794E+02</pdfrwt>
<pdfrwt beam="1">  1       -3 0.82028282E-03 0.20005794E+02</pdfrwt>
<totfact> 0.17611725E+06</totfact>
</mgrwt>
</event>
<event>
 5    1  0.4133473E-007  0.2000488E+02  0.7818608E-02  0.1745231E+00
          3   -1    0    0  501    0  0.00000000000E+00  0.00000000000E+00  0.61674165069E+02  0.61674235187E+02  0.93000000000E-01 0.  1.
         -3   -1    0    0    0  501 -0.00000000000E+00 -0.00000000000E+00 -0.16208110660E+01  0.16234769822E+01  0.93000000000E-01 0. -1.
       1023    2    1    2    0    0  0.00000000000E+00  0.00000000000E+00  0.60053354003E+02  0.63297712169E+02  0.20004875378E+02 0.  0.
        -11    1    3    3    0    0 -0.99906670176E+01 -0.46725538400E+00  0.29614073442E+02  0.31257400742E+02  0.51100000000E-03 0.  1.
         11    1    3    3    0    0  0.99906670176E+01  0.46725538400E+00  0.30439280561E+02  0.32040311427E+02  0.51100000000E-03 0. -1.
<mgrwt>
<rscale>  0 0.20004875E+02</rscale>
<asrwt>0</asrwt>
<pdfrwt beam="1">  1        3 0.94885436E-02 0.20004875E+02</pdfrwt>
<pdfrwt beam="2">  1       -3 0.24956601E-03 0.20004875E+02</pdfrwt>
<totfact> 0.15590011E+06</totfact>
</mgrwt>
</event>
<event>
 5    1  0.4133473E-007  0.2000805E+02  0.7818608E-02  0.1745168E+00
         -3   -1    0    0    0  501 -0.00000000000E+00  0.00000000000E+00  0.19372289289E+01  0.19394599565E+01  0.93000000000E-01 0.  1.
          3   -1    0    0  501    0  0.00000000000E+00 -0.00000000000E+00 -0.51629677551E+02  0.51629761311E+02  0.93000000000E-01 0. -1.
       1023    2    1    2    0    0  0.00000000000E+00  0.00000000000E+00 -0.49692448622E+02  0.53569221267E+02  0.20008048809E+02 0.  0.
        -11    1    3    3    0    0 -0.99103217262E+01  0.13501967731E+01 -0.24291056194E+02  0.26269619703E+02  0.51100000000E-03 0.  1.
         11    1    3    3    0    0  0.99103217262E+01 -0.13501967731E+01 -0.25401392428E+02  0.27299601564E+02  0.51100000000E-03 0. -1.
<mgrwt>
<rscale>  0 0.20008049E+02</rscale>
<asrwt>0</asrwt>
<pdfrwt beam="2">  1        3 0.79432043E-02 0.20008049E+02</pdfrwt>
<pdfrwt beam="1">  1       -3 0.29821332E-03 0.20008049E+02</pdfrwt>
<totfact> 0.16023581E+06</totfact>
</mgrwt>
</event>
<event>
 5    1  0.4133473E-007  0.2000038E+02  0.7818608E-02  0.1745321E+00
         -3   -1    0    0    0  501 -0.00000000000E+00  0.00000000000E+00  0.10763578119E+03  0.10763582136E+03  0.93000000000E-01 0.  1.
          3   -1    0    0  501    0  0.00000000000E+00 -0.00000000000E+00 -0.92672674243E+00  0.93138147670E+00  0.93000000000E-01 0. -1.
       1023    2    1    2    0    0  0.00000000000E+00  0.00000000000E+00  0.10670905444E+03  0.10856720284E+03  0.20000380802E+02 0.  0.
        -11    1    3    3    0    0  0.26364937052E+01 -0.96461942033E+01  0.53026751758E+02  0.53961435896E+02  0.51100000000E-03 0.  1.
         11    1    3    3    0    0 -0.26364937052E+01  0.96461942033E+01  0.53682302685E+02  0.54605766944E+02  0.51100000000E-03 0. -1.
<mgrwt>
<rscale>  0 0.20000381E+02</rscale>
<asrwt>0</asrwt>
<pdfrwt beam="2">  1        3 0.14293462E-03 0.20000381E+02</pdfrwt>
<pdfrwt beam="1">  1       -3 0.16559697E-01 0.20000381E+02</pdfrwt>
<totfact> 0.13890387E+06</totfact>
</mgrwt>
</event>
<event>
 5    1  0.4133473E-007  0.2000183E+02  0.7818608E-02  0.1745292E+00
         -3   -1    0    0    0  501 -0.00000000000E+00  0.00000000000E+00  0.23182123042E+01  0.23200770003E+01  0.93000000000E-01 0. -1.
          3   -1    0    0  501    0  0.00000000000E+00 -0.00000000000E+00 -0.43125324690E+02  0.43125424967E+02  0.93000000000E-01 0.  1.
       1023    2    1    2    0    0  0.00000000000E+00  0.00000000000E+00 -0.40807112386E+02  0.45445501968E+02  0.20001830612E+02 0.  0.
        -11    1    3    3    0    0 -0.87228325136E+01  0.48918351940E+01 -0.20451650467E+02  0.22765936522E+02  0.51100000000E-03 0. -1.
         11    1    3    3    0    0  0.87228325136E+01 -0.48918351940E+01 -0.20355461919E+02  0.22679565446E+02  0.51100000000E-03 0.  1.
<mgrwt>
<rscale>  0 0.20001831E+02</rscale>
<asrwt>0</asrwt>
<pdfrwt beam="2">  1        3 0.66348159E-02 0.20001831E+02</pdfrwt>
<pdfrwt beam="1">  1       -3 0.35679923E-03 0.20001831E+02</pdfrwt>
<totfact> 0.16428265E+06</totfact>
</mgrwt>
</event>
<event>
 5    1  0.4133473E-007  0.2000521E+02  0.7818608E-02  0.1745224E+00
         -3   -1    0    0    0  501 -0.00000000000E+00  0.00000000000E+00  0.22797000929E+01  0.22815962644E+01  0.93000000000E-01 0. -1.
          3   -1    0    0  501    0  0.00000000000E+00 -0.00000000000E+00 -0.43868097889E+02  0.43868196469E+02  0.93000000000E-01 0.  1.
       1023    2    1    2    0    0  0.00000000000E+00  0.00000000000E+00 -0.41588397797E+02  0.46149792733E+02  0.20005212772E+02 0.  0.
        -11    1    3    3    0    0  0.98847177244E+01  0.15311529626E+01 -0.20812122048E+02  0.23091048012E+02  0.51100000000E-03 0.  1.
         11    1    3    3    0    0 -0.98847177244E+01 -0.15311529626E+01 -0.20776275749E+02  0.23058744721E+02  0.51100000000E-03 0. -1.
<mgrwt>
<rscale>  0 0.20005213E+02</rscale>
<asrwt>0</asrwt>
<pdfrwt beam="2">  1        3 0.67490910E-02 0.20005213E+02</pdfrwt>
<pdfrwt beam="1">  1       -3 0.35087656E-03 0.20005213E+02</pdfrwt>
<totfact> 0.16387037E+06</totfact>
</mgrwt>
</event>
<event>
 5    1  0.4133473E-007  0.2000091E+02  0.7818608E-02  0.1745310E+00
         -3   -1    0    0    0  501 -0.00000000000E+00  0.00000000000E+00  0.16253009816E+01  0.16279595452E+01  0.93000000000E-01 0.  1.
          3   -1    0    0  501    0  0.00000000000E+00 -0.00000000000E+00 -0.61479693610E+02  0.61479763951E+02  0.93000000000E-01 0. -1.
       1023    2    1    2    0    0  0.00000000000E+00  0.00000000000E+00 -0.59854392629E+02  0.63107723496E+02  0.20000911176E+02 0.  0.
        -11    1    3    3    0    0  0.93362239937E+01 -0.35832171580E+01 -0.30140916984E+02  0.31756564684E+02  0.51100000000E-03 0. -1.
         11    1    3    3    0    0 -0.93362239937E+01  0.35832171580E+01 -0.29713475645E+02  0.31351158812E+02  0.51100000000E-03 0.  1.
<mgrwt>
<rscale>  0 0.20000911E+02</rscale>
<asrwt>0</asrwt>
<pdfrwt beam="2">  1        3 0.94586225E-02 0.20000911E+02</pdfrwt>
<pdfrwt beam="1">  1       -3 0.25025627E-03 0.20000911E+02</pdfrwt>
<totfact> 0.15604932E+06</totfact>
</mgrwt>
</event>
<event>
 5    1  0.4133473E-007  0.2000148E+02  0.7818608E-02  0.1745299E+00
         -3   -1    0    0    0  501 -0.00000000000E+00  0.00000000000E+00  0.10539641690E+01  0.10580592940E+01  0.93000000000E-01 0. -1.
          3   -1    0    0  501    0  0.00000000000E+00 -0.00000000000E+00 -0.94705812868E+02  0.94705858530E+02  0.93000000000E-01 0.  1.
       1023    2    1    2    0    0  0.00000000000E+00  0.00000000000E+00 -0.93651848699E+02  0.95763917824E+02  0.20001479754E+02 0.  0.
        -11    1    3    3    0    0  0.95890533667E+01  0.28398685441E+01 -0.46825508199E+02  0.47881551940E+02  0.51100000000E-03 0. -1.
         11    1    3    3    0    0 -0.95890533667E+01 -0.28398685441E+01 -0.46826340500E+02  0.47882365884E+02  0.51100000000E-03 0.  1.
<mgrwt>
<rscale>  0 0.20001480E+02</rscale>
<asrwt>0</asrwt>
<pdfrwt beam="2">  1        3 0.14570437E-01 0.20001480E+02</pdfrwt>
<pdfrwt beam="1">  1       -3 0.16246693E-03 0.20001480E+02</pdfrwt>
<totfact> 0.14324133E+06</totfact>
</mgrwt>
</event>
<event>
 5    1  0.4133473E-007  0.2000114E+02  0.7818608E-02  0.1745305E+00
         -3   -1    0    0    0  501 -0.00000000000E+00  0.00000000000E+00  0.11668040361E+01  0.11705044463E+01  0.93000000000E-01 0.  1.
          3   -1    0    0  501    0  0.00000000000E+00 -0.00000000000E+00 -0.85574568126E+02  0.85574618661E+02  0.93000000000E-01 0. -1.
       1023    2    1    2    0    0  0.00000000000E+00  0.00000000000E+00 -0.84407764090E+02  0.86745123107E+02  0.20001143573E+02 0.  0.
        -11    1    3    3    0    0 -0.96675891067E+01 -0.25589804375E+01 -0.42324679828E+02  0.43490104424E+02  0.51100000000E-03 0. -1.
         11    1    3    3    0    0  0.96675891067E+01  0.25589804375E+01 -0.42083084262E+02  0.43255018683E+02  0.51100000000E-03 0.  1.
<mgrwt>
<rscale>  0 0.20001144E+02</rscale>
<asrwt>0</asrwt>
<pdfrwt beam="2">  1        3 0.13165602E-01 0.20001144E+02</pdfrwt>
<pdfrwt beam="1">  1       -3 0.17979691E-03 0.20001144E+02</pdfrwt>
<totfact> 0.14652755E+06</totfact>
</mgrwt>
</event>
<event>
 5    1  0.4450825E-007  0.2000057E+02  0.7818608E-02  0.1745317E+00
          3   -1    0    0  501    0  0.00000000000E+00  0.00000000000E+00  0.64825387945E+02  0.64825454655E+02  0.93000000000E-01 0.  1.
         -3   -1    0    0    0  501 -0.00000000000E+00 -0.00000000000E+00 -0.15412242861E+01  0.15440276228E+01  0.93000000000E-01 0. -1.
       1023    2    1    2    0    0  0.00000000000E+00  0.00000000000E+00  0.63284163659E+02  0.66369482278E+02  0.20000570187E+02 0.  0.
        -11    1    3    3    0    0 -0.99805810393E+01 -0.62678780054E+00  0.31545856668E+02  0.33092989197E+02  0.51100000000E-03 0.  1.
         11    1    3    3    0    0  0.99805810393E+01  0.62678780054E+00  0.31738306991E+02  0.33276493081E+02  0.51100000000E-03 0. -1.
<mgrwt>
<rscale>  0 0.20000570E+02</rscale>
<asrwt>0</asrwt>
<pdfrwt beam="1">  1        3 0.99733579E-02 0.20000570E+02</pdfrwt>
<pdfrwt beam="2">  1       -3 0.23733219E-03 0.20000570E+02</pdfrwt>
<totfact> 0.15464866E+06</totfact>
</mgrwt>
</event>
<event>
 5    1  0.4133473E-007  0.2000194E+02  0.7818608E-02  0.1745290E+00
          3   -1    0    0  501    0  0.00000000000E+00  0.00000000000E+00  0.15564352173E+01  0.15592112063E+01  0.93000000000E-01 0.  1.
         -3   -1    0    0    0  501 -0.00000000000E+00 -0.00000000000E+00 -0.64201755450E+02  0.64201822808E+02  0.93000000000E-01 0. -1.
       1023    2    1    2    0    0  0.00000000000E+00  0.00000000000E+00 -0.62645320232E+02  0.65761034014E+02  0.20001936095E+02 0.  0.
        -11    1    3    3    0    0  0.88934723615E+01  0.45728383896E+01 -0.31720734550E+02  0.33259730940E+02  0.51100000000E-03 0. -1.
         11    1    3    3    0    0 -0.88934723615E+01 -0.45728383896E+01 -0.30924585683E+02  0.32501303074E+02  0.51100000000E-03 0.  1.
<mgrwt>
<rscale>  0 0.20001936E+02</rscale>
<asrwt>0</asrwt>
<pdfrwt beam="1">  1        3 0.23967034E-03 0.20001936E+02</pdfrwt>
<pdfrwt beam="2">  1       -3 0.98774098E-02 0.20001936E+02</pdfrwt>
<totfact> 0.15491416E+06</totfact>
</mgrwt>
</event>
<event>
 5    1  0.4133473E-007  0.2000189E+02  0.7818608E-02  0.1745290E+00
          3   -1    0    0  501    0  0.00000000000E+00  0.00000000000E+00  0.56123425898E+01  0.56131130708E+01  0.93000000000E-01 0.  1.
         -3   -1    0    0    0  501 -0.00000000000E+00 -0.00000000000E+00 -0.17819126237E+02  0.17819368924E+02  0.93000000000E-01 0. -1.
       1023    2    1    2    0    0  0.00000000000E+00  0.00000000000E+00 -0.12206783647E+02  0.23432481994E+02  0.20001891046E+02 0.  0.
        -11    1    3    3    0    0 -0.86014555503E+01 -0.51023251124E+01 -0.60889504225E+01  0.11708717976E+02  0.51100000000E-03 0.  1.
         11    1    3    3    0    0  0.86014555503E+01  0.51023251124E+01 -0.61178332243E+01  0.11723764018E+02  0.51100000000E-03 0. -1.
<mgrwt>
<rscale>  0 0.20001891E+02</rscale>
<asrwt>0</asrwt>
<pdfrwt beam="1">  1        3 0.86351527E-03 0.20001891E+02</pdfrwt>
<pdfrwt beam="2">  1       -3 0.27414819E-02 0.20001891E+02</pdfrwt>
<totfact> 0.17661833E+06</totfact>
</mgrwt>
</event>
<event>
 5    1  0.4133473E-007  0.2000030E+02  0.7818608E-02  0.1745322E+00
          3   -1    0    0  501    0  0.00000000000E+00  0.00000000000E+00  0.23536519879E+01  0.23554886288E+01  0.93000000000E-01 0. -1.
         -3   -1    0    0    0  501 -0.00000000000E+00 -0.00000000000E+00 -0.42470000950E+02  0.42470102775E+02  0.93000000000E-01 0.  1.
       1023    2    1    2    0    0  0.00000000000E+00  0.00000000000E+00 -0.40116348962E+02  0.44825591403E+02  0.20000304763E+02 0.  0.
        -11    1    3    3    0    0  0.48973560432E+01 -0.87188536724E+01 -0.20110344036E+02  0.22459484480E+02  0.51100000000E-03 0. -1.
         11    1    3    3    0    0 -0.48973560432E+01  0.87188536724E+01 -0.20006004926E+02  0.22366106924E+02  0.51100000000E-03 0.  1.
<mgrwt>
<rscale>  0 0.20000305E+02</rscale>
<asrwt>0</asrwt>
<pdfrwt beam="1">  1        3 0.36224945E-03 0.20000305E+02</pdfrwt>
<pdfrwt beam="2">  1       -3 0.65339949E-02 0.20000305E+02</pdfrwt>
<totfact> 0.16464612E+06</totfact>
</mgrwt>
</event>
<event>
 5    1  0.4133473E-007  0.2000132E+02  0.7818608E-02  0.1745302E+00
          3   -1    0    0  501    0  0.00000000000E+00  0.00000000000E+00  0.13980135255E+01  0.14011034285E+01  0.93000000000E-01 0. -1.
         -3   -1    0    0    0  501 -0.00000000000E+00 -0.00000000000E+00 -0.71457384736E+02  0.71457445254E+02  0.93000000000E-01 0.  1.
       1023    2    1    2    0    0  0.00000000000E+00  0.00000000000E+00 -0.70059371210E+02  0.72858548683E+02  0.20001315501E+02 0.  0.
        -11    1    3    3    0    0 -0.48240986163E+01 -0.87601807361E+01 -0.34951456995E+02  0.36354051223E+02  0.51100000000E-03 0. -1.
         11    1    3    3    0    0  0.48240986163E+01  0.87601807361E+01 -0.35107914216E+02  0.36504497460E+02  0.51100000000E-03 0.  1.
<mgrwt>
<rscale>  0 0.20001316E+02</rscale>
<asrwt>0</asrwt>
<pdfrwt beam="1">  1        3 0.21532140E-03 0.20001316E+02</pdfrwt>
<pdfrwt beam="2">  1       -3 0.10993683E-01 0.20001316E+02</pdfrwt>
<totfact> 0.15196231E+06</totfact>
</mgrwt>
</event>
<event>
 5    1  0.4133473E-007  0.2000204E+02  0.7818608E-02  0.1745287E+00
         -3   -1    0    0    0  501 -0.00000000000E+00  0.00000000000E+00  0.84858898980E+02  0.84858949941E+02  0.93000000000E-01 0.  1.
          3   -1    0    0  501    0  0.00000000000E+00 -0.00000000000E+00 -0.11767816962E+01  0.11804508294E+01  0.93000000000E-01 0. -1.
       1023    2    1    2    0    0  0.00000000000E+00  0.00000000000E+00  0.83682117284E+02  0.86039400771E+02  0.20002043192E+02 0.  0.
        -11    1    3    3    0    0 -0.67284982281E+01  0.73982694439E+01  0.41343984632E+02  0.42536245070E+02  0.51100000000E-03 0.  1.
         11    1    3    3    0    0  0.67284982281E+01 -0.73982694439E+01  0.42338132652E+02  0.43503155700E+02  0.51100000000E-03 0. -1.
<mgrwt>
<rscale>  0 0.20002043E+02</rscale>
<asrwt>0</asrwt>
<pdfrwt beam="2">  1        3 0.18132946E-03 0.20002043E+02</pdfrwt>
<pdfrwt beam="1">  1       -3 0.13055504E-01 0.20002043E+02</pdfrwt>
<totfact> 0.14680663E+06</totfact>
</mgrwt>
</event>
<event>
 5    1  0.4133473E-007  0.2000324E+02  0.7818608E-02  0.1745264E+00
          3   -1    0    0  501    0  0.00000000000E+00  0.00000000000E+00  0.40033116412E+02  0.40033224435E+02  0.93000000000E-01 0. -1.
         -3   -1    0    0    0  501 -0.00000000000E+00 -0.00000000000E+00 -0.24977642615E+01  0.24994950102E+01  0.93000000000E-01 0.  1.
       1023    2    1    2    0    0  0.00000000000E+00  0.00000000000E+00  0.37535352150E+02  0.42532719445E+02  0.20003238796E+02 0.  0.
        -11    1    3    3    0    0 -0.56688542599E+01  0.82399312608E+01  0.18775778423E+02  0.21273510088E+02  0.51100000000E-03 0.  1.
         11    1    3    3    0    0  0.56688542599E+01 -0.82399312608E+01  0.18759573727E+02  0.21259209357E+02  0.51100000000E-03 0. -1.
<mgrwt>
<rscale>  0 0.20003239E+02</rscale>
<asrwt>0</asrwt>
<pdfrwt beam="1">  1        3 0.61590826E-02 0.20003239E+02</pdfrwt>
<pdfrwt beam="2">  1       -3 0.38441286E-03 0.20003239E+02</pdfrwt>
<totfact> 0.16574066E+06</totfact>
</mgrwt>
</event>
<event>
 5    1  0.4133473E-007  0.2000391E+02  0.7818608E-02  0.1745250E+00
         -3   -1    0    0    0  501 -0.00000000000E+00  0.00000000000E+00  0.11585578047E+01  0.11622844690E+01  0.93000000000E-01 0. -1.
          3   -1    0    0  501    0  0.00000000000E+00 -0.00000000000E+00 -0.86205572465E+02  0.86205622630E+02  0.93000000000E-01 0.  1.
       1023    2    1    2    0    0  0.00000000000E+00  0.00000000000E+00 -0.85047014661E+02  0.87367907099E+02  0.20003911823E+02 0.  0.
        -11    1    3    3    0    0 -0.32345047141E+00  0.99955441773E+01 -0.43194435910E+02  0.44337059188E+02  0.51100000000E-03 0. -1.
         11    1    3    3    0    0  0.32345047141E+00 -0.99955441773E+01 -0.41852578750E+02  0.43030847911E+02  0.51100000000E-03 0.  1.
<mgrwt>
<rscale>  0 0.20003912E+02</rscale>
<asrwt>0</asrwt>
<pdfrwt beam="2">  1        3 0.13262681E-01 0.20003912E+02</pdfrwt>
<pdfrwt beam="1">  1       -3 0.17853026E-03 0.20003912E+02</pdfrwt>
<totfact> 0.14625189E+06</totfact>
</mgrwt>
</event>
<event>
 5    1  0.4173318E-007  0.2000125E+02  0.7818608E-02  0.1745303E+00
          3   -1    0    0  501    0  0.00000000000E+00  0.00000000000E+00  0.34367581101E+02  0.34367706931E+02  0.93000000000E-01 0. -1.
         -3   -1    0    0    0  501 -0.00000000000E+00 -0.00000000000E+00 -0.29092076132E+01  0.29106937209E+01  0.93000000000E-01 0.  1.
       1023    2    1    2    0    0  0.00000000000E+00  0.00000000000E+00  0.31458373488E+02  0.37278400652E+02  0.20001247279E+02 0.  0.
        -11    1    3    3    0    0 -0.12322434874E+00 -0.99997828558E+01  0.15804469496E+02  0.18702729687E+02  0.51100000000E-03 0. -1.
         11    1    3    3    0    0  0.12322434874E+00  0.99997828558E+01  0.15653903991E+02  0.18575670966E+02  0.51100000000E-03 0.  1.
<mgrwt>
<rscale>  0 0.20001247E+02</rscale>
<asrwt>0</asrwt>
<pdfrwt beam="1">  1        3 0.52874441E-02 0.20001247E+02</pdfrwt>
<pdfrwt beam="2">  1       -3 0.44769440E-03 0.20001247E+02</pdfrwt>
<totfact> 0.16855043E+06</totfact>
</mgrwt>
</event>
<event>
 4    1  0.4133473E-007  0.2002863E+02  0.7818608E-02  0.1744759E+00
          3   -1    0    0  501    0  0.00000000000E+00  0.00000000000E+00  0.11529229114E+03  0.11529232865E+03  0.93000000000E-01 0. -1.
         -3   -1    0    0    0  501 -0.00000000000E+00 -0.00000000000E+00 -0.86732183791E+00  0.87229362631E+00  0.93000000000E-01 0.  1.
        -11    1    1    2    0    0 -0.65557035891E+01 -0.75637409779E+01  0.55387213006E+02  0.56284374314E+02  0.51100000000E-03 0. -1.
         11    1    1    2    0    0  0.65557035891E+01  0.75637409779E+01  0.59037756299E+02  0.59880247963E+02  0.51100000000E-03 0.  1.
<mgrwt>
<rscale>  0 0.20028626E+02</rscale>
<asrwt>0</asrwt>
<pdfrwt beam="1">  1        3 0.17737651E-01 0.20028626E+02</pdfrwt>
<pdfrwt beam="2">  1       -3 0.13381953E-03 0.20028626E+02</pdfrwt>
<totfact> 0.13600031E+06</totfact>
</mgrwt>
</event>
<event>
 5    1  0.4262206E-007  0.2000131E+02  0.7818608E-02  0.1745302E+00
          3   -1    0    0  501    0  0.00000000000E+00  0.00000000000E+00  0.14434348103E+02  0.14434647698E+02  0.93000000000E-01 0. -1.
         -3   -1    0    0    0  501 -0.00000000000E+00 -0.00000000000E+00 -0.69281414979E+01  0.69287656632E+01  0.93000000000E-01 0.  1.
       1023    2    1    2    0    0  0.00000000000E+00  0.00000000000E+00  0.75062066053E+01  0.21363413361E+02  0.20001307278E+02 0.  0.
        -11    1    3    3    0    0 -0.99231564813E+01  0.12421657259E+01  0.37182841110E+01  0.10669472678E+02  0.51100000000E-03 0.  1.
         11    1    3    3    0    0  0.99231564813E+01 -0.12421657259E+01  0.37879224943E+01  0.10693940683E+02  0.51100000000E-03 0. -1.
<mgrwt>
<rscale>  0 0.20001307E+02</rscale>
<asrwt>0</asrwt>
<pdfrwt beam="1">  1        3 0.22207400E-02 0.20001307E+02</pdfrwt>
<pdfrwt beam="2">  1       -3 0.10659390E-02 0.20001307E+02</pdfrwt>
<totfact> 0.17793950E+06</totfact>
</mgrwt>
</event>
<event>
 5    1  0.4133473E-007  0.2000256E+02  0.7818608E-02  0.1745277E+00
         -3   -1    0    0    0  501 -0.00000000000E+00  0.00000000000E+00  0.13258357223E+01  0.13290934363E+01  0.93000000000E-01 0.  1.
          3   -1    0    0  501    0  0.00000000000E+00 -0.00000000000E+00 -0.75347546468E+02  0.75347603862E+02  0.93000000000E-01 0. -1.
       1023    2    1    2    0    0  0.00000000000E+00  0.00000000000E+00 -0.74021710746E+02  0.76676697299E+02  0.20002556008E+02 0.  0.
        -11    1    3    3    0    0 -0.15430859129E+01 -0.98807881528E+01 -0.36549692641E+02  0.37893154013E+02  0.51100000000E-03 0. -1.
         11    1    3    3    0    0  0.15430859129E+01  0.98807881528E+01 -0.37472018105E+02  0.38783543286E+02  0.51100000000E-03 0.  1.
<mgrwt>
<rscale>  0 0.20002556E+02</rscale>
<asrwt>0</asrwt>
<pdfrwt beam="2">  1        3 0.11592182E-01 0.20002556E+02</pdfrwt>
<pdfrwt beam="1">  1       -3 0.20422979E-03 0.20002556E+02</pdfrwt>
<totfact> 0.15037834E+06</totfact>
</mgrwt>
</event>
<event>
 5    1  0.4154251E-007  0.2000056E+02  0.7818608E-02  0.1745317E+00
          3   -1    0    0  501    0  0.00000000000E+00  0.00000000000E+00  0.40982415439E+01  0.40992966168E+01  0.93000000000E-01 0. -1.
         -3   -1    0    0    0  501 -0.00000000000E+00 -0.00000000000E+00 -0.24397789414E+02  0.24397966663E+02  0.93000000000E-01 0.  1.
       1023    2    1    2    0    0  0.00000000000E+00  0.00000000000E+00 -0.20299547870E+02  0.28497263279E+02  0.20000559260E+02 0.  0.
        -11    1    3    3    0    0 -0.97506954922E+01 -0.22197209155E+01 -0.10080426001E+02  0.14199232801E+02  0.51100000000E-03 0.  1.
         11    1    3    3    0    0  0.97506954922E+01  0.22197209155E+01 -0.10219121869E+02  0.14298030478E+02  0.51100000000E-03 0. -1.
<mgrwt>
<rscale>  0 0.20000559E+02</rscale>
<asrwt>0</asrwt>
<pdfrwt beam="1">  1        3 0.63059351E-03 0.20000559E+02</pdfrwt>
<pdfrwt beam="2">  1       -3 0.37536008E-02 0.20000559E+02</pdfrwt>
<totfact> 0.17355349E+06</totfact>
</mgrwt>
</event>
<event>
 5    1  0.4133473E-007  0.2000071E+02  0.7818608E-02  0.1745314E+00
          3   -1    0    0  501    0  0.00000000000E+00  0.00000000000E+00  0.54077231668E+02  0.54077311637E+02  0.93000000000E-01 0. -1.
         -3   -1    0    0    0  501 -0.00000000000E+00 -0.00000000000E+00 -0.18480872072E+01  0.18504257147E+01  0.93000000000E-01 0.  1.
       1023    2    1    2    0    0  0.00000000000E+00  0.00000000000E+00  0.52229144460E+02  0.55927737351E+02  0.20000706842E+02 0.  0.
        -11    1    3    3    0    0  0.68710836683E+01 -0.72658000293E+01  0.26278278993E+02  0.28116749242E+02  0.51100000000E-03 0. -1.
         11    1    3    3    0    0 -0.68710836683E+01  0.72658000293E+01  0.25950865467E+02  0.27810988109E+02  0.51100000000E-03 0.  1.
<mgrwt>
<rscale>  0 0.20000707E+02</rscale>
<asrwt>0</asrwt>
<pdfrwt beam="1">  1        3 0.83197583E-02 0.20000707E+02</pdfrwt>
<pdfrwt beam="2">  1       -3 0.28450721E-03 0.20000707E+02</pdfrwt>
<totfact> 0.15926758E+06</totfact>
</mgrwt>
</event>
<event>
 5    1  0.4133473E-007  0.2000042E+02  0.7818608E-02  0.1745320E+00
         -3   -1    0    0    0  501 -0.00000000000E+00  0.00000000000E+00  0.28308861605E+02  0.28309014366E+02  0.93000000000E-01 0. -1.
          3   -1    0    0  501    0  0.00000000000E+00 -0.00000000000E+00 -0.35318358989E+01  0.35330601207E+01  0.93000000000E-01 0.  1.
       1023    2    1    2    0    0  0.00000000000E+00  0.00000000000E+00  0.24777025707E+02  0.31842074487E+02  0.20000417615E+02 0.  0.
        -11    1    3    3    0    0 -0.94509141504E+01 -0.32683917606E+01  0.12317083059E+02  0.15865456133E+02  0.51100000000E-03 0. -1.
         11    1    3    3    0    0  0.94509141504E+01  0.32683917606E+01  0.12459942648E+02  0.15976618354E+02  0.51100000000E-03 0.  1.
<mgrwt>
<rscale>  0 0.20000418E+02</rscale>
<asrwt>0</asrwt>
<pdfrwt beam="2">  1        3 0.54346529E-03 0.20000418E+02</pdfrwt>
<pdfrwt beam="1">  1       -3 0.43553154E-02 0.20000418E+02</pdfrwt>
<totfact> 0.17160964E+06</totfact>
</mgrwt>
</event>
<event>
 5    1  0.4133473E-007  0.2000197E+02  0.7818608E-02  0.1745289E+00
          3   -1    0    0  501    0  0.00000000000E+00  0.00000000000E+00  0.27351974743E+02  0.27352132849E+02  0.93000000000E-01 0. -1.
         -3   -1    0    0    0  501 -0.00000000000E+00 -0.00000000000E+00 -0.36560035871E+01  0.36571862447E+01  0.93000000000E-01 0.  1.
       1023    2    1    2    0    0  0.00000000000E+00  0.00000000000E+00  0.23695971156E+02  0.31009319093E+02  0.20001970443E+02 0.  0.
        -11    1    3    3    0    0 -0.83168412809E+01 -0.55537183609E+01  0.11968756985E+02  0.15596947796E+02  0.51100000000E-03 0. -1.
         11    1    3    3    0    0  0.83168412809E+01  0.55537183609E+01  0.11727214171E+02  0.15412371297E+02  0.51100000000E-03 0.  1.
<mgrwt>
<rscale>  0 0.20001970E+02</rscale>
<asrwt>0</asrwt>
<pdfrwt beam="1">  1        3 0.42080993E-02 0.20001970E+02</pdfrwt>
<pdfrwt beam="2">  1       -3 0.56256522E-03 0.20001970E+02</pdfrwt>
<totfact> 0.17204198E+06</totfact>
</mgrwt>
</event>
<event>
 5    1  0.4133473E-007  0.2000082E+02  0.7818608E-02  0.1745312E+00
          3   -1    0    0  501    0  0.00000000000E+00  0.00000000000E+00  0.23396237821E+01  0.23414714267E+01  0.93000000000E-01 0.  1.
         -3   -1    0    0    0  501 -0.00000000000E+00 -0.00000000000E+00 -0.42726654451E+02  0.42726755664E+02  0.93000000000E-01 0. -1.
       1023    2    1    2    0    0  0.00000000000E+00  0.00000000000E+00 -0.40387030669E+02  0.45068227091E+02  0.20000821154E+02 0.  0.
        -11    1    3    3    0    0  0.45895614588E+01 -0.88848239123E+01 -0.20050272405E+02  0.22405749131E+02  0.51100000000E-03 0.  1.
         11    1    3    3    0    0 -0.45895614588E+01  0.88848239123E+01 -0.20336758264E+02  0.22662477960E+02  0.51100000000E-03 0. -1.
<mgrwt>
<rscale>  0 0.20000821E+02</rscale>
<asrwt>0</asrwt>
<pdfrwt beam="1">  1        3 0.36009206E-03 0.20000821E+02</pdfrwt>
<pdfrwt beam="2">  1       -3 0.65734808E-02 0.20000821E+02</pdfrwt>
<totfact> 0.16451459E+06</totfact>
</mgrwt>
</event>
<event>
 5    1  0.4133473E-007  0.2000044E+02  0.7818608E-02  0.1745319E+00
          3   -1    0    0  501    0  0.00000000000E+00  0.00000000000E+00  0.64217986814E+02  0.64218054155E+02  0.93000000000E-01 0.  1.
         -3   -1    0    0    0  501 -0.00000000000E+00 -0.00000000000E+00 -0.15558080852E+01  0.15585851911E+01  0.93000000000E-01 0. -1.
       1023    2    1    2    0    0  0.00000000000E+00  0.00000000000E+00  0.62662178729E+02  0.65776639346E+02  0.20000441011E+02 0.  0.
        -11    1    3    3    0    0  0.61974405767E+01  0.78482568546E+01  0.31435324786E+02  0.32987619648E+02  0.51100000000E-03 0. -1.
         11    1    3    3    0    0 -0.61974405767E+01 -0.78482568546E+01  0.31226853943E+02  0.32789019699E+02  0.51100000000E-03 0.  1.
<mgrwt>
<rscale>  0 0.20000441E+02</rscale>
<asrwt>0</asrwt>
<pdfrwt beam="1">  1        3 0.98799098E-02 0.20000441E+02</pdfrwt>
<pdfrwt beam="2">  1       -3 0.23957388E-03 0.20000441E+02</pdfrwt>
<totfact> 0.15490396E+06</totfact>
</mgrwt>
</event>
<event>
 5    1  0.4133473E-007  0.2000975E+02  0.7818608E-02  0.1745134E+00
          3   -1    0    0  501    0  0.00000000000E+00  0.00000000000E+00  0.10736058474E+02  0.10736461268E+02  0.93000000000E-01 0.  1.
         -3   -1    0    0    0  501 -0.00000000000E+00 -0.00000000000E+00 -0.93226755087E+01  0.93231393661E+01  0.93000000000E-01 0. -1.
       1023    2    1    2    0    0  0.00000000000E+00  0.00000000000E+00  0.14133829654E+01  0.20059600634E+02  0.20009745780E+02 0.  0.
        -11    1    3    3    0    0 -0.87133622970E+01  0.49128556602E+01  0.90377231954E+00  0.10043686471E+02  0.51100000000E-03 0.  1.
         11    1    3    3    0    0  0.87133622970E+01 -0.49128556602E+01  0.50961064587E+00  0.10015914163E+02  0.51100000000E-03 0. -1.
<mgrwt>
<rscale>  0 0.20009746E+02</rscale>
<asrwt>0</asrwt>
<pdfrwt beam="1">  1        3 0.16517680E-02 0.20009746E+02</pdfrwt>
<pdfrwt beam="2">  1       -3 0.14343244E-02 0.20009746E+02</pdfrwt>
<totfact> 0.17862921E+06</totfact>
</mgrwt>
</event>
<event>
 5    1  0.4133473E-007  0.2000016E+02  0.7818608E-02  0.1745325E+00
          3   -1    0    0  501    0  0.00000000000E+00  0.00000000000E+00  0.10778080330E+01  0.10818129024E+01  0.93000000000E-01 0. -1.
         -3   -1    0    0    0  501 -0.00000000000E+00 -0.00000000000E+00 -0.92606337042E+02  0.92606383740E+02  0.93000000000E-01 0.  1.
       1023    2    1    2    0    0  0.00000000000E+00  0.00000000000E+00 -0.91528529009E+02  0.93688196642E+02  0.20000164187E+02 0.  0.
        -11    1    3    3    0    0  0.85524985238E+01 -0.51822368002E+01 -0.45629117460E+02  0.46712066639E+02  0.51100000000E-03 0.  1.
         11    1    3    3    0    0 -0.85524985238E+01  0.51822368002E+01 -0.45899411549E+02  0.46976130003E+02  0.51100000000E-03 0. -1.
<mgrwt>
<rscale>  0 0.20000164E+02</rscale>
<asrwt>0</asrwt>
<pdfrwt beam="1">  1        3 0.16612835E-03 0.20000164E+02</pdfrwt>
<pdfrwt beam="2">  1       -3 0.14247434E-01 0.20000164E+02</pdfrwt>
<totfact> 0.14403048E+06</totfact>
</mgrwt>
</event>
<event>
 5    1  0.4133473E-007  0.2000009E+02  0.7818608E-02  0.1745326E+00
         -3   -1    0    0    0  501 -0.00000000000E+00  0.00000000000E+00  0.11463493887E+03  0.11463497659E+03  0.93000000000E-01 0.  1.
          3   -1    0    0  501    0  0.00000000000E+00 -0.00000000000E+00 -0.86982528880E+00  0.87478284907E+00  0.93000000000E-01 0. -1.
       1023    2    1    2    0    0  0.00000000000E+00  0.00000000000E+00  0.11376511358E+03  0.11550975944E+03  0.20000086461E+02 0.  0.
        -11    1    3    3    0    0 -0.42575346113E+01 -0.90484336335E+01  0.56821388694E+02  0.57694635501E+02  0.51100000000E-03 0.  1.
         11    1    3    3    0    0  0.42575346113E+01  0.90484336335E+01  0.56943724884E+02  0.57815123939E+02  0.51100000000E-03 0. -1.
<mgrwt>
<rscale>  0 0.20000086E+02</rscale>
<asrwt>0</asrwt>
<pdfrwt beam="2">  1        3 0.13420346E-03 0.20000086E+02</pdfrwt>
<pdfrwt beam="1">  1       -3 0.17636538E-01 0.20000086E+02</pdfrwt>
<totfact> 0.13665242E+06</totfact>
</mgrwt>
</event>
<event>
 5    1  0.4133473E-007  0.2000123E+02  0.7818608E-02  0.1745304E+00
         -3   -1    0    0    0  501 -0.00000000000E+00  0.00000000000E+00  0.11244141074E+01  0.11282535552E+01  0.93000000000E-01 0.  1.
          3   -1    0    0  501    0  0.00000000000E+00 -0.00000000000E+00 -0.88790691693E+02  0.88790740398E+02  0.93000000000E-01 0. -1.
       1023    2    1    2    0    0  0.00000000000E+00  0.00000000000E+00 -0.87666277586E+02  0.89918993953E+02  0.20001231155E+02 0.  0.
        -11    1    3    3    0    0 -0.12870716214E+01  0.99172958059E+01 -0.43586809879E+02  0.44719339275E+02  0.51100000000E-03 0. -1.
         11    1    3    3    0    0  0.12870716214E+01 -0.99172958059E+01 -0.44079467706E+02  0.45199654678E+02  0.51100000000E-03 0.  1.
<mgrwt>
<rscale>  0 0.20001231E+02</rscale>
<asrwt>0</asrwt>
<pdfrwt beam="2">  1        3 0.13660400E-01 0.20001231E+02</pdfrwt>
<pdfrwt beam="1">  1       -3 0.17328594E-03 0.20001231E+02</pdfrwt>
<totfact> 0.14535176E+06</totfact>
</mgrwt>
</event>
<event>
 5    1  0.4133473E-007  0.2000028E+02  0.7818608E-02  0.1745322E+00
         -3   -1    0    0    0  501 -0.00000000000E+00  0.00000000000E+00  0.39202000585E+01  0.39213030358E+01  0.93000000000E-01 0. -1.
          3   -1    0    0  501    0  0.00000000000E+00 -0.00000000000E+00 -0.25504847141E+02  0.25505016697E+02  0.93000000000E-01 0.  1.
       1023    2    1    2    0    0  0.00000000000E+00  0.00000000000E+00 -0.21584647083E+02  0.29426319732E+02  0.20000282581E+02 0.  0.
        -11    1    3    3    0    0 -0.15578090354E+01 -0.98780142274E+01 -0.10748393625E+02  0.14680936613E+02  0.51100000000E-03 0. -1.
         11    1    3    3    0    0  0.15578090354E+01  0.98780142274E+01 -0.10836253458E+02  0.14745383119E+02  0.51100000000E-03 0.  1.
<mgrwt>
<rscale>  0 0.20000283E+02</rscale>
<asrwt>0</asrwt>
<pdfrwt beam="2">  1        3 0.39239204E-02 0.20000283E+02</pdfrwt>
<pdfrwt beam="1">  1       -3 0.60320560E-03 0.20000283E+02</pdfrwt>
<totfact> 0.17299445E+06</totfact>
</mgrwt>
</event>
<event>
 4    1  0.4133473E-007  0.2036600E+02  0.7818608E-02  0.1738146E+00
         -3   -1    0    0    0  501 -0.00000000000E+00  0.00000000000E+00  0.82572388745E+02  0.82572441117E+02  0.93000000000E-01 0. -1.
          3   -1    0    0  501    0  0.00000000000E+00 -0.00000000000E+00 -0.12540141846E+01  0.12574579815E+01  0.93000000000E-01 0.  1.
        -11    1    1    2    0    0  0.10145446095E+02  0.56900963813E+00  0.37929956872E+02  0.39267486258E+02  0.51100000000E-03 0.  1.
         11    1    1    2    0    0 -0.10145446095E+02 -0.56900963813E+00  0.43388417688E+02  0.44562412841E+02  0.51100000000E-03 0. -1.
<mgrwt>
<rscale>  0 0.20366000E+02</rscale>
<asrwt>0</asrwt>
<pdfrwt beam="2">  1        3 0.19319419E-03 0.20366000E+02</pdfrwt>
<pdfrwt beam="1">  1       -3 0.12703714E-01 0.20366000E+02</pdfrwt>
<totfact> 0.14201814E+06</totfact>
</mgrwt>
</event>
<event>
 5    1  0.4133473E-007  0.2000283E+02  0.7818608E-02  0.1745272E+00
         -3   -1    0    0    0  501 -0.00000000000E+00  0.00000000000E+00  0.15904888329E+01  0.15932054882E+01  0.93000000000E-01 0. -1.
          3   -1    0    0  501    0  0.00000000000E+00 -0.00000000000E+00 -0.62835151345E+02  0.62835220168E+02  0.93000000000E-01 0.  1.
       1023    2    1    2    0    0  0.00000000000E+00  0.00000000000E+00 -0.61244662512E+02  0.64428425656E+02  0.20002833457E+02 0.  0.
        -11    1    3    3    0    0 -0.42330208264E+01  0.90613009580E+01 -0.30789571889E+02  0.32373189180E+02  0.51100000000E-03 0. -1.
         11    1    3    3    0    0  0.42330208264E+01 -0.90613009580E+01 -0.30455090624E+02  0.32055236476E+02  0.51100000000E-03 0.  1.
<mgrwt>
<rscale>  0 0.20002833E+02</rscale>
<asrwt>0</asrwt>
<pdfrwt beam="2">  1        3 0.96671587E-02 0.20002833E+02</pdfrwt>
<pdfrwt beam="1">  1       -3 0.24490491E-03 0.20002833E+02</pdfrwt>
<totfact> 0.15544379E+06</totfact>
</mgrwt>
</event>
<event>
 5    1  0.4291853E-007  0.2000141E+02  0.7818608E-02  0.1745300E+00
          3   -1    0    0  501    0  0.00000000000E+00  0.00000000000E+00  0.42234538010E+01  0.42244776019E+01  0.93000000000E-01 0. -1.
         -3   -1    0    0    0  501 -0.00000000000E+00 -0.00000000000E+00 -0.23676661455E+02  0.23676844102E+02  0.93000000000E-01 0.  1.
       1023    2    1    2    0    0  0.00000000000E+00  0.00000000000E+00 -0.19453207654E+02  0.27901321704E+02  0.20001411571E+02 0.  0.
        -11    1    3    3    0    0 -0.38230087104E+00 -0.99932813756E+01 -0.96598588018E+01  0.13904125249E+02  0.51100000000E-03 0.  1.
         11    1    3    3    0    0  0.38230087104E+00  0.99932813756E+01 -0.97933488521E+01  0.13997196455E+02  0.51100000000E-03 0. -1.
<mgrwt>
<rscale>  0 0.20001412E+02</rscale>
<asrwt>0</asrwt>
<pdfrwt beam="1">  1        3 0.64985494E-03 0.20001412E+02</pdfrwt>
<pdfrwt beam="2">  1       -3 0.36426560E-02 0.20001412E+02</pdfrwt>
<totfact> 0.17389211E+06</totfact>
</mgrwt>
</event>
<event>
 5    1  0.4133473E-007  0.2001088E+02  0.7818608E-02  0.1745112E+00
         -3   -1    0    0    0  501 -0.00000000000E+00  0.00000000000E+00  0.10726830290E+03  0.10726834321E+03  0.93000000000E-01 0.  1.
          3   -1    0    0  501    0  0.00000000000E+00 -0.00000000000E+00 -0.93089931867E+00  0.93553329257E+00  0.93000000000E-01 0. -1.
       1023    2    1    2    0    0  0.00000000000E+00  0.00000000000E+00  0.10633740358E+03  0.10820387651E+03  0.20010884308E+02 0.  0.
        -11    1    3    3    0    0  0.98779707142E+00 -0.99559410832E+01  0.53770014681E+02  0.54692878740E+02  0.51100000000E-03 0.  1.
         11    1    3    3    0    0 -0.98779707142E+00  0.99559410832E+01  0.52567388901E+02  0.53510997767E+02  0.51100000000E-03 0. -1.
<mgrwt>
<rscale>  0 0.20010884E+02</rscale>
<asrwt>0</asrwt>
<pdfrwt beam="2">  1        3 0.14357485E-03 0.20010884E+02</pdfrwt>
<pdfrwt beam="1">  1       -3 0.16503174E-01 0.20010884E+02</pdfrwt>
<totfact> 0.13886758E+06</totfact>
</mgrwt>
</event>
<event>
 5    1  0.4177925E-007  0.2000081E+02  0.7818608E-02  0.1745312E+00
         -3   -1    0    0    0  501 -0.00000000000E+00  0.00000000000E+00  0.28531710245E+02  0.28531861813E+02  0.93000000000E-01 0.  1.
          3   -1    0    0  501    0  0.00000000000E+00 -0.00000000000E+00 -0.35043770526E+01  0.35056108636E+01  0.93000000000E-01 0. -1.
       1023    2    1    2    0    0  0.00000000000E+00  0.00000000000E+00  0.25027333192E+02  0.32037472676E+02  0.20000806203E+02 0.  0.
        -11    1    3    3    0    0 -0.96139431144E+01 -0.27525288180E+01  0.12415643877E+02  0.15942162031E+02  0.51100000000E-03 0.  1.
         11    1    3    3    0    0  0.96139431144E+01  0.27525288180E+01  0.12611689316E+02  0.16095310645E+02  0.51100000000E-03 0. -1.
<mgrwt>
<rscale>  0 0.20000806E+02</rscale>
<asrwt>0</asrwt>
<pdfrwt beam="2">  1        3 0.53924151E-03 0.20000806E+02</pdfrwt>
<pdfrwt beam="1">  1       -3 0.43896004E-02 0.20000806E+02</pdfrwt>
<totfact> 0.17149076E+06</totfact>
</mgrwt>
</event>
<event>
 5    1  0.4133473E-007  0.2000312E+02  0.7818608E-02  0.1745266E+00
          3   -1    0    0  501    0  0.00000000000E+00  0.00000000000E+00  0.37601755361E+01  0.37613254396E+01  0.93000000000E-01 0.  1.
         -3   -1    0    0    0  501 -0.00000000000E+00 -0.00000000000E+00 -0.26597501399E+02  0.26597663989E+02  0.93000000000E-01 0. -1.
       1023    2    1    2    0    0  0.00000000000E+00  0.00000000000E+00 -0.22837325862E+02  0.30358989428E+02  0.20003119420E+02 0.  0.
        -11    1    3    3    0    0 -0.28533424685E+00  0.99970923133E+01 -0.11283543680E+02  0.15077852254E+02  0.51100000000E-03 0.  1.
         11    1    3    3    0    0  0.28533424685E+00 -0.99970923133E+01 -0.11553782183E+02  0.15281137175E+02  0.51100000000E-03 0. -1.
<mgrwt>
<rscale>  0 0.20003119E+02</rscale>
<asrwt>0</asrwt>
<pdfrwt beam="1">  1        3 0.57858952E-03 0.20003119E+02</pdfrwt>
<pdfrwt beam="2">  1       -3 0.40920241E-02 0.20003119E+02</pdfrwt>
<totfact> 0.17241411E+06</totfact>
</mgrwt>
</event>
<event>
 5    1  0.4133473E-007  0.2000451E+02  0.7818608E-02  0.1745238E+00
         -3   -1    0    0    0  501 -0.00000000000E+00  0.00000000000E+00  0.44074880038E+02  0.44074978155E+02  0.93000000000E-01 0.  1.
          3   -1    0    0  501    0  0.00000000000E+00 -0.00000000000E+00 -0.22688353698E+01  0.22707406139E+01  0.93000000000E-01 0. -1.
       1023    2    1    2    0    0  0.00000000000E+00  0.00000000000E+00  0.41806044668E+02  0.46345718769E+02  0.20004506428E+02 0.  0.
        -11    1    3    3    0    0  0.43629508062E+00 -0.99916601770E+01  0.20563771814E+02  0.22866839265E+02  0.51100000000E-03 0. -1.
         11    1    3    3    0    0 -0.43629508062E+00  0.99916601770E+01  0.21242272854E+02  0.23478879504E+02  0.51100000000E-03 0.  1.
<mgrwt>
<rscale>  0 0.20004506E+02</rscale>
<asrwt>0</asrwt>
<pdfrwt beam="2">  1        3 0.34920573E-03 0.20004506E+02</pdfrwt>
<pdfrwt beam="1">  1       -3 0.67809044E-02 0.20004506E+02</pdfrwt>
<totfact> 0.16380973E+06</totfact>
</mgrwt>
</event>
<event>
 5    1  0.4133473E-007  0.2000015E+02  0.7818608E-02  0.1745325E+00
         -3   -1    0    0    0  501 -0.00000000000E+00  0.00000000000E+00  0.23073834602E+02  0.23074022021E+02  0.93000000000E-01 0.  1.
          3   -1    0    0  501    0  0.00000000000E+00 -0.00000000000E+00 -0.43332722520E+01  0.43342701127E+01  0.93000000000E-01 0. -1.
       1023    2    1    2    0    0  0.00000000000E+00  0.00000000000E+00  0.18740562350E+02  0.27408292134E+02  0.20000145012E+02 0.  0.
        -11    1    3    3    0    0  0.54895102250E+01  0.83586106266E+01  0.93444335958E+01  0.13686472650E+02  0.51100000000E-03 0. -1.
         11    1    3    3    0    0 -0.54895102250E+01 -0.83586106266E+01  0.93961287541E+01  0.13721819484E+02  0.51100000000E-03 0.  1.
<mgrwt>
<rscale>  0 0.20000145E+02</rscale>
<asrwt>0</asrwt>
<pdfrwt beam="2">  1        3 0.66674843E-03 0.20000145E+02</pdfrwt>
<pdfrwt beam="1">  1       -3 0.35499120E-02 0.20000145E+02</pdfrwt>
<totfact> 0.17421075E+06</totfact>
</mgrwt>
</event>
<event>
 5    1  0.4223564E-007  0.2000302E+02  0.7818608E-02  0.1745268E+00
         -3   -1    0    0    0  501 -0.00000000000E+00  0.00000000000E+00  0.10903826315E+02  0.10904222912E+02  0.93000000000E-01 0.  1.
          3   -1    0    0  501    0  0.00000000000E+00 -0.00000000000E+00 -0.91730635639E+01  0.91735349864E+01  0.93000000000E-01 0. -1.
       1023    2    1    2    0    0  0.00000000000E+00  0.00000000000E+00  0.17307627515E+01  0.20077757898E+02  0.20003020335E+02 0.  0.
        -11    1    3    3    0    0  0.21117625682E+01 -0.97753474691E+01  0.98090302703E+00  0.10048837261E+02  0.51100000000E-03 0.  1.
         11    1    3    3    0    0 -0.21117625682E+01  0.97753474691E+01  0.74985972451E+00  0.10028920638E+02  0.51100000000E-03 0. -1.
<mgrwt>
<rscale>  0 0.20003020E+02</rscale>
<asrwt>0</asrwt>
<pdfrwt beam="2">  1        3 0.14113073E-02 0.20003020E+02</pdfrwt>
<pdfrwt beam="1">  1       -3 0.16775785E-02 0.20003020E+02</pdfrwt>
<totfact> 0.17874830E+06</totfact>
</mgrwt>
</event>
<event>
 5    1  0.4133473E-007  0.2000761E+02  0.7818608E-02  0.1745177E+00
          3   -1    0    0  501    0  0.00000000000E+00  0.00000000000E+00  0.22536338228E+02  0.22536530117E+02  0.93000000000E-01 0. -1.
         -3   -1    0    0    0  501 -0.00000000000E+00 -0.00000000000E+00 -0.44399589001E+01  0.44409327888E+01  0.93000000000E-01 0.  1.
       1023    2    1    2    0    0  0.00000000000E+00  0.00000000000E+00  0.18096379328E+02  0.26977462906E+02  0.20007612553E+02 0.  0.
        -11    1    3    3    0    0 -0.75116565978E+01 -0.66033178216E+01  0.87547899538E+01  0.13291920045E+02  0.51100000000E-03 0. -1.
         11    1    3    3    0    0  0.75116565978E+01  0.66033178216E+01  0.93415893742E+01  0.13685542861E+02  0.51100000000E-03 0.  1.
<mgrwt>
<rscale>  0 0.20007613E+02</rscale>
<asrwt>0</asrwt>
<pdfrwt beam="1">  1        3 0.34672186E-02 0.20007613E+02</pdfrwt>
<pdfrwt beam="2">  1       -3 0.68316028E-03 0.20007613E+02</pdfrwt>
<totfact> 0.17431523E+06</totfact>
</mgrwt>
</event>
<event>
 5    1  0.4133473E-007  0.2000353E+02  0.7818608E-02  0.1745258E+00
          3   -1    0    0  501    0  0.00000000000E+00  0.00000000000E+00  0.15119717939E+01  0.15148292662E+01  0.93000000000E-01 0. -1.
         -3   -1    0    0    0  501 -0.00000000000E+00 -0.00000000000E+00 -0.66096810143E+02  0.66096875570E+02  0.93000000000E-01 0.  1.
       1023    2    1    2    0    0  0.00000000000E+00  0.00000000000E+00 -0.64584838349E+02  0.67611704836E+02  0.20003531844E+02 0.  0.
        -11    1    3    3    0    0 -0.85090476661E+01  0.52551921805E+01 -0.31887042294E+02  0.33418623603E+02  0.51100000000E-03 0.  1.
         11    1    3    3    0    0  0.85090476661E+01 -0.52551921805E+01 -0.32697796055E+02  0.34193081233E+02  0.51100000000E-03 0. -1.
<mgrwt>
<rscale>  0 0.20003532E+02</rscale>
<asrwt>0</asrwt>
<pdfrwt beam="1">  1        3 0.23283593E-03 0.20003532E+02</pdfrwt>
<pdfrwt beam="2">  1       -3 0.10168963E-01 0.20003532E+02</pdfrwt>
<totfact> 0.15410121E+06</totfact>
</mgrwt>
</event>
<event>
 5    1  0.4133473E-007  0.2000266E+02  0.7818608E-02  0.1745275E+00
          3   -1    0    0  501    0  0.00000000000E+00  0.00000000000E+00  0.15322031310E+01  0.15350229427E+01  0.93000000000E-01 0.  1.
         -3   -1    0    0    0  501 -0.00000000000E+00 -0.00000000000E+00 -0.65219981964E+02  0.65220048271E+02  0.93000000000E-01 0. -1.
       1023    2    1    2    0    0  0.00000000000E+00  0.00000000000E+00 -0.63687778833E+02  0.66755071213E+02  0.20002658823E+02 0.  0.
        -11    1    3    3    0    0  0.99365056635E+01  0.11368135475E+01 -0.31810534916E+02  0.33345713693E+02  0.51100000000E-03 0. -1.
         11    1    3    3    0    0 -0.99365056635E+01 -0.11368135475E+01 -0.31877243918E+02  0.33409357520E+02  0.51100000000E-03 0.  1.
<mgrwt>
<rscale>  0 0.20002659E+02</rscale>
<asrwt>0</asrwt>
<pdfrwt beam="1">  1        3 0.23594562E-03 0.20002659E+02</pdfrwt>
<pdfrwt beam="2">  1       -3 0.10034063E-01 0.20002659E+02</pdfrwt>
<totfact> 0.15447842E+06</totfact>
</mgrwt>
</event>
<event>
 5    1  0.4190277E-007  0.2000237E+02  0.7818608E-02  0.1745281E+00
         -3   -1    0    0    0  501 -0.00000000000E+00  0.00000000000E+00  0.13427821061E+02  0.13428143112E+02  0.93000000000E-01 0. -1.
          3   -1    0    0  501    0  0.00000000000E+00 -0.00000000000E+00 -0.74482843737E+01  0.74488649546E+01  0.93000000000E-01 0.  1.
       1023    2    1    2    0    0  0.00000000000E+00  0.00000000000E+00  0.59795366871E+01  0.20877008067E+02  0.20002365031E+02 0.  0.
        -11    1    3    3    0    0  0.30796397803E+01  0.95151787087E+01  0.29594389368E+01  0.10429817166E+02  0.51100000000E-03 0. -1.
         11    1    3    3    0    0 -0.30796397803E+01 -0.95151787087E+01  0.30200977503E+01  0.10447190901E+02  0.51100000000E-03 0.  1.
<mgrwt>
<rscale>  0 0.20002365E+02</rscale>
<asrwt>0</asrwt>
<pdfrwt beam="2">  1        3 0.11459593E-02 0.20002365E+02</pdfrwt>
<pdfrwt beam="1">  1       -3 0.20658881E-02 0.20002365E+02</pdfrwt>
<totfact> 0.17824083E+06</totfact>
</mgrwt>
</event>
<event>
 5    1  0.4133473E-007  0.2000494E+02  0.7818608E-02  0.1745230E+00
         -3   -1    0    0    0  501 -0.00000000000E+00  0.00000000000E+00  0.61563368867E+02  0.61563439112E+02  0.93000000000E-01 0.  1.
          3   -1    0    0  501    0  0.00000000000E+00 -0.00000000000E+00 -0.16237426240E+01  0.16264037349E+01  0.93000000000E-01 0. -1.
       1023    2    1    2    0    0  0.00000000000E+00  0.00000000000E+00  0.59939626243E+02  0.63189842847E+02  0.20004935512E+02 0.  0.
        -11    1    3    3    0    0 -0.79677060128E+01  0.60450347734E+01  0.30444424017E+02  0.32045120354E+02  0.51100000000E-03 0.  1.
         11    1    3    3    0    0  0.79677060128E+01 -0.60450347734E+01  0.29495202226E+02  0.31144722493E+02  0.51100000000E-03 0. -1.
<mgrwt>
<rscale>  0 0.20004936E+02</rscale>
<asrwt>0</asrwt>
<pdfrwt beam="2">  1        3 0.25001668E-03 0.20004936E+02</pdfrwt>
<pdfrwt beam="1">  1       -3 0.94714971E-02 0.20004936E+02</pdfrwt>
<totfact> 0.15597418E+06</totfact>
</mgrwt>
</event>
<event>
 5    1  0.4133473E-007  0.2000100E+02  0.7818608E-02  0.1745308E+00
          3   -1    0    0  501    0  0.00000000000E+00  0.00000000000E+00  0.83442143182E+00  0.83958806916E+00  0.93000000000E-01 0.  1.
         -3   -1    0    0    0  501 -0.00000000000E+00 -0.00000000000E+00 -0.11948043257E+03  0.11948046877E+03  0.93000000000E-01 0. -1.
       1023    2    1    2    0    0  0.00000000000E+00  0.00000000000E+00 -0.11864601114E+03  0.12032005684E+03  0.20001002910E+02 0.  0.
        -11    1    3    3    0    0 -0.56355762875E+01  0.82612921280E+01 -0.59101045711E+02  0.59941156747E+02  0.51100000000E-03 0.  1.
         11    1    3    3    0    0  0.56355762875E+01 -0.82612921280E+01 -0.59544965429E+02  0.60378900089E+02  0.51100000000E-03 0. -1.
<mgrwt>
<rscale>  0 0.20001003E+02</rscale>
<asrwt>0</asrwt>
<pdfrwt beam="1">  1        3 0.12877284E-03 0.20001003E+02</pdfrwt>
<pdfrwt beam="2">  1       -3 0.18381992E-01 0.20001003E+02</pdfrwt>
<totfact> 0.13512217E+06</totfact>
</mgrwt>
</event>
<event>
 5    1  0.4133473E-007  0.2000073E+02  0.7818608E-02  0.1745314E+00
         -3   -1    0    0    0  501 -0.00000000000E+00  0.00000000000E+00  0.10646727333E+01  0.10687268262E+01  0.93000000000E-01 0. -1.
          3   -1    0    0  501    0  0.00000000000E+00 -0.00000000000E+00 -0.93749880925E+02  0.93749927053E+02  0.93000000000E-01 0.  1.
       1023    2    1    2    0    0  0.00000000000E+00  0.00000000000E+00 -0.92685208191E+02  0.94818653879E+02  0.20000732635E+02 0.  0.
        -11    1    3    3    0    0  0.97184297206E+00  0.99526700736E+01 -0.46745034604E+02  0.47802702651E+02  0.51100000000E-03 0.  1.
         11    1    3    3    0    0 -0.97184297206E+00 -0.99526700736E+01 -0.45940173587E+02  0.47015951228E+02  0.51100000000E-03 0. -1.
<mgrwt>
<rscale>  0 0.20000733E+02</rscale>
<asrwt>0</asrwt>
<pdfrwt beam="2">  1        3 0.14423367E-01 0.20000733E+02</pdfrwt>
<pdfrwt beam="1">  1       -3 0.16411128E-03 0.20000733E+02</pdfrwt>
<totfact> 0.14358875E+06</totfact>
</mgrwt>
</event>
<event>
 5    1  0.4133473E-007  0.2000011E+02  0.7818608E-02  0.1745326E+00
         -3   -1    0    0    0  501 -0.00000000000E+00  0.00000000000E+00  0.38093250465E+01  0.38104601178E+01  0.93000000000E-01 0.  1.
          3   -1    0    0  501    0  0.00000000000E+00 -0.00000000000E+00 -0.26246531675E+02  0.26246696439E+02  0.93000000000E-01 0. -1.
       1023    2    1    2    0    0  0.00000000000E+00  0.00000000000E+00 -0.22437206628E+02  0.30057156557E+02  0.20000110474E+02 0.  0.
        -11    1    3    3    0    0  0.60748816841E+01  0.79433563538E+01 -0.11214670549E+02  0.15025642530E+02  0.51100000000E-03 0.  1.
         11    1    3    3    0    0 -0.60748816841E+01 -0.79433563538E+01 -0.11222536079E+02  0.15031514027E+02  0.51100000000E-03 0. -1.
<mgrwt>
<rscale>  0 0.20000110E+02</rscale>
<asrwt>0</asrwt>
<pdfrwt beam="2">  1        3 0.40380278E-02 0.20000110E+02</pdfrwt>
<pdfrwt beam="1">  1       -3 0.58615001E-03 0.20000110E+02</pdfrwt>
<totfact> 0.17262853E+06</totfact>
</mgrwt>
</event>
<event>
 5    1  0.4133473E-007  0.2000065E+02  0.7818608E-02  0.1745315E+00
          3   -1    0    0  501    0  0.00000000000E+00  0.00000000000E+00  0.89560227464E+02  0.89560275750E+02  0.93000000000E-01 0.  1.
         -3   -1    0    0    0  501 -0.00000000000E+00 -0.00000000000E+00 -0.11146550700E+01  0.11185280171E+01  0.93000000000E-01 0. -1.
       1023    2    1    2    0    0  0.00000000000E+00  0.00000000000E+00  0.88445572394E+02  0.90678803767E+02  0.20000654402E+02 0.  0.
        -11    1    3    3    0    0  0.65365394637E+00 -0.99787983940E+01  0.44465375875E+02  0.45576017079E+02  0.51100000000E-03 0. -1.
         11    1    3    3    0    0 -0.65365394637E+00  0.99787983940E+01  0.43980196519E+02  0.45102786688E+02  0.51100000000E-03 0.  1.
<mgrwt>
<rscale>  0 0.20000654E+02</rscale>
<asrwt>0</asrwt>
<pdfrwt beam="1">  1        3 0.13778793E-01 0.20000654E+02</pdfrwt>
<pdfrwt beam="2">  1       -3 0.17178710E-03 0.20000654E+02</pdfrwt>
<totfact> 0.14508284E+06</totfact>
</mgrwt>
</event>
<event>
 4    1  0.4133473E-007  0.2003873E+02  0.7818608E-02  0.1744559E+00
          3   -1    0    0  501    0  0.00000000000E+00  0.00000000000E+00  0.62779008555E+01  0.62785896626E+01  0.93000000000E-01 0.  1.
         -3   -1    0    0    0  501 -0.00000000000E+00 -0.00000000000E+00 -0.15988936918E+02  0.15989207384E+02  0.93000000000E-01 0. -1.
        -11    1    1    2    0    0  0.10008198385E+02  0.27444329529E+00 -0.44276023537E+01  0.10947283540E+02  0.51100000000E-03 0.  1.
         11    1    1    2    0    0 -0.10008198385E+02 -0.27444329529E+00 -0.52834337093E+01  0.11320513507E+02  0.51100000000E-03 0. -1.
<mgrwt>
<rscale>  0 0.20038727E+02</rscale>
<asrwt>0</asrwt>
<pdfrwt beam="1">  1        3 0.96590470E-03 0.20038727E+02</pdfrwt>
<pdfrwt beam="2">  1       -3 0.24599102E-02 0.20038727E+02</pdfrwt>
<totfact> 0.17665367E+06</totfact>
</mgrwt>
</event>
<event>
 5    1  0.4133473E-007  0.2000076E+02  0.7818608E-02  0.1745313E+00
          3   -1    0    0  501    0  0.00000000000E+00  0.00000000000E+00  0.53293939578E+02  0.53294020722E+02  0.93000000000E-01 0.  1.
         -3   -1    0    0    0  501 -0.00000000000E+00 -0.00000000000E+00 -0.18752940780E+01  0.18775987002E+01  0.93000000000E-01 0. -1.
       1023    2    1    2    0    0  0.00000000000E+00  0.00000000000E+00  0.51418645500E+02  0.55171619422E+02  0.20000762102E+02 0.  0.
        -11    1    3    3    0    0 -0.98303915562E+01 -0.18357743151E+01  0.25624058796E+02  0.27506345721E+02  0.51100000000E-03 0. -1.
         11    1    3    3    0    0  0.98303915562E+01  0.18357743151E+01  0.25794586704E+02  0.27665273701E+02  0.51100000000E-03 0.  1.
<mgrwt>
<rscale>  0 0.20000762E+02</rscale>
<asrwt>0</asrwt>
<pdfrwt beam="1">  1        3 0.81992516E-02 0.20000762E+02</pdfrwt>
<pdfrwt beam="2">  1       -3 0.28869028E-03 0.20000762E+02</pdfrwt>
<totfact> 0.15961529E+06</totfact>
</mgrwt>
</event>
<event>
 5    1  0.4133473E-007  0.2000170E+02  0.7818608E-02  0.1745294E+00
         -3   -1    0    0    0  501 -0.00000000000E+00  0.00000000000E+00  0.99771342565E+00  0.10020384622E+01  0.93000000000E-01 0. -1.
          3   -1    0    0  501    0  0.00000000000E+00 -0.00000000000E+00 -0.10002507294E+03  0.10002511618E+03  0.93000000000E-01 0.  1.
       1023    2    1    2    0    0  0.00000000000E+00  0.00000000000E+00 -0.99027359517E+02  0.10102715464E+03  0.20001700966E+02 0.  0.
        -11    1    3    3    0    0  0.90957596233E+01 -0.41563179652E+01 -0.49997830934E+02  0.50988144902E+02  0.51100000000E-03 0. -1.
         11    1    3    3    0    0 -0.90957596233E+01  0.41563179652E+01 -0.49029528583E+02  0.50039009737E+02  0.51100000000E-03 0.  1.
<mgrwt>
<rscale>  0 0.20001701E+02</rscale>
<asrwt>0</asrwt>
<pdfrwt beam="2">  1        3 0.15388801E-01 0.20001701E+02</pdfrwt>
<pdfrwt beam="1">  1       -3 0.15383047E-03 0.20001701E+02</pdfrwt>
<totfact> 0.14139991E+06</totfact>
</mgrwt>
</event>
<event>
 5    1  0.4232214E-007  0.2000117E+02  0.7818608E-02  0.1745305E+00
         -3   -1    0    0    0  501 -0.00000000000E+00  0.00000000000E+00  0.39699614909E+01  0.39710506468E+01  0.93000000000E-01 0.  1.
          3   -1    0    0  501    0  0.00000000000E+00 -0.00000000000E+00 -0.25187483770E+02  0.25187655462E+02  0.93000000000E-01 0. -1.
       1023    2    1    2    0    0  0.00000000000E+00  0.00000000000E+00 -0.21217522279E+02  0.29158706109E+02  0.20001172222E+02 0.  0.
        -11    1    3    3    0    0 -0.68464703799E+01 -0.72893863358E+01 -0.10680366514E+02  0.14631457171E+02  0.51100000000E-03 0.  1.
         11    1    3    3    0    0  0.68464703799E+01  0.72893863358E+01 -0.10537155765E+02  0.14527248937E+02  0.51100000000E-03 0. -1.
<mgrwt>
<rscale>  0 0.20001172E+02</rscale>
<asrwt>0</asrwt>
<pdfrwt beam="2">  1        3 0.38750944E-02 0.20001172E+02</pdfrwt>
<pdfrwt beam="1">  1       -3 0.61086031E-03 0.20001172E+02</pdfrwt>
<totfact> 0.17313528E+06</totfact>
</mgrwt>
</event>
<event>
 5    1  0.4133473E-007  0.2000250E+02  0.7818608E-02  0.1745278E+00
          3   -1    0    0  501    0  0.00000000000E+00  0.00000000000E+00  0.19311332938E+02  0.19311556873E+02  0.93000000000E-01 0. -1.
         -3   -1    0    0    0  501 -0.00000000000E+00 -0.00000000000E+00 -0.51789297152E+01  0.51797646659E+01  0.93000000000E-01 0.  1.
       1023    2    1    2    0    0  0.00000000000E+00  0.00000000000E+00  0.14132403223E+02  0.24491321539E+02  0.20002500090E+02 0.  0.
        -11    1    3    3    0    0  0.59173587753E+01 -0.80628088911E+01  0.71045340007E+01  0.12267779983E+02  0.51100000000E-03 0. -1.
         11    1    3    3    0    0 -0.59173587753E+01  0.80628088911E+01  0.70278692223E+01  0.12223541555E+02  0.51100000000E-03 0.  1.
<mgrwt>
<rscale>  0 0.20002500E+02</rscale>
<asrwt>0</asrwt>
<pdfrwt beam="1">  1        3 0.29710557E-02 0.20002500E+02</pdfrwt>
<pdfrwt beam="2">  1       -3 0.79683987E-03 0.20002500E+02</pdfrwt>
<totfact> 0.17593448E+06</totfact>
</mgrwt>
</event>
<event>
 5    1  0.4133473E-007  0.2000300E+02  0.7818608E-02  0.1745268E+00
          3   -1    0    0  501    0  0.00000000000E+00  0.00000000000E+00  0.64344416120E+01  0.64351136632E+01  0.93000000000E-01 0. -1.
         -3   -1    0    0    0  501 -0.00000000000E+00 -0.00000000000E+00 -0.15544409247E+02  0.15544687447E+02  0.93000000000E-01 0.  1.
       1023    2    1    2    0    0  0.00000000000E+00  0.00000000000E+00 -0.91099676348E+01  0.21979801110E+02  0.20003003438E+02 0.  0.
        -11    1    3    3    0    0  0.42577858048E+01 -0.90498891103E+01 -0.45238363156E+01  0.10976990851E+02  0.51100000000E-03 0. -1.
         11    1    3    3    0    0 -0.42577858048E+01  0.90498891103E+01 -0.45861313192E+01  0.11002810260E+02  0.51100000000E-03 0.  1.
<mgrwt>
<rscale>  0 0.20003003E+02</rscale>
<asrwt>0</asrwt>
<pdfrwt beam="1">  1        3 0.98998720E-03 0.20003003E+02</pdfrwt>
<pdfrwt beam="2">  1       -3 0.23915207E-02 0.20003003E+02</pdfrwt>
<totfact> 0.17751780E+06</totfact>
</mgrwt>
</event>
<event>
 5    1  0.4143924E-007  0.2000108E+02  0.7818608E-02  0.1745307E+00
          3   -1    0    0  501    0  0.00000000000E+00  0.00000000000E+00  0.37417634616E+02  0.37417750190E+02  0.93000000000E-01 0.  1.
         -3   -1    0    0    0  501 -0.00000000000E+00 -0.00000000000E+00 -0.26718961988E+01  0.26735142224E+01  0.93000000000E-01 0. -1.
       1023    2    1    2    0    0  0.00000000000E+00  0.00000000000E+00  0.34745738418E+02  0.40091264412E+02  0.20001078571E+02 0.  0.
        -11    1    3    3    0    0  0.90383130657E+01  0.42801307336E+01  0.17398505153E+02  0.20067850010E+02  0.51100000000E-03 0.  1.
         11    1    3    3    0    0 -0.90383130657E+01 -0.42801307336E+01  0.17347233264E+02  0.20023414403E+02  0.51100000000E-03 0. -1.
<mgrwt>
<rscale>  0 0.20001079E+02</rscale>
<asrwt>0</asrwt>
<pdfrwt beam="1">  1        3 0.57566923E-02 0.20001079E+02</pdfrwt>
<pdfrwt beam="2">  1       -3 0.41119433E-03 0.20001079E+02</pdfrwt>
<totfact> 0.16705072E+06</totfact>
</mgrwt>
</event>
<event>
 5    1  0.4133473E-007  0.2000031E+02  0.7818608E-02  0.1745322E+00
          3   -1    0    0  501    0  0.00000000000E+00  0.00000000000E+00  0.75276702414E+01  0.75282447000E+01  0.93000000000E-01 0. -1.
         -3   -1    0    0    0  501 -0.00000000000E+00 -0.00000000000E+00 -0.13283496251E+02  0.13283821801E+02  0.93000000000E-01 0.  1.
       1023    2    1    2    0    0  0.00000000000E+00  0.00000000000E+00 -0.57558260092E+01  0.20812066501E+02  0.20000314472E+02 0.  0.
        -11    1    3    3    0    0 -0.45414066628E+01 -0.89094311290E+01 -0.28483528860E+01  0.10397858046E+02  0.51100000000E-03 0.  1.
         11    1    3    3    0    0  0.45414066628E+01  0.89094311290E+01 -0.29074731232E+01  0.10414208455E+02  0.51100000000E-03 0. -1.
<mgrwt>
<rscale>  0 0.20000314E+02</rscale>
<asrwt>0</asrwt>
<pdfrwt beam="1">  1        3 0.11581724E-02 0.20000314E+02</pdfrwt>
<pdfrwt beam="2">  1       -3 0.20436840E-02 0.20000314E+02</pdfrwt>
<totfact> 0.17832249E+06</totfact>
</mgrwt>
</event>
<event>
 4    1  0.4133473E-007  0.2006064E+02  0.7818608E-02  0.1744125E+00
          3   -1    0    0  501    0  0.00000000000E+00  0.00000000000E+00  0.28892080669E+01  0.28907044564E+01  0.93000000000E-01 0.  1.
         -3   -1    0    0    0  501 -0.00000000000E+00 -0.00000000000E+00 -0.34811200949E+02  0.34811325176E+02  0.93000000000E-01 0. -1.
        -11    1    1    2    0    0  0.36079984761E+00 -0.10021513004E+02 -0.16366061262E+02  0.19193979809E+02  0.51100000000E-03 0. -1.
         11    1    1    2    0    0 -0.36079984761E+00  0.10021513004E+02 -0.15555931621E+02  0.18508049824E+02  0.51100000000E-03 0.  1.
<mgrwt>
<rscale>  0 0.20060643E+02</rscale>
<asrwt>0</asrwt>
<pdfrwt beam="1">  1        3 0.44461824E-03 0.20060643E+02</pdfrwt>
<pdfrwt beam="2">  1       -3 0.53556937E-02 0.20060643E+02</pdfrwt>
<totfact> 0.16727277E+06</totfact>
</mgrwt>
</event>
<event>
 5    1  0.4465702E-007  0.2000152E+02  0.7818608E-02  0.1745298E+00
          3   -1    0    0  501    0  0.00000000000E+00  0.00000000000E+00  0.48724510395E+02  0.48724599149E+02  0.93000000000E-01 0. -1.
         -3   -1    0    0    0  501 -0.00000000000E+00 -0.00000000000E+00 -0.20515236205E+01  0.20536304841E+01  0.93000000000E-01 0.  1.
       1023    2    1    2    0    0  0.00000000000E+00  0.00000000000E+00  0.46672986774E+02  0.50778229633E+02  0.20001522698E+02 0.  0.
        -11    1    3    3    0    0 -0.99796832828E+01 -0.64595166748E+00  0.23494940961E+02  0.25534752456E+02  0.51100000000E-03 0.  1.
         11    1    3    3    0    0  0.99796832828E+01  0.64595166748E+00  0.23178045813E+02  0.25243477176E+02  0.51100000000E-03 0. -1.
<mgrwt>
<rscale>  0 0.20001523E+02</rscale>
<asrwt>0</asrwt>
<pdfrwt beam="1">  1        3 0.74962470E-02 0.20001523E+02</pdfrwt>
<pdfrwt beam="2">  1       -3 0.31578793E-03 0.20001523E+02</pdfrwt>
<totfact> 0.16167100E+06</totfact>
</mgrwt>
</event>
<event>
 5    1  0.4133473E-007  0.2000714E+02  0.7818608E-02  0.1745186E+00
         -3   -1    0    0    0  501 -0.00000000000E+00  0.00000000000E+00  0.27055475932E+01  0.27071455039E+01  0.93000000000E-01 0. -1.
          3   -1    0    0  501    0  0.00000000000E+00 -0.00000000000E+00 -0.36974922743E+02  0.36975039700E+02  0.93000000000E-01 0.  1.
       1023    2    1    2    0    0  0.00000000000E+00  0.00000000000E+00 -0.34269375149E+02  0.39682185204E+02  0.20007142460E+02 0.  0.
        -11    1    3    3    0    0 -0.35893547688E+01 -0.93372149867E+01 -0.17003337121E+02  0.19727658880E+02  0.51100000000E-03 0. -1.
         11    1    3    3    0    0  0.35893547688E+01  0.93372149867E+01 -0.17266038028E+02  0.19954526324E+02  0.51100000000E-03 0.  1.
<mgrwt>
<rscale>  0 0.20007142E+02</rscale>
<asrwt>0</asrwt>
<pdfrwt beam="2">  1        3 0.56885812E-02 0.20007142E+02</pdfrwt>
<pdfrwt beam="1">  1       -3 0.41637003E-03 0.20007142E+02</pdfrwt>
<totfact> 0.16715774E+06</totfact>
</mgrwt>
</event>
<event>
 5    1  0.4133473E-007  0.2000030E+02  0.7818608E-02  0.1745322E+00
          3   -1    0    0  501    0  0.00000000000E+00  0.00000000000E+00  0.10145749563E+01  0.10188284164E+01  0.93000000000E-01 0.  1.
         -3   -1    0    0    0  501 -0.00000000000E+00 -0.00000000000E+00 -0.98355980267E+02  0.98356024235E+02  0.93000000000E-01 0. -1.
       1023    2    1    2    0    0  0.00000000000E+00  0.00000000000E+00 -0.97341405310E+02  0.99374852651E+02  0.20000303787E+02 0.  0.
        -11    1    3    3    0    0  0.40532430272E+01 -0.91418344645E+01 -0.48504328559E+02  0.49524456642E+02  0.51100000000E-03 0. -1.
         11    1    3    3    0    0 -0.40532430272E+01  0.91418344645E+01 -0.48837076751E+02  0.49850396009E+02  0.51100000000E-03 0.  1.
<mgrwt>
<rscale>  0 0.20000304E+02</rscale>
<asrwt>0</asrwt>
<pdfrwt beam="1">  1        3 0.15641910E-03 0.20000304E+02</pdfrwt>
<pdfrwt beam="2">  1       -3 0.15132012E-01 0.20000304E+02</pdfrwt>
<totfact> 0.14202086E+06</totfact>
</mgrwt>
</event>
<event>
 5    1  0.4133473E-007  0.2000124E+02  0.7818608E-02  0.1745303E+00
         -3   -1    0    0    0  501 -0.00000000000E+00  0.00000000000E+00  0.14569334933E+01  0.14598986965E+01  0.93000000000E-01 0.  1.
          3   -1    0    0  501    0  0.00000000000E+00 -0.00000000000E+00 -0.68573046716E+02  0.68573109781E+02  0.93000000000E-01 0. -1.
       1023    2    1    2    0    0  0.00000000000E+00  0.00000000000E+00 -0.67116113223E+02  0.70033008477E+02  0.20001240516E+02 0.  0.
        -11    1    3    3    0    0  0.22667942069E+00 -0.99975665069E+01 -0.33902652761E+02  0.35346747858E+02  0.51100000000E-03 0. -1.
         11    1    3    3    0    0 -0.22667942069E+00  0.99975665069E+01 -0.33213460462E+02  0.34686260619E+02  0.51100000000E-03 0.  1.
<mgrwt>
<rscale>  0 0.20001241E+02</rscale>
<asrwt>0</asrwt>
<pdfrwt beam="2">  1        3 0.10549930E-01 0.20001241E+02</pdfrwt>
<pdfrwt beam="1">  1       -3 0.22437661E-03 0.20001241E+02</pdfrwt>
<totfact> 0.15309660E+06</totfact>
</mgrwt>
</event>
<event>
 5    1  0.4223793E-007  0.2000069E+02  0.7818608E-02  0.1745314E+00
          3   -1    0    0  501    0  0.00000000000E+00  0.00000000000E+00  0.19276907074E+02  0.19277131409E+02  0.93000000000E-01 0. -1.
         -3   -1    0    0    0  501 -0.00000000000E+00 -0.00000000000E+00 -0.51872426329E+01  0.51880762458E+01  0.93000000000E-01 0.  1.
       1023    2    1    2    0    0  0.00000000000E+00  0.00000000000E+00  0.14089664441E+02  0.24465207654E+02  0.20000693526E+02 0.  0.
        -11    1    3    3    0    0  0.94320635535E+01 -0.33221550793E+01  0.69469910941E+01  0.12176256517E+02  0.51100000000E-03 0. -1.
         11    1    3    3    0    0 -0.94320635535E+01  0.33221550793E+01  0.71426733471E+01  0.12288951137E+02  0.51100000000E-03 0.  1.
<mgrwt>
<rscale>  0 0.20000694E+02</rscale>
<asrwt>0</asrwt>
<pdfrwt beam="1">  1        3 0.29657594E-02 0.20000694E+02</pdfrwt>
<pdfrwt beam="2">  1       -3 0.79811870E-03 0.20000694E+02</pdfrwt>
<totfact> 0.17598496E+06</totfact>
</mgrwt>
</event>
<event>
 5    1  0.4184297E-007  0.2000258E+02  0.7818608E-02  0.1745277E+00
         -3   -1    0    0    0  501 -0.00000000000E+00  0.00000000000E+00  0.14877437915E+02  0.14877728588E+02  0.93000000000E-01 0. -1.
          3   -1    0    0  501    0  0.00000000000E+00 -0.00000000000E+00 -0.67226451562E+01  0.67232883990E+01  0.93000000000E-01 0.  1.
       1023    2    1    2    0    0  0.00000000000E+00  0.00000000000E+00  0.81547927592E+01  0.21601016987E+02  0.20002582081E+02 0.  0.
        -11    1    3    3    0    0  0.76676104909E+01 -0.64204275155E+01  0.41941172397E+01  0.10844572827E+02  0.51100000000E-03 0.  1.
         11    1    3    3    0    0 -0.76676104909E+01  0.64204275155E+01  0.39606755194E+01  0.10756444159E+02  0.51100000000E-03 0. -1.
<mgrwt>
<rscale>  0 0.20002582E+02</rscale>
<asrwt>0</asrwt>
<pdfrwt beam="2">  1        3 0.10343250E-02 0.20002582E+02</pdfrwt>
<pdfrwt beam="1">  1       -3 0.22889084E-02 0.20002582E+02</pdfrwt>
<totfact> 0.17776859E+06</totfact>
</mgrwt>
</event>
<event>
 5    1  0.4133473E-007  0.2000234E+02  0.7818608E-02  0.1745281E+00
          3   -1    0    0  501    0  0.00000000000E+00  0.00000000000E+00  0.61038514700E+02  0.61038585549E+02  0.93000000000E-01 0. -1.
         -3   -1    0    0    0  501 -0.00000000000E+00 -0.00000000000E+00 -0.16373023766E+01  0.16399414844E+01  0.93000000000E-01 0.  1.
       1023    2    1    2    0    0  0.00000000000E+00  0.00000000000E+00  0.59401212323E+02  0.62678527033E+02  0.20002343001E+02 0.  0.
        -11    1    3    3    0    0 -0.99181732681E+01 -0.12806156888E+01  0.30061898954E+02  0.31681665147E+02  0.51100000000E-03 0. -1.
         11    1    3    3    0    0  0.99181732681E+01  0.12806156888E+01  0.29339313369E+02  0.30996861886E+02  0.51100000000E-03 0.  1.
<mgrwt>
<rscale>  0 0.20002343E+02</rscale>
<asrwt>0</asrwt>
<pdfrwt beam="1">  1        3 0.93907498E-02 0.20002343E+02</pdfrwt>
<pdfrwt beam="2">  1       -3 0.25210112E-03 0.20002343E+02</pdfrwt>
<totfact> 0.15621285E+06</totfact>
</mgrwt>
</event>
<event>
 5    1  0.4133473E-007  0.2000044E+02  0.7818608E-02  0.1745319E+00
          3   -1    0    0  501    0  0.00000000000E+00  0.00000000000E+00  0.27905110574E+02  0.27905265545E+02  0.93000000000E-01 0.  1.
         -3   -1    0    0    0  501 -0.00000000000E+00 -0.00000000000E+00 -0.35829619723E+01  0.35841687314E+01  0.93000000000E-01 0. -1.
       1023    2    1    2    0    0  0.00000000000E+00  0.00000000000E+00  0.24322148602E+02  0.31489434277E+02  0.20000438957E+02 0.  0.
        -11    1    3    3    0    0  0.65368606183E+01 -0.75678707933E+01  0.12107122144E+02  0.15703044990E+02  0.51100000000E-03 0. -1.
         11    1    3    3    0    0 -0.65368606183E+01  0.75678707933E+01  0.12215026458E+02  0.15786389287E+02  0.51100000000E-03 0.  1.
<mgrwt>
<rscale>  0 0.20000439E+02</rscale>
<asrwt>0</asrwt>
<pdfrwt beam="1">  1        3 0.42931988E-02 0.20000439E+02</pdfrwt>
<pdfrwt beam="2">  1       -3 0.55132965E-03 0.20000439E+02</pdfrwt>
<totfact> 0.17179360E+06</totfact>
</mgrwt>
</event>
<event>
 5    1  0.4133473E-007  0.2000244E+02  0.7818608E-02  0.1745280E+00
         -3   -1    0    0    0  501 -0.00000000000E+00  0.00000000000E+00  0.10003490220E+01  0.10046627124E+01  0.93000000000E-01 0. -1.
          3   -1    0    0  501    0  0.00000000000E+00 -0.00000000000E+00 -0.99770053926E+02  0.99770097271E+02  0.93000000000E-01 0.  1.
       1023    2    1    2    0    0  0.00000000000E+00  0.00000000000E+00 -0.98769704904E+02  0.10077475998E+03  0.20002440922E+02 0.  0.
        -11    1    3    3    0    0 -0.36292535469E+01  0.93188337546E+01 -0.49942847995E+02  0.50934273431E+02  0.51100000000E-03 0.  1.
         11    1    3    3    0    0  0.36292535469E+01 -0.93188337546E+01 -0.48826856909E+02  0.49840486552E+02  0.51100000000E-03 0. -1.
<mgrwt>
<rscale>  0 0.20002441E+02</rscale>
<asrwt>0</asrwt>
<pdfrwt beam="2">  1        3 0.15349566E-01 0.20002441E+02</pdfrwt>
<pdfrwt beam="1">  1       -3 0.15423509E-03 0.20002441E+02</pdfrwt>
<totfact> 0.14147560E+06</totfact>
</mgrwt>
</event>
<event>
 5    1  0.4133473E-007  0.2000082E+02  0.7818608E-02  0.1745312E+00
          3   -1    0    0  501    0  0.00000000000E+00  0.00000000000E+00  0.38271167088E+02  0.38271280084E+02  0.93000000000E-01 0. -1.
         -3   -1    0    0    0  501 -0.00000000000E+00 -0.00000000000E+00 -0.26122031519E+01  0.26138581267E+01  0.93000000000E-01 0.  1.
       1023    2    1    2    0    0  0.00000000000E+00  0.00000000000E+00  0.35658963936E+02  0.40885138211E+02  0.20000820421E+02 0.  0.
        -11    1    3    3    0    0  0.12891471148E+01 -0.99167241904E+01  0.17972357336E+02  0.20567181319E+02  0.51100000000E-03 0.  1.
         11    1    3    3    0    0 -0.12891471148E+01  0.99167241904E+01  0.17686606600E+02  0.20317956892E+02  0.51100000000E-03 0. -1.
<mgrwt>
<rscale>  0 0.20000820E+02</rscale>
<asrwt>0</asrwt>
<pdfrwt beam="1">  1        3 0.58880076E-02 0.20000820E+02</pdfrwt>
<pdfrwt beam="2">  1       -3 0.40201342E-03 0.20000820E+02</pdfrwt>
<totfact> 0.16663868E+06</totfact>
</mgrwt>
</event>
<event>
 5    1  0.4135321E-007  0.2000247E+02  0.7818608E-02  0.1745279E+00
          3   -1    0    0  501    0  0.00000000000E+00  0.00000000000E+00  0.26250215947E+01  0.26266684931E+01  0.93000000000E-01 0.  1.
         -3   -1    0    0    0  501 -0.00000000000E+00 -0.00000000000E+00 -0.38090687791E+02  0.38090801323E+02  0.93000000000E-01 0. -1.
       1023    2    1    2    0    0  0.00000000000E+00  0.00000000000E+00 -0.35465666197E+02  0.40717469816E+02  0.20002471583E+02 0.  0.
        -11    1    3    3    0    0  0.93849648057E+01 -0.34553226157E+01 -0.17551922360E+02  0.20201158322E+02  0.51100000000E-03 0.  1.
         11    1    3    3    0    0 -0.93849648057E+01  0.34553226157E+01 -0.17913743837E+02  0.20516311493E+02  0.51100000000E-03 0. -1.
<mgrwt>
<rscale>  0 0.20002472E+02</rscale>
<asrwt>0</asrwt>
<pdfrwt beam="1">  1        3 0.40398492E-03 0.20002472E+02</pdfrwt>
<pdfrwt beam="2">  1       -3 0.58602409E-02 0.20002472E+02</pdfrwt>
<totfact> 0.16671948E+06</totfact>
</mgrwt>
</event>
<event>
 5    1  0.4133473E-007  0.2000041E+02  0.7818608E-02  0.1745320E+00
          3   -1    0    0  501    0  0.00000000000E+00  0.00000000000E+00  0.56885122502E+02  0.56885198524E+02  0.93000000000E-01 0.  1.
         -3   -1    0    0    0  501 -0.00000000000E+00 -0.00000000000E+00 -0.17566937626E+01  0.17591537669E+01  0.93000000000E-01 0. -1.
       1023    2    1    2    0    0  0.00000000000E+00  0.00000000000E+00  0.55128428740E+02  0.58644352291E+02  0.20000410003E+02 0.  0.
        -11    1    3    3    0    0 -0.76613201154E+01 -0.64270278088E+01  0.27447389041E+02  0.29212354883E+02  0.51100000000E-03 0. -1.
         11    1    3    3    0    0  0.76613201154E+01  0.64270278088E+01  0.27681039699E+02  0.29431997408E+02  0.51100000000E-03 0.  1.
<mgrwt>
<rscale>  0 0.20000410E+02</rscale>
<asrwt>0</asrwt>
<pdfrwt beam="1">  1        3 0.87517533E-02 0.20000410E+02</pdfrwt>
<pdfrwt beam="2">  1       -3 0.27045563E-03 0.20000410E+02</pdfrwt>
<totfact> 0.15803689E+06</totfact>
</mgrwt>
</event>
<event>
 5    1  0.4264465E-007  0.2000091E+02  0.7818608E-02  0.1745310E+00
         -3   -1    0    0    0  501 -0.00000000000E+00  0.00000000000E+00  0.63027990190E+01  0.63034851054E+01  0.93000000000E-01 0. -1.
          3   -1    0    0  501    0  0.00000000000E+00 -0.00000000000E+00 -0.15865726950E+02  0.15865999516E+02  0.93000000000E-01 0.  1.
       1023    2    1    2    0    0  0.00000000000E+00  0.00000000000E+00 -0.95629279306E+01  0.22169484621E+02  0.20000911424E+02 0.  0.
        -11    1    3    3    0    0 -0.98423559461E+01 -0.17707812667E+01 -0.47388607088E+01  0.11066365164E+02  0.51100000000E-03 0.  1.
         11    1    3    3    0    0  0.98423559461E+01  0.17707812667E+01 -0.48240672218E+01  0.11103119457E+02  0.51100000000E-03 0. -1.
<mgrwt>
<rscale>  0 0.20000911E+02</rscale>
<asrwt>0</asrwt>
<pdfrwt beam="2">  1        3 0.24409548E-02 0.20000911E+02</pdfrwt>
<pdfrwt beam="1">  1       -3 0.96973514E-03 0.20000911E+02</pdfrwt>
<totfact> 0.17742857E+06</totfact>
</mgrwt>
</event>
<event>
 5    1  0.4133473E-007  0.2000027E+02  0.7818608E-02  0.1745323E+00
          3   -1    0    0  501    0  0.00000000000E+00  0.00000000000E+00  0.10116800452E+03  0.10116804727E+03  0.93000000000E-01 0. -1.
         -3   -1    0    0    0  501 -0.00000000000E+00 -0.00000000000E+00 -0.98625097656E+00  0.99062605900E+00  0.93000000000E-01 0.  1.
       1023    2    1    2    0    0  0.00000000000E+00  0.00000000000E+00  0.10018175355E+03  0.10215867333E+03  0.20000269809E+02 0.  0.
        -11    1    3    3    0    0  0.99296799843E+01  0.11847735945E+01  0.49980756657E+02  0.50971347533E+02  0.51100000000E-03 0.  1.
         11    1    3    3    0    0 -0.99296799843E+01 -0.11847735945E+01  0.50200996889E+02  0.51187325794E+02  0.51100000000E-03 0. -1.
<mgrwt>
<rscale>  0 0.20000270E+02</rscale>
<asrwt>0</asrwt>
<pdfrwt beam="1">  1        3 0.15564650E-01 0.20000270E+02</pdfrwt>
<pdfrwt beam="2">  1       -3 0.15207074E-03 0.20000270E+02</pdfrwt>
<totfact> 0.14103334E+06</totfact>
</mgrwt>
</event>
<event>
 5    1  0.4133473E-007  0.2000053E+02  0.7818608E-02  0.1745318E+00
          3   -1    0    0  501    0  0.00000000000E+00  0.00000000000E+00  0.13443061258E+01  0.13475191872E+01  0.93000000000E-01 0.  1.
         -3   -1    0    0    0  501 -0.00000000000E+00 -0.00000000000E+00 -0.74299700340E+02  0.74299758543E+02  0.93000000000E-01 0. -1.
       1023    2    1    2    0    0  0.00000000000E+00  0.00000000000E+00 -0.72955394214E+02  0.75647277730E+02  0.20000527071E+02 0.  0.
        -11    1    3    3    0    0 -0.30205197362E+00 -0.99957005893E+01 -0.36486027082E+02  0.37831672421E+02  0.51100000000E-03 0.  1.
         11    1    3    3    0    0  0.30205197362E+00  0.99957005893E+01 -0.36469367131E+02  0.37815605309E+02  0.51100000000E-03 0. -1.
<mgrwt>
<rscale>  0 0.20000527E+02</rscale>
<asrwt>0</asrwt>
<pdfrwt beam="1">  1        3 0.20706802E-03 0.20000527E+02</pdfrwt>
<pdfrwt beam="2">  1       -3 0.11430972E-01 0.20000527E+02</pdfrwt>
<totfact> 0.15085023E+06</totfact>
</mgrwt>
</event>
<event>
 5    1  0.4133473E-007  0.2000018E+02  0.7818608E-02  0.1745324E+00
         -3   -1    0    0    0  501 -0.00000000000E+00  0.00000000000E+00  0.40031623504E+01  0.40042424757E+01  0.93000000000E-01 0.  1.
          3   -1    0    0  501    0  0.00000000000E+00 -0.00000000000E+00 -0.24976166607E+02  0.24976339752E+02  0.93000000000E-01 0. -1.
       1023    2    1    2    0    0  0.00000000000E+00  0.00000000000E+00 -0.20973004257E+02  0.28980582227E+02  0.20000180966E+02 0.  0.
        -11    1    3    3    0    0 -0.99990402206E+01 -0.14110087296E+00 -0.10438561369E+02  0.14455596788E+02  0.51100000000E-03 0.  1.
         11    1    3    3    0    0  0.99990402206E+01  0.14110087296E+00 -0.10534442888E+02  0.14524985439E+02  0.51100000000E-03 0. -1.
<mgrwt>
<rscale>  0 0.20000181E+02</rscale>
<asrwt>0</asrwt>
<pdfrwt beam="2">  1        3 0.38425835E-02 0.20000181E+02</pdfrwt>
<pdfrwt beam="1">  1       -3 0.61596755E-03 0.20000181E+02</pdfrwt>
<totfact> 0.17325879E+06</totfact>
</mgrwt>
</event>
<event>
 5    1  0.4133473E-007  0.2000035E+02  0.7818608E-02  0.1745321E+00
          3   -1    0    0  501    0  0.00000000000E+00  0.00000000000E+00  0.11750429617E+02  0.11750797641E+02  0.93000000000E-01 0. -1.
         -3   -1    0    0    0  501 -0.00000000000E+00 -0.00000000000E+00 -0.85098713294E+01  0.85103794888E+01  0.93000000000E-01 0.  1.
       1023    2    1    2    0    0  0.00000000000E+00  0.00000000000E+00  0.32405582878E+01  0.20261177129E+02  0.20000352013E+02 0.  0.
        -11    1    3    3    0    0  0.76164345506E+00 -0.99711111788E+01  0.16395271239E+01  0.10133667073E+02  0.51100000000E-03 0.  1.
         11    1    3    3    0    0 -0.76164345506E+00  0.99711111788E+01  0.16010311639E+01  0.10127510056E+02  0.51100000000E-03 0. -1.
<mgrwt>
<rscale>  0 0.20000352E+02</rscale>
<asrwt>0</asrwt>
<pdfrwt beam="1">  1        3 0.18078258E-02 0.20000352E+02</pdfrwt>
<pdfrwt beam="2">  1       -3 0.13092784E-02 0.20000352E+02</pdfrwt>
<totfact> 0.17867708E+06</totfact>
</mgrwt>
</event>
<event>
 5    1  0.4133473E-007  0.2000391E+02  0.7818608E-02  0.1745250E+00
         -3   -1    0    0    0  501 -0.00000000000E+00  0.00000000000E+00  0.10705061186E+01  0.10745382031E+01  0.93000000000E-01 0. -1.
          3   -1    0    0  501    0  0.00000000000E+00 -0.00000000000E+00 -0.93270616206E+02  0.93270662571E+02  0.93000000000E-01 0.  1.
       1023    2    1    2    0    0  0.00000000000E+00  0.00000000000E+00 -0.92200110087E+02  0.94345200774E+02  0.20003914842E+02 0.  0.
        -11    1    3    3    0    0 -0.30871001679E+01 -0.95127441616E+01 -0.45491244475E+02  0.46577632111E+02  0.51100000000E-03 0.  1.
         11    1    3    3    0    0  0.30871001679E+01  0.95127441616E+01 -0.46708865612E+02  0.47767568663E+02  0.51100000000E-03 0. -1.
<mgrwt>
<rscale>  0 0.20003915E+02</rscale>
<asrwt>0</asrwt>
<pdfrwt beam="2">  1        3 0.14349633E-01 0.20003915E+02</pdfrwt>
<pdfrwt beam="1">  1       -3 0.16500705E-03 0.20003915E+02</pdfrwt>
<totfact> 0.14370860E+06</totfact>
</mgrwt>
</event>
<event>
 5    1  0.4133473E-007  0.2000807E+02  0.7818608E-02  0.1745168E+00
          3   -1    0    0  501    0  0.00000000000E+00  0.00000000000E+00  0.86489444517E+02  0.86489494517E+02  0.93000000000E-01 0.  1.
         -3   -1    0    0    0  501 -0.00000000000E+00 -0.00000000000E+00 -0.11552245773E+01  0.11589619597E+01  0.93000000000E-01 0. -1.
       1023    2    1    2    0    0  0.00000000000E+00  0.00000000000E+00  0.85334219940E+02  0.87648456477E+02  0.20008069124E+02 0.  0.
        -11    1    3    3    0    0  0.12977754050E+01  0.99168658198E+01  0.43668533645E+02  0.44799210703E+02  0.51100000000E-03 0.  1.
         11    1    3    3    0    0 -0.12977754050E+01 -0.99168658198E+01  0.41665686295E+02  0.42849245774E+02  0.51100000000E-03 0. -1.
<mgrwt>
<rscale>  0 0.20008069E+02</rscale>
<asrwt>0</asrwt>
<pdfrwt beam="1">  1        3 0.13306360E-01 0.20008069E+02</pdfrwt>
<pdfrwt beam="2">  1       -3 0.17801819E-03 0.20008069E+02</pdfrwt>
<totfact> 0.14608239E+06</totfact>
</mgrwt>
</event>
<event>
 5    1  0.4133473E-007  0.2000085E+02  0.7818608E-02  0.1745311E+00
          3   -1    0    0  501    0  0.00000000000E+00  0.00000000000E+00  0.22680374537E+02  0.22680565208E+02  0.93000000000E-01 0. -1.
         -3   -1    0    0    0  501 -0.00000000000E+00 -0.00000000000E+00 -0.44087748375E+01  0.44097556132E+01  0.93000000000E-01 0.  1.
       1023    2    1    2    0    0  0.00000000000E+00  0.00000000000E+00  0.18271599700E+02  0.27090320821E+02  0.20000853147E+02 0.  0.
        -11    1    3    3    0    0  0.48482153749E+01 -0.87466129246E+01  0.91221596695E+01  0.13535960523E+02  0.51100000000E-03 0. -1.
         11    1    3    3    0    0 -0.48482153749E+01  0.87466129246E+01  0.91494400303E+01  0.13554360299E+02  0.51100000000E-03 0.  1.
<mgrwt>
<rscale>  0 0.20000853E+02</rscale>
<asrwt>0</asrwt>
<pdfrwt beam="1">  1        3 0.34893785E-02 0.20000853E+02</pdfrwt>
<pdfrwt beam="2">  1       -3 0.67836317E-03 0.20000853E+02</pdfrwt>
<totfact> 0.17437402E+06</totfact>
</mgrwt>
</event>
<event>
 5    1  0.4258950E-007  0.2000056E+02  0.7818608E-02  0.1745317E+00
          3   -1    0    0  501    0  0.00000000000E+00  0.00000000000E+00  0.83476230972E+01  0.83481411328E+01  0.93000000000E-01 0. -1.
         -3   -1    0    0    0  501 -0.00000000000E+00 -0.00000000000E+00 -0.11979064428E+02  0.11979425427E+02  0.93000000000E-01 0.  1.
       1023    2    1    2    0    0  0.00000000000E+00  0.00000000000E+00 -0.36314413308E+01  0.20327566560E+02  0.20000564895E+02 0.  0.
        -11    1    3    3    0    0  0.44543574455E+01 -0.89533083750E+01 -0.18677202242E+01  0.10173072801E+02  0.51100000000E-03 0.  1.
         11    1    3    3    0    0 -0.44543574455E+01  0.89533083750E+01 -0.17637211066E+01  0.10154493760E+02  0.51100000000E-03 0. -1.
<mgrwt>
<rscale>  0 0.20000565E+02</rscale>
<asrwt>0</asrwt>
<pdfrwt beam="1">  1        3 0.12843173E-02 0.20000565E+02</pdfrwt>
<pdfrwt beam="2">  1       -3 0.18430006E-02 0.20000565E+02</pdfrwt>
<totfact> 0.17863253E+06</totfact>
</mgrwt>
</event>
<event>
 5    1  0.4133473E-007  0.2001122E+02  0.7818608E-02  0.1745105E+00
         -3   -1    0    0    0  501 -0.00000000000E+00  0.00000000000E+00  0.36571625366E+02  0.36571743613E+02  0.93000000000E-01 0.  1.
          3   -1    0    0  501    0  0.00000000000E+00 -0.00000000000E+00 -0.27365159804E+01  0.27380958184E+01  0.93000000000E-01 0. -1.
       1023    2    1    2    0    0  0.00000000000E+00  0.00000000000E+00  0.33835109386E+02  0.39309839432E+02  0.20011218079E+02 0.  0.
        -11    1    3    3    0    0  0.61339435746E+01 -0.79022258092E+01  0.17319057358E+02  0.20000504607E+02  0.51100000000E-03 0. -1.
         11    1    3    3    0    0 -0.61339435746E+01  0.79022258092E+01  0.16516052027E+02  0.19309334824E+02  0.51100000000E-03 0.  1.
<mgrwt>
<rscale>  0 0.20011218E+02</rscale>
<asrwt>0</asrwt>
<pdfrwt beam="2">  1        3 0.42113313E-03 0.20011218E+02</pdfrwt>
<pdfrwt beam="1">  1       -3 0.56265339E-02 0.20011218E+02</pdfrwt>
<totfact> 0.16730370E+06</totfact>
</mgrwt>
</event>
<event>
 5    1  0.4133473E-007  0.2000029E+02  0.7818608E-02  0.1745322E+00
         -3   -1    0    0    0  501 -0.00000000000E+00  0.00000000000E+00  0.25734838751E+02  0.25735006791E+02  0.93000000000E-01 0. -1.
          3   -1    0    0  501    0  0.00000000000E+00 -0.00000000000E+00 -0.38851590716E+01  0.38862719940E+01  0.93000000000E-01 0.  1.
       1023    2    1    2    0    0  0.00000000000E+00  0.00000000000E+00  0.21849679680E+02  0.29621278785E+02  0.20000291367E+02 0.  0.
        -11    1    3    3    0    0 -0.98670370767E+01 -0.16260583032E+01  0.10955449622E+02  0.14833218227E+02  0.51100000000E-03 0.  1.
         11    1    3    3    0    0  0.98670370767E+01  0.16260583032E+01  0.10894230058E+02  0.14788060559E+02  0.51100000000E-03 0. -1.
<mgrwt>
<rscale>  0 0.20000291E+02</rscale>
<asrwt>0</asrwt>
<pdfrwt beam="2">  1        3 0.59781529E-03 0.20000291E+02</pdfrwt>
<pdfrwt beam="1">  1       -3 0.39593046E-02 0.20000291E+02</pdfrwt>
<totfact> 0.17289644E+06</totfact>
</mgrwt>
</event>
<event>
 5    1  0.4133473E-007  0.2000042E+02  0.7818608E-02  0.1745320E+00
          3   -1    0    0  501    0  0.00000000000E+00  0.00000000000E+00  0.52290811939E+01  0.52299081380E+01  0.93000000000E-01 0.  1.
         -3   -1    0    0    0  501 -0.00000000000E+00 -0.00000000000E+00 -0.19122177180E+02  0.19122403329E+02  0.93000000000E-01 0. -1.
       1023    2    1    2    0    0  0.00000000000E+00  0.00000000000E+00 -0.13893095986E+02  0.24352311467E+02  0.20000423939E+02 0.  0.
        -11    1    3    3    0    0  0.66626571310E+01 -0.74574254906E+01 -0.69546409203E+01  0.12180772783E+02  0.51100000000E-03 0. -1.
         11    1    3    3    0    0 -0.66626571310E+01  0.74574254906E+01 -0.69384550655E+01  0.12171538685E+02  0.51100000000E-03 0.  1.
<mgrwt>
<rscale>  0 0.20000424E+02</rscale>
<asrwt>0</asrwt>
<pdfrwt beam="1">  1        3 0.80455505E-03 0.20000424E+02</pdfrwt>
<pdfrwt beam="2">  1       -3 0.29419544E-02 0.20000424E+02</pdfrwt>
<totfact> 0.17607189E+06</totfact>
</mgrwt>
</event>
<event>
 5    1  0.4133473E-007  0.2000222E+02  0.7818608E-02  0.1745284E+00
         -3   -1    0    0    0  501 -0.00000000000E+00  0.00000000000E+00  0.86794929166E+00  0.87291750635E+00  0.93000000000E-01 0. -1.
          3   -1    0    0  501    0  0.00000000000E+00 -0.00000000000E+00 -0.11490577176E+03  0.11490580940E+03  0.93000000000E-01 0.  1.
       1023    2    1    2    0    0  0.00000000000E+00  0.00000000000E+00 -0.11403782247E+03  0.11577872690E+03  0.20002216118E+02 0.  0.
        -11    1    3    3    0    0 -0.78881594897E+01  0.61479682514E+01 -0.56788221108E+02  0.57662142092E+02  0.51100000000E-03 0. -1.
         11    1    3    3    0    0  0.78881594897E+01 -0.61479682514E+01 -0.57249601361E+02  0.58116584810E+02  0.51100000000E-03 0.  1.
<mgrwt>
<rscale>  0 0.20002216E+02</rscale>
<asrwt>0</asrwt>
<pdfrwt beam="2">  1        3 0.17678184E-01 0.20002216E+02</pdfrwt>
<pdfrwt beam="1">  1       -3 0.13391582E-03 0.20002216E+02</pdfrwt>
<totfact> 0.13650878E+06</totfact>
</mgrwt>
</event>
<event>
 5    1  0.4133473E-007  0.2000078E+02  0.7818608E-02  0.1745313E+00
         -3   -1    0    0    0  501 -0.00000000000E+00  0.00000000000E+00  0.45639768009E+02  0.45639862762E+02  0.93000000000E-01 0. -1.
          3   -1    0    0  501    0  0.00000000000E+00 -0.00000000000E+00 -0.21901593786E+01  0.21921330032E+01  0.93000000000E-01 0.  1.
       1023    2    1    2    0    0  0.00000000000E+00  0.00000000000E+00  0.43449608631E+02  0.47831995765E+02  0.20000783203E+02 0.  0.
        -11    1    3    3    0    0 -0.65381517225E+01 -0.75666977210E+01  0.21901994962E+02  0.24076954249E+02  0.51100000000E-03 0. -1.
         11    1    3    3    0    0  0.65381517225E+01  0.75666977210E+01  0.21547613669E+02  0.23755041516E+02  0.51100000000E-03 0.  1.
<mgrwt>
<rscale>  0 0.20000783E+02</rscale>
<asrwt>0</asrwt>
<pdfrwt beam="2">  1        3 0.33710672E-03 0.20000783E+02</pdfrwt>
<pdfrwt beam="1">  1       -3 0.70216616E-02 0.20000783E+02</pdfrwt>
<totfact> 0.16313978E+06</totfact>
</mgrwt>
</event>
<event>
 5    1  0.4133473E-007  0.2000457E+02  0.7818608E-02  0.1745237E+00
          3   -1    0    0  501    0  0.00000000000E+00  0.00000000000E+00  0.15451132792E+02  0.15451412672E+02  0.93000000000E-01 0. -1.
         -3   -1    0    0    0  501 -0.00000000000E+00 -0.00000000000E+00 -0.64743045961E+01  0.64749725099E+01  0.93000000000E-01 0.  1.
       1023    2    1    2    0    0  0.00000000000E+00  0.00000000000E+00  0.89768281963E+01  0.21926385182E+02  0.20004572545E+02 0.  0.
        -11    1    3    3    0    0  0.43583268180E+01  0.90005405867E+01  0.47103156461E+01  0.11054040766E+02  0.51100000000E-03 0. -1.
         11    1    3    3    0    0 -0.43583268180E+01 -0.90005405867E+01  0.42665125503E+01  0.10872344416E+02  0.51100000000E-03 0.  1.
<mgrwt>
<rscale>  0 0.20004573E+02</rscale>
<asrwt>0</asrwt>
<pdfrwt beam="1">  1        3 0.23771702E-02 0.20004573E+02</pdfrwt>
<pdfrwt beam="2">  1       -3 0.99611978E-03 0.20004573E+02</pdfrwt>
<totfact> 0.17751424E+06</totfact>
</mgrwt>
</event>
<event>
 5    1  0.4181707E-007  0.2000188E+02  0.7818608E-02  0.1745291E+00
         -3   -1    0    0    0  501 -0.00000000000E+00  0.00000000000E+00  0.28715132541E+02  0.28715283140E+02  0.93000000000E-01 0. -1.
          3   -1    0    0  501    0  0.00000000000E+00 -0.00000000000E+00 -0.34823579519E+01  0.34835995615E+01  0.93000000000E-01 0.  1.
       1023    2    1    2    0    0  0.00000000000E+00  0.00000000000E+00  0.25232774589E+02  0.32198882702E+02  0.20001878257E+02 0.  0.
        -11    1    3    3    0    0  0.46103317902E+01  0.88748000798E+01  0.12553060463E+02  0.16049815043E+02  0.51100000000E-03 0. -1.
         11    1    3    3    0    0 -0.46103317902E+01 -0.88748000798E+01  0.12679714126E+02  0.16149067659E+02  0.51100000000E-03 0.  1.
<mgrwt>
<rscale>  0 0.20001878E+02</rscale>
<asrwt>0</asrwt>
<pdfrwt beam="2">  1        3 0.53585447E-03 0.20001878E+02</pdfrwt>
<pdfrwt beam="1">  1       -3 0.44178198E-02 0.20001878E+02</pdfrwt>
<totfact> 0.17137891E+06</totfact>
</mgrwt>
</event>
<event>
 5    1  0.4201484E-007  0.2000149E+02  0.7818608E-02  0.1745298E+00
         -3   -1    0    0    0  501 -0.00000000000E+00  0.00000000000E+00  0.60637053933E+01  0.60644185292E+01  0.93000000000E-01 0.  1.
          3   -1    0    0  501    0  0.00000000000E+00 -0.00000000000E+00 -0.16492206699E+02  0.16492468912E+02  0.93000000000E-01 0. -1.
       1023    2    1    2    0    0  0.00000000000E+00  0.00000000000E+00 -0.10428501305E+02  0.22556887441E+02  0.20001488233E+02 0.  0.
        -11    1    3    3    0    0  0.16285436742E+01  0.98670024551E+01 -0.51345803484E+01  0.11241610541E+02  0.51100000000E-03 0.  1.
         11    1    3    3    0    0 -0.16285436742E+01 -0.98670024551E+01 -0.52939209571E+01  0.11315276899E+02  0.51100000000E-03 0. -1.
<mgrwt>
<rscale>  0 0.20001488E+02</rscale>
<asrwt>0</asrwt>
<pdfrwt beam="2">  1        3 0.25373376E-02 0.20001488E+02</pdfrwt>
<pdfrwt beam="1">  1       -3 0.93295279E-03 0.20001488E+02</pdfrwt>
<totfact> 0.17717022E+06</totfact>
</mgrwt>
</event>
<event>
 5    1  0.4133473E-007  0.2000035E+02  0.7818608E-02  0.1745321E+00
          3   -1    0    0  501    0  0.00000000000E+00  0.00000000000E+00  0.46470282140E+01  0.46479587156E+01  0.93000000000E-01 0. -1.
         -3   -1    0    0    0  501 -0.00000000000E+00 -0.00000000000E+00 -0.21516695439E+02  0.21516896421E+02  0.93000000000E-01 0.  1.
       1023    2    1    2    0    0  0.00000000000E+00  0.00000000000E+00 -0.16869667225E+02  0.26164855137E+02  0.20000349298E+02 0.  0.
        -11    1    3    3    0    0  0.56288309530E+01  0.82655711805E+01 -0.84470999433E+01  0.13090336228E+02  0.51100000000E-03 0. -1.
         11    1    3    3    0    0 -0.56288309530E+01 -0.82655711805E+01 -0.84225672815E+01  0.13074518909E+02  0.51100000000E-03 0.  1.
<mgrwt>
<rscale>  0 0.20000349E+02</rscale>
<asrwt>0</asrwt>
<pdfrwt beam="1">  1        3 0.71501447E-03 0.20000349E+02</pdfrwt>
<pdfrwt beam="2">  1       -3 0.33103478E-02 0.20000349E+02</pdfrwt>
<totfact> 0.17495778E+06</totfact>
</mgrwt>
</event>
<event>
 5    1  0.4133473E-007  0.2000153E+02  0.7818608E-02  0.1745298E+00
         -3   -1    0    0    0  501 -0.00000000000E+00  0.00000000000E+00  0.30193995158E+01  0.30208314147E+01  0.93000000000E-01 0.  1.
          3   -1    0    0  501    0  0.00000000000E+00 -0.00000000000E+00 -0.33114880599E+02  0.33115011190E+02  0.93000000000E-01 0. -1.
       1023    2    1    2    0    0  0.00000000000E+00  0.00000000000E+00 -0.30095481083E+02  0.36135842604E+02  0.20001528419E+02 0.  0.
        -11    1    3    3    0    0 -0.65576583275E+01 -0.75502927023E+01 -0.14913976368E+02  0.17956516756E+02  0.51100000000E-03 0.  1.
         11    1    3    3    0    0  0.65576583275E+01  0.75502927023E+01 -0.15181504715E+02  0.18179325849E+02  0.51100000000E-03 0. -1.
<mgrwt>
<rscale>  0 0.20001528E+02</rscale>
<asrwt>0</asrwt>
<pdfrwt beam="2">  1        3 0.50947170E-02 0.20001528E+02</pdfrwt>
<pdfrwt beam="1">  1       -3 0.46464322E-03 0.20001528E+02</pdfrwt>
<totfact> 0.16916732E+06</totfact>
</mgrwt>
</event>
<event>
 4    1  0.4133473E-007  0.2001921E+02  0.7818608E-02  0.1744946E+00
         -3   -1    0    0    0  501 -0.00000000000E+00  0.00000000000E+00  0.73083930954E+01  0.73089847884E+01  0.93000000000E-01 0. -1.
          3   -1    0    0  501    0  0.00000000000E+00 -0.00000000000E+00 -0.13707886131E+02  0.13708201603E+02  0.93000000000E-01 0.  1.
        -11    1    1    2    0    0  0.97356318735E+01 -0.22857356581E+01 -0.36513502540E+01  0.10646101372E+02  0.51100000000E-03 0.  1.
         11    1    1    2    0    0 -0.97356318735E+01  0.22857356581E+01 -0.27481427817E+01  0.10371085020E+02  0.51100000000E-03 0. -1.
<mgrwt>
<rscale>  0 0.20019206E+02</rscale>
<asrwt>0</asrwt>
<pdfrwt beam="2">  1        3 0.21089753E-02 0.20019206E+02</pdfrwt>
<pdfrwt beam="1">  1       -3 0.11244380E-02 0.20019206E+02</pdfrwt>
<totfact> 0.17782140E+06</totfact>
</mgrwt>
</event>
<event>
 5    1  0.4133473E-007  0.2000835E+02  0.7818608E-02  0.1745162E+00
         -3   -1    0    0    0  501 -0.00000000000E+00  0.00000000000E+00  0.24009799840E+01  0.24027804485E+01  0.93000000000E-01 0.  1.
          3   -1    0    0  501    0  0.00000000000E+00 -0.00000000000E+00 -0.41666960215E+02  0.41667064002E+02  0.93000000000E-01 0. -1.
       1023    2    1    2    0    0  0.00000000000E+00  0.00000000000E+00 -0.39265980231E+02  0.44069844451E+02  0.20008347918E+02 0.  0.
        -11    1    3    3    0    0  0.99986234574E+01  0.17202693416E+00 -0.19004457363E+02  0.21474903125E+02  0.51100000000E-03 0. -1.
         11    1    3    3    0    0 -0.99986234574E+01 -0.17202693416E+00 -0.20261522868E+02  0.22594941326E+02  0.51100000000E-03 0.  1.
<mgrwt>
<rscale>  0 0.20008348E+02</rscale>
<asrwt>0</asrwt>
<pdfrwt beam="2">  1        3 0.64104475E-02 0.20008348E+02</pdfrwt>
<pdfrwt beam="1">  1       -3 0.36952805E-03 0.20008348E+02</pdfrwt>
<totfact> 0.16486269E+06</totfact>
</mgrwt>
</event>
<event>
 5    1  0.4133473E-007  0.2000083E+02  0.7818608E-02  0.1745312E+00
         -3   -1    0    0    0  501 -0.00000000000E+00  0.00000000000E+00  0.83988731750E+00  0.84502053591E+00  0.93000000000E-01 0. -1.
          3   -1    0    0  501    0  0.00000000000E+00 -0.00000000000E+00 -0.11870554958E+03  0.11870558601E+03  0.93000000000E-01 0.  1.
       1023    2    1    2    0    0  0.00000000000E+00  0.00000000000E+00 -0.11786566227E+03  0.11955060655E+03  0.20000829609E+02 0.  0.
        -11    1    3    3    0    0 -0.67884516960E+01  0.73432456446E+01 -0.59197657382E+02  0.60036397067E+02  0.51100000000E-03 0. -1.
         11    1    3    3    0    0  0.67884516960E+01 -0.73432456446E+01 -0.58668004884E+02  0.59514209482E+02  0.51100000000E-03 0.  1.
<mgrwt>
<rscale>  0 0.20000830E+02</rscale>
<asrwt>0</asrwt>
<pdfrwt beam="2">  1        3 0.18262777E-01 0.20000830E+02</pdfrwt>
<pdfrwt beam="1">  1       -3 0.12961119E-03 0.20000830E+02</pdfrwt>
<totfact> 0.13533871E+06</totfact>
</mgrwt>
</event>
<event>
 5    1  0.4133473E-007  0.2000160E+02  0.7818608E-02  0.1745296E+00
         -3   -1    0    0    0  501 -0.00000000000E+00  0.00000000000E+00  0.14849774654E+01  0.14878867809E+01  0.93000000000E-01 0. -1.
          3   -1    0    0  501    0  0.00000000000E+00 -0.00000000000E+00 -0.67282997604E+02  0.67283061877E+02  0.93000000000E-01 0.  1.
       1023    2    1    2    0    0  0.00000000000E+00  0.00000000000E+00 -0.65798020138E+02  0.68770948658E+02  0.20001598066E+02 0.  0.
        -11    1    3    3    0    0  0.99740811175E+01 -0.72554902289E+00 -0.33192081504E+02  0.34665876455E+02  0.51100000000E-03 0. -1.
         11    1    3    3    0    0 -0.99740811175E+01  0.72554902289E+00 -0.32605938634E+02  0.34105072203E+02  0.51100000000E-03 0.  1.
<mgrwt>
<rscale>  0 0.20001598E+02</rscale>
<asrwt>0</asrwt>
<pdfrwt beam="2">  1        3 0.10351457E-01 0.20001598E+02</pdfrwt>
<pdfrwt beam="1">  1       -3 0.22868686E-03 0.20001598E+02</pdfrwt>
<totfact> 0.15361707E+06</totfact>
</mgrwt>
</event>
<event>
 5    1  0.4133473E-007  0.2000099E+02  0.7818608E-02  0.1745308E+00
          3   -1    0    0  501    0  0.00000000000E+00  0.00000000000E+00  0.92147194757E+00  0.92615309218E+00  0.93000000000E-01 0.  1.
         -3   -1    0    0    0  501 -0.00000000000E+00 -0.00000000000E+00 -0.10825310913E+03  0.10825314908E+03  0.93000000000E-01 0. -1.
       1023    2    1    2    0    0  0.00000000000E+00  0.00000000000E+00 -0.10733163719E+03  0.10917930217E+03  0.20000992029E+02 0.  0.
        -11    1    3    3    0    0 -0.76223664077E+01  0.64731920066E+01 -0.53201480876E+02  0.54133171457E+02  0.51100000000E-03 0. -1.
         11    1    3    3    0    0  0.76223664077E+01 -0.64731920066E+01 -0.54130156311E+02  0.55046130717E+02  0.51100000000E-03 0.  1.
<mgrwt>
<rscale>  0 0.20000992E+02</rscale>
<asrwt>0</asrwt>
<pdfrwt beam="1">  1        3 0.14212816E-03 0.20000992E+02</pdfrwt>
<pdfrwt beam="2">  1       -3 0.16654678E-01 0.20000992E+02</pdfrwt>
<totfact> 0.13869261E+06</totfact>
</mgrwt>
</event>
<event>
 5    1  0.4168755E-007  0.2000097E+02  0.7818608E-02  0.1745309E+00
          3   -1    0    0  501    0  0.00000000000E+00  0.00000000000E+00  0.22720040328E+02  0.22720230665E+02  0.93000000000E-01 0.  1.
         -3   -1    0    0    0  501 -0.00000000000E+00 -0.00000000000E+00 -0.44011292829E+01  0.44021117620E+01  0.93000000000E-01 0. -1.
       1023    2    1    2    0    0  0.00000000000E+00  0.00000000000E+00  0.18318911045E+02  0.27122342427E+02  0.20000973898E+02 0.  0.
        -11    1    3    3    0    0  0.87637520850E+01 -0.48172343441E+01  0.91251062495E+01  0.13537971106E+02  0.51100000000E-03 0. -1.
         11    1    3    3    0    0 -0.87637520850E+01  0.48172343441E+01  0.91938047951E+01  0.13584371322E+02  0.51100000000E-03 0.  1.
<mgrwt>
<rscale>  0 0.20000974E+02</rscale>
<asrwt>0</asrwt>
<pdfrwt beam="1">  1        3 0.34954811E-02 0.20000974E+02</pdfrwt>
<pdfrwt beam="2">  1       -3 0.67718702E-03 0.20000974E+02</pdfrwt>
<totfact> 0.17435247E+06</totfact>
</mgrwt>
</event>
<event>
 5    1  0.4133473E-007  0.2000367E+02  0.7818608E-02  0.1745255E+00
         -3   -1    0    0    0  501 -0.00000000000E+00  0.00000000000E+00  0.25104080809E+01  0.25121301186E+01  0.93000000000E-01 0. -1.
          3   -1    0    0  501    0  0.00000000000E+00 -0.00000000000E+00 -0.39833331209E+02  0.39833439773E+02  0.93000000000E-01 0.  1.
       1023    2    1    2    0    0  0.00000000000E+00  0.00000000000E+00 -0.37322923128E+02  0.42345569892E+02  0.20003667131E+02 0.  0.
        -11    1    3    3    0    0  0.44713453963E+01  0.89459711080E+01 -0.18416910892E+02  0.20957240653E+02  0.51100000000E-03 0. -1.
         11    1    3    3    0    0 -0.44713453963E+01 -0.89459711080E+01 -0.18906012236E+02  0.21388329239E+02  0.51100000000E-03 0.  1.
<mgrwt>
<rscale>  0 0.20003667E+02</rscale>
<asrwt>0</asrwt>
<pdfrwt beam="2">  1        3 0.61283451E-02 0.20003667E+02</pdfrwt>
<pdfrwt beam="1">  1       -3 0.38635747E-03 0.20003667E+02</pdfrwt>
<totfact> 0.16582962E+06</totfact>
</mgrwt>
</event>
<event>
 4    1  0.4133473E-007  0.2004127E+02  0.7818608E-02  0.1744509E+00
          3   -1    0    0  501    0  0.00000000000E+00  0.00000000000E+00  0.27350125465E+01  0.27365932525E+01  0.93000000000E-01 0. -1.
         -3   -1    0    0    0  501 -0.00000000000E+00 -0.00000000000E+00 -0.36701712610E+02  0.36701830438E+02  0.93000000000E-01 0.  1.
        -11    1    1    2    0    0  0.29595305275E+00  0.99967316102E+01 -0.18213705295E+02  0.20778866473E+02  0.51100000000E-03 0.  1.
         11    1    1    2    0    0 -0.29595305275E+00 -0.99967316102E+01 -0.15752994769E+02  0.18659557217E+02  0.51100000000E-03 0. -1.
<mgrwt>
<rscale>  0 0.20041271E+02</rscale>
<asrwt>0</asrwt>
<pdfrwt beam="1">  1        3 0.42090184E-03 0.20041271E+02</pdfrwt>
<pdfrwt beam="2">  1       -3 0.56465476E-02 0.20041271E+02</pdfrwt>
<totfact> 0.16669690E+06</totfact>
</mgrwt>
</event>
<event>
 5    1  0.4133473E-007  0.2000228E+02  0.7818608E-02  0.1745283E+00
          3   -1    0    0  501    0  0.00000000000E+00  0.00000000000E+00  0.20353085956E+01  0.20374322269E+01  0.93000000000E-01 0.  1.
         -3   -1    0    0    0  501 -0.00000000000E+00 -0.00000000000E+00 -0.49116008402E+02  0.49116096449E+02  0.93000000000E-01 0. -1.
       1023    2    1    2    0    0  0.00000000000E+00  0.00000000000E+00 -0.47080699807E+02  0.51153528676E+02  0.20002279913E+02 0.  0.
        -11    1    3    3    0    0 -0.87785886989E+01 -0.47909529358E+01 -0.23343073134E+02  0.25395194687E+02  0.51100000000E-03 0. -1.
         11    1    3    3    0    0  0.87785886989E+01  0.47909529358E+01 -0.23737626672E+02  0.25758333989E+02  0.51100000000E-03 0.  1.
<mgrwt>
<rscale>  0 0.20002280E+02</rscale>
<asrwt>0</asrwt>
<pdfrwt beam="1">  1        3 0.31329457E-03 0.20002280E+02</pdfrwt>
<pdfrwt beam="2">  1       -3 0.75564782E-02 0.20002280E+02</pdfrwt>
<totfact> 0.16150414E+06</totfact>
</mgrwt>
</event>
<event>
 5    1  0.4232380E-007  0.2000056E+02  0.7818608E-02  0.1745317E+00
         -3   -1    0    0    0  501 -0.00000000000E+00  0.00000000000E+00  0.59221227603E+01  0.59228529433E+01  0.93000000000E-01 0. -1.
          3   -1    0    0  501    0  0.00000000000E+00 -0.00000000000E+00 -0.16884880916E+02  0.16885137031E+02  0.93000000000E-01 0.  1.
       1023    2    1    2    0    0  0.00000000000E+00  0.00000000000E+00 -0.10962758156E+02  0.22807989974E+02  0.20000558499E+02 0.  0.
        -11    1    3    3    0    0 -0.84711975113E+01 -0.53143062203E+01 -0.54238280168E+01  0.11376332823E+02  0.51100000000E-03 0. -1.
         11    1    3    3    0    0  0.84711975113E+01  0.53143062203E+01 -0.55389301389E+01  0.11431657151E+02  0.51100000000E-03 0.  1.
<mgrwt>
<rscale>  0 0.20000558E+02</rscale>
<asrwt>0</asrwt>
<pdfrwt beam="2">  1        3 0.25977498E-02 0.20000558E+02</pdfrwt>
<pdfrwt beam="1">  1       -3 0.91117168E-03 0.20000558E+02</pdfrwt>
<totfact> 0.17702821E+06</totfact>
</mgrwt>
</event>
<event>
 5    1  0.4133473E-007  0.2000108E+02  0.7818608E-02  0.1745307E+00
         -3   -1    0    0    0  501 -0.00000000000E+00  0.00000000000E+00  0.83392845087E+02  0.83392896944E+02  0.93000000000E-01 0.  1.
          3   -1    0    0  501    0  0.00000000000E+00 -0.00000000000E+00 -0.11974181983E+01  0.12010242885E+01  0.93000000000E-01 0. -1.
       1023    2    1    2    0    0  0.00000000000E+00  0.00000000000E+00  0.82195426889E+02  0.84593921232E+02  0.20001082673E+02 0.  0.
        -11    1    3    3    0    0  0.39026627341E+01 -0.92071148263E+01  0.41500888782E+02  0.42688704710E+02  0.51100000000E-03 0. -1.
         11    1    3    3    0    0 -0.39026627341E+01  0.92071148263E+01  0.40694538106E+02  0.41905216522E+02  0.51100000000E-03 0.  1.
<mgrwt>
<rscale>  0 0.20001083E+02</rscale>
<asrwt>0</asrwt>
<pdfrwt beam="2">  1        3 0.18449965E-03 0.20001083E+02</pdfrwt>
<pdfrwt beam="1">  1       -3 0.12829944E-01 0.20001083E+02</pdfrwt>
<totfact> 0.14736603E+06</totfact>
</mgrwt>
</event>
<event>
 5    1  0.4133473E-007  0.2000073E+02  0.7818608E-02  0.1745314E+00
         -3   -1    0    0    0  501 -0.00000000000E+00  0.00000000000E+00  0.53912973071E+01  0.53920993735E+01  0.93000000000E-01 0.  1.
          3   -1    0    0  501    0  0.00000000000E+00 -0.00000000000E+00 -0.18547470093E+02  0.18547703250E+02  0.93000000000E-01 0. -1.
       1023    2    1    2    0    0  0.00000000000E+00  0.00000000000E+00 -0.13156172786E+02  0.23939802624E+02  0.20000731669E+02 0.  0.
        -11    1    3    3    0    0 -0.47592306831E+01  0.87951881872E+01 -0.65286680722E+01  0.11942743362E+02  0.51100000000E-03 0.  1.
         11    1    3    3    0    0  0.47592306831E+01 -0.87951881872E+01 -0.66275047138E+01  0.11997059262E+02  0.51100000000E-03 0. -1.
<mgrwt>
<rscale>  0 0.20000732E+02</rscale>
<asrwt>0</asrwt>
<pdfrwt beam="2">  1        3 0.28535365E-02 0.20000732E+02</pdfrwt>
<pdfrwt beam="1">  1       -3 0.82951000E-03 0.20000732E+02</pdfrwt>
<totfact> 0.17631201E+06</totfact>
</mgrwt>
</event>
<event>
 5    1  0.4133473E-007  0.2000212E+02  0.7818608E-02  0.1745286E+00
          3   -1    0    0  501    0  0.00000000000E+00  0.00000000000E+00  0.13510936260E+01  0.13542905841E+01  0.93000000000E-01 0.  1.
         -3   -1    0    0    0  501 -0.00000000000E+00 -0.00000000000E+00 -0.73939120784E+02  0.73939179271E+02  0.93000000000E-01 0. -1.
       1023    2    1    2    0    0  0.00000000000E+00  0.00000000000E+00 -0.72588027158E+02  0.75293469855E+02  0.20002122791E+02 0.  0.
        -11    1    3    3    0    0  0.63019895548E+01  0.77650283037E+01 -0.36679587572E+02  0.38018454487E+02  0.51100000000E-03 0.  1.
         11    1    3    3    0    0 -0.63019895548E+01 -0.77650283037E+01 -0.35908439586E+02  0.37275015368E+02  0.51100000000E-03 0. -1.
<mgrwt>
<rscale>  0 0.20002123E+02</rscale>
<asrwt>0</asrwt>
<pdfrwt beam="1">  1        3 0.20811103E-03 0.20002123E+02</pdfrwt>
<pdfrwt beam="2">  1       -3 0.11375497E-01 0.20002123E+02</pdfrwt>
<totfact> 0.15096594E+06</totfact>
</mgrwt>
</event>
<event>
 5    1  0.4282650E-007  0.2000129E+02  0.7818608E-02  0.1745302E+00
         -3   -1    0    0    0  501 -0.00000000000E+00  0.00000000000E+00  0.63504814307E+01  0.63511623662E+01  0.93000000000E-01 0.  1.
          3   -1    0    0  501    0  0.00000000000E+00 -0.00000000000E+00 -0.15747209631E+02  0.15747484249E+02  0.93000000000E-01 0. -1.
       1023    2    1    2    0    0  0.00000000000E+00  0.00000000000E+00 -0.93967282004E+01  0.22098646615E+02  0.20001291992E+02 0.  0.
        -11    1    3    3    0    0  0.48684731553E+01 -0.87356066743E+01 -0.46894398123E+01  0.11045528545E+02  0.51100000000E-03 0. -1.
         11    1    3    3    0    0 -0.48684731553E+01  0.87356066743E+01 -0.47072883881E+01  0.11053118070E+02  0.51100000000E-03 0.  1.
<mgrwt>
<rscale>  0 0.20001292E+02</rscale>
<asrwt>0</asrwt>
<pdfrwt beam="2">  1        3 0.24227211E-02 0.20001292E+02</pdfrwt>
<pdfrwt beam="1">  1       -3 0.97707065E-03 0.20001292E+02</pdfrwt>
<totfact> 0.17746660E+06</totfact>
</mgrwt>
</event>
<event>
 5    1  0.4133473E-007  0.2000873E+02  0.7818608E-02  0.1745155E+00
          3   -1    0    0  501    0  0.00000000000E+00  0.00000000000E+00  0.16898312659E+02  0.16898568570E+02  0.93000000000E-01 0.  1.
         -3   -1    0    0    0  501 -0.00000000000E+00 -0.00000000000E+00 -0.59222496195E+01  0.59229797868E+01  0.93000000000E-01 0. -1.
       1023    2    1    2    0    0  0.00000000000E+00  0.00000000000E+00  0.10976063040E+02  0.22821548357E+02  0.20008725836E+02 0.  0.
        -11    1    3    3    0    0 -0.54117875817E+01  0.84099094613E+01  0.57967373052E+01  0.11559246758E+02  0.51100000000E-03 0. -1.
         11    1    3    3    0    0  0.54117875817E+01 -0.84099094613E+01  0.51793257346E+01  0.11262301599E+02  0.51100000000E-03 0.  1.
<mgrwt>
<rscale>  0 0.20008726E+02</rscale>
<asrwt>0</asrwt>
<pdfrwt beam="1">  1        3 0.25998163E-02 0.20008726E+02</pdfrwt>
<pdfrwt beam="2">  1       -3 0.91119117E-03 0.20008726E+02</pdfrwt>
<totfact> 0.17686402E+06</totfact>
</mgrwt>
</event>
<event>
 5    1  0.4133473E-007  0.2000041E+02  0.7818608E-02  0.1745320E+00
          3   -1    0    0  501    0  0.00000000000E+00  0.00000000000E+00  0.39300106262E+01  0.39311108509E+01  0.93000000000E-01 0. -1.
         -3   -1    0    0    0  501 -0.00000000000E+00 -0.00000000000E+00 -0.25441508817E+02  0.25441678795E+02  0.93000000000E-01 0.  1.
       1023    2    1    2    0    0  0.00000000000E+00  0.00000000000E+00 -0.21511498191E+02  0.29372789646E+02  0.20000405425E+02 0.  0.
        -11    1    3    3    0    0 -0.89963853453E+01 -0.43668098230E+01 -0.10742885832E+02  0.14676974265E+02  0.51100000000E-03 0. -1.
         11    1    3    3    0    0  0.89963853453E+01  0.43668098230E+01 -0.10768612359E+02  0.14695815381E+02  0.51100000000E-03 0.  1.
<mgrwt>
<rscale>  0 0.20000405E+02</rscale>
<asrwt>0</asrwt>
<pdfrwt beam="1">  1        3 0.60471474E-03 0.20000405E+02</pdfrwt>
<pdfrwt beam="2">  1       -3 0.39141759E-02 0.20000405E+02</pdfrwt>
<totfact> 0.17303993E+06</totfact>
</mgrwt>
</event>
<event>
 5    1  0.4133473E-007  0.2000063E+02  0.7818608E-02  0.1745316E+00
         -3   -1    0    0    0  501 -0.00000000000E+00  0.00000000000E+00  0.74309139150E+02  0.74309197346E+02  0.93000000000E-01 0. -1.
          3   -1    0    0  501    0  0.00000000000E+00 -0.00000000000E+00 -0.13441487277E+01  0.13473621645E+01  0.93000000000E-01 0.  1.
       1023    2    1    2    0    0  0.00000000000E+00  0.00000000000E+00  0.72964990422E+02  0.75656559511E+02  0.20000629231E+02 0.  0.
        -11    1    3    3    0    0  0.60018422553E+01 -0.79989877398E+01  0.36555925770E+02  0.37899097938E+02  0.51100000000E-03 0. -1.
         11    1    3    3    0    0 -0.60018422553E+01  0.79989877398E+01  0.36409064652E+02  0.37757461573E+02  0.51100000000E-03 0.  1.
<mgrwt>
<rscale>  0 0.20000629E+02</rscale>
<asrwt>0</asrwt>
<pdfrwt beam="2">  1        3 0.20704376E-03 0.20000629E+02</pdfrwt>
<pdfrwt beam="1">  1       -3 0.11432428E-01 0.20000629E+02</pdfrwt>
<totfact> 0.15084486E+06</totfact>
</mgrwt>
</event>
<event>
 5    1  0.4133473E-007  0.2000068E+02  0.7818608E-02  0.1745315E+00
          3   -1    0    0  501    0  0.00000000000E+00  0.00000000000E+00  0.41205205955E+02  0.41205310905E+02  0.93000000000E-01 0. -1.
         -3   -1    0    0    0  501 -0.00000000000E+00 -0.00000000000E+00 -0.24260438373E+01  0.24278257146E+01  0.93000000000E-01 0.  1.
       1023    2    1    2    0    0  0.00000000000E+00  0.00000000000E+00  0.38779162118E+02  0.43633136620E+02  0.20000679907E+02 0.  0.
        -11    1    3    3    0    0  0.39134438683E+01  0.92027947478E+01  0.19428900349E+02  0.21851513520E+02  0.51100000000E-03 0. -1.
         11    1    3    3    0    0 -0.39134438683E+01 -0.92027947478E+01  0.19350261769E+02  0.21781623100E+02  0.51100000000E-03 0.  1.
<mgrwt>
<rscale>  0 0.20000680E+02</rscale>
<asrwt>0</asrwt>
<pdfrwt beam="1">  1        3 0.63394069E-02 0.20000680E+02</pdfrwt>
<pdfrwt beam="2">  1       -3 0.37338270E-03 0.20000680E+02</pdfrwt>
<totfact> 0.16522120E+06</totfact>
</mgrwt>
</event>
<event>
 5    1  0.4133473E-007  0.2000326E+02  0.7818608E-02  0.1745263E+00
          3   -1    0    0  501    0  0.00000000000E+00  0.00000000000E+00  0.64173299412E+01  0.64180037842E+01  0.93000000000E-01 0. -1.
         -3   -1    0    0    0  501 -0.00000000000E+00 -0.00000000000E+00 -0.15586248238E+02  0.15586525692E+02  0.93000000000E-01 0.  1.
       1023    2    1    2    0    0  0.00000000000E+00  0.00000000000E+00 -0.91689182970E+01  0.22004529476E+02  0.20003256103E+02 0.  0.
        -11    1    3    3    0    0  0.51598492385E+01 -0.85675261232E+01 -0.44991406732E+01  0.10966713961E+02  0.51100000000E-03 0.  1.
         11    1    3    3    0    0 -0.51598492385E+01  0.85675261232E+01 -0.46697776238E+01  0.11037815515E+02  0.51100000000E-03 0. -1.
<mgrwt>
<rscale>  0 0.20003256E+02</rscale>
<asrwt>0</asrwt>
<pdfrwt beam="1">  1        3 0.98735471E-03 0.20003256E+02</pdfrwt>
<pdfrwt beam="2">  1       -3 0.23979575E-02 0.20003256E+02</pdfrwt>
<totfact> 0.17749717E+06</totfact>
</mgrwt>
</event>
<event>
 5    1  0.4133473E-007  0.2000025E+02  0.7818608E-02  0.1745323E+00
         -3   -1    0    0    0  501 -0.00000000000E+00  0.00000000000E+00  0.66671846381E+01  0.66678332312E+01  0.93000000000E-01 0.  1.
          3   -1    0    0  501    0  0.00000000000E+00 -0.00000000000E+00 -0.14997691503E+02  0.14997979844E+02  0.93000000000E-01 0. -1.
       1023    2    1    2    0    0  0.00000000000E+00  0.00000000000E+00 -0.83305068647E+01  0.21665813076E+02  0.20000252788E+02 0.  0.
        -11    1    3    3    0    0  0.57606919176E+01  0.81741368778E+01 -0.41880427820E+01  0.10841669045E+02  0.51100000000E-03 0. -1.
         11    1    3    3    0    0 -0.57606919176E+01 -0.81741368778E+01 -0.41424640827E+01  0.10824144031E+02  0.51100000000E-03 0.  1.
<mgrwt>
<rscale>  0 0.20000253E+02</rscale>
<asrwt>0</asrwt>
<pdfrwt beam="2">  1        3 0.23074092E-02 0.20000253E+02</pdfrwt>
<pdfrwt beam="1">  1       -3 0.10257928E-02 0.20000253E+02</pdfrwt>
<totfact> 0.17776438E+06</totfact>
</mgrwt>
</event>
<event>
 5    1  0.4133473E-007  0.2000753E+02  0.7818608E-02  0.1745178E+00
          3   -1    0    0  501    0  0.00000000000E+00  0.00000000000E+00  0.60049227873E+01  0.60056429033E+01  0.93000000000E-01 0.  1.
         -3   -1    0    0    0  501 -0.00000000000E+00 -0.00000000000E+00 -0.16663701266E+02  0.16663960780E+02  0.93000000000E-01 0. -1.
       1023    2    1    2    0    0  0.00000000000E+00  0.00000000000E+00 -0.10658778479E+02  0.22669603683E+02  0.20007532894E+02 0.  0.
        -11    1    3    3    0    0 -0.99771859828E+01 -0.71708697308E+00 -0.54766382510E+01  0.11404035279E+02  0.51100000000E-03 0.  1.
         11    1    3    3    0    0  0.99771859828E+01  0.71708697308E+00 -0.51821402277E+01  0.11265568404E+02  0.51100000000E-03 0. -1.
<mgrwt>
<rscale>  0 0.20007533E+02</rscale>
<asrwt>0</asrwt>
<pdfrwt beam="1">  1        3 0.92390964E-03 0.20007533E+02</pdfrwt>
<pdfrwt beam="2">  1       -3 0.25637217E-02 0.20007533E+02</pdfrwt>
<totfact> 0.17699225E+06</totfact>
</mgrwt>
</event>
<event>
 5    1  0.4133473E-007  0.2000479E+02  0.7818608E-02  0.1745233E+00
         -3   -1    0    0    0  501 -0.00000000000E+00  0.00000000000E+00  0.24805455999E+02  0.24805630335E+02  0.93000000000E-01 0. -1.
          3   -1    0    0  501    0  0.00000000000E+00 -0.00000000000E+00 -0.40325773039E+01  0.40336495525E+01  0.93000000000E-01 0.  1.
       1023    2    1    2    0    0  0.00000000000E+00  0.00000000000E+00  0.20772878695E+02  0.28839279888E+02  0.20004788805E+02 0.  0.
        -11    1    3    3    0    0  0.81466913494E+01 -0.58015369510E+01  0.10597736560E+02  0.14571836926E+02  0.51100000000E-03 0. -1.
         11    1    3    3    0    0 -0.81466913494E+01  0.58015369510E+01  0.10175142135E+02  0.14267442962E+02  0.51100000000E-03 0.  1.
<mgrwt>
<rscale>  0 0.20004789E+02</rscale>
<asrwt>0</asrwt>
<pdfrwt beam="2">  1        3 0.62049240E-03 0.20004789E+02</pdfrwt>
<pdfrwt beam="1">  1       -3 0.38163199E-02 0.20004789E+02</pdfrwt>
<totfact> 0.17327226E+06</totfact>
</mgrwt>
</event>
<event>
 5    1  0.4417569E-007  0.2000110E+02  0.7818608E-02  0.1745306E+00
         -3   -1    0    0    0  501 -0.00000000000E+00  0.00000000000E+00  0.82163509118E+01  0.82168772235E+01  0.93000000000E-01 0.  1.
          3   -1    0    0  501    0  0.00000000000E+00 -0.00000000000E+00 -0.12171096128E+02  0.12171451432E+02  0.93000000000E-01 0. -1.
       1023    2    1    2    0    0  0.00000000000E+00  0.00000000000E+00 -0.39547452164E+01  0.20388328656E+02  0.20001098361E+02 0.  0.
        -11    1    3    3    0    0 -0.66342993608E+01 -0.74826252198E+01 -0.20649157971E+01  0.10211145171E+02  0.51100000000E-03 0.  1.
         11    1    3    3    0    0  0.66342993608E+01  0.74826252198E+01 -0.18898294193E+01  0.10177183485E+02  0.51100000000E-03 0. -1.
<mgrwt>
<rscale>  0 0.20001098E+02</rscale>
<asrwt>0</asrwt>
<pdfrwt beam="2">  1        3 0.18725442E-02 0.20001098E+02</pdfrwt>
<pdfrwt beam="1">  1       -3 0.12641218E-02 0.20001098E+02</pdfrwt>
<totfact> 0.17857920E+06</totfact>
</mgrwt>
</event>
<event>
 5    1  0.4133473E-007  0.2000023E+02  0.7818608E-02  0.1745324E+00
         -3   -1    0    0    0  501 -0.00000000000E+00  0.00000000000E+00  0.69769032467E+02  0.69769094451E+02  0.93000000000E-01 0. -1.
          3   -1    0    0  501    0  0.00000000000E+00 -0.00000000000E+00 -0.14317623829E+01  0.14347796071E+01  0.93000000000E-01 0.  1.
       1023    2    1    2    0    0  0.00000000000E+00  0.00000000000E+00  0.68337270085E+02  0.71203874058E+02  0.20000229954E+02 0.  0.
        -11    1    3    3    0    0  0.43420273692E+01 -0.90082793669E+01  0.34171054878E+02  0.35604259444E+02  0.51100000000E-03 0.  1.
         11    1    3    3    0    0 -0.43420273692E+01  0.90082793669E+01  0.34166215207E+02  0.35599614614E+02  0.51100000000E-03 0. -1.
<mgrwt>
<rscale>  0 0.20000230E+02</rscale>
<asrwt>0</asrwt>
<pdfrwt beam="2">  1        3 0.22050804E-03 0.20000230E+02</pdfrwt>
<pdfrwt beam="1">  1       -3 0.10733932E-01 0.20000230E+02</pdfrwt>
<totfact> 0.15265775E+06</totfact>
</mgrwt>
</event>
<event>
 5    1  0.4133473E-007  0.2001068E+02  0.7818608E-02  0.1745116E+00
         -3   -1    0    0    0  501 -0.00000000000E+00  0.00000000000E+00  0.25205884350E+02  0.25206055917E+02  0.93000000000E-01 0.  1.
          3   -1    0    0  501    0  0.00000000000E+00 -0.00000000000E+00 -0.39708377824E+01  0.39719266980E+01  0.93000000000E-01 0. -1.
       1023    2    1    2    0    0  0.00000000000E+00  0.00000000000E+00  0.21235046568E+02  0.29177982615E+02  0.20010683814E+02 0.  0.
        -11    1    3    3    0    0  0.17904408283E+01  0.98429649967E+01  0.10426136277E+02  0.14449704364E+02  0.51100000000E-03 0.  1.
         11    1    3    3    0    0 -0.17904408283E+01 -0.98429649967E+01  0.10808910291E+02  0.14728278250E+02  0.51100000000E-03 0. -1.
<mgrwt>
<rscale>  0 0.20010684E+02</rscale>
<asrwt>0</asrwt>
<pdfrwt beam="2">  1        3 0.61099510E-03 0.20010684E+02</pdfrwt>
<pdfrwt beam="1">  1       -3 0.38779252E-02 0.20010684E+02</pdfrwt>
<totfact> 0.17296305E+06</totfact>
</mgrwt>
</event>
<event>
 5    1  0.4133473E-007  0.2000062E+02  0.7818608E-02  0.1745316E+00
          3   -1    0    0  501    0  0.00000000000E+00  0.00000000000E+00  0.39919711979E+02  0.39919820309E+02  0.93000000000E-01 0.  1.
         -3   -1    0    0    0  501 -0.00000000000E+00 -0.00000000000E+00 -0.25042087334E+01  0.25059350312E+01  0.93000000000E-01 0. -1.
       1023    2    1    2    0    0  0.00000000000E+00  0.00000000000E+00  0.37415503245E+02  0.42425755340E+02  0.20000620816E+02 0.  0.
        -11    1    3    3    0    0 -0.35481969497E+01  0.93496539456E+01  0.18661399048E+02  0.21171999083E+02  0.51100000000E-03 0. -1.
         11    1    3    3    0    0  0.35481969497E+01 -0.93496539456E+01  0.18754104198E+02  0.21253756257E+02  0.51100000000E-03 0.  1.
<mgrwt>
<rscale>  0 0.20000621E+02</rscale>
<asrwt>0</asrwt>
<pdfrwt beam="1">  1        3 0.61416349E-02 0.20000621E+02</pdfrwt>
<pdfrwt beam="2">  1       -3 0.38540403E-03 0.20000621E+02</pdfrwt>
<totfact> 0.16584252E+06</totfact>
</mgrwt>
</event>
<event>
 5    1  0.4133473E-007  0.2000868E+02  0.7818608E-02  0.1745156E+00
          3   -1    0    0  501    0  0.00000000000E+00  0.00000000000E+00  0.29594846524E+02  0.29594992647E+02  0.93000000000E-01 0. -1.
         -3   -1    0    0    0  501 -0.00000000000E+00 -0.00000000000E+00 -0.33811051211E+01  0.33823838990E+01  0.93000000000E-01 0.  1.
       1023    2    1    2    0    0  0.00000000000E+00  0.00000000000E+00  0.26213741403E+02  0.32977376546E+02  0.20008676256E+02 0.  0.
        -11    1    3    3    0    0 -0.76376760993E+01  0.64615894191E+01  0.13145421258E+02  0.16519332140E+02  0.51100000000E-03 0. -1.
         11    1    3    3    0    0  0.76376760993E+01 -0.64615894191E+01  0.13068320144E+02  0.16458044406E+02  0.51100000000E-03 0.  1.
<mgrwt>
<rscale>  0 0.20008676E+02</rscale>
<asrwt>0</asrwt>
<pdfrwt beam="1">  1        3 0.45531631E-02 0.20008676E+02</pdfrwt>
<pdfrwt beam="2">  1       -3 0.52027961E-03 0.20008676E+02</pdfrwt>
<totfact> 0.17079338E+06</totfact>
</mgrwt>
</event>
<event>
 4    1  0.4133473E-007  0.2031459E+02  0.7818608E-02  0.1739143E+00
         -3   -1    0    0    0  501 -0.00000000000E+00  0.00000000000E+00  0.60741645858E+02  0.60741717053E+02  0.93000000000E-01 0.  1.
          3   -1    0    0  501    0  0.00000000000E+00 -0.00000000000E+00 -0.16971708455E+01  0.16997169996E+01  0.93000000000E-01 0. -1.
        -11    1    1    2    0    0  0.71015903117E+01 -0.72071189533E+01  0.26780732365E+02  0.28628356132E+02  0.51100000000E-03 0. -1.
         11    1    1    2    0    0 -0.71015903117E+01  0.72071189533E+01  0.32263742648E+02  0.33813077920E+02  0.51100000000E-03 0.  1.
<mgrwt>
<rscale>  0 0.20314592E+02</rscale>
<asrwt>0</asrwt>
<pdfrwt beam="2">  1        3 0.26130453E-03 0.20314592E+02</pdfrwt>
<pdfrwt beam="1">  1       -3 0.93450704E-02 0.20314592E+02</pdfrwt>
<totfact> 0.15121741E+06</totfact>
</mgrwt>
</event>
<event>
 4    1  0.4133473E-007  0.2040570E+02  0.7818608E-02  0.1737379E+00
         -3   -1    0    0    0  501 -0.00000000000E+00  0.00000000000E+00  0.59207036686E+02  0.59207109726E+02  0.93000000000E-01 0. -1.
          3   -1    0    0  501    0  0.00000000000E+00 -0.00000000000E+00 -0.17569018021E+01  0.17593615155E+01  0.93000000000E-01 0.  1.
        -11    1    1    2    0    0 -0.90389130427E+01  0.47090375852E+01  0.30130153085E+02  0.31807280757E+02  0.51100000000E-03 0. -1.
         11    1    1    2    0    0  0.90389130427E+01 -0.47090375852E+01  0.27319981798E+02  0.29159190484E+02  0.51100000000E-03 0.  1.
<mgrwt>
<rscale>  0 0.20405701E+02</rscale>
<asrwt>0</asrwt>
<pdfrwt beam="2">  1        3 0.27048749E-03 0.20405701E+02</pdfrwt>
<pdfrwt beam="1">  1       -3 0.91089671E-02 0.20405701E+02</pdfrwt>
<totfact> 0.15038407E+06</totfact>
</mgrwt>
</event>
<event>
 5    1  0.4133473E-007  0.2000326E+02  0.7818608E-02  0.1745263E+00
         -3   -1    0    0    0  501 -0.00000000000E+00  0.00000000000E+00  0.83327219142E+02  0.83327271040E+02  0.93000000000E-01 0.  1.
          3   -1    0    0  501    0  0.00000000000E+00 -0.00000000000E+00 -0.11986254623E+01  0.12022279314E+01  0.93000000000E-01 0. -1.
       1023    2    1    2    0    0  0.00000000000E+00  0.00000000000E+00  0.82128593680E+02  0.84529498972E+02  0.20003257148E+02 0.  0.
        -11    1    3    3    0    0 -0.99102659853E+01 -0.13481792627E+01  0.41234100053E+02  0.42429729750E+02  0.51100000000E-03 0. -1.
         11    1    3    3    0    0  0.99102659853E+01  0.13481792627E+01  0.40894493627E+02  0.42099769222E+02  0.51100000000E-03 0.  1.
<mgrwt>
<rscale>  0 0.20003257E+02</rscale>
<asrwt>0</asrwt>
<pdfrwt beam="2">  1        3 0.18468498E-03 0.20003257E+02</pdfrwt>
<pdfrwt beam="1">  1       -3 0.12819856E-01 0.20003257E+02</pdfrwt>
<totfact> 0.14735594E+06</totfact>
</mgrwt>
</event>
<event>
 5    1  0.4169774E-007  0.2000072E+02  0.7818608E-02  0.1745314E+00
         -3   -1    0    0    0  501 -0.00000000000E+00  0.00000000000E+00  0.19644745225E+02  0.19644965359E+02  0.93000000000E-01 0.  1.
          3   -1    0    0  501    0  0.00000000000E+00 -0.00000000000E+00 -0.50901113794E+01  0.50909608970E+01  0.93000000000E-01 0. -1.
       1023    2    1    2    0    0  0.00000000000E+00  0.00000000000E+00  0.14554633845E+02  0.24735926256E+02  0.20000717021E+02 0.  0.
        -11    1    3    3    0    0  0.46634158880E+01  0.88463922075E+01  0.73177200290E+01  0.12391736340E+02  0.51100000000E-03 0. -1.
         11    1    3    3    0    0 -0.46634158880E+01 -0.88463922075E+01  0.72369138163E+01  0.12344189916E+02  0.51100000000E-03 0.  1.
<mgrwt>
<rscale>  0 0.20000717E+02</rscale>
<asrwt>0</asrwt>
<pdfrwt beam="2">  1        3 0.78317633E-03 0.20000717E+02</pdfrwt>
<pdfrwt beam="1">  1       -3 0.30223508E-02 0.20000717E+02</pdfrwt>
<totfact> 0.17582809E+06</totfact>
</mgrwt>
</event>
<event>
 5    1  0.4133473E-007  0.2000526E+02  0.7818608E-02  0.1745223E+00
          3   -1    0    0  501    0  0.00000000000E+00  0.00000000000E+00  0.95748669533E+00  0.96199260483E+00  0.93000000000E-01 0. -1.
         -3   -1    0    0    0  501 -0.00000000000E+00 -0.00000000000E+00 -0.10424523140E+03  0.10424527289E+03  0.93000000000E-01 0.  1.
       1023    2    1    2    0    0  0.00000000000E+00  0.00000000000E+00 -0.10328774471E+03  0.10520726549E+03  0.20005261944E+02 0.  0.
        -11    1    3    3    0    0  0.95486994558E+01 -0.29764746535E+01 -0.52299948569E+02  0.53247738762E+02  0.51100000000E-03 0. -1.
         11    1    3    3    0    0 -0.95486994558E+01  0.29764746535E+01 -0.50987796138E+02  0.51959526729E+02  0.51100000000E-03 0.  1.
<mgrwt>
<rscale>  0 0.20005262E+02</rscale>
<asrwt>0</asrwt>
<pdfrwt beam="1">  1        3 0.14765553E-03 0.20005262E+02</pdfrwt>
<pdfrwt beam="2">  1       -3 0.16038069E-01 0.20005262E+02</pdfrwt>
<totfact> 0.13995191E+06</totfact>
</mgrwt>
</event>
<event>
 5    1  0.4347010E-007  0.2000085E+02  0.7818608E-02  0.1745311E+00
         -3   -1    0    0    0  501 -0.00000000000E+00  0.00000000000E+00  0.74856159843E+01  0.74861936700E+01  0.93000000000E-01 0. -1.
          3   -1    0    0  501    0  0.00000000000E+00 -0.00000000000E+00 -0.13358833266E+02  0.13359156980E+02  0.93000000000E-01 0.  1.
       1023    2    1    2    0    0  0.00000000000E+00  0.00000000000E+00 -0.58732172816E+01  0.20845350650E+02  0.20000849044E+02 0.  0.
        -11    1    3    3    0    0  0.35308184175E+01  0.93560218503E+01 -0.30217066852E+01  0.10446651861E+02  0.51100000000E-03 0. -1.
         11    1    3    3    0    0 -0.35308184175E+01 -0.93560218503E+01 -0.28515105964E+01  0.10398698789E+02  0.51100000000E-03 0.  1.
<mgrwt>
<rscale>  0 0.20000849E+02</rscale>
<asrwt>0</asrwt>
<pdfrwt beam="2">  1        3 0.20552744E-02 0.20000849E+02</pdfrwt>
<pdfrwt beam="1">  1       -3 0.11517026E-02 0.20000849E+02</pdfrwt>
<totfact> 0.17828540E+06</totfact>
</mgrwt>
</event>
<event>
 5    1  0.4133473E-007  0.2000109E+02  0.7818608E-02  0.1745306E+00
          3   -1    0    0  501    0  0.00000000000E+00  0.00000000000E+00  0.16217218224E+01  0.16243862439E+01  0.93000000000E-01 0.  1.
         -3   -1    0    0    0  501 -0.00000000000E+00 -0.00000000000E+00 -0.61616265338E+02  0.61616335523E+02  0.93000000000E-01 0. -1.
       1023    2    1    2    0    0  0.00000000000E+00  0.00000000000E+00 -0.59994543516E+02  0.63240721767E+02  0.20001090917E+02 0.  0.
        -11    1    3    3    0    0  0.10000299170E+02 -0.57168264479E-01 -0.30125998793E+02  0.31742480295E+02  0.51100000000E-03 0. -1.
         11    1    3    3    0    0 -0.10000299170E+02  0.57168264479E-01 -0.29868544723E+02  0.31498241472E+02  0.51100000000E-03 0.  1.
<mgrwt>
<rscale>  0 0.20001091E+02</rscale>
<asrwt>0</asrwt>
<pdfrwt beam="1">  1        3 0.24970607E-03 0.20001091E+02</pdfrwt>
<pdfrwt beam="2">  1       -3 0.94796340E-02 0.20001091E+02</pdfrwt>
<totfact> 0.15601641E+06</totfact>
</mgrwt>
</event>
<event>
 5    1  0.4133473E-007  0.2000338E+02  0.7818608E-02  0.1745261E+00
          3   -1    0    0  501    0  0.00000000000E+00  0.00000000000E+00  0.17661809667E+01  0.17686277751E+01  0.93000000000E-01 0.  1.
         -3   -1    0    0    0  501 -0.00000000000E+00 -0.00000000000E+00 -0.56596778916E+02  0.56596855324E+02  0.93000000000E-01 0. -1.
       1023    2    1    2    0    0  0.00000000000E+00  0.00000000000E+00 -0.54830597949E+02  0.58365483100E+02  0.20003378365E+02 0.  0.
        -11    1    3    3    0    0 -0.65014893387E+01 -0.75991218708E+01 -0.27026352999E+02  0.28817351952E+02  0.51100000000E-03 0. -1.
         11    1    3    3    0    0  0.65014893387E+01  0.75991218708E+01 -0.27804244950E+02  0.29548131148E+02  0.51100000000E-03 0.  1.
<mgrwt>
<rscale>  0 0.20003378E+02</rscale>
<asrwt>0</asrwt>
<pdfrwt beam="1">  1        3 0.27191429E-03 0.20003378E+02</pdfrwt>
<pdfrwt beam="2">  1       -3 0.87073895E-02 0.20003378E+02</pdfrwt>
<totfact> 0.15813954E+06</totfact>
</mgrwt>
</event>
<event>
 4    1  0.4133473E-007  0.2001465E+02  0.7818608E-02  0.1745037E+00
          3   -1    0    0  501    0  0.00000000000E+00  0.00000000000E+00  0.20039824127E+02  0.20040039921E+02  0.93000000000E-01 0. -1.
         -3   -1    0    0    0  501 -0.00000000000E+00 -0.00000000000E+00 -0.49966990145E+01  0.49975644109E+01  0.93000000000E-01 0.  1.
        -11    1    1    2    0    0 -0.30333227985E+00 -0.10000629795E+02  0.72655046800E+01  0.12364957149E+02  0.51100000000E-03 0.  1.
         11    1    1    2    0    0  0.30333227985E+00  0.10000629795E+02  0.77776204327E+01  0.12672647183E+02  0.51100000000E-03 0. -1.
<mgrwt>
<rscale>  0 0.20014645E+02</rscale>
<asrwt>0</asrwt>
<pdfrwt beam="1">  1        3 0.30831330E-02 0.20014645E+02</pdfrwt>
<pdfrwt beam="2">  1       -3 0.76880611E-03 0.20014645E+02</pdfrwt>
<totfact> 0.17536625E+06</totfact>
</mgrwt>
</event>
<event>
 5    1  0.4181602E-007  0.2000103E+02  0.7818608E-02  0.1745308E+00
          3   -1    0    0  501    0  0.00000000000E+00  0.00000000000E+00  0.40188118048E+02  0.40188225654E+02  0.93000000000E-01 0. -1.
         -3   -1    0    0    0  501 -0.00000000000E+00 -0.00000000000E+00 -0.24875749913E+01  0.24893128244E+01  0.93000000000E-01 0.  1.
       1023    2    1    2    0    0  0.00000000000E+00  0.00000000000E+00  0.37700543056E+02  0.42677538478E+02  0.20001033569E+02 0.  0.
        -11    1    3    3    0    0 -0.31500146258E+01 -0.94914071288E+01  0.18785051282E+02  0.21281154887E+02  0.51100000000E-03 0. -1.
         11    1    3    3    0    0  0.31500146258E+01  0.94914071288E+01  0.18915491775E+02  0.21396383591E+02  0.51100000000E-03 0.  1.
<mgrwt>
<rscale>  0 0.20001034E+02</rscale>
<asrwt>0</asrwt>
<pdfrwt beam="1">  1        3 0.61829293E-02 0.20001034E+02</pdfrwt>
<pdfrwt beam="2">  1       -3 0.38284580E-03 0.20001034E+02</pdfrwt>
<totfact> 0.16570525E+06</totfact>
</mgrwt>
</event>
<event>
 4    1  0.4133473E-007  0.2003949E+02  0.7818608E-02  0.1744544E+00
          3   -1    0    0  501    0  0.00000000000E+00  0.00000000000E+00  0.17610171683E+02  0.17610417250E+02  0.93000000000E-01 0.  1.
         -3   -1    0    0    0  501 -0.00000000000E+00 -0.00000000000E+00 -0.57003195773E+01  0.57010781685E+01  0.93000000000E-01 0. -1.
        -11    1    1    2    0    0  0.80819682013E+01  0.59170911041E+01  0.56580440727E+01  0.11504070590E+02  0.51100000000E-03 0. -1.
         11    1    1    2    0    0 -0.80819682013E+01 -0.59170911041E+01  0.62518080331E+01  0.11807424829E+02  0.51100000000E-03 0.  1.
<mgrwt>
<rscale>  0 0.20039492E+02</rscale>
<asrwt>0</asrwt>
<pdfrwt beam="1">  1        3 0.27093343E-02 0.20039492E+02</pdfrwt>
<pdfrwt beam="2">  1       -3 0.87704951E-03 0.20039492E+02</pdfrwt>
<totfact> 0.17597099E+06</totfact>
</mgrwt>
</event>
<event>
 5    1  0.4133473E-007  0.2000020E+02  0.7818608E-02  0.1745324E+00
         -3   -1    0    0    0  501 -0.00000000000E+00  0.00000000000E+00  0.59460970059E+01  0.59468242453E+01  0.93000000000E-01 0.  1.
          3   -1    0    0  501    0  0.00000000000E+00 -0.00000000000E+00 -0.16816199263E+02  0.16816456424E+02  0.93000000000E-01 0. -1.
       1023    2    1    2    0    0  0.00000000000E+00  0.00000000000E+00 -0.10870102257E+02  0.22763280669E+02  0.20000195593E+02 0.  0.
        -11    1    3    3    0    0 -0.59127023916E+01 -0.80647900257E+01 -0.54722452920E+01  0.11399401586E+02  0.51100000000E-03 0. -1.
         11    1    3    3    0    0  0.59127023916E+01  0.80647900257E+01 -0.53978569652E+01  0.11363879083E+02  0.51100000000E-03 0.  1.
<mgrwt>
<rscale>  0 0.20000196E+02</rscale>
<asrwt>0</asrwt>
<pdfrwt beam="2">  1        3 0.25871833E-02 0.20000196E+02</pdfrwt>
<pdfrwt beam="1">  1       -3 0.91485989E-03 0.20000196E+02</pdfrwt>
<totfact> 0.17706353E+06</totfact>
</mgrwt>
</event>
<event>
 5    1  0.4133473E-007  0.2000115E+02  0.7818608E-02  0.1745305E+00
         -3   -1    0    0    0  501 -0.00000000000E+00  0.00000000000E+00  0.53066262468E+02  0.53066343961E+02  0.93000000000E-01 0.  1.
          3   -1    0    0  501    0  0.00000000000E+00 -0.00000000000E+00 -0.18834235751E+01  0.18857182619E+01  0.93000000000E-01 0. -1.
       1023    2    1    2    0    0  0.00000000000E+00  0.00000000000E+00  0.51182838893E+02  0.54952062223E+02  0.20001153600E+02 0.  0.
        -11    1    3    3    0    0 -0.43692686696E+00 -0.99908085624E+01  0.25409687701E+02  0.27306764549E+02  0.51100000000E-03 0. -1.
         11    1    3    3    0    0  0.43692686696E+00  0.99908085624E+01  0.25773151192E+02  0.27645297673E+02  0.51100000000E-03 0.  1.
<mgrwt>
<rscale>  0 0.20001154E+02</rscale>
<asrwt>0</asrwt>
<pdfrwt beam="2">  1        3 0.28994026E-03 0.20001154E+02</pdfrwt>
<pdfrwt beam="1">  1       -3 0.81642229E-02 0.20001154E+02</pdfrwt>
<totfact> 0.15973700E+06</totfact>
</mgrwt>
</event>
<event>
 5    1  0.4133473E-007  0.2000911E+02  0.7818608E-02  0.1745147E+00
         -3   -1    0    0    0  501 -0.00000000000E+00  0.00000000000E+00  0.16643339521E+02  0.16643599353E+02  0.93000000000E-01 0. -1.
          3   -1    0    0  501    0  0.00000000000E+00 -0.00000000000E+00 -0.60132195859E+01  0.60139387084E+01  0.93000000000E-01 0.  1.
       1023    2    1    2    0    0  0.00000000000E+00  0.00000000000E+00  0.10630119935E+02  0.22657538061E+02  0.20009112453E+02 0.  0.
        -11    1    3    3    0    0  0.70345542986E+01 -0.71111635936E+01  0.50956529544E+01  0.11225830977E+02  0.51100000000E-03 0.  1.
         11    1    3    3    0    0 -0.70345542986E+01  0.71111635936E+01  0.55344669810E+01  0.11431707084E+02  0.51100000000E-03 0. -1.
<mgrwt>
<rscale>  0 0.20009112E+02</rscale>
<asrwt>0</asrwt>
<pdfrwt beam="2">  1        3 0.92518604E-03 0.20009112E+02</pdfrwt>
<pdfrwt beam="1">  1       -3 0.25605890E-02 0.20009112E+02</pdfrwt>
<totfact> 0.17696981E+06</totfact>
</mgrwt>
</event>
<event>
 5    1  0.4133473E-007  0.2000017E+02  0.7818608E-02  0.1745325E+00
         -3   -1    0    0    0  501 -0.00000000000E+00  0.00000000000E+00  0.79558886691E+01  0.79564322102E+01  0.93000000000E-01 0. -1.
          3   -1    0    0  501    0  0.00000000000E+00 -0.00000000000E+00 -0.12568381102E+02  0.12568725175E+02  0.93000000000E-01 0.  1.
       1023    2    1    2    0    0  0.00000000000E+00  0.00000000000E+00 -0.46124924330E+01  0.20525157385E+02  0.20000174980E+02 0.  0.
        -11    1    3    3    0    0 -0.98484944286E+01 -0.17343739409E+01 -0.22762545337E+01  0.10255838846E+02  0.51100000000E-03 0.  1.
         11    1    3    3    0    0  0.98484944286E+01  0.17343739409E+01 -0.23362378993E+01  0.10269318539E+02  0.51100000000E-03 0. -1.
<mgrwt>
<rscale>  0 0.20000175E+02</rscale>
<asrwt>0</asrwt>
<pdfrwt beam="2">  1        3 0.19336654E-02 0.20000175E+02</pdfrwt>
<pdfrwt beam="1">  1       -3 0.12240512E-02 0.20000175E+02</pdfrwt>
<totfact> 0.17850745E+06</totfact>
</mgrwt>
</event>
<event>
 5    1  0.4146514E-007  0.2000065E+02  0.7818608E-02  0.1745315E+00
         -3   -1    0    0    0  501 -0.00000000000E+00  0.00000000000E+00  0.11417381581E+02  0.11417760339E+02  0.93000000000E-01 0. -1.
          3   -1    0    0  501    0  0.00000000000E+00 -0.00000000000E+00 -0.87583737327E+01  0.87588674748E+01  0.93000000000E-01 0.  1.
       1023    2    1    2    0    0  0.00000000000E+00  0.00000000000E+00  0.26590078481E+01  0.20176627814E+02  0.20000649670E+02 0.  0.
        -11    1    3    3    0    0 -0.22884969057E+01 -0.97349497072E+01  0.13237396676E+01  0.10087554256E+02  0.51100000000E-03 0.  1.
         11    1    3    3    0    0  0.22884969057E+01  0.97349497072E+01  0.13352681805E+01  0.10089073558E+02  0.51100000000E-03 0. -1.
<mgrwt>
<rscale>  0 0.20000650E+02</rscale>
<asrwt>0</asrwt>
<pdfrwt beam="2">  1        3 0.13475092E-02 0.20000650E+02</pdfrwt>
<pdfrwt beam="1">  1       -3 0.17565874E-02 0.20000650E+02</pdfrwt>
<totfact> 0.17872950E+06</totfact>
</mgrwt>
</event>
<event>
 5    1  0.4200819E-007  0.2000065E+02  0.7818608E-02  0.1745315E+00
          3   -1    0    0  501    0  0.00000000000E+00  0.00000000000E+00  0.13888146243E+02  0.13888457620E+02  0.93000000000E-01 0. -1.
         -3   -1    0    0    0  501 -0.00000000000E+00 -0.00000000000E+00 -0.72001604276E+01  0.72007610141E+01  0.93000000000E-01 0.  1.
       1023    2    1    2    0    0  0.00000000000E+00  0.00000000000E+00  0.66879858151E+01  0.21089218634E+02  0.20000649698E+02 0.  0.
        -11    1    3    3    0    0 -0.96381265212E+01  0.26667518795E+01  0.33038637651E+01  0.10531883235E+02  0.51100000000E-03 0.  1.
         11    1    3    3    0    0  0.96381265212E+01 -0.26667518795E+01  0.33841220500E+01  0.10557335399E+02  0.51100000000E-03 0. -1.
<mgrwt>
<rscale>  0 0.20000650E+02</rscale>
<asrwt>0</asrwt>
<pdfrwt beam="1">  1        3 0.21367080E-02 0.20000650E+02</pdfrwt>
<pdfrwt beam="2">  1       -3 0.11077872E-02 0.20000650E+02</pdfrwt>
<totfact> 0.17813012E+06</totfact>
</mgrwt>
</event>
<event>
 5    1  0.4133473E-007  0.2000152E+02  0.7818608E-02  0.1745298E+00
         -3   -1    0    0    0  501 -0.00000000000E+00  0.00000000000E+00  0.66637254736E+02  0.66637319632E+02  0.93000000000E-01 0.  1.
          3   -1    0    0  501    0  0.00000000000E+00 -0.00000000000E+00 -0.14993831383E+01  0.15022645558E+01  0.93000000000E-01 0. -1.
       1023    2    1    2    0    0  0.00000000000E+00  0.00000000000E+00  0.65137871598E+02  0.68139584188E+02  0.20001515368E+02 0.  0.
        -11    1    3    3    0    0  0.93885728851E+01  0.34448840977E+01  0.32394335834E+02  0.33902883677E+02  0.51100000000E-03 0. -1.
         11    1    3    3    0    0 -0.93885728851E+01 -0.34448840977E+01  0.32743535764E+02  0.34236700511E+02  0.51100000000E-03 0.  1.
<mgrwt>
<rscale>  0 0.20001515E+02</rscale>
<asrwt>0</asrwt>
<pdfrwt beam="2">  1        3 0.23090098E-03 0.20001515E+02</pdfrwt>
<pdfrwt beam="1">  1       -3 0.10252111E-01 0.20001515E+02</pdfrwt>
<totfact> 0.15391210E+06</totfact>
</mgrwt>
</event>
<event>
 5    1  0.4182263E-007  0.2000056E+02  0.7818608E-02  0.1745317E+00
          3   -1    0    0  501    0  0.00000000000E+00  0.00000000000E+00  0.84877243549E+01  0.84882338401E+01  0.93000000000E-01 0. -1.
         -3   -1    0    0    0  501 -0.00000000000E+00 -0.00000000000E+00 -0.11781329296E+02  0.11781696354E+02  0.93000000000E-01 0.  1.
       1023    2    1    2    0    0  0.00000000000E+00  0.00000000000E+00 -0.32936049414E+01  0.20269930195E+02  0.20000555907E+02 0.  0.
        -11    1    3    3    0    0 -0.47312932128E+01 -0.88100932978E+01 -0.15943413735E+01  0.10126440839E+02  0.51100000000E-03 0. -1.
         11    1    3    3    0    0  0.47312932128E+01  0.88100932978E+01 -0.16992635679E+01  0.10143489356E+02  0.51100000000E-03 0.  1.
<mgrwt>
<rscale>  0 0.20000556E+02</rscale>
<asrwt>0</asrwt>
<pdfrwt beam="1">  1        3 0.13058712E-02 0.20000556E+02</pdfrwt>
<pdfrwt beam="2">  1       -3 0.18125796E-02 0.20000556E+02</pdfrwt>
<totfact> 0.17867031E+06</totfact>
</mgrwt>
</event>
<event>
 5    1  0.4133473E-007  0.2000191E+02  0.7818608E-02  0.1745290E+00
         -3   -1    0    0    0  501 -0.00000000000E+00  0.00000000000E+00  0.22183445520E+01  0.22202931228E+01  0.93000000000E-01 0.  1.
          3   -1    0    0  501    0  0.00000000000E+00 -0.00000000000E+00 -0.45065492690E+02  0.45065588651E+02  0.93000000000E-01 0. -1.
       1023    2    1    2    0    0  0.00000000000E+00  0.00000000000E+00 -0.42847148139E+02  0.47285881774E+02  0.20001912696E+02 0.  0.
        -11    1    3    3    0    0 -0.98940083071E+01  0.14558913549E+01 -0.21210708235E+02  0.23450056804E+02  0.51100000000E-03 0.  1.
         11    1    3    3    0    0  0.98940083071E+01 -0.14558913549E+01 -0.21636439903E+02  0.23835824969E+02  0.51100000000E-03 0. -1.
<mgrwt>
<rscale>  0 0.20001913E+02</rscale>
<asrwt>0</asrwt>
<pdfrwt beam="2">  1        3 0.69333093E-02 0.20001913E+02</pdfrwt>
<pdfrwt beam="1">  1       -3 0.34144108E-03 0.20001913E+02</pdfrwt>
<totfact> 0.16336416E+06</totfact>
</mgrwt>
</event>
<event>
 5    1  0.4133473E-007  0.2000039E+02  0.7818608E-02  0.1745320E+00
         -3   -1    0    0    0  501 -0.00000000000E+00  0.00000000000E+00  0.61791131570E+02  0.61791201556E+02  0.93000000000E-01 0. -1.
          3   -1    0    0  501    0  0.00000000000E+00 -0.00000000000E+00 -0.16170119374E+01  0.16196841068E+01  0.93000000000E-01 0.  1.
       1023    2    1    2    0    0  0.00000000000E+00  0.00000000000E+00  0.60174119632E+02  0.63410885662E+02  0.20000393670E+02 0.  0.
        -11    1    3    3    0    0  0.94690697323E+01  0.32156490170E+01  0.30036304459E+02  0.31657278247E+02  0.51100000000E-03 0. -1.
         11    1    3    3    0    0 -0.94690697323E+01 -0.32156490170E+01  0.30137815174E+02  0.31753607415E+02  0.51100000000E-03 0.  1.
<mgrwt>
<rscale>  0 0.20000394E+02</rscale>
<asrwt>0</asrwt>
<pdfrwt beam="2">  1        3 0.24898201E-03 0.20000394E+02</pdfrwt>
<pdfrwt beam="1">  1       -3 0.95065387E-02 0.20000394E+02</pdfrwt>
<totfact> 0.15595398E+06</totfact>
</mgrwt>
</event>
<event>
 5    1  0.4133473E-007  0.2000014E+02  0.7818608E-02  0.1745325E+00
         -3   -1    0    0    0  501 -0.00000000000E+00  0.00000000000E+00  0.83171242712E+01  0.83176442063E+01  0.93000000000E-01 0. -1.
          3   -1    0    0  501    0  0.00000000000E+00 -0.00000000000E+00 -0.12022473621E+02  0.12022833317E+02  0.93000000000E-01 0.  1.
       1023    2    1    2    0    0  0.00000000000E+00  0.00000000000E+00 -0.37053493499E+01  0.20340477523E+02  0.20000135301E+02 0.  0.
        -11    1    3    3    0    0 -0.99996932156E+01 -0.79591566699E-01 -0.18872163352E+01  0.10176531088E+02  0.51100000000E-03 0.  1.
         11    1    3    3    0    0  0.99996932156E+01  0.79591566699E-01 -0.18181330147E+01  0.10163946436E+02  0.51100000000E-03 0. -1.
<mgrwt>
<rscale>  0 0.20000135E+02</rscale>
<asrwt>0</asrwt>
<pdfrwt beam="2">  1        3 0.18496790E-02 0.20000135E+02</pdfrwt>
<pdfrwt beam="1">  1       -3 0.12796252E-02 0.20000135E+02</pdfrwt>
<totfact> 0.17862912E+06</totfact>
</mgrwt>
</event>
<event>
 5    1  0.4133473E-007  0.2000371E+02  0.7818608E-02  0.1745254E+00
          3   -1    0    0  501    0  0.00000000000E+00  0.00000000000E+00  0.53954837855E+01  0.53962852297E+01  0.93000000000E-01 0.  1.
         -3   -1    0    0    0  501 -0.00000000000E+00 -0.00000000000E+00 -0.18538606541E+02  0.18538839809E+02  0.93000000000E-01 0. -1.
       1023    2    1    2    0    0  0.00000000000E+00  0.00000000000E+00 -0.13143122755E+02  0.23935125039E+02  0.20003713027E+02 0.  0.
        -11    1    3    3    0    0  0.99001054869E+01 -0.14193869661E+01 -0.66934989753E+01  0.12034520215E+02  0.51100000000E-03 0.  1.
         11    1    3    3    0    0 -0.99001054869E+01  0.14193869661E+01 -0.64496237800E+01  0.11900604824E+02  0.51100000000E-03 0. -1.
<mgrwt>
<rscale>  0 0.20003713E+02</rscale>
<asrwt>0</asrwt>
<pdfrwt beam="1">  1        3 0.83015403E-03 0.20003713E+02</pdfrwt>
<pdfrwt beam="2">  1       -3 0.28521729E-02 0.20003713E+02</pdfrwt>
<totfact> 0.17626925E+06</totfact>
</mgrwt>
</event>
<event>
 5    1  0.4133473E-007  0.2000204E+02  0.7818608E-02  0.1745287E+00
          3   -1    0    0  501    0  0.00000000000E+00  0.00000000000E+00  0.57333298178E+02  0.57333373605E+02  0.93000000000E-01 0.  1.
         -3   -1    0    0    0  501 -0.00000000000E+00 -0.00000000000E+00 -0.17432275459E+01  0.17457065265E+01  0.93000000000E-01 0. -1.
       1023    2    1    2    0    0  0.00000000000E+00  0.00000000000E+00  0.55590070632E+02  0.59079080132E+02  0.20002043804E+02 0.  0.
        -11    1    3    3    0    0 -0.93644118616E+01  0.35110862215E+01  0.27861269361E+02  0.29601862553E+02  0.51100000000E-03 0. -1.
         11    1    3    3    0    0  0.93644118616E+01 -0.35110862215E+01  0.27728801271E+02  0.29477217578E+02  0.51100000000E-03 0.  1.
<mgrwt>
<rscale>  0 0.20002044E+02</rscale>
<asrwt>0</asrwt>
<pdfrwt beam="1">  1        3 0.88207042E-02 0.20002044E+02</pdfrwt>
<pdfrwt beam="2">  1       -3 0.26838534E-03 0.20002044E+02</pdfrwt>
<totfact> 0.15781385E+06</totfact>
</mgrwt>
</event>
<event>
 5    1  0.4133473E-007  0.2000340E+02  0.7818608E-02  0.1745260E+00
          3   -1    0    0  501    0  0.00000000000E+00  0.00000000000E+00  0.77920011353E+02  0.77920066852E+02  0.93000000000E-01 0. -1.
         -3   -1    0    0    0  501 -0.00000000000E+00 -0.00000000000E+00 -0.12820638093E+01  0.12854324608E+01  0.93000000000E-01 0.  1.
       1023    2    1    2    0    0  0.00000000000E+00  0.00000000000E+00  0.76637947544E+02  0.79205499313E+02  0.20003402653E+02 0.  0.
        -11    1    3    3    0    0 -0.86806916151E+01  0.49674407983E+01  0.38063766347E+02  0.39355815121E+02  0.51100000000E-03 0. -1.
         11    1    3    3    0    0  0.86806916151E+01 -0.49674407983E+01  0.38574181196E+02  0.39849684192E+02  0.51100000000E-03 0.  1.
<mgrwt>
<rscale>  0 0.20003403E+02</rscale>
<asrwt>0</asrwt>
<pdfrwt beam="1">  1        3 0.11987958E-01 0.20003403E+02</pdfrwt>
<pdfrwt beam="2">  1       -3 0.19750398E-03 0.20003403E+02</pdfrwt>
<totfact> 0.14936913E+06</totfact>
</mgrwt>
</event>
<event>
 4    1  0.4133473E-007  0.2009825E+02  0.7818608E-02  0.1743381E+00
          3   -1    0    0  501    0  0.00000000000E+00  0.00000000000E+00  0.68356627561E+01  0.68362953649E+01  0.93000000000E-01 0. -1.
         -3   -1    0    0    0  501 -0.00000000000E+00 -0.00000000000E+00 -0.14771787564E+02  0.14772080315E+02  0.93000000000E-01 0.  1.
        -11    1    1    2    0    0 -0.71270336558E+01  0.70778399175E+01 -0.42986189321E+01  0.10925591591E+02  0.51100000000E-03 0.  1.
         11    1    1    2    0    0  0.71270336558E+01 -0.70778399175E+01 -0.36375058755E+01  0.10682784089E+02  0.51100000000E-03 0. -1.
<mgrwt>
<rscale>  0 0.20098254E+02</rscale>
<asrwt>0</asrwt>
<pdfrwt beam="1">  1        3 0.10517116E-02 0.20098254E+02</pdfrwt>
<pdfrwt beam="2">  1       -3 0.22726539E-02 0.20098254E+02</pdfrwt>
<totfact> 0.17594488E+06</totfact>
</mgrwt>
</event>
<event>
 5    1  0.4161707E-007  0.2000139E+02  0.7818608E-02  0.1745300E+00
          3   -1    0    0  501    0  0.00000000000E+00  0.00000000000E+00  0.26171762916E+01  0.26188281236E+01  0.93000000000E-01 0. -1.
         -3   -1    0    0    0  501 -0.00000000000E+00 -0.00000000000E+00 -0.38200659123E+02  0.38200772328E+02  0.93000000000E-01 0.  1.
       1023    2    1    2    0    0  0.00000000000E+00  0.00000000000E+00 -0.35583482832E+02  0.40819600451E+02  0.20001388217E+02 0.  0.
        -11    1    3    3    0    0 -0.29788914823E+01  0.95464681538E+01 -0.17646946681E+02  0.20283578976E+02  0.51100000000E-03 0. -1.
         11    1    3    3    0    0  0.29788914823E+01 -0.95464681538E+01 -0.17936536151E+02  0.20536021475E+02  0.51100000000E-03 0.  1.
<mgrwt>
<rscale>  0 0.20001388E+02</rscale>
<asrwt>0</asrwt>
<pdfrwt beam="1">  1        3 0.40277831E-03 0.20001388E+02</pdfrwt>
<pdfrwt beam="2">  1       -3 0.58771599E-02 0.20001388E+02</pdfrwt>
<totfact> 0.16668548E+06</totfact>
</mgrwt>
</event>
<event>
 5    1  0.4133473E-007  0.2001109E+02  0.7818608E-02  0.1745108E+00
          3   -1    0    0  501    0  0.00000000000E+00  0.00000000000E+00  0.95198203883E+01  0.95202746402E+01  0.93000000000E-01 0. -1.
         -3   -1    0    0    0  501 -0.00000000000E+00 -0.00000000000E+00 -0.10515146017E+02  0.10515557273E+02  0.93000000000E-01 0.  1.
       1023    2    1    2    0    0  0.00000000000E+00  0.00000000000E+00 -0.99532562871E+00  0.20035831913E+02  0.20011094107E+02 0.  0.
        -11    1    3    3    0    0 -0.20424094310E-02  0.10004109045E+02 -0.32783702984E+00  0.10009479474E+02  0.51100000000E-03 0.  1.
         11    1    3    3    0    0  0.20424094310E-02 -0.10004109045E+02 -0.66748859888E+00  0.10026352440E+02  0.51100000000E-03 0. -1.
<mgrwt>
<rscale>  0 0.20011094E+02</rscale>
<asrwt>0</asrwt>
<pdfrwt beam="1">  1        3 0.14646543E-02 0.20011094E+02</pdfrwt>
<pdfrwt beam="2">  1       -3 0.16177813E-02 0.20011094E+02</pdfrwt>
<totfact> 0.17861976E+06</totfact>
</mgrwt>
</event>
<event>
 5    1  0.4133473E-007  0.2000050E+02  0.7818608E-02  0.1745318E+00
          3   -1    0    0  501    0  0.00000000000E+00  0.00000000000E+00  0.24772124748E+02  0.24772299319E+02  0.93000000000E-01 0. -1.
         -3   -1    0    0    0  501 -0.00000000000E+00 -0.00000000000E+00 -0.40362724346E+01  0.40373437017E+01  0.93000000000E-01 0.  1.
       1023    2    1    2    0    0  0.00000000000E+00  0.00000000000E+00  0.20735852313E+02  0.28809643020E+02  0.20000498989E+02 0.  0.
        -11    1    3    3    0    0  0.40539590492E+01  0.91416665812E+01  0.10394401895E+02  0.14423877525E+02  0.51100000000E-03 0.  1.
         11    1    3    3    0    0 -0.40539590492E+01 -0.91416665812E+01  0.10341450419E+02  0.14385765495E+02  0.51100000000E-03 0. -1.
<mgrwt>
<rscale>  0 0.20000499E+02</rscale>
<asrwt>0</asrwt>
<pdfrwt beam="1">  1        3 0.38111920E-02 0.20000499E+02</pdfrwt>
<pdfrwt beam="2">  1       -3 0.62106082E-03 0.20000499E+02</pdfrwt>
<totfact> 0.17335387E+06</totfact>
</mgrwt>
</event>
<event>
 5    1  0.4133473E-007  0.2000413E+02  0.7818608E-02  0.1745246E+00
          3   -1    0    0  501    0  0.00000000000E+00  0.00000000000E+00  0.30759667297E+01  0.30773723080E+01  0.93000000000E-01 0.  1.
         -3   -1    0    0    0  501 -0.00000000000E+00 -0.00000000000E+00 -0.32514619201E+02  0.32514752202E+02  0.93000000000E-01 0. -1.
       1023    2    1    2    0    0  0.00000000000E+00  0.00000000000E+00 -0.29438652471E+02  0.35592124510E+02  0.20004126270E+02 0.  0.
        -11    1    3    3    0    0 -0.96079578454E+00  0.99553045452E+01 -0.14897690594E+02  0.17943589452E+02  0.51100000000E-03 0.  1.
         11    1    3    3    0    0  0.96079578454E+00 -0.99553045452E+01 -0.14540961878E+02  0.17648535059E+02  0.51100000000E-03 0. -1.
<mgrwt>
<rscale>  0 0.20004126E+02</rscale>
<asrwt>0</asrwt>
<pdfrwt beam="1">  1        3 0.47334403E-03 0.20004126E+02</pdfrwt>
<pdfrwt beam="2">  1       -3 0.50023672E-02 0.20004126E+02</pdfrwt>
<totfact> 0.16943867E+06</totfact>
</mgrwt>
</event>
<event>
 5    1  0.4133473E-007  0.2000281E+02  0.7818608E-02  0.1745272E+00
         -3   -1    0    0    0  501 -0.00000000000E+00  0.00000000000E+00  0.33323846227E+01  0.33336820895E+01  0.93000000000E-01 0. -1.
          3   -1    0    0  501    0  0.00000000000E+00 -0.00000000000E+00 -0.30009775601E+02  0.30009919704E+02  0.93000000000E-01 0.  1.
       1023    2    1    2    0    0  0.00000000000E+00  0.00000000000E+00 -0.26677390979E+02  0.33343601794E+02  0.20002814580E+02 0.  0.
        -11    1    3    3    0    0  0.94992842181E+01  0.31254971907E+01 -0.13591578200E+02  0.16874126098E+02  0.51100000000E-03 0. -1.
         11    1    3    3    0    0 -0.94992842181E+01 -0.31254971907E+01 -0.13085812779E+02  0.16469475696E+02  0.51100000000E-03 0.  1.
<mgrwt>
<rscale>  0 0.20002815E+02</rscale>
<asrwt>0</asrwt>
<pdfrwt beam="2">  1        3 0.46169993E-02 0.20002815E+02</pdfrwt>
<pdfrwt beam="1">  1       -3 0.51278547E-03 0.20002815E+02</pdfrwt>
<totfact> 0.17069428E+06</totfact>
</mgrwt>
</event>
<event>
 5    1  0.4350314E-007  0.2000106E+02  0.7818608E-02  0.1745307E+00
         -3   -1    0    0    0  501 -0.00000000000E+00  0.00000000000E+00  0.48308233365E+01  0.48317184426E+01  0.93000000000E-01 0.  1.
          3   -1    0    0  501    0  0.00000000000E+00 -0.00000000000E+00 -0.20699685514E+02  0.20699894429E+02  0.93000000000E-01 0. -1.
       1023    2    1    2    0    0  0.00000000000E+00  0.00000000000E+00 -0.15868862178E+02  0.25531612872E+02  0.20001061698E+02 0.  0.
        -11    1    3    3    0    0  0.35793780339E+01 -0.93376076219E+01 -0.78220269972E+01  0.12695943046E+02  0.51100000000E-03 0.  1.
         11    1    3    3    0    0 -0.35793780339E+01  0.93376076219E+01 -0.80468351806E+01  0.12835669826E+02  0.51100000000E-03 0. -1.
<mgrwt>
<rscale>  0 0.20001062E+02</rscale>
<asrwt>0</asrwt>
<pdfrwt beam="2">  1        3 0.31846519E-02 0.20001062E+02</pdfrwt>
<pdfrwt beam="1">  1       -3 0.74328852E-03 0.20001062E+02</pdfrwt>
<totfact> 0.17531834E+06</totfact>
</mgrwt>
</event>
<event>
 5    1  0.4253784E-007  0.2000108E+02  0.7818608E-02  0.1745307E+00
         -3   -1    0    0    0  501 -0.00000000000E+00  0.00000000000E+00  0.98000991672E+01  0.98005404283E+01  0.93000000000E-01 0.  1.
          3   -1    0    0  501    0  0.00000000000E+00 -0.00000000000E+00 -0.10204200235E+02  0.10204624022E+02  0.93000000000E-01 0. -1.
       1023    2    1    2    0    0  0.00000000000E+00  0.00000000000E+00 -0.40410106785E+00  0.20005164451E+02  0.20001082646E+02 0.  0.
        -11    1    3    3    0    0 -0.80905821739E+01  0.58781275967E+01 -0.23243005979E+00  0.10003195887E+02  0.51100000000E-03 0.  1.
         11    1    3    3    0    0  0.80905821739E+01 -0.58781275967E+01 -0.17167100806E+00  0.10001968564E+02  0.51100000000E-03 0. -1.
<mgrwt>
<rscale>  0 0.20001083E+02</rscale>
<asrwt>0</asrwt>
<pdfrwt beam="2">  1        3 0.15699435E-02 0.20001083E+02</pdfrwt>
<pdfrwt beam="1">  1       -3 0.15077741E-02 0.20001083E+02</pdfrwt>
<totfact> 0.17883188E+06</totfact>
</mgrwt>
</event>
<event>
 5    1  0.4133473E-007  0.2000076E+02  0.7818608E-02  0.1745313E+00
          3   -1    0    0  501    0  0.00000000000E+00  0.00000000000E+00  0.36013140589E+02  0.36013260670E+02  0.93000000000E-01 0. -1.
         -3   -1    0    0    0  501 -0.00000000000E+00 -0.00000000000E+00 -0.27760730499E+01  0.27776303891E+01  0.93000000000E-01 0.  1.
       1023    2    1    2    0    0  0.00000000000E+00  0.00000000000E+00  0.33237067539E+02  0.38790891059E+02  0.20000764249E+02 0.  0.
        -11    1    3    3    0    0 -0.14438135308E+01  0.98954988872E+01  0.16708393024E+02  0.19472439330E+02  0.51100000000E-03 0. -1.
         11    1    3    3    0    0  0.14438135308E+01 -0.98954988872E+01  0.16528674515E+02  0.19318451729E+02  0.51100000000E-03 0.  1.
<mgrwt>
<rscale>  0 0.20000764E+02</rscale>
<asrwt>0</asrwt>
<pdfrwt beam="1">  1        3 0.55406118E-02 0.20000764E+02</pdfrwt>
<pdfrwt beam="2">  1       -3 0.42721722E-03 0.20000764E+02</pdfrwt>
<totfact> 0.16774589E+06</totfact>
</mgrwt>
</event>
<event>
 5    1  0.4692181E-007  0.2000196E+02  0.7818608E-02  0.1745289E+00
          3   -1    0    0  501    0  0.00000000000E+00  0.00000000000E+00  0.92323164148E+01  0.92327848119E+01  0.93000000000E-01 0. -1.
         -3   -1    0    0    0  501 -0.00000000000E+00 -0.00000000000E+00 -0.10832699055E+02  0.10833098256E+02  0.93000000000E-01 0.  1.
       1023    2    1    2    0    0  0.00000000000E+00  0.00000000000E+00 -0.16003826401E+01  0.20065883068E+02  0.20001960871E+02 0.  0.
        -11    1    3    3    0    0 -0.99950731685E+01 -0.33580169847E+00 -0.72675228009E+00  0.10027084300E+02  0.51100000000E-03 0. -1.
         11    1    3    3    0    0  0.99950731685E+01  0.33580169847E+00 -0.87363036002E+00  0.10038798767E+02  0.51100000000E-03 0.  1.
<mgrwt>
<rscale>  0 0.20001961E+02</rscale>
<asrwt>0</asrwt>
<pdfrwt beam="1">  1        3 0.14204231E-02 0.20001961E+02</pdfrwt>
<pdfrwt beam="2">  1       -3 0.16666358E-02 0.20001961E+02</pdfrwt>
<totfact> 0.17877637E+06</totfact>
</mgrwt>
</event>
<event>
 5    1  0.4221415E-007  0.2000139E+02  0.7818608E-02  0.1745300E+00
         -3   -1    0    0    0  501 -0.00000000000E+00  0.00000000000E+00  0.21805361718E+02  0.21805560039E+02  0.93000000000E-01 0.  1.
          3   -1    0    0  501    0  0.00000000000E+00 -0.00000000000E+00 -0.45859765215E+01  0.45869194081E+01  0.93000000000E-01 0. -1.
       1023    2    1    2    0    0  0.00000000000E+00  0.00000000000E+00  0.17219385196E+02  0.26392479448E+02  0.20001393573E+02 0.  0.
        -11    1    3    3    0    0  0.24412422727E+00 -0.99974857296E+01  0.85200187572E+01  0.13137733345E+02  0.51100000000E-03 0. -1.
         11    1    3    3    0    0 -0.24412422727E+00  0.99974857296E+01  0.86993664389E+01  0.13254746103E+02  0.51100000000E-03 0.  1.
<mgrwt>
<rscale>  0 0.20001394E+02</rscale>
<asrwt>0</asrwt>
<pdfrwt beam="2">  1        3 0.70562263E-03 0.20001394E+02</pdfrwt>
<pdfrwt beam="1">  1       -3 0.33547588E-02 0.20001394E+02</pdfrwt>
<totfact> 0.17479983E+06</totfact>
</mgrwt>
</event>
<event>
 5    1  0.4239851E-007  0.2000071E+02  0.7818608E-02  0.1745314E+00
          3   -1    0    0  501    0  0.00000000000E+00  0.00000000000E+00  0.59785934068E+01  0.59793166937E+01  0.93000000000E-01 0. -1.
         -3   -1    0    0    0  501 -0.00000000000E+00 -0.00000000000E+00 -0.16725666069E+02  0.16725924622E+02  0.93000000000E-01 0.  1.
       1023    2    1    2    0    0  0.00000000000E+00  0.00000000000E+00 -0.10747072662E+02  0.22705241315E+02  0.20000710297E+02 0.  0.
        -11    1    3    3    0    0  0.99958050192E+01 -0.30098954042E+00 -0.53959594372E+01  0.11363234187E+02  0.51100000000E-03 0.  1.
         11    1    3    3    0    0 -0.99958050192E+01  0.30098954042E+00 -0.53511132250E+01  0.11342007128E+02  0.51100000000E-03 0. -1.
<mgrwt>
<rscale>  0 0.20000710E+02</rscale>
<asrwt>0</asrwt>
<pdfrwt beam="1">  1        3 0.91985913E-03 0.20000710E+02</pdfrwt>
<pdfrwt beam="2">  1       -3 0.25732549E-02 0.20000710E+02</pdfrwt>
<totfact> 0.17709971E+06</totfact>
</mgrwt>
</event>
<event>
 5    1  0.4133473E-007  0.2000105E+02  0.7818608E-02  0.1745307E+00
         -3   -1    0    0    0  501 -0.00000000000E+00  0.00000000000E+00  0.11723516943E+01  0.11760346488E+01  0.93000000000E-01 0. -1.
          3   -1    0    0  501    0  0.00000000000E+00 -0.00000000000E+00 -0.85170077143E+02  0.85170127917E+02  0.93000000000E-01 0.  1.
       1023    2    1    2    0    0  0.00000000000E+00  0.00000000000E+00 -0.83997725448E+02  0.86346162566E+02  0.20001047709E+02 0.  0.
        -11    1    3    3    0    0  0.99468466133E+01 -0.10347211578E+01 -0.42035411729E+02  0.43208636231E+02  0.51100000000E-03 0.  1.
         11    1    3    3    0    0 -0.99468466133E+01  0.10347211578E+01 -0.41962313719E+02  0.43137526336E+02  0.51100000000E-03 0. -1.
<mgrwt>
<rscale>  0 0.20001048E+02</rscale>
<asrwt>0</asrwt>
<pdfrwt beam="2">  1        3 0.13103371E-01 0.20001048E+02</pdfrwt>
<pdfrwt beam="1">  1       -3 0.18064908E-03 0.20001048E+02</pdfrwt>
<totfact> 0.14667826E+06</totfact>
</mgrwt>
</event>
<event>
 4    1  0.4133473E-007  0.2009603E+02  0.7818608E-02  0.1743425E+00
          3   -1    0    0  501    0  0.00000000000E+00  0.00000000000E+00  0.14168876822E+02  0.14169182030E+02  0.93000000000E-01 0.  1.
         -3   -1    0    0    0  501 -0.00000000000E+00 -0.00000000000E+00 -0.71249736547E+01  0.71255805785E+01  0.93000000000E-01 0. -1.
        -11    1    1    2    0    0 -0.85137368595E+00 -0.99815084591E+01  0.26962145933E+01  0.10374243185E+02  0.51100000000E-03 0.  1.
         11    1    1    2    0    0  0.85137368595E+00  0.99815084591E+01  0.43476885738E+01  0.10920519423E+02  0.51100000000E-03 0. -1.
<mgrwt>
<rscale>  0 0.20096028E+02</rscale>
<asrwt>0</asrwt>
<pdfrwt beam="1">  1        3 0.21798974E-02 0.20096028E+02</pdfrwt>
<pdfrwt beam="2">  1       -3 0.10962200E-02 0.20096028E+02</pdfrwt>
<totfact> 0.17618085E+06</totfact>
</mgrwt>
</event>
<event>
 5    1  0.4133473E-007  0.2000043E+02  0.7818608E-02  0.1745320E+00
          3   -1    0    0  501    0  0.00000000000E+00  0.00000000000E+00  0.11857336383E+02  0.11857701088E+02  0.93000000000E-01 0.  1.
         -3   -1    0    0    0  501 -0.00000000000E+00 -0.00000000000E+00 -0.84332069170E+01  0.84337196957E+01  0.93000000000E-01 0. -1.
       1023    2    1    2    0    0  0.00000000000E+00  0.00000000000E+00  0.34241294656E+01  0.20291420784E+02  0.20000427366E+02 0.  0.
        -11    1    3    3    0    0  0.10000211390E+02  0.44354055089E-02  0.17068989295E+01  0.10144838675E+02  0.51100000000E-03 0. -1.
         11    1    3    3    0    0 -0.10000211390E+02 -0.44354055089E-02  0.17172305361E+01  0.10146582109E+02  0.51100000000E-03 0.  1.
<mgrwt>
<rscale>  0 0.20000427E+02</rscale>
<asrwt>0</asrwt>
<pdfrwt beam="1">  1        3 0.18242731E-02 0.20000427E+02</pdfrwt>
<pdfrwt beam="2">  1       -3 0.12974839E-02 0.20000427E+02</pdfrwt>
<totfact> 0.17865573E+06</totfact>
</mgrwt>
</event>
<event>
 5    1  0.4133598E-007  0.2000179E+02  0.7818608E-02  0.1745293E+00
         -3   -1    0    0    0  501 -0.00000000000E+00  0.00000000000E+00  0.49194106251E+02  0.49194194158E+02  0.93000000000E-01 0. -1.
          3   -1    0    0  501    0  0.00000000000E+00 -0.00000000000E+00 -0.20319737938E+01  0.20341009068E+01  0.93000000000E-01 0.  1.
       1023    2    1    2    0    0  0.00000000000E+00  0.00000000000E+00  0.47162132457E+02  0.51228295065E+02  0.20001786853E+02 0.  0.
        -11    1    3    3    0    0 -0.68010732238E+01  0.73323222048E+01  0.23627107604E+02  0.25656534449E+02  0.51100000000E-03 0. -1.
         11    1    3    3    0    0  0.68010732238E+01 -0.73323222048E+01  0.23535024853E+02  0.25571760616E+02  0.51100000000E-03 0.  1.
<mgrwt>
<rscale>  0 0.20001787E+02</rscale>
<asrwt>0</asrwt>
<pdfrwt beam="2">  1        3 0.31278173E-03 0.20001787E+02</pdfrwt>
<pdfrwt beam="1">  1       -3 0.75684946E-02 0.20001787E+02</pdfrwt>
<totfact> 0.16147698E+06</totfact>
</mgrwt>
</event>
<event>
 5    1  0.4263240E-007  0.2000234E+02  0.7818608E-02  0.1745281E+00
         -3   -1    0    0    0  501 -0.00000000000E+00  0.00000000000E+00  0.33555707745E+02  0.33555836620E+02  0.93000000000E-01 0.  1.
          3   -1    0    0  501    0  0.00000000000E+00 -0.00000000000E+00 -0.29799572461E+01  0.29814080882E+01  0.93000000000E-01 0. -1.
       1023    2    1    2    0    0  0.00000000000E+00  0.00000000000E+00  0.30575750499E+02  0.36537244709E+02  0.20002343170E+02 0.  0.
        -11    1    3    3    0    0  0.28911449718E+01 -0.95734742520E+01  0.15077181759E+02  0.18092306060E+02  0.51100000000E-03 0.  1.
         11    1    3    3    0    0 -0.28911449718E+01  0.95734742520E+01  0.15498568740E+02  0.18444938649E+02  0.51100000000E-03 0. -1.
<mgrwt>
<rscale>  0 0.20002343E+02</rscale>
<asrwt>0</asrwt>
<pdfrwt beam="2">  1        3 0.45857649E-03 0.20002343E+02</pdfrwt>
<pdfrwt beam="1">  1       -3 0.51625380E-02 0.20002343E+02</pdfrwt>
<totfact> 0.16895408E+06</totfact>
</mgrwt>
</event>
<event>
 5    1  0.4133473E-007  0.2000128E+02  0.7818608E-02  0.1745303E+00
          3   -1    0    0  501    0  0.00000000000E+00  0.00000000000E+00  0.99635421825E+02  0.99635465229E+02  0.93000000000E-01 0.  1.
         -3   -1    0    0    0  501 -0.00000000000E+00 -0.00000000000E+00 -0.10015894396E+01  0.10058978107E+01  0.93000000000E-01 0. -1.
       1023    2    1    2    0    0  0.00000000000E+00  0.00000000000E+00  0.98633832386E+02  0.10064136304E+03  0.20001276542E+02 0.  0.
        -11    1    3    3    0    0  0.70857452858E+01 -0.70571968458E+01  0.49161664731E+02  0.50168526916E+02  0.51100000000E-03 0.  1.
         11    1    3    3    0    0 -0.70857452858E+01  0.70571968458E+01  0.49472167655E+02  0.50472836123E+02  0.51100000000E-03 0. -1.
<mgrwt>
<rscale>  0 0.20001277E+02</rscale>
<asrwt>0</asrwt>
<pdfrwt beam="1">  1        3 0.15328863E-01 0.20001277E+02</pdfrwt>
<pdfrwt beam="2">  1       -3 0.15442542E-03 0.20001277E+02</pdfrwt>
<totfact> 0.14153925E+06</totfact>
</mgrwt>
</event>
<event>
 5    1  0.4133473E-007  0.2000009E+02  0.7818608E-02  0.1745326E+00
          3   -1    0    0  501    0  0.00000000000E+00  0.00000000000E+00  0.36234698890E+01  0.36246631618E+01  0.93000000000E-01 0.  1.
         -3   -1    0    0    0  501 -0.00000000000E+00 -0.00000000000E+00 -0.27592287747E+02  0.27592444475E+02  0.93000000000E-01 0. -1.
       1023    2    1    2    0    0  0.00000000000E+00  0.00000000000E+00 -0.23968817858E+02  0.31217107637E+02  0.20000089493E+02 0.  0.
        -11    1    3    3    0    0  0.89955135269E+00  0.99595025938E+01 -0.11979444981E+02  0.15604742448E+02  0.51100000000E-03 0. -1.
         11    1    3    3    0    0 -0.89955135269E+00 -0.99595025938E+01 -0.11989372877E+02  0.15612365189E+02  0.51100000000E-03 0.  1.
<mgrwt>
<rscale>  0 0.20000089E+02</rscale>
<asrwt>0</asrwt>
<pdfrwt beam="1">  1        3 0.55756077E-03 0.20000089E+02</pdfrwt>
<pdfrwt beam="2">  1       -3 0.42450711E-02 0.20000089E+02</pdfrwt>
<totfact> 0.17197461E+06</totfact>
</mgrwt>
</event>
<event>
 5    1  0.4133473E-007  0.2000001E+02  0.7818608E-02  0.1745328E+00
          3   -1    0    0  501    0  0.00000000000E+00  0.00000000000E+00  0.13089458933E+01  0.13122455378E+01  0.93000000000E-01 0. -1.
         -3   -1    0    0    0  501 -0.00000000000E+00 -0.00000000000E+00 -0.76297951925E+02  0.76298008604E+02  0.93000000000E-01 0.  1.
       1023    2    1    2    0    0  0.00000000000E+00  0.00000000000E+00 -0.74989006031E+02  0.77610254142E+02  0.20000013058E+02 0.  0.
        -11    1    3    3    0    0  0.13130828709E+01 -0.99134215416E+01 -0.37510519542E+02  0.38820602647E+02  0.51100000000E-03 0. -1.
         11    1    3    3    0    0 -0.13130828709E+01  0.99134215416E+01 -0.37478486490E+02  0.38789651495E+02  0.51100000000E-03 0.  1.
<mgrwt>
<rscale>  0 0.20000013E+02</rscale>
<asrwt>0</asrwt>
<pdfrwt beam="1">  1        3 0.20163453E-03 0.20000013E+02</pdfrwt>
<pdfrwt beam="2">  1       -3 0.11738401E-01 0.20000013E+02</pdfrwt>
<totfact> 0.15007896E+06</totfact>
</mgrwt>
</event>
<event>
 5    1  0.4133473E-007  0.2000706E+02  0.7818608E-02  0.1745188E+00
          3   -1    0    0  501    0  0.00000000000E+00  0.00000000000E+00  0.24233777333E+02  0.24233955781E+02  0.93000000000E-01 0. -1.
         -3   -1    0    0    0  501 -0.00000000000E+00 -0.00000000000E+00 -0.41286683203E+01  0.41297156196E+01  0.93000000000E-01 0.  1.
       1023    2    1    2    0    0  0.00000000000E+00  0.00000000000E+00  0.20105109013E+02  0.28363671401E+02  0.20007059927E+02 0.  0.
        -11    1    3    3    0    0 -0.46756027461E+01 -0.88435992153E+01  0.10066967205E+02  0.14192051898E+02  0.51100000000E-03 0. -1.
         11    1    3    3    0    0  0.46756027461E+01  0.88435992153E+01  0.10038141807E+02  0.14171619503E+02  0.51100000000E-03 0.  1.
<mgrwt>
<rscale>  0 0.20007060E+02</rscale>
<asrwt>0</asrwt>
<pdfrwt beam="1">  1        3 0.37283677E-02 0.20007060E+02</pdfrwt>
<pdfrwt beam="2">  1       -3 0.63527404E-03 0.20007060E+02</pdfrwt>
<totfact> 0.17349587E+06</totfact>
</mgrwt>
</event>
<event>
 5    1  0.4214365E-007  0.2000115E+02  0.7818608E-02  0.1745305E+00
          3   -1    0    0  501    0  0.00000000000E+00  0.00000000000E+00  0.70584178453E+02  0.70584239720E+02  0.93000000000E-01 0. -1.
         -3   -1    0    0    0  501 -0.00000000000E+00 -0.00000000000E+00 -0.14153224372E+01  0.14183746336E+01  0.93000000000E-01 0.  1.
       1023    2    1    2    0    0  0.00000000000E+00  0.00000000000E+00  0.69168856016E+02  0.72002614354E+02  0.20001145749E+02 0.  0.
        -11    1    3    3    0    0 -0.64050629638E+01 -0.76799231561E+01  0.34319734367E+02  0.35747030906E+02  0.51100000000E-03 0. -1.
         11    1    3    3    0    0  0.64050629638E+01  0.76799231561E+01  0.34849121648E+02  0.36255583448E+02  0.51100000000E-03 0.  1.
<mgrwt>
<rscale>  0 0.20001146E+02</rscale>
<asrwt>0</asrwt>
<pdfrwt beam="1">  1        3 0.10859340E-01 0.20001146E+02</pdfrwt>
<pdfrwt beam="2">  1       -3 0.21798148E-03 0.20001146E+02</pdfrwt>
<totfact> 0.15228579E+06</totfact>
</mgrwt>
</event>
<event>
 5    1  0.4133473E-007  0.2000022E+02  0.7818608E-02  0.1745324E+00
          3   -1    0    0  501    0  0.00000000000E+00  0.00000000000E+00  0.44410102059E+02  0.44410199435E+02  0.93000000000E-01 0. -1.
         -3   -1    0    0    0  501 -0.00000000000E+00 -0.00000000000E+00 -0.22507291729E+01  0.22526497308E+01  0.93000000000E-01 0.  1.
       1023    2    1    2    0    0  0.00000000000E+00  0.00000000000E+00  0.42159372886E+02  0.46662849166E+02  0.20000219253E+02 0.  0.
        -11    1    3    3    0    0 -0.90814661309E+01 -0.41865694152E+01  0.21178719532E+02  0.23420899893E+02  0.51100000000E-03 0. -1.
         11    1    3    3    0    0  0.90814661309E+01  0.41865694152E+01  0.20980653355E+02  0.23241949273E+02  0.51100000000E-03 0.  1.
<mgrwt>
<rscale>  0 0.20000219E+02</rscale>
<asrwt>0</asrwt>
<pdfrwt beam="1">  1        3 0.68324782E-02 0.20000219E+02</pdfrwt>
<pdfrwt beam="2">  1       -3 0.34642128E-03 0.20000219E+02</pdfrwt>
<totfact> 0.16370270E+06</totfact>
</mgrwt>
</event>
<event>
 5    1  0.4133473E-007  0.2000012E+02  0.7818608E-02  0.1745326E+00
          3   -1    0    0  501    0  0.00000000000E+00  0.00000000000E+00  0.73681558195E+01  0.73687427137E+01  0.93000000000E-01 0. -1.
         -3   -1    0    0    0  501 -0.00000000000E+00 -0.00000000000E+00 -0.13570798056E+02  0.13571116714E+02  0.93000000000E-01 0.  1.
       1023    2    1    2    0    0  0.00000000000E+00  0.00000000000E+00 -0.62026422364E+01  0.20939859428E+02  0.20000123554E+02 0.  0.
        -11    1    3    3    0    0  0.56027286351E+01  0.82831127153E+01 -0.31292359068E+01  0.10478198416E+02  0.51100000000E-03 0. -1.
         11    1    3    3    0    0 -0.56027286351E+01 -0.82831127153E+01 -0.30734063296E+01  0.10461661013E+02  0.51100000000E-03 0.  1.
<mgrwt>
<rscale>  0 0.20000124E+02</rscale>
<asrwt>0</asrwt>
<pdfrwt beam="1">  1        3 0.11336321E-02 0.20000124E+02</pdfrwt>
<pdfrwt beam="2">  1       -3 0.20878847E-02 0.20000124E+02</pdfrwt>
<totfact> 0.17824299E+06</totfact>
</mgrwt>
</event>
<event>
 5    1  0.4133473E-007  0.2000273E+02  0.7818608E-02  0.1745274E+00
          3   -1    0    0  501    0  0.00000000000E+00  0.00000000000E+00  0.16194666320E+02  0.16194933350E+02  0.93000000000E-01 0. -1.
         -3   -1    0    0    0  501 -0.00000000000E+00 -0.00000000000E+00 -0.61758913314E+01  0.61765915145E+01  0.93000000000E-01 0.  1.
       1023    2    1    2    0    0  0.00000000000E+00  0.00000000000E+00  0.10018774989E+02  0.22371524865E+02  0.20002731626E+02 0.  0.
        -11    1    3    3    0    0 -0.84788387622E+01 -0.53043954159E+01  0.50086992299E+01  0.11185454203E+02  0.51100000000E-03 0.  1.
         11    1    3    3    0    0  0.84788387622E+01  0.53043954159E+01  0.50100757586E+01  0.11186070662E+02  0.51100000000E-03 0. -1.
<mgrwt>
<rscale>  0 0.20002732E+02</rscale>
<asrwt>0</asrwt>
<pdfrwt beam="1">  1        3 0.24915615E-02 0.20002732E+02</pdfrwt>
<pdfrwt beam="2">  1       -3 0.95021153E-03 0.20002732E+02</pdfrwt>
<totfact> 0.17726478E+06</totfact>
</mgrwt>
</event>
<event>
 5    1  0.4133473E-007  0.2000026E+02  0.7818608E-02  0.1745323E+00
          3   -1    0    0  501    0  0.00000000000E+00  0.00000000000E+00  0.46395684358E+02  0.46395777567E+02  0.93000000000E-01 0.  1.
         -3   -1    0    0    0  501 -0.00000000000E+00 -0.00000000000E+00 -0.21543297568E+01  0.21563361754E+01  0.93000000000E-01 0. -1.
       1023    2    1    2    0    0  0.00000000000E+00  0.00000000000E+00  0.44241354601E+02  0.48552113742E+02  0.20000257296E+02 0.  0.
        -11    1    3    3    0    0  0.25513439757E+01  0.96691463451E+01  0.22050925597E+02  0.24212498158E+02  0.51100000000E-03 0.  1.
         11    1    3    3    0    0 -0.25513439757E+01 -0.96691463451E+01  0.22190429005E+02  0.24339615584E+02  0.51100000000E-03 0. -1.
<mgrwt>
<rscale>  0 0.20000257E+02</rscale>
<asrwt>0</asrwt>
<pdfrwt beam="1">  1        3 0.71379588E-02 0.20000257E+02</pdfrwt>
<pdfrwt beam="2">  1       -3 0.33159687E-03 0.20000257E+02</pdfrwt>
<totfact> 0.16277079E+06</totfact>
</mgrwt>
</event>
<event>
 5    1  0.4336645E-007  0.2000080E+02  0.7818608E-02  0.1745312E+00
         -3   -1    0    0    0  501 -0.00000000000E+00  0.00000000000E+00  0.61299591864E+01  0.61306646154E+01  0.93000000000E-01 0.  1.
          3   -1    0    0  501    0  0.00000000000E+00 -0.00000000000E+00 -0.16312852964E+02  0.16313118059E+02  0.93000000000E-01 0. -1.
       1023    2    1    2    0    0  0.00000000000E+00  0.00000000000E+00 -0.10182893777E+02  0.22443782675E+02  0.20000801361E+02 0.  0.
        -11    1    3    3    0    0  0.19174318011E+01 -0.98148590329E+01 -0.50951616038E+01  0.11223576728E+02  0.51100000000E-03 0.  1.
         11    1    3    3    0    0 -0.19174318011E+01  0.98148590329E+01 -0.50877321735E+01  0.11220205946E+02  0.51100000000E-03 0. -1.
<mgrwt>
<rscale>  0 0.20000801E+02</rscale>
<asrwt>0</asrwt>
<pdfrwt beam="2">  1        3 0.25097443E-02 0.20000801E+02</pdfrwt>
<pdfrwt beam="1">  1       -3 0.94314531E-03 0.20000801E+02</pdfrwt>
<totfact> 0.17725547E+06</totfact>
</mgrwt>
</event>
<event>
 5    1  0.4133473E-007  0.2000113E+02  0.7818608E-02  0.1745306E+00
         -3   -1    0    0    0  501 -0.00000000000E+00  0.00000000000E+00  0.13042686536E+01  0.13075801011E+01  0.93000000000E-01 0.  1.
          3   -1    0    0  501    0  0.00000000000E+00 -0.00000000000E+00 -0.76579447452E+02  0.76579503923E+02  0.93000000000E-01 0. -1.
       1023    2    1    2    0    0  0.00000000000E+00  0.00000000000E+00 -0.75275178799E+02  0.77887084024E+02  0.20001132833E+02 0.  0.
        -11    1    3    3    0    0 -0.89260277255E+00  0.99606331222E+01 -0.37713148390E+02  0.39016567169E+02  0.51100000000E-03 0.  1.
         11    1    3    3    0    0  0.89260277255E+00 -0.99606331222E+01 -0.37562030408E+02  0.38870516855E+02  0.51100000000E-03 0. -1.
<mgrwt>
<rscale>  0 0.20001133E+02</rscale>
<asrwt>0</asrwt>
<pdfrwt beam="2">  1        3 0.11781709E-01 0.20001133E+02</pdfrwt>
<pdfrwt beam="1">  1       -3 0.20091585E-03 0.20001133E+02</pdfrwt>
<totfact> 0.14992267E+06</totfact>
</mgrwt>
</event>
<event>
 5    1  0.4133473E-007  0.2000320E+02  0.7818608E-02  0.1745265E+00
         -3   -1    0    0    0  501 -0.00000000000E+00  0.00000000000E+00  0.83184835996E+02  0.83184887982E+02  0.93000000000E-01 0.  1.
          3   -1    0    0  501    0  0.00000000000E+00 -0.00000000000E+00 -0.12006758829E+01  0.12042722183E+01  0.93000000000E-01 0. -1.
       1023    2    1    2    0    0  0.00000000000E+00  0.00000000000E+00  0.81984160113E+02  0.84389160201E+02  0.20003195994E+02 0.  0.
        -11    1    3    3    0    0  0.96795283105E+01  0.25175139919E+01  0.41112682616E+02  0.42311745617E+02  0.51100000000E-03 0.  1.
         11    1    3    3    0    0 -0.96795283105E+01 -0.25175139919E+01  0.40871477497E+02  0.42077414584E+02  0.51100000000E-03 0. -1.
<mgrwt>
<rscale>  0 0.20003196E+02</rscale>
<asrwt>0</asrwt>
<pdfrwt beam="2">  1        3 0.18499998E-03 0.20003196E+02</pdfrwt>
<pdfrwt beam="1">  1       -3 0.12797950E-01 0.20003196E+02</pdfrwt>
<totfact> 0.14740995E+06</totfact>
</mgrwt>
</event>
<event>
 5    1  0.4133473E-007  0.2000313E+02  0.7818608E-02  0.1745266E+00
         -3   -1    0    0    0  501 -0.00000000000E+00  0.00000000000E+00  0.71776132606E+02  0.71776192856E+02  0.93000000000E-01 0. -1.
          3   -1    0    0  501    0  0.00000000000E+00 -0.00000000000E+00 -0.13920446946E+01  0.13951478172E+01  0.93000000000E-01 0.  1.
       1023    2    1    2    0    0  0.00000000000E+00  0.00000000000E+00  0.70384087911E+02  0.73171340673E+02  0.20003131374E+02 0.  0.
        -11    1    3    3    0    0  0.92837442999E+01 -0.37179529108E+01  0.35712378155E+02  0.37086183894E+02  0.51100000000E-03 0. -1.
         11    1    3    3    0    0 -0.92837442999E+01  0.37179529108E+01  0.34671709756E+02  0.36085156779E+02  0.51100000000E-03 0.  1.
<mgrwt>
<rscale>  0 0.20003131E+02</rscale>
<asrwt>0</asrwt>
<pdfrwt beam="2">  1        3 0.21440409E-03 0.20003131E+02</pdfrwt>
<pdfrwt beam="1">  1       -3 0.11042724E-01 0.20003131E+02</pdfrwt>
<totfact> 0.15180550E+06</totfact>
</mgrwt>
</event>
<event>
 5    1  0.4133473E-007  0.2000021E+02  0.7818608E-02  0.1745324E+00
         -3   -1    0    0    0  501 -0.00000000000E+00  0.00000000000E+00  0.36603941621E+01  0.36615754017E+01  0.93000000000E-01 0.  1.
          3   -1    0    0  501    0  0.00000000000E+00 -0.00000000000E+00 -0.27314374632E+02  0.27314532955E+02  0.93000000000E-01 0. -1.
       1023    2    1    2    0    0  0.00000000000E+00  0.00000000000E+00 -0.23653980470E+02  0.30976108357E+02  0.20000212420E+02 0.  0.
        -11    1    3    3    0    0 -0.74905281688E+01  0.66251635114E+01 -0.11770716751E+02  0.15445082612E+02  0.51100000000E-03 0. -1.
         11    1    3    3    0    0  0.74905281688E+01 -0.66251635114E+01 -0.11883263719E+02  0.15531025744E+02  0.51100000000E-03 0.  1.
<mgrwt>
<rscale>  0 0.20000212E+02</rscale>
<asrwt>0</asrwt>
<pdfrwt beam="2">  1        3 0.42023144E-02 0.20000212E+02</pdfrwt>
<pdfrwt beam="1">  1       -3 0.56324062E-03 0.20000212E+02</pdfrwt>
<totfact> 0.17209367E+06</totfact>
</mgrwt>
</event>
<event>
 5    1  0.4133473E-007  0.2000068E+02  0.7818608E-02  0.1745315E+00
         -3   -1    0    0    0  501 -0.00000000000E+00  0.00000000000E+00  0.58751127157E+01  0.58758487406E+01  0.93000000000E-01 0.  1.
          3   -1    0    0  501    0  0.00000000000E+00 -0.00000000000E+00 -0.17020178514E+02  0.17020432593E+02  0.93000000000E-01 0. -1.
       1023    2    1    2    0    0  0.00000000000E+00  0.00000000000E+00 -0.11145065798E+02  0.22896281333E+02  0.20000680170E+02 0.  0.
        -11    1    3    3    0    0 -0.42018893000E+01  0.90746122186E+01 -0.55171449077E+01  0.11421179834E+02  0.51100000000E-03 0.  1.
         11    1    3    3    0    0  0.42018893000E+01 -0.90746122186E+01 -0.56279208904E+01  0.11475101499E+02  0.51100000000E-03 0. -1.
<mgrwt>
<rscale>  0 0.20000680E+02</rscale>
<asrwt>0</asrwt>
<pdfrwt beam="2">  1        3 0.26185651E-02 0.20000680E+02</pdfrwt>
<pdfrwt beam="1">  1       -3 0.90393967E-03 0.20000680E+02</pdfrwt>
<totfact> 0.17696987E+06</totfact>
</mgrwt>
</event>
<event>
 5    1  0.4133473E-007  0.2000008E+02  0.7818608E-02  0.1745326E+00
         -3   -1    0    0    0  501 -0.00000000000E+00  0.00000000000E+00  0.16646605649E+02  0.16646865430E+02  0.93000000000E-01 0.  1.
          3   -1    0    0  501    0  0.00000000000E+00 -0.00000000000E+00 -0.60066137463E+01  0.60073336596E+01  0.93000000000E-01 0. -1.
       1023    2    1    2    0    0  0.00000000000E+00  0.00000000000E+00  0.10639991903E+02  0.22654199089E+02  0.20000082717E+02 0.  0.
        -11    1    3    3    0    0  0.91791798203E+00 -0.99578214475E+01  0.53276373075E+01  0.11330688458E+02  0.51100000000E-03 0. -1.
         11    1    3    3    0    0 -0.91791798203E+00  0.99578214475E+01  0.53123545954E+01  0.11323510631E+02  0.51100000000E-03 0.  1.
<mgrwt>
<rscale>  0 0.20000083E+02</rscale>
<asrwt>0</asrwt>
<pdfrwt beam="2">  1        3 0.92416981E-03 0.20000083E+02</pdfrwt>
<pdfrwt beam="1">  1       -3 0.25610915E-02 0.20000083E+02</pdfrwt>
<totfact> 0.17714407E+06</totfact>
</mgrwt>
</event>
<event>
 5    1  0.4133473E-007  0.2000062E+02  0.7818608E-02  0.1745316E+00
         -3   -1    0    0    0  501 -0.00000000000E+00  0.00000000000E+00  0.33120421894E+01  0.33133476221E+01  0.93000000000E-01 0. -1.
          3   -1    0    0  501    0  0.00000000000E+00 -0.00000000000E+00 -0.30187384628E+02  0.30187527883E+02  0.93000000000E-01 0.  1.
       1023    2    1    2    0    0  0.00000000000E+00  0.00000000000E+00 -0.26875342439E+02  0.33500875505E+02  0.20000615701E+02 0.  0.
        -11    1    3    3    0    0 -0.24503399542E+01  0.96953155213E+01 -0.13348284158E+02  0.16678728943E+02  0.51100000000E-03 0. -1.
         11    1    3    3    0    0  0.24503399542E+01 -0.96953155213E+01 -0.13527058281E+02  0.16822146562E+02  0.51100000000E-03 0.  1.
<mgrwt>
<rscale>  0 0.20000616E+02</rscale>
<asrwt>0</asrwt>
<pdfrwt beam="2">  1        3 0.46443243E-02 0.20000616E+02</pdfrwt>
<pdfrwt beam="1">  1       -3 0.50965641E-03 0.20000616E+02</pdfrwt>
<totfact> 0.17064607E+06</totfact>
</mgrwt>
</event>
<event>
 5    1  0.4220220E-007  0.2000093E+02  0.7818608E-02  0.1745310E+00
          3   -1    0    0  501    0  0.00000000000E+00  0.00000000000E+00  0.39124979357E+02  0.39125089887E+02  0.93000000000E-01 0.  1.
         -3   -1    0    0    0  501 -0.00000000000E+00 -0.00000000000E+00 -0.25551902682E+01  0.25568821457E+01  0.93000000000E-01 0. -1.
       1023    2    1    2    0    0  0.00000000000E+00  0.00000000000E+00  0.36569789089E+02  0.41681972033E+02  0.20000932942E+02 0.  0.
        -11    1    3    3    0    0  0.53138629886E+01 -0.84716402908E+01  0.18408190981E+02  0.20949160473E+02  0.51100000000E-03 0. -1.
         11    1    3    3    0    0 -0.53138629886E+01  0.84716402908E+01  0.18161598107E+02  0.20732811559E+02  0.51100000000E-03 0.  1.
<mgrwt>
<rscale>  0 0.20000933E+02</rscale>
<asrwt>0</asrwt>
<pdfrwt beam="1">  1        3 0.60193659E-02 0.20000933E+02</pdfrwt>
<pdfrwt beam="2">  1       -3 0.39324487E-03 0.20000933E+02</pdfrwt>
<totfact> 0.16622161E+06</totfact>
</mgrwt>
</event>
<event>
 5    1  0.4280818E-007  0.2000247E+02  0.7818608E-02  0.1745279E+00
         -3   -1    0    0    0  501 -0.00000000000E+00  0.00000000000E+00  0.24319538333E+02  0.24319716152E+02  0.93000000000E-01 0. -1.
          3   -1    0    0  501    0  0.00000000000E+00 -0.00000000000E+00 -0.41122165608E+01  0.41132680490E+01  0.93000000000E-01 0.  1.
       1023    2    1    2    0    0  0.00000000000E+00  0.00000000000E+00  0.20207321772E+02  0.28432984201E+02  0.20002468282E+02 0.  0.
        -11    1    3    3    0    0  0.39108807163E+01 -0.92041174036E+01  0.10271364233E+02  0.14335678869E+02  0.51100000000E-03 0. -1.
         11    1    3    3    0    0 -0.39108807163E+01  0.92041174036E+01  0.99359575384E+01  0.14097305332E+02  0.51100000000E-03 0.  1.
<mgrwt>
<rscale>  0 0.20002468E+02</rscale>
<asrwt>0</asrwt>
<pdfrwt beam="2">  1        3 0.63274326E-03 0.20002468E+02</pdfrwt>
<pdfrwt beam="1">  1       -3 0.37415620E-02 0.20002468E+02</pdfrwt>
<totfact> 0.17355596E+06</totfact>
</mgrwt>
</event>
<event>
 5    1  0.4167089E-007  0.2000220E+02  0.7818608E-02  0.1745284E+00
          3   -1    0    0  501    0  0.00000000000E+00  0.00000000000E+00  0.38174303554E+02  0.38174416836E+02  0.93000000000E-01 0. -1.
         -3   -1    0    0    0  501 -0.00000000000E+00 -0.00000000000E+00 -0.26191967827E+01  0.26208473413E+01  0.93000000000E-01 0.  1.
       1023    2    1    2    0    0  0.00000000000E+00  0.00000000000E+00  0.35555106771E+02  0.40795264178E+02  0.20002198925E+02 0.  0.
        -11    1    3    3    0    0  0.33893659925E+01  0.94092590637E+01  0.17789133798E+02  0.20407724996E+02  0.51100000000E-03 0.  1.
         11    1    3    3    0    0 -0.33893659925E+01 -0.94092590637E+01  0.17765972973E+02  0.20387539182E+02  0.51100000000E-03 0. -1.
<mgrwt>
<rscale>  0 0.20002199E+02</rscale>
<asrwt>0</asrwt>
<pdfrwt beam="1">  1        3 0.58731051E-02 0.20002199E+02</pdfrwt>
<pdfrwt beam="2">  1       -3 0.40308906E-03 0.20002199E+02</pdfrwt>
<totfact> 0.16666100E+06</totfact>
</mgrwt>
</event>
<event>
 5    1  0.4245633E-007  0.2000161E+02  0.7818608E-02  0.1745296E+00
         -3   -1    0    0    0  501 -0.00000000000E+00  0.00000000000E+00  0.30198920013E+02  0.30199063213E+02  0.93000000000E-01 0.  1.
          3   -1    0    0  501    0  0.00000000000E+00 -0.00000000000E+00 -0.33111054122E+01  0.33124112140E+01  0.93000000000E-01 0. -1.
       1023    2    1    2    0    0  0.00000000000E+00  0.00000000000E+00  0.26887814601E+02  0.33511474427E+02  0.20001608542E+02 0.  0.
        -11    1    3    3    0    0  0.98405795658E+01 -0.17794855022E+01  0.13256505386E+02  0.16605375941E+02  0.51100000000E-03 0. -1.
         11    1    3    3    0    0 -0.98405795658E+01  0.17794855022E+01  0.13631309215E+02  0.16906098486E+02  0.51100000000E-03 0.  1.
<mgrwt>
<rscale>  0 0.20001609E+02</rscale>
<asrwt>0</asrwt>
<pdfrwt beam="2">  1        3 0.50951227E-03 0.20001609E+02</pdfrwt>
<pdfrwt beam="1">  1       -3 0.46460994E-02 0.20001609E+02</pdfrwt>
<totfact> 0.17064101E+06</totfact>
</mgrwt>
</event>
<event>
 5    1  0.4133473E-007  0.2000030E+02  0.7818608E-02  0.1745322E+00
          3   -1    0    0  501    0  0.00000000000E+00  0.00000000000E+00  0.55772119340E+02  0.55772196879E+02  0.93000000000E-01 0.  1.
         -3   -1    0    0    0  501 -0.00000000000E+00 -0.00000000000E+00 -0.17917788083E+01  0.17941907084E+01  0.93000000000E-01 0. -1.
       1023    2    1    2    0    0  0.00000000000E+00  0.00000000000E+00  0.53980340532E+02  0.57566387587E+02  0.20000295396E+02 0.  0.
        -11    1    3    3    0    0  0.86620461890E+01 -0.49971567398E+01  0.27042777028E+02  0.28832523464E+02  0.51100000000E-03 0. -1.
         11    1    3    3    0    0 -0.86620461890E+01  0.49971567398E+01  0.26937563504E+02  0.28733864123E+02  0.51100000000E-03 0.  1.
<mgrwt>
<rscale>  0 0.20000295E+02</rscale>
<asrwt>0</asrwt>
<pdfrwt beam="1">  1        3 0.85805187E-02 0.20000295E+02</pdfrwt>
<pdfrwt beam="2">  1       -3 0.27584974E-03 0.20000295E+02</pdfrwt>
<totfact> 0.15852607E+06</totfact>
</mgrwt>
</event>
<event>
 5    1  0.4133473E-007  0.2000063E+02  0.7818608E-02  0.1745315E+00
         -3   -1    0    0    0  501 -0.00000000000E+00  0.00000000000E+00  0.87701743355E+00  0.88193456602E+00  0.93000000000E-01 0.  1.
          3   -1    0    0  501    0  0.00000000000E+00 -0.00000000000E+00 -0.11370634283E+03  0.11370638086E+03  0.93000000000E-01 0. -1.
       1023    2    1    2    0    0  0.00000000000E+00  0.00000000000E+00 -0.11282932540E+03  0.11458831543E+03  0.20000634071E+02 0.  0.
        -11    1    3    3    0    0  0.93773530382E+01 -0.34743783424E+01 -0.56317826190E+02  0.57198807696E+02  0.51100000000E-03 0. -1.
         11    1    3    3    0    0 -0.93773530382E+01  0.34743783424E+01 -0.56511499206E+02  0.57389507731E+02  0.51100000000E-03 0.  1.
<mgrwt>
<rscale>  0 0.20000634E+02</rscale>
<asrwt>0</asrwt>
<pdfrwt beam="2">  1        3 0.17493653E-01 0.20000634E+02</pdfrwt>
<pdfrwt beam="1">  1       -3 0.13530702E-03 0.20000634E+02</pdfrwt>
<totfact> 0.13691236E+06</totfact>
</mgrwt>
</event>
<event>
 5    1  0.4133473E-007  0.2000043E+02  0.7818608E-02  0.1745320E+00
          3   -1    0    0  501    0  0.00000000000E+00  0.00000000000E+00  0.22857613330E+02  0.22857802522E+02  0.93000000000E-01 0.  1.
         -3   -1    0    0    0  501 -0.00000000000E+00 -0.00000000000E+00 -0.43743951078E+01  0.43753835899E+01  0.93000000000E-01 0. -1.
       1023    2    1    2    0    0  0.00000000000E+00  0.00000000000E+00  0.18483218222E+02  0.27233186112E+02  0.20000426745E+02 0.  0.
        -11    1    3    3    0    0 -0.56073015423E+01 -0.82801356301E+01  0.91839911920E+01  0.13577487658E+02  0.51100000000E-03 0. -1.
         11    1    3    3    0    0  0.56073015423E+01  0.82801356301E+01  0.92992270304E+01  0.13655698454E+02  0.51100000000E-03 0.  1.
<mgrwt>
<rscale>  0 0.20000427E+02</rscale>
<asrwt>0</asrwt>
<pdfrwt beam="1">  1        3 0.35166465E-02 0.20000427E+02</pdfrwt>
<pdfrwt beam="2">  1       -3 0.67307445E-03 0.20000427E+02</pdfrwt>
<totfact> 0.17429601E+06</totfact>
</mgrwt>
</event>
<event>
 5    1  0.4268923E-007  0.2000158E+02  0.7818608E-02  0.1745297E+00
          3   -1    0    0  501    0  0.00000000000E+00  0.00000000000E+00  0.80579587234E+01  0.80584953800E+01  0.93000000000E-01 0. -1.
         -3   -1    0    0    0  501 -0.00000000000E+00 -0.00000000000E+00 -0.12410932397E+02  0.12411280835E+02  0.93000000000E-01 0.  1.
       1023    2    1    2    0    0  0.00000000000E+00  0.00000000000E+00 -0.43529736739E+01  0.20469776215E+02  0.20001583900E+02 0.  0.
        -11    1    3    3    0    0  0.99920151729E+01  0.41733663340E+00 -0.22134186886E+01  0.10242741803E+02  0.51100000000E-03 0. -1.
         11    1    3    3    0    0 -0.99920151729E+01 -0.41733663340E+00 -0.21395549853E+01  0.10227034413E+02  0.51100000000E-03 0.  1.
<mgrwt>
<rscale>  0 0.20001584E+02</rscale>
<asrwt>0</asrwt>
<pdfrwt beam="1">  1        3 0.12397540E-02 0.20001584E+02</pdfrwt>
<pdfrwt beam="2">  1       -3 0.19094423E-02 0.20001584E+02</pdfrwt>
<totfact> 0.17852038E+06</totfact>
</mgrwt>
</event>
<event>
 5    1  0.4339397E-007  0.2000079E+02  0.7818608E-02  0.1745312E+00
          3   -1    0    0  501    0  0.00000000000E+00  0.00000000000E+00  0.52494001521E+01  0.52502238959E+01  0.93000000000E-01 0.  1.
         -3   -1    0    0    0  501 -0.00000000000E+00 -0.00000000000E+00 -0.19048875055E+02  0.19049102075E+02  0.93000000000E-01 0. -1.
       1023    2    1    2    0    0  0.00000000000E+00  0.00000000000E+00 -0.13799474903E+02  0.24299325971E+02  0.20000793360E+02 0.  0.
        -11    1    3    3    0    0  0.24879353526E+01  0.96857246713E+01 -0.68151389232E+01  0.12101619872E+02  0.51100000000E-03 0.  1.
         11    1    3    3    0    0 -0.24879353526E+01 -0.96857246713E+01 -0.69843359794E+01  0.12197706098E+02  0.51100000000E-03 0. -1.
<mgrwt>
<rscale>  0 0.20000793E+02</rscale>
<asrwt>0</asrwt>
<pdfrwt beam="1">  1        3 0.80768086E-03 0.20000793E+02</pdfrwt>
<pdfrwt beam="2">  1       -3 0.29306770E-02 0.20000793E+02</pdfrwt>
<totfact> 0.17609789E+06</totfact>
</mgrwt>
</event>
<event>
 5    1  0.4133473E-007  0.2000041E+02  0.7818608E-02  0.1745320E+00
         -3   -1    0    0    0  501 -0.00000000000E+00  0.00000000000E+00  0.24867571652E+01  0.24884955694E+01  0.93000000000E-01 0. -1.
          3   -1    0    0  501    0  0.00000000000E+00 -0.00000000000E+00 -0.40198834193E+02  0.40198941771E+02  0.93000000000E-01 0.  1.
       1023    2    1    2    0    0  0.00000000000E+00  0.00000000000E+00 -0.37712077028E+02  0.42687437340E+02  0.20000413818E+02 0.  0.
        -11    1    3    3    0    0  0.99600982107E+01  0.89462453961E+00 -0.18888303764E+02  0.21372223300E+02  0.51100000000E-03 0.  1.
         11    1    3    3    0    0 -0.99600982107E+01 -0.89462453961E+00 -0.18823773263E+02  0.21315214040E+02  0.51100000000E-03 0. -1.
<mgrwt>
<rscale>  0 0.20000414E+02</rscale>
<asrwt>0</asrwt>
<pdfrwt beam="2">  1        3 0.61845775E-02 0.20000414E+02</pdfrwt>
<pdfrwt beam="1">  1       -3 0.38272005E-03 0.20000414E+02</pdfrwt>
<totfact> 0.16571118E+06</totfact>
</mgrwt>
</event>
<event>
 5    1  0.4133473E-007  0.2000234E+02  0.7818608E-02  0.1745282E+00
          3   -1    0    0  501    0  0.00000000000E+00  0.00000000000E+00  0.23455669432E+02  0.23455853801E+02  0.93000000000E-01 0.  1.
         -3   -1    0    0    0  501 -0.00000000000E+00 -0.00000000000E+00 -0.42636498441E+01  0.42646639954E+01  0.93000000000E-01 0. -1.
       1023    2    1    2    0    0  0.00000000000E+00  0.00000000000E+00  0.19192019588E+02  0.27720517796E+02  0.20002337139E+02 0.  0.
        -11    1    3    3    0    0 -0.30958234779E+01 -0.95099548564E+01  0.95920623344E+01  0.13857525914E+02  0.51100000000E-03 0. -1.
         11    1    3    3    0    0  0.30958234779E+01  0.95099548564E+01  0.95999572536E+01  0.13862991882E+02  0.51100000000E-03 0.  1.
<mgrwt>
<rscale>  0 0.20002337E+02</rscale>
<asrwt>0</asrwt>
<pdfrwt beam="1">  1        3 0.36086567E-02 0.20002337E+02</pdfrwt>
<pdfrwt beam="2">  1       -3 0.65603834E-03 0.20002337E+02</pdfrwt>
<totfact> 0.17396789E+06</totfact>
</mgrwt>
</event>
<event>
 5    1  0.4133473E-007  0.2000474E+02  0.7818608E-02  0.1745234E+00
         -3   -1    0    0    0  501 -0.00000000000E+00  0.00000000000E+00  0.48129909512E+01  0.48138893730E+01  0.93000000000E-01 0. -1.
          3   -1    0    0  501    0  0.00000000000E+00 -0.00000000000E+00 -0.20783998632E+02  0.20784206700E+02  0.93000000000E-01 0.  1.
       1023    2    1    2    0    0  0.00000000000E+00  0.00000000000E+00 -0.15971007681E+02  0.25598096073E+02  0.20004735345E+02 0.  0.
        -11    1    3    3    0    0 -0.17514965047E+01  0.98454932263E+01 -0.82595953733E+01  0.12970057551E+02  0.51100000000E-03 0.  1.
         11    1    3    3    0    0  0.17514965047E+01 -0.98454932263E+01 -0.77114123074E+01  0.12628038522E+02  0.51100000000E-03 0. -1.
<mgrwt>
<rscale>  0 0.20004735E+02</rscale>
<asrwt>0</asrwt>
<pdfrwt beam="2">  1        3 0.31976233E-02 0.20004735E+02</pdfrwt>
<pdfrwt beam="1">  1       -3 0.74054527E-03 0.20004735E+02</pdfrwt>
<totfact> 0.17520823E+06</totfact>
</mgrwt>
</event>
<event>
 5    1  0.4133473E-007  0.2000306E+02  0.7818608E-02  0.1745267E+00
         -3   -1    0    0    0  501 -0.00000000000E+00  0.00000000000E+00  0.53599480777E+01  0.53607548345E+01  0.93000000000E-01 0. -1.
          3   -1    0    0  501    0  0.00000000000E+00 -0.00000000000E+00 -0.18660280978E+02  0.18660512726E+02  0.93000000000E-01 0.  1.
       1023    2    1    2    0    0  0.00000000000E+00  0.00000000000E+00 -0.13300332901E+02  0.24021267560E+02  0.20003060764E+02 0.  0.
        -11    1    3    3    0    0  0.92012598951E+01 -0.39196957348E+01 -0.67203065817E+01  0.12049469662E+02  0.51100000000E-03 0. -1.
         11    1    3    3    0    0 -0.92012598951E+01  0.39196957348E+01 -0.65800263191E+01  0.11971797899E+02  0.51100000000E-03 0.  1.
<mgrwt>
<rscale>  0 0.20003061E+02</rscale>
<asrwt>0</asrwt>
<pdfrwt beam="2">  1        3 0.28708923E-02 0.20003061E+02</pdfrwt>
<pdfrwt beam="1">  1       -3 0.82468729E-03 0.20003061E+02</pdfrwt>
<totfact> 0.17621693E+06</totfact>
</mgrwt>
</event>
<event>
 5    1  0.4133473E-007  0.2000067E+02  0.7818608E-02  0.1745315E+00
         -3   -1    0    0    0  501 -0.00000000000E+00  0.00000000000E+00  0.59513169944E+02  0.59513242608E+02  0.93000000000E-01 0.  1.
          3   -1    0    0  501    0  0.00000000000E+00 -0.00000000000E+00 -0.16790527070E+01  0.16816262941E+01  0.93000000000E-01 0. -1.
       1023    2    1    2    0    0  0.00000000000E+00  0.00000000000E+00  0.57834117237E+02  0.61194868902E+02  0.20000671574E+02 0.  0.
        -11    1    3    3    0    0 -0.71398575343E+01  0.70018542666E+01  0.29089781130E+02  0.30760671242E+02  0.51100000000E-03 0. -1.
         11    1    3    3    0    0  0.71398575343E+01 -0.70018542666E+01  0.28744336106E+02  0.30434197661E+02  0.51100000000E-03 0.  1.
<mgrwt>
<rscale>  0 0.20000672E+02</rscale>
<asrwt>0</asrwt>
<pdfrwt beam="2">  1        3 0.25851935E-03 0.20000672E+02</pdfrwt>
<pdfrwt beam="1">  1       -3 0.91560761E-02 0.20000672E+02</pdfrwt>
<totfact> 0.15692168E+06</totfact>
</mgrwt>
</event>
<event>
 5    1  0.4133473E-007  0.2000599E+02  0.7818608E-02  0.1745209E+00
          3   -1    0    0  501    0  0.00000000000E+00  0.00000000000E+00  0.10751990134E+03  0.10751994156E+03  0.93000000000E-01 0. -1.
         -3   -1    0    0    0  501 -0.00000000000E+00 -0.00000000000E+00 -0.92825398641E+00  0.93290110048E+00  0.93000000000E-01 0.  1.
       1023    2    1    2    0    0  0.00000000000E+00  0.00000000000E+00  0.10659164736E+03  0.10845284266E+03  0.20005993994E+02 0.  0.
        -11    1    3    3    0    0 -0.97300385147E+01 -0.23203427803E+01  0.53556289184E+02  0.54482416902E+02  0.51100000000E-03 0. -1.
         11    1    3    3    0    0  0.97300385147E+01  0.23203427803E+01  0.53035358173E+02  0.53970425762E+02  0.51100000000E-03 0.  1.
<mgrwt>
<rscale>  0 0.20005994E+02</rscale>
<asrwt>0</asrwt>
<pdfrwt beam="1">  1        3 0.16541876E-01 0.20005994E+02</pdfrwt>
<pdfrwt beam="2">  1       -3 0.14316893E-03 0.20005994E+02</pdfrwt>
<totfact> 0.13883049E+06</totfact>
</mgrwt>
</event>
<event>
 5    1  0.4133473E-007  0.2000198E+02  0.7818608E-02  0.1745289E+00
         -3   -1    0    0    0  501 -0.00000000000E+00  0.00000000000E+00  0.50425863245E+02  0.50425949004E+02  0.93000000000E-01 0. -1.
          3   -1    0    0  501    0  0.00000000000E+00 -0.00000000000E+00 -0.19823243499E+01  0.19845046808E+01  0.93000000000E-01 0.  1.
       1023    2    1    2    0    0  0.00000000000E+00  0.00000000000E+00  0.48443538895E+02  0.52410453685E+02  0.20001979773E+02 0.  0.
        -11    1    3    3    0    0  0.82648548685E+01 -0.56310978012E+01  0.24085364678E+02  0.26079146466E+02  0.51100000000E-03 0. -1.
         11    1    3    3    0    0 -0.82648548685E+01  0.56310978012E+01  0.24358174216E+02  0.26331307219E+02  0.51100000000E-03 0.  1.
<mgrwt>
<rscale>  0 0.20001980E+02</rscale>
<asrwt>0</asrwt>
<pdfrwt beam="2">  1        3 0.30514726E-03 0.20001980E+02</pdfrwt>
<pdfrwt beam="1">  1       -3 0.77580001E-02 0.20001980E+02</pdfrwt>
<totfact> 0.16091199E+06</totfact>
</mgrwt>
</event>
<event>
 5    1  0.4133473E-007  0.2000636E+02  0.7818608E-02  0.1745202E+00
         -3   -1    0    0    0  501 -0.00000000000E+00  0.00000000000E+00  0.15239405020E+01  0.15267755741E+01  0.93000000000E-01 0. -1.
          3   -1    0    0  501    0  0.00000000000E+00 -0.00000000000E+00 -0.65597234665E+02  0.65597300590E+02  0.93000000000E-01 0.  1.
       1023    2    1    2    0    0  0.00000000000E+00  0.00000000000E+00 -0.64073294163E+02  0.67124076164E+02  0.20006363387E+02 0.  0.
        -11    1    3    3    0    0 -0.35490202272E+01  0.93498118237E+01 -0.32780232062E+02  0.34271827206E+02  0.51100000000E-03 0. -1.
         11    1    3    3    0    0  0.35490202272E+01 -0.93498118237E+01 -0.31293062100E+02  0.32852248958E+02  0.51100000000E-03 0.  1.
<mgrwt>
<rscale>  0 0.20006363E+02</rscale>
<asrwt>0</asrwt>
<pdfrwt beam="2">  1        3 0.10092103E-01 0.20006363E+02</pdfrwt>
<pdfrwt beam="1">  1       -3 0.23467559E-03 0.20006363E+02</pdfrwt>
<totfact> 0.15423202E+06</totfact>
</mgrwt>
</event>
<event>
 5    1  0.4133473E-007  0.2000275E+02  0.7818608E-02  0.1745273E+00
         -3   -1    0    0    0  501 -0.00000000000E+00  0.00000000000E+00  0.16489139670E+02  0.16489401932E+02  0.93000000000E-01 0.  1.
          3   -1    0    0  501    0  0.00000000000E+00 -0.00000000000E+00 -0.60655997162E+01  0.60663126293E+01  0.93000000000E-01 0. -1.
       1023    2    1    2    0    0  0.00000000000E+00  0.00000000000E+00  0.10423539954E+02  0.22555714561E+02  0.20002751665E+02 0.  0.
        -11    1    3    3    0    0 -0.90008176830E+01 -0.43593330495E+01  0.53188336464E+01  0.11327333985E+02  0.51100000000E-03 0.  1.
         11    1    3    3    0    0  0.90008176830E+01  0.43593330495E+01  0.51047063076E+01  0.11228380575E+02  0.51100000000E-03 0. -1.
<mgrwt>
<rscale>  0 0.20002752E+02</rscale>
<asrwt>0</asrwt>
<pdfrwt beam="2">  1        3 0.93324421E-03 0.20002752E+02</pdfrwt>
<pdfrwt beam="1">  1       -3 0.25368657E-02 0.20002752E+02</pdfrwt>
<totfact> 0.17715571E+06</totfact>
</mgrwt>
</event>
<event>
 5    1  0.4133473E-007  0.2000084E+02  0.7818608E-02  0.1745311E+00
          3   -1    0    0  501    0  0.00000000000E+00  0.00000000000E+00  0.21951724686E+01  0.21971415900E+01  0.93000000000E-01 0. -1.
         -3   -1    0    0    0  501 -0.00000000000E+00 -0.00000000000E+00 -0.45535888300E+02  0.45535983269E+02  0.93000000000E-01 0.  1.
       1023    2    1    2    0    0  0.00000000000E+00  0.00000000000E+00 -0.43340715831E+02  0.47733124859E+02  0.20000838983E+02 0.  0.
        -11    1    3    3    0    0 -0.97533654041E+01  0.22086676158E+01 -0.21778160580E+02  0.23964445077E+02  0.51100000000E-03 0. -1.
         11    1    3    3    0    0  0.97533654041E+01 -0.22086676158E+01 -0.21562555251E+02  0.23768679782E+02  0.51100000000E-03 0.  1.
<mgrwt>
<rscale>  0 0.20000839E+02</rscale>
<asrwt>0</asrwt>
<pdfrwt beam="1">  1        3 0.33787765E-03 0.20000839E+02</pdfrwt>
<pdfrwt beam="2">  1       -3 0.70056793E-02 0.20000839E+02</pdfrwt>
<totfact> 0.16318743E+06</totfact>
</mgrwt>
</event>
<event>
 5    1  0.4133473E-007  0.2000010E+02  0.7818608E-02  0.1745326E+00
          3   -1    0    0  501    0  0.00000000000E+00  0.00000000000E+00  0.90262588878E+01  0.90267379773E+01  0.93000000000E-01 0.  1.
         -3   -1    0    0    0  501 -0.00000000000E+00 -0.00000000000E+00 -0.11077925638E+02  0.11078316002E+02  0.93000000000E-01 0. -1.
       1023    2    1    2    0    0  0.00000000000E+00  0.00000000000E+00 -0.20516667505E+01  0.20105053980E+02  0.20000096477E+02 0.  0.
        -11    1    3    3    0    0  0.92932939453E+01 -0.36926046568E+01 -0.10077668185E+01  0.10050683346E+02  0.51100000000E-03 0.  1.
         11    1    3    3    0    0 -0.92932939453E+01  0.36926046568E+01 -0.10438999320E+01  0.10054370633E+02  0.51100000000E-03 0. -1.
<mgrwt>
<rscale>  0 0.20000096E+02</rscale>
<asrwt>0</asrwt>
<pdfrwt beam="1">  1        3 0.13887221E-02 0.20000096E+02</pdfrwt>
<pdfrwt beam="2">  1       -3 0.17043631E-02 0.20000096E+02</pdfrwt>
<totfact> 0.17878704E+06</totfact>
</mgrwt>
</event>
<event>
 5    1  0.4133473E-007  0.2000272E+02  0.7818608E-02  0.1745274E+00
         -3   -1    0    0    0  501 -0.00000000000E+00  0.00000000000E+00  0.58114189390E+02  0.58114263804E+02  0.93000000000E-01 0.  1.
          3   -1    0    0  501    0  0.00000000000E+00 -0.00000000000E+00 -0.17198860371E+01  0.17223986126E+01  0.93000000000E-01 0. -1.
       1023    2    1    2    0    0  0.00000000000E+00  0.00000000000E+00  0.56394303353E+02  0.59836662417E+02  0.20002717777E+02 0.  0.
        -11    1    3    3    0    0 -0.98835246968E+01 -0.15259615298E+01  0.28558115835E+02  0.30258529365E+02  0.51100000000E-03 0. -1.
         11    1    3    3    0    0  0.98835246968E+01  0.15259615298E+01  0.27836187518E+02  0.29578133052E+02  0.51100000000E-03 0.  1.
<mgrwt>
<rscale>  0 0.20002718E+02</rscale>
<asrwt>0</asrwt>
<pdfrwt beam="2">  1        3 0.26479693E-03 0.20002718E+02</pdfrwt>
<pdfrwt beam="1">  1       -3 0.89408410E-02 0.20002718E+02</pdfrwt>
<totfact> 0.15749101E+06</totfact>
</mgrwt>
</event>
<event>
 5    1  0.4244969E-007  0.2000112E+02  0.7818608E-02  0.1745306E+00
          3   -1    0    0  501    0  0.00000000000E+00  0.00000000000E+00  0.97921827180E+01  0.97926243358E+01  0.93000000000E-01 0. -1.
         -3   -1    0    0    0  501 -0.00000000000E+00 -0.00000000000E+00 -0.10212484282E+02  0.10212907726E+02  0.93000000000E-01 0.  1.
       1023    2    1    2    0    0  0.00000000000E+00  0.00000000000E+00 -0.42030156426E+00  0.20005532062E+02  0.20001116460E+02 0.  0.
        -11    1    3    3    0    0 -0.94213394421E+01 -0.33534445335E+01 -0.27291439445E+00  0.10004084648E+02  0.51100000000E-03 0.  1.
         11    1    3    3    0    0  0.94213394421E+01  0.33534445335E+01 -0.14738716981E+00  0.10001447413E+02  0.51100000000E-03 0. -1.
<mgrwt>
<rscale>  0 0.20001116E+02</rscale>
<asrwt>0</asrwt>
<pdfrwt beam="1">  1        3 0.15065562E-02 0.20001116E+02</pdfrwt>
<pdfrwt beam="2">  1       -3 0.15712180E-02 0.20001116E+02</pdfrwt>
<totfact> 0.17883136E+06</totfact>
</mgrwt>
</event>
<event>
 5    1  0.4267514E-007  0.2000119E+02  0.7818608E-02  0.1745304E+00
         -3   -1    0    0    0  501 -0.00000000000E+00  0.00000000000E+00  0.11678880209E+02  0.11679250487E+02  0.93000000000E-01 0. -1.
          3   -1    0    0  501    0  0.00000000000E+00 -0.00000000000E+00 -0.85627288762E+01  0.85632338989E+01  0.93000000000E-01 0.  1.
       1023    2    1    2    0    0  0.00000000000E+00  0.00000000000E+00  0.31161513331E+01  0.20242484386E+02  0.20001194339E+02 0.  0.
        -11    1    3    3    0    0  0.61090316925E+01 -0.79171707537E+01  0.16596987856E+01  0.10136886173E+02  0.51100000000E-03 0. -1.
         11    1    3    3    0    0 -0.61090316925E+01  0.79171707537E+01  0.14564525475E+01  0.10105598213E+02  0.51100000000E-03 0.  1.
<mgrwt>
<rscale>  0 0.20001194E+02</rscale>
<asrwt>0</asrwt>
<pdfrwt beam="2">  1        3 0.13174102E-02 0.20001194E+02</pdfrwt>
<pdfrwt beam="1">  1       -3 0.17968181E-02 0.20001194E+02</pdfrwt>
<totfact> 0.17867594E+06</totfact>
</mgrwt>
</event>
<event>
 5    1  0.4133473E-007  0.2000082E+02  0.7818608E-02  0.1745312E+00
         -3   -1    0    0    0  501 -0.00000000000E+00  0.00000000000E+00  0.30962368729E+01  0.30976332535E+01  0.93000000000E-01 0.  1.
          3   -1    0    0  501    0  0.00000000000E+00 -0.00000000000E+00 -0.32291181477E+02  0.32291315399E+02  0.93000000000E-01 0. -1.
       1023    2    1    2    0    0  0.00000000000E+00  0.00000000000E+00 -0.29194944605E+02  0.35388948653E+02  0.20000822390E+02 0.  0.
        -11    1    3    3    0    0  0.78565779538E+01  0.61872330191E+01 -0.14555817411E+02  0.17660110145E+02  0.51100000000E-03 0.  1.
         11    1    3    3    0    0 -0.78565779538E+01 -0.61872330191E+01 -0.14639127194E+02  0.17728838508E+02  0.51100000000E-03 0. -1.
<mgrwt>
<rscale>  0 0.20000822E+02</rscale>
<asrwt>0</asrwt>
<pdfrwt beam="2">  1        3 0.49679916E-02 0.20000822E+02</pdfrwt>
<pdfrwt beam="1">  1       -3 0.47646187E-03 0.20000822E+02</pdfrwt>
<totfact> 0.16959052E+06</totfact>
</mgrwt>
</event>
<event>
 5    1  0.4133473E-007  0.2000101E+02  0.7818608E-02  0.1745308E+00
         -3   -1    0    0    0  501 -0.00000000000E+00  0.00000000000E+00  0.18788954196E+01  0.18811956299E+01  0.93000000000E-01 0. -1.
          3   -1    0    0  501    0  0.00000000000E+00 -0.00000000000E+00 -0.53193224912E+02  0.53193306210E+02  0.93000000000E-01 0.  1.
       1023    2    1    2    0    0  0.00000000000E+00  0.00000000000E+00 -0.51314329492E+02  0.55074501839E+02  0.20001008516E+02 0.  0.
        -11    1    3    3    0    0  0.93044363051E+01 -0.36650932821E+01 -0.25844761105E+02  0.27712039271E+02  0.51100000000E-03 0.  1.
         11    1    3    3    0    0 -0.93044363051E+01  0.36650932821E+01 -0.25469568387E+02  0.27362462568E+02  0.51100000000E-03 0. -1.
<mgrwt>
<rscale>  0 0.20001009E+02</rscale>
<asrwt>0</asrwt>
<pdfrwt beam="2">  1        3 0.81837551E-02 0.20001009E+02</pdfrwt>
<pdfrwt beam="1">  1       -3 0.28924407E-03 0.20001009E+02</pdfrwt>
<totfact> 0.15965601E+06</totfact>
</mgrwt>
</event>
<event>
 5    1  0.4133473E-007  0.2000066E+02  0.7818608E-02  0.1745315E+00
         -3   -1    0    0    0  501 -0.00000000000E+00  0.00000000000E+00  0.52204713136E+01  0.52212996214E+01  0.93000000000E-01 0.  1.
          3   -1    0    0  501    0  0.00000000000E+00 -0.00000000000E+00 -0.19154170928E+02  0.19154396700E+02  0.93000000000E-01 0. -1.
       1023    2    1    2    0    0  0.00000000000E+00  0.00000000000E+00 -0.13933699615E+02  0.24375696322E+02  0.20000664644E+02 0.  0.
        -11    1    3    3    0    0 -0.96955200002E+01  0.24490679282E+01 -0.68756106913E+01  0.12135693817E+02  0.51100000000E-03 0.  1.
         11    1    3    3    0    0  0.96955200002E+01 -0.24490679282E+01 -0.70580889234E+01  0.12240002504E+02  0.51100000000E-03 0. -1.
<mgrwt>
<rscale>  0 0.20000665E+02</rscale>
<asrwt>0</asrwt>
<pdfrwt beam="2">  1        3 0.29468766E-02 0.20000665E+02</pdfrwt>
<pdfrwt beam="1">  1       -3 0.80323052E-03 0.20000665E+02</pdfrwt>
<totfact> 0.17604130E+06</totfact>
</mgrwt>
</event>
<event>
 5    1  0.4133473E-007  0.2000217E+02  0.7818608E-02  0.1745285E+00
          3   -1    0    0  501    0  0.00000000000E+00  0.00000000000E+00  0.21737521336E+02  0.21737720277E+02  0.93000000000E-01 0.  1.
         -3   -1    0    0    0  501 -0.00000000000E+00 -0.00000000000E+00 -0.46006475637E+01  0.46015874441E+01  0.93000000000E-01 0. -1.
       1023    2    1    2    0    0  0.00000000000E+00  0.00000000000E+00  0.17136873772E+02  0.26339307721E+02  0.20002167096E+02 0.  0.
        -11    1    3    3    0    0 -0.69822183364E+00  0.99760848591E+01  0.84248547304E+01  0.13076236474E+02  0.51100000000E-03 0.  1.
         11    1    3    3    0    0  0.69822183364E+00 -0.99760848591E+01  0.87120190420E+01  0.13263071247E+02  0.51100000000E-03 0. -1.
<mgrwt>
<rscale>  0 0.20002167E+02</rscale>
<asrwt>0</asrwt>
<pdfrwt beam="1">  1        3 0.33443216E-02 0.20002167E+02</pdfrwt>
<pdfrwt beam="2">  1       -3 0.70787956E-03 0.20002167E+02</pdfrwt>
<totfact> 0.17480389E+06</totfact>
</mgrwt>
</event>
<event>
 5    1  0.4133473E-007  0.2000008E+02  0.7818608E-02  0.1745326E+00
         -3   -1    0    0    0  501 -0.00000000000E+00  0.00000000000E+00  0.11964027257E+03  0.11964030871E+03  0.93000000000E-01 0.  1.
          3   -1    0    0  501    0  0.00000000000E+00 -0.00000000000E+00 -0.83322253615E+00  0.83839656175E+00  0.93000000000E-01 0. -1.
       1023    2    1    2    0    0  0.00000000000E+00  0.00000000000E+00  0.11880705003E+03  0.12047870528E+03  0.20000082190E+02 0.  0.
        -11    1    3    3    0    0  0.87757812162E+00  0.99614265366E+01  0.59248810277E+02  0.60086784583E+02  0.51100000000E-03 0. -1.
         11    1    3    3    0    0 -0.87757812162E+00 -0.99614265366E+01  0.59558239755E+02  0.60391920693E+02  0.51100000000E-03 0.  1.
<mgrwt>
<rscale>  0 0.20000082E+02</rscale>
<asrwt>0</asrwt>
<pdfrwt beam="2">  1        3 0.12858896E-03 0.20000082E+02</pdfrwt>
<pdfrwt beam="1">  1       -3 0.18406583E-01 0.20000082E+02</pdfrwt>
<totfact> 0.13508610E+06</totfact>
</mgrwt>
</event>
<event>
 5    1  0.4195737E-007  0.2000158E+02  0.7818608E-02  0.1745297E+00
         -3   -1    0    0    0  501 -0.00000000000E+00  0.00000000000E+00  0.19427880865E+02  0.19428103456E+02  0.93000000000E-01 0. -1.
          3   -1    0    0  501    0  0.00000000000E+00 -0.00000000000E+00 -0.51473832294E+01  0.51482232964E+01  0.93000000000E-01 0.  1.
       1023    2    1    2    0    0  0.00000000000E+00  0.00000000000E+00  0.14280497636E+02  0.24576326753E+02  0.20001580536E+02 0.  0.
        -11    1    3    3    0    0 -0.92807244817E+01  0.37250967903E+01  0.70330419645E+01  0.12225868989E+02  0.51100000000E-03 0.  1.
         11    1    3    3    0    0  0.92807244817E+01 -0.37250967903E+01  0.72474556711E+01  0.12350457764E+02  0.51100000000E-03 0. -1.
<mgrwt>
<rscale>  0 0.20001581E+02</rscale>
<asrwt>0</asrwt>
<pdfrwt beam="2">  1        3 0.79198687E-03 0.20001581E+02</pdfrwt>
<pdfrwt beam="1">  1       -3 0.29889865E-02 0.20001581E+02</pdfrwt>
<totfact> 0.17591071E+06</totfact>
</mgrwt>
</event>
<event>
 5    1  0.4133473E-007  0.2000080E+02  0.7818608E-02  0.1745312E+00
          3   -1    0    0  501    0  0.00000000000E+00  0.00000000000E+00  0.19893906514E+01  0.19915632463E+01  0.93000000000E-01 0. -1.
         -3   -1    0    0    0  501 -0.00000000000E+00 -0.00000000000E+00 -0.50241007542E+02  0.50241093617E+02  0.93000000000E-01 0.  1.
       1023    2    1    2    0    0  0.00000000000E+00  0.00000000000E+00 -0.48251616891E+02  0.52232656863E+02  0.20000797745E+02 0.  0.
        -11    1    3    3    0    0  0.42092767163E+01 -0.90710047019E+01 -0.24341802159E+02  0.26315859655E+02  0.51100000000E-03 0.  1.
         11    1    3    3    0    0 -0.42092767163E+01  0.90710047019E+01 -0.23909814731E+02  0.25916797208E+02  0.51100000000E-03 0. -1.
<mgrwt>
<rscale>  0 0.20000798E+02</rscale>
<asrwt>0</asrwt>
<pdfrwt beam="1">  1        3 0.30623388E-03 0.20000798E+02</pdfrwt>
<pdfrwt beam="2">  1       -3 0.77295586E-02 0.20000798E+02</pdfrwt>
<totfact> 0.16101655E+06</totfact>
</mgrwt>
</event>
<event>
 5    1  0.4133473E-007  0.2000493E+02  0.7818608E-02  0.1745230E+00
          3   -1    0    0  501    0  0.00000000000E+00  0.00000000000E+00  0.19503858910E+01  0.19526018856E+01  0.93000000000E-01 0.  1.
         -3   -1    0    0    0  501 -0.00000000000E+00 -0.00000000000E+00 -0.51265812732E+02  0.51265897086E+02  0.93000000000E-01 0. -1.
       1023    2    1    2    0    0  0.00000000000E+00  0.00000000000E+00 -0.49315426841E+02  0.53218498972E+02  0.20004932100E+02 0.  0.
        -11    1    3    3    0    0  0.72279610352E+01  0.69138760751E+01 -0.24484822319E+02  0.26449038307E+02  0.51100000000E-03 0.  1.
         11    1    3    3    0    0 -0.72279610352E+01 -0.69138760751E+01 -0.24830604522E+02  0.26769460665E+02  0.51100000000E-03 0. -1.
<mgrwt>
<rscale>  0 0.20004932E+02</rscale>
<asrwt>0</asrwt>
<pdfrwt beam="1">  1        3 0.30023636E-03 0.20004932E+02</pdfrwt>
<pdfrwt beam="2">  1       -3 0.78872240E-02 0.20004932E+02</pdfrwt>
<totfact> 0.16048035E+06</totfact>
</mgrwt>
</event>
<event>
 5    1  0.4133473E-007  0.2000078E+02  0.7818608E-02  0.1745313E+00
          3   -1    0    0  501    0  0.00000000000E+00  0.00000000000E+00  0.49561852036E+01  0.49570576729E+01  0.93000000000E-01 0. -1.
         -3   -1    0    0    0  501 -0.00000000000E+00 -0.00000000000E+00 -0.20175628877E+02  0.20175843218E+02  0.93000000000E-01 0.  1.
       1023    2    1    2    0    0  0.00000000000E+00  0.00000000000E+00 -0.15219443673E+02  0.25132900891E+02  0.20000781022E+02 0.  0.
        -11    1    3    3    0    0  0.86768155240E+01 -0.49719429569E+01 -0.75826041611E+01  0.12550029105E+02  0.51100000000E-03 0.  1.
         11    1    3    3    0    0 -0.86768155240E+01  0.49719429569E+01 -0.76368395121E+01  0.12582871787E+02  0.51100000000E-03 0. -1.
<mgrwt>
<rscale>  0 0.20000781E+02</rscale>
<asrwt>0</asrwt>
<pdfrwt beam="1">  1        3 0.76257364E-03 0.20000781E+02</pdfrwt>
<pdfrwt beam="2">  1       -3 0.31040265E-02 0.20000781E+02</pdfrwt>
<totfact> 0.17558158E+06</totfact>
</mgrwt>
</event>
<event>
 5    1  0.4133473E-007  0.2000075E+02  0.7818608E-02  0.1745313E+00
          3   -1    0    0  501    0  0.00000000000E+00  0.00000000000E+00  0.21511409221E+01  0.21531503122E+01  0.93000000000E-01 0.  1.
         -3   -1    0    0    0  501 -0.00000000000E+00 -0.00000000000E+00 -0.46466708114E+02  0.46466801180E+02  0.93000000000E-01 0. -1.
       1023    2    1    2    0    0  0.00000000000E+00  0.00000000000E+00 -0.44315567192E+02  0.48619951492E+02  0.20000754676E+02 0.  0.
        -11    1    3    3    0    0 -0.33157539717E+01  0.94346867982E+01 -0.22151233445E+02  0.24304005488E+02  0.51100000000E-03 0. -1.
         11    1    3    3    0    0  0.33157539717E+01 -0.94346867982E+01 -0.22164333747E+02  0.24315946004E+02  0.51100000000E-03 0.  1.
<mgrwt>
<rscale>  0 0.20000755E+02</rscale>
<asrwt>0</asrwt>
<pdfrwt beam="1">  1        3 0.33110652E-03 0.20000755E+02</pdfrwt>
<pdfrwt beam="2">  1       -3 0.71488853E-02 0.20000755E+02</pdfrwt>
<totfact> 0.16275424E+06</totfact>
</mgrwt>
</event>
<event>
 5    1  0.4253461E-007  0.2000094E+02  0.7818608E-02  0.1745309E+00
         -3   -1    0    0    0  501 -0.00000000000E+00  0.00000000000E+00  0.18252088618E+02  0.18252325548E+02  0.93000000000E-01 0.  1.
          3   -1    0    0  501    0  0.00000000000E+00 -0.00000000000E+00 -0.54786702288E+01  0.54794595058E+01  0.93000000000E-01 0. -1.
       1023    2    1    2    0    0  0.00000000000E+00  0.00000000000E+00  0.12773418389E+02  0.23731785054E+02  0.20000935091E+02 0.  0.
        -11    1    3    3    0    0 -0.99600691531E+01 -0.89512092257E+00  0.63017094409E+01  0.11820142179E+02  0.51100000000E-03 0. -1.
         11    1    3    3    0    0  0.99600691531E+01  0.89512092257E+00  0.64717089483E+01  0.11911642875E+02  0.51100000000E-03 0.  1.
<mgrwt>
<rscale>  0 0.20000935E+02</rscale>
<asrwt>0</asrwt>
<pdfrwt beam="2">  1        3 0.84295129E-03 0.20000935E+02</pdfrwt>
<pdfrwt beam="1">  1       -3 0.28080925E-02 0.20000935E+02</pdfrwt>
<totfact> 0.17644896E+06</totfact>
</mgrwt>
</event>
<event>
 5    1  0.4133473E-007  0.2000307E+02  0.7818608E-02  0.1745267E+00
          3   -1    0    0  501    0  0.00000000000E+00  0.00000000000E+00  0.64339648058E+01  0.64346369068E+01  0.93000000000E-01 0. -1.
         -3   -1    0    0    0  501 -0.00000000000E+00 -0.00000000000E+00 -0.15545666951E+02  0.15545945129E+02  0.93000000000E-01 0.  1.
       1023    2    1    2    0    0  0.00000000000E+00  0.00000000000E+00 -0.91117021455E+01  0.21980582036E+02  0.20003071531E+02 0.  0.
        -11    1    3    3    0    0  0.76460380486E+01 -0.64470959905E+01 -0.46233469682E+01  0.11018270372E+02  0.51100000000E-03 0. -1.
         11    1    3    3    0    0 -0.76460380486E+01  0.64470959905E+01 -0.44883551773E+01  0.10962311664E+02  0.51100000000E-03 0.  1.
<mgrwt>
<rscale>  0 0.20003072E+02</rscale>
<asrwt>0</asrwt>
<pdfrwt beam="1">  1        3 0.98991384E-03 0.20003072E+02</pdfrwt>
<pdfrwt beam="2">  1       -3 0.23917142E-02 0.20003072E+02</pdfrwt>
<totfact> 0.17751600E+06</totfact>
</mgrwt>
</event>
<event>
 5    1  0.4133473E-007  0.2000056E+02  0.7818608E-02  0.1745317E+00
          3   -1    0    0  501    0  0.00000000000E+00  0.00000000000E+00  0.84640325374E+02  0.84640376467E+02  0.93000000000E-01 0.  1.
         -3   -1    0    0    0  501 -0.00000000000E+00 -0.00000000000E+00 -0.11796539908E+01  0.11833142177E+01  0.93000000000E-01 0. -1.
       1023    2    1    2    0    0  0.00000000000E+00  0.00000000000E+00  0.83460671384E+02  0.85823690685E+02  0.20000555366E+02 0.  0.
        -11    1    3    3    0    0 -0.54897312272E+01  0.83584363273E+01  0.41428533387E+02  0.42618352686E+02  0.51100000000E-03 0.  1.
         11    1    3    3    0    0  0.54897312272E+01 -0.83584363273E+01  0.42032137996E+02  0.43205337999E+02  0.51100000000E-03 0. -1.
<mgrwt>
<rscale>  0 0.20000555E+02</rscale>
<asrwt>0</asrwt>
<pdfrwt beam="1">  1        3 0.13021879E-01 0.20000555E+02</pdfrwt>
<pdfrwt beam="2">  1       -3 0.18177064E-03 0.20000555E+02</pdfrwt>
<totfact> 0.14688194E+06</totfact>
</mgrwt>
</event>
<event>
 5    1  0.4242156E-007  0.2000069E+02  0.7818608E-02  0.1745314E+00
         -3   -1    0    0    0  501 -0.00000000000E+00  0.00000000000E+00  0.73685186324E+01  0.73691054977E+01  0.93000000000E-01 0.  1.
          3   -1    0    0  501    0  0.00000000000E+00 -0.00000000000E+00 -0.13570896672E+02  0.13571215328E+02  0.93000000000E-01 0. -1.
       1023    2    1    2    0    0  0.00000000000E+00  0.00000000000E+00 -0.62023780392E+01  0.20940320825E+02  0.20000688561E+02 0.  0.
        -11    1    3    3    0    0  0.75980208731E+01  0.65020630411E+01 -0.31135988289E+01  0.10473836112E+02  0.51100000000E-03 0. -1.
         11    1    3    3    0    0 -0.75980208731E+01 -0.65020630411E+01 -0.30887792103E+01  0.10466484713E+02  0.51100000000E-03 0.  1.
<mgrwt>
<rscale>  0 0.20000689E+02</rscale>
<asrwt>0</asrwt>
<pdfrwt beam="2">  1        3 0.20878999E-02 0.20000689E+02</pdfrwt>
<pdfrwt beam="1">  1       -3 0.11336879E-02 0.20000689E+02</pdfrwt>
<totfact> 0.17822643E+06</totfact>
</mgrwt>
</event>
<event>
 5    1  0.4133473E-007  0.2000019E+02  0.7818608E-02  0.1745324E+00
         -3   -1    0    0    0  501 -0.00000000000E+00  0.00000000000E+00  0.57640932728E+01  0.57648434721E+01  0.93000000000E-01 0. -1.
          3   -1    0    0  501    0  0.00000000000E+00 -0.00000000000E+00 -0.17347112109E+02  0.17347361399E+02  0.93000000000E-01 0.  1.
       1023    2    1    2    0    0  0.00000000000E+00  0.00000000000E+00 -0.11583018836E+02  0.23112204871E+02  0.20000192215E+02 0.  0.
        -11    1    3    3    0    0  0.19867598668E+01 -0.98007434535E+01 -0.58049309185E+01  0.11562828816E+02  0.51100000000E-03 0. -1.
         11    1    3    3    0    0 -0.19867598668E+01  0.98007434535E+01 -0.57780879173E+01  0.11549376055E+02  0.51100000000E-03 0.  1.
<mgrwt>
<rscale>  0 0.20000192E+02</rscale>
<asrwt>0</asrwt>
<pdfrwt beam="2">  1        3 0.26688633E-02 0.20000192E+02</pdfrwt>
<pdfrwt beam="1">  1       -3 0.88686047E-03 0.20000192E+02</pdfrwt>
<totfact> 0.17684245E+06</totfact>
</mgrwt>
</event>
<event>
 5    1  0.4195192E-007  0.2000053E+02  0.7818608E-02  0.1745318E+00
          3   -1    0    0  501    0  0.00000000000E+00  0.00000000000E+00  0.73464291929E+01  0.73470178227E+01  0.93000000000E-01 0. -1.
         -3   -1    0    0    0  501 -0.00000000000E+00 -0.00000000000E+00 -0.13611483076E+02  0.13611800782E+02  0.93000000000E-01 0.  1.
       1023    2    1    2    0    0  0.00000000000E+00  0.00000000000E+00 -0.62650538831E+01  0.20958818605E+02  0.20000529422E+02 0.  0.
        -11    1    3    3    0    0 -0.86009683156E+01  0.51014568072E+01 -0.31969246356E+01  0.10498659196E+02  0.51100000000E-03 0. -1.
         11    1    3    3    0    0  0.86009683156E+01 -0.51014568072E+01 -0.30681292475E+01  0.10460159409E+02  0.51100000000E-03 0.  1.
<mgrwt>
<rscale>  0 0.20000529E+02</rscale>
<asrwt>0</asrwt>
<pdfrwt beam="1">  1        3 0.11302896E-02 0.20000529E+02</pdfrwt>
<pdfrwt beam="2">  1       -3 0.20941440E-02 0.20000529E+02</pdfrwt>
<totfact> 0.17822288E+06</totfact>
</mgrwt>
</event>
<event>
 5    1  0.4410064E-007  0.2000118E+02  0.7818608E-02  0.1745305E+00
          3   -1    0    0  501    0  0.00000000000E+00  0.00000000000E+00  0.63948975502E+01  0.63955737567E+01  0.93000000000E-01 0.  1.
         -3   -1    0    0    0  501 -0.00000000000E+00 -0.00000000000E+00 -0.15637667736E+02  0.15637944277E+02  0.93000000000E-01 0. -1.
       1023    2    1    2    0    0  0.00000000000E+00  0.00000000000E+00 -0.92427701854E+01  0.22033518034E+02  0.20001177871E+02 0.  0.
        -11    1    3    3    0    0  0.17068766149E+01  0.98538401210E+01 -0.46063655392E+01  0.11010458512E+02  0.51100000000E-03 0. -1.
         11    1    3    3    0    0 -0.17068766149E+01 -0.98538401210E+01 -0.46364046462E+01  0.11023059521E+02  0.51100000000E-03 0.  1.
<mgrwt>
<rscale>  0 0.20001178E+02</rscale>
<asrwt>0</asrwt>
<pdfrwt beam="1">  1        3 0.98390368E-03 0.20001178E+02</pdfrwt>
<pdfrwt beam="2">  1       -3 0.24058683E-02 0.20001178E+02</pdfrwt>
<totfact> 0.17751839E+06</totfact>
</mgrwt>
</event>
<event>
 4    1  0.4133473E-007  0.2004092E+02  0.7818608E-02  0.1744516E+00
         -3   -1    0    0    0  501 -0.00000000000E+00  0.00000000000E+00  0.29315621795E+02  0.29315769310E+02  0.93000000000E-01 0. -1.
          3   -1    0    0  501    0  0.00000000000E+00 -0.00000000000E+00 -0.34243364230E+01  0.34255990626E+01  0.93000000000E-01 0.  1.
        -11    1    1    2    0    0  0.56240601049E+01  0.82926154590E+01  0.12765838590E+02  0.16228498340E+02  0.51100000000E-03 0.  1.
         11    1    1    2    0    0 -0.56240601049E+01 -0.82926154590E+01  0.13125446782E+02  0.16512870032E+02  0.51100000000E-03 0. -1.
<mgrwt>
<rscale>  0 0.20040922E+02</rscale>
<asrwt>0</asrwt>
<pdfrwt beam="2">  1        3 0.52692947E-03 0.20040922E+02</pdfrwt>
<pdfrwt beam="1">  1       -3 0.45102041E-02 0.20040922E+02</pdfrwt>
<totfact> 0.17035442E+06</totfact>
</mgrwt>
</event>
<event>
 5    1  0.4133473E-007  0.2000056E+02  0.7818608E-02  0.1745317E+00
          3   -1    0    0  501    0  0.00000000000E+00  0.00000000000E+00  0.55122722623E+02  0.55122801075E+02  0.93000000000E-01 0.  1.
         -3   -1    0    0    0  501 -0.00000000000E+00 -0.00000000000E+00 -0.18129640630E+01  0.18153478162E+01  0.93000000000E-01 0. -1.
       1023    2    1    2    0    0  0.00000000000E+00  0.00000000000E+00  0.53309758560E+02  0.56938148891E+02  0.20000561028E+02 0.  0.
        -11    1    3    3    0    0 -0.70571355014E+01  0.70853227553E+01  0.26582295308E+02  0.28401115896E+02  0.51100000000E-03 0. -1.
         11    1    3    3    0    0  0.70571355014E+01 -0.70853227553E+01  0.26727463253E+02  0.28537032996E+02  0.51100000000E-03 0.  1.
<mgrwt>
<rscale>  0 0.20000561E+02</rscale>
<asrwt>0</asrwt>
<pdfrwt beam="1">  1        3 0.84806089E-02 0.20000561E+02</pdfrwt>
<pdfrwt beam="2">  1       -3 0.27910693E-03 0.20000561E+02</pdfrwt>
<totfact> 0.15880738E+06</totfact>
</mgrwt>
</event>
<event>
 5    1  0.4133473E-007  0.2000480E+02  0.7818608E-02  0.1745233E+00
          3   -1    0    0  501    0  0.00000000000E+00  0.00000000000E+00  0.33517407505E+01  0.33530307274E+01  0.93000000000E-01 0. -1.
         -3   -1    0    0    0  501 -0.00000000000E+00 -0.00000000000E+00 -0.29842451295E+02  0.29842596206E+02  0.93000000000E-01 0.  1.
       1023    2    1    2    0    0  0.00000000000E+00  0.00000000000E+00 -0.26490710544E+02  0.33195626933E+02  0.20004796983E+02 0.  0.
        -11    1    3    3    0    0  0.19806149976E+01  0.98040486695E+01 -0.13371394550E+02  0.16698395089E+02  0.51100000000E-03 0. -1.
         11    1    3    3    0    0 -0.19806149976E+01 -0.98040486695E+01 -0.13119315995E+02  0.16497231844E+02  0.51100000000E-03 0.  1.
<mgrwt>
<rscale>  0 0.20004797E+02</rscale>
<asrwt>0</asrwt>
<pdfrwt beam="1">  1        3 0.51576282E-03 0.20004797E+02</pdfrwt>
<pdfrwt beam="2">  1       -3 0.45912565E-02 0.20004797E+02</pdfrwt>
<totfact> 0.17076025E+06</totfact>
</mgrwt>
</event>
<event>
 5    1  0.4343233E-007  0.2000032E+02  0.7818608E-02  0.1745322E+00
          3   -1    0    0  501    0  0.00000000000E+00  0.00000000000E+00  0.48286902354E+01  0.48295857369E+01  0.93000000000E-01 0. -1.
         -3   -1    0    0    0  501 -0.00000000000E+00 -0.00000000000E+00 -0.20707287969E+02  0.20707496807E+02  0.93000000000E-01 0.  1.
       1023    2    1    2    0    0  0.00000000000E+00  0.00000000000E+00 -0.15878597733E+02  0.25537082544E+02  0.20000317970E+02 0.  0.
        -11    1    3    3    0    0 -0.99870918683E+01 -0.50940279966E+00 -0.78868979167E+01  0.12735959100E+02  0.51100000000E-03 0. -1.
         11    1    3    3    0    0  0.99870918683E+01  0.50940279966E+00 -0.79916998166E+01  0.12801123444E+02  0.51100000000E-03 0.  1.
<mgrwt>
<rscale>  0 0.20000318E+02</rscale>
<asrwt>0</asrwt>
<pdfrwt beam="1">  1        3 0.74296038E-03 0.20000318E+02</pdfrwt>
<pdfrwt beam="2">  1       -3 0.31858215E-02 0.20000318E+02</pdfrwt>
<totfact> 0.17534184E+06</totfact>
</mgrwt>
</event>
<event>
 5    1  0.4133473E-007  0.2000840E+02  0.7818608E-02  0.1745161E+00
          3   -1    0    0  501    0  0.00000000000E+00  0.00000000000E+00  0.30292519786E+01  0.30306792225E+01  0.93000000000E-01 0.  1.
         -3   -1    0    0    0  501 -0.00000000000E+00 -0.00000000000E+00 -0.33029913887E+02  0.33030044814E+02  0.93000000000E-01 0. -1.
       1023    2    1    2    0    0  0.00000000000E+00  0.00000000000E+00 -0.30000661909E+02  0.36060724036E+02  0.20008400812E+02 0.  0.
        -11    1    3    3    0    0  0.89177507076E+01  0.45273843474E+01 -0.14556886789E+02  0.17661439352E+02  0.51100000000E-03 0.  1.
         11    1    3    3    0    0 -0.89177507076E+01 -0.45273843474E+01 -0.15443775119E+02  0.18399284685E+02  0.51100000000E-03 0. -1.
<mgrwt>
<rscale>  0 0.20008401E+02</rscale>
<asrwt>0</asrwt>
<pdfrwt beam="1">  1        3 0.46615865E-03 0.20008401E+02</pdfrwt>
<pdfrwt beam="2">  1       -3 0.50816448E-02 0.20008401E+02</pdfrwt>
<totfact> 0.16910401E+06</totfact>
</mgrwt>
</event>
<event>
 5    1  0.4357534E-007  0.2000122E+02  0.7818608E-02  0.1745304E+00
         -3   -1    0    0    0  501 -0.00000000000E+00  0.00000000000E+00  0.74246497368E+01  0.74252321656E+01  0.93000000000E-01 0. -1.
          3   -1    0    0  501    0  0.00000000000E+00 -0.00000000000E+00 -0.13469024189E+02  0.13469345255E+02  0.93000000000E-01 0.  1.
       1023    2    1    2    0    0  0.00000000000E+00  0.00000000000E+00 -0.60443744520E+01  0.20894577421E+02  0.20001222539E+02 0.  0.
        -11    1    3    3    0    0 -0.29368990688E+00  0.99962757985E+01 -0.30441476815E+01  0.10453641422E+02  0.51100000000E-03 0.  1.
         11    1    3    3    0    0  0.29368990688E+00 -0.99962757985E+01 -0.30002267704E+01  0.10440935999E+02  0.51100000000E-03 0. -1.
<mgrwt>
<rscale>  0 0.20001223E+02</rscale>
<asrwt>0</asrwt>
<pdfrwt beam="2">  1        3 0.20722271E-02 0.20001223E+02</pdfrwt>
<pdfrwt beam="1">  1       -3 0.11423233E-02 0.20001223E+02</pdfrwt>
<totfact> 0.17824605E+06</totfact>
</mgrwt>
</event>
<event>
 4    1  0.4133473E-007  0.2001396E+02  0.7818608E-02  0.1745051E+00
         -3   -1    0    0    0  501 -0.00000000000E+00  0.00000000000E+00  0.10202633284E+02  0.10203057136E+02  0.93000000000E-01 0.  1.
          3   -1    0    0  501    0  0.00000000000E+00 -0.00000000000E+00 -0.98142262624E+01  0.98146668884E+01  0.93000000000E-01 0. -1.
        -11    1    1    2    0    0  0.98047207158E+01  0.19845962437E+01 -0.67442665254E-01  0.10003785251E+02  0.51100000000E-03 0.  1.
         11    1    1    2    0    0 -0.98047207158E+01 -0.19845962437E+01  0.45584968643E+00  0.10013938774E+02  0.51100000000E-03 0. -1.
<mgrwt>
<rscale>  0 0.20013956E+02</rscale>
<asrwt>0</asrwt>
<pdfrwt beam="2">  1        3 0.15099475E-02 0.20013956E+02</pdfrwt>
<pdfrwt beam="1">  1       -3 0.15697024E-02 0.20013956E+02</pdfrwt>
<totfact> 0.17857619E+06</totfact>
</mgrwt>
</event>
<event>
 5    1  0.4235507E-007  0.2000138E+02  0.7818608E-02  0.1745301E+00
         -3   -1    0    0    0  501 -0.00000000000E+00  0.00000000000E+00  0.31760787888E+02  0.31760924046E+02  0.93000000000E-01 0.  1.
          3   -1    0    0  501    0  0.00000000000E+00 -0.00000000000E+00 -0.31481423554E+01  0.31495157231E+01  0.93000000000E-01 0. -1.
       1023    2    1    2    0    0  0.00000000000E+00  0.00000000000E+00  0.28612645533E+02  0.34910439769E+02  0.20001382965E+02 0.  0.
        -11    1    3    3    0    0  0.78262352435E+01 -0.62259992447E+01  0.14355849818E+02  0.17495812326E+02  0.51100000000E-03 0.  1.
         11    1    3    3    0    0 -0.78262352435E+01  0.62259992447E+01  0.14256795715E+02  0.17414627443E+02  0.51100000000E-03 0. -1.
<mgrwt>
<rscale>  0 0.20001383E+02</rscale>
<asrwt>0</asrwt>
<pdfrwt beam="2">  1        3 0.48444571E-03 0.20001383E+02</pdfrwt>
<pdfrwt beam="1">  1       -3 0.48863912E-02 0.20001383E+02</pdfrwt>
<totfact> 0.16986478E+06</totfact>
</mgrwt>
</event>
<event>
 5    1  0.4133473E-007  0.2000019E+02  0.7818608E-02  0.1745324E+00
         -3   -1    0    0    0  501 -0.00000000000E+00  0.00000000000E+00  0.35213847244E+02  0.35213970050E+02  0.93000000000E-01 0.  1.
          3   -1    0    0  501    0  0.00000000000E+00 -0.00000000000E+00 -0.28389555388E+01  0.28404784019E+01  0.93000000000E-01 0. -1.
       1023    2    1    2    0    0  0.00000000000E+00  0.00000000000E+00  0.32374891705E+02  0.38054448452E+02  0.20000185852E+02 0.  0.
        -11    1    3    3    0    0 -0.98122473263E+01  0.19289557702E+01  0.16133956236E+02  0.18981717837E+02  0.51100000000E-03 0. -1.
         11    1    3    3    0    0  0.98122473263E+01 -0.19289557702E+01  0.16240935469E+02  0.19072730616E+02  0.51100000000E-03 0.  1.
<mgrwt>
<rscale>  0 0.20000186E+02</rscale>
<asrwt>0</asrwt>
<pdfrwt beam="2">  1        3 0.43688898E-03 0.20000186E+02</pdfrwt>
<pdfrwt beam="1">  1       -3 0.54176416E-02 0.20000186E+02</pdfrwt>
<totfact> 0.16817230E+06</totfact>
</mgrwt>
</event>
<event>
 5    1  0.4133473E-007  0.2000115E+02  0.7818608E-02  0.1745305E+00
          3   -1    0    0  501    0  0.00000000000E+00  0.00000000000E+00  0.11026705772E+03  0.11026709694E+03  0.93000000000E-01 0. -1.
         -3   -1    0    0    0  501 -0.00000000000E+00 -0.00000000000E+00 -0.90456981609E+00  0.90933797467E+00  0.93000000000E-01 0.  1.
       1023    2    1    2    0    0  0.00000000000E+00  0.00000000000E+00  0.10936248791E+03  0.11117643491E+03  0.20001147953E+02 0.  0.
        -11    1    3    3    0    0 -0.97556752413E+01  0.21991872855E+01  0.54920677556E+02  0.55823744478E+02  0.51100000000E-03 0. -1.
         11    1    3    3    0    0  0.97556752413E+01 -0.21991872855E+01  0.54441810350E+02  0.55352690436E+02  0.51100000000E-03 0.  1.
<mgrwt>
<rscale>  0 0.20001148E+02</rscale>
<asrwt>0</asrwt>
<pdfrwt beam="1">  1        3 0.16964521E-01 0.20001148E+02</pdfrwt>
<pdfrwt beam="2">  1       -3 0.13953448E-03 0.20001148E+02</pdfrwt>
<totfact> 0.13800798E+06</totfact>
</mgrwt>
</event>
<event>
 5    1  0.4133473E-007  0.2000695E+02  0.7818608E-02  0.1745190E+00
         -3   -1    0    0    0  501 -0.00000000000E+00  0.00000000000E+00  0.65888437184E+01  0.65895000224E+01  0.93000000000E-01 0. -1.
          3   -1    0    0  501    0  0.00000000000E+00 -0.00000000000E+00 -0.15186169754E+02  0.15186454517E+02  0.93000000000E-01 0.  1.
       1023    2    1    2    0    0  0.00000000000E+00  0.00000000000E+00 -0.85973260356E+01  0.21775954540E+02  0.20006953320E+02 0.  0.
        -11    1    3    3    0    0  0.96929164224E+01  0.24629516607E+01 -0.45439449466E+01  0.10984816594E+02  0.51100000000E-03 0.  1.
         11    1    3    3    0    0 -0.96929164224E+01 -0.24629516607E+01 -0.40533810890E+01  0.10791137946E+02  0.51100000000E-03 0. -1.
<mgrwt>
<rscale>  0 0.20006953E+02</rscale>
<asrwt>0</asrwt>
<pdfrwt beam="2">  1        3 0.23364062E-02 0.20006953E+02</pdfrwt>
<pdfrwt beam="1">  1       -3 0.10137407E-02 0.20006953E+02</pdfrwt>
<totfact> 0.17756530E+06</totfact>
</mgrwt>
</event>
<event>
 5    1  0.4133473E-007  0.2000120E+02  0.7818608E-02  0.1745304E+00
         -3   -1    0    0    0  501 -0.00000000000E+00  0.00000000000E+00  0.46270498071E+01  0.46279843255E+01  0.93000000000E-01 0.  1.
          3   -1    0    0  501    0  0.00000000000E+00 -0.00000000000E+00 -0.21611413399E+02  0.21611613501E+02  0.93000000000E-01 0. -1.
       1023    2    1    2    0    0  0.00000000000E+00  0.00000000000E+00 -0.16984363592E+02  0.26239597826E+02  0.20001197151E+02 0.  0.
        -11    1    3    3    0    0  0.61545905852E+01 -0.78823107103E+01 -0.85532127047E+01  0.13159302992E+02  0.51100000000E-03 0. -1.
         11    1    3    3    0    0 -0.61545905852E+01  0.78823107103E+01 -0.84311508874E+01  0.13080294834E+02  0.51100000000E-03 0.  1.
<mgrwt>
<rscale>  0 0.20001197E+02</rscale>
<asrwt>0</asrwt>
<pdfrwt beam="2">  1        3 0.33249201E-02 0.20001197E+02</pdfrwt>
<pdfrwt beam="1">  1       -3 0.71194111E-03 0.20001197E+02</pdfrwt>
<totfact> 0.17488281E+06</totfact>
</mgrwt>
</event>
<event>
 5    1  0.4298419E-007  0.2000119E+02  0.7818608E-02  0.1745304E+00
          3   -1    0    0  501    0  0.00000000000E+00  0.00000000000E+00  0.65216919365E+01  0.65223549975E+01  0.93000000000E-01 0.  1.
         -3   -1    0    0    0  501 -0.00000000000E+00 -0.00000000000E+00 -0.15333685822E+02  0.15333967846E+02  0.93000000000E-01 0. -1.
       1023    2    1    2    0    0  0.00000000000E+00  0.00000000000E+00 -0.88119938857E+01  0.21856322843E+02  0.20001190264E+02 0.  0.
        -11    1    3    3    0    0 -0.78990154233E+01 -0.61327660124E+01 -0.43169587396E+01  0.10892263155E+02  0.51100000000E-03 0. -1.
         11    1    3    3    0    0  0.78990154233E+01  0.61327660124E+01 -0.44950351461E+01  0.10964059688E+02  0.51100000000E-03 0.  1.
<mgrwt>
<rscale>  0 0.20001190E+02</rscale>
<asrwt>0</asrwt>
<pdfrwt beam="1">  1        3 0.10034099E-02 0.20001190E+02</pdfrwt>
<pdfrwt beam="2">  1       -3 0.23591013E-02 0.20001190E+02</pdfrwt>
<totfact> 0.17763146E+06</totfact>
</mgrwt>
</event>
<event>
 5    1  0.4223917E-007  0.2000083E+02  0.7818608E-02  0.1745312E+00
         -3   -1    0    0    0  501 -0.00000000000E+00  0.00000000000E+00  0.57727464364E+01  0.57734955113E+01  0.93000000000E-01 0.  1.
          3   -1    0    0  501    0  0.00000000000E+00 -0.00000000000E+00 -0.17322214429E+02  0.17322464077E+02  0.93000000000E-01 0. -1.
       1023    2    1    2    0    0  0.00000000000E+00  0.00000000000E+00 -0.11549467992E+02  0.23095959589E+02  0.20000828443E+02 0.  0.
        -11    1    3    3    0    0 -0.67028639754E+01 -0.74215440361E+01 -0.57468523378E+01  0.11534037169E+02  0.51100000000E-03 0. -1.
         11    1    3    3    0    0  0.67028639754E+01  0.74215440361E+01 -0.58026156544E+01  0.11561922420E+02  0.51100000000E-03 0.  1.
<mgrwt>
<rscale>  0 0.20000828E+02</rscale>
<asrwt>0</asrwt>
<pdfrwt beam="2">  1        3 0.26650329E-02 0.20000828E+02</pdfrwt>
<pdfrwt beam="1">  1       -3 0.88819167E-03 0.20000828E+02</pdfrwt>
<totfact> 0.17684060E+06</totfact>
</mgrwt>
</event>
<event>
 5    1  0.4135451E-007  0.2000135E+02  0.7818608E-02  0.1745301E+00
         -3   -1    0    0    0  501 -0.00000000000E+00  0.00000000000E+00  0.17045881598E+01  0.17071232511E+01  0.93000000000E-01 0. -1.
          3   -1    0    0  501    0  0.00000000000E+00 -0.00000000000E+00 -0.58626944146E+02  0.58627017909E+02  0.93000000000E-01 0.  1.
       1023    2    1    2    0    0  0.00000000000E+00  0.00000000000E+00 -0.56922355986E+02  0.60334141160E+02  0.20001349417E+02 0.  0.
        -11    1    3    3    0    0  0.43062799480E+01 -0.90258520910E+01 -0.28638136585E+02  0.30334022487E+02  0.51100000000E-03 0.  1.
         11    1    3    3    0    0 -0.43062799480E+01  0.90258520910E+01 -0.28284219401E+02  0.30000118672E+02  0.51100000000E-03 0. -1.
<mgrwt>
<rscale>  0 0.20001349E+02</rscale>
<asrwt>0</asrwt>
<pdfrwt beam="2">  1        3 0.90197290E-02 0.20001349E+02</pdfrwt>
<pdfrwt beam="1">  1       -3 0.26244506E-03 0.20001349E+02</pdfrwt>
<totfact> 0.15726454E+06</totfact>
</mgrwt>
</event>
<event>
 5    1  0.4133473E-007  0.2000103E+02  0.7818608E-02  0.1745308E+00
          3   -1    0    0  501    0  0.00000000000E+00  0.00000000000E+00  0.17734195857E+01  0.17758564207E+01  0.93000000000E-01 0.  1.
         -3   -1    0    0    0  501 -0.00000000000E+00 -0.00000000000E+00 -0.56352829159E+02  0.56352905898E+02  0.93000000000E-01 0. -1.
       1023    2    1    2    0    0  0.00000000000E+00  0.00000000000E+00 -0.54579409573E+02  0.58128762319E+02  0.20001026459E+02 0.  0.
        -11    1    3    3    0    0  0.84156957806E+01 -0.54024263521E+01 -0.27258050045E+02  0.29034659262E+02  0.51100000000E-03 0.  1.
         11    1    3    3    0    0 -0.84156957806E+01  0.54024263521E+01 -0.27321359528E+02  0.29094103057E+02  0.51100000000E-03 0. -1.
<mgrwt>
<rscale>  0 0.20001026E+02</rscale>
<asrwt>0</asrwt>
<pdfrwt beam="1">  1        3 0.27302718E-03 0.20001026E+02</pdfrwt>
<pdfrwt beam="2">  1       -3 0.86698580E-02 0.20001026E+02</pdfrwt>
<totfact> 0.15828632E+06</totfact>
</mgrwt>
</event>
<event>
 5    1  0.4133473E-007  0.2000060E+02  0.7818608E-02  0.1745316E+00
         -3   -1    0    0    0  501 -0.00000000000E+00  0.00000000000E+00  0.10556760729E+03  0.10556764826E+03  0.93000000000E-01 0. -1.
          3   -1    0    0  501    0  0.00000000000E+00 -0.00000000000E+00 -0.94499311397E+00  0.94955831071E+00  0.93000000000E-01 0.  1.
       1023    2    1    2    0    0  0.00000000000E+00  0.00000000000E+00  0.10462261418E+03  0.10651720657E+03  0.20000597426E+02 0.  0.
        -11    1    3    3    0    0  0.27387349409E+01 -0.96179321460E+01  0.52171793746E+02  0.53121571426E+02  0.51100000000E-03 0. -1.
         11    1    3    3    0    0 -0.27387349409E+01  0.96179321460E+01  0.52450820432E+02  0.53395635141E+02  0.51100000000E-03 0.  1.
<mgrwt>
<rscale>  0 0.20000597E+02</rscale>
<asrwt>0</asrwt>
<pdfrwt beam="2">  1        3 0.14573784E-03 0.20000597E+02</pdfrwt>
<pdfrwt beam="1">  1       -3 0.16241528E-01 0.20000597E+02</pdfrwt>
<totfact> 0.13958239E+06</totfact>
</mgrwt>
</event>
<event>
 5    1  0.4134451E-007  0.2000050E+02  0.7818608E-02  0.1745318E+00
         -3   -1    0    0    0  501 -0.00000000000E+00  0.00000000000E+00  0.97554610888E+01  0.97559043689E+01  0.93000000000E-01 0.  1.
          3   -1    0    0  501    0  0.00000000000E+00 -0.00000000000E+00 -0.10250297937E+02  0.10250719819E+02  0.93000000000E-01 0. -1.
       1023    2    1    2    0    0  0.00000000000E+00  0.00000000000E+00 -0.49483684854E+00  0.20006624188E+02  0.20000503691E+02 0.  0.
        -11    1    3    3    0    0  0.29055061097E+01  0.95688355155E+01 -0.26882200425E+00  0.10003841482E+02  0.51100000000E-03 0. -1.
         11    1    3    3    0    0 -0.29055061097E+01 -0.95688355155E+01 -0.22601484430E+00  0.10002782705E+02  0.51100000000E-03 0.  1.
<mgrwt>
<rscale>  0 0.20000504E+02</rscale>
<asrwt>0</asrwt>
<pdfrwt beam="2">  1        3 0.15770355E-02 0.20000504E+02</pdfrwt>
<pdfrwt beam="1">  1       -3 0.15009067E-02 0.20000504E+02</pdfrwt>
<totfact> 0.17884205E+06</totfact>
</mgrwt>
</event>
<event>
 4    1  0.4133473E-007  0.2003378E+02  0.7818608E-02  0.1744657E+00
          3   -1    0    0  501    0  0.00000000000E+00  0.00000000000E+00  0.70672826205E+02  0.70672887396E+02  0.93000000000E-01 0. -1.
         -3   -1    0    0    0  501 -0.00000000000E+00 -0.00000000000E+00 -0.14181694267E+01  0.14212155089E+01  0.93000000000E-01 0.  1.
        -11    1    1    2    0    0  0.99317180898E+01 -0.11842000686E+01  0.32667173516E+02  0.34164097820E+02  0.51100000000E-03 0.  1.
         11    1    1    2    0    0 -0.99317180898E+01  0.11842000686E+01  0.36587483262E+02  0.37930005085E+02  0.51100000000E-03 0. -1.
<mgrwt>
<rscale>  0 0.20033776E+02</rscale>
<asrwt>0</asrwt>
<pdfrwt beam="1">  1        3 0.10872980E-01 0.20033776E+02</pdfrwt>
<pdfrwt beam="2">  1       -3 0.21841896E-03 0.20033776E+02</pdfrwt>
<totfact> 0.15171621E+06</totfact>
</mgrwt>
</event>
<event>
 5    1  0.4133473E-007  0.2000328E+02  0.7818608E-02  0.1745263E+00
          3   -1    0    0  501    0  0.00000000000E+00  0.00000000000E+00  0.18827045357E+01  0.18850000979E+01  0.93000000000E-01 0.  1.
         -3   -1    0    0    0  501 -0.00000000000E+00 -0.00000000000E+00 -0.53097794143E+02  0.53097875587E+02  0.93000000000E-01 0. -1.
       1023    2    1    2    0    0  0.00000000000E+00  0.00000000000E+00 -0.51215089608E+02  0.54982875685E+02  0.20003280109E+02 0.  0.
        -11    1    3    3    0    0 -0.72714774738E+01 -0.68651573649E+01 -0.26067761866E+02  0.27920117823E+02  0.51100000000E-03 0.  1.
         11    1    3    3    0    0  0.72714774738E+01  0.68651573649E+01 -0.25147327742E+02  0.27062757862E+02  0.51100000000E-03 0. -1.
<mgrwt>
<rscale>  0 0.20003280E+02</rscale>
<asrwt>0</asrwt>
<pdfrwt beam="1">  1        3 0.28982974E-03 0.20003280E+02</pdfrwt>
<pdfrwt beam="2">  1       -3 0.81690731E-02 0.20003280E+02</pdfrwt>
<totfact> 0.15968626E+06</totfact>
</mgrwt>
</event>
<event>
 5    1  0.4133473E-007  0.2000474E+02  0.7818608E-02  0.1745234E+00
          3   -1    0    0  501    0  0.00000000000E+00  0.00000000000E+00  0.12322476221E+01  0.12357520796E+01  0.93000000000E-01 0.  1.
         -3   -1    0    0    0  501 -0.00000000000E+00 -0.00000000000E+00 -0.81072210576E+02  0.81072263917E+02  0.93000000000E-01 0. -1.
       1023    2    1    2    0    0  0.00000000000E+00  0.00000000000E+00 -0.79839962954E+02  0.82308015997E+02  0.20004744759E+02 0.  0.
        -11    1    3    3    0    0 -0.98334709717E+01  0.18294383006E+01 -0.40161898121E+02  0.41388670633E+02  0.51100000000E-03 0. -1.
         11    1    3    3    0    0  0.98334709717E+01 -0.18294383006E+01 -0.39678064833E+02  0.40919345364E+02  0.51100000000E-03 0.  1.
<mgrwt>
<rscale>  0 0.20004745E+02</rscale>
<asrwt>0</asrwt>
<pdfrwt beam="1">  1        3 0.18985030E-03 0.20004745E+02</pdfrwt>
<pdfrwt beam="2">  1       -3 0.12472917E-01 0.20004745E+02</pdfrwt>
<totfact> 0.14817723E+06</totfact>
</mgrwt>
</event>
<event>
 5    1  0.4290329E-007  0.2000229E+02  0.7818608E-02  0.1745282E+00
          3   -1    0    0  501    0  0.00000000000E+00  0.00000000000E+00  0.32998009227E+01  0.33011111962E+01  0.93000000000E-01 0.  1.
         -3   -1    0    0    0  501 -0.00000000000E+00 -0.00000000000E+00 -0.30304413419E+02  0.30304556121E+02  0.93000000000E-01 0. -1.
       1023    2    1    2    0    0  0.00000000000E+00  0.00000000000E+00 -0.27004612496E+02  0.33605667317E+02  0.20002294362E+02 0.  0.
        -11    1    3    3    0    0  0.97920849096E+01 -0.20318655576E+01 -0.13666406921E+02  0.16934700556E+02  0.51100000000E-03 0.  1.
         11    1    3    3    0    0 -0.97920849096E+01  0.20318655576E+01 -0.13338205576E+02  0.16670966761E+02  0.51100000000E-03 0. -1.
<mgrwt>
<rscale>  0 0.20002294E+02</rscale>
<asrwt>0</asrwt>
<pdfrwt beam="1">  1        3 0.50777347E-03 0.20002294E+02</pdfrwt>
<pdfrwt beam="2">  1       -3 0.46623290E-02 0.20002294E+02</pdfrwt>
<totfact> 0.17057553E+06</totfact>
</mgrwt>
</event>
<event>
 4    1  0.4133473E-007  0.2005047E+02  0.7818608E-02  0.1744326E+00
          3   -1    0    0  501    0  0.00000000000E+00  0.00000000000E+00  0.94322216329E+00  0.94779589012E+00  0.93000000000E-01 0. -1.
         -3   -1    0    0    0  501 -0.00000000000E+00 -0.00000000000E+00 -0.10629304482E+03  0.10629308550E+03  0.93000000000E-01 0.  1.
        -11    1    1    2    0    0  0.33793846151E+01  0.94302925708E+01 -0.54778723140E+02  0.55687154420E+02  0.51100000000E-03 0. -1.
         11    1    1    2    0    0 -0.33793846151E+01 -0.94302925708E+01 -0.50571099517E+02  0.51553726974E+02  0.51100000000E-03 0.  1.
<mgrwt>
<rscale>  0 0.20050474E+02</rscale>
<asrwt>0</asrwt>
<pdfrwt beam="1">  1        3 0.14546614E-03 0.20050474E+02</pdfrwt>
<pdfrwt beam="2">  1       -3 0.16353122E-01 0.20050474E+02</pdfrwt>
<totfact> 0.13859789E+06</totfact>
</mgrwt>
</event>
<event>
 5    1  0.4133473E-007  0.2000058E+02  0.7818608E-02  0.1745317E+00
          3   -1    0    0  501    0  0.00000000000E+00  0.00000000000E+00  0.10352595163E+03  0.10352599340E+03  0.93000000000E-01 0. -1.
         -3   -1    0    0    0  501 -0.00000000000E+00 -0.00000000000E+00 -0.96371659911E+00  0.96819351547E+00  0.93000000000E-01 0.  1.
       1023    2    1    2    0    0  0.00000000000E+00  0.00000000000E+00  0.10256223503E+03  0.10449418692E+03  0.20000576118E+02 0.  0.
        -11    1    3    3    0    0  0.93912942923E+01 -0.34362786999E+01  0.51472453989E+02  0.52434892387E+02  0.51100000000E-03 0.  1.
         11    1    3    3    0    0 -0.93912942923E+01  0.34362786999E+01  0.51089781041E+02  0.52059294529E+02  0.51100000000E-03 0. -1.
<mgrwt>
<rscale>  0 0.20000576E+02</rscale>
<asrwt>0</asrwt>
<pdfrwt beam="1">  1        3 0.15927415E-01 0.20000576E+02</pdfrwt>
<pdfrwt beam="2">  1       -3 0.14861170E-03 0.20000576E+02</pdfrwt>
<totfact> 0.14023485E+06</totfact>
</mgrwt>
</event>
<event>
 5    1  0.4133473E-007  0.2000180E+02  0.7818608E-02  0.1745292E+00
          3   -1    0    0  501    0  0.00000000000E+00  0.00000000000E+00  0.23506402408E+02  0.23506586379E+02  0.93000000000E-01 0. -1.
         -3   -1    0    0    0  501 -0.00000000000E+00 -0.00000000000E+00 -0.42542189934E+01  0.42552353923E+01  0.93000000000E-01 0.  1.
       1023    2    1    2    0    0  0.00000000000E+00  0.00000000000E+00  0.19252183415E+02  0.27761821771E+02  0.20001804464E+02 0.  0.
        -11    1    3    3    0    0 -0.99281877228E+01  0.12034809428E+01  0.95876434992E+01  0.13854247939E+02  0.51100000000E-03 0.  1.
         11    1    3    3    0    0  0.99281877228E+01 -0.12034809428E+01  0.96645399159E+01  0.13907573832E+02  0.51100000000E-03 0. -1.
<mgrwt>
<rscale>  0 0.20001804E+02</rscale>
<asrwt>0</asrwt>
<pdfrwt beam="1">  1        3 0.36164619E-02 0.20001804E+02</pdfrwt>
<pdfrwt beam="2">  1       -3 0.65458758E-03 0.20001804E+02</pdfrwt>
<totfact> 0.17395312E+06</totfact>
</mgrwt>
</event>
<event>
 4    1  0.4133473E-007  0.2006474E+02  0.7818608E-02  0.1744044E+00
          3   -1    0    0  501    0  0.00000000000E+00  0.00000000000E+00  0.95996242483E+01  0.96000747241E+01  0.93000000000E-01 0.  1.
         -3   -1    0    0    0  501 -0.00000000000E+00 -0.00000000000E+00 -0.10483725544E+02  0.10484138032E+02  0.93000000000E-01 0. -1.
        -11    1    1    2    0    0 -0.17788987978E+01 -0.98620333093E+01  0.32022179337E-01  0.10021237828E+02  0.51100000000E-03 0.  1.
         11    1    1    2    0    0  0.17788987978E+01  0.98620333093E+01 -0.91612347499E+00  0.10062974928E+02  0.51100000000E-03 0. -1.
<mgrwt>
<rscale>  0 0.20064744E+02</rscale>
<asrwt>0</asrwt>
<pdfrwt beam="1">  1        3 0.14769317E-02 0.20064744E+02</pdfrwt>
<pdfrwt beam="2">  1       -3 0.16129472E-02 0.20064744E+02</pdfrwt>
<totfact> 0.17756013E+06</totfact>
</mgrwt>
</event>
<event>
 5    1  0.4133473E-007  0.2000901E+02  0.7818608E-02  0.1745149E+00
         -3   -1    0    0    0  501 -0.00000000000E+00  0.00000000000E+00  0.86696434161E+01  0.86701422112E+01  0.93000000000E-01 0.  1.
          3   -1    0    0  501    0  0.00000000000E+00 -0.00000000000E+00 -0.11543879317E+02  0.11544253925E+02  0.93000000000E-01 0. -1.
       1023    2    1    2    0    0  0.00000000000E+00  0.00000000000E+00 -0.28742359012E+01  0.20214396137E+02  0.20009012448E+02 0.  0.
        -11    1    3    3    0    0 -0.10002330947E+02 -0.12926081963E+00 -0.16025417704E+01  0.10130719280E+02  0.51100000000E-03 0. -1.
         11    1    3    3    0    0  0.10002330947E+02  0.12926081963E+00 -0.12716941308E+01  0.10083676857E+02  0.51100000000E-03 0.  1.
<mgrwt>
<rscale>  0 0.20009012E+02</rscale>
<asrwt>0</asrwt>
<pdfrwt beam="2">  1        3 0.17760486E-02 0.20009012E+02</pdfrwt>
<pdfrwt beam="1">  1       -3 0.13338585E-02 0.20009012E+02</pdfrwt>
<totfact> 0.17854133E+06</totfact>
</mgrwt>
</event>
<event>
 5    1  0.4133473E-007  0.2000021E+02  0.7818608E-02  0.1745324E+00
         -3   -1    0    0    0  501 -0.00000000000E+00  0.00000000000E+00  0.69814211976E+01  0.69820405998E+01  0.93000000000E-01 0.  1.
          3   -1    0    0  501    0  0.00000000000E+00 -0.00000000000E+00 -0.14322625328E+02  0.14322927259E+02  0.93000000000E-01 0. -1.
       1023    2    1    2    0    0  0.00000000000E+00  0.00000000000E+00 -0.73412041301E+01  0.21304967859E+02  0.20000209434E+02 0.  0.
        -11    1    3    3    0    0 -0.34751873306E+01 -0.93768348834E+01 -0.36829641021E+01  0.10656743605E+02  0.51100000000E-03 0.  1.
         11    1    3    3    0    0  0.34751873306E+01  0.93768348834E+01 -0.36582400280E+01  0.10648224255E+02  0.51100000000E-03 0. -1.
<mgrwt>
<rscale>  0 0.20000209E+02</rscale>
<asrwt>0</asrwt>
<pdfrwt beam="2">  1        3 0.22035517E-02 0.20000209E+02</pdfrwt>
<pdfrwt beam="1">  1       -3 0.10741357E-02 0.20000209E+02</pdfrwt>
<totfact> 0.17799841E+06</totfact>
</mgrwt>
</event>
<event>
 5    1  0.4133473E-007  0.2000199E+02  0.7818608E-02  0.1745288E+00
          3   -1    0    0  501    0  0.00000000000E+00  0.00000000000E+00  0.46830100823E+01  0.46839334358E+01  0.93000000000E-01 0.  1.
         -3   -1    0    0    0  501 -0.00000000000E+00 -0.00000000000E+00 -0.21354915204E+02  0.21355117709E+02  0.93000000000E-01 0. -1.
       1023    2    1    2    0    0  0.00000000000E+00  0.00000000000E+00 -0.16671905121E+02  0.26039051144E+02  0.20001994004E+02 0.  0.
        -11    1    3    3    0    0  0.97311050907E+01  0.23052289001E+01 -0.81966258720E+01  0.12930319506E+02  0.51100000000E-03 0.  1.
         11    1    3    3    0    0 -0.97311050907E+01 -0.23052289001E+01 -0.84752792492E+01  0.13108731639E+02  0.51100000000E-03 0. -1.
<mgrwt>
<rscale>  0 0.20001994E+02</rscale>
<asrwt>0</asrwt>
<pdfrwt beam="1">  1        3 0.72054971E-03 0.20001994E+02</pdfrwt>
<pdfrwt beam="2">  1       -3 0.32854581E-02 0.20001994E+02</pdfrwt>
<totfact> 0.17500340E+06</totfact>
</mgrwt>
</event>
<event>
 5    1  0.4133473E-007  0.2000060E+02  0.7818608E-02  0.1745316E+00
         -3   -1    0    0    0  501 -0.00000000000E+00  0.00000000000E+00  0.38903498158E+01  0.38914612537E+01  0.93000000000E-01 0. -1.
          3   -1    0    0  501    0  0.00000000000E+00 -0.00000000000E+00 -0.25701294910E+02  0.25701463170E+02  0.93000000000E-01 0.  1.
       1023    2    1    2    0    0  0.00000000000E+00  0.00000000000E+00 -0.21810945094E+02  0.29592924423E+02  0.20000596241E+02 0.  0.
        -11    1    3    3    0    0  0.94431370912E+01 -0.32906721130E+01 -0.11005836729E+02  0.14870433868E+02  0.51100000000E-03 0. -1.
         11    1    3    3    0    0 -0.94431370912E+01  0.32906721130E+01 -0.10805108366E+02  0.14722490555E+02  0.51100000000E-03 0.  1.
<mgrwt>
<rscale>  0 0.20000596E+02</rscale>
<asrwt>0</asrwt>
<pdfrwt beam="2">  1        3 0.39541437E-02 0.20000596E+02</pdfrwt>
<pdfrwt beam="1">  1       -3 0.59861381E-03 0.20000596E+02</pdfrwt>
<totfact> 0.17289087E+06</totfact>
</mgrwt>
</event>
<event>
 5    1  0.4133473E-007  0.2000045E+02  0.7818608E-02  0.1745319E+00
          3   -1    0    0  501    0  0.00000000000E+00  0.00000000000E+00  0.12557769227E+02  0.12558113590E+02  0.93000000000E-01 0. -1.
         -3   -1    0    0    0  501 -0.00000000000E+00 -0.00000000000E+00 -0.79628285875E+01  0.79633716549E+01  0.93000000000E-01 0.  1.
       1023    2    1    2    0    0  0.00000000000E+00  0.00000000000E+00  0.45949406392E+01  0.20521485245E+02  0.20000446925E+02 0.  0.
        -11    1    3    3    0    0 -0.87234676259E+01 -0.48892475157E+01  0.23272142583E+01  0.10267402552E+02  0.51100000000E-03 0. -1.
         11    1    3    3    0    0  0.87234676259E+01  0.48892475157E+01  0.22677263809E+01  0.10254082694E+02  0.51100000000E-03 0.  1.
<mgrwt>
<rscale>  0 0.20000447E+02</rscale>
<asrwt>0</asrwt>
<pdfrwt beam="1">  1        3 0.19320328E-02 0.20000447E+02</pdfrwt>
<pdfrwt beam="2">  1       -3 0.12251188E-02 0.20000447E+02</pdfrwt>
<totfact> 0.17850462E+06</totfact>
</mgrwt>
</event>
<event>
 5    1  0.4133473E-007  0.2000032E+02  0.7818608E-02  0.1745322E+00
         -3   -1    0    0    0  501 -0.00000000000E+00  0.00000000000E+00  0.18752794117E+02  0.18753024721E+02  0.93000000000E-01 0.  1.
          3   -1    0    0  501    0  0.00000000000E+00 -0.00000000000E+00 -0.53320424018E+01  0.53328533802E+01  0.93000000000E-01 0. -1.
       1023    2    1    2    0    0  0.00000000000E+00  0.00000000000E+00  0.13420751715E+02  0.24085878102E+02  0.20000323680E+02 0.  0.
        -11    1    3    3    0    0 -0.93911409280E+01  0.34361226775E+01  0.66469986920E+01  0.12007625030E+02  0.51100000000E-03 0.  1.
         11    1    3    3    0    0  0.93911409280E+01 -0.34361226775E+01  0.67737530233E+01  0.12078253072E+02  0.51100000000E-03 0. -1.
<mgrwt>
<rscale>  0 0.20000324E+02</rscale>
<asrwt>0</asrwt>
<pdfrwt beam="2">  1        3 0.82039433E-03 0.20000324E+02</pdfrwt>
<pdfrwt beam="1">  1       -3 0.28851254E-02 0.20000324E+02</pdfrwt>
<totfact> 0.17623965E+06</totfact>
</mgrwt>
</event>
<event>
 5    1  0.4133473E-007  0.2000131E+02  0.7818608E-02  0.1745302E+00
          3   -1    0    0  501    0  0.00000000000E+00  0.00000000000E+00  0.12227008689E+01  0.12262326104E+01  0.93000000000E-01 0.  1.
         -3   -1    0    0    0  501 -0.00000000000E+00 -0.00000000000E+00 -0.81675322114E+02  0.81675375061E+02  0.93000000000E-01 0. -1.
       1023    2    1    2    0    0  0.00000000000E+00  0.00000000000E+00 -0.80452621245E+02  0.82901607672E+02  0.20001307191E+02 0.  0.
        -11    1    3    3    0    0 -0.57315459193E+01  0.81951283198E+01 -0.40426178008E+02  0.41644766963E+02  0.51100000000E-03 0. -1.
         11    1    3    3    0    0  0.57315459193E+01 -0.81951283198E+01 -0.40026443237E+02  0.41256840709E+02  0.51100000000E-03 0.  1.
<mgrwt>
<rscale>  0 0.20001307E+02</rscale>
<asrwt>0</asrwt>
<pdfrwt beam="1">  1        3 0.18838364E-03 0.20001307E+02</pdfrwt>
<pdfrwt beam="2">  1       -3 0.12565706E-01 0.20001307E+02</pdfrwt>
<totfact> 0.14800497E+06</totfact>
</mgrwt>
</event>
<event>
 5    1  0.4239843E-007  0.2000060E+02  0.7818608E-02  0.1745316E+00
          3   -1    0    0  501    0  0.00000000000E+00  0.00000000000E+00  0.78460105043E+01  0.78465616568E+01  0.93000000000E-01 0.  1.
         -3   -1    0    0    0  501 -0.00000000000E+00 -0.00000000000E+00 -0.12744924326E+02  0.12745263633E+02  0.93000000000E-01 0. -1.
       1023    2    1    2    0    0  0.00000000000E+00  0.00000000000E+00 -0.48989138218E+01  0.20591825290E+02  0.20000597794E+02 0.  0.
        -11    1    3    3    0    0  0.38173344450E+01 -0.92428938925E+01 -0.23945127050E+01  0.10282841102E+02  0.51100000000E-03 0. -1.
         11    1    3    3    0    0 -0.38173344450E+01  0.92428938925E+01 -0.25044011168E+01  0.10308984188E+02  0.51100000000E-03 0.  1.
<mgrwt>
<rscale>  0 0.20000598E+02</rscale>
<asrwt>0</asrwt>
<pdfrwt beam="1">  1        3 0.12071470E-02 0.20000598E+02</pdfrwt>
<pdfrwt beam="2">  1       -3 0.19608261E-02 0.20000598E+02</pdfrwt>
<totfact> 0.17846012E+06</totfact>
</mgrwt>
</event>
<event>
 5    1  0.4133473E-007  0.2000227E+02  0.7818608E-02  0.1745283E+00
         -3   -1    0    0    0  501 -0.00000000000E+00  0.00000000000E+00  0.18896258312E+01  0.18919129954E+01  0.93000000000E-01 0. -1.
          3   -1    0    0  501    0  0.00000000000E+00 -0.00000000000E+00 -0.52898187678E+02  0.52898269429E+02  0.93000000000E-01 0.  1.
       1023    2    1    2    0    0  0.00000000000E+00  0.00000000000E+00 -0.51008561847E+02  0.54790182425E+02  0.20002267583E+02 0.  0.
        -11    1    3    3    0    0 -0.84669962323E+00  0.99651879596E+01 -0.25426537263E+02  0.27322713423E+02  0.51100000000E-03 0. -1.
         11    1    3    3    0    0  0.84669962323E+00 -0.99651879596E+01 -0.25582024584E+02  0.27467469002E+02  0.51100000000E-03 0.  1.
<mgrwt>
<rscale>  0 0.20002268E+02</rscale>
<asrwt>0</asrwt>
<pdfrwt beam="2">  1        3 0.81383638E-02 0.20002268E+02</pdfrwt>
<pdfrwt beam="1">  1       -3 0.29089393E-03 0.20002268E+02</pdfrwt>
<totfact> 0.15976615E+06</totfact>
</mgrwt>
</event>
<event>
 5    1  0.4133473E-007  0.2000043E+02  0.7818608E-02  0.1745320E+00
          3   -1    0    0  501    0  0.00000000000E+00  0.00000000000E+00  0.10756164867E+02  0.10756566908E+02  0.93000000000E-01 0.  1.
         -3   -1    0    0    0  501 -0.00000000000E+00 -0.00000000000E+00 -0.92965846273E+01  0.92970497865E+01  0.93000000000E-01 0. -1.
       1023    2    1    2    0    0  0.00000000000E+00  0.00000000000E+00  0.14595802398E+01  0.20053616695E+02  0.20000429197E+02 0.  0.
        -11    1    3    3    0    0 -0.96995899039E+01  0.24328524205E+01  0.78890918774E+00  0.10031111263E+02  0.51100000000E-03 0. -1.
         11    1    3    3    0    0  0.96995899039E+01 -0.24328524205E+01  0.67067105209E+00  0.10022505432E+02  0.51100000000E-03 0.  1.
<mgrwt>
<rscale>  0 0.20000429E+02</rscale>
<asrwt>0</asrwt>
<pdfrwt beam="1">  1        3 0.16548613E-02 0.20000429E+02</pdfrwt>
<pdfrwt beam="2">  1       -3 0.14303105E-02 0.20000429E+02</pdfrwt>
<totfact> 0.17881251E+06</totfact>
</mgrwt>
</event>
<event>
 5    1  0.4133473E-007  0.2000045E+02  0.7818608E-02  0.1745319E+00
         -3   -1    0    0    0  501 -0.00000000000E+00  0.00000000000E+00  0.51956425745E+02  0.51956508978E+02  0.93000000000E-01 0. -1.
          3   -1    0    0  501    0  0.00000000000E+00 -0.00000000000E+00 -0.19235673657E+01  0.19258142201E+01  0.93000000000E-01 0.  1.
       1023    2    1    2    0    0  0.00000000000E+00  0.00000000000E+00  0.50032858379E+02  0.53882323198E+02  0.20000445886E+02 0.  0.
        -11    1    3    3    0    0  0.83181090743E+01  0.55506460243E+01  0.25183564652E+02  0.27096356558E+02  0.51100000000E-03 0. -1.
         11    1    3    3    0    0 -0.83181090743E+01 -0.55506460243E+01  0.24849293727E+02  0.26785966640E+02  0.51100000000E-03 0.  1.
<mgrwt>
<rscale>  0 0.20000446E+02</rscale>
<asrwt>0</asrwt>
<pdfrwt beam="2">  1        3 0.29611265E-03 0.20000446E+02</pdfrwt>
<pdfrwt beam="1">  1       -3 0.79934762E-02 0.20000446E+02</pdfrwt>
<totfact> 0.16024673E+06</totfact>
</mgrwt>
</event>
<event>
 5    1  0.4133473E-007  0.2000030E+02  0.7818608E-02  0.1745322E+00
          3   -1    0    0  501    0  0.00000000000E+00  0.00000000000E+00  0.27290516240E+02  0.27290674701E+02  0.93000000000E-01 0.  1.
         -3   -1    0    0    0  501 -0.00000000000E+00 -0.00000000000E+00 -0.36636263686E+01  0.36648065663E+01  0.93000000000E-01 0. -1.
       1023    2    1    2    0    0  0.00000000000E+00  0.00000000000E+00  0.23626889871E+02  0.30955481267E+02  0.20000297385E+02 0.  0.
        -11    1    3    3    0    0 -0.72945850512E+01 -0.68404243177E+01  0.11775605687E+02  0.15448859682E+02  0.51100000000E-03 0. -1.
         11    1    3    3    0    0  0.72945850512E+01  0.68404243177E+01  0.11851284184E+02  0.15506621585E+02  0.51100000000E-03 0.  1.
<mgrwt>
<rscale>  0 0.20000297E+02</rscale>
<asrwt>0</asrwt>
<pdfrwt beam="1">  1        3 0.41986440E-02 0.20000297E+02</pdfrwt>
<pdfrwt beam="2">  1       -3 0.56373780E-03 0.20000297E+02</pdfrwt>
<totfact> 0.17210400E+06</totfact>
</mgrwt>
</event>
<event>
 5    1  0.4181179E-007  0.2000106E+02  0.7818608E-02  0.1745307E+00
         -3   -1    0    0    0  501 -0.00000000000E+00  0.00000000000E+00  0.39983123748E+01  0.39993938099E+01  0.93000000000E-01 0.  1.
          3   -1    0    0  501    0  0.00000000000E+00 -0.00000000000E+00 -0.25008663735E+02  0.25008836655E+02  0.93000000000E-01 0. -1.
       1023    2    1    2    0    0  0.00000000000E+00  0.00000000000E+00 -0.21010351360E+02  0.29008230465E+02  0.20001064232E+02 0.  0.
        -11    1    3    3    0    0 -0.36617167404E+01  0.93060165285E+01 -0.10471811000E+02  0.14479949551E+02  0.51100000000E-03 0. -1.
         11    1    3    3    0    0  0.36617167404E+01 -0.93060165285E+01 -0.10538540361E+02  0.14528280914E+02  0.51100000000E-03 0.  1.
<mgrwt>
<rscale>  0 0.20001064E+02</rscale>
<asrwt>0</asrwt>
<pdfrwt beam="2">  1        3 0.38475831E-02 0.20001064E+02</pdfrwt>
<pdfrwt beam="1">  1       -3 0.61522149E-03 0.20001064E+02</pdfrwt>
<totfact> 0.17322601E+06</totfact>
</mgrwt>
</event>
<event>
 5    1  0.4219501E-007  0.2000095E+02  0.7818608E-02  0.1745309E+00
          3   -1    0    0  501    0  0.00000000000E+00  0.00000000000E+00  0.17316848653E+02  0.17317098380E+02  0.93000000000E-01 0. -1.
         -3   -1    0    0    0  501 -0.00000000000E+00 -0.00000000000E+00 -0.57746084549E+01  0.57753572883E+01  0.93000000000E-01 0.  1.
       1023    2    1    2    0    0  0.00000000000E+00  0.00000000000E+00  0.11542240199E+02  0.23092455668E+02  0.20000954976E+02 0.  0.
        -11    1    3    3    0    0 -0.42091976411E+01 -0.90709895957E+01  0.58827776146E+01  0.11602037310E+02  0.51100000000E-03 0. -1.
         11    1    3    3    0    0  0.42091976411E+01  0.90709895957E+01  0.56594625840E+01  0.11490418357E+02  0.51100000000E-03 0.  1.
<mgrwt>
<rscale>  0 0.20000955E+02</rscale>
<asrwt>0</asrwt>
<pdfrwt beam="1">  1        3 0.26642073E-02 0.20000955E+02</pdfrwt>
<pdfrwt beam="2">  1       -3 0.88847814E-03 0.20000955E+02</pdfrwt>
<totfact> 0.17684041E+06</totfact>
</mgrwt>
</event>
<event>
 5    1  0.4133473E-007  0.2000313E+02  0.7818608E-02  0.1745266E+00
          3   -1    0    0  501    0  0.00000000000E+00  0.00000000000E+00  0.81835577598E+02  0.81835630442E+02  0.93000000000E-01 0. -1.
         -3   -1    0    0    0  501 -0.00000000000E+00 -0.00000000000E+00 -0.12205224088E+01  0.12240604357E+01  0.93000000000E-01 0.  1.
       1023    2    1    2    0    0  0.00000000000E+00  0.00000000000E+00  0.80615055189E+02  0.83059690877E+02  0.20003127893E+02 0.  0.
        -11    1    3    3    0    0 -0.99808698153E+01  0.63702719261E+00  0.39942802197E+02  0.41175854740E+02  0.51100000000E-03 0.  1.
         11    1    3    3    0    0  0.99808698153E+01 -0.63702719261E+00  0.40672252992E+02  0.41883836138E+02  0.51100000000E-03 0. -1.
<mgrwt>
<rscale>  0 0.20003128E+02</rscale>
<asrwt>0</asrwt>
<pdfrwt beam="1">  1        3 0.12590366E-01 0.20003128E+02</pdfrwt>
<pdfrwt beam="2">  1       -3 0.18804889E-03 0.20003128E+02</pdfrwt>
<totfact> 0.14788660E+06</totfact>
</mgrwt>
</event>
<event>
 5    1  0.4133473E-007  0.2000019E+02  0.7818608E-02  0.1745324E+00
         -3   -1    0    0    0  501 -0.00000000000E+00  0.00000000000E+00  0.33045166617E+01  0.33058250661E+01  0.93000000000E-01 0.  1.
          3   -1    0    0  501    0  0.00000000000E+00 -0.00000000000E+00 -0.30254827136E+02  0.30254970072E+02  0.93000000000E-01 0. -1.
       1023    2    1    2    0    0  0.00000000000E+00  0.00000000000E+00 -0.26950310474E+02  0.33560795138E+02  0.20000193389E+02 0.  0.
        -11    1    3    3    0    0 -0.79381998219E+01  0.60815809030E+01 -0.13414864238E+02  0.16731982115E+02  0.51100000000E-03 0.  1.
         11    1    3    3    0    0  0.79381998219E+01 -0.60815809030E+01 -0.13535446236E+02  0.16828813023E+02  0.51100000000E-03 0. -1.
<mgrwt>
<rscale>  0 0.20000193E+02</rscale>
<asrwt>0</asrwt>
<pdfrwt beam="2">  1        3 0.46547003E-02 0.20000193E+02</pdfrwt>
<pdfrwt beam="1">  1       -3 0.50849884E-03 0.20000193E+02</pdfrwt>
<totfact> 0.17062011E+06</totfact>
</mgrwt>
</event>
<event>
 5    1  0.4133473E-007  0.2000370E+02  0.7818608E-02  0.1745254E+00
         -3   -1    0    0    0  501 -0.00000000000E+00  0.00000000000E+00  0.26680952741E+01  0.26697156013E+01  0.93000000000E-01 0. -1.
          3   -1    0    0  501    0  0.00000000000E+00 -0.00000000000E+00 -0.37480733868E+02  0.37480849247E+02  0.93000000000E-01 0.  1.
       1023    2    1    2    0    0  0.00000000000E+00  0.00000000000E+00 -0.34812638594E+02  0.40150564849E+02  0.20003700952E+02 0.  0.
        -11    1    3    3    0    0  0.50964501441E+01 -0.86039067614E+01 -0.17025503650E+02  0.19745095351E+02  0.51100000000E-03 0.  1.
         11    1    3    3    0    0 -0.50964501441E+01  0.86039067614E+01 -0.17787134944E+02  0.20405469497E+02  0.51100000000E-03 0. -1.
<mgrwt>
<rscale>  0 0.20003701E+02</rscale>
<asrwt>0</asrwt>
<pdfrwt beam="2">  1        3 0.57663999E-02 0.20003701E+02</pdfrwt>
<pdfrwt beam="1">  1       -3 0.41060974E-03 0.20003701E+02</pdfrwt>
<totfact> 0.16697243E+06</totfact>
</mgrwt>
</event>
<event>
 4    1  0.4133473E-007  0.2009631E+02  0.7818608E-02  0.1743420E+00
         -3   -1    0    0    0  501 -0.00000000000E+00  0.00000000000E+00  0.10941238882E+02  0.10941634122E+02  0.93000000000E-01 0.  1.
          3   -1    0    0  501    0  0.00000000000E+00 -0.00000000000E+00 -0.92271700508E+01  0.92276387092E+01  0.93000000000E-01 0. -1.
        -11    1    1    2    0    0 -0.32705706920E+01  0.94719868475E+01  0.11257579810E+00  0.10021369221E+02  0.51100000000E-03 0.  1.
         11    1    1    2    0    0  0.32705706920E+01 -0.94719868475E+01  0.16014930326E+01  0.10147903610E+02  0.51100000000E-03 0. -1.
<mgrwt>
<rscale>  0 0.20096306E+02</rscale>
<asrwt>0</asrwt>
<pdfrwt beam="2">  1        3 0.14196311E-02 0.20096306E+02</pdfrwt>
<pdfrwt beam="1">  1       -3 0.16833340E-02 0.20096306E+02</pdfrwt>
<totfact> 0.17690478E+06</totfact>
</mgrwt>
</event>
<event>
 5    1  0.4133473E-007  0.2000126E+02  0.7818608E-02  0.1745303E+00
         -3   -1    0    0    0  501 -0.00000000000E+00  0.00000000000E+00  0.90195622240E+02  0.90195670185E+02  0.93000000000E-01 0. -1.
          3   -1    0    0  501    0  0.00000000000E+00 -0.00000000000E+00 -0.11068430851E+01  0.11107432714E+01  0.93000000000E-01 0.  1.
       1023    2    1    2    0    0  0.00000000000E+00  0.00000000000E+00  0.89088779155E+02  0.91306413457E+02  0.20001264138E+02 0.  0.
        -11    1    3    3    0    0  0.78504563439E+01  0.61953858574E+01  0.44484731473E+02  0.45594997589E+02  0.51100000000E-03 0. -1.
         11    1    3    3    0    0 -0.78504563439E+01 -0.61953858574E+01  0.44604047682E+02  0.45711415867E+02  0.51100000000E-03 0.  1.
<mgrwt>
<rscale>  0 0.20001264E+02</rscale>
<asrwt>0</asrwt>
<pdfrwt beam="2">  1        3 0.17058730E-03 0.20001264E+02</pdfrwt>
<pdfrwt beam="1">  1       -3 0.13876549E-01 0.20001264E+02</pdfrwt>
<totfact> 0.14487366E+06</totfact>
</mgrwt>
</event>
<event>
 5    1  0.4133473E-007  0.2000075E+02  0.7818608E-02  0.1745313E+00
          3   -1    0    0  501    0  0.00000000000E+00  0.00000000000E+00  0.20920238112E+01  0.20940899281E+01  0.93000000000E-01 0. -1.
         -3   -1    0    0    0  501 -0.00000000000E+00 -0.00000000000E+00 -0.47778463525E+02  0.47778554036E+02  0.93000000000E-01 0.  1.
       1023    2    1    2    0    0  0.00000000000E+00  0.00000000000E+00 -0.45686439713E+02  0.49872643964E+02  0.20000746043E+02 0.  0.
        -11    1    3    3    0    0  0.54837764606E+01  0.83624980980E+01 -0.22680057753E+02  0.24786855360E+02  0.51100000000E-03 0. -1.
         11    1    3    3    0    0 -0.54837764606E+01 -0.83624980980E+01 -0.23006381961E+02  0.25085788604E+02  0.51100000000E-03 0.  1.
<mgrwt>
<rscale>  0 0.20000746E+02</rscale>
<asrwt>0</asrwt>
<pdfrwt beam="1">  1        3 0.32201575E-03 0.20000746E+02</pdfrwt>
<pdfrwt beam="2">  1       -3 0.73506979E-02 0.20000746E+02</pdfrwt>
<totfact> 0.16214607E+06</totfact>
</mgrwt>
</event>
<event>
 5    1  0.4133473E-007  0.2000013E+02  0.7818608E-02  0.1745326E+00
          3   -1    0    0  501    0  0.00000000000E+00  0.00000000000E+00  0.46696405606E+01  0.46705665572E+01  0.93000000000E-01 0. -1.
         -3   -1    0    0    0  501 -0.00000000000E+00 -0.00000000000E+00 -0.21412046905E+02  0.21412248870E+02  0.93000000000E-01 0.  1.
       1023    2    1    2    0    0  0.00000000000E+00  0.00000000000E+00 -0.16742406344E+02  0.26082815427E+02  0.20000127259E+02 0.  0.
        -11    1    3    3    0    0 -0.98886339676E+01  0.14885367223E+01 -0.83435685167E+01  0.13023669190E+02  0.51100000000E-03 0.  1.
         11    1    3    3    0    0  0.98886339676E+01 -0.14885367223E+01 -0.83988378275E+01  0.13059146237E+02  0.51100000000E-03 0. -1.
<mgrwt>
<rscale>  0 0.20000127E+02</rscale>
<asrwt>0</asrwt>
<pdfrwt beam="1">  1        3 0.71849302E-03 0.20000127E+02</pdfrwt>
<pdfrwt beam="2">  1       -3 0.32942478E-02 0.20000127E+02</pdfrwt>
<totfact> 0.17501191E+06</totfact>
</mgrwt>
</event>
<event>
 5    1  0.4133473E-007  0.2000072E+02  0.7818608E-02  0.1745314E+00
         -3   -1    0    0    0  501 -0.00000000000E+00  0.00000000000E+00  0.79137003195E+02  0.79137057841E+02  0.93000000000E-01 0. -1.
          3   -1    0    0  501    0  0.00000000000E+00 -0.00000000000E+00 -0.12619556589E+01  0.12653778428E+01  0.93000000000E-01 0.  1.
       1023    2    1    2    0    0  0.00000000000E+00  0.00000000000E+00  0.77875047536E+02  0.80402435684E+02  0.20000715865E+02 0.  0.
        -11    1    3    3    0    0 -0.12534074425E+01  0.99212139259E+01  0.38635555895E+02  0.39908742094E+02  0.51100000000E-03 0. -1.
         11    1    3    3    0    0  0.12534074425E+01 -0.99212139259E+01  0.39239491641E+02  0.40493693589E+02  0.51100000000E-03 0.  1.
<mgrwt>
<rscale>  0 0.20000716E+02</rscale>
<asrwt>0</asrwt>
<pdfrwt beam="2">  1        3 0.19441449E-03 0.20000716E+02</pdfrwt>
<pdfrwt beam="1">  1       -3 0.12175190E-01 0.20000716E+02</pdfrwt>
<totfact> 0.14897562E+06</totfact>
</mgrwt>
</event>
<event>
 5    1  0.4133473E-007  0.2000867E+02  0.7818608E-02  0.1745156E+00
         -3   -1    0    0    0  501 -0.00000000000E+00  0.00000000000E+00  0.65985489778E+01  0.65992043166E+01  0.93000000000E-01 0. -1.
          3   -1    0    0  501    0  0.00000000000E+00 -0.00000000000E+00 -0.15166437608E+02  0.15166722742E+02  0.93000000000E-01 0.  1.
       1023    2    1    2    0    0  0.00000000000E+00  0.00000000000E+00 -0.85678886304E+01  0.21765927058E+02  0.20008669749E+02 0.  0.
        -11    1    3    3    0    0 -0.99976120146E+01 -0.22968056563E+00 -0.39729769619E+01  0.10760555067E+02  0.51100000000E-03 0.  1.
         11    1    3    3    0    0  0.99976120146E+01  0.22968056563E+00 -0.45949116685E+01  0.11005371991E+02  0.51100000000E-03 0. -1.
<mgrwt>
<rscale>  0 0.20008670E+02</rscale>
<asrwt>0</asrwt>
<pdfrwt beam="2">  1        3 0.23333704E-02 0.20008670E+02</pdfrwt>
<pdfrwt beam="1">  1       -3 0.10152337E-02 0.20008670E+02</pdfrwt>
<totfact> 0.17753893E+06</totfact>
</mgrwt>
</event>
<event>
 5    1  0.4236321E-007  0.2000191E+02  0.7818608E-02  0.1745290E+00
         -3   -1    0    0    0  501 -0.00000000000E+00  0.00000000000E+00  0.69956730566E+01  0.69962911971E+01  0.93000000000E-01 0. -1.
          3   -1    0    0  501    0  0.00000000000E+00 -0.00000000000E+00 -0.14295878460E+02  0.14296180957E+02  0.93000000000E-01 0.  1.
       1023    2    1    2    0    0  0.00000000000E+00  0.00000000000E+00 -0.73002054034E+01  0.21292472154E+02  0.20001909196E+02 0.  0.
        -11    1    3    3    0    0  0.96813909105E+01 -0.25073660360E+01 -0.37072131889E+01  0.10665816625E+02  0.51100000000E-03 0. -1.
         11    1    3    3    0    0 -0.96813909105E+01  0.25073660360E+01 -0.35929922146E+01  0.10626655528E+02  0.51100000000E-03 0.  1.
<mgrwt>
<rscale>  0 0.20001909E+02</rscale>
<asrwt>0</asrwt>
<pdfrwt beam="2">  1        3 0.21994367E-02 0.20001909E+02</pdfrwt>
<pdfrwt beam="1">  1       -3 0.10763282E-02 0.20001909E+02</pdfrwt>
<totfact> 0.17797393E+06</totfact>
</mgrwt>
</event>
<event>
 5    1  0.4133473E-007  0.2000099E+02  0.7818608E-02  0.1745308E+00
          3   -1    0    0  501    0  0.00000000000E+00  0.00000000000E+00  0.91205907881E+00  0.91678828703E+00  0.93000000000E-01 0. -1.
         -3   -1    0    0    0  501 -0.00000000000E+00 -0.00000000000E+00 -0.10936461025E+03  0.10936464979E+03  0.93000000000E-01 0.  1.
       1023    2    1    2    0    0  0.00000000000E+00  0.00000000000E+00 -0.10845255117E+03  0.11028143807E+03  0.20000993206E+02 0.  0.
        -11    1    3    3    0    0 -0.58723277098E+01 -0.80943434373E+01 -0.53755059234E+02  0.54677317253E+02  0.51100000000E-03 0.  1.
         11    1    3    3    0    0  0.58723277098E+01  0.80943434373E+01 -0.54697491933E+02  0.55604120822E+02  0.51100000000E-03 0. -1.
<mgrwt>
<rscale>  0 0.20000993E+02</rscale>
<asrwt>0</asrwt>
<pdfrwt beam="1">  1        3 0.14068369E-03 0.20000993E+02</pdfrwt>
<pdfrwt beam="2">  1       -3 0.16825681E-01 0.20000993E+02</pdfrwt>
<totfact> 0.13833025E+06</totfact>
</mgrwt>
</event>
<event>
 5    1  0.4133473E-007  0.2000068E+02  0.7818608E-02  0.1745315E+00
         -3   -1    0    0    0  501 -0.00000000000E+00  0.00000000000E+00  0.44254060271E+01  0.44263831177E+01  0.93000000000E-01 0. -1.
          3   -1    0    0  501    0  0.00000000000E+00 -0.00000000000E+00 -0.22594764841E+02  0.22594956235E+02  0.93000000000E-01 0.  1.
       1023    2    1    2    0    0  0.00000000000E+00  0.00000000000E+00 -0.18169358814E+02  0.27021339352E+02  0.20000679505E+02 0.  0.
        -11    1    3    3    0    0  0.22293358701E+01  0.97486531818E+01 -0.91182550218E+01  0.13533246181E+02  0.51100000000E-03 0. -1.
         11    1    3    3    0    0 -0.22293358701E+01 -0.97486531818E+01 -0.90511037925E+01  0.13488093172E+02  0.51100000000E-03 0.  1.
<mgrwt>
<rscale>  0 0.20000680E+02</rscale>
<asrwt>0</asrwt>
<pdfrwt beam="2">  1        3 0.34762075E-02 0.20000680E+02</pdfrwt>
<pdfrwt beam="1">  1       -3 0.68092160E-03 0.20000680E+02</pdfrwt>
<totfact> 0.17441886E+06</totfact>
</mgrwt>
</event>
<event>
 5    1  0.4170550E-007  0.2000224E+02  0.7818608E-02  0.1745283E+00
          3   -1    0    0  501    0  0.00000000000E+00  0.00000000000E+00  0.41846457394E+02  0.41846560736E+02  0.93000000000E-01 0. -1.
         -3   -1    0    0    0  501 -0.00000000000E+00 -0.00000000000E+00 -0.23892134221E+01  0.23910227470E+01  0.93000000000E-01 0.  1.
       1023    2    1    2    0    0  0.00000000000E+00  0.00000000000E+00  0.39457243972E+02  0.44237583483E+02  0.20002242138E+02 0.  0.
        -11    1    3    3    0    0 -0.68045714119E+01 -0.73285685582E+01  0.19974034994E+02  0.22337685275E+02  0.51100000000E-03 0. -1.
         11    1    3    3    0    0  0.68045714119E+01  0.73285685582E+01  0.19483208978E+02  0.21899898208E+02  0.51100000000E-03 0.  1.
<mgrwt>
<rscale>  0 0.20002242E+02</rscale>
<asrwt>0</asrwt>
<pdfrwt beam="1">  1        3 0.64380634E-02 0.20002242E+02</pdfrwt>
<pdfrwt beam="2">  1       -3 0.36771844E-03 0.20002242E+02</pdfrwt>
<totfact> 0.16488558E+06</totfact>
</mgrwt>
</event>
<event>
 5    1  0.4133473E-007  0.2000102E+02  0.7818608E-02  0.1745308E+00
          3   -1    0    0  501    0  0.00000000000E+00  0.00000000000E+00  0.11440552917E+03  0.11440556697E+03  0.93000000000E-01 0.  1.
         -3   -1    0    0    0  501 -0.00000000000E+00 -0.00000000000E+00 -0.87166164255E+00  0.87660881760E+00  0.93000000000E-01 0. -1.
       1023    2    1    2    0    0  0.00000000000E+00  0.00000000000E+00  0.11353386752E+03  0.11528217578E+03  0.20001024437E+02 0.  0.
        -11    1    3    3    0    0 -0.64807855514E+01  0.76163617449E+01  0.56614789436E+02  0.57491250906E+02  0.51100000000E-03 0.  1.
         11    1    3    3    0    0  0.64807855514E+01 -0.76163617449E+01  0.56919078088E+02  0.57790924878E+02  0.51100000000E-03 0. -1.
<mgrwt>
<rscale>  0 0.20001024E+02</rscale>
<asrwt>0</asrwt>
<pdfrwt beam="1">  1        3 0.17601221E-01 0.20001024E+02</pdfrwt>
<pdfrwt beam="2">  1       -3 0.13448535E-03 0.20001024E+02</pdfrwt>
<totfact> 0.13668463E+06</totfact>
</mgrwt>
</event>
<event>
 5    1  0.4133473E-007  0.2000039E+02  0.7818608E-02  0.1745320E+00
          3   -1    0    0  501    0  0.00000000000E+00  0.00000000000E+00  0.35027295347E+02  0.35027418807E+02  0.93000000000E-01 0. -1.
         -3   -1    0    0    0  501 -0.00000000000E+00 -0.00000000000E+00 -0.28541407727E+01  0.28556555378E+01  0.93000000000E-01 0.  1.
       1023    2    1    2    0    0  0.00000000000E+00  0.00000000000E+00  0.32173154574E+02  0.37883074345E+02  0.20000386161E+02 0.  0.
        -11    1    3    3    0    0  0.99892528226E+01 -0.46764127019E+00  0.16084611122E+02  0.18939867358E+02  0.51100000000E-03 0. -1.
         11    1    3    3    0    0 -0.99892528226E+01  0.46764127019E+00  0.16088543452E+02  0.18943206988E+02  0.51100000000E-03 0.  1.
<mgrwt>
<rscale>  0 0.20000386E+02</rscale>
<asrwt>0</asrwt>
<pdfrwt beam="1">  1        3 0.53889408E-02 0.20000386E+02</pdfrwt>
<pdfrwt beam="2">  1       -3 0.43922459E-03 0.20000386E+02</pdfrwt>
<totfact> 0.16823939E+06</totfact>
</mgrwt>
</event>
<event>
 5    1  0.4133473E-007  0.2000176E+02  0.7818608E-02  0.1745293E+00
          3   -1    0    0  501    0  0.00000000000E+00  0.00000000000E+00  0.17212225982E+01  0.17237332254E+01  0.93000000000E-01 0. -1.
         -3   -1    0    0    0  501 -0.00000000000E+00 -0.00000000000E+00 -0.58063578060E+02  0.58063652539E+02  0.93000000000E-01 0.  1.
       1023    2    1    2    0    0  0.00000000000E+00  0.00000000000E+00 -0.56342355462E+02  0.59787385764E+02  0.20001761860E+02 0.  0.
        -11    1    3    3    0    0  0.68182927776E+00 -0.99775823729E+01 -0.28099318112E+02  0.29825973912E+02  0.51100000000E-03 0. -1.
         11    1    3    3    0    0 -0.68182927776E+00  0.99775823729E+01 -0.28243037350E+02  0.29961411852E+02  0.51100000000E-03 0.  1.
<mgrwt>
<rscale>  0 0.20001762E+02</rscale>
<asrwt>0</asrwt>
<pdfrwt beam="1">  1        3 0.26500238E-03 0.20001762E+02</pdfrwt>
<pdfrwt beam="2">  1       -3 0.89330555E-02 0.20001762E+02</pdfrwt>
<totfact> 0.15752920E+06</totfact>
</mgrwt>
</event>
<event>
 5    1  0.4133473E-007  0.2000149E+02  0.7818608E-02  0.1745298E+00
          3   -1    0    0  501    0  0.00000000000E+00  0.00000000000E+00  0.16816295049E+01  0.16841991544E+01  0.93000000000E-01 0. -1.
         -3   -1    0    0    0  501 -0.00000000000E+00 -0.00000000000E+00 -0.59426977979E+02  0.59427050749E+02  0.93000000000E-01 0.  1.
       1023    2    1    2    0    0  0.00000000000E+00  0.00000000000E+00 -0.57745348474E+02  0.61111249903E+02  0.20001489803E+02 0.  0.
        -11    1    3    3    0    0  0.85001916446E+01 -0.52677302479E+01 -0.29216428194E+02  0.30880445538E+02  0.51100000000E-03 0. -1.
         11    1    3    3    0    0 -0.85001916446E+01  0.52677302479E+01 -0.28528920280E+02  0.30230804365E+02  0.51100000000E-03 0.  1.
<mgrwt>
<rscale>  0 0.20001490E+02</rscale>
<asrwt>0</asrwt>
<pdfrwt beam="1">  1        3 0.25891554E-03 0.20001490E+02</pdfrwt>
<pdfrwt beam="2">  1       -3 0.91428136E-02 0.20001490E+02</pdfrwt>
<totfact> 0.15694490E+06</totfact>
</mgrwt>
</event>
<event>
 5    1  0.4133473E-007  0.2000223E+02  0.7818608E-02  0.1745284E+00
         -3   -1    0    0    0  501 -0.00000000000E+00  0.00000000000E+00  0.75686220787E+02  0.75686277924E+02  0.93000000000E-01 0.  1.
          3   -1    0    0  501    0  0.00000000000E+00 -0.00000000000E+00 -0.13198456573E+01  0.13231181199E+01  0.93000000000E-01 0. -1.
       1023    2    1    2    0    0  0.00000000000E+00  0.00000000000E+00  0.74366375130E+02  0.77009396044E+02  0.20002233104E+02 0.  0.
        -11    1    3    3    0    0 -0.91823465504E+01 -0.39612467054E+01  0.36705900739E+02  0.38043792042E+02  0.51100000000E-03 0.  1.
         11    1    3    3    0    0  0.91823465504E+01  0.39612467054E+01  0.37660474391E+02  0.38965604002E+02  0.51100000000E-03 0. -1.
<mgrwt>
<rscale>  0 0.20002233E+02</rscale>
<asrwt>0</asrwt>
<pdfrwt beam="2">  1        3 0.20330928E-03 0.20002233E+02</pdfrwt>
<pdfrwt beam="1">  1       -3 0.11644291E-01 0.20002233E+02</pdfrwt>
<totfact> 0.15028070E+06</totfact>
</mgrwt>
</event>
<event>
 5    1  0.4133473E-007  0.2000037E+02  0.7818608E-02  0.1745321E+00
          3   -1    0    0  501    0  0.00000000000E+00  0.00000000000E+00  0.16088890559E+01  0.16115746940E+01  0.93000000000E-01 0. -1.
         -3   -1    0    0    0  501 -0.00000000000E+00 -0.00000000000E+00 -0.62102428999E+02  0.62102498634E+02  0.93000000000E-01 0.  1.
       1023    2    1    2    0    0  0.00000000000E+00  0.00000000000E+00 -0.60493539943E+02  0.63714073328E+02  0.20000369126E+02 0.  0.
        -11    1    3    3    0    0 -0.68079359792E+01  0.73250049066E+01 -0.30242427886E+02  0.31852914057E+02  0.51100000000E-03 0.  1.
         11    1    3    3    0    0  0.68079359792E+01 -0.73250049066E+01 -0.30251112056E+02  0.31861159271E+02  0.51100000000E-03 0. -1.
<mgrwt>
<rscale>  0 0.20000369E+02</rscale>
<asrwt>0</asrwt>
<pdfrwt beam="1">  1        3 0.24773339E-03 0.20000369E+02</pdfrwt>
<pdfrwt beam="2">  1       -3 0.95544299E-02 0.20000369E+02</pdfrwt>
<totfact> 0.15582259E+06</totfact>
</mgrwt>
</event>
<event>
 5    1  0.4133473E-007  0.2000064E+02  0.7818608E-02  0.1745315E+00
          3   -1    0    0  501    0  0.00000000000E+00  0.00000000000E+00  0.18544069189E+02  0.18544302388E+02  0.93000000000E-01 0. -1.
         -3   -1    0    0    0  501 -0.00000000000E+00 -0.00000000000E+00 -0.53922368696E+01  0.53930387963E+01  0.93000000000E-01 0.  1.
       1023    2    1    2    0    0  0.00000000000E+00  0.00000000000E+00  0.13151832319E+02  0.23937341185E+02  0.20000640231E+02 0.  0.
        -11    1    3    3    0    0  0.75972930853E+01  0.65025913054E+01  0.65016911453E+01  0.11927889332E+02  0.51100000000E-03 0. -1.
         11    1    3    3    0    0 -0.75972930853E+01 -0.65025913054E+01  0.66501411737E+01  0.12009451853E+02  0.51100000000E-03 0.  1.
<mgrwt>
<rscale>  0 0.20000640E+02</rscale>
<asrwt>0</asrwt>
<pdfrwt beam="1">  1        3 0.28530133E-02 0.20000640E+02</pdfrwt>
<pdfrwt beam="2">  1       -3 0.82965453E-03 0.20000640E+02</pdfrwt>
<totfact> 0.17631528E+06</totfact>
</mgrwt>
</event>
<event>
 5    1  0.4133473E-007  0.2000587E+02  0.7818608E-02  0.1745211E+00
          3   -1    0    0  501    0  0.00000000000E+00  0.00000000000E+00  0.10009322097E+02  0.10009754135E+02  0.93000000000E-01 0. -1.
         -3   -1    0    0    0  501 -0.00000000000E+00 -0.00000000000E+00 -0.99956855205E+01  0.99961181478E+01  0.93000000000E-01 0.  1.
       1023    2    1    2    0    0  0.00000000000E+00  0.00000000000E+00  0.13636576122E-01  0.20005872282E+02  0.20005867635E+02 0.  0.
        -11    1    3    3    0    0  0.16735478793E+01 -0.98599281236E+01 -0.19252966196E+00  0.10002800260E+02  0.51100000000E-03 0. -1.
         11    1    3    3    0    0 -0.16735478793E+01  0.98599281236E+01  0.20616623808E+00  0.10003072022E+02  0.51100000000E-03 0.  1.
<mgrwt>
<rscale>  0 0.20005868E+02</rscale>
<asrwt>0</asrwt>
<pdfrwt beam="1">  1        3 0.15399622E-02 0.20005868E+02</pdfrwt>
<pdfrwt beam="2">  1       -3 0.15378643E-02 0.20005868E+02</pdfrwt>
<totfact> 0.17873940E+06</totfact>
</mgrwt>
</event>
<event>
 5    1  0.4133473E-007  0.2000062E+02  0.7818608E-02  0.1745316E+00
         -3   -1    0    0    0  501 -0.00000000000E+00  0.00000000000E+00  0.62320312907E+01  0.62327251671E+01  0.93000000000E-01 0.  1.
          3   -1    0    0  501    0  0.00000000000E+00 -0.00000000000E+00 -0.16045403138E+02  0.16045672652E+02  0.93000000000E-01 0. -1.
       1023    2    1    2    0    0  0.00000000000E+00  0.00000000000E+00 -0.98133718472E+01  0.22278397819E+02  0.20000618550E+02 0.  0.
        -11    1    3    3    0    0 -0.88970468783E+01  0.45659099926E+01 -0.49454023422E+01  0.11156253036E+02  0.51100000000E-03 0. -1.
         11    1    3    3    0    0  0.88970468783E+01 -0.45659099926E+01 -0.48679695049E+01  0.11122144783E+02  0.51100000000E-03 0.  1.
<mgrwt>
<rscale>  0 0.20000619E+02</rscale>
<asrwt>0</asrwt>
<pdfrwt beam="2">  1        3 0.24685977E-02 0.20000619E+02</pdfrwt>
<pdfrwt beam="1">  1       -3 0.95884815E-03 0.20000619E+02</pdfrwt>
<totfact> 0.17736460E+06</totfact>
</mgrwt>
</event>
<event>
 5    1  0.4256237E-007  0.2000221E+02  0.7818608E-02  0.1745284E+00
         -3   -1    0    0    0  501 -0.00000000000E+00  0.00000000000E+00  0.65035946049E+01  0.65042595109E+01  0.93000000000E-01 0. -1.
          3   -1    0    0  501    0  0.00000000000E+00 -0.00000000000E+00 -0.15377911705E+02  0.15378192917E+02  0.93000000000E-01 0.  1.
       1023    2    1    2    0    0  0.00000000000E+00  0.00000000000E+00 -0.88743171000E+01  0.21882452428E+02  0.20002205386E+02 0.  0.
        -11    1    3    3    0    0 -0.88873319708E+01 -0.45846827730E+01 -0.45842158680E+01  0.11000864560E+02  0.51100000000E-03 0. -1.
         11    1    3    3    0    0  0.88873319708E+01  0.45846827730E+01 -0.42901012320E+01  0.10881587868E+02  0.51100000000E-03 0.  1.
<mgrwt>
<rscale>  0 0.20002205E+02</rscale>
<asrwt>0</asrwt>
<pdfrwt beam="2">  1        3 0.23659053E-02 0.20002205E+02</pdfrwt>
<pdfrwt beam="1">  1       -3 0.10006258E-02 0.20002205E+02</pdfrwt>
<totfact> 0.17758769E+06</totfact>
</mgrwt>
</event>
<event>
 5    1  0.4133473E-007  0.2000033E+02  0.7818608E-02  0.1745321E+00
          3   -1    0    0  501    0  0.00000000000E+00  0.00000000000E+00  0.47626906611E+02  0.47626997410E+02  0.93000000000E-01 0. -1.
         -3   -1    0    0    0  501 -0.00000000000E+00 -0.00000000000E+00 -0.20986006898E+01  0.21006603379E+01  0.93000000000E-01 0.  1.
       1023    2    1    2    0    0  0.00000000000E+00  0.00000000000E+00  0.45528305921E+02  0.49727657748E+02  0.20000332624E+02 0.  0.
        -11    1    3    3    0    0 -0.18337832795E+01 -0.98304889282E+01  0.22651515295E+02  0.24760703122E+02  0.51100000000E-03 0.  1.
         11    1    3    3    0    0  0.18337832795E+01  0.98304889282E+01  0.22876790626E+02  0.24966954626E+02  0.51100000000E-03 0. -1.
<mgrwt>
<rscale>  0 0.20000333E+02</rscale>
<asrwt>0</asrwt>
<pdfrwt beam="1">  1        3 0.73273819E-02 0.20000333E+02</pdfrwt>
<pdfrwt beam="2">  1       -3 0.32302706E-03 0.20000333E+02</pdfrwt>
<totfact> 0.16219775E+06</totfact>
</mgrwt>
</event>
<event>
 5    1  0.4133473E-007  0.2000012E+02  0.7818608E-02  0.1745326E+00
         -3   -1    0    0    0  501 -0.00000000000E+00  0.00000000000E+00  0.93049090447E+01  0.93053737878E+01  0.93000000000E-01 0.  1.
          3   -1    0    0  501    0  0.00000000000E+00 -0.00000000000E+00 -0.10746208513E+02  0.10746610927E+02  0.93000000000E-01 0. -1.
       1023    2    1    2    0    0  0.00000000000E+00  0.00000000000E+00 -0.14412994688E+01  0.20051984715E+02  0.20000118671E+02 0.  0.
        -11    1    3    3    0    0 -0.41956134408E+00 -0.99912466879E+01 -0.70860403588E+00  0.10025126535E+02  0.51100000000E-03 0.  1.
         11    1    3    3    0    0  0.41956134408E+00  0.99912466879E+01 -0.73269543288E+00  0.10026858180E+02  0.51100000000E-03 0. -1.
<mgrwt>
<rscale>  0 0.20000119E+02</rscale>
<asrwt>0</asrwt>
<pdfrwt beam="2">  1        3 0.16533295E-02 0.20000119E+02</pdfrwt>
<pdfrwt beam="1">  1       -3 0.14315912E-02 0.20000119E+02</pdfrwt>
<totfact> 0.17881956E+06</totfact>
</mgrwt>
</event>
<event>
 5    1  0.4133473E-007  0.2000121E+02  0.7818608E-02  0.1745304E+00
         -3   -1    0    0    0  501 -0.00000000000E+00  0.00000000000E+00  0.15466356124E+01  0.15494291586E+01  0.93000000000E-01 0. -1.
          3   -1    0    0  501    0  0.00000000000E+00 -0.00000000000E+00 -0.64603146761E+02  0.64603213701E+02  0.93000000000E-01 0.  1.
       1023    2    1    2    0    0  0.00000000000E+00  0.00000000000E+00 -0.63056511149E+02  0.66152642859E+02  0.20001213938E+02 0.  0.
        -11    1    3    3    0    0  0.79500524667E+01 -0.60668444958E+01 -0.31683498235E+02  0.33224298293E+02  0.51100000000E-03 0. -1.
         11    1    3    3    0    0 -0.79500524667E+01  0.60668444958E+01 -0.31373012914E+02  0.32928344567E+02  0.51100000000E-03 0.  1.
<mgrwt>
<rscale>  0 0.20001214E+02</rscale>
<asrwt>0</asrwt>
<pdfrwt beam="2">  1        3 0.99391636E-02 0.20001214E+02</pdfrwt>
<pdfrwt beam="1">  1       -3 0.23816403E-03 0.20001214E+02</pdfrwt>
<totfact> 0.15473044E+06</totfact>
</mgrwt>
</event>
<event>
 5    1  0.4133473E-007  0.2000108E+02  0.7818608E-02  0.1745307E+00
          3   -1    0    0  501    0  0.00000000000E+00  0.00000000000E+00  0.28354218977E+02  0.28354371494E+02  0.93000000000E-01 0.  1.
         -3   -1    0    0    0  501 -0.00000000000E+00 -0.00000000000E+00 -0.35264164091E+01  0.35276425117E+01  0.93000000000E-01 0. -1.
       1023    2    1    2    0    0  0.00000000000E+00  0.00000000000E+00  0.24827802568E+02  0.31882014006E+02  0.20001075888E+02 0.  0.
        -11    1    3    3    0    0  0.59097452395E+01  0.80675599752E+01  0.12394630075E+02  0.15925999740E+02  0.51100000000E-03 0. -1.
         11    1    3    3    0    0 -0.59097452395E+01 -0.80675599752E+01  0.12433172493E+02  0.15956014266E+02  0.51100000000E-03 0.  1.
<mgrwt>
<rscale>  0 0.20001076E+02</rscale>
<asrwt>0</asrwt>
<pdfrwt beam="1">  1        3 0.43622937E-02 0.20001076E+02</pdfrwt>
<pdfrwt beam="2">  1       -3 0.54263164E-03 0.20001076E+02</pdfrwt>
<totfact> 0.17155653E+06</totfact>
</mgrwt>
</event>
<event>
 5    1  0.4133473E-007  0.2000303E+02  0.7818608E-02  0.1745268E+00
          3   -1    0    0  501    0  0.00000000000E+00  0.00000000000E+00  0.43980689319E+01  0.43990520944E+01  0.93000000000E-01 0.  1.
         -3   -1    0    0    0  501 -0.00000000000E+00 -0.00000000000E+00 -0.22740512072E+02  0.22740702239E+02  0.93000000000E-01 0. -1.
       1023    2    1    2    0    0  0.00000000000E+00  0.00000000000E+00 -0.18342443140E+02  0.27139754333E+02  0.20003025894E+02 0.  0.
        -11    1    3    3    0    0 -0.93845865986E+01 -0.34552756318E+01 -0.89752350831E+01  0.13437419409E+02  0.51100000000E-03 0. -1.
         11    1    3    3    0    0  0.93845865986E+01  0.34552756318E+01 -0.93672080573E+01  0.13702334924E+02  0.51100000000E-03 0.  1.
<mgrwt>
<rscale>  0 0.20003026E+02</rscale>
<asrwt>0</asrwt>
<pdfrwt beam="1">  1        3 0.67671626E-03 0.20003026E+02</pdfrwt>
<pdfrwt beam="2">  1       -3 0.34986305E-02 0.20003026E+02</pdfrwt>
<totfact> 0.17431791E+06</totfact>
</mgrwt>
</event>
<event>
 5    1  0.4174497E-007  0.2000159E+02  0.7818608E-02  0.1745297E+00
          3   -1    0    0  501    0  0.00000000000E+00  0.00000000000E+00  0.68974805012E+01  0.68981074407E+01  0.93000000000E-01 0.  1.
         -3   -1    0    0    0  501 -0.00000000000E+00 -0.00000000000E+00 -0.14498914702E+02  0.14499212962E+02  0.93000000000E-01 0. -1.
       1023    2    1    2    0    0  0.00000000000E+00  0.00000000000E+00 -0.76014342005E+01  0.21397320403E+02  0.20001587900E+02 0.  0.
        -11    1    3    3    0    0 -0.94644193212E+01  0.32310734814E+01 -0.38311718684E+01  0.10709479309E+02  0.51100000000E-03 0.  1.
         11    1    3    3    0    0  0.94644193212E+01 -0.32310734814E+01 -0.37702623321E+01  0.10687841094E+02  0.51100000000E-03 0. -1.
<mgrwt>
<rscale>  0 0.20001588E+02</rscale>
<asrwt>0</asrwt>
<pdfrwt beam="1">  1        3 0.10612220E-02 0.20001588E+02</pdfrwt>
<pdfrwt beam="2">  1       -3 0.22306734E-02 0.20001588E+02</pdfrwt>
<totfact> 0.17791876E+06</totfact>
</mgrwt>
</event>
<event>
 5    1  0.4133473E-007  0.2000246E+02  0.7818608E-02  0.1745279E+00
          3   -1    0    0  501    0  0.00000000000E+00  0.00000000000E+00  0.50602147148E+02  0.50602232609E+02  0.93000000000E-01 0.  1.
         -3   -1    0    0    0  501 -0.00000000000E+00 -0.00000000000E+00 -0.19755062530E+01  0.19776941006E+01  0.93000000000E-01 0. -1.
       1023    2    1    2    0    0  0.00000000000E+00  0.00000000000E+00  0.48626640895E+02  0.52579926710E+02  0.20002462049E+02 0.  0.
        -11    1    3    3    0    0  0.86819509482E+01  0.49634333672E+01  0.24609308174E+02  0.26563696883E+02  0.51100000000E-03 0. -1.
         11    1    3    3    0    0 -0.86819509482E+01 -0.49634333672E+01  0.24017332722E+02  0.26016229826E+02  0.51100000000E-03 0.  1.
<mgrwt>
<rscale>  0 0.20002462E+02</rscale>
<asrwt>0</asrwt>
<pdfrwt beam="1">  1        3 0.77851198E-02 0.20002462E+02</pdfrwt>
<pdfrwt beam="2">  1       -3 0.30409894E-03 0.20002462E+02</pdfrwt>
<totfact> 0.16079732E+06</totfact>
</mgrwt>
</event>
<event>
 5    1  0.4246900E-007  0.2000061E+02  0.7818608E-02  0.1745316E+00
          3   -1    0    0  501    0  0.00000000000E+00  0.00000000000E+00  0.34015044304E+01  0.34027755421E+01  0.93000000000E-01 0.  1.
         -3   -1    0    0    0  501 -0.00000000000E+00 -0.00000000000E+00 -0.29393707693E+02  0.29393854815E+02  0.93000000000E-01 0. -1.
       1023    2    1    2    0    0  0.00000000000E+00  0.00000000000E+00 -0.25992203262E+02  0.32796630358E+02  0.20000608301E+02 0.  0.
        -11    1    3    3    0    0  0.79737998886E+01  0.60349023507E+01 -0.12885470529E+02  0.16310637083E+02  0.51100000000E-03 0.  1.
         11    1    3    3    0    0 -0.79737998886E+01 -0.60349023507E+01 -0.13106732733E+02  0.16485993274E+02  0.51100000000E-03 0. -1.
<mgrwt>
<rscale>  0 0.20000608E+02</rscale>
<asrwt>0</asrwt>
<pdfrwt beam="1">  1        3 0.52341749E-03 0.20000608E+02</pdfrwt>
<pdfrwt beam="2">  1       -3 0.45222178E-02 0.20000608E+02</pdfrwt>
<totfact> 0.17106268E+06</totfact>
</mgrwt>
</event>
<event>
 5    1  0.4133473E-007  0.2000669E+02  0.7818608E-02  0.1745195E+00
         -3   -1    0    0    0  501 -0.00000000000E+00  0.00000000000E+00  0.17060968737E+01  0.17086297265E+01  0.93000000000E-01 0.  1.
          3   -1    0    0  501    0  0.00000000000E+00 -0.00000000000E+00 -0.58606483900E+02  0.58606557688E+02  0.93000000000E-01 0. -1.
       1023    2    1    2    0    0  0.00000000000E+00  0.00000000000E+00 -0.56900387026E+02  0.60315187415E+02  0.20006693610E+02 0.  0.
        -11    1    3    3    0    0  0.51787193085E+01  0.85559869390E+01 -0.29074624360E+02  0.30746671822E+02  0.51100000000E-03 0. -1.
         11    1    3    3    0    0 -0.51787193085E+01 -0.85559869390E+01 -0.27825762666E+02  0.29568515593E+02  0.51100000000E-03 0.  1.
<mgrwt>
<rscale>  0 0.20006694E+02</rscale>
<asrwt>0</asrwt>
<pdfrwt beam="2">  1        3 0.90165811E-02 0.20006694E+02</pdfrwt>
<pdfrwt beam="1">  1       -3 0.26267700E-03 0.20006694E+02</pdfrwt>
<totfact> 0.15718276E+06</totfact>
</mgrwt>
</event>
<event>
 5    1  0.4286530E-007  0.2000214E+02  0.7818608E-02  0.1745286E+00
          3   -1    0    0  501    0  0.00000000000E+00  0.00000000000E+00  0.49966601262E+01  0.49975255294E+01  0.93000000000E-01 0. -1.
         -3   -1    0    0    0  501 -0.00000000000E+00 -0.00000000000E+00 -0.20014946034E+02  0.20015162096E+02  0.93000000000E-01 0.  1.
       1023    2    1    2    0    0  0.00000000000E+00  0.00000000000E+00 -0.15018285908E+02  0.25012687626E+02  0.20002140652E+02 0.  0.
        -11    1    3    3    0    0  0.99366015949E+01 -0.11336139847E+01 -0.75298982877E+01  0.12518805870E+02  0.51100000000E-03 0. -1.
         11    1    3    3    0    0 -0.99366015949E+01  0.11336139847E+01 -0.74883876201E+01  0.12493881756E+02  0.51100000000E-03 0.  1.
<mgrwt>
<rscale>  0 0.20002141E+02</rscale>
<asrwt>0</asrwt>
<pdfrwt beam="1">  1        3 0.76880015E-03 0.20002141E+02</pdfrwt>
<pdfrwt beam="2">  1       -3 0.30793056E-02 0.20002141E+02</pdfrwt>
<totfact> 0.17563002E+06</totfact>
</mgrwt>
</event>
<event>
 5    1  0.4133473E-007  0.2000015E+02  0.7818608E-02  0.1745325E+00
          3   -1    0    0  501    0  0.00000000000E+00  0.00000000000E+00  0.11261497563E+03  0.11261501403E+03  0.93000000000E-01 0. -1.
         -3   -1    0    0    0  501 -0.00000000000E+00 -0.00000000000E+00 -0.88552073353E+00  0.89039090826E+00  0.93000000000E-01 0.  1.
       1023    2    1    2    0    0  0.00000000000E+00  0.00000000000E+00  0.11172945490E+03  0.11350540494E+03  0.20000146473E+02 0.  0.
        -11    1    3    3    0    0  0.89346151722E+01  0.44915514249E+01  0.55813338668E+02  0.56702117738E+02  0.51100000000E-03 0.  1.
         11    1    3    3    0    0 -0.89346151722E+01 -0.44915514249E+01  0.55916116233E+02  0.56803287205E+02  0.51100000000E-03 0. -1.
<mgrwt>
<rscale>  0 0.20000146E+02</rscale>
<asrwt>0</asrwt>
<pdfrwt beam="1">  1        3 0.17325747E-01 0.20000146E+02</pdfrwt>
<pdfrwt beam="2">  1       -3 0.13661164E-03 0.20000146E+02</pdfrwt>
<totfact> 0.13726761E+06</totfact>
</mgrwt>
</event>
<event>
 5    1  0.4311828E-007  0.2000153E+02  0.7818608E-02  0.1745298E+00
         -3   -1    0    0    0  501 -0.00000000000E+00  0.00000000000E+00  0.21478384166E+02  0.21478585507E+02  0.93000000000E-01 0.  1.
          3   -1    0    0  501    0  0.00000000000E+00 -0.00000000000E+00 -0.46558703659E+01  0.46567991007E+01  0.93000000000E-01 0. -1.
       1023    2    1    2    0    0  0.00000000000E+00  0.00000000000E+00  0.16822513800E+02  0.26135384608E+02  0.20001533892E+02 0.  0.
        -11    1    3    3    0    0  0.99818569662E+01  0.60263774092E+00  0.82528397323E+01  0.12965724224E+02  0.51100000000E-03 0. -1.
         11    1    3    3    0    0 -0.99818569662E+01 -0.60263774092E+00  0.85696740678E+01  0.13169660384E+02  0.51100000000E-03 0.  1.
<mgrwt>
<rscale>  0 0.20001534E+02</rscale>
<asrwt>0</asrwt>
<pdfrwt beam="2">  1        3 0.71637468E-03 0.20001534E+02</pdfrwt>
<pdfrwt beam="1">  1       -3 0.33044537E-02 0.20001534E+02</pdfrwt>
<totfact> 0.17495341E+06</totfact>
</mgrwt>
</event>
<event>
 5    1  0.4133473E-007  0.2000167E+02  0.7818608E-02  0.1745295E+00
         -3   -1    0    0    0  501 -0.00000000000E+00  0.00000000000E+00  0.48881432037E+02  0.48881520506E+02  0.93000000000E-01 0.  1.
          3   -1    0    0  501    0  0.00000000000E+00 -0.00000000000E+00 -0.20449601013E+01  0.20470737202E+01  0.93000000000E-01 0. -1.
       1023    2    1    2    0    0  0.00000000000E+00  0.00000000000E+00  0.46836471936E+02  0.50928594227E+02  0.20001665093E+02 0.  0.
        -11    1    3    3    0    0  0.99105245539E+01 -0.13393855568E+01  0.23253207287E+02  0.25312528519E+02  0.51100000000E-03 0.  1.
         11    1    3    3    0    0 -0.99105245539E+01  0.13393855568E+01  0.23583264649E+02  0.25616065708E+02  0.51100000000E-03 0. -1.
<mgrwt>
<rscale>  0 0.20001665E+02</rscale>
<asrwt>0</asrwt>
<pdfrwt beam="2">  1        3 0.31477864E-03 0.20001665E+02</pdfrwt>
<pdfrwt beam="1">  1       -3 0.75203896E-02 0.20001665E+02</pdfrwt>
<totfact> 0.16162236E+06</totfact>
</mgrwt>
</event>
<event>
 5    1  0.4133473E-007  0.2000982E+02  0.7818608E-02  0.1745133E+00
         -3   -1    0    0    0  501 -0.00000000000E+00  0.00000000000E+00  0.30968072653E+02  0.30968212297E+02  0.93000000000E-01 0. -1.
          3   -1    0    0  501    0  0.00000000000E+00 -0.00000000000E+00 -0.32314890012E+01  0.32328269618E+01  0.93000000000E-01 0.  1.
       1023    2    1    2    0    0  0.00000000000E+00  0.00000000000E+00  0.27736583652E+02  0.34201039258E+02  0.20009822930E+02 0.  0.
        -11    1    3    3    0    0  0.37378357217E+01  0.92781827997E+01  0.13517335888E+02  0.16815899076E+02  0.51100000000E-03 0. -1.
         11    1    3    3    0    0 -0.37378357217E+01 -0.92781827997E+01  0.14219247764E+02  0.17385140183E+02  0.51100000000E-03 0.  1.
<mgrwt>
<rscale>  0 0.20009823E+02</rscale>
<asrwt>0</asrwt>
<pdfrwt beam="2">  1        3 0.49726583E-03 0.20009823E+02</pdfrwt>
<pdfrwt beam="1">  1       -3 0.47644324E-02 0.20009823E+02</pdfrwt>
<totfact> 0.17010464E+06</totfact>
</mgrwt>
</event>
<event>
 5    1  0.4211794E-007  0.2000071E+02  0.7818608E-02  0.1745314E+00
         -3   -1    0    0    0  501 -0.00000000000E+00  0.00000000000E+00  0.13918454296E+02  0.13918764995E+02  0.93000000000E-01 0.  1.
          3   -1    0    0  501    0  0.00000000000E+00 -0.00000000000E+00 -0.71845233833E+01  0.71851252769E+01  0.93000000000E-01 0. -1.
       1023    2    1    2    0    0  0.00000000000E+00  0.00000000000E+00  0.67339309126E+01  0.21103890272E+02  0.20000708964E+02 0.  0.
        -11    1    3    3    0    0  0.75179123592E+01  0.65944383227E+01  0.34073722694E+01  0.10564838336E+02  0.51100000000E-03 0. -1.
         11    1    3    3    0    0 -0.75179123592E+01 -0.65944383227E+01  0.33265586432E+01  0.10539051936E+02  0.51100000000E-03 0.  1.
<mgrwt>
<rscale>  0 0.20000709E+02</rscale>
<asrwt>0</asrwt>
<pdfrwt beam="2">  1        3 0.11053815E-02 0.20000709E+02</pdfrwt>
<pdfrwt beam="1">  1       -3 0.21413709E-02 0.20000709E+02</pdfrwt>
<totfact> 0.17812529E+06</totfact>
</mgrwt>
</event>
<event>
 5    1  0.4133473E-007  0.2000030E+02  0.7818608E-02  0.1745322E+00
         -3   -1    0    0    0  501 -0.00000000000E+00  0.00000000000E+00  0.28476729016E+01  0.28491911053E+01  0.93000000000E-01 0. -1.
          3   -1    0    0  501    0  0.00000000000E+00 -0.00000000000E+00 -0.35106508483E+02  0.35106631665E+02  0.93000000000E-01 0.  1.
       1023    2    1    2    0    0  0.00000000000E+00  0.00000000000E+00 -0.32258835581E+02  0.37955822771E+02  0.20000300226E+02 0.  0.
        -11    1    3    3    0    0 -0.91066659962E+01 -0.41317292511E+01 -0.16169668584E+02  0.19012120727E+02  0.51100000000E-03 0. -1.
         11    1    3    3    0    0  0.91066659962E+01  0.41317292511E+01 -0.16089166997E+02  0.18943702043E+02  0.51100000000E-03 0.  1.
<mgrwt>
<rscale>  0 0.20000300E+02</rscale>
<asrwt>0</asrwt>
<pdfrwt beam="2">  1        3 0.54011273E-02 0.20000300E+02</pdfrwt>
<pdfrwt beam="1">  1       -3 0.43822981E-03 0.20000300E+02</pdfrwt>
<totfact> 0.16820178E+06</totfact>
</mgrwt>
</event>
<event>
 5    1  0.4133473E-007  0.2000288E+02  0.7818608E-02  0.1745271E+00
          3   -1    0    0  501    0  0.00000000000E+00  0.00000000000E+00  0.48428933537E+01  0.48437862293E+01  0.93000000000E-01 0.  1.
         -3   -1    0    0    0  501 -0.00000000000E+00 -0.00000000000E+00 -0.20651864452E+02  0.20652073851E+02  0.93000000000E-01 0. -1.
       1023    2    1    2    0    0  0.00000000000E+00  0.00000000000E+00 -0.15808971099E+02  0.25495860081E+02  0.20002882644E+02 0.  0.
        -11    1    3    3    0    0 -0.63464805281E+01  0.77297165366E+01 -0.79681576302E+01  0.12787410571E+02  0.51100000000E-03 0.  1.
         11    1    3    3    0    0  0.63464805281E+01 -0.77297165366E+01 -0.78408134685E+01  0.12708449510E+02  0.51100000000E-03 0. -1.
<mgrwt>
<rscale>  0 0.20002883E+02</rscale>
<asrwt>0</asrwt>
<pdfrwt beam="1">  1        3 0.74514532E-03 0.20002883E+02</pdfrwt>
<pdfrwt beam="2">  1       -3 0.31772947E-02 0.20002883E+02</pdfrwt>
<totfact> 0.17531872E+06</totfact>
</mgrwt>
</event>
<event>
 5    1  0.4133473E-007  0.2000020E+02  0.7818608E-02  0.1745324E+00
         -3   -1    0    0    0  501 -0.00000000000E+00  0.00000000000E+00  0.15392216066E+02  0.15392497017E+02  0.93000000000E-01 0. -1.
          3   -1    0    0  501    0  0.00000000000E+00 -0.00000000000E+00 -0.64962456260E+01  0.64969112841E+01  0.93000000000E-01 0.  1.
       1023    2    1    2    0    0  0.00000000000E+00  0.00000000000E+00  0.88959704402E+01  0.21889408302E+02  0.20000197642E+02 0.  0.
        -11    1    3    3    0    0 -0.26209836352E+00 -0.99966626467E+01  0.44524367920E+01  0.10946513293E+02  0.51100000000E-03 0. -1.
         11    1    3    3    0    0  0.26209836352E+00  0.99966626467E+01  0.44435336482E+01  0.10942895009E+02  0.51100000000E-03 0.  1.
<mgrwt>
<rscale>  0 0.20000198E+02</rscale>
<asrwt>0</asrwt>
<pdfrwt beam="2">  1        3 0.99949523E-03 0.20000198E+02</pdfrwt>
<pdfrwt beam="1">  1       -3 0.23681060E-02 0.20000198E+02</pdfrwt>
<totfact> 0.17762927E+06</totfact>
</mgrwt>
</event>
<event>
 5    1  0.4133473E-007  0.2000069E+02  0.7818608E-02  0.1745314E+00
          3   -1    0    0  501    0  0.00000000000E+00  0.00000000000E+00  0.10715412530E+03  0.10715416565E+03  0.93000000000E-01 0. -1.
         -3   -1    0    0    0  501 -0.00000000000E+00 -0.00000000000E+00 -0.93094199217E+00  0.93557575470E+00  0.93000000000E-01 0.  1.
       1023    2    1    2    0    0  0.00000000000E+00  0.00000000000E+00  0.10622318330E+03  0.10808974141E+03  0.20000688152E+02 0.  0.
        -11    1    3    3    0    0  0.24177330599E+01 -0.97034081749E+01  0.52717484400E+02  0.53657569131E+02  0.51100000000E-03 0.  1.
         11    1    3    3    0    0 -0.24177330599E+01  0.97034081749E+01  0.53505698904E+02  0.54432172277E+02  0.51100000000E-03 0. -1.
<mgrwt>
<rscale>  0 0.20000688E+02</rscale>
<asrwt>0</asrwt>
<pdfrwt beam="1">  1        3 0.16485611E-01 0.20000688E+02</pdfrwt>
<pdfrwt beam="2">  1       -3 0.14358138E-03 0.20000688E+02</pdfrwt>
<totfact> 0.13902977E+06</totfact>
</mgrwt>
</event>
<event>
 5    1  0.4133473E-007  0.2000090E+02  0.7818608E-02  0.1745310E+00
          3   -1    0    0  501    0  0.00000000000E+00  0.00000000000E+00  0.82994835641E+00  0.83514266703E+00  0.93000000000E-01 0.  1.
         -3   -1    0    0    0  501 -0.00000000000E+00 -0.00000000000E+00 -0.12011913319E+03  0.12011916919E+03  0.93000000000E-01 0. -1.
       1023    2    1    2    0    0  0.00000000000E+00  0.00000000000E+00 -0.11928918483E+03  0.12095431186E+03  0.20000898454E+02 0.  0.
        -11    1    3    3    0    0 -0.83889781164E+01 -0.54437138424E+01 -0.59663949000E+02  0.60496246038E+02  0.51100000000E-03 0. -1.
         11    1    3    3    0    0  0.83889781164E+01  0.54437138424E+01 -0.59625235832E+02  0.60458065819E+02  0.51100000000E-03 0.  1.
<mgrwt>
<rscale>  0 0.20000898E+02</rscale>
<asrwt>0</asrwt>
<pdfrwt beam="1">  1        3 0.12808679E-03 0.20000898E+02</pdfrwt>
<pdfrwt beam="2">  1       -3 0.18480255E-01 0.20000898E+02</pdfrwt>
<totfact> 0.13492637E+06</totfact>
</mgrwt>
</event>
<event>
 5    1  0.4133473E-007  0.2000062E+02  0.7818608E-02  0.1745316E+00
          3   -1    0    0  501    0  0.00000000000E+00  0.00000000000E+00  0.16846193130E+01  0.16871844090E+01  0.93000000000E-01 0.  1.
         -3   -1    0    0    0  501 -0.00000000000E+00 -0.00000000000E+00 -0.59316524743E+02  0.59316597649E+02  0.93000000000E-01 0. -1.
       1023    2    1    2    0    0  0.00000000000E+00  0.00000000000E+00 -0.57631905430E+02  0.61003782058E+02  0.20000622536E+02 0.  0.
        -11    1    3    3    0    0 -0.56253748391E+01  0.82679736555E+01 -0.28679727656E+02  0.30373195570E+02  0.51100000000E-03 0.  1.
         11    1    3    3    0    0  0.56253748391E+01 -0.82679736555E+01 -0.28952177774E+02  0.30630586488E+02  0.51100000000E-03 0. -1.
<mgrwt>
<rscale>  0 0.20000623E+02</rscale>
<asrwt>0</asrwt>
<pdfrwt beam="1">  1        3 0.25937517E-03 0.20000623E+02</pdfrwt>
<pdfrwt beam="2">  1       -3 0.91258205E-02 0.20000623E+02</pdfrwt>
<totfact> 0.15700711E+06</totfact>
</mgrwt>
</event>
<event>
 5    1  0.4164012E-007  0.2000059E+02  0.7818608E-02  0.1745316E+00
          3   -1    0    0  501    0  0.00000000000E+00  0.00000000000E+00  0.23902710718E+01  0.23920795966E+01  0.93000000000E-01 0.  1.
         -3   -1    0    0    0  501 -0.00000000000E+00 -0.00000000000E+00 -0.41821058028E+02  0.41821161432E+02  0.93000000000E-01 0. -1.
       1023    2    1    2    0    0  0.00000000000E+00  0.00000000000E+00 -0.39430786956E+02  0.44213241029E+02  0.20000593049E+02 0.  0.
        -11    1    3    3    0    0 -0.12190405625E+01 -0.99256011400E+01 -0.19609090763E+02  0.22011816343E+02  0.51100000000E-03 0. -1.
         11    1    3    3    0    0  0.12190405625E+01  0.99256011400E+01 -0.19821696193E+02  0.22201424686E+02  0.51100000000E-03 0.  1.
<mgrwt>
<rscale>  0 0.20000593E+02</rscale>
<asrwt>0</asrwt>
<pdfrwt beam="1">  1        3 0.36788111E-03 0.20000593E+02</pdfrwt>
<pdfrwt beam="2">  1       -3 0.64341554E-02 0.20000593E+02</pdfrwt>
<totfact> 0.16495111E+06</totfact>
</mgrwt>
</event>
<event>
 5    1  0.4209493E-007  0.2000157E+02  0.7818608E-02  0.1745297E+00
         -3   -1    0    0    0  501 -0.00000000000E+00  0.00000000000E+00  0.34691566755E+02  0.34691691411E+02  0.93000000000E-01 0. -1.
          3   -1    0    0  501    0  0.00000000000E+00 -0.00000000000E+00 -0.28821177006E+01  0.28836177694E+01  0.93000000000E-01 0.  1.
       1023    2    1    2    0    0  0.00000000000E+00  0.00000000000E+00  0.31809449055E+02  0.37575309180E+02  0.20001570209E+02 0.  0.
        -11    1    3    3    0    0  0.85388597320E+01  0.52049419069E+01  0.15697593232E+02  0.18612307201E+02  0.51100000000E-03 0. -1.
         11    1    3    3    0    0 -0.85388597320E+01 -0.52049419069E+01  0.16111855822E+02  0.18963001980E+02  0.51100000000E-03 0.  1.
<mgrwt>
<rscale>  0 0.20001570E+02</rscale>
<asrwt>0</asrwt>
<pdfrwt beam="2">  1        3 0.44352770E-03 0.20001570E+02</pdfrwt>
<pdfrwt beam="1">  1       -3 0.53372891E-02 0.20001570E+02</pdfrwt>
<totfact> 0.16840524E+06</totfact>
</mgrwt>
</event>
<event>
 5    1  0.4133473E-007  0.2000022E+02  0.7818608E-02  0.1745324E+00
         -3   -1    0    0    0  501 -0.00000000000E+00  0.00000000000E+00  0.95003956157E+00  0.95458062444E+00  0.93000000000E-01 0. -1.
          3   -1    0    0  501    0  0.00000000000E+00 -0.00000000000E+00 -0.10500555882E+03  0.10500560001E+03  0.93000000000E-01 0.  1.
       1023    2    1    2    0    0  0.00000000000E+00  0.00000000000E+00 -0.10405551926E+03  0.10596018063E+03  0.20000219763E+02 0.  0.
        -11    1    3    3    0    0 -0.94694747554E+01  0.32142149344E+01 -0.51984201002E+02  0.52937314665E+02  0.51100000000E-03 0. -1.
         11    1    3    3    0    0  0.94694747554E+01 -0.32142149344E+01 -0.52071318261E+02  0.53022865968E+02  0.51100000000E-03 0.  1.
<mgrwt>
<rscale>  0 0.20000220E+02</rscale>
<asrwt>0</asrwt>
<pdfrwt beam="2">  1        3 0.16155045E-01 0.20000220E+02</pdfrwt>
<pdfrwt beam="1">  1       -3 0.14651250E-03 0.20000220E+02</pdfrwt>
<totfact> 0.13974677E+06</totfact>
</mgrwt>
</event>
<event>
 5    1  0.4133473E-007  0.2000524E+02  0.7818608E-02  0.1745224E+00
          3   -1    0    0  501    0  0.00000000000E+00  0.00000000000E+00  0.11743717161E+03  0.11743720843E+03  0.93000000000E-01 0. -1.
         -3   -1    0    0    0  501 -0.00000000000E+00 -0.00000000000E+00 -0.84939034952E+00  0.85446648025E+00  0.93000000000E-01 0.  1.
       1023    2    1    2    0    0  0.00000000000E+00  0.00000000000E+00  0.11658778126E+03  0.11829167491E+03  0.20005239682E+02 0.  0.
        -11    1    3    3    0    0 -0.12782601911E+01  0.99189261618E+01  0.59373859221E+02  0.60210249995E+02  0.51100000000E-03 0. -1.
         11    1    3    3    0    0  0.12782601911E+01 -0.99189261618E+01  0.57213922036E+02  0.58081424916E+02  0.51100000000E-03 0.  1.
<mgrwt>
<rscale>  0 0.20005240E+02</rscale>
<asrwt>0</asrwt>
<pdfrwt beam="1">  1        3 0.18067655E-01 0.20005240E+02</pdfrwt>
<pdfrwt beam="2">  1       -3 0.13106871E-03 0.20005240E+02</pdfrwt>
<totfact> 0.13566929E+06</totfact>
</mgrwt>
</event>
<event>
 5    1  0.4133473E-007  0.2000064E+02  0.7818608E-02  0.1745315E+00
         -3   -1    0    0    0  501 -0.00000000000E+00  0.00000000000E+00  0.41022718637E+01  0.41033259003E+01  0.93000000000E-01 0.  1.
          3   -1    0    0  501    0  0.00000000000E+00 -0.00000000000E+00 -0.24374013487E+02  0.24374190909E+02  0.93000000000E-01 0. -1.
       1023    2    1    2    0    0  0.00000000000E+00  0.00000000000E+00 -0.20271741623E+02  0.28477516809E+02  0.20000636369E+02 0.  0.
        -11    1    3    3    0    0 -0.33372261548E+01 -0.94268721686E+01 -0.10218480479E+02  0.14297564158E+02  0.51100000000E-03 0.  1.
         11    1    3    3    0    0  0.33372261548E+01  0.94268721686E+01 -0.10053261144E+02  0.14179952651E+02  0.51100000000E-03 0. -1.
<mgrwt>
<rscale>  0 0.20000636E+02</rscale>
<asrwt>0</asrwt>
<pdfrwt beam="2">  1        3 0.37499429E-02 0.20000636E+02</pdfrwt>
<pdfrwt beam="1">  1       -3 0.63121349E-03 0.20000636E+02</pdfrwt>
<totfact> 0.17354815E+06</totfact>
</mgrwt>
</event>
<event>
 5    1  0.4239544E-007  0.2000065E+02  0.7818608E-02  0.1745315E+00
         -3   -1    0    0    0  501 -0.00000000000E+00  0.00000000000E+00  0.19427302826E+02  0.19427525424E+02  0.93000000000E-01 0. -1.
          3   -1    0    0  501    0  0.00000000000E+00 -0.00000000000E+00 -0.51470591493E+01  0.51478992692E+01  0.93000000000E-01 0.  1.
       1023    2    1    2    0    0  0.00000000000E+00  0.00000000000E+00  0.14280243677E+02  0.24575424693E+02  0.20000653474E+02 0.  0.
        -11    1    3    3    0    0 -0.79054709211E+01 -0.61245001945E+01  0.71110066840E+01  0.12270794165E+02  0.51100000000E-03 0.  1.
         11    1    3    3    0    0  0.79054709211E+01  0.61245001945E+01  0.71692369931E+01  0.12304630528E+02  0.51100000000E-03 0. -1.
<mgrwt>
<rscale>  0 0.20000653E+02</rscale>
<asrwt>0</asrwt>
<pdfrwt beam="2">  1        3 0.79193699E-03 0.20000653E+02</pdfrwt>
<pdfrwt beam="1">  1       -3 0.29888976E-02 0.20000653E+02</pdfrwt>
<totfact> 0.17592883E+06</totfact>
</mgrwt>
</event>
<event>
 5    1  0.4133473E-007  0.2000322E+02  0.7818608E-02  0.1745264E+00
         -3   -1    0    0    0  501 -0.00000000000E+00  0.00000000000E+00  0.48193674369E+02  0.48193764100E+02  0.93000000000E-01 0.  1.
          3   -1    0    0  501    0  0.00000000000E+00 -0.00000000000E+00 -0.20744960569E+01  0.20765796132E+01  0.93000000000E-01 0. -1.
       1023    2    1    2    0    0  0.00000000000E+00  0.00000000000E+00  0.46119178312E+02  0.50270343713E+02  0.20003220964E+02 0.  0.
        -11    1    3    3    0    0  0.61509088748E+01 -0.78863218905E+01  0.22891773813E+02  0.24981214172E+02  0.51100000000E-03 0. -1.
         11    1    3    3    0    0 -0.61509088748E+01  0.78863218905E+01  0.23227404499E+02  0.25289129541E+02  0.51100000000E-03 0.  1.
<mgrwt>
<rscale>  0 0.20003221E+02</rscale>
<asrwt>0</asrwt>
<pdfrwt beam="2">  1        3 0.31932046E-03 0.20003221E+02</pdfrwt>
<pdfrwt beam="1">  1       -3 0.74145776E-02 0.20003221E+02</pdfrwt>
<totfact> 0.16191125E+06</totfact>
</mgrwt>
</event>
<event>
 5    1  0.4133473E-007  0.2000385E+02  0.7818608E-02  0.1745252E+00
         -3   -1    0    0    0  501 -0.00000000000E+00  0.00000000000E+00  0.91296853429E+02  0.91296900796E+02  0.93000000000E-01 0. -1.
          3   -1    0    0  501    0  0.00000000000E+00 -0.00000000000E+00 -0.10937284284E+01  0.10976752138E+01  0.93000000000E-01 0.  1.
       1023    2    1    2    0    0  0.00000000000E+00  0.00000000000E+00  0.90203125001E+02  0.92394576010E+02  0.20003847536E+02 0.  0.
        -11    1    3    3    0    0 -0.33560093715E+01  0.94220488707E+01  0.45221561180E+02  0.46314440509E+02  0.51100000000E-03 0.  1.
         11    1    3    3    0    0  0.33560093715E+01 -0.94220488707E+01  0.44981563820E+02  0.46080135501E+02  0.51100000000E-03 0. -1.
<mgrwt>
<rscale>  0 0.20003848E+02</rscale>
<asrwt>0</asrwt>
<pdfrwt beam="2">  1        3 0.16857313E-03 0.20003848E+02</pdfrwt>
<pdfrwt beam="1">  1       -3 0.14045979E-01 0.20003848E+02</pdfrwt>
<totfact> 0.14443913E+06</totfact>
</mgrwt>
</event>
<event>
 5    1  0.4133473E-007  0.2000186E+02  0.7818608E-02  0.1745291E+00
         -3   -1    0    0    0  501 -0.00000000000E+00  0.00000000000E+00  0.49200311446E+02  0.49200399341E+02  0.93000000000E-01 0. -1.
          3   -1    0    0  501    0  0.00000000000E+00 -0.00000000000E+00 -0.20317321062E+01  0.20338594719E+01  0.93000000000E-01 0.  1.
       1023    2    1    2    0    0  0.00000000000E+00  0.00000000000E+00  0.47168579340E+02  0.51234258813E+02  0.20001859894E+02 0.  0.
        -11    1    3    3    0    0  0.94625843748E+01 -0.32353920730E+01  0.23323891710E+02  0.25377395250E+02  0.51100000000E-03 0.  1.
         11    1    3    3    0    0 -0.94625843748E+01  0.32353920730E+01  0.23844687630E+02  0.25856863564E+02  0.51100000000E-03 0. -1.
<mgrwt>
<rscale>  0 0.20001860E+02</rscale>
<asrwt>0</asrwt>
<pdfrwt beam="2">  1        3 0.31274462E-03 0.20001860E+02</pdfrwt>
<pdfrwt beam="1">  1       -3 0.75694481E-02 0.20001860E+02</pdfrwt>
<totfact> 0.16147287E+06</totfact>
</mgrwt>
</event>
<event>
 5    1  0.4133473E-007  0.2000238E+02  0.7818608E-02  0.1745281E+00
          3   -1    0    0  501    0  0.00000000000E+00  0.00000000000E+00  0.37036554843E+01  0.37048229305E+01  0.93000000000E-01 0.  1.
         -3   -1    0    0    0  501 -0.00000000000E+00 -0.00000000000E+00 -0.27001276361E+02  0.27001436520E+02  0.93000000000E-01 0. -1.
       1023    2    1    2    0    0  0.00000000000E+00  0.00000000000E+00 -0.23297620877E+02  0.30706259450E+02  0.20002380631E+02 0.  0.
        -11    1    3    3    0    0 -0.95153782226E+01 -0.30788218108E+01 -0.11576138568E+02  0.15297991727E+02  0.51100000000E-03 0. -1.
         11    1    3    3    0    0  0.95153782226E+01  0.30788218108E+01 -0.11721482309E+02  0.15408267723E+02  0.51100000000E-03 0.  1.
<mgrwt>
<rscale>  0 0.20002381E+02</rscale>
<asrwt>0</asrwt>
<pdfrwt beam="1">  1        3 0.56989529E-03 0.20002381E+02</pdfrwt>
<pdfrwt beam="2">  1       -3 0.41541445E-02 0.20002381E+02</pdfrwt>
<totfact> 0.17222674E+06</totfact>
</mgrwt>
</event>
<event>
 5    1  0.4145154E-007  0.2000051E+02  0.7818608E-02  0.1745318E+00
         -3   -1    0    0    0  501 -0.00000000000E+00  0.00000000000E+00  0.81839659351E+01  0.81844943293E+01  0.93000000000E-01 0.  1.
          3   -1    0    0  501    0  0.00000000000E+00 -0.00000000000E+00 -0.12218535773E+02  0.12218889697E+02  0.93000000000E-01 0. -1.
       1023    2    1    2    0    0  0.00000000000E+00  0.00000000000E+00 -0.40345698378E+01  0.20403384027E+02  0.20000508142E+02 0.  0.
        -11    1    3    3    0    0 -0.12211697246E+00  0.99995077884E+01 -0.20136545851E+01  0.10200974150E+02  0.51100000000E-03 0.  1.
         11    1    3    3    0    0  0.12211697246E+00 -0.99995077884E+01 -0.20209152528E+01  0.10202409876E+02  0.51100000000E-03 0. -1.
<mgrwt>
<rscale>  0 0.20000508E+02</rscale>
<asrwt>0</asrwt>
<pdfrwt beam="2">  1        3 0.18798426E-02 0.20000508E+02</pdfrwt>
<pdfrwt beam="1">  1       -3 0.12591396E-02 0.20000508E+02</pdfrwt>
<totfact> 0.17858069E+06</totfact>
</mgrwt>
</event>
<event>
 5    1  0.4133473E-007  0.2000617E+02  0.7818608E-02  0.1745205E+00
          3   -1    0    0  501    0  0.00000000000E+00  0.00000000000E+00  0.21496495623E+01  0.21516603451E+01  0.93000000000E-01 0.  1.
         -3   -1    0    0    0  501 -0.00000000000E+00 -0.00000000000E+00 -0.46524110099E+02  0.46524203051E+02  0.93000000000E-01 0. -1.
       1023    2    1    2    0    0  0.00000000000E+00  0.00000000000E+00 -0.44374460537E+02  0.48675863396E+02  0.20006172283E+02 0.  0.
        -11    1    3    3    0    0 -0.65227996274E+01 -0.75838442845E+01 -0.22214211927E+02  0.24362529034E+02  0.51100000000E-03 0.  1.
         11    1    3    3    0    0  0.65227996274E+01  0.75838442845E+01 -0.22160248610E+02  0.24313334363E+02  0.51100000000E-03 0. -1.
<mgrwt>
<rscale>  0 0.20006172E+02</rscale>
<asrwt>0</asrwt>
<pdfrwt beam="1">  1        3 0.33087718E-03 0.20006172E+02</pdfrwt>
<pdfrwt beam="2">  1       -3 0.71577165E-02 0.20006172E+02</pdfrwt>
<totfact> 0.16263228E+06</totfact>
</mgrwt>
</event>
<event>
 5    1  0.4133473E-007  0.2000226E+02  0.7818608E-02  0.1745283E+00
          3   -1    0    0  501    0  0.00000000000E+00  0.00000000000E+00  0.46600095965E+02  0.46600188765E+02  0.93000000000E-01 0.  1.
         -3   -1    0    0    0  501 -0.00000000000E+00 -0.00000000000E+00 -0.21453007331E+01  0.21473155883E+01  0.93000000000E-01 0. -1.
       1023    2    1    2    0    0  0.00000000000E+00  0.00000000000E+00  0.44454795231E+02  0.48747504353E+02  0.20002258912E+02 0.  0.
        -11    1    3    3    0    0 -0.71847058151E+01  0.69570276891E+01  0.22109048459E+02  0.24265824856E+02  0.51100000000E-03 0. -1.
         11    1    3    3    0    0  0.71847058151E+01 -0.69570276891E+01  0.22345746772E+02  0.24481679497E+02  0.51100000000E-03 0.  1.
<mgrwt>
<rscale>  0 0.20002259E+02</rscale>
<asrwt>0</asrwt>
<pdfrwt beam="1">  1        3 0.71694074E-02 0.20002259E+02</pdfrwt>
<pdfrwt beam="2">  1       -3 0.33020841E-03 0.20002259E+02</pdfrwt>
<totfact> 0.16264038E+06</totfact>
</mgrwt>
</event>
<event>
 5    1  0.4242756E-007  0.2000186E+02  0.7818608E-02  0.1745291E+00
          3   -1    0    0  501    0  0.00000000000E+00  0.00000000000E+00  0.11099788990E+02  0.11100178585E+02  0.93000000000E-01 0. -1.
         -3   -1    0    0    0  501 -0.00000000000E+00 -0.00000000000E+00 -0.90100653831E+01  0.90105453336E+01  0.93000000000E-01 0.  1.
       1023    2    1    2    0    0  0.00000000000E+00  0.00000000000E+00  0.20897236069E+01  0.20110723919E+02  0.20001856708E+02 0.  0.
        -11    1    3    3    0    0 -0.92681667416E+01 -0.37563970273E+01  0.94876804062E+00  0.10045376769E+02  0.51100000000E-03 0.  1.
         11    1    3    3    0    0  0.92681667416E+01  0.37563970273E+01  0.11409555663E+01  0.10065347150E+02  0.51100000000E-03 0. -1.
<mgrwt>
<rscale>  0 0.20001857E+02</rscale>
<asrwt>0</asrwt>
<pdfrwt beam="1">  1        3 0.17077267E-02 0.20001857E+02</pdfrwt>
<pdfrwt beam="2">  1       -3 0.13862308E-02 0.20001857E+02</pdfrwt>
<totfact> 0.17874761E+06</totfact>
</mgrwt>
</event>
<event>
 4    1  0.4133473E-007  0.2002050E+02  0.7818608E-02  0.1744921E+00
         -3   -1    0    0    0  501 -0.00000000000E+00  0.00000000000E+00  0.12898550000E+01  0.12932033565E+01  0.93000000000E-01 0.  1.
          3   -1    0    0  501    0  0.00000000000E+00 -0.00000000000E+00 -0.77583014637E+02  0.77583070377E+02  0.93000000000E-01 0. -1.
        -11    1    1    2    0    0 -0.78806628384E+01 -0.61721621353E+01 -0.37877772079E+02  0.39178132295E+02  0.51100000000E-03 0. -1.
         11    1    1    2    0    0  0.78806628384E+01  0.61721621353E+01 -0.38415387558E+02  0.39698141439E+02  0.51100000000E-03 0.  1.
<mgrwt>
<rscale>  0 0.20020498E+02</rscale>
<asrwt>0</asrwt>
<pdfrwt beam="2">  1        3 0.11936107E-01 0.20020498E+02</pdfrwt>
<pdfrwt beam="1">  1       -3 0.19870115E-03 0.20020498E+02</pdfrwt>
<totfact> 0.14922381E+06</totfact>
</mgrwt>
</event>
<event>
 4    1  0.4133473E-007  0.2002088E+02  0.7818608E-02  0.1744913E+00
         -3   -1    0    0    0  501 -0.00000000000E+00  0.00000000000E+00  0.24046606522E+01  0.24064583628E+01  0.93000000000E-01 0. -1.
          3   -1    0    0  501    0  0.00000000000E+00 -0.00000000000E+00 -0.41655356064E+02  0.41655459880E+02  0.93000000000E-01 0.  1.
        -11    1    1    2    0    0  0.51807805195E+01 -0.85574207411E+01 -0.18804976803E+02  0.21300166416E+02  0.51100000000E-03 0. -1.
         11    1    1    2    0    0 -0.51807805195E+01  0.85574207411E+01 -0.20445718609E+02  0.22761751827E+02  0.51100000000E-03 0.  1.
<mgrwt>
<rscale>  0 0.20020878E+02</rscale>
<asrwt>0</asrwt>
<pdfrwt beam="2">  1        3 0.64086621E-02 0.20020878E+02</pdfrwt>
<pdfrwt beam="1">  1       -3 0.37009409E-03 0.20020878E+02</pdfrwt>
<totfact> 0.16464505E+06</totfact>
</mgrwt>
</event>
<event>
 5    1  0.4133473E-007  0.2000795E+02  0.7818608E-02  0.1745170E+00
          3   -1    0    0  501    0  0.00000000000E+00  0.00000000000E+00  0.50711596045E+01  0.50720122963E+01  0.93000000000E-01 0.  1.
         -3   -1    0    0    0  501 -0.00000000000E+00 -0.00000000000E+00 -0.19732420467E+02  0.19732639622E+02  0.93000000000E-01 0. -1.
       1023    2    1    2    0    0  0.00000000000E+00  0.00000000000E+00 -0.14661260862E+02  0.24804651919E+02  0.20007953087E+02 0.  0.
        -11    1    3    3    0    0 -0.80911194169E+01  0.58778764141E+01 -0.76440219572E+01  0.12587561976E+02  0.51100000000E-03 0. -1.
         11    1    3    3    0    0  0.80911194169E+01 -0.58778764141E+01 -0.70172389049E+01  0.12217089943E+02  0.51100000000E-03 0.  1.
<mgrwt>
<rscale>  0 0.20007953E+02</rscale>
<asrwt>0</asrwt>
<pdfrwt beam="1">  1        3 0.78026086E-03 0.20007953E+02</pdfrwt>
<pdfrwt beam="2">  1       -3 0.30358394E-02 0.20007953E+02</pdfrwt>
<totfact> 0.17564867E+06</totfact>
</mgrwt>
</event>
<event>
 5    1  0.4308330E-007  0.2000114E+02  0.7818608E-02  0.1745305E+00
         -3   -1    0    0    0  501 -0.00000000000E+00  0.00000000000E+00  0.31390109199E+01  0.31403882810E+01  0.93000000000E-01 0. -1.
          3   -1    0    0  501    0  0.00000000000E+00 -0.00000000000E+00 -0.31852358804E+02  0.31852494570E+02  0.93000000000E-01 0.  1.
       1023    2    1    2    0    0  0.00000000000E+00  0.00000000000E+00 -0.28713347884E+02  0.34992882851E+02  0.20001137557E+02 0.  0.
        -11    1    3    3    0    0  0.31803894985E+01 -0.94813760311E+01 -0.14352103956E+02  0.17492691532E+02  0.51100000000E-03 0. -1.
         11    1    3    3    0    0 -0.31803894985E+01  0.94813760311E+01 -0.14361243928E+02  0.17500191319E+02  0.51100000000E-03 0.  1.
<mgrwt>
<rscale>  0 0.20001138E+02</rscale>
<asrwt>0</asrwt>
<pdfrwt beam="2">  1        3 0.49004791E-02 0.20001138E+02</pdfrwt>
<pdfrwt beam="1">  1       -3 0.48304117E-03 0.20001138E+02</pdfrwt>
<totfact> 0.16980366E+06</totfact>
</mgrwt>
</event>
<event>
 5    1  0.4133473E-007  0.2000675E+02  0.7818608E-02  0.1745194E+00
          3   -1    0    0  501    0  0.00000000000E+00  0.00000000000E+00  0.27144366855E+02  0.27144526170E+02  0.93000000000E-01 0. -1.
         -3   -1    0    0    0  501 -0.00000000000E+00 -0.00000000000E+00 -0.36857367836E+01  0.36869099037E+01  0.93000000000E-01 0.  1.
       1023    2    1    2    0    0  0.00000000000E+00  0.00000000000E+00  0.23458630072E+02  0.30831436073E+02  0.20006751998E+02 0.  0.
        -11    1    3    3    0    0  0.97689728750E+01 -0.21515111424E+01  0.11845660721E+02  0.15504241658E+02  0.51100000000E-03 0.  1.
         11    1    3    3    0    0 -0.97689728750E+01  0.21515111424E+01  0.11612969351E+02  0.15327194415E+02  0.51100000000E-03 0. -1.
<mgrwt>
<rscale>  0 0.20006752E+02</rscale>
<asrwt>0</asrwt>
<pdfrwt beam="1">  1        3 0.41761589E-02 0.20006752E+02</pdfrwt>
<pdfrwt beam="2">  1       -3 0.56713892E-03 0.20006752E+02</pdfrwt>
<totfact> 0.17205616E+06</totfact>
</mgrwt>
</event>
<event>
 5    1  0.4133473E-007  0.2000304E+02  0.7818608E-02  0.1745268E+00
         -3   -1    0    0    0  501 -0.00000000000E+00  0.00000000000E+00  0.86239305880E+01  0.86244320269E+01  0.93000000000E-01 0. -1.
          3   -1    0    0  501    0  0.00000000000E+00 -0.00000000000E+00 -0.11598142158E+02  0.11598515013E+02  0.93000000000E-01 0.  1.
       1023    2    1    2    0    0  0.00000000000E+00  0.00000000000E+00 -0.29742115700E+01  0.20222947040E+02  0.20003041082E+02 0.  0.
        -11    1    3    3    0    0  0.57607725227E+00 -0.99845639021E+01 -0.15718820215E+01  0.10123941657E+02  0.51100000000E-03 0. -1.
         11    1    3    3    0    0 -0.57607725227E+00  0.99845639021E+01 -0.14023295485E+01  0.10099005384E+02  0.51100000000E-03 0.  1.
<mgrwt>
<rscale>  0 0.20003041E+02</rscale>
<asrwt>0</asrwt>
<pdfrwt beam="2">  1        3 0.17843968E-02 0.20003041E+02</pdfrwt>
<pdfrwt beam="1">  1       -3 0.13268258E-02 0.20003041E+02</pdfrwt>
<totfact> 0.17865053E+06</totfact>
</mgrwt>
</event>
<event>
 5    1  0.4133473E-007  0.2000195E+02  0.7818608E-02  0.1745289E+00
         -3   -1    0    0    0  501 -0.00000000000E+00  0.00000000000E+00  0.31002440974E+02  0.31002580463E+02  0.93000000000E-01 0. -1.
          3   -1    0    0  501    0  0.00000000000E+00 -0.00000000000E+00 -0.32253631256E+01  0.32267036263E+01  0.93000000000E-01 0.  1.
       1023    2    1    2    0    0  0.00000000000E+00  0.00000000000E+00  0.27777077848E+02  0.34229284089E+02  0.20001945792E+02 0.  0.
        -11    1    3    3    0    0  0.59392123969E+01 -0.80458941833E+01  0.14049086547E+02  0.17244926505E+02  0.51100000000E-03 0. -1.
         11    1    3    3    0    0 -0.59392123969E+01  0.80458941833E+01  0.13727991301E+02  0.16984357583E+02  0.51100000000E-03 0.  1.
<mgrwt>
<rscale>  0 0.20001946E+02</rscale>
<asrwt>0</asrwt>
<pdfrwt beam="2">  1        3 0.49632355E-03 0.20001946E+02</pdfrwt>
<pdfrwt beam="1">  1       -3 0.47697202E-02 0.20001946E+02</pdfrwt>
<totfact> 0.17023300E+06</totfact>
</mgrwt>
</event>
<event>
 5    1  0.4133473E-007  0.2000295E+02  0.7818608E-02  0.1745269E+00
          3   -1    0    0  501    0  0.00000000000E+00  0.00000000000E+00  0.21972893120E+01  0.21992565382E+01  0.93000000000E-01 0. -1.
         -3   -1    0    0    0  501 -0.00000000000E+00 -0.00000000000E+00 -0.45501672861E+02  0.45501767901E+02  0.93000000000E-01 0.  1.
       1023    2    1    2    0    0  0.00000000000E+00  0.00000000000E+00 -0.43304383549E+02  0.47701024440E+02  0.20002952233E+02 0.  0.
        -11    1    3    3    0    0 -0.22150749067E+01 -0.97520371625E+01 -0.21995609852E+02  0.24162277183E+02  0.51100000000E-03 0. -1.
         11    1    3    3    0    0  0.22150749067E+01  0.97520371625E+01 -0.21308773697E+02  0.23538747256E+02  0.51100000000E-03 0.  1.
<mgrwt>
<rscale>  0 0.20002952E+02</rscale>
<asrwt>0</asrwt>
<pdfrwt beam="1">  1        3 0.33820318E-03 0.20002952E+02</pdfrwt>
<pdfrwt beam="2">  1       -3 0.70004153E-02 0.20002952E+02</pdfrwt>
<totfact> 0.16316618E+06</totfact>
</mgrwt>
</event>
<event>
 5    1  0.4133473E-007  0.2000322E+02  0.7818608E-02  0.1745264E+00
          3   -1    0    0  501    0  0.00000000000E+00  0.00000000000E+00  0.31939278374E+02  0.31939413772E+02  0.93000000000E-01 0. -1.
         -3   -1    0    0    0  501 -0.00000000000E+00 -0.00000000000E+00 -0.31311172899E+01  0.31324981218E+01  0.93000000000E-01 0.  1.
       1023    2    1    2    0    0  0.00000000000E+00  0.00000000000E+00  0.28808161084E+02  0.35071911893E+02  0.20003221210E+02 0.  0.
        -11    1    3    3    0    0 -0.74479619470E+01 -0.66748711038E+01  0.14266325230E+02  0.17422803370E+02  0.51100000000E-03 0.  1.
         11    1    3    3    0    0  0.74479619470E+01  0.66748711038E+01  0.14541835854E+02  0.17649108524E+02  0.51100000000E-03 0. -1.
<mgrwt>
<rscale>  0 0.20003221E+02</rscale>
<asrwt>0</asrwt>
<pdfrwt beam="1">  1        3 0.49138516E-02 0.20003221E+02</pdfrwt>
<pdfrwt beam="2">  1       -3 0.48182700E-03 0.20003221E+02</pdfrwt>
<totfact> 0.16972189E+06</totfact>
</mgrwt>
</event>
<event>
 5    1  0.4133473E-007  0.2000010E+02  0.7818608E-02  0.1745326E+00
         -3   -1    0    0    0  501 -0.00000000000E+00  0.00000000000E+00  0.48122428338E+01  0.48131413953E+01  0.93000000000E-01 0.  1.
          3   -1    0    0  501    0  0.00000000000E+00 -0.00000000000E+00 -0.20777588394E+02  0.20777796526E+02  0.93000000000E-01 0. -1.
       1023    2    1    2    0    0  0.00000000000E+00  0.00000000000E+00 -0.15965345560E+02  0.25590937921E+02  0.20000096121E+02 0.  0.
        -11    1    3    3    0    0  0.10861970058E+01 -0.99408754612E+01 -0.79973778358E+01  0.12804642962E+02  0.51100000000E-03 0.  1.
         11    1    3    3    0    0 -0.10861970058E+01  0.99408754612E+01 -0.79679677246E+01  0.12786294960E+02  0.51100000000E-03 0. -1.
<mgrwt>
<rscale>  0 0.20000096E+02</rscale>
<asrwt>0</asrwt>
<pdfrwt beam="2">  1        3 0.31966371E-02 0.20000096E+02</pdfrwt>
<pdfrwt beam="1">  1       -3 0.74043019E-03 0.20000096E+02</pdfrwt>
<totfact> 0.17530013E+06</totfact>
</mgrwt>
</event>
<event>
 4    1  0.4133473E-007  0.2007071E+02  0.7818608E-02  0.1743926E+00
          3   -1    0    0  501    0  0.00000000000E+00  0.00000000000E+00  0.14784581210E+02  0.14784873708E+02  0.93000000000E-01 0.  1.
         -3   -1    0    0    0  501 -0.00000000000E+00 -0.00000000000E+00 -0.68110372798E+01  0.68116721755E+01  0.93000000000E-01 0. -1.
        -11    1    1    2    0    0  0.84311668256E+01 -0.54386735519E+01  0.37595208040E+01  0.10714370769E+02  0.51100000000E-03 0.  1.
         11    1    1    2    0    0 -0.84311668256E+01  0.54386735519E+01  0.42140231263E+01  0.10882175114E+02  0.51100000000E-03 0. -1.
<mgrwt>
<rscale>  0 0.20070710E+02</rscale>
<asrwt>0</asrwt>
<pdfrwt beam="1">  1        3 0.22746223E-02 0.20070710E+02</pdfrwt>
<pdfrwt beam="2">  1       -3 0.10479232E-02 0.20070710E+02</pdfrwt>
<totfact> 0.17646666E+06</totfact>
</mgrwt>
</event>
<event>
 5    1  0.4133473E-007  0.2000390E+02  0.7818608E-02  0.1745250E+00
          3   -1    0    0  501    0  0.00000000000E+00  0.00000000000E+00  0.97983576657E+01  0.97987990052E+01  0.93000000000E-01 0. -1.
         -3   -1    0    0    0  501 -0.00000000000E+00 -0.00000000000E+00 -0.10208891706E+02  0.10209315298E+02  0.93000000000E-01 0.  1.
       1023    2    1    2    0    0  0.00000000000E+00  0.00000000000E+00 -0.41053404020E+00  0.20008114304E+02  0.20003902114E+02 0.  0.
        -11    1    3    3    0    0  0.98358863789E+01  0.18083790988E+01 -0.36063440290E+00  0.10007245038E+02  0.51100000000E-03 0.  1.
         11    1    3    3    0    0 -0.98358863789E+01 -0.18083790988E+01 -0.49899637302E-01  0.10000869265E+02  0.51100000000E-03 0. -1.
<mgrwt>
<rscale>  0 0.20003902E+02</rscale>
<asrwt>0</asrwt>
<pdfrwt beam="1">  1        3 0.15075062E-02 0.20003902E+02</pdfrwt>
<pdfrwt beam="2">  1       -3 0.15706653E-02 0.20003902E+02</pdfrwt>
<totfact> 0.17877599E+06</totfact>
</mgrwt>
</event>
<event>
 5    1  0.4133473E-007  0.2000168E+02  0.7818608E-02  0.1745295E+00
          3   -1    0    0  501    0  0.00000000000E+00  0.00000000000E+00  0.38170365969E+02  0.38170479263E+02  0.93000000000E-01 0. -1.
         -3   -1    0    0    0  501 -0.00000000000E+00 -0.00000000000E+00 -0.26193310969E+01  0.26209815709E+01  0.93000000000E-01 0.  1.
       1023    2    1    2    0    0  0.00000000000E+00  0.00000000000E+00  0.35551034872E+02  0.40791460834E+02  0.20001679843E+02 0.  0.
        -11    1    3    3    0    0  0.83353897160E+01 -0.55258754270E+01  0.17668028812E+02  0.20302050717E+02  0.51100000000E-03 0.  1.
         11    1    3    3    0    0 -0.83353897160E+01  0.55258754270E+01  0.17883006060E+02  0.20489410117E+02  0.51100000000E-03 0. -1.
<mgrwt>
<rscale>  0 0.20001680E+02</rscale>
<asrwt>0</asrwt>
<pdfrwt beam="1">  1        3 0.58724992E-02 0.20001680E+02</pdfrwt>
<pdfrwt beam="2">  1       -3 0.40310972E-03 0.20001680E+02</pdfrwt>
<totfact> 0.16667229E+06</totfact>
</mgrwt>
</event>
<event>
 5    1  0.4252933E-007  0.2000085E+02  0.7818608E-02  0.1745311E+00
         -3   -1    0    0    0  501 -0.00000000000E+00  0.00000000000E+00  0.28087774528E+02  0.28087928492E+02  0.93000000000E-01 0. -1.
          3   -1    0    0  501    0  0.00000000000E+00 -0.00000000000E+00 -0.35597997786E+01  0.35610143869E+01  0.93000000000E-01 0.  1.
       1023    2    1    2    0    0  0.00000000000E+00  0.00000000000E+00  0.24527974750E+02  0.31648942878E+02  0.20000850982E+02 0.  0.
        -11    1    3    3    0    0  0.80737440070E+01 -0.59010842818E+01  0.12233477853E+02  0.15800826517E+02  0.51100000000E-03 0.  1.
         11    1    3    3    0    0 -0.80737440070E+01  0.59010842818E+01  0.12294496897E+02  0.15848116361E+02  0.51100000000E-03 0. -1.
<mgrwt>
<rscale>  0 0.20000851E+02</rscale>
<asrwt>0</asrwt>
<pdfrwt beam="2">  1        3 0.54776678E-03 0.20000851E+02</pdfrwt>
<pdfrwt beam="1">  1       -3 0.43213014E-02 0.20000851E+02</pdfrwt>
<totfact> 0.17171228E+06</totfact>
</mgrwt>
</event>
<event>
 5    1  0.4185610E-007  0.2000081E+02  0.7818608E-02  0.1745312E+00
         -3   -1    0    0    0  501 -0.00000000000E+00  0.00000000000E+00  0.55806281143E+01  0.55814029733E+01  0.93000000000E-01 0. -1.
          3   -1    0    0  501    0  0.00000000000E+00 -0.00000000000E+00 -0.17918447369E+02  0.17918688711E+02  0.93000000000E-01 0.  1.
       1023    2    1    2    0    0  0.00000000000E+00  0.00000000000E+00 -0.12337819255E+02  0.23500091684E+02  0.20000813113E+02 0.  0.
        -11    1    3    3    0    0 -0.52359110219E+01  0.85199928864E+01 -0.62342019838E+01  0.11784325082E+02  0.51100000000E-03 0.  1.
         11    1    3    3    0    0  0.52359110219E+01 -0.85199928864E+01 -0.61036172709E+01  0.11715766602E+02  0.51100000000E-03 0. -1.
<mgrwt>
<rscale>  0 0.20000813E+02</rscale>
<asrwt>0</asrwt>
<pdfrwt beam="2">  1        3 0.27567623E-02 0.20000813E+02</pdfrwt>
<pdfrwt beam="1">  1       -3 0.85863635E-03 0.20000813E+02</pdfrwt>
<totfact> 0.17658609E+06</totfact>
</mgrwt>
</event>
<event>
 4    1  0.4133473E-007  0.2001381E+02  0.7818608E-02  0.1745054E+00
         -3   -1    0    0    0  501 -0.00000000000E+00  0.00000000000E+00  0.22371247821E+02  0.22371441126E+02  0.93000000000E-01 0. -1.
          3   -1    0    0  501    0  0.00000000000E+00 -0.00000000000E+00 -0.44755041549E+01  0.44764703105E+01  0.93000000000E-01 0.  1.
        -11    1    1    2    0    0  0.19132002987E+01  0.98222258498E+01  0.88922291466E+01  0.13386866530E+02  0.51100000000E-03 0.  1.
         11    1    1    2    0    0 -0.19132002987E+01 -0.98222258498E+01  0.90035145195E+01  0.13461044907E+02  0.51100000000E-03 0. -1.
<mgrwt>
<rscale>  0 0.20013813E+02</rscale>
<asrwt>0</asrwt>
<pdfrwt beam="2">  1        3 0.68862829E-03 0.20013813E+02</pdfrwt>
<pdfrwt beam="1">  1       -3 0.34418196E-02 0.20013813E+02</pdfrwt>
<totfact> 0.17429123E+06</totfact>
</mgrwt>
</event>
<event>
 5    1  0.4133473E-007  0.2000073E+02  0.7818608E-02  0.1745314E+00
         -3   -1    0    0    0  501 -0.00000000000E+00  0.00000000000E+00  0.35001384752E+01  0.35013737797E+01  0.93000000000E-01 0. -1.
          3   -1    0    0  501    0  0.00000000000E+00 -0.00000000000E+00 -0.28566040482E+02  0.28566191868E+02  0.93000000000E-01 0.  1.
       1023    2    1    2    0    0  0.00000000000E+00  0.00000000000E+00 -0.25065902007E+02  0.32067565648E+02  0.20000733065E+02 0.  0.
        -11    1    3    3    0    0 -0.95586517077E+01 -0.29390241690E+01 -0.12467922854E+02  0.15982952984E+02  0.51100000000E-03 0. -1.
         11    1    3    3    0    0  0.95586517077E+01  0.29390241690E+01 -0.12597979154E+02  0.16084612664E+02  0.51100000000E-03 0.  1.
<mgrwt>
<rscale>  0 0.20000733E+02</rscale>
<asrwt>0</asrwt>
<pdfrwt beam="2">  1        3 0.43948820E-02 0.20000733E+02</pdfrwt>
<pdfrwt beam="1">  1       -3 0.53858953E-03 0.20000733E+02</pdfrwt>
<totfact> 0.17145670E+06</totfact>
</mgrwt>
</event>
<event>
 5    1  0.4376892E-007  0.2000123E+02  0.7818608E-02  0.1745304E+00
         -3   -1    0    0    0  501 -0.00000000000E+00  0.00000000000E+00  0.13763363266E+02  0.13763677466E+02  0.93000000000E-01 0. -1.
          3   -1    0    0  501    0  0.00000000000E+00 -0.00000000000E+00 -0.72658656248E+01  0.72664607807E+01  0.93000000000E-01 0.  1.
       1023    2    1    2    0    0  0.00000000000E+00  0.00000000000E+00  0.64974976411E+01  0.21030138247E+02  0.20001230939E+02 0.  0.
        -11    1    3    3    0    0  0.58007443927E+01  0.81463760827E+01  0.32327780302E+01  0.10510134768E+02  0.51100000000E-03 0. -1.
         11    1    3    3    0    0 -0.58007443927E+01 -0.81463760827E+01  0.32647196109E+01  0.10520003479E+02  0.51100000000E-03 0.  1.
<mgrwt>
<rscale>  0 0.20001231E+02</rscale>
<asrwt>0</asrwt>
<pdfrwt beam="2">  1        3 0.11178954E-02 0.20001231E+02</pdfrwt>
<pdfrwt beam="1">  1       -3 0.21175104E-02 0.20001231E+02</pdfrwt>
<totfact> 0.17816310E+06</totfact>
</mgrwt>
</event>
<event>
 5    1  0.4245622E-007  0.2000081E+02  0.7818608E-02  0.1745312E+00
          3   -1    0    0  501    0  0.00000000000E+00  0.00000000000E+00  0.15013608004E+02  0.15013896040E+02  0.93000000000E-01 0. -1.
         -3   -1    0    0    0  501 -0.00000000000E+00 -0.00000000000E+00 -0.66604857174E+01  0.66611349627E+01  0.93000000000E-01 0.  1.
       1023    2    1    2    0    0  0.00000000000E+00  0.00000000000E+00  0.83531222863E+01  0.21675031002E+02  0.20000807909E+02 0.  0.
        -11    1    3    3    0    0  0.99745529963E+01  0.71785969127E+00  0.41414620117E+01  0.10823989000E+02  0.51100000000E-03 0.  1.
         11    1    3    3    0    0 -0.99745529963E+01 -0.71785969127E+00  0.42116602746E+01  0.10851042003E+02  0.51100000000E-03 0. -1.
<mgrwt>
<rscale>  0 0.20000808E+02</rscale>
<asrwt>0</asrwt>
<pdfrwt beam="1">  1        3 0.23098579E-02 0.20000808E+02</pdfrwt>
<pdfrwt beam="2">  1       -3 0.10247622E-02 0.20000808E+02</pdfrwt>
<totfact> 0.17774781E+06</totfact>
</mgrwt>
</event>
<event>
 5    1  0.4133473E-007  0.2000022E+02  0.7818608E-02  0.1745324E+00
         -3   -1    0    0    0  501 -0.00000000000E+00  0.00000000000E+00  0.79546472733E+01  0.79551908992E+01  0.93000000000E-01 0.  1.
          3   -1    0    0  501    0  0.00000000000E+00 -0.00000000000E+00 -0.12570400979E+02  0.12570744996E+02  0.93000000000E-01 0. -1.
       1023    2    1    2    0    0  0.00000000000E+00  0.00000000000E+00 -0.46157537053E+01  0.20525935896E+02  0.20000221552E+02 0.  0.
        -11    1    3    3    0    0 -0.26597025095E+01 -0.96398544441E+01 -0.23463334890E+01  0.10271615854E+02  0.51100000000E-03 0. -1.
         11    1    3    3    0    0  0.26597025095E+01  0.96398544441E+01 -0.22694202163E+01  0.10254320042E+02  0.51100000000E-03 0.  1.
<mgrwt>
<rscale>  0 0.20000222E+02</rscale>
<asrwt>0</asrwt>
<pdfrwt beam="2">  1        3 0.19339761E-02 0.20000222E+02</pdfrwt>
<pdfrwt beam="1">  1       -3 0.12238602E-02 0.20000222E+02</pdfrwt>
<totfact> 0.17850605E+06</totfact>
</mgrwt>
</event>
<event>
 5    1  0.4133473E-007  0.2000057E+02  0.7818608E-02  0.1745317E+00
          3   -1    0    0  501    0  0.00000000000E+00  0.00000000000E+00  0.23340587331E+02  0.23340772608E+02  0.93000000000E-01 0. -1.
         -3   -1    0    0    0  501 -0.00000000000E+00 -0.00000000000E+00 -0.42839182141E+01  0.42849275683E+01  0.93000000000E-01 0.  1.
       1023    2    1    2    0    0  0.00000000000E+00  0.00000000000E+00  0.19056669116E+02  0.27625700176E+02  0.20000566802E+02 0.  0.
        -11    1    3    3    0    0  0.98430999467E+01  0.17660826511E+01  0.95258058287E+01  0.13811105728E+02  0.51100000000E-03 0.  1.
         11    1    3    3    0    0 -0.98430999467E+01 -0.17660826511E+01  0.95308632878E+01  0.13814594448E+02  0.51100000000E-03 0. -1.
<mgrwt>
<rscale>  0 0.20000567E+02</rscale>
<asrwt>0</asrwt>
<pdfrwt beam="1">  1        3 0.35909516E-02 0.20000567E+02</pdfrwt>
<pdfrwt beam="2">  1       -3 0.65915622E-03 0.20000567E+02</pdfrwt>
<totfact> 0.17405784E+06</totfact>
</mgrwt>
</event>
<event>
 5    1  0.4133473E-007  0.2000028E+02  0.7818608E-02  0.1745322E+00
          3   -1    0    0  501    0  0.00000000000E+00  0.00000000000E+00  0.20155295827E+02  0.20155510385E+02  0.93000000000E-01 0. -1.
         -3   -1    0    0    0  501 -0.00000000000E+00 -0.00000000000E+00 -0.49609385848E+01  0.49618102183E+01  0.93000000000E-01 0.  1.
       1023    2    1    2    0    0  0.00000000000E+00  0.00000000000E+00  0.15194357242E+02  0.25117320603E+02  0.20000282555E+02 0.  0.
        -11    1    3    3    0    0  0.90648761793E+01  0.42226573172E+01  0.76012179010E+01  0.12561103805E+02  0.51100000000E-03 0. -1.
         11    1    3    3    0    0 -0.90648761793E+01 -0.42226573172E+01  0.75931393413E+01  0.12556216798E+02  0.51100000000E-03 0.  1.
<mgrwt>
<rscale>  0 0.20000283E+02</rscale>
<asrwt>0</asrwt>
<pdfrwt beam="1">  1        3 0.31008983E-02 0.20000283E+02</pdfrwt>
<pdfrwt beam="2">  1       -3 0.76330488E-03 0.20000283E+02</pdfrwt>
<totfact> 0.17558825E+06</totfact>
</mgrwt>
</event>
<event>
 5    1  0.4133473E-007  0.2000004E+02  0.7818608E-02  0.1745327E+00
          3   -1    0    0  501    0  0.00000000000E+00  0.00000000000E+00  0.46840696496E+01  0.46849927942E+01  0.93000000000E-01 0.  1.
         -3   -1    0    0    0  501 -0.00000000000E+00 -0.00000000000E+00 -0.21345907810E+02  0.21346110400E+02  0.93000000000E-01 0. -1.
       1023    2    1    2    0    0  0.00000000000E+00  0.00000000000E+00 -0.16661838160E+02  0.26031103195E+02  0.20000037066E+02 0.  0.
        -11    1    3    3    0    0  0.97835089761E+01  0.20696109989E+01 -0.83383764282E+01  0.13020324854E+02  0.51100000000E-03 0. -1.
         11    1    3    3    0    0 -0.97835089761E+01 -0.20696109989E+01 -0.83234617320E+01  0.13010778341E+02  0.51100000000E-03 0.  1.
<mgrwt>
<rscale>  0 0.20000037E+02</rscale>
<asrwt>0</asrwt>
<pdfrwt beam="1">  1        3 0.72071271E-03 0.20000037E+02</pdfrwt>
<pdfrwt beam="2">  1       -3 0.32840724E-02 0.20000037E+02</pdfrwt>
<totfact> 0.17504511E+06</totfact>
</mgrwt>
</event>
<event>
 5    1  0.4133473E-007  0.2000093E+02  0.7818608E-02  0.1745310E+00
         -3   -1    0    0    0  501 -0.00000000000E+00  0.00000000000E+00  0.97106646837E+00  0.97550965449E+00  0.93000000000E-01 0.  1.
          3   -1    0    0  501    0  0.00000000000E+00 -0.00000000000E+00 -0.10274956912E+03  0.10274961120E+03  0.93000000000E-01 0. -1.
       1023    2    1    2    0    0  0.00000000000E+00  0.00000000000E+00 -0.10177850265E+03  0.10372512086E+03  0.20000927375E+02 0.  0.
        -11    1    3    3    0    0  0.42335930220E+01 -0.90598349059E+01 -0.51268763795E+02  0.52234950557E+02  0.51100000000E-03 0. -1.
         11    1    3    3    0    0 -0.42335930220E+01  0.90598349059E+01 -0.50509738853E+02  0.51490170302E+02  0.51100000000E-03 0.  1.
<mgrwt>
<rscale>  0 0.20000927E+02</rscale>
<asrwt>0</asrwt>
<pdfrwt beam="2">  1        3 0.15807962E-01 0.20000927E+02</pdfrwt>
<pdfrwt beam="1">  1       -3 0.14973994E-03 0.20000927E+02</pdfrwt>
<totfact> 0.14048987E+06</totfact>
</mgrwt>
</event>
<event>
 5    1  0.4138413E-007  0.2000123E+02  0.7818608E-02  0.1745304E+00
         -3   -1    0    0    0  501 -0.00000000000E+00  0.00000000000E+00  0.22963247252E+01  0.22982071803E+01  0.93000000000E-01 0. -1.
          3   -1    0    0  501    0  0.00000000000E+00 -0.00000000000E+00 -0.43533440469E+02  0.43533539806E+02  0.93000000000E-01 0.  1.
       1023    2    1    2    0    0  0.00000000000E+00  0.00000000000E+00 -0.41237115744E+02  0.45831746987E+02  0.20001232886E+02 0.  0.
        -11    1    3    3    0    0 -0.93379467822E+00 -0.99565929879E+01 -0.20432222925E+02  0.22748218619E+02  0.51100000000E-03 0. -1.
         11    1    3    3    0    0  0.93379467822E+00  0.99565929879E+01 -0.20804892819E+02  0.23083528368E+02  0.51100000000E-03 0.  1.
<mgrwt>
<rscale>  0 0.20001233E+02</rscale>
<asrwt>0</asrwt>
<pdfrwt beam="2">  1        3 0.66976042E-02 0.20001233E+02</pdfrwt>
<pdfrwt beam="1">  1       -3 0.35343320E-03 0.20001233E+02</pdfrwt>
<totfact> 0.16409947E+06</totfact>
</mgrwt>
</event>
<event>
 5    1  0.4328360E-007  0.2000106E+02  0.7818608E-02  0.1745307E+00
          3   -1    0    0  501    0  0.00000000000E+00  0.00000000000E+00  0.11677130211E+02  0.11677500544E+02  0.93000000000E-01 0. -1.
         -3   -1    0    0    0  501 -0.00000000000E+00 -0.00000000000E+00 -0.85638934892E+01  0.85643984433E+01  0.93000000000E-01 0.  1.
       1023    2    1    2    0    0  0.00000000000E+00  0.00000000000E+00  0.31132367213E+01  0.20241898987E+02  0.20001055765E+02 0.  0.
        -11    1    3    3    0    0 -0.91360228106E+01 -0.40670860040E+01  0.16067763455E+01  0.10128663873E+02  0.51100000000E-03 0. -1.
         11    1    3    3    0    0  0.91360228106E+01  0.40670860040E+01  0.15064603759E+01  0.10113235115E+02  0.51100000000E-03 0.  1.
<mgrwt>
<rscale>  0 0.20001056E+02</rscale>
<asrwt>0</asrwt>
<pdfrwt beam="1">  1        3 0.17965489E-02 0.20001056E+02</pdfrwt>
<pdfrwt beam="2">  1       -3 0.13175894E-02 0.20001056E+02</pdfrwt>
<totfact> 0.17867624E+06</totfact>
</mgrwt>
</event>
<event>
 5    1  0.4133473E-007  0.2000568E+02  0.7818608E-02  0.1745215E+00
          3   -1    0    0  501    0  0.00000000000E+00  0.00000000000E+00  0.27022396450E+02  0.27022556484E+02  0.93000000000E-01 0.  1.
         -3   -1    0    0    0  501 -0.00000000000E+00 -0.00000000000E+00 -0.37019807543E+01  0.37031487285E+01  0.93000000000E-01 0. -1.
       1023    2    1    2    0    0  0.00000000000E+00  0.00000000000E+00  0.23320415696E+02  0.30725705212E+02  0.20005678508E+02 0.  0.
        -11    1    3    3    0    0  0.24766652067E+01 -0.96913819184E+01  0.11669779833E+02  0.15370117620E+02  0.51100000000E-03 0.  1.
         11    1    3    3    0    0 -0.24766652067E+01  0.96913819184E+01  0.11650635863E+02  0.15355587592E+02  0.51100000000E-03 0. -1.
<mgrwt>
<rscale>  0 0.20005679E+02</rscale>
<asrwt>0</asrwt>
<pdfrwt beam="1">  1        3 0.41573939E-02 0.20005679E+02</pdfrwt>
<pdfrwt beam="2">  1       -3 0.56963766E-03 0.20005679E+02</pdfrwt>
<totfact> 0.17213712E+06</totfact>
</mgrwt>
</event>
<event>
 5    1  0.4133473E-007  0.2000061E+02  0.7818608E-02  0.1745316E+00
          3   -1    0    0  501    0  0.00000000000E+00  0.00000000000E+00  0.17984255122E+01  0.18008285102E+01  0.93000000000E-01 0. -1.
         -3   -1    0    0    0  501 -0.00000000000E+00 -0.00000000000E+00 -0.55567991446E+02  0.55568069270E+02  0.93000000000E-01 0.  1.
       1023    2    1    2    0    0  0.00000000000E+00  0.00000000000E+00 -0.53769565934E+02  0.57368897780E+02  0.20000605285E+02 0.  0.
        -11    1    3    3    0    0 -0.93579847772E+01 -0.35261110042E+01 -0.26961469214E+02  0.28756323832E+02  0.51100000000E-03 0.  1.
         11    1    3    3    0    0  0.93579847772E+01  0.35261110042E+01 -0.26808096720E+02  0.28612573948E+02  0.51100000000E-03 0. -1.
<mgrwt>
<rscale>  0 0.20000605E+02</rscale>
<asrwt>0</asrwt>
<pdfrwt beam="1">  1        3 0.27687172E-03 0.20000605E+02</pdfrwt>
<pdfrwt beam="2">  1       -3 0.85491113E-02 0.20000605E+02</pdfrwt>
<totfact> 0.15863773E+06</totfact>
</mgrwt>
</event>
<event>
 5    1  0.4231379E-007  0.2000059E+02  0.7818608E-02  0.1745316E+00
          3   -1    0    0  501    0  0.00000000000E+00  0.00000000000E+00  0.12826561648E+02  0.12826898796E+02  0.93000000000E-01 0.  1.
         -3   -1    0    0    0  501 -0.00000000000E+00 -0.00000000000E+00 -0.77960672086E+01  0.77966218916E+01  0.93000000000E-01 0. -1.
       1023    2    1    2    0    0  0.00000000000E+00  0.00000000000E+00  0.50304944394E+01  0.20623520687E+02  0.20000593272E+02 0.  0.
        -11    1    3    3    0    0 -0.97375728589E+01  0.22762172922E+01  0.25839729052E+01  0.10328523930E+02  0.51100000000E-03 0.  1.
         11    1    3    3    0    0  0.97375728589E+01 -0.22762172922E+01  0.24465215342E+01  0.10294996757E+02  0.51100000000E-03 0. -1.
<mgrwt>
<rscale>  0 0.20000593E+02</rscale>
<asrwt>0</asrwt>
<pdfrwt beam="1">  1        3 0.19733858E-02 0.20000593E+02</pdfrwt>
<pdfrwt beam="2">  1       -3 0.11994636E-02 0.20000593E+02</pdfrwt>
<totfact> 0.17843524E+06</totfact>
</mgrwt>
</event>
<event>
 4    1  0.4133473E-007  0.2005070E+02  0.7818608E-02  0.1744322E+00
         -3   -1    0    0    0  501 -0.00000000000E+00  0.00000000000E+00  0.75138008185E+02  0.75138065739E+02  0.93000000000E-01 0.  1.
          3   -1    0    0  501    0  0.00000000000E+00 -0.00000000000E+00 -0.13359656099E+01  0.13391986824E+01  0.93000000000E-01 0. -1.
        -11    1    1    2    0    0  0.71543893970E+01  0.70167861973E+01  0.35775705625E+02  0.37152680783E+02  0.51100000000E-03 0. -1.
         11    1    1    2    0    0 -0.71543893970E+01 -0.70167861973E+01  0.38026336950E+02  0.39324583638E+02  0.51100000000E-03 0.  1.
<mgrwt>
<rscale>  0 0.20050698E+02</rscale>
<asrwt>0</asrwt>
<pdfrwt beam="2">  1        3 0.20578625E-03 0.20050698E+02</pdfrwt>
<pdfrwt beam="1">  1       -3 0.11559949E-01 0.20050698E+02</pdfrwt>
<totfact> 0.14971155E+06</totfact>
</mgrwt>
</event>
<event>
 5    1  0.4133473E-007  0.2000066E+02  0.7818608E-02  0.1745315E+00
         -3   -1    0    0    0  501 -0.00000000000E+00  0.00000000000E+00  0.20742858081E+02  0.20743066561E+02  0.93000000000E-01 0.  1.
          3   -1    0    0  501    0  0.00000000000E+00 -0.00000000000E+00 -0.48205727506E+01  0.48214697597E+01  0.93000000000E-01 0. -1.
       1023    2    1    2    0    0  0.00000000000E+00  0.00000000000E+00  0.15922285331E+02  0.25564536321E+02  0.20000658668E+02 0.  0.
        -11    1    3    3    0    0 -0.91448760059E+01  0.40468973324E+01  0.79882976539E+01  0.12799181023E+02  0.51100000000E-03 0.  1.
         11    1    3    3    0    0  0.91448760059E+01 -0.40468973324E+01  0.79339876766E+01  0.12765355298E+02  0.51100000000E-03 0. -1.
<mgrwt>
<rscale>  0 0.20000659E+02</rscale>
<asrwt>0</asrwt>
<pdfrwt beam="2">  1        3 0.74171162E-03 0.20000659E+02</pdfrwt>
<pdfrwt beam="1">  1       -3 0.31912940E-02 0.20000659E+02</pdfrwt>
<totfact> 0.17531857E+06</totfact>
</mgrwt>
</event>
<event>
 5    1  0.4133473E-007  0.2000030E+02  0.7818608E-02  0.1745322E+00
          3   -1    0    0  501    0  0.00000000000E+00  0.00000000000E+00  0.90666965178E+01  0.90671734706E+01  0.93000000000E-01 0. -1.
         -3   -1    0    0    0  501 -0.00000000000E+00 -0.00000000000E+00 -0.11028746006E+02  0.11029138110E+02  0.93000000000E-01 0.  1.
       1023    2    1    2    0    0  0.00000000000E+00  0.00000000000E+00 -0.19620494877E+01  0.20096311581E+02  0.20000302522E+02 0.  0.
        -11    1    3    3    0    0  0.96664938934E+01 -0.25613249444E+01 -0.94165353250E+00  0.10044311888E+02  0.51100000000E-03 0.  1.
         11    1    3    3    0    0 -0.96664938934E+01  0.25613249444E+01 -0.10203959553E+01  0.10051999693E+02  0.51100000000E-03 0. -1.
<mgrwt>
<rscale>  0 0.20000303E+02</rscale>
<asrwt>0</asrwt>
<pdfrwt beam="1">  1        3 0.13949432E-02 0.20000303E+02</pdfrwt>
<pdfrwt beam="2">  1       -3 0.16967970E-02 0.20000303E+02</pdfrwt>
<totfact> 0.17878871E+06</totfact>
</mgrwt>
</event>
<event>
 5    1  0.4133473E-007  0.2000091E+02  0.7818608E-02  0.1745310E+00
         -3   -1    0    0    0  501 -0.00000000000E+00  0.00000000000E+00  0.11344429480E+01  0.11382485678E+01  0.93000000000E-01 0.  1.
          3   -1    0    0  501    0  0.00000000000E+00 -0.00000000000E+00 -0.88005563764E+02  0.88005612903E+02  0.93000000000E-01 0. -1.
       1023    2    1    2    0    0  0.00000000000E+00  0.00000000000E+00 -0.86871120816E+02  0.89143861471E+02  0.20000910131E+02 0.  0.
        -11    1    3    3    0    0  0.64327254065E-01  0.10000224471E+02 -0.43338546450E+02  0.44477390168E+02  0.51100000000E-03 0.  1.
         11    1    3    3    0    0 -0.64327254065E-01 -0.10000224471E+02 -0.43532574366E+02  0.44666471303E+02  0.51100000000E-03 0. -1.
<mgrwt>
<rscale>  0 0.20000910E+02</rscale>
<asrwt>0</asrwt>
<pdfrwt beam="2">  1        3 0.13539609E-01 0.20000910E+02</pdfrwt>
<pdfrwt beam="1">  1       -3 0.17482627E-03 0.20000910E+02</pdfrwt>
<totfact> 0.14564156E+06</totfact>
</mgrwt>
</event>
<event>
 5    1  0.4166064E-007  0.2000040E+02  0.7818608E-02  0.1745320E+00
          3   -1    0    0  501    0  0.00000000000E+00  0.00000000000E+00  0.68122969347E+01  0.68129317130E+01  0.93000000000E-01 0.  1.
         -3   -1    0    0    0  501 -0.00000000000E+00 -0.00000000000E+00 -0.14678463324E+02  0.14678757937E+02  0.93000000000E-01 0. -1.
       1023    2    1    2    0    0  0.00000000000E+00  0.00000000000E+00 -0.78661663898E+01  0.21491689650E+02  0.20000403754E+02 0.  0.
        -11    1    3    3    0    0  0.23324130672E+01  0.97243679242E+01 -0.39077663357E+01  0.10736578609E+02  0.51100000000E-03 0.  1.
         11    1    3    3    0    0 -0.23324130672E+01 -0.97243679242E+01 -0.39584000541E+01  0.10755111040E+02  0.51100000000E-03 0. -1.
<mgrwt>
<rscale>  0 0.20000404E+02</rscale>
<asrwt>0</asrwt>
<pdfrwt beam="1">  1        3 0.10481172E-02 0.20000404E+02</pdfrwt>
<pdfrwt beam="2">  1       -3 0.22582966E-02 0.20000404E+02</pdfrwt>
<totfact> 0.17788064E+06</totfact>
</mgrwt>
</event>
<event>
 4    1  0.4133473E-007  0.2028211E+02  0.7818608E-02  0.1739775E+00
         -3   -1    0    0    0  501 -0.00000000000E+00  0.00000000000E+00  0.52042769431E+02  0.52042852526E+02  0.93000000000E-01 0.  1.
          3   -1    0    0  501    0  0.00000000000E+00 -0.00000000000E+00 -0.19749072088E+01  0.19770957193E+01  0.93000000000E-01 0. -1.
        -11    1    1    2    0    0  0.81457546776E+01 -0.60371224714E+01  0.25572101655E+02  0.27508772243E+02  0.51100000000E-03 0. -1.
         11    1    1    2    0    0 -0.81457546776E+01  0.60371224714E+01  0.24495760567E+02  0.26511176002E+02  0.51100000000E-03 0.  1.
<mgrwt>
<rscale>  0 0.20282110E+02</rscale>
<asrwt>0</asrwt>
<pdfrwt beam="2">  1        3 0.30400659E-03 0.20282110E+02</pdfrwt>
<pdfrwt beam="1">  1       -3 0.80067552E-02 0.20282110E+02</pdfrwt>
<totfact> 0.15543318E+06</totfact>
</mgrwt>
</event>
<event>
 5    1  0.4133473E-007  0.2000033E+02  0.7818608E-02  0.1745322E+00
         -3   -1    0    0    0  501 -0.00000000000E+00  0.00000000000E+00  0.41304205963E+02  0.41304310662E+02  0.93000000000E-01 0.  1.
          3   -1    0    0  501    0  0.00000000000E+00 -0.00000000000E+00 -0.24201398451E+01  0.24219260662E+01  0.93000000000E-01 0. -1.
       1023    2    1    2    0    0  0.00000000000E+00  0.00000000000E+00  0.38884066118E+02  0.43726236728E+02  0.20000329510E+02 0.  0.
        -11    1    3    3    0    0 -0.95534820561E+01 -0.29548726916E+01  0.19322228941E+02  0.21756581154E+02  0.51100000000E-03 0. -1.
         11    1    3    3    0    0  0.95534820561E+01  0.29548726916E+01  0.19561837177E+02  0.21969655574E+02  0.51100000000E-03 0.  1.
<mgrwt>
<rscale>  0 0.20000330E+02</rscale>
<asrwt>0</asrwt>
<pdfrwt beam="2">  1        3 0.37247469E-03 0.20000330E+02</pdfrwt>
<pdfrwt beam="1">  1       -3 0.63546382E-02 0.20000330E+02</pdfrwt>
<totfact> 0.16520365E+06</totfact>
</mgrwt>
</event>
<event>
 5    1  0.4133473E-007  0.2000097E+02  0.7818608E-02  0.1745309E+00
          3   -1    0    0  501    0  0.00000000000E+00  0.00000000000E+00  0.20341219919E+01  0.20362468608E+01  0.93000000000E-01 0.  1.
         -3   -1    0    0    0  501 -0.00000000000E+00 -0.00000000000E+00 -0.49138182499E+02  0.49138270506E+02  0.93000000000E-01 0. -1.
       1023    2    1    2    0    0  0.00000000000E+00  0.00000000000E+00 -0.47104060508E+02  0.51174517367E+02  0.20000967763E+02 0.  0.
        -11    1    3    3    0    0 -0.12253436332E+01  0.99251293030E+01 -0.23540906134E+02  0.25577019384E+02  0.51100000000E-03 0.  1.
         11    1    3    3    0    0  0.12253436332E+01 -0.99251293030E+01 -0.23563154374E+02  0.25597497983E+02  0.51100000000E-03 0. -1.
<mgrwt>
<rscale>  0 0.20000968E+02</rscale>
<asrwt>0</asrwt>
<pdfrwt beam="1">  1        3 0.31311210E-03 0.20000968E+02</pdfrwt>
<pdfrwt beam="2">  1       -3 0.75598897E-02 0.20000968E+02</pdfrwt>
<totfact> 0.16151688E+06</totfact>
</mgrwt>
</event>
<event>
 5    1  0.4133473E-007  0.2000067E+02  0.7818608E-02  0.1745315E+00
          3   -1    0    0  501    0  0.00000000000E+00  0.00000000000E+00  0.19596624231E+02  0.19596844905E+02  0.93000000000E-01 0. -1.
         -3   -1    0    0    0  501 -0.00000000000E+00 -0.00000000000E+00 -0.51025881003E+01  0.51034355410E+01  0.93000000000E-01 0.  1.
       1023    2    1    2    0    0  0.00000000000E+00  0.00000000000E+00  0.14494036130E+02  0.24700280446E+02  0.20000669258E+02 0.  0.
        -11    1    3    3    0    0 -0.98833130455E+01 -0.15242223299E+01  0.73207239744E+01  0.12393390587E+02  0.51100000000E-03 0. -1.
         11    1    3    3    0    0  0.98833130455E+01  0.15242223299E+01  0.71733121560E+01  0.12306889860E+02  0.51100000000E-03 0.  1.
<mgrwt>
<rscale>  0 0.20000669E+02</rscale>
<asrwt>0</asrwt>
<pdfrwt beam="1">  1        3 0.30149474E-02 0.20000669E+02</pdfrwt>
<pdfrwt beam="2">  1       -3 0.78509571E-03 0.20000669E+02</pdfrwt>
<totfact> 0.17583922E+06</totfact>
</mgrwt>
</event>
<event>
 5    1  0.4133473E-007  0.2000053E+02  0.7818608E-02  0.1745318E+00
          3   -1    0    0  501    0  0.00000000000E+00  0.00000000000E+00  0.16939949609E+02  0.16940204891E+02  0.93000000000E-01 0. -1.
         -3   -1    0    0    0  501 -0.00000000000E+00 -0.00000000000E+00 -0.59028503615E+01  0.59035829282E+01  0.93000000000E-01 0.  1.
       1023    2    1    2    0    0  0.00000000000E+00  0.00000000000E+00  0.11037099247E+02  0.22843787819E+02  0.20000527046E+02 0.  0.
        -11    1    3    3    0    0  0.45062977780E+01 -0.89272999120E+01  0.55678994882E+01  0.11445737563E+02  0.51100000000E-03 0.  1.
         11    1    3    3    0    0 -0.45062977780E+01  0.89272999120E+01  0.54691997590E+01  0.11398050256E+02  0.51100000000E-03 0. -1.
<mgrwt>
<rscale>  0 0.20000527E+02</rscale>
<asrwt>0</asrwt>
<pdfrwt beam="1">  1        3 0.26062221E-02 0.20000527E+02</pdfrwt>
<pdfrwt beam="2">  1       -3 0.90820681E-03 0.20000527E+02</pdfrwt>
<totfact> 0.17700609E+06</totfact>
</mgrwt>
</event>
<event>
 5    1  0.4133473E-007  0.2000025E+02  0.7818608E-02  0.1745323E+00
          3   -1    0    0  501    0  0.00000000000E+00  0.00000000000E+00  0.83091895031E+02  0.83091947076E+02  0.93000000000E-01 0. -1.
         -3   -1    0    0    0  501 -0.00000000000E+00 -0.00000000000E+00 -0.12016677600E+01  0.12052611358E+01  0.93000000000E-01 0.  1.
       1023    2    1    2    0    0  0.00000000000E+00  0.00000000000E+00  0.81890227271E+02  0.84297208211E+02  0.20000249742E+02 0.  0.
        -11    1    3    3    0    0  0.28217750121E+01  0.95937147137E+01  0.41058283377E+02  0.42258542454E+02  0.51100000000E-03 0.  1.
         11    1    3    3    0    0 -0.28217750121E+01 -0.95937147137E+01  0.40831943894E+02  0.42038665757E+02  0.51100000000E-03 0. -1.
<mgrwt>
<rscale>  0 0.20000250E+02</rscale>
<asrwt>0</asrwt>
<pdfrwt beam="1">  1        3 0.12783648E-01 0.20000250E+02</pdfrwt>
<pdfrwt beam="2">  1       -3 0.18515240E-03 0.20000250E+02</pdfrwt>
<totfact> 0.14746223E+06</totfact>
</mgrwt>
</event>
<event>
 5    1  0.4133473E-007  0.2000198E+02  0.7818608E-02  0.1745289E+00
         -3   -1    0    0    0  501 -0.00000000000E+00  0.00000000000E+00  0.37585618397E+01  0.37597122367E+01  0.93000000000E-01 0. -1.
          3   -1    0    0  501    0  0.00000000000E+00 -0.00000000000E+00 -0.26605884123E+02  0.26606046662E+02  0.93000000000E-01 0.  1.
       1023    2    1    2    0    0  0.00000000000E+00  0.00000000000E+00 -0.22847322284E+02  0.30365758899E+02  0.20001979351E+02 0.  0.
        -11    1    3    3    0    0 -0.30540351848E+01  0.95231303284E+01 -0.11501842549E+02  0.15241703463E+02  0.51100000000E-03 0. -1.
         11    1    3    3    0    0  0.30540351848E+01 -0.95231303284E+01 -0.11345479734E+02  0.15124055436E+02  0.51100000000E-03 0.  1.
<mgrwt>
<rscale>  0 0.20001979E+02</rscale>
<asrwt>0</asrwt>
<pdfrwt beam="2">  1        3 0.40933138E-02 0.20001979E+02</pdfrwt>
<pdfrwt beam="1">  1       -3 0.57834129E-03 0.20001979E+02</pdfrwt>
<totfact> 0.17241427E+06</totfact>
</mgrwt>
</event>
<event>
 5    1  0.4133473E-007  0.2000276E+02  0.7818608E-02  0.1745273E+00
          3   -1    0    0  501    0  0.00000000000E+00  0.00000000000E+00  0.18180473485E+01  0.18204244454E+01  0.93000000000E-01 0.  1.
         -3   -1    0    0    0  501 -0.00000000000E+00 -0.00000000000E+00 -0.54980872950E+02  0.54980951605E+02  0.93000000000E-01 0. -1.
       1023    2    1    2    0    0  0.00000000000E+00  0.00000000000E+00 -0.53162825602E+02  0.56801376050E+02  0.20002757191E+02 0.  0.
        -11    1    3    3    0    0 -0.53333931037E+00 -0.99865016418E+01 -0.26258791385E+02  0.28098732909E+02  0.51100000000E-03 0.  1.
         11    1    3    3    0    0  0.53333931037E+00  0.99865016418E+01 -0.26904034217E+02  0.28702643141E+02  0.51100000000E-03 0. -1.
<mgrwt>
<rscale>  0 0.20002757E+02</rscale>
<asrwt>0</asrwt>
<pdfrwt beam="1">  1        3 0.27988854E-03 0.20002757E+02</pdfrwt>
<pdfrwt beam="2">  1       -3 0.84587835E-02 0.20002757E+02</pdfrwt>
<totfact> 0.15885946E+06</totfact>
</mgrwt>
</event>
<event>
 5    1  0.4133473E-007  0.2000027E+02  0.7818608E-02  0.1745323E+00
         -3   -1    0    0    0  501 -0.00000000000E+00  0.00000000000E+00  0.52548258434E+02  0.52548340730E+02  0.93000000000E-01 0. -1.
          3   -1    0    0  501    0  0.00000000000E+00 -0.00000000000E+00 -0.19018440805E+01  0.19041165685E+01  0.93000000000E-01 0.  1.
       1023    2    1    2    0    0  0.00000000000E+00  0.00000000000E+00  0.50646414354E+02  0.54452457298E+02  0.20000270472E+02 0.  0.
        -11    1    3    3    0    0 -0.61437191439E+01  0.78903141589E+01  0.25375010133E+02  0.27274410754E+02  0.51100000000E-03 0. -1.
         11    1    3    3    0    0  0.61437191439E+01 -0.78903141589E+01  0.25271404220E+02  0.27178046544E+02  0.51100000000E-03 0.  1.
<mgrwt>
<rscale>  0 0.20000270E+02</rscale>
<asrwt>0</asrwt>
<pdfrwt beam="2">  1        3 0.29277252E-03 0.20000270E+02</pdfrwt>
<pdfrwt beam="1">  1       -3 0.80845290E-02 0.20000270E+02</pdfrwt>
<totfact> 0.15998401E+06</totfact>
</mgrwt>
</event>
<event>
 5    1  0.4133473E-007  0.2000016E+02  0.7818608E-02  0.1745325E+00
         -3   -1    0    0    0  501 -0.00000000000E+00  0.00000000000E+00  0.67486585207E+02  0.67486649287E+02  0.93000000000E-01 0. -1.
          3   -1    0    0  501    0  0.00000000000E+00 -0.00000000000E+00 -0.14802755270E+01  0.14831940655E+01  0.93000000000E-01 0.  1.
       1023    2    1    2    0    0  0.00000000000E+00  0.00000000000E+00  0.66006309680E+02  0.68969843352E+02  0.20000159360E+02 0.  0.
        -11    1    3    3    0    0  0.99983802234E+01 -0.18416062074E+00  0.32974074065E+02  0.34457090459E+02  0.51100000000E-03 0. -1.
         11    1    3    3    0    0 -0.99983802234E+01  0.18416062074E+00  0.33032235615E+02  0.34512752893E+02  0.51100000000E-03 0.  1.
<mgrwt>
<rscale>  0 0.20000159E+02</rscale>
<asrwt>0</asrwt>
<pdfrwt beam="2">  1        3 0.22796412E-03 0.20000159E+02</pdfrwt>
<pdfrwt beam="1">  1       -3 0.10382781E-01 0.20000159E+02</pdfrwt>
<totfact> 0.15358620E+06</totfact>
</mgrwt>
</event>
<event>
 5    1  0.4287753E-007  0.2000222E+02  0.7818608E-02  0.1745284E+00
         -3   -1    0    0    0  501 -0.00000000000E+00  0.00000000000E+00  0.10144002910E+02  0.10144429212E+02  0.93000000000E-01 0. -1.
          3   -1    0    0  501    0  0.00000000000E+00 -0.00000000000E+00 -0.98593745960E+01  0.98598132043E+01  0.93000000000E-01 0.  1.
       1023    2    1    2    0    0  0.00000000000E+00  0.00000000000E+00  0.28462831368E+00  0.20004242416E+02  0.20002217411E+02 0.  0.
        -11    1    3    3    0    0  0.73164313097E+01 -0.68169641447E+01 -0.26412618824E-02  0.10000058725E+02  0.51100000000E-03 0. -1.
         11    1    3    3    0    0 -0.73164313097E+01  0.68169641447E+01  0.28726957556E+00  0.10004183691E+02  0.51100000000E-03 0.  1.
<mgrwt>
<rscale>  0 0.20002217E+02</rscale>
<asrwt>0</asrwt>
<pdfrwt beam="2">  1        3 0.15168934E-02 0.20002217E+02</pdfrwt>
<pdfrwt beam="1">  1       -3 0.15606824E-02 0.20002217E+02</pdfrwt>
<totfact> 0.17881092E+06</totfact>
</mgrwt>
</event>
<event>
 5    1  0.4133473E-007  0.2000147E+02  0.7818608E-02  0.1745299E+00
         -3   -1    0    0    0  501 -0.00000000000E+00  0.00000000000E+00  0.38562850366E+02  0.38562962507E+02  0.93000000000E-01 0.  1.
          3   -1    0    0  501    0  0.00000000000E+00 -0.00000000000E+00 -0.25926005285E+01  0.25942680085E+01  0.93000000000E-01 0. -1.
       1023    2    1    2    0    0  0.00000000000E+00  0.00000000000E+00  0.35970249837E+02  0.41157230516E+02  0.20001468705E+02 0.  0.
        -11    1    3    3    0    0  0.47348524360E+01  0.88087086113E+01  0.17881985759E+02  0.20488474563E+02  0.51100000000E-03 0. -1.
         11    1    3    3    0    0 -0.47348524360E+01 -0.88087086113E+01  0.18088264079E+02  0.20668755953E+02  0.51100000000E-03 0.  1.
<mgrwt>
<rscale>  0 0.20001469E+02</rscale>
<asrwt>0</asrwt>
<pdfrwt beam="2">  1        3 0.39899855E-03 0.20001469E+02</pdfrwt>
<pdfrwt beam="1">  1       -3 0.59328826E-02 0.20001469E+02</pdfrwt>
<totfact> 0.16650782E+06</totfact>
</mgrwt>
</event>
<event>
 5    1  0.4222560E-007  0.2000113E+02  0.7818608E-02  0.1745306E+00
         -3   -1    0    0    0  501 -0.00000000000E+00  0.00000000000E+00  0.26932886218E+01  0.26948938013E+01  0.93000000000E-01 0.  1.
          3   -1    0    0  501    0  0.00000000000E+00 -0.00000000000E+00 -0.37120807720E+02  0.37120924218E+02  0.93000000000E-01 0. -1.
       1023    2    1    2    0    0  0.00000000000E+00  0.00000000000E+00 -0.34427519099E+02  0.39815818019E+02  0.20001132300E+02 0.  0.
        -11    1    3    3    0    0 -0.15609470966E+01  0.98778770738E+01 -0.17309472345E+02  0.19990668935E+02  0.51100000000E-03 0.  1.
         11    1    3    3    0    0  0.15609470966E+01 -0.98778770738E+01 -0.17118046753E+02  0.19825149085E+02  0.51100000000E-03 0. -1.
<mgrwt>
<rscale>  0 0.20001132E+02</rscale>
<asrwt>0</asrwt>
<pdfrwt beam="2">  1        3 0.57110256E-02 0.20001132E+02</pdfrwt>
<pdfrwt beam="1">  1       -3 0.41448456E-03 0.20001132E+02</pdfrwt>
<totfact> 0.16719508E+06</totfact>
</mgrwt>
</event>
<event>
 4    1  0.4133473E-007  0.2008904E+02  0.7818608E-02  0.1743563E+00
         -3   -1    0    0    0  501 -0.00000000000E+00  0.00000000000E+00  0.29468083768E+02  0.29468230519E+02  0.93000000000E-01 0. -1.
          3   -1    0    0  501    0  0.00000000000E+00 -0.00000000000E+00 -0.34229978653E+01  0.34242609985E+01  0.93000000000E-01 0.  1.
        -11    1    1    2    0    0  0.31586197163E+01 -0.95279262192E+01  0.12422916375E+02  0.15971446649E+02  0.51100000000E-03 0. -1.
         11    1    1    2    0    0 -0.31586197163E+01  0.95279262192E+01  0.13622169527E+02  0.16921044869E+02  0.51100000000E-03 0.  1.
<mgrwt>
<rscale>  0 0.20089039E+02</rscale>
<asrwt>0</asrwt>
<pdfrwt beam="2">  1        3 0.52672350E-03 0.20089039E+02</pdfrwt>
<pdfrwt beam="1">  1       -3 0.45336599E-02 0.20089039E+02</pdfrwt>
<totfact> 0.16939269E+06</totfact>
</mgrwt>
</event>
<event>
 5    1  0.4133473E-007  0.2000010E+02  0.7818608E-02  0.1745326E+00
         -3   -1    0    0    0  501 -0.00000000000E+00  0.00000000000E+00  0.20769419421E+02  0.20769627635E+02  0.93000000000E-01 0.  1.
          3   -1    0    0  501    0  0.00000000000E+00 -0.00000000000E+00 -0.48141362754E+01  0.48150344836E+01  0.93000000000E-01 0. -1.
       1023    2    1    2    0    0  0.00000000000E+00  0.00000000000E+00  0.15955283146E+02  0.25584662119E+02  0.20000096886E+02 0.  0.
        -11    1    3    3    0    0  0.18743645798E+01  0.98227933446E+01  0.79502967900E+01  0.12775278118E+02  0.51100000000E-03 0.  1.
         11    1    3    3    0    0 -0.18743645798E+01 -0.98227933446E+01  0.80049863558E+01  0.12809384001E+02  0.51100000000E-03 0. -1.
<mgrwt>
<rscale>  0 0.20000097E+02</rscale>
<asrwt>0</asrwt>
<pdfrwt beam="2">  1        3 0.74072146E-03 0.20000097E+02</pdfrwt>
<pdfrwt beam="1">  1       -3 0.31953804E-02 0.20000097E+02</pdfrwt>
<totfact> 0.17531684E+06</totfact>
</mgrwt>
</event>
<event>
 5    1  0.4196579E-007  0.2000120E+02  0.7818608E-02  0.1745304E+00
         -3   -1    0    0    0  501 -0.00000000000E+00  0.00000000000E+00  0.35181495883E+01  0.35193785709E+01  0.93000000000E-01 0. -1.
          3   -1    0    0  501    0  0.00000000000E+00 -0.00000000000E+00 -0.28421166816E+02  0.28421318973E+02  0.93000000000E-01 0.  1.
       1023    2    1    2    0    0  0.00000000000E+00  0.00000000000E+00 -0.24903017228E+02  0.31940697544E+02  0.20001197278E+02 0.  0.
        -11    1    3    3    0    0  0.44638599160E+01  0.89487370356E+01 -0.12575546703E+02  0.16067056825E+02  0.51100000000E-03 0.  1.
         11    1    3    3    0    0 -0.44638599160E+01 -0.89487370356E+01 -0.12327470525E+02  0.15873640720E+02  0.51100000000E-03 0. -1.
<mgrwt>
<rscale>  0 0.20001197E+02</rscale>
<asrwt>0</asrwt>
<pdfrwt beam="2">  1        3 0.43725933E-02 0.20001197E+02</pdfrwt>
<pdfrwt beam="1">  1       -3 0.54136004E-03 0.20001197E+02</pdfrwt>
<totfact> 0.17152069E+06</totfact>
</mgrwt>
</event>
<event>
 5    1  0.4165251E-007  0.2000080E+02  0.7818608E-02  0.1745312E+00
          3   -1    0    0  501    0  0.00000000000E+00  0.00000000000E+00  0.25734127640E+01  0.25750926690E+01  0.93000000000E-01 0.  1.
         -3   -1    0    0    0  501 -0.00000000000E+00 -0.00000000000E+00 -0.38847611432E+02  0.38847722752E+02  0.93000000000E-01 0. -1.
       1023    2    1    2    0    0  0.00000000000E+00  0.00000000000E+00 -0.36274198668E+02  0.41422815420E+02  0.20000803692E+02 0.  0.
        -11    1    3    3    0    0  0.85067201145E+01  0.52571826651E+01 -0.17979642511E+02  0.20573521861E+02  0.51100000000E-03 0.  1.
         11    1    3    3    0    0 -0.85067201145E+01 -0.52571826651E+01 -0.18294556157E+02  0.20849293559E+02  0.51100000000E-03 0. -1.
<mgrwt>
<rscale>  0 0.20000804E+02</rscale>
<asrwt>0</asrwt>
<pdfrwt beam="1">  1        3 0.39604747E-03 0.20000804E+02</pdfrwt>
<pdfrwt beam="2">  1       -3 0.59766930E-02 0.20000804E+02</pdfrwt>
<totfact> 0.16638150E+06</totfact>
</mgrwt>
</event>
<event>
 5    1  0.4133473E-007  0.2000029E+02  0.7818608E-02  0.1745322E+00
         -3   -1    0    0    0  501 -0.00000000000E+00  0.00000000000E+00  0.17664462930E+02  0.17664707742E+02  0.93000000000E-01 0. -1.
          3   -1    0    0  501    0  0.00000000000E+00 -0.00000000000E+00 -0.56605843397E+01  0.56613482553E+01  0.93000000000E-01 0.  1.
       1023    2    1    2    0    0  0.00000000000E+00  0.00000000000E+00  0.12003878590E+02  0.23326055997E+02  0.20000294677E+02 0.  0.
        -11    1    3    3    0    0  0.76440397717E+01 -0.64474726818E+01  0.60500055149E+01  0.11687763473E+02  0.51100000000E-03 0.  1.
         11    1    3    3    0    0 -0.76440397717E+01  0.64474726818E+01  0.59538730754E+01  0.11638292524E+02  0.51100000000E-03 0. -1.
<mgrwt>
<rscale>  0 0.20000295E+02</rscale>
<asrwt>0</asrwt>
<pdfrwt beam="2">  1        3 0.87093671E-03 0.20000295E+02</pdfrwt>
<pdfrwt beam="1">  1       -3 0.27176873E-02 0.20000295E+02</pdfrwt>
<totfact> 0.17671556E+06</totfact>
</mgrwt>
</event>
<event>
 5    1  0.4194998E-007  0.2000098E+02  0.7818608E-02  0.1745309E+00
         -3   -1    0    0    0  501 -0.00000000000E+00  0.00000000000E+00  0.30913979122E+01  0.30927964776E+01  0.93000000000E-01 0. -1.
          3   -1    0    0  501    0  0.00000000000E+00 -0.00000000000E+00 -0.32342207635E+02  0.32342341346E+02  0.93000000000E-01 0.  1.
       1023    2    1    2    0    0  0.00000000000E+00  0.00000000000E+00 -0.29250809723E+02  0.35435137823E+02  0.20000978054E+02 0.  0.
        -11    1    3    3    0    0 -0.40322214130E+01 -0.91513864382E+01 -0.14724003538E+02  0.17798959625E+02  0.51100000000E-03 0.  1.
         11    1    3    3    0    0  0.40322214130E+01  0.91513864382E+01 -0.14526806185E+02  0.17636178199E+02  0.51100000000E-03 0. -1.
<mgrwt>
<rscale>  0 0.20000978E+02</rscale>
<asrwt>0</asrwt>
<pdfrwt beam="2">  1        3 0.49758419E-02 0.20000978E+02</pdfrwt>
<pdfrwt beam="1">  1       -3 0.47571757E-03 0.20000978E+02</pdfrwt>
<totfact> 0.16956221E+06</totfact>
</mgrwt>
</event>
<event>
 5    1  0.4133473E-007  0.2000555E+02  0.7818608E-02  0.1745218E+00
          3   -1    0    0  501    0  0.00000000000E+00  0.00000000000E+00  0.60762653094E+02  0.60762724265E+02  0.93000000000E-01 0.  1.
         -3   -1    0    0    0  501 -0.00000000000E+00 -0.00000000000E+00 -0.16452767743E+01  0.16479031112E+01  0.93000000000E-01 0. -1.
       1023    2    1    2    0    0  0.00000000000E+00  0.00000000000E+00  0.59117376320E+02  0.62410627376E+02  0.20005554891E+02 0.  0.
        -11    1    3    3    0    0 -0.97886755493E+01  0.20508568410E+01  0.29006114833E+02  0.30681898259E+02  0.51100000000E-03 0.  1.
         11    1    3    3    0    0  0.97886755493E+01 -0.20508568410E+01  0.30111261487E+02  0.31728729117E+02  0.51100000000E-03 0. -1.
<mgrwt>
<rscale>  0 0.20005555E+02</rscale>
<asrwt>0</asrwt>
<pdfrwt beam="1">  1        3 0.93483066E-02 0.20005555E+02</pdfrwt>
<pdfrwt beam="2">  1       -3 0.25332704E-03 0.20005555E+02</pdfrwt>
<totfact> 0.15627630E+06</totfact>
</mgrwt>
</event>
<event>
 5    1  0.4220559E-007  0.2000138E+02  0.7818608E-02  0.1745301E+00
         -3   -1    0    0    0  501 -0.00000000000E+00  0.00000000000E+00  0.17177544952E+02  0.17177796703E+02  0.93000000000E-01 0. -1.
          3   -1    0    0  501    0  0.00000000000E+00 -0.00000000000E+00 -0.58216919332E+01  0.58224347111E+01  0.93000000000E-01 0.  1.
       1023    2    1    2    0    0  0.00000000000E+00  0.00000000000E+00  0.11355853019E+02  0.23000231414E+02  0.20001381135E+02 0.  0.
        -11    1    3    3    0    0  0.87382681313E+01  0.48634989434E+01  0.57394200484E+01  0.11530476775E+02  0.51100000000E-03 0. -1.
         11    1    3    3    0    0 -0.87382681313E+01 -0.48634989434E+01  0.56164329702E+01  0.11469754639E+02  0.51100000000E-03 0.  1.
<mgrwt>
<rscale>  0 0.20001381E+02</rscale>
<asrwt>0</asrwt>
<pdfrwt beam="2">  1        3 0.89572143E-03 0.20001381E+02</pdfrwt>
<pdfrwt beam="1">  1       -3 0.26427757E-02 0.20001381E+02</pdfrwt>
<totfact> 0.17690021E+06</totfact>
</mgrwt>
</event>
<event>
 4    1  0.4133473E-007  0.2001783E+02  0.7818608E-02  0.1744974E+00
          3   -1    0    0  501    0  0.00000000000E+00  0.00000000000E+00  0.93799010065E+00  0.94258921536E+00  0.93000000000E-01 0. -1.
         -3   -1    0    0    0  501 -0.00000000000E+00 -0.00000000000E+00 -0.10653524906E+03  0.10653528966E+03  0.93000000000E-01 0.  1.
        -11    1    1    2    0    0 -0.11486705490E+00 -0.10001423632E+02 -0.50813749292E+02  0.51788790162E+02  0.51100000000E-03 0.  1.
         11    1    1    2    0    0  0.11486705490E+00  0.10001423632E+02 -0.54783509672E+02  0.55689088710E+02  0.51100000000E-03 0. -1.
<mgrwt>
<rscale>  0 0.20017826E+02</rscale>
<asrwt>0</asrwt>
<pdfrwt beam="1">  1        3 0.14466315E-03 0.20017826E+02</pdfrwt>
<pdfrwt beam="2">  1       -3 0.16390386E-01 0.20017826E+02</pdfrwt>
<totfact> 0.13900488E+06</totfact>
</mgrwt>
</event>
<event>
 5    1  0.4133473E-007  0.2000969E+02  0.7818608E-02  0.1745135E+00
         -3   -1    0    0    0  501 -0.00000000000E+00  0.00000000000E+00  0.50289597029E+02  0.50289683021E+02  0.93000000000E-01 0.  1.
          3   -1    0    0  501    0  0.00000000000E+00 -0.00000000000E+00 -0.19892363394E+01  0.19914091026E+01  0.93000000000E-01 0. -1.
       1023    2    1    2    0    0  0.00000000000E+00  0.00000000000E+00  0.48300360690E+02  0.52281092124E+02  0.20009691424E+02 0.  0.
        -11    1    3    3    0    0 -0.66484277530E+01  0.74762472939E+01  0.24235737543E+02  0.26219588855E+02  0.51100000000E-03 0.  1.
         11    1    3    3    0    0  0.66484277530E+01 -0.74762472939E+01  0.24064623147E+02  0.26061503269E+02  0.51100000000E-03 0. -1.
<mgrwt>
<rscale>  0 0.20009691E+02</rscale>
<asrwt>0</asrwt>
<pdfrwt beam="2">  1        3 0.30621012E-03 0.20009691E+02</pdfrwt>
<pdfrwt beam="1">  1       -3 0.77370346E-02 0.20009691E+02</pdfrwt>
<totfact> 0.16083993E+06</totfact>
</mgrwt>
</event>
<event>
 5    1  0.4133473E-007  0.2000158E+02  0.7818608E-02  0.1745297E+00
         -3   -1    0    0    0  501 -0.00000000000E+00  0.00000000000E+00  0.99186204842E+00  0.99621248892E+00  0.93000000000E-01 0.  1.
          3   -1    0    0  501    0  0.00000000000E+00 -0.00000000000E+00 -0.10061133432E+03  0.10061137730E+03  0.93000000000E-01 0. -1.
       1023    2    1    2    0    0  0.00000000000E+00  0.00000000000E+00 -0.99619472270E+02  0.10160758979E+03  0.20001576125E+02 0.  0.
        -11    1    3    3    0    0 -0.95837742617E+01 -0.28577786138E+01 -0.49750951537E+02  0.50746160513E+02  0.51100000000E-03 0. -1.
         11    1    3    3    0    0  0.95837742617E+01  0.28577786138E+01 -0.49868520733E+02  0.50861429276E+02  0.51100000000E-03 0.  1.
<mgrwt>
<rscale>  0 0.20001576E+02</rscale>
<asrwt>0</asrwt>
<pdfrwt beam="2">  1        3 0.15478997E-01 0.20001576E+02</pdfrwt>
<pdfrwt beam="1">  1       -3 0.15293220E-03 0.20001576E+02</pdfrwt>
<totfact> 0.14120236E+06</totfact>
</mgrwt>
</event>
<event>
 5    1  0.4133473E-007  0.2000085E+02  0.7818608E-02  0.1745311E+00
         -3   -1    0    0    0  501 -0.00000000000E+00  0.00000000000E+00  0.38182414072E+01  0.38193738287E+01  0.93000000000E-01 0. -1.
          3   -1    0    0  501    0  0.00000000000E+00 -0.00000000000E+00 -0.26187190406E+02  0.26187355543E+02  0.93000000000E-01 0.  1.
       1023    2    1    2    0    0  0.00000000000E+00  0.00000000000E+00 -0.22368948999E+02  0.30006729372E+02  0.20000848189E+02 0.  0.
        -11    1    3    3    0    0  0.61494133092E+01 -0.78858466705E+01 -0.11062406708E+02  0.14912367491E+02  0.51100000000E-03 0. -1.
         11    1    3    3    0    0 -0.61494133092E+01  0.78858466705E+01 -0.11306542291E+02  0.15094361881E+02  0.51100000000E-03 0.  1.
<mgrwt>
<rscale>  0 0.20000848E+02</rscale>
<asrwt>0</asrwt>
<pdfrwt beam="2">  1        3 0.40288982E-02 0.20000848E+02</pdfrwt>
<pdfrwt beam="1">  1       -3 0.58752159E-03 0.20000848E+02</pdfrwt>
<totfact> 0.17264424E+06</totfact>
</mgrwt>
</event>
<event>
 5    1  0.4133473E-007  0.2000049E+02  0.7818608E-02  0.1745318E+00
         -3   -1    0    0    0  501 -0.00000000000E+00  0.00000000000E+00  0.19382232695E+01  0.19404531539E+01  0.93000000000E-01 0.  1.
          3   -1    0    0  501    0  0.00000000000E+00 -0.00000000000E+00 -0.51564254898E+02  0.51564338764E+02  0.93000000000E-01 0. -1.
       1023    2    1    2    0    0  0.00000000000E+00  0.00000000000E+00 -0.49626031629E+02  0.53504791918E+02  0.20000493569E+02 0.  0.
        -11    1    3    3    0    0 -0.20682571372E+01  0.97839502991E+01 -0.24707204310E+02  0.26654255122E+02  0.51100000000E-03 0. -1.
         11    1    3    3    0    0  0.20682571372E+01 -0.97839502991E+01 -0.24918827319E+02  0.26850536796E+02  0.51100000000E-03 0.  1.
<mgrwt>
<rscale>  0 0.20000494E+02</rscale>
<asrwt>0</asrwt>
<pdfrwt beam="2">  1        3 0.79331392E-02 0.20000494E+02</pdfrwt>
<pdfrwt beam="1">  1       -3 0.29836622E-03 0.20000494E+02</pdfrwt>
<totfact> 0.16039607E+06</totfact>
</mgrwt>
</event>
<event>
 5    1  0.4133473E-007  0.2000076E+02  0.7818608E-02  0.1745313E+00
         -3   -1    0    0    0  501 -0.00000000000E+00  0.00000000000E+00  0.25098215365E+01  0.25115439764E+01  0.93000000000E-01 0. -1.
          3   -1    0    0  501    0  0.00000000000E+00 -0.00000000000E+00 -0.39831062392E+02  0.39831170963E+02  0.93000000000E-01 0.  1.
       1023    2    1    2    0    0  0.00000000000E+00  0.00000000000E+00 -0.37321240856E+02  0.42342714939E+02  0.20000762221E+02 0.  0.
        -11    1    3    3    0    0  0.12167739399E+01  0.99258685255E+01 -0.18523137455E+02  0.21050178770E+02  0.51100000000E-03 0. -1.
         11    1    3    3    0    0 -0.12167739399E+01 -0.99258685255E+01 -0.18798103401E+02  0.21292536170E+02  0.51100000000E-03 0.  1.
<mgrwt>
<rscale>  0 0.20000762E+02</rscale>
<asrwt>0</asrwt>
<pdfrwt beam="2">  1        3 0.61279961E-02 0.20000762E+02</pdfrwt>
<pdfrwt beam="1">  1       -3 0.38626727E-03 0.20000762E+02</pdfrwt>
<totfact> 0.16588286E+06</totfact>
</mgrwt>
</event>
<event>
 5    1  0.4133473E-007  0.2000327E+02  0.7818608E-02  0.1745263E+00
         -3   -1    0    0    0  501 -0.00000000000E+00  0.00000000000E+00  0.11517146019E+03  0.11517149773E+03  0.93000000000E-01 0.  1.
          3   -1    0    0  501    0  0.00000000000E+00 -0.00000000000E+00 -0.86602746102E+00  0.87100663789E+00  0.93000000000E-01 0. -1.
       1023    2    1    2    0    0  0.00000000000E+00  0.00000000000E+00  0.11430543272E+03  0.11604250437E+03  0.20003271496E+02 0.  0.
        -11    1    3    3    0    0  0.50964727083E+01  0.86052115344E+01  0.56601825873E+02  0.57478608125E+02  0.51100000000E-03 0.  1.
         11    1    3    3    0    0 -0.50964727083E+01 -0.86052115344E+01  0.57703606851E+02  0.58563896246E+02  0.51100000000E-03 0. -1.
<mgrwt>
<rscale>  0 0.20003271E+02</rscale>
<asrwt>0</asrwt>
<pdfrwt beam="2">  1        3 0.13362089E-03 0.20003271E+02</pdfrwt>
<pdfrwt beam="1">  1       -3 0.17719073E-01 0.20003271E+02</pdfrwt>
<totfact> 0.13643600E+06</totfact>
</mgrwt>
</event>
<event>
 5    1  0.4133473E-007  0.2000124E+02  0.7818608E-02  0.1745304E+00
         -3   -1    0    0    0  501 -0.00000000000E+00  0.00000000000E+00  0.14733637686E+01  0.14762959713E+01  0.93000000000E-01 0. -1.
          3   -1    0    0  501    0  0.00000000000E+00 -0.00000000000E+00 -0.67809846885E+02  0.67809910659E+02  0.93000000000E-01 0.  1.
       1023    2    1    2    0    0  0.00000000000E+00  0.00000000000E+00 -0.66336483117E+02  0.69286206630E+02  0.20001235886E+02 0.  0.
        -11    1    3    3    0    0 -0.48078938020E-02 -0.10000612172E+02 -0.33201475446E+02  0.34674922336E+02  0.51100000000E-03 0.  1.
         11    1    3    3    0    0  0.48078938020E-02  0.10000612172E+02 -0.33135007670E+02  0.34611284294E+02  0.51100000000E-03 0. -1.
<mgrwt>
<rscale>  0 0.20001236E+02</rscale>
<asrwt>0</asrwt>
<pdfrwt beam="2">  1        3 0.10432512E-01 0.20001236E+02</pdfrwt>
<pdfrwt beam="1">  1       -3 0.22690186E-03 0.20001236E+02</pdfrwt>
<totfact> 0.15340759E+06</totfact>
</mgrwt>
</event>
<event>
 5    1  0.4348676E-007  0.2000177E+02  0.7818608E-02  0.1745293E+00
         -3   -1    0    0    0  501 -0.00000000000E+00  0.00000000000E+00  0.24142033924E+02  0.24142213050E+02  0.93000000000E-01 0.  1.
          3   -1    0    0  501    0  0.00000000000E+00 -0.00000000000E+00 -0.41421694563E+01  0.41432133429E+01  0.93000000000E-01 0. -1.
       1023    2    1    2    0    0  0.00000000000E+00  0.00000000000E+00  0.19999864467E+02  0.28285426393E+02  0.20001769110E+02 0.  0.
        -11    1    3    3    0    0  0.32149476735E+01  0.94700241993E+01  0.99701094093E+01  0.14121626279E+02  0.51100000000E-03 0.  1.
         11    1    3    3    0    0 -0.32149476735E+01 -0.94700241993E+01  0.10029755058E+02  0.14163800114E+02  0.51100000000E-03 0. -1.
<mgrwt>
<rscale>  0 0.20001769E+02</rscale>
<asrwt>0</asrwt>
<pdfrwt beam="2">  1        3 0.63735092E-03 0.20001769E+02</pdfrwt>
<pdfrwt beam="1">  1       -3 0.37142531E-02 0.20001769E+02</pdfrwt>
<totfact> 0.17365663E+06</totfact>
</mgrwt>
</event>
<event>
 5    1  0.4133473E-007  0.2000340E+02  0.7818608E-02  0.1745260E+00
         -3   -1    0    0    0  501 -0.00000000000E+00  0.00000000000E+00  0.11542124893E+01  0.11579531383E+01  0.93000000000E-01 0. -1.
          3   -1    0    0  501    0  0.00000000000E+00 -0.00000000000E+00 -0.86524672146E+02  0.86524722126E+02  0.93000000000E-01 0.  1.
       1023    2    1    2    0    0  0.00000000000E+00  0.00000000000E+00 -0.85370459657E+02  0.87682675265E+02  0.20003403698E+02 0.  0.
        -11    1    3    3    0    0  0.87651338068E+01  0.48149294807E+01 -0.43348890630E+02  0.44487497521E+02  0.51100000000E-03 0. -1.
         11    1    3    3    0    0 -0.87651338068E+01 -0.48149294807E+01 -0.42021569027E+02  0.43195177744E+02  0.51100000000E-03 0.  1.
<mgrwt>
<rscale>  0 0.20003404E+02</rscale>
<asrwt>0</asrwt>
<pdfrwt beam="2">  1        3 0.13311775E-01 0.20003404E+02</pdfrwt>
<pdfrwt beam="1">  1       -3 0.17786281E-03 0.20003404E+02</pdfrwt>
<totfact> 0.14614286E+06</totfact>
</mgrwt>
</event>
<event>
 5    1  0.4133473E-007  0.2000053E+02  0.7818608E-02  0.1745317E+00
         -3   -1    0    0    0  501 -0.00000000000E+00  0.00000000000E+00  0.37608644253E+01  0.37620141181E+01  0.93000000000E-01 0.  1.
          3   -1    0    0  501    0  0.00000000000E+00 -0.00000000000E+00 -0.26585756792E+02  0.26585919454E+02  0.93000000000E-01 0. -1.
       1023    2    1    2    0    0  0.00000000000E+00  0.00000000000E+00 -0.22824892367E+02  0.30347933572E+02  0.20000534006E+02 0.  0.
        -11    1    3    3    0    0 -0.98232067770E+01 -0.18730784782E+01 -0.11353181782E+02  0.15129393616E+02  0.51100000000E-03 0. -1.
         11    1    3    3    0    0  0.98232067770E+01  0.18730784782E+01 -0.11471710585E+02  0.15218539956E+02  0.51100000000E-03 0.  1.
<mgrwt>
<rscale>  0 0.20000534E+02</rscale>
<asrwt>0</asrwt>
<pdfrwt beam="2">  1        3 0.40902173E-02 0.20000534E+02</pdfrwt>
<pdfrwt beam="1">  1       -3 0.57869549E-03 0.20000534E+02</pdfrwt>
<totfact> 0.17245143E+06</totfact>
</mgrwt>
</event>
<event>
 5    1  0.4412475E-007  0.2000109E+02  0.7818608E-02  0.1745306E+00
         -3   -1    0    0    0  501 -0.00000000000E+00  0.00000000000E+00  0.58859860221E+01  0.58867206875E+01  0.93000000000E-01 0. -1.
          3   -1    0    0  501    0  0.00000000000E+00 -0.00000000000E+00 -0.16989434442E+02  0.16989688981E+02  0.93000000000E-01 0.  1.
       1023    2    1    2    0    0  0.00000000000E+00  0.00000000000E+00 -0.11103448420E+02  0.22876409668E+02  0.20001088783E+02 0.  0.
        -11    1    3    3    0    0  0.58254703124E+01  0.81285347363E+01 -0.55044752178E+01  0.11415271745E+02  0.51100000000E-03 0. -1.
         11    1    3    3    0    0 -0.58254703124E+01 -0.81285347363E+01 -0.55989732021E+01  0.11461137923E+02  0.51100000000E-03 0.  1.
<mgrwt>
<rscale>  0 0.20001089E+02</rscale>
<asrwt>0</asrwt>
<pdfrwt beam="2">  1        3 0.26138352E-02 0.20001089E+02</pdfrwt>
<pdfrwt beam="1">  1       -3 0.90561241E-03 0.20001089E+02</pdfrwt>
<totfact> 0.17697468E+06</totfact>
</mgrwt>
</event>
<event>
 5    1  0.4279857E-007  0.2000058E+02  0.7818608E-02  0.1745317E+00
         -3   -1    0    0    0  501 -0.00000000000E+00  0.00000000000E+00  0.97683089291E+00  0.98124797750E+00  0.93000000000E-01 0. -1.
          3   -1    0    0  501    0  0.00000000000E+00 -0.00000000000E+00 -0.10214239002E+03  0.10214243236E+03  0.93000000000E-01 0.  1.
       1023    2    1    2    0    0  0.00000000000E+00  0.00000000000E+00 -0.10116555913E+03  0.10312368034E+03  0.20000577303E+02 0.  0.
        -11    1    3    3    0    0 -0.99984012020E+01  0.18447781366E+00 -0.50268549470E+02  0.51253576702E+02  0.51100000000E-03 0. -1.
         11    1    3    3    0    0  0.99984012020E+01 -0.18447781366E+00 -0.50897009658E+02  0.51870103634E+02  0.51100000000E-03 0.  1.
<mgrwt>
<rscale>  0 0.20000577E+02</rscale>
<asrwt>0</asrwt>
<pdfrwt beam="2">  1        3 0.15714548E-01 0.20000577E+02</pdfrwt>
<pdfrwt beam="1">  1       -3 0.15062479E-03 0.20000577E+02</pdfrwt>
<totfact> 0.14069948E+06</totfact>
</mgrwt>
</event>
<event>
 5    1  0.4133473E-007  0.2000059E+02  0.7818608E-02  0.1745316E+00
          3   -1    0    0  501    0  0.00000000000E+00  0.00000000000E+00  0.22570897271E+02  0.22571088867E+02  0.93000000000E-01 0. -1.
         -3   -1    0    0    0  501 -0.00000000000E+00 -0.00000000000E+00 -0.44300491654E+01  0.44310252321E+01  0.93000000000E-01 0.  1.
       1023    2    1    2    0    0  0.00000000000E+00  0.00000000000E+00  0.18140848106E+02  0.27002114099E+02  0.20000594886E+02 0.  0.
        -11    1    3    3    0    0 -0.10098581659E+01  0.99491660715E+01  0.90499646086E+01  0.13487311767E+02  0.51100000000E-03 0.  1.
         11    1    3    3    0    0  0.10098581659E+01 -0.99491660715E+01  0.90908834974E+01  0.13514802331E+02  0.51100000000E-03 0. -1.
<mgrwt>
<rscale>  0 0.20000595E+02</rscale>
<asrwt>0</asrwt>
<pdfrwt beam="1">  1        3 0.34725356E-02 0.20000595E+02</pdfrwt>
<pdfrwt beam="2">  1       -3 0.68163583E-03 0.20000595E+02</pdfrwt>
<totfact> 0.17443204E+06</totfact>
</mgrwt>
</event>
<event>
 5    1  0.4133473E-007  0.2000035E+02  0.7818608E-02  0.1745321E+00
          3   -1    0    0  501    0  0.00000000000E+00  0.00000000000E+00  0.38808660803E+02  0.38808772234E+02  0.93000000000E-01 0.  1.
         -3   -1    0    0    0  501 -0.00000000000E+00 -0.00000000000E+00 -0.25758816077E+01  0.25775599036E+01  0.93000000000E-01 0. -1.
       1023    2    1    2    0    0  0.00000000000E+00  0.00000000000E+00  0.36232779196E+02  0.41386332138E+02  0.20000354987E+02 0.  0.
        -11    1    3    3    0    0  0.83766883610E+01 -0.54618993377E+01  0.18017207230E+02  0.20606334194E+02  0.51100000000E-03 0. -1.
         11    1    3    3    0    0 -0.83766883610E+01  0.54618993377E+01  0.18215571965E+02  0.20779997944E+02  0.51100000000E-03 0.  1.
<mgrwt>
<rscale>  0 0.20000355E+02</rscale>
<asrwt>0</asrwt>
<pdfrwt beam="1">  1        3 0.59707008E-02 0.20000355E+02</pdfrwt>
<pdfrwt beam="2">  1       -3 0.39642716E-03 0.20000355E+02</pdfrwt>
<totfact> 0.16638557E+06</totfact>
</mgrwt>
</event>
<event>
 5    1  0.4389685E-007  0.2000107E+02  0.7818608E-02  0.1745307E+00
         -3   -1    0    0    0  501 -0.00000000000E+00  0.00000000000E+00  0.58001775830E+01  0.58009231157E+01  0.93000000000E-01 0.  1.
          3   -1    0    0  501    0  0.00000000000E+00 -0.00000000000E+00 -0.17240719890E+02  0.17240970719E+02  0.93000000000E-01 0. -1.
       1023    2    1    2    0    0  0.00000000000E+00  0.00000000000E+00 -0.11440542307E+02  0.23041893835E+02  0.20001071551E+02 0.  0.
        -11    1    3    3    0    0  0.34200379173E+01 -0.93974043367E+01 -0.57817504049E+01  0.11551472011E+02  0.51100000000E-03 0.  1.
         11    1    3    3    0    0 -0.34200379173E+01  0.93974043367E+01 -0.56587919022E+01  0.11490421823E+02  0.51100000000E-03 0. -1.
<mgrwt>
<rscale>  0 0.20001072E+02</rscale>
<asrwt>0</asrwt>
<pdfrwt beam="2">  1        3 0.26524951E-02 0.20001072E+02</pdfrwt>
<pdfrwt beam="1">  1       -3 0.89241167E-03 0.20001072E+02</pdfrwt>
<totfact> 0.17687017E+06</totfact>
</mgrwt>
</event>
<event>
 5    1  0.4177945E-007  0.2000295E+02  0.7818608E-02  0.1745269E+00
         -3   -1    0    0    0  501 -0.00000000000E+00  0.00000000000E+00  0.99286496694E+01  0.99290852176E+01  0.93000000000E-01 0. -1.
          3   -1    0    0  501    0  0.00000000000E+00 -0.00000000000E+00 -0.10073965072E+02  0.10074394338E+02  0.93000000000E-01 0.  1.
       1023    2    1    2    0    0  0.00000000000E+00  0.00000000000E+00 -0.14531540299E+00  0.20003479556E+02  0.20002951726E+02 0.  0.
        -11    1    3    3    0    0 -0.54596978272E+01  0.83790495004E+01 -0.18556899518E+00  0.10002560023E+02  0.51100000000E-03 0. -1.
         11    1    3    3    0    0  0.54596978272E+01 -0.83790495004E+01  0.40253592185E-01  0.10000919533E+02  0.51100000000E-03 0.  1.
<mgrwt>
<rscale>  0 0.20002952E+02</rscale>
<asrwt>0</asrwt>
<pdfrwt beam="2">  1        3 0.15499073E-02 0.20002952E+02</pdfrwt>
<pdfrwt beam="1">  1       -3 0.15275511E-02 0.20002952E+02</pdfrwt>
<totfact> 0.17879707E+06</totfact>
</mgrwt>
</event>
<event>
 5    1  0.4261626E-007  0.2000092E+02  0.7818608E-02  0.1745310E+00
         -3   -1    0    0    0  501 -0.00000000000E+00  0.00000000000E+00  0.66433900409E+01  0.66440409568E+01  0.93000000000E-01 0. -1.
          3   -1    0    0  501    0  0.00000000000E+00 -0.00000000000E+00 -0.15052414917E+02  0.15052702210E+02  0.93000000000E-01 0.  1.
       1023    2    1    2    0    0  0.00000000000E+00  0.00000000000E+00 -0.84090248759E+01  0.21696743167E+02  0.20000924096E+02 0.  0.
        -11    1    3    3    0    0 -0.99467401247E+01 -0.10350758133E+01 -0.41884274374E+01  0.10842137506E+02  0.51100000000E-03 0. -1.
         11    1    3    3    0    0  0.99467401247E+01  0.10350758133E+01 -0.42205974385E+01  0.10854605661E+02  0.51100000000E-03 0.  1.
<mgrwt>
<rscale>  0 0.20000924E+02</rscale>
<asrwt>0</asrwt>
<pdfrwt beam="2">  1        3 0.23158283E-02 0.20000924E+02</pdfrwt>
<pdfrwt beam="1">  1       -3 0.10221322E-02 0.20000924E+02</pdfrwt>
<totfact> 0.17773161E+06</totfact>
</mgrwt>
</event>
<event>
 5    1  0.4281998E-007  0.2000133E+02  0.7818608E-02  0.1745302E+00
          3   -1    0    0  501    0  0.00000000000E+00  0.00000000000E+00  0.34332872149E+01  0.34345465640E+01  0.93000000000E-01 0. -1.
         -3   -1    0    0    0  501 -0.00000000000E+00 -0.00000000000E+00 -0.29123815714E+02  0.29123964200E+02  0.93000000000E-01 0.  1.
       1023    2    1    2    0    0  0.00000000000E+00  0.00000000000E+00 -0.25690528499E+02  0.32558510764E+02  0.20001334171E+02 0.  0.
        -11    1    3    3    0    0  0.79238471710E+01  0.61012888387E+01 -0.12871633499E+02  0.16300062229E+02  0.51100000000E-03 0. -1.
         11    1    3    3    0    0 -0.79238471710E+01 -0.61012888387E+01 -0.12818895000E+02  0.16258448535E+02  0.51100000000E-03 0.  1.
<mgrwt>
<rscale>  0 0.20001334E+02</rscale>
<asrwt>0</asrwt>
<pdfrwt beam="1">  1        3 0.52830635E-03 0.20001334E+02</pdfrwt>
<pdfrwt beam="2">  1       -3 0.44806951E-02 0.20001334E+02</pdfrwt>
<totfact> 0.17118435E+06</totfact>
</mgrwt>
</event>
<event>
 5    1  0.4155034E-007  0.2000095E+02  0.7818608E-02  0.1745309E+00
         -3   -1    0    0    0  501 -0.00000000000E+00  0.00000000000E+00  0.14898572778E+01  0.14927570828E+01  0.93000000000E-01 0.  1.
          3   -1    0    0  501    0  0.00000000000E+00 -0.00000000000E+00 -0.67058691438E+02  0.67058755927E+02  0.93000000000E-01 0. -1.
       1023    2    1    2    0    0  0.00000000000E+00  0.00000000000E+00 -0.65568834161E+02  0.68551513010E+02  0.20000948045E+02 0.  0.
        -11    1    3    3    0    0  0.84949926204E+01 -0.52765589689E+01 -0.32612832617E+02  0.34111637688E+02  0.51100000000E-03 0. -1.
         11    1    3    3    0    0 -0.84949926204E+01  0.52765589689E+01 -0.32956001544E+02  0.34439875322E+02  0.51100000000E-03 0.  1.
<mgrwt>
<rscale>  0 0.20000948E+02</rscale>
<asrwt>0</asrwt>
<pdfrwt beam="2">  1        3 0.10316947E-01 0.20000948E+02</pdfrwt>
<pdfrwt beam="1">  1       -3 0.22943689E-03 0.20000948E+02</pdfrwt>
<totfact> 0.15371979E+06</totfact>
</mgrwt>
</event>
<event>
 5    1  0.4133473E-007  0.2000840E+02  0.7818608E-02  0.1745161E+00
          3   -1    0    0  501    0  0.00000000000E+00  0.00000000000E+00  0.43983166964E+01  0.43992998036E+01  0.93000000000E-01 0.  1.
         -3   -1    0    0    0  501 -0.00000000000E+00 -0.00000000000E+00 -0.22751451421E+02  0.22751641496E+02  0.93000000000E-01 0. -1.
       1023    2    1    2    0    0  0.00000000000E+00  0.00000000000E+00 -0.18353134725E+02  0.27150941300E+02  0.20008399717E+02 0.  0.
        -11    1    3    3    0    0  0.55374178974E+01 -0.83319138864E+01 -0.91970826869E+01  0.13589338328E+02  0.51100000000E-03 0.  1.
         11    1    3    3    0    0 -0.55374178974E+01  0.83319138864E+01 -0.91560520378E+01  0.13561602972E+02  0.51100000000E-03 0. -1.
<mgrwt>
<rscale>  0 0.20008400E+02</rscale>
<asrwt>0</asrwt>
<pdfrwt beam="1">  1        3 0.67675437E-03 0.20008400E+02</pdfrwt>
<pdfrwt beam="2">  1       -3 0.35003135E-02 0.20008400E+02</pdfrwt>
<totfact> 0.17421042E+06</totfact>
</mgrwt>
</event>
<event>
 5    1  0.4133473E-007  0.2000113E+02  0.7818608E-02  0.1745306E+00
         -3   -1    0    0    0  501 -0.00000000000E+00  0.00000000000E+00  0.97822293550E+00  0.98263376267E+00  0.93000000000E-01 0.  1.
          3   -1    0    0  501    0  0.00000000000E+00 -0.00000000000E+00 -0.10200328271E+03  0.10200332510E+03  0.93000000000E-01 0. -1.
       1023    2    1    2    0    0  0.00000000000E+00  0.00000000000E+00 -0.10102505977E+03  0.10298595886E+03  0.20001125508E+02 0.  0.
        -11    1    3    3    0    0  0.63616192234E+01  0.77157557177E+01 -0.50047129765E+02  0.51036440740E+02  0.51100000000E-03 0. -1.
         11    1    3    3    0    0 -0.63616192234E+01 -0.77157557177E+01 -0.50977930004E+02  0.51949518123E+02  0.51100000000E-03 0.  1.
<mgrwt>
<rscale>  0 0.20001126E+02</rscale>
<asrwt>0</asrwt>
<pdfrwt beam="2">  1        3 0.15693147E-01 0.20001126E+02</pdfrwt>
<pdfrwt beam="1">  1       -3 0.15083847E-03 0.20001126E+02</pdfrwt>
<totfact> 0.14073808E+06</totfact>
</mgrwt>
</event>
<event>
 5    1  0.4263076E-007  0.2000212E+02  0.7818608E-02  0.1745286E+00
          3   -1    0    0  501    0  0.00000000000E+00  0.00000000000E+00  0.67371643041E+01  0.67378061608E+01  0.93000000000E-01 0. -1.
         -3   -1    0    0    0  501 -0.00000000000E+00 -0.00000000000E+00 -0.14844694285E+02  0.14844985598E+02  0.93000000000E-01 0.  1.
       1023    2    1    2    0    0  0.00000000000E+00  0.00000000000E+00 -0.81075299806E+01  0.21582791759E+02  0.20002121331E+02 0.  0.
        -11    1    3    3    0    0 -0.54639123052E+01 -0.83762416218E+01 -0.39740865653E+01  0.10761464848E+02  0.51100000000E-03 0. -1.
         11    1    3    3    0    0  0.54639123052E+01  0.83762416218E+01 -0.41334434153E+01  0.10821326911E+02  0.51100000000E-03 0.  1.
<mgrwt>
<rscale>  0 0.20002121E+02</rscale>
<asrwt>0</asrwt>
<pdfrwt beam="1">  1        3 0.10365586E-02 0.20002121E+02</pdfrwt>
<pdfrwt beam="2">  1       -3 0.22838709E-02 0.20002121E+02</pdfrwt>
<totfact> 0.17778913E+06</totfact>
</mgrwt>
</event>
<event>
 4    1  0.4425623E-006  0.2455686E+02  0.7818608E-02  0.1667450E+00
         -3   -1    0    0    0  501 -0.00000000000E+00  0.00000000000E+00  0.99759352244E+02  0.99759395593E+02  0.93000000000E-01 0.  1.
          3   -1    0    0  501    0  0.00000000000E+00 -0.00000000000E+00 -0.15097606655E+01  0.15126223147E+01  0.93000000000E-01 0. -1.
        -11    1    1    2    0    0  0.97124939966E+01  0.72559422886E+01  0.57141249109E+02  0.58413214157E+02  0.51100000000E-03 0.  1.
         11    1    1    2    0    0 -0.97124939966E+01 -0.72559422886E+01  0.41108342469E+02  0.42858803751E+02  0.51100000000E-03 0. -1.
<mgrwt>
<rscale>  0 0.24556860E+02</rscale>
<asrwt>0</asrwt>
<pdfrwt beam="2">  1        3 0.23249441E-03 0.24556860E+02</pdfrwt>
<pdfrwt beam="1">  1       -3 0.15347811E-01 0.24556860E+02</pdfrwt>
<totfact> 0.90137697E+05</totfact>
</mgrwt>
</event>
<event>
 4    1  0.4133473E-007  0.2008392E+02  0.7818608E-02  0.1743664E+00
          3   -1    0    0  501    0  0.00000000000E+00  0.00000000000E+00  0.15340269566E+02  0.15340551468E+02  0.93000000000E-01 0.  1.
         -3   -1    0    0    0  501 -0.00000000000E+00 -0.00000000000E+00 -0.65729376094E+01  0.65735955015E+01  0.93000000000E-01 0. -1.
        -11    1    1    2    0    0  0.40147005652E+01  0.91695071254E+01  0.35085490376E+01  0.10606959893E+02  0.51100000000E-03 0.  1.
         11    1    1    2    0    0 -0.40147005652E+01 -0.91695071254E+01  0.52587829188E+01  0.11307187077E+02  0.51100000000E-03 0. -1.
<mgrwt>
<rscale>  0 0.20083917E+02</rscale>
<asrwt>0</asrwt>
<pdfrwt beam="1">  1        3 0.23601137E-02 0.20083917E+02</pdfrwt>
<pdfrwt beam="2">  1       -3 0.10112935E-02 0.20083917E+02</pdfrwt>
<totfact> 0.17601410E+06</totfact>
</mgrwt>
</event>
<event>
 5    1  0.4133473E-007  0.2000216E+02  0.7818608E-02  0.1745285E+00
          3   -1    0    0  501    0  0.00000000000E+00  0.00000000000E+00  0.35026686811E+02  0.35026810273E+02  0.93000000000E-01 0. -1.
         -3   -1    0    0    0  501 -0.00000000000E+00 -0.00000000000E+00 -0.28546966049E+01  0.28562110752E+01  0.93000000000E-01 0.  1.
       1023    2    1    2    0    0  0.00000000000E+00  0.00000000000E+00  0.32171990206E+02  0.37883021349E+02  0.20002158701E+02 0.  0.
        -11    1    3    3    0    0 -0.73428595430E+01 -0.67885217943E+01  0.16353662066E+02  0.19168825673E+02  0.51100000000E-03 0. -1.
         11    1    3    3    0    0  0.73428595430E+01  0.67885217943E+01  0.15818328139E+02  0.18714195676E+02  0.51100000000E-03 0.  1.
<mgrwt>
<rscale>  0 0.20002159E+02</rscale>
<asrwt>0</asrwt>
<pdfrwt beam="1">  1        3 0.53888474E-02 0.20002159E+02</pdfrwt>
<pdfrwt beam="2">  1       -3 0.43931006E-03 0.20002159E+02</pdfrwt>
<totfact> 0.16820737E+06</totfact>
</mgrwt>
</event>
<event>
 5    1  0.4133473E-007  0.2000072E+02  0.7818608E-02  0.1745314E+00
         -3   -1    0    0    0  501 -0.00000000000E+00  0.00000000000E+00  0.20201905487E+02  0.20202119550E+02  0.93000000000E-01 0. -1.
          3   -1    0    0  501    0  0.00000000000E+00 -0.00000000000E+00 -0.49497095516E+01  0.49505831621E+01  0.93000000000E-01 0.  1.
       1023    2    1    2    0    0  0.00000000000E+00  0.00000000000E+00  0.15252195935E+02  0.25152702712E+02  0.20000724308E+02 0.  0.
        -11    1    3    3    0    0 -0.94056667705E+01 -0.33966410886E+01  0.77005497375E+01  0.12621497716E+02  0.51100000000E-03 0.  1.
         11    1    3    3    0    0  0.94056667705E+01  0.33966410886E+01  0.75516461980E+01  0.12531204996E+02  0.51100000000E-03 0. -1.
<mgrwt>
<rscale>  0 0.20000724E+02</rscale>
<asrwt>0</asrwt>
<pdfrwt beam="2">  1        3 0.76157744E-03 0.20000724E+02</pdfrwt>
<pdfrwt beam="1">  1       -3 0.31080691E-02 0.20000724E+02</pdfrwt>
<totfact> 0.17557045E+06</totfact>
</mgrwt>
</event>
<event>
 5    1  0.4133473E-007  0.2000140E+02  0.7818608E-02  0.1745300E+00
          3   -1    0    0  501    0  0.00000000000E+00  0.00000000000E+00  0.18051600056E+01  0.18075540506E+01  0.93000000000E-01 0.  1.
         -3   -1    0    0    0  501 -0.00000000000E+00 -0.00000000000E+00 -0.55365381113E+02  0.55365459222E+02  0.93000000000E-01 0. -1.
       1023    2    1    2    0    0  0.00000000000E+00  0.00000000000E+00 -0.53560221108E+02  0.57173013272E+02  0.20001403989E+02 0.  0.
        -11    1    3    3    0    0  0.99186437812E+01  0.12743718517E+01 -0.27073321833E+02  0.28861189744E+02  0.51100000000E-03 0.  1.
         11    1    3    3    0    0 -0.99186437812E+01 -0.12743718517E+01 -0.26486899275E+02  0.28311823529E+02  0.51100000000E-03 0. -1.
<mgrwt>
<rscale>  0 0.20001404E+02</rscale>
<asrwt>0</asrwt>
<pdfrwt beam="1">  1        3 0.27790713E-03 0.20001404E+02</pdfrwt>
<pdfrwt beam="2">  1       -3 0.85179398E-02 0.20001404E+02</pdfrwt>
<totfact> 0.15871319E+06</totfact>
</mgrwt>
</event>
<event>
 5    1  0.4133473E-007  0.2000143E+02  0.7818608E-02  0.1745300E+00
         -3   -1    0    0    0  501 -0.00000000000E+00  0.00000000000E+00  0.50992180555E+01  0.51000660562E+01  0.93000000000E-01 0. -1.
          3   -1    0    0  501    0  0.00000000000E+00 -0.00000000000E+00 -0.19611068738E+02  0.19611289250E+02  0.93000000000E-01 0.  1.
       1023    2    1    2    0    0  0.00000000000E+00  0.00000000000E+00 -0.14511850682E+02  0.24711355306E+02  0.20001431720E+02 0.  0.
        -11    1    3    3    0    0  0.99644771637E+01 -0.85005648677E+00 -0.72933232492E+01  0.12377639737E+02  0.51100000000E-03 0.  1.
         11    1    3    3    0    0 -0.99644771637E+01  0.85005648677E+00 -0.72185274332E+01  0.12333715569E+02  0.51100000000E-03 0. -1.
<mgrwt>
<rscale>  0 0.20001432E+02</rscale>
<asrwt>0</asrwt>
<pdfrwt beam="2">  1        3 0.30171696E-02 0.20001432E+02</pdfrwt>
<pdfrwt beam="1">  1       -3 0.78457729E-03 0.20001432E+02</pdfrwt>
<totfact> 0.17581791E+06</totfact>
</mgrwt>
</event>
<event>
 5    1  0.4189893E-007  0.2000237E+02  0.7818608E-02  0.1745281E+00
         -3   -1    0    0    0  501 -0.00000000000E+00  0.00000000000E+00  0.23321844160E+02  0.23322029586E+02  0.93000000000E-01 0.  1.
          3   -1    0    0  501    0  0.00000000000E+00 -0.00000000000E+00 -0.42881349402E+01  0.42891433020E+01  0.93000000000E-01 0. -1.
       1023    2    1    2    0    0  0.00000000000E+00  0.00000000000E+00  0.19033709220E+02  0.27611172888E+02  0.20002369400E+02 0.  0.
        -11    1    3    3    0    0 -0.14377096279E+01 -0.98964632133E+01  0.93384573914E+01  0.13682608663E+02  0.51100000000E-03 0. -1.
         11    1    3    3    0    0  0.14377096279E+01  0.98964632133E+01  0.96952518285E+01  0.13928564226E+02  0.51100000000E-03 0.  1.
<mgrwt>
<rscale>  0 0.20002369E+02</rscale>
<asrwt>0</asrwt>
<pdfrwt beam="2">  1        3 0.65980489E-03 0.20002369E+02</pdfrwt>
<pdfrwt beam="1">  1       -3 0.35880679E-02 0.20002369E+02</pdfrwt>
<totfact> 0.17404763E+06</totfact>
</mgrwt>
</event>
<event>
 5    1  0.4133473E-007  0.2000504E+02  0.7818608E-02  0.1745228E+00
         -3   -1    0    0    0  501 -0.00000000000E+00  0.00000000000E+00  0.19601787131E+01  0.19623836494E+01  0.93000000000E-01 0. -1.
          3   -1    0    0  501    0  0.00000000000E+00 -0.00000000000E+00 -0.51010512881E+02  0.51010597658E+02  0.93000000000E-01 0.  1.
       1023    2    1    2    0    0  0.00000000000E+00  0.00000000000E+00 -0.49050334168E+02  0.52972981307E+02  0.20005036030E+02 0.  0.
        -11    1    3    3    0    0  0.98221714632E+01  0.18838613506E+01 -0.24095079483E+02  0.26088251022E+02  0.51100000000E-03 0.  1.
         11    1    3    3    0    0 -0.98221714632E+01 -0.18838613506E+01 -0.24955254685E+02  0.26884730285E+02  0.51100000000E-03 0. -1.
<mgrwt>
<rscale>  0 0.20005036E+02</rscale>
<asrwt>0</asrwt>
<pdfrwt beam="2">  1        3 0.78479464E-02 0.20005036E+02</pdfrwt>
<pdfrwt beam="1">  1       -3 0.30174213E-03 0.20005036E+02</pdfrwt>
<totfact> 0.16056759E+06</totfact>
</mgrwt>
</event>
<event>
 4    1  0.4133473E-007  0.2001904E+02  0.7818608E-02  0.1744950E+00
         -3   -1    0    0    0  501 -0.00000000000E+00  0.00000000000E+00  0.20144608535E+01  0.20166064391E+01  0.93000000000E-01 0. -1.
          3   -1    0    0  501    0  0.00000000000E+00 -0.00000000000E+00 -0.49706979504E+02  0.49707066504E+02  0.93000000000E-01 0.  1.
        -11    1    1    2    0    0 -0.90977576732E+01  0.41734602845E+01 -0.23692616153E+02  0.25720167688E+02  0.51100000000E-03 0.  1.
         11    1    1    2    0    0  0.90977576732E+01 -0.41734602845E+01 -0.23999902498E+02  0.26003505256E+02  0.51100000000E-03 0. -1.
<mgrwt>
<rscale>  0 0.20019041E+02</rscale>
<asrwt>0</asrwt>
<pdfrwt beam="2">  1        3 0.76473984E-02 0.20019041E+02</pdfrwt>
<pdfrwt beam="1">  1       -3 0.31008883E-03 0.20019041E+02</pdfrwt>
<totfact> 0.16091649E+06</totfact>
</mgrwt>
</event>
<event>
 5    1  0.4133473E-007  0.2000223E+02  0.7818608E-02  0.1745284E+00
          3   -1    0    0  501    0  0.00000000000E+00  0.00000000000E+00  0.12033229547E+03  0.12033233141E+03  0.93000000000E-01 0. -1.
         -3   -1    0    0    0  501 -0.00000000000E+00 -0.00000000000E+00 -0.82858018582E+00  0.83378301993E+00  0.93000000000E-01 0.  1.
       1023    2    1    2    0    0  0.00000000000E+00  0.00000000000E+00  0.11950371528E+03  0.12116611443E+03  0.20002232846E+02 0.  0.
        -11    1    3    3    0    0  0.76374464797E+01  0.64563883581E+01  0.60251018313E+02  0.61075369400E+02  0.51100000000E-03 0.  1.
         11    1    3    3    0    0 -0.76374464797E+01 -0.64563883581E+01  0.59252696972E+02  0.60090745029E+02  0.51100000000E-03 0. -1.
<mgrwt>
<rscale>  0 0.20002233E+02</rscale>
<asrwt>0</asrwt>
<pdfrwt beam="1">  1        3 0.18513058E-01 0.20002233E+02</pdfrwt>
<pdfrwt beam="2">  1       -3 0.12787690E-03 0.20002233E+02</pdfrwt>
<totfact> 0.13481535E+06</totfact>
</mgrwt>
</event>
<event>
 5    1  0.4133473E-007  0.2000170E+02  0.7818608E-02  0.1745294E+00
          3   -1    0    0  501    0  0.00000000000E+00  0.00000000000E+00  0.57947110364E+02  0.57947184993E+02  0.93000000000E-01 0. -1.
         -3   -1    0    0    0  501 -0.00000000000E+00 -0.00000000000E+00 -0.17246761311E+01  0.17271817383E+01  0.93000000000E-01 0.  1.
       1023    2    1    2    0    0  0.00000000000E+00  0.00000000000E+00  0.56222434233E+02  0.59674366731E+02  0.20001698269E+02 0.  0.
        -11    1    3    3    0    0  0.49750076561E+01  0.86754016066E+01  0.28292422556E+02  0.30007906767E+02  0.51100000000E-03 0.  1.
         11    1    3    3    0    0 -0.49750076561E+01 -0.86754016066E+01  0.27930011677E+02  0.29666459964E+02  0.51100000000E-03 0. -1.
<mgrwt>
<rscale>  0 0.20001698E+02</rscale>
<asrwt>0</asrwt>
<pdfrwt beam="1">  1        3 0.89151387E-02 0.20001698E+02</pdfrwt>
<pdfrwt beam="2">  1       -3 0.26553326E-03 0.20001698E+02</pdfrwt>
<totfact> 0.15755321E+06</totfact>
</mgrwt>
</event>
<event>
 5    1  0.4177219E-007  0.2000138E+02  0.7818608E-02  0.1745301E+00
         -3   -1    0    0    0  501 -0.00000000000E+00  0.00000000000E+00  0.39093472448E+02  0.39093583067E+02  0.93000000000E-01 0.  1.
          3   -1    0    0  501    0  0.00000000000E+00 -0.00000000000E+00 -0.25573650169E+01  0.25590554566E+01  0.93000000000E-01 0. -1.
       1023    2    1    2    0    0  0.00000000000E+00  0.00000000000E+00  0.36536107431E+02  0.41652638523E+02  0.20001378697E+02 0.  0.
        -11    1    3    3    0    0 -0.51936721273E+01  0.85457684002E+01  0.18469952757E+02  0.21003417408E+02  0.51100000000E-03 0. -1.
         11    1    3    3    0    0  0.51936721273E+01 -0.85457684002E+01  0.18066154674E+02  0.20649221116E+02  0.51100000000E-03 0.  1.
<mgrwt>
<rscale>  0 0.20001379E+02</rscale>
<asrwt>0</asrwt>
<pdfrwt beam="2">  1        3 0.39357933E-03 0.20001379E+02</pdfrwt>
<pdfrwt beam="1">  1       -3 0.60145187E-02 0.20001379E+02</pdfrwt>
<totfact> 0.16625189E+06</totfact>
</mgrwt>
</event>
<event>
 5    1  0.4133473E-007  0.2000030E+02  0.7818608E-02  0.1745322E+00
          3   -1    0    0  501    0  0.00000000000E+00  0.00000000000E+00  0.76026687688E+01  0.76032375609E+01  0.93000000000E-01 0. -1.
         -3   -1    0    0    0  501 -0.00000000000E+00 -0.00000000000E+00 -0.13152439648E+02  0.13152768442E+02  0.93000000000E-01 0.  1.
       1023    2    1    2    0    0  0.00000000000E+00  0.00000000000E+00 -0.55497708791E+01  0.20756006003E+02  0.20000295707E+02 0.  0.
        -11    1    3    3    0    0  0.10127179848E+01  0.99486571833E+01 -0.27336425651E+01  0.10366975422E+02  0.51100000000E-03 0.  1.
         11    1    3    3    0    0 -0.10127179848E+01 -0.99486571833E+01 -0.28161283140E+01  0.10389030581E+02  0.51100000000E-03 0. -1.
<mgrwt>
<rscale>  0 0.20000296E+02</rscale>
<asrwt>0</asrwt>
<pdfrwt beam="1">  1        3 0.11697104E-02 0.20000296E+02</pdfrwt>
<pdfrwt beam="2">  1       -3 0.20235213E-02 0.20000296E+02</pdfrwt>
<totfact> 0.17835939E+06</totfact>
</mgrwt>
</event>
<event>
 5    1  0.4133473E-007  0.2000032E+02  0.7818608E-02  0.1745322E+00
         -3   -1    0    0    0  501 -0.00000000000E+00  0.00000000000E+00  0.28076929672E+01  0.28092327775E+01  0.93000000000E-01 0. -1.
          3   -1    0    0  501    0  0.00000000000E+00 -0.00000000000E+00 -0.35606194945E+02  0.35606316399E+02  0.93000000000E-01 0.  1.
       1023    2    1    2    0    0  0.00000000000E+00  0.00000000000E+00 -0.32798501978E+02  0.38415549176E+02  0.20000317160E+02 0.  0.
        -11    1    3    3    0    0 -0.33627679295E+01  0.94177929902E+01 -0.16421848066E+02  0.19227067564E+02  0.51100000000E-03 0.  1.
         11    1    3    3    0    0  0.33627679295E+01 -0.94177929902E+01 -0.16376653912E+02  0.19188481612E+02  0.51100000000E-03 0. -1.
<mgrwt>
<rscale>  0 0.20000317E+02</rscale>
<asrwt>0</asrwt>
<pdfrwt beam="2">  1        3 0.54780036E-02 0.20000317E+02</pdfrwt>
<pdfrwt beam="1">  1       -3 0.43208058E-03 0.20000317E+02</pdfrwt>
<totfact> 0.16795464E+06</totfact>
</mgrwt>
</event>
<event>
 5    1  0.4133473E-007  0.2000039E+02  0.7818608E-02  0.1745320E+00
         -3   -1    0    0    0  501 -0.00000000000E+00  0.00000000000E+00  0.91096454270E+01  0.91101201312E+01  0.93000000000E-01 0.  1.
          3   -1    0    0  501    0  0.00000000000E+00 -0.00000000000E+00 -0.10976840859E+02  0.10977234817E+02  0.93000000000E-01 0. -1.
       1023    2    1    2    0    0  0.00000000000E+00  0.00000000000E+00 -0.18671954317E+01  0.20087354949E+02  0.20000385248E+02 0.  0.
        -11    1    3    3    0    0 -0.99962657165E+01 -0.27598643706E+00 -0.88485354562E+00  0.10039146520E+02  0.51100000000E-03 0. -1.
         11    1    3    3    0    0  0.99962657165E+01  0.27598643706E+00 -0.98234188610E+00  0.10048208429E+02  0.51100000000E-03 0.  1.
<mgrwt>
<rscale>  0 0.20000385E+02</rscale>
<asrwt>0</asrwt>
<pdfrwt beam="2">  1        3 0.16888116E-02 0.20000385E+02</pdfrwt>
<pdfrwt beam="1">  1       -3 0.14015507E-02 0.20000385E+02</pdfrwt>
<totfact> 0.17879124E+06</totfact>
</mgrwt>
</event>
<event>
 5    1  0.4133473E-007  0.2000712E+02  0.7818608E-02  0.1745187E+00
          3   -1    0    0  501    0  0.00000000000E+00  0.00000000000E+00  0.23929698032E+01  0.23947762900E+01  0.93000000000E-01 0.  1.
         -3   -1    0    0    0  501 -0.00000000000E+00 -0.00000000000E+00 -0.41801203004E+02  0.41801306458E+02  0.93000000000E-01 0. -1.
       1023    2    1    2    0    0  0.00000000000E+00  0.00000000000E+00 -0.39408233201E+02  0.44196082748E+02  0.20007120889E+02 0.  0.
        -11    1    3    3    0    0 -0.96919944666E+01 -0.24768565382E+01 -0.19614487921E+02  0.22018122348E+02  0.51100000000E-03 0. -1.
         11    1    3    3    0    0  0.96919944666E+01  0.24768565382E+01 -0.19793745279E+02  0.22177960400E+02  0.51100000000E-03 0.  1.
<mgrwt>
<rscale>  0 0.20007121E+02</rscale>
<asrwt>0</asrwt>
<pdfrwt beam="1">  1        3 0.36829615E-03 0.20007121E+02</pdfrwt>
<pdfrwt beam="2">  1       -3 0.64311007E-02 0.20007121E+02</pdfrwt>
<totfact> 0.16484418E+06</totfact>
</mgrwt>
</event>
<event>
 5    1  0.4133473E-007  0.2000035E+02  0.7818608E-02  0.1745321E+00
          3   -1    0    0  501    0  0.00000000000E+00  0.00000000000E+00  0.41092890823E+02  0.41092996060E+02  0.93000000000E-01 0. -1.
         -3   -1    0    0    0  501 -0.00000000000E+00 -0.00000000000E+00 -0.24325997479E+01  0.24343768265E+01  0.93000000000E-01 0.  1.
       1023    2    1    2    0    0  0.00000000000E+00  0.00000000000E+00  0.38660291075E+02  0.43527372886E+02  0.20000352107E+02 0.  0.
        -11    1    3    3    0    0  0.55193391568E+01  0.83390071151E+01  0.19410888341E+02  0.21835400863E+02  0.51100000000E-03 0.  1.
         11    1    3    3    0    0 -0.55193391568E+01 -0.83390071151E+01  0.19249402734E+02  0.21691972023E+02  0.51100000000E-03 0. -1.
<mgrwt>
<rscale>  0 0.20000352E+02</rscale>
<asrwt>0</asrwt>
<pdfrwt beam="1">  1        3 0.63221271E-02 0.20000352E+02</pdfrwt>
<pdfrwt beam="2">  1       -3 0.37439096E-03 0.20000352E+02</pdfrwt>
<totfact> 0.16528107E+06</totfact>
</mgrwt>
</event>
<event>
 5    1  0.4133473E-007  0.2000034E+02  0.7818608E-02  0.1745321E+00
          3   -1    0    0  501    0  0.00000000000E+00  0.00000000000E+00  0.93108091349E+01  0.93112735835E+01  0.93000000000E-01 0.  1.
         -3   -1    0    0    0  501 -0.00000000000E+00 -0.00000000000E+00 -0.10739632480E+02  0.10740035140E+02  0.93000000000E-01 0. -1.
       1023    2    1    2    0    0  0.00000000000E+00  0.00000000000E+00 -0.14288233454E+01  0.20051308724E+02  0.20000336132E+02 0.  0.
        -11    1    3    3    0    0 -0.93186031891E+01 -0.36285683171E+01 -0.69227243798E+00  0.10024076756E+02  0.51100000000E-03 0. -1.
         11    1    3    3    0    0  0.93186031891E+01  0.36285683171E+01 -0.73655090742E+00  0.10027231967E+02  0.51100000000E-03 0.  1.
<mgrwt>
<rscale>  0 0.20000336E+02</rscale>
<asrwt>0</asrwt>
<pdfrwt beam="1">  1        3 0.14324989E-02 0.20000336E+02</pdfrwt>
<pdfrwt beam="2">  1       -3 0.16523179E-02 0.20000336E+02</pdfrwt>
<totfact> 0.17881708E+06</totfact>
</mgrwt>
</event>
<event>
 5    1  0.4133473E-007  0.2000170E+02  0.7818608E-02  0.1745294E+00
         -3   -1    0    0    0  501 -0.00000000000E+00  0.00000000000E+00  0.20946638228E+01  0.20967273382E+01  0.93000000000E-01 0.  1.
          3   -1    0    0  501    0  0.00000000000E+00 -0.00000000000E+00 -0.47722875419E+02  0.47722966036E+02  0.93000000000E-01 0. -1.
       1023    2    1    2    0    0  0.00000000000E+00  0.00000000000E+00 -0.45628211597E+02  0.49819693374E+02  0.20001703788E+02 0.  0.
        -11    1    3    3    0    0 -0.52996618496E+01  0.84811598484E+01 -0.22872532776E+02  0.24963358027E+02  0.51100000000E-03 0.  1.
         11    1    3    3    0    0  0.52996618496E+01 -0.84811598484E+01 -0.22755678820E+02  0.24856335348E+02  0.51100000000E-03 0. -1.
<mgrwt>
<rscale>  0 0.20001704E+02</rscale>
<asrwt>0</asrwt>
<pdfrwt beam="2">  1        3 0.73421457E-02 0.20001704E+02</pdfrwt>
<pdfrwt beam="1">  1       -3 0.32242171E-03 0.20001704E+02</pdfrwt>
<totfact> 0.16212935E+06</totfact>
</mgrwt>
</event>
<event>
 5    1  0.4133473E-007  0.2000048E+02  0.7818608E-02  0.1745319E+00
          3   -1    0    0  501    0  0.00000000000E+00  0.00000000000E+00  0.95004652548E+02  0.95004698067E+02  0.93000000000E-01 0. -1.
         -3   -1    0    0    0  501 -0.00000000000E+00 -0.00000000000E+00 -0.10505304756E+01  0.10546389336E+01  0.93000000000E-01 0.  1.
       1023    2    1    2    0    0  0.00000000000E+00  0.00000000000E+00  0.93954122072E+02  0.96059337000E+02  0.20000479258E+02 0.  0.
        -11    1    3    3    0    0 -0.77774584637E+01 -0.62861572039E+01  0.47037780735E+02  0.48089057480E+02  0.51100000000E-03 0. -1.
         11    1    3    3    0    0  0.77774584637E+01  0.62861572039E+01  0.46916341337E+02  0.47970279521E+02  0.51100000000E-03 0.  1.
<mgrwt>
<rscale>  0 0.20000479E+02</rscale>
<asrwt>0</asrwt>
<pdfrwt beam="1">  1        3 0.14616423E-01 0.20000479E+02</pdfrwt>
<pdfrwt beam="2">  1       -3 0.16193958E-03 0.20000479E+02</pdfrwt>
<totfact> 0.14315207E+06</totfact>
</mgrwt>
</event>
<event>
 4    1  0.4133473E-007  0.2003652E+02  0.7818608E-02  0.1744603E+00
         -3   -1    0    0    0  501 -0.00000000000E+00  0.00000000000E+00  0.18597992188E+01  0.18621230180E+01  0.93000000000E-01 0.  1.
          3   -1    0    0  501    0  0.00000000000E+00 -0.00000000000E+00 -0.53929713812E+02  0.53929794000E+02  0.93000000000E-01 0. -1.
        -11    1    1    2    0    0 -0.91963150235E+01  0.39642263426E+01 -0.25256294465E+02  0.27169242000E+02  0.51100000000E-03 0. -1.
         11    1    1    2    0    0  0.91963150235E+01 -0.39642263426E+01 -0.26813620129E+02  0.28622675018E+02  0.51100000000E-03 0.  1.
<mgrwt>
<rscale>  0 0.20036517E+02</rscale>
<asrwt>0</asrwt>
<pdfrwt beam="2">  1        3 0.82970628E-02 0.20036517E+02</pdfrwt>
<pdfrwt beam="1">  1       -3 0.28630792E-03 0.20036517E+02</pdfrwt>
<totfact> 0.15871889E+06</totfact>
</mgrwt>
</event>
<event>
 5    1  0.4133473E-007  0.2000001E+02  0.7818608E-02  0.1745328E+00
         -3   -1    0    0    0  501 -0.00000000000E+00  0.00000000000E+00  0.47576452330E+01  0.47585541043E+01  0.93000000000E-01 0. -1.
          3   -1    0    0  501    0  0.00000000000E+00 -0.00000000000E+00 -0.21015811220E+02  0.21016016992E+02  0.93000000000E-01 0.  1.
       1023    2    1    2    0    0  0.00000000000E+00  0.00000000000E+00 -0.16258165987E+02  0.25774571097E+02  0.20000013849E+02 0.  0.
        -11    1    3    3    0    0 -0.93876798886E+01  0.34455086923E+01 -0.81401982680E+01  0.12894296877E+02  0.51100000000E-03 0. -1.
         11    1    3    3    0    0  0.93876798886E+01 -0.34455086923E+01 -0.81179677188E+01  0.12880274220E+02  0.51100000000E-03 0.  1.
<mgrwt>
<rscale>  0 0.20000014E+02</rscale>
<asrwt>0</asrwt>
<pdfrwt beam="2">  1        3 0.32332874E-02 0.20000014E+02</pdfrwt>
<pdfrwt beam="1">  1       -3 0.73203117E-03 0.20000014E+02</pdfrwt>
<totfact> 0.17518908E+06</totfact>
</mgrwt>
</event>
<event>
 5    1  0.4133473E-007  0.2000378E+02  0.7818608E-02  0.1745253E+00
         -3   -1    0    0    0  501 -0.00000000000E+00  0.00000000000E+00  0.75733791641E+01  0.75739501558E+01  0.93000000000E-01 0. -1.
          3   -1    0    0  501    0  0.00000000000E+00 -0.00000000000E+00 -0.13207901704E+02  0.13208229118E+02  0.93000000000E-01 0.  1.
       1023    2    1    2    0    0  0.00000000000E+00  0.00000000000E+00 -0.56345225399E+01  0.20782179273E+02  0.20003777921E+02 0.  0.
        -11    1    3    3    0    0  0.99902284823E+01 -0.45855123970E+00 -0.26602233469E+01  0.10348513076E+02  0.51100000000E-03 0. -1.
         11    1    3    3    0    0 -0.99902284823E+01  0.45855123970E+00 -0.29742991930E+01  0.10433666197E+02  0.51100000000E-03 0.  1.
<mgrwt>
<rscale>  0 0.20003778E+02</rscale>
<asrwt>0</asrwt>
<pdfrwt beam="2">  1        3 0.20320540E-02 0.20003778E+02</pdfrwt>
<pdfrwt beam="1">  1       -3 0.11652044E-02 0.20003778E+02</pdfrwt>
<totfact> 0.17827051E+06</totfact>
</mgrwt>
</event>
<event>
 5    1  0.4133473E-007  0.2000168E+02  0.7818608E-02  0.1745295E+00
         -3   -1    0    0    0  501 -0.00000000000E+00  0.00000000000E+00  0.12167172013E+01  0.12202662611E+01  0.93000000000E-01 0. -1.
          3   -1    0    0  501    0  0.00000000000E+00 -0.00000000000E+00 -0.82078908969E+02  0.82078961656E+02  0.93000000000E-01 0.  1.
       1023    2    1    2    0    0  0.00000000000E+00  0.00000000000E+00 -0.80862191767E+02  0.83299227917E+02  0.20001682782E+02 0.  0.
        -11    1    3    3    0    0 -0.56154341136E+01  0.82749824527E+01 -0.40812638657E+02  0.42019994161E+02  0.51100000000E-03 0. -1.
         11    1    3    3    0    0  0.56154341136E+01 -0.82749824527E+01 -0.40049553110E+02  0.41279233756E+02  0.51100000000E-03 0.  1.
<mgrwt>
<rscale>  0 0.20001683E+02</rscale>
<asrwt>0</asrwt>
<pdfrwt beam="2">  1        3 0.12627797E-01 0.20001683E+02</pdfrwt>
<pdfrwt beam="1">  1       -3 0.18746438E-03 0.20001683E+02</pdfrwt>
<totfact> 0.14781830E+06</totfact>
</mgrwt>
</event>
<event>
 5    1  0.4181334E-007  0.2000057E+02  0.7818608E-02  0.1745317E+00
         -3   -1    0    0    0  501 -0.00000000000E+00  0.00000000000E+00  0.18937824738E+02  0.18938053089E+02  0.93000000000E-01 0. -1.
          3   -1    0    0  501    0  0.00000000000E+00 -0.00000000000E+00 -0.52800714504E+01  0.52808904099E+01  0.93000000000E-01 0.  1.
       1023    2    1    2    0    0  0.00000000000E+00  0.00000000000E+00  0.13657753287E+02  0.24218943499E+02  0.20000574975E+02 0.  0.
        -11    1    3    3    0    0 -0.96103501645E+01  0.27644062523E+01  0.69143070082E+01  0.12157648370E+02  0.51100000000E-03 0.  1.
         11    1    3    3    0    0  0.96103501645E+01 -0.27644062523E+01  0.67434462790E+01  0.12061295129E+02  0.51100000000E-03 0. -1.
<mgrwt>
<rscale>  0 0.20000575E+02</rscale>
<asrwt>0</asrwt>
<pdfrwt beam="2">  1        3 0.81239923E-03 0.20000575E+02</pdfrwt>
<pdfrwt beam="1">  1       -3 0.29135921E-02 0.20000575E+02</pdfrwt>
<totfact> 0.17615212E+06</totfact>
</mgrwt>
</event>
<event>
 5    1  0.4133473E-007  0.2000151E+02  0.7818608E-02  0.1745298E+00
         -3   -1    0    0    0  501 -0.00000000000E+00  0.00000000000E+00  0.97655926013E+00  0.98097756781E+00  0.93000000000E-01 0.  1.
          3   -1    0    0  501    0  0.00000000000E+00 -0.00000000000E+00 -0.10218017725E+03  0.10218021957E+03  0.93000000000E-01 0. -1.
       1023    2    1    2    0    0  0.00000000000E+00  0.00000000000E+00 -0.10120361799E+03  0.10316119714E+03  0.20001507472E+02 0.  0.
        -11    1    3    3    0    0 -0.85461932986E+01 -0.51937635391E+01 -0.50345196075E+02  0.51328855118E+02  0.51100000000E-03 0. -1.
         11    1    3    3    0    0  0.85461932986E+01  0.51937635391E+01 -0.50858421913E+02  0.51832342021E+02  0.51100000000E-03 0.  1.
<mgrwt>
<rscale>  0 0.20001507E+02</rscale>
<asrwt>0</asrwt>
<pdfrwt beam="2">  1        3 0.15720362E-01 0.20001507E+02</pdfrwt>
<pdfrwt beam="1">  1       -3 0.15058309E-03 0.20001507E+02</pdfrwt>
<totfact> 0.14067267E+06</totfact>
</mgrwt>
</event>
<event>
 5    1  0.4133473E-007  0.2000979E+02  0.7818608E-02  0.1745133E+00
         -3   -1    0    0    0  501 -0.00000000000E+00  0.00000000000E+00  0.32976712357E+01  0.32989823551E+01  0.93000000000E-01 0. -1.
          3   -1    0    0  501    0  0.00000000000E+00 -0.00000000000E+00 -0.30346720941E+02  0.30346863444E+02  0.93000000000E-01 0.  1.
       1023    2    1    2    0    0  0.00000000000E+00  0.00000000000E+00 -0.27049049705E+02  0.33645845799E+02  0.20009793841E+02 0.  0.
        -11    1    3    3    0    0  0.89171208759E+01 -0.45366172806E+01 -0.13600117340E+02  0.16883694293E+02  0.51100000000E-03 0. -1.
         11    1    3    3    0    0 -0.89171208759E+01  0.45366172806E+01 -0.13448932365E+02  0.16762151506E+02  0.51100000000E-03 0.  1.
<mgrwt>
<rscale>  0 0.20009794E+02</rscale>
<asrwt>0</asrwt>
<pdfrwt beam="2">  1        3 0.46688379E-02 0.20009794E+02</pdfrwt>
<pdfrwt beam="1">  1       -3 0.50744587E-03 0.20009794E+02</pdfrwt>
<totfact> 0.17039634E+06</totfact>
</mgrwt>
</event>
<event>
 5    1  0.4182073E-007  0.2000065E+02  0.7818608E-02  0.1745315E+00
         -3   -1    0    0    0  501 -0.00000000000E+00  0.00000000000E+00  0.60125898789E+01  0.60133090767E+01  0.93000000000E-01 0. -1.
          3   -1    0    0  501    0  0.00000000000E+00 -0.00000000000E+00 -0.16631002919E+02  0.16631262944E+02  0.93000000000E-01 0.  1.
       1023    2    1    2    0    0  0.00000000000E+00  0.00000000000E+00 -0.10618413040E+02  0.22644572020E+02  0.20000648652E+02 0.  0.
        -11    1    3    3    0    0  0.47469088559E+01  0.88016776099E+01 -0.52392857512E+01  0.11289499009E+02  0.51100000000E-03 0. -1.
         11    1    3    3    0    0 -0.47469088559E+01 -0.88016776099E+01 -0.53791272892E+01  0.11355073011E+02  0.51100000000E-03 0.  1.
<mgrwt>
<rscale>  0 0.20000649E+02</rscale>
<asrwt>0</asrwt>
<pdfrwt beam="2">  1        3 0.25586911E-02 0.20000649E+02</pdfrwt>
<pdfrwt beam="1">  1       -3 0.92508916E-03 0.20000649E+02</pdfrwt>
<totfact> 0.17713039E+06</totfact>
</mgrwt>
</event>
<event>
 5    1  0.4133473E-007  0.2000198E+02  0.7818608E-02  0.1745289E+00
          3   -1    0    0  501    0  0.00000000000E+00  0.00000000000E+00  0.45540569401E+01  0.45550064340E+01  0.93000000000E-01 0.  1.
         -3   -1    0    0    0  501 -0.00000000000E+00 -0.00000000000E+00 -0.21959455770E+02  0.21959652700E+02  0.93000000000E-01 0. -1.
       1023    2    1    2    0    0  0.00000000000E+00  0.00000000000E+00 -0.17405398829E+02  0.26514659134E+02  0.20001980916E+02 0.  0.
        -11    1    3    3    0    0 -0.33325883822E+01  0.94293716162E+01 -0.86698127941E+01  0.13235741330E+02  0.51100000000E-03 0. -1.
         11    1    3    3    0    0  0.33325883822E+01 -0.94293716162E+01 -0.87355860353E+01  0.13278917804E+02  0.51100000000E-03 0.  1.
<mgrwt>
<rscale>  0 0.20001981E+02</rscale>
<asrwt>0</asrwt>
<pdfrwt beam="1">  1        3 0.70071235E-03 0.20001981E+02</pdfrwt>
<pdfrwt beam="2">  1       -3 0.33784659E-02 0.20001981E+02</pdfrwt>
<totfact> 0.17471472E+06</totfact>
</mgrwt>
</event>
<event>
 5    1  0.4195537E-007  0.2000222E+02  0.7818608E-02  0.1745284E+00
          3   -1    0    0  501    0  0.00000000000E+00  0.00000000000E+00  0.39936262874E+01  0.39947089911E+01  0.93000000000E-01 0. -1.
         -3   -1    0    0    0  501 -0.00000000000E+00 -0.00000000000E+00 -0.25040896552E+02  0.25041069249E+02  0.93000000000E-01 0.  1.
       1023    2    1    2    0    0  0.00000000000E+00  0.00000000000E+00 -0.21047270264E+02  0.29035778240E+02  0.20002220687E+02 0.  0.
        -11    1    3    3    0    0 -0.99237330118E+01  0.12375566336E+01 -0.10670131114E+02  0.14624080195E+02  0.51100000000E-03 0. -1.
         11    1    3    3    0    0  0.99237330118E+01 -0.12375566336E+01 -0.10377139150E+02  0.14411698044E+02  0.51100000000E-03 0.  1.
<mgrwt>
<rscale>  0 0.20002221E+02</rscale>
<asrwt>0</asrwt>
<pdfrwt beam="1">  1        3 0.61450063E-03 0.20002221E+02</pdfrwt>
<pdfrwt beam="2">  1       -3 0.38525421E-02 0.20002221E+02</pdfrwt>
<totfact> 0.17320426E+06</totfact>
</mgrwt>
</event>
<event>
 5    1  0.4133473E-007  0.2000362E+02  0.7818608E-02  0.1745256E+00
         -3   -1    0    0    0  501 -0.00000000000E+00  0.00000000000E+00  0.18558357609E+02  0.18558590629E+02  0.93000000000E-01 0.  1.
          3   -1    0    0  501    0  0.00000000000E+00 -0.00000000000E+00 -0.53896905178E+01  0.53904928233E+01  0.93000000000E-01 0. -1.
       1023    2    1    2    0    0  0.00000000000E+00  0.00000000000E+00  0.13168667091E+02  0.23949083452E+02  0.20003619804E+02 0.  0.
        -11    1    3    3    0    0 -0.76472718448E+01 -0.64455144741E+01  0.67086247189E+01  0.12042884596E+02  0.51100000000E-03 0. -1.
         11    1    3    3    0    0  0.76472718448E+01  0.64455144741E+01  0.64600423720E+01  0.11906198857E+02  0.51100000000E-03 0.  1.
<mgrwt>
<rscale>  0 0.20003620E+02</rscale>
<asrwt>0</asrwt>
<pdfrwt beam="2">  1        3 0.82926280E-03 0.20003620E+02</pdfrwt>
<pdfrwt beam="1">  1       -3 0.28552116E-02 0.20003620E+02</pdfrwt>
<totfact> 0.17626231E+06</totfact>
</mgrwt>
</event>
<event>
 5    1  0.4347302E-007  0.2000112E+02  0.7818608E-02  0.1745306E+00
         -3   -1    0    0    0  501 -0.00000000000E+00  0.00000000000E+00  0.18835299265E+02  0.18835528860E+02  0.93000000000E-01 0. -1.
          3   -1    0    0  501    0  0.00000000000E+00 -0.00000000000E+00 -0.53091050502E+01  0.53099195318E+01  0.93000000000E-01 0.  1.
       1023    2    1    2    0    0  0.00000000000E+00  0.00000000000E+00  0.13526194215E+02  0.24145448391E+02  0.20001118671E+02 0.  0.
        -11    1    3    3    0    0  0.96796292466E+00  0.99535287192E+01  0.68098608396E+01  0.12098921072E+02  0.51100000000E-03 0.  1.
         11    1    3    3    0    0 -0.96796292466E+00 -0.99535287192E+01  0.67163333756E+01  0.12046527320E+02  0.51100000000E-03 0. -1.
<mgrwt>
<rscale>  0 0.20001119E+02</rscale>
<asrwt>0</asrwt>
<pdfrwt beam="2">  1        3 0.81686571E-03 0.20001119E+02</pdfrwt>
<pdfrwt beam="1">  1       -3 0.28978187E-02 0.20001119E+02</pdfrwt>
<totfact> 0.17618750E+06</totfact>
</mgrwt>
</event>
<event>
 5    1  0.4175731E-007  0.2000090E+02  0.7818608E-02  0.1745310E+00
          3   -1    0    0  501    0  0.00000000000E+00  0.00000000000E+00  0.27657436649E+02  0.27657593008E+02  0.93000000000E-01 0.  1.
         -3   -1    0    0    0  501 -0.00000000000E+00 -0.00000000000E+00 -0.36152236928E+01  0.36164196865E+01  0.93000000000E-01 0. -1.
       1023    2    1    2    0    0  0.00000000000E+00  0.00000000000E+00  0.24042212957E+02  0.31274012695E+02  0.20000896635E+02 0.  0.
        -11    1    3    3    0    0  0.11736011099E+01 -0.99311673286E+01  0.12114168280E+02  0.15708548547E+02  0.51100000000E-03 0.  1.
         11    1    3    3    0    0 -0.11736011099E+01  0.99311673286E+01  0.11928044677E+02  0.15565464148E+02  0.51100000000E-03 0. -1.
<mgrwt>
<rscale>  0 0.20000897E+02</rscale>
<asrwt>0</asrwt>
<pdfrwt beam="1">  1        3 0.42550941E-02 0.20000897E+02</pdfrwt>
<pdfrwt beam="2">  1       -3 0.55629231E-03 0.20000897E+02</pdfrwt>
<totfact> 0.17190920E+06</totfact>
</mgrwt>
</event>
<event>
 5    1  0.4133473E-007  0.2000269E+02  0.7818608E-02  0.1745275E+00
          3   -1    0    0  501    0  0.00000000000E+00  0.00000000000E+00  0.18624165041E+02  0.18624397238E+02  0.93000000000E-01 0.  1.
         -3   -1    0    0    0  501 -0.00000000000E+00 -0.00000000000E+00 -0.53701422071E+01  0.53709474326E+01  0.93000000000E-01 0. -1.
       1023    2    1    2    0    0  0.00000000000E+00  0.00000000000E+00  0.13254022834E+02  0.23995344671E+02  0.20002685934E+02 0.  0.
        -11    1    3    3    0    0 -0.86759123368E+01 -0.49736907597E+01  0.64669359741E+01  0.11909253369E+02  0.51100000000E-03 0. -1.
         11    1    3    3    0    0  0.86759123368E+01  0.49736907597E+01  0.67870868599E+01  0.12086091302E+02  0.51100000000E-03 0.  1.
<mgrwt>
<rscale>  0 0.20002686E+02</rscale>
<asrwt>0</asrwt>
<pdfrwt beam="1">  1        3 0.28653359E-02 0.20002686E+02</pdfrwt>
<pdfrwt beam="2">  1       -3 0.82625554E-03 0.20002686E+02</pdfrwt>
<totfact> 0.17624023E+06</totfact>
</mgrwt>
</event>
<event>
 5    1  0.4133473E-007  0.2000033E+02  0.7818608E-02  0.1745322E+00
          3   -1    0    0  501    0  0.00000000000E+00  0.00000000000E+00  0.12527498215E+01  0.12561970846E+01  0.93000000000E-01 0.  1.
         -3   -1    0    0    0  501 -0.00000000000E+00 -0.00000000000E+00 -0.79713853462E+02  0.79713907712E+02  0.93000000000E-01 0. -1.
       1023    2    1    2    0    0  0.00000000000E+00  0.00000000000E+00 -0.78461103641E+02  0.80970104797E+02  0.20000327156E+02 0.  0.
        -11    1    3    3    0    0 -0.58302798045E+01  0.81245628210E+01 -0.39436493308E+02  0.40684612427E+02  0.51100000000E-03 0. -1.
         11    1    3    3    0    0  0.58302798045E+01 -0.81245628210E+01 -0.39024610332E+02  0.40285492370E+02  0.51100000000E-03 0.  1.
<mgrwt>
<rscale>  0 0.20000327E+02</rscale>
<asrwt>0</asrwt>
<pdfrwt beam="1">  1        3 0.19300015E-03 0.20000327E+02</pdfrwt>
<pdfrwt beam="2">  1       -3 0.12263935E-01 0.20000327E+02</pdfrwt>
<totfact> 0.14876217E+06</totfact>
</mgrwt>
</event>
<event>
 5    1  0.4133473E-007  0.2000879E+02  0.7818608E-02  0.1745153E+00
          3   -1    0    0  501    0  0.00000000000E+00  0.00000000000E+00  0.17736857454E+01  0.17761222152E+01  0.93000000000E-01 0.  1.
         -3   -1    0    0    0  501 -0.00000000000E+00 -0.00000000000E+00 -0.56388139238E+02  0.56388215930E+02  0.93000000000E-01 0. -1.
       1023    2    1    2    0    0  0.00000000000E+00  0.00000000000E+00 -0.54614453493E+02  0.58164338145E+02  0.20008790606E+02 0.  0.
        -11    1    3    3    0    0  0.51540079825E+01  0.85696921577E+01 -0.28152257316E+02  0.29875625754E+02  0.51100000000E-03 0. -1.
         11    1    3    3    0    0 -0.51540079825E+01 -0.85696921577E+01 -0.26462196177E+02  0.28288712391E+02  0.51100000000E-03 0.  1.
<mgrwt>
<rscale>  0 0.20008791E+02</rscale>
<asrwt>0</asrwt>
<pdfrwt beam="1">  1        3 0.27306809E-03 0.20008791E+02</pdfrwt>
<pdfrwt beam="2">  1       -3 0.86752903E-02 0.20008791E+02</pdfrwt>
<totfact> 0.15813835E+06</totfact>
</mgrwt>
</event>
<event>
 5    1  0.4133473E-007  0.2000072E+02  0.7818608E-02  0.1745314E+00
         -3   -1    0    0    0  501 -0.00000000000E+00  0.00000000000E+00  0.19018408692E+02  0.19018636076E+02  0.93000000000E-01 0.  1.
          3   -1    0    0  501    0  0.00000000000E+00 -0.00000000000E+00 -0.52577704195E+01  0.52585928521E+01  0.93000000000E-01 0. -1.
       1023    2    1    2    0    0  0.00000000000E+00  0.00000000000E+00  0.13760638273E+02  0.24277228928E+02  0.20000716956E+02 0.  0.
        -11    1    3    3    0    0 -0.96831376408E+01  0.24985104939E+01  0.68339365896E+01  0.12112324254E+02  0.51100000000E-03 0.  1.
         11    1    3    3    0    0  0.96831376408E+01 -0.24985104939E+01  0.69267016832E+01  0.12164904674E+02  0.51100000000E-03 0. -1.
<mgrwt>
<rscale>  0 0.20000717E+02</rscale>
<asrwt>0</asrwt>
<pdfrwt beam="2">  1        3 0.80896852E-03 0.20000717E+02</pdfrwt>
<pdfrwt beam="1">  1       -3 0.29259898E-02 0.20000717E+02</pdfrwt>
<totfact> 0.17611311E+06</totfact>
</mgrwt>
</event>
<event>
 5    1  0.4315128E-007  0.2000114E+02  0.7818608E-02  0.1745305E+00
         -3   -1    0    0    0  501 -0.00000000000E+00  0.00000000000E+00  0.10048267286E+02  0.10048697650E+02  0.93000000000E-01 0. -1.
          3   -1    0    0  501    0  0.00000000000E+00 -0.00000000000E+00 -0.99522428537E+01  0.99526773694E+01  0.93000000000E-01 0.  1.
       1023    2    1    2    0    0  0.00000000000E+00  0.00000000000E+00  0.96024432292E-01  0.20001375019E+02  0.20001144516E+02 0.  0.
        -11    1    3    3    0    0  0.74448398054E+01 -0.66772386052E+01  0.65045027406E-01  0.10000769282E+02  0.51100000000E-03 0. -1.
         11    1    3    3    0    0 -0.74448398054E+01  0.66772386052E+01  0.30979404887E-01  0.10000605737E+02  0.51100000000E-03 0.  1.
<mgrwt>
<rscale>  0 0.20001145E+02</rscale>
<asrwt>0</asrwt>
<pdfrwt beam="2">  1        3 0.15311808E-02 0.20001145E+02</pdfrwt>
<pdfrwt beam="1">  1       -3 0.15459538E-02 0.20001145E+02</pdfrwt>
<totfact> 0.17883337E+06</totfact>
</mgrwt>
</event>
<event>
 5    1  0.4133473E-007  0.2000258E+02  0.7818608E-02  0.1745277E+00
          3   -1    0    0  501    0  0.00000000000E+00  0.00000000000E+00  0.20498012027E+02  0.20498222997E+02  0.93000000000E-01 0.  1.
         -3   -1    0    0    0  501 -0.00000000000E+00 -0.00000000000E+00 -0.48791002263E+01  0.48799864773E+01  0.93000000000E-01 0. -1.
       1023    2    1    2    0    0  0.00000000000E+00  0.00000000000E+00  0.15618911800E+02  0.25378209474E+02  0.20002577592E+02 0.  0.
        -11    1    3    3    0    0 -0.42503912797E+01 -0.90529440739E+01  0.77276745580E+01  0.12638772756E+02  0.51100000000E-03 0.  1.
         11    1    3    3    0    0  0.42503912797E+01  0.90529440739E+01  0.78912372421E+01  0.12739436719E+02  0.51100000000E-03 0. -1.
<mgrwt>
<rscale>  0 0.20002578E+02</rscale>
<asrwt>0</asrwt>
<pdfrwt beam="1">  1        3 0.31536247E-02 0.20002578E+02</pdfrwt>
<pdfrwt beam="2">  1       -3 0.75071520E-03 0.20002578E+02</pdfrwt>
<totfact> 0.17538405E+06</totfact>
</mgrwt>
</event>
<event>
 5    1  0.4133473E-007  0.2000021E+02  0.7818608E-02  0.1745324E+00
         -3   -1    0    0    0  501 -0.00000000000E+00  0.00000000000E+00  0.79036817816E+01  0.79042289128E+01  0.93000000000E-01 0. -1.
          3   -1    0    0  501    0  0.00000000000E+00 -0.00000000000E+00 -0.12651445943E+02  0.12651787757E+02  0.93000000000E-01 0.  1.
       1023    2    1    2    0    0  0.00000000000E+00  0.00000000000E+00 -0.47477641611E+01  0.20556016670E+02  0.20000213919E+02 0.  0.
        -11    1    3    3    0    0 -0.74236791967E+01 -0.67000823537E+01 -0.23787652338E+01  0.10279136183E+02  0.51100000000E-03 0. -1.
         11    1    3    3    0    0  0.74236791967E+01  0.67000823537E+01 -0.23689989273E+01  0.10276880487E+02  0.51100000000E-03 0.  1.
<mgrwt>
<rscale>  0 0.20000214E+02</rscale>
<asrwt>0</asrwt>
<pdfrwt beam="2">  1        3 0.19464447E-02 0.20000214E+02</pdfrwt>
<pdfrwt beam="1">  1       -3 0.12160194E-02 0.20000214E+02</pdfrwt>
<totfact> 0.17848656E+06</totfact>
</mgrwt>
</event>
<event>
 5    1  0.4133473E-007  0.2000119E+02  0.7818608E-02  0.1745304E+00
         -3   -1    0    0    0  501 -0.00000000000E+00  0.00000000000E+00  0.12805118610E+01  0.12838845844E+01  0.93000000000E-01 0.  1.
          3   -1    0    0  501    0  0.00000000000E+00 -0.00000000000E+00 -0.77996970847E+02  0.77997026291E+02  0.93000000000E-01 0. -1.
       1023    2    1    2    0    0  0.00000000000E+00  0.00000000000E+00 -0.76716458986E+02  0.79280910875E+02  0.20001193713E+02 0.  0.
        -11    1    3    3    0    0  0.26051573362E+00  0.99971518001E+01 -0.38485112567E+02  0.39763234302E+02  0.51100000000E-03 0.  1.
         11    1    3    3    0    0 -0.26051573362E+00 -0.99971518001E+01 -0.38231346418E+02  0.39517676574E+02  0.51100000000E-03 0. -1.
<mgrwt>
<rscale>  0 0.20001194E+02</rscale>
<asrwt>0</asrwt>
<pdfrwt beam="2">  1        3 0.11999794E-01 0.20001194E+02</pdfrwt>
<pdfrwt beam="1">  1       -3 0.19726559E-03 0.20001194E+02</pdfrwt>
<totfact> 0.14937512E+06</totfact>
</mgrwt>
</event>
<event>
 5    1  0.4133473E-007  0.2000039E+02  0.7818608E-02  0.1745320E+00
         -3   -1    0    0    0  501 -0.00000000000E+00  0.00000000000E+00  0.54341525243E+02  0.54341604823E+02  0.93000000000E-01 0.  1.
          3   -1    0    0  501    0  0.00000000000E+00 -0.00000000000E+00 -0.18390287647E+01  0.18413787762E+01  0.93000000000E-01 0. -1.
       1023    2    1    2    0    0  0.00000000000E+00  0.00000000000E+00  0.52502496478E+02  0.56182983599E+02  0.20000387737E+02 0.  0.
        -11    1    3    3    0    0  0.15280724211E+01  0.98827032953E+01  0.26342160690E+02  0.28176448673E+02  0.51100000000E-03 0.  1.
         11    1    3    3    0    0 -0.15280724211E+01 -0.98827032953E+01  0.26160335788E+02  0.28006534926E+02  0.51100000000E-03 0. -1.
<mgrwt>
<rscale>  0 0.20000388E+02</rscale>
<asrwt>0</asrwt>
<pdfrwt beam="2">  1        3 0.28311441E-03 0.20000388E+02</pdfrwt>
<pdfrwt beam="1">  1       -3 0.83604212E-02 0.20000388E+02</pdfrwt>
<totfact> 0.15918282E+06</totfact>
</mgrwt>
</event>
<event>
 5    1  0.4133473E-007  0.2000044E+02  0.7818608E-02  0.1745319E+00
          3   -1    0    0  501    0  0.00000000000E+00  0.00000000000E+00  0.34983217652E+02  0.34983341268E+02  0.93000000000E-01 0. -1.
         -3   -1    0    0    0  501 -0.00000000000E+00 -0.00000000000E+00 -0.28577531167E+01  0.28592659680E+01  0.93000000000E-01 0.  1.
       1023    2    1    2    0    0  0.00000000000E+00  0.00000000000E+00  0.32125464535E+02  0.37842607236E+02  0.20000436266E+02 0.  0.
        -11    1    3    3    0    0  0.78631294755E+01  0.61782887062E+01  0.16186890776E+02  0.19026704648E+02  0.51100000000E-03 0.  1.
         11    1    3    3    0    0 -0.78631294755E+01 -0.61782887062E+01  0.15938573759E+02  0.18815902588E+02  0.51100000000E-03 0. -1.
<mgrwt>
<rscale>  0 0.20000436E+02</rscale>
<asrwt>0</asrwt>
<pdfrwt beam="1">  1        3 0.53821590E-02 0.20000436E+02</pdfrwt>
<pdfrwt beam="2">  1       -3 0.43978024E-03 0.20000436E+02</pdfrwt>
<totfact> 0.16826028E+06</totfact>
</mgrwt>
</event>
<event>
 4    1  0.4133473E-007  0.2001284E+02  0.7818608E-02  0.1745073E+00
          3   -1    0    0  501    0  0.00000000000E+00  0.00000000000E+00  0.74958339319E+01  0.74964108302E+01  0.93000000000E-01 0.  1.
         -3   -1    0    0    0  501 -0.00000000000E+00 -0.00000000000E+00 -0.13356628868E+02  0.13356952636E+02  0.93000000000E-01 0. -1.
        -11    1    1    2    0    0 -0.87229475655E+01  0.48916399323E+01 -0.32767848636E+01  0.10524033198E+02  0.51100000000E-03 0. -1.
         11    1    1    2    0    0  0.87229475655E+01 -0.48916399323E+01 -0.25840100723E+01  0.10329330267E+02  0.51100000000E-03 0.  1.
<mgrwt>
<rscale>  0 0.20012842E+02</rscale>
<asrwt>0</asrwt>
<pdfrwt beam="1">  1        3 0.11532745E-02 0.20012842E+02</pdfrwt>
<pdfrwt beam="2">  1       -3 0.20549353E-02 0.20012842E+02</pdfrwt>
<totfact> 0.17805520E+06</totfact>
</mgrwt>
</event>
<event>
 5    1  0.4133473E-007  0.2000039E+02  0.7818608E-02  0.1745320E+00
         -3   -1    0    0    0  501 -0.00000000000E+00  0.00000000000E+00  0.67508580137E+01  0.67514985685E+01  0.93000000000E-01 0.  1.
          3   -1    0    0  501    0  0.00000000000E+00 -0.00000000000E+00 -0.14812024434E+02  0.14812316390E+02  0.93000000000E-01 0. -1.
       1023    2    1    2    0    0  0.00000000000E+00  0.00000000000E+00 -0.80611664202E+01  0.21563814958E+02  0.20000392784E+02 0.  0.
        -11    1    3    3    0    0 -0.40715098833E+01  0.91337232508E+01 -0.40767618824E+01  0.10799170378E+02  0.51100000000E-03 0.  1.
         11    1    3    3    0    0  0.40715098833E+01 -0.91337232508E+01 -0.39844045378E+01  0.10764644580E+02  0.51100000000E-03 0. -1.
<mgrwt>
<rscale>  0 0.20000393E+02</rscale>
<asrwt>0</asrwt>
<pdfrwt beam="2">  1        3 0.22788447E-02 0.20000393E+02</pdfrwt>
<pdfrwt beam="1">  1       -3 0.10386653E-02 0.20000393E+02</pdfrwt>
<totfact> 0.17782747E+06</totfact>
</mgrwt>
</event>
<event>
 5    1  0.4133473E-007  0.2000099E+02  0.7818608E-02  0.1745308E+00
         -3   -1    0    0    0  501 -0.00000000000E+00  0.00000000000E+00  0.22392645224E+01  0.22411949048E+01  0.93000000000E-01 0. -1.
          3   -1    0    0  501    0  0.00000000000E+00 -0.00000000000E+00 -0.44640703492E+02  0.44640800366E+02  0.93000000000E-01 0.  1.
       1023    2    1    2    0    0  0.00000000000E+00  0.00000000000E+00 -0.42401438970E+02  0.46881995271E+02  0.20000986321E+02 0.  0.
        -11    1    3    3    0    0 -0.87831819243E+01  0.47817009874E+01 -0.21271589509E+02  0.23505094545E+02  0.51100000000E-03 0.  1.
         11    1    3    3    0    0  0.87831819243E+01 -0.47817009874E+01 -0.21129849461E+02  0.23376900726E+02  0.51100000000E-03 0. -1.
<mgrwt>
<rscale>  0 0.20000986E+02</rscale>
<asrwt>0</asrwt>
<pdfrwt beam="2">  1        3 0.68679558E-02 0.20000986E+02</pdfrwt>
<pdfrwt beam="1">  1       -3 0.34465821E-03 0.20000986E+02</pdfrwt>
<totfact> 0.16358040E+06</totfact>
</mgrwt>
</event>
<event>
 5    1  0.4297318E-007  0.2000229E+02  0.7818608E-02  0.1745283E+00
         -3   -1    0    0    0  501 -0.00000000000E+00  0.00000000000E+00  0.76577935791E+01  0.76583582771E+01  0.93000000000E-01 0.  1.
          3   -1    0    0  501    0  0.00000000000E+00 -0.00000000000E+00 -0.13060365408E+02  0.13060696520E+02  0.93000000000E-01 0. -1.
       1023    2    1    2    0    0  0.00000000000E+00  0.00000000000E+00 -0.54025718292E+01  0.20719054798E+02  0.20002286103E+02 0.  0.
        -11    1    3    3    0    0 -0.26868269279E+01 -0.96325003404E+01 -0.28431624198E+01  0.10396522234E+02  0.51100000000E-03 0.  1.
         11    1    3    3    0    0  0.26868269279E+01  0.96325003404E+01 -0.25594094094E+01  0.10322532564E+02  0.51100000000E-03 0. -1.
<mgrwt>
<rscale>  0 0.20002286E+02</rscale>
<asrwt>0</asrwt>
<pdfrwt beam="2">  1        3 0.20093559E-02 0.20002286E+02</pdfrwt>
<pdfrwt beam="1">  1       -3 0.11781910E-02 0.20002286E+02</pdfrwt>
<totfact> 0.17834053E+06</totfact>
</mgrwt>
</event>
<event>
 5    1  0.4133473E-007  0.2000031E+02  0.7818608E-02  0.1745322E+00
         -3   -1    0    0    0  501 -0.00000000000E+00  0.00000000000E+00  0.17114850923E+01  0.17140099828E+01  0.93000000000E-01 0.  1.
          3   -1    0    0  501    0  0.00000000000E+00 -0.00000000000E+00 -0.58384981880E+02  0.58385055948E+02  0.93000000000E-01 0. -1.
       1023    2    1    2    0    0  0.00000000000E+00  0.00000000000E+00 -0.56673496787E+02  0.60099065931E+02  0.20000312189E+02 0.  0.
        -11    1    3    3    0    0  0.27121698865E+01  0.96251992087E+01 -0.28177847165E+02  0.29899688901E+02  0.51100000000E-03 0.  1.
         11    1    3    3    0    0 -0.27121698865E+01 -0.96251992087E+01 -0.28495649623E+02  0.30199377030E+02  0.51100000000E-03 0. -1.
<mgrwt>
<rscale>  0 0.20000312E+02</rscale>
<asrwt>0</asrwt>
<pdfrwt beam="2">  1        3 0.89825033E-02 0.20000312E+02</pdfrwt>
<pdfrwt beam="1">  1       -3 0.26350536E-03 0.20000312E+02</pdfrwt>
<totfact> 0.15738686E+06</totfact>
</mgrwt>
</event>
<event>
 5    1  0.4133473E-007  0.2000017E+02  0.7818608E-02  0.1745325E+00
         -3   -1    0    0    0  501 -0.00000000000E+00  0.00000000000E+00  0.13396105113E+01  0.13428348082E+01  0.93000000000E-01 0.  1.
          3   -1    0    0  501    0  0.00000000000E+00 -0.00000000000E+00 -0.74556835958E+02  0.74556893960E+02  0.93000000000E-01 0. -1.
       1023    2    1    2    0    0  0.00000000000E+00  0.00000000000E+00 -0.73217225446E+02  0.75899728769E+02  0.20000168126E+02 0.  0.
        -11    1    3    3    0    0  0.28630590924E+01 -0.95813827094E+01 -0.36764114006E+02  0.38099869828E+02  0.51100000000E-03 0.  1.
         11    1    3    3    0    0 -0.28630590924E+01  0.95813827094E+01 -0.36453111440E+02  0.37799858941E+02  0.51100000000E-03 0. -1.
<mgrwt>
<rscale>  0 0.20000168E+02</rscale>
<asrwt>0</asrwt>
<pdfrwt beam="2">  1        3 0.11470532E-01 0.20000168E+02</pdfrwt>
<pdfrwt beam="1">  1       -3 0.20634647E-03 0.20000168E+02</pdfrwt>
<totfact> 0.15072617E+06</totfact>
</mgrwt>
</event>
<event>
 5    1  0.4133473E-007  0.2000050E+02  0.7818608E-02  0.1745318E+00
          3   -1    0    0  501    0  0.00000000000E+00  0.00000000000E+00  0.70916987143E+02  0.70917048122E+02  0.93000000000E-01 0.  1.
         -3   -1    0    0    0  501 -0.00000000000E+00 -0.00000000000E+00 -0.14085743147E+01  0.14116411018E+01  0.93000000000E-01 0. -1.
       1023    2    1    2    0    0  0.00000000000E+00  0.00000000000E+00  0.69508412828E+02  0.72328689224E+02  0.20000495769E+02 0.  0.
        -11    1    3    3    0    0 -0.96014170286E+01  0.27955102817E+01  0.34560443088E+02  0.35978136602E+02  0.51100000000E-03 0. -1.
         11    1    3    3    0    0  0.96014170286E+01 -0.27955102817E+01  0.34947969740E+02  0.36350552622E+02  0.51100000000E-03 0.  1.
<mgrwt>
<rscale>  0 0.20000496E+02</rscale>
<asrwt>0</asrwt>
<pdfrwt beam="1">  1        3 0.10910544E-01 0.20000496E+02</pdfrwt>
<pdfrwt beam="2">  1       -3 0.21694438E-03 0.20000496E+02</pdfrwt>
<totfact> 0.15216297E+06</totfact>
</mgrwt>
</event>
<event>
 5    1  0.4133473E-007  0.2000100E+02  0.7818608E-02  0.1745308E+00
          3   -1    0    0  501    0  0.00000000000E+00  0.00000000000E+00  0.10605816811E+03  0.10605820889E+03  0.93000000000E-01 0. -1.
         -3   -1    0    0    0  501 -0.00000000000E+00 -0.00000000000E+00 -0.94063920445E+00  0.94522542970E+00  0.93000000000E-01 0.  1.
       1023    2    1    2    0    0  0.00000000000E+00  0.00000000000E+00  0.10511752891E+03  0.10700343432E+03  0.20001001772E+02 0.  0.
        -11    1    3    3    0    0  0.94623051327E+00 -0.99551902064E+01  0.52055376264E+02  0.53007201044E+02  0.51100000000E-03 0.  1.
         11    1    3    3    0    0 -0.94623051327E+00  0.99551902064E+01  0.53062152644E+02  0.53996233274E+02  0.51100000000E-03 0. -1.
<mgrwt>
<rscale>  0 0.20001002E+02</rscale>
<asrwt>0</asrwt>
<pdfrwt beam="1">  1        3 0.16316995E-01 0.20001002E+02</pdfrwt>
<pdfrwt beam="2">  1       -3 0.14506966E-03 0.20001002E+02</pdfrwt>
<totfact> 0.13938624E+06</totfact>
</mgrwt>
</event>
<event>
 5    1  0.4133473E-007  0.2000374E+02  0.7818608E-02  0.1745254E+00
         -3   -1    0    0    0  501 -0.00000000000E+00  0.00000000000E+00  0.83812933358E+01  0.83818092904E+01  0.93000000000E-01 0. -1.
          3   -1    0    0  501    0  0.00000000000E+00 -0.00000000000E+00 -0.11934725472E+02  0.11935087813E+02  0.93000000000E-01 0.  1.
       1023    2    1    2    0    0  0.00000000000E+00  0.00000000000E+00 -0.35534321365E+01  0.20316897103E+02  0.20003735350E+02 0.  0.
        -11    1    3    3    0    0  0.10001148408E+02 -0.11965013681E+00 -0.17681529230E+01  0.10156950855E+02  0.51100000000E-03 0.  1.
         11    1    3    3    0    0 -0.10001148408E+02  0.11965013681E+00 -0.17852792135E+01  0.10159946249E+02  0.51100000000E-03 0. -1.
<mgrwt>
<rscale>  0 0.20003735E+02</rscale>
<asrwt>0</asrwt>
<pdfrwt beam="2">  1        3 0.18361792E-02 0.20003735E+02</pdfrwt>
<pdfrwt beam="1">  1       -3 0.12894973E-02 0.20003735E+02</pdfrwt>
<totfact> 0.17857534E+06</totfact>
</mgrwt>
</event>
<event>
 5    1  0.4133473E-007  0.2000211E+02  0.7818608E-02  0.1745286E+00
          3   -1    0    0  501    0  0.00000000000E+00  0.00000000000E+00  0.11453424921E+01  0.11491120156E+01  0.93000000000E-01 0.  1.
         -3   -1    0    0    0  501 -0.00000000000E+00 -0.00000000000E+00 -0.87181292019E+02  0.87181341622E+02  0.93000000000E-01 0. -1.
       1023    2    1    2    0    0  0.00000000000E+00  0.00000000000E+00 -0.86035949527E+02  0.88330453638E+02  0.20002110612E+02 0.  0.
        -11    1    3    3    0    0  0.98801448833E+01 -0.15445811039E+01 -0.42423637394E+02  0.43586328174E+02  0.51100000000E-03 0. -1.
         11    1    3    3    0    0 -0.98801448833E+01  0.15445811039E+01 -0.43612312132E+02  0.44744125464E+02  0.51100000000E-03 0.  1.
<mgrwt>
<rscale>  0 0.20002111E+02</rscale>
<asrwt>0</asrwt>
<pdfrwt beam="1">  1        3 0.17650038E-03 0.20002111E+02</pdfrwt>
<pdfrwt beam="2">  1       -3 0.13412795E-01 0.20002111E+02</pdfrwt>
<totfact> 0.14595206E+06</totfact>
</mgrwt>
</event>
<event>
 5    1  0.4382717E-007  0.2000163E+02  0.7818608E-02  0.1745296E+00
          3   -1    0    0  501    0  0.00000000000E+00  0.00000000000E+00  0.51782551002E+01  0.51790901597E+01  0.93000000000E-01 0.  1.
         -3   -1    0    0    0  501 -0.00000000000E+00 -0.00000000000E+00 -0.19312169116E+02  0.19312393041E+02  0.93000000000E-01 0. -1.
       1023    2    1    2    0    0  0.00000000000E+00  0.00000000000E+00 -0.14133914016E+02  0.24491483200E+02  0.20001630532E+02 0.  0.
        -11    1    3    3    0    0  0.99771811585E+01 -0.67661416414E+00 -0.72136648352E+01  0.12330405963E+02  0.51100000000E-03 0. -1.
         11    1    3    3    0    0 -0.99771811585E+01  0.67661416414E+00 -0.69202491805E+01  0.12161077238E+02  0.51100000000E-03 0.  1.
<mgrwt>
<rscale>  0 0.20001631E+02</rscale>
<asrwt>0</asrwt>
<pdfrwt beam="1">  1        3 0.79673610E-03 0.20001631E+02</pdfrwt>
<pdfrwt beam="2">  1       -3 0.29711844E-02 0.20001631E+02</pdfrwt>
<totfact> 0.17596246E+06</totfact>
</mgrwt>
</event>
<event>
 5    1  0.4133473E-007  0.2000740E+02  0.7818608E-02  0.1745181E+00
          3   -1    0    0  501    0  0.00000000000E+00  0.00000000000E+00  0.68107246268E+01  0.68113595517E+01  0.93000000000E-01 0. -1.
         -3   -1    0    0    0  501 -0.00000000000E+00 -0.00000000000E+00 -0.14692125712E+02  0.14692420050E+02  0.93000000000E-01 0.  1.
       1023    2    1    2    0    0  0.00000000000E+00  0.00000000000E+00 -0.78814010848E+01  0.21503779602E+02  0.20007399984E+02 0.  0.
        -11    1    3    3    0    0 -0.99126238420E+01 -0.13454514846E+01 -0.38756589444E+01  0.10728051251E+02  0.51100000000E-03 0. -1.
         11    1    3    3    0    0  0.99126238420E+01  0.13454514846E+01 -0.40057421404E+01  0.10775728351E+02  0.51100000000E-03 0.  1.
<mgrwt>
<rscale>  0 0.20007400E+02</rscale>
<asrwt>0</asrwt>
<pdfrwt beam="1">  1        3 0.10478753E-02 0.20007400E+02</pdfrwt>
<pdfrwt beam="2">  1       -3 0.22603985E-02 0.20007400E+02</pdfrwt>
<totfact> 0.17773887E+06</totfact>
</mgrwt>
</event>
<event>
 5    1  0.4133473E-007  0.2000377E+02  0.7818608E-02  0.1745253E+00
          3   -1    0    0  501    0  0.00000000000E+00  0.00000000000E+00  0.83550983197E+00  0.84066978019E+00  0.93000000000E-01 0. -1.
         -3   -1    0    0    0  501 -0.00000000000E+00 -0.00000000000E+00 -0.11935876387E+03  0.11935880010E+03  0.93000000000E-01 0.  1.
       1023    2    1    2    0    0  0.00000000000E+00  0.00000000000E+00 -0.11852325404E+03  0.12019946988E+03  0.20003769944E+02 0.  0.
        -11    1    3    3    0    0 -0.23722315970E+01 -0.97164892301E+01 -0.59216251577E+02  0.60054992272E+02  0.51100000000E-03 0.  1.
         11    1    3    3    0    0  0.23722315970E+01  0.97164892301E+01 -0.59307002459E+02  0.60144477607E+02  0.51100000000E-03 0. -1.
<mgrwt>
<rscale>  0 0.20003770E+02</rscale>
<asrwt>0</asrwt>
<pdfrwt beam="1">  1        3 0.12893977E-03 0.20003770E+02</pdfrwt>
<pdfrwt beam="2">  1       -3 0.18363273E-01 0.20003770E+02</pdfrwt>
<totfact> 0.13511964E+06</totfact>
</mgrwt>
</event>
<event>
 5    1  0.4133473E-007  0.2000169E+02  0.7818608E-02  0.1745294E+00
         -3   -1    0    0    0  501 -0.00000000000E+00  0.00000000000E+00  0.68083983078E+02  0.68084046595E+02  0.93000000000E-01 0. -1.
          3   -1    0    0  501    0  0.00000000000E+00 -0.00000000000E+00 -0.14674862202E+01  0.14704301434E+01  0.93000000000E-01 0.  1.
       1023    2    1    2    0    0  0.00000000000E+00  0.00000000000E+00  0.66616496858E+02  0.69554476738E+02  0.20001689448E+02 0.  0.
        -11    1    3    3    0    0  0.87477863832E+01 -0.48469373693E+01  0.33371079622E+02  0.34837415574E+02  0.51100000000E-03 0. -1.
         11    1    3    3    0    0 -0.87477863832E+01  0.48469373693E+01  0.33245417236E+02  0.34717061165E+02  0.51100000000E-03 0.  1.
<mgrwt>
<rscale>  0 0.20001689E+02</rscale>
<asrwt>0</asrwt>
<pdfrwt beam="2">  1        3 0.22599843E-03 0.20001689E+02</pdfrwt>
<pdfrwt beam="1">  1       -3 0.10474691E-01 0.20001689E+02</pdfrwt>
<totfact> 0.15331696E+06</totfact>
</mgrwt>
</event>
<event>
 4    1  0.4133473E-007  0.2007170E+02  0.7818608E-02  0.1743906E+00
          3   -1    0    0  501    0  0.00000000000E+00  0.00000000000E+00  0.10561881428E+03  0.10561885523E+03  0.93000000000E-01 0. -1.
         -3   -1    0    0    0  501 -0.00000000000E+00 -0.00000000000E+00 -0.95129287367E+00  0.95582798217E+00  0.93000000000E-01 0.  1.
        -11    1    1    2    0    0 -0.63586228884E+01  0.77544670663E+01  0.50247237786E+02  0.51238157167E+02  0.51100000000E-03 0.  1.
         11    1    1    2    0    0  0.63586228884E+01 -0.77544670663E+01  0.54420283623E+02  0.55336526042E+02  0.51100000000E-03 0. -1.
<mgrwt>
<rscale>  0 0.20071698E+02</rscale>
<asrwt>0</asrwt>
<pdfrwt beam="1">  1        3 0.16249407E-01 0.20071698E+02</pdfrwt>
<pdfrwt beam="2">  1       -3 0.14670469E-03 0.20071698E+02</pdfrwt>
<totfact> 0.13847642E+06</totfact>
</mgrwt>
</event>
<event>
 5    1  0.4133473E-007  0.2000068E+02  0.7818608E-02  0.1745315E+00
          3   -1    0    0  501    0  0.00000000000E+00  0.00000000000E+00  0.82415632894E+02  0.82415685366E+02  0.93000000000E-01 0. -1.
         -3   -1    0    0    0  501 -0.00000000000E+00 -0.00000000000E+00 -0.12116092899E+01  0.12151732680E+01  0.93000000000E-01 0.  1.
       1023    2    1    2    0    0  0.00000000000E+00  0.00000000000E+00  0.81204023604E+02  0.83630858634E+02  0.20000676647E+02 0.  0.
        -11    1    3    3    0    0  0.42146024094E+01 -0.90688352130E+01  0.40647956085E+02  0.41860040370E+02  0.51100000000E-03 0.  1.
         11    1    3    3    0    0 -0.42146024094E+01  0.90688352130E+01  0.40556067519E+02  0.41770818264E+02  0.51100000000E-03 0. -1.
<mgrwt>
<rscale>  0 0.20000677E+02</rscale>
<asrwt>0</asrwt>
<pdfrwt beam="1">  1        3 0.12679611E-01 0.20000677E+02</pdfrwt>
<pdfrwt beam="2">  1       -3 0.18667955E-03 0.20000677E+02</pdfrwt>
<totfact> 0.14770812E+06</totfact>
</mgrwt>
</event>
<event>
 5    1  0.4133473E-007  0.2000094E+02  0.7818608E-02  0.1745309E+00
          3   -1    0    0  501    0  0.00000000000E+00  0.00000000000E+00  0.91582325889E+02  0.91582373109E+02  0.93000000000E-01 0. -1.
         -3   -1    0    0    0  501 -0.00000000000E+00 -0.00000000000E+00 -0.10899886885E+01  0.10939489664E+01  0.93000000000E-01 0.  1.
       1023    2    1    2    0    0  0.00000000000E+00  0.00000000000E+00  0.90492337200E+02  0.92676322075E+02  0.20000939513E+02 0.  0.
        -11    1    3    3    0    0  0.92792856596E+01 -0.37288053767E+01  0.45321340694E+02  0.46411561647E+02  0.51100000000E-03 0. -1.
         11    1    3    3    0    0 -0.92792856596E+01  0.37288053767E+01  0.45170996506E+02  0.46264760428E+02  0.51100000000E-03 0.  1.
<mgrwt>
<rscale>  0 0.20000940E+02</rscale>
<asrwt>0</asrwt>
<pdfrwt beam="1">  1        3 0.14089900E-01 0.20000940E+02</pdfrwt>
<pdfrwt beam="2">  1       -3 0.16799880E-03 0.20000940E+02</pdfrwt>
<totfact> 0.14435362E+06</totfact>
</mgrwt>
</event>
<event>
 5    1  0.4295503E-007  0.2000155E+02  0.7818608E-02  0.1745297E+00
          3   -1    0    0  501    0  0.00000000000E+00  0.00000000000E+00  0.71393313840E+01  0.71399370873E+01  0.93000000000E-01 0. -1.
         -3   -1    0    0    0  501 -0.00000000000E+00 -0.00000000000E+00 -0.14007736959E+02  0.14008045678E+02  0.93000000000E-01 0.  1.
       1023    2    1    2    0    0  0.00000000000E+00  0.00000000000E+00 -0.68684055752E+01  0.21147982765E+02  0.20001554437E+02 0.  0.
        -11    1    3    3    0    0  0.51411069924E+01  0.85775386358E+01 -0.33264054094E+01  0.10538981135E+02  0.51100000000E-03 0.  1.
         11    1    3    3    0    0 -0.51411069924E+01 -0.85775386358E+01 -0.35420001658E+01  0.10609001630E+02  0.51100000000E-03 0. -1.
<mgrwt>
<rscale>  0 0.20001554E+02</rscale>
<asrwt>0</asrwt>
<pdfrwt beam="1">  1        3 0.10984290E-02 0.20001554E+02</pdfrwt>
<pdfrwt beam="2">  1       -3 0.21551068E-02 0.20001554E+02</pdfrwt>
<totfact> 0.17808051E+06</totfact>
</mgrwt>
</event>
<event>
 5    1  0.4133473E-007  0.2000308E+02  0.7818608E-02  0.1745267E+00
          3   -1    0    0  501    0  0.00000000000E+00  0.00000000000E+00  0.28300351478E+02  0.28300504284E+02  0.93000000000E-01 0.  1.
         -3   -1    0    0    0  501 -0.00000000000E+00 -0.00000000000E+00 -0.35338379958E+01  0.35350615243E+01  0.93000000000E-01 0. -1.
       1023    2    1    2    0    0  0.00000000000E+00  0.00000000000E+00  0.24766513482E+02  0.31835565809E+02  0.20003076271E+02 0.  0.
        -11    1    3    3    0    0 -0.32108753930E+01  0.94721183443E+01  0.12390027875E+02  0.15923050516E+02  0.51100000000E-03 0.  1.
         11    1    3    3    0    0  0.32108753930E+01 -0.94721183443E+01  0.12376485607E+02  0.15912515293E+02  0.51100000000E-03 0. -1.
<mgrwt>
<rscale>  0 0.20003076E+02</rscale>
<asrwt>0</asrwt>
<pdfrwt beam="1">  1        3 0.43540060E-02 0.20003076E+02</pdfrwt>
<pdfrwt beam="2">  1       -3 0.54377327E-03 0.20003076E+02</pdfrwt>
<totfact> 0.17154623E+06</totfact>
</mgrwt>
</event>
<event>
 5    1  0.4133473E-007  0.2000123E+02  0.7818608E-02  0.1745304E+00
          3   -1    0    0  501    0  0.00000000000E+00  0.00000000000E+00  0.11350617649E+01  0.11388653170E+01  0.93000000000E-01 0. -1.
         -3   -1    0    0    0  501 -0.00000000000E+00 -0.00000000000E+00 -0.87960552800E+02  0.87960601964E+02  0.93000000000E-01 0.  1.
       1023    2    1    2    0    0  0.00000000000E+00  0.00000000000E+00 -0.86825491035E+02  0.89099467281E+02  0.20001229369E+02 0.  0.
        -11    1    3    3    0    0 -0.24580293481E+01 -0.96938126501E+01 -0.43499793514E+02  0.44634560018E+02  0.51100000000E-03 0.  1.
         11    1    3    3    0    0  0.24580293481E+01  0.96938126501E+01 -0.43325697521E+02  0.44464907263E+02  0.51100000000E-03 0. -1.
<mgrwt>
<rscale>  0 0.20001229E+02</rscale>
<asrwt>0</asrwt>
<pdfrwt beam="1">  1        3 0.17492132E-03 0.20001229E+02</pdfrwt>
<pdfrwt beam="2">  1       -3 0.13532684E-01 0.20001229E+02</pdfrwt>
<totfact> 0.14568194E+06</totfact>
</mgrwt>
</event>
<event>
 5    1  0.4133473E-007  0.2000478E+02  0.7818608E-02  0.1745233E+00
         -3   -1    0    0    0  501 -0.00000000000E+00  0.00000000000E+00  0.49392278706E+01  0.49401033347E+01  0.93000000000E-01 0.  1.
          3   -1    0    0  501    0  0.00000000000E+00 -0.00000000000E+00 -0.20252976730E+02  0.20253190253E+02  0.93000000000E-01 0. -1.
       1023    2    1    2    0    0  0.00000000000E+00  0.00000000000E+00 -0.15313748860E+02  0.25193293588E+02  0.20004777871E+02 0.  0.
        -11    1    3    3    0    0  0.78007431317E+01  0.62577877453E+01 -0.78967602148E+01  0.12742461419E+02  0.51100000000E-03 0. -1.
         11    1    3    3    0    0 -0.78007431317E+01 -0.62577877453E+01 -0.74169886448E+01  0.12450832169E+02  0.51100000000E-03 0.  1.
<mgrwt>
<rscale>  0 0.20004778E+02</rscale>
<asrwt>0</asrwt>
<pdfrwt beam="2">  1        3 0.31159263E-02 0.20004778E+02</pdfrwt>
<pdfrwt beam="1">  1       -3 0.75996499E-03 0.20004778E+02</pdfrwt>
<totfact> 0.17545643E+06</totfact>
</mgrwt>
</event>
<event>
 5    1  0.4171540E-007  0.2000080E+02  0.7818608E-02  0.1745312E+00
         -3   -1    0    0    0  501 -0.00000000000E+00  0.00000000000E+00  0.64772994464E+01  0.64779670513E+01  0.93000000000E-01 0.  1.
          3   -1    0    0  501    0  0.00000000000E+00 -0.00000000000E+00 -0.15438169723E+02  0.15438449838E+02  0.93000000000E-01 0. -1.
       1023    2    1    2    0    0  0.00000000000E+00  0.00000000000E+00 -0.89608702764E+01  0.21916416889E+02  0.20000803312E+02 0.  0.
        -11    1    3    3    0    0 -0.97354547105E+01 -0.22866553987E+01 -0.44943687792E+01  0.10963905432E+02  0.51100000000E-03 0. -1.
         11    1    3    3    0    0  0.97354547105E+01  0.22866553987E+01 -0.44665014972E+01  0.10952511457E+02  0.51100000000E-03 0.  1.
<mgrwt>
<rscale>  0 0.20000803E+02</rscale>
<asrwt>0</asrwt>
<pdfrwt beam="2">  1        3 0.23751759E-02 0.20000803E+02</pdfrwt>
<pdfrwt beam="1">  1       -3 0.99658051E-03 0.20000803E+02</pdfrwt>
<totfact> 0.17759271E+06</totfact>
</mgrwt>
</event>
<event>
 5    1  0.4133473E-007  0.2000069E+02  0.7818608E-02  0.1745314E+00
         -3   -1    0    0    0  501 -0.00000000000E+00  0.00000000000E+00  0.11873943736E+03  0.11873947378E+03  0.93000000000E-01 0. -1.
          3   -1    0    0  501    0  0.00000000000E+00 -0.00000000000E+00 -0.83963408193E+00  0.84476883912E+00  0.93000000000E-01 0.  1.
       1023    2    1    2    0    0  0.00000000000E+00  0.00000000000E+00  0.11789980327E+03  0.11958424261E+03  0.20000686733E+02 0.  0.
        -11    1    3    3    0    0 -0.24550089970E+01  0.96942771207E+01  0.59117859287E+02  0.59957713140E+02  0.51100000000E-03 0. -1.
         11    1    3    3    0    0  0.24550089970E+01 -0.96942771207E+01  0.58781943987E+02  0.59626529475E+02  0.51100000000E-03 0.  1.
<mgrwt>
<rscale>  0 0.20000687E+02</rscale>
<asrwt>0</asrwt>
<pdfrwt beam="2">  1        3 0.12957224E-03 0.20000687E+02</pdfrwt>
<pdfrwt beam="1">  1       -3 0.18268006E-01 0.20000687E+02</pdfrwt>
<totfact> 0.13535641E+06</totfact>
</mgrwt>
</event>
<event>
 5    1  0.4133473E-007  0.2000260E+02  0.7818608E-02  0.1745276E+00
         -3   -1    0    0    0  501 -0.00000000000E+00  0.00000000000E+00  0.33531567870E+01  0.33544462193E+01  0.93000000000E-01 0.  1.
          3   -1    0    0  501    0  0.00000000000E+00 -0.00000000000E+00 -0.29823315147E+02  0.29823460150E+02  0.93000000000E-01 0. -1.
       1023    2    1    2    0    0  0.00000000000E+00  0.00000000000E+00 -0.26470158360E+02  0.33177906370E+02  0.20002604518E+02 0.  0.
        -11    1    3    3    0    0 -0.43967147190E+01  0.89828913970E+01 -0.13150365627E+02  0.16521366607E+02  0.51100000000E-03 0.  1.
         11    1    3    3    0    0  0.43967147190E+01 -0.89828913970E+01 -0.13319792733E+02  0.16656539763E+02  0.51100000000E-03 0. -1.
<mgrwt>
<rscale>  0 0.20002605E+02</rscale>
<asrwt>0</asrwt>
<pdfrwt beam="2">  1        3 0.45883125E-02 0.20002605E+02</pdfrwt>
<pdfrwt beam="1">  1       -3 0.51598064E-03 0.20002605E+02</pdfrwt>
<totfact> 0.17079159E+06</totfact>
</mgrwt>
</event>
<event>
 5    1  0.4207465E-007  0.2000298E+02  0.7818608E-02  0.1745269E+00
         -3   -1    0    0    0  501 -0.00000000000E+00  0.00000000000E+00  0.97043337193E+01  0.97047793347E+01  0.93000000000E-01 0.  1.
          3   -1    0    0  501    0  0.00000000000E+00 -0.00000000000E+00 -0.10306854197E+02  0.10307273764E+02  0.93000000000E-01 0. -1.
       1023    2    1    2    0    0  0.00000000000E+00  0.00000000000E+00 -0.60252047821E+00  0.20012053099E+02  0.20002980735E+02 0.  0.
        -11    1    3    3    0    0 -0.65269173942E+01  0.75769783704E+01 -0.16497284040E+00  0.10001923225E+02  0.51100000000E-03 0. -1.
         11    1    3    3    0    0  0.65269173942E+01 -0.75769783704E+01 -0.43754763781E+00  0.10010129874E+02  0.51100000000E-03 0.  1.
<mgrwt>
<rscale>  0 0.20002981E+02</rscale>
<asrwt>0</asrwt>
<pdfrwt beam="2">  1        3 0.15857364E-02 0.20002981E+02</pdfrwt>
<pdfrwt beam="1">  1       -3 0.14930410E-02 0.20002981E+02</pdfrwt>
<totfact> 0.17879073E+06</totfact>
</mgrwt>
</event>
<event>
 5    1  0.4133473E-007  0.2000041E+02  0.7818608E-02  0.1745320E+00
         -3   -1    0    0    0  501 -0.00000000000E+00  0.00000000000E+00  0.55763770229E+02  0.55763847779E+02  0.93000000000E-01 0.  1.
          3   -1    0    0  501    0  0.00000000000E+00 -0.00000000000E+00 -0.17920682916E+01  0.17944798025E+01  0.93000000000E-01 0. -1.
       1023    2    1    2    0    0  0.00000000000E+00  0.00000000000E+00  0.53971701937E+02  0.57558327581E+02  0.20000411595E+02 0.  0.
        -11    1    3    3    0    0 -0.21475791814E+00 -0.99978552851E+01  0.27071438533E+02  0.28859418147E+02  0.51100000000E-03 0. -1.
         11    1    3    3    0    0  0.21475791814E+00  0.99978552851E+01  0.26900263404E+02  0.28698909435E+02  0.51100000000E-03 0.  1.
<mgrwt>
<rscale>  0 0.20000412E+02</rscale>
<asrwt>0</asrwt>
<pdfrwt beam="2">  1        3 0.27589431E-03 0.20000412E+02</pdfrwt>
<pdfrwt beam="1">  1       -3 0.85792322E-02 0.20000412E+02</pdfrwt>
<totfact> 0.15855502E+06</totfact>
</mgrwt>
</event>
<event>
 5    1  0.4133473E-007  0.2000328E+02  0.7818608E-02  0.1745263E+00
         -3   -1    0    0    0  501 -0.00000000000E+00  0.00000000000E+00  0.81623063073E+01  0.81628361036E+01  0.93000000000E-01 0.  1.
          3   -1    0    0  501    0  0.00000000000E+00 -0.00000000000E+00 -0.12254350845E+02  0.12254703735E+02  0.93000000000E-01 0. -1.
       1023    2    1    2    0    0  0.00000000000E+00  0.00000000000E+00 -0.40920445372E+01  0.20417539838E+02  0.20003277345E+02 0.  0.
        -11    1    3    3    0    0 -0.97664302403E+01  0.21532908944E+01 -0.19298470257E+01  0.10185486298E+02  0.51100000000E-03 0.  1.
         11    1    3    3    0    0  0.97664302403E+01 -0.21532908944E+01 -0.21621975116E+01  0.10232053540E+02  0.51100000000E-03 0. -1.
<mgrwt>
<rscale>  0 0.20003277E+02</rscale>
<asrwt>0</asrwt>
<pdfrwt beam="2">  1        3 0.18853526E-02 0.20003277E+02</pdfrwt>
<pdfrwt beam="1">  1       -3 0.12558073E-02 0.20003277E+02</pdfrwt>
<totfact> 0.17851816E+06</totfact>
</mgrwt>
</event>
<event>
 5    1  0.4133473E-007  0.2000198E+02  0.7818608E-02  0.1745289E+00
         -3   -1    0    0    0  501 -0.00000000000E+00  0.00000000000E+00  0.40380569269E+01  0.40391277208E+01  0.93000000000E-01 0.  1.
          3   -1    0    0  501    0  0.00000000000E+00 -0.00000000000E+00 -0.24764840123E+02  0.24765014745E+02  0.93000000000E-01 0. -1.
       1023    2    1    2    0    0  0.00000000000E+00  0.00000000000E+00 -0.20726783196E+02  0.28804142466E+02  0.20001976940E+02 0.  0.
        -11    1    3    3    0    0  0.49501253191E+01 -0.86893476498E+01 -0.10210535205E+02  0.14292079369E+02  0.51100000000E-03 0. -1.
         11    1    3    3    0    0 -0.49501253191E+01  0.86893476498E+01 -0.10516247991E+02  0.14512063097E+02  0.51100000000E-03 0.  1.
<mgrwt>
<rscale>  0 0.20001977E+02</rscale>
<asrwt>0</asrwt>
<pdfrwt beam="2">  1        3 0.38100711E-02 0.20001977E+02</pdfrwt>
<pdfrwt beam="1">  1       -3 0.62133535E-03 0.20001977E+02</pdfrwt>
<totfact> 0.17332957E+06</totfact>
</mgrwt>
</event>
<event>
 5    1  0.4406792E-007  0.2000180E+02  0.7818608E-02  0.1745292E+00
          3   -1    0    0  501    0  0.00000000000E+00  0.00000000000E+00  0.16273175398E+02  0.16273441140E+02  0.93000000000E-01 0. -1.
         -3   -1    0    0    0  501 -0.00000000000E+00 -0.00000000000E+00 -0.61455205775E+01  0.61462242205E+01  0.93000000000E-01 0.  1.
       1023    2    1    2    0    0  0.00000000000E+00  0.00000000000E+00  0.10127654821E+02  0.22419665361E+02  0.20001799987E+02 0.  0.
        -11    1    3    3    0    0  0.99439029335E+01 -0.10628199019E+01  0.51589950313E+01  0.11252822832E+02  0.51100000000E-03 0. -1.
         11    1    3    3    0    0 -0.99439029335E+01  0.10628199019E+01  0.49686597893E+01  0.11166842529E+02  0.51100000000E-03 0.  1.
<mgrwt>
<rscale>  0 0.20001800E+02</rscale>
<asrwt>0</asrwt>
<pdfrwt beam="1">  1        3 0.25036400E-02 0.20001800E+02</pdfrwt>
<pdfrwt beam="2">  1       -3 0.94553927E-03 0.20001800E+02</pdfrwt>
<totfact> 0.17725181E+06</totfact>
</mgrwt>
</event>
<event>
 5    1  0.4133473E-007  0.2000013E+02  0.7818608E-02  0.1745326E+00
          3   -1    0    0  501    0  0.00000000000E+00  0.00000000000E+00  0.10099425748E+02  0.10099853931E+02  0.93000000000E-01 0.  1.
         -3   -1    0    0    0  501 -0.00000000000E+00 -0.00000000000E+00 -0.99008204883E+01  0.99012572606E+01  0.93000000000E-01 0. -1.
       1023    2    1    2    0    0  0.00000000000E+00  0.00000000000E+00  0.19860525955E+00  0.20001111192E+02  0.20000125121E+02 0.  0.
        -11    1    3    3    0    0  0.29167973774E+01 -0.95651682234E+01  0.66121604827E-01  0.10000226118E+02  0.51100000000E-03 0.  1.
         11    1    3    3    0    0 -0.29167973774E+01  0.95651682234E+01  0.13248365472E+00  0.10000885074E+02  0.51100000000E-03 0. -1.
<mgrwt>
<rscale>  0 0.20000125E+02</rscale>
<asrwt>0</asrwt>
<pdfrwt beam="1">  1        3 0.15538244E-02 0.20000125E+02</pdfrwt>
<pdfrwt beam="2">  1       -3 0.15232697E-02 0.20000125E+02</pdfrwt>
<totfact> 0.17885307E+06</totfact>
</mgrwt>
</event>
<event>
 5    1  0.4159298E-007  0.2000141E+02  0.7818608E-02  0.1745300E+00
         -3   -1    0    0    0  501 -0.00000000000E+00  0.00000000000E+00  0.24459028650E+01  0.24476702852E+01  0.93000000000E-01 0. -1.
          3   -1    0    0  501    0  0.00000000000E+00 -0.00000000000E+00 -0.40873885919E+02  0.40873991719E+02  0.93000000000E-01 0.  1.
       1023    2    1    2    0    0  0.00000000000E+00  0.00000000000E+00 -0.38427983054E+02  0.43321662005E+02  0.20001412882E+02 0.  0.
        -11    1    3    3    0    0  0.76367066209E+01  0.64563415748E+01 -0.19435875323E+02  0.21857650477E+02  0.51100000000E-03 0.  1.
         11    1    3    3    0    0 -0.76367066209E+01 -0.64563415748E+01 -0.18992107731E+02  0.21464011528E+02  0.51100000000E-03 0. -1.
<mgrwt>
<rscale>  0 0.20001413E+02</rscale>
<asrwt>0</asrwt>
<pdfrwt beam="2">  1        3 0.62884337E-02 0.20001413E+02</pdfrwt>
<pdfrwt beam="1">  1       -3 0.37643687E-03 0.20001413E+02</pdfrwt>
<totfact> 0.16536752E+06</totfact>
</mgrwt>
</event>
<event>
 5    1  0.4133473E-007  0.2000054E+02  0.7818608E-02  0.1745317E+00
          3   -1    0    0  501    0  0.00000000000E+00  0.00000000000E+00  0.34643839557E+01  0.34656320048E+01  0.93000000000E-01 0.  1.
         -3   -1    0    0    0  501 -0.00000000000E+00 -0.00000000000E+00 -0.28860200816E+02  0.28860350659E+02  0.93000000000E-01 0. -1.
       1023    2    1    2    0    0  0.00000000000E+00  0.00000000000E+00 -0.25395816861E+02  0.32325982664E+02  0.20000541022E+02 0.  0.
        -11    1    3    3    0    0 -0.87848135142E+01  0.47779472089E+01 -0.12599834637E+02  0.16085942968E+02  0.51100000000E-03 0. -1.
         11    1    3    3    0    0  0.87848135142E+01 -0.47779472089E+01 -0.12795982224E+02  0.16240039696E+02  0.51100000000E-03 0.  1.
<mgrwt>
<rscale>  0 0.20000541E+02</rscale>
<asrwt>0</asrwt>
<pdfrwt beam="1">  1        3 0.53308970E-03 0.20000541E+02</pdfrwt>
<pdfrwt beam="2">  1       -3 0.44401383E-02 0.20000541E+02</pdfrwt>
<totfact> 0.17133115E+06</totfact>
</mgrwt>
</event>
<event>
 5    1  0.4133473E-007  0.2000058E+02  0.7818608E-02  0.1745317E+00
         -3   -1    0    0    0  501 -0.00000000000E+00  0.00000000000E+00  0.83762352129E+00  0.84277052833E+00  0.93000000000E-01 0.  1.
          3   -1    0    0  501    0  0.00000000000E+00 -0.00000000000E+00 -0.11902141883E+03  0.11902145516E+03  0.93000000000E-01 0. -1.
       1023    2    1    2    0    0  0.00000000000E+00  0.00000000000E+00 -0.11818379531E+03  0.11986422569E+03  0.20000578171E+02 0.  0.
        -11    1    3    3    0    0  0.16867378219E+01 -0.98570062575E+01 -0.59158820603E+02  0.59998097572E+02  0.51100000000E-03 0. -1.
         11    1    3    3    0    0 -0.16867378219E+01  0.98570062575E+01 -0.59024974703E+02  0.59866128118E+02  0.51100000000E-03 0.  1.
<mgrwt>
<rscale>  0 0.20000578E+02</rscale>
<asrwt>0</asrwt>
<pdfrwt beam="2">  1        3 0.18311373E-01 0.20000578E+02</pdfrwt>
<pdfrwt beam="1">  1       -3 0.12926397E-03 0.20000578E+02</pdfrwt>
<totfact> 0.13524439E+06</totfact>
</mgrwt>
</event>
<event>
 5    1  0.4256346E-007  0.2000205E+02  0.7818608E-02  0.1745287E+00
          3   -1    0    0  501    0  0.00000000000E+00  0.00000000000E+00  0.30604228511E+02  0.30604369815E+02  0.93000000000E-01 0.  1.
         -3   -1    0    0    0  501 -0.00000000000E+00 -0.00000000000E+00 -0.32673817737E+01  0.32687050425E+01  0.93000000000E-01 0. -1.
       1023    2    1    2    0    0  0.00000000000E+00  0.00000000000E+00  0.27336846737E+02  0.33873074857E+02  0.20002050164E+02 0.  0.
        -11    1    3    3    0    0 -0.73719731789E+01  0.67570635794E+01  0.13886650204E+02  0.17112654701E+02  0.51100000000E-03 0. -1.
         11    1    3    3    0    0  0.73719731789E+01 -0.67570635794E+01  0.13450196533E+02  0.16760420156E+02  0.51100000000E-03 0.  1.
<mgrwt>
<rscale>  0 0.20002050E+02</rscale>
<asrwt>0</asrwt>
<pdfrwt beam="1">  1        3 0.47084555E-02 0.20002050E+02</pdfrwt>
<pdfrwt beam="2">  1       -3 0.50278678E-03 0.20002050E+02</pdfrwt>
<totfact> 0.17041077E+06</totfact>
</mgrwt>
</event>
<event>
 5    1  0.4133473E-007  0.2000017E+02  0.7818608E-02  0.1745325E+00
         -3   -1    0    0    0  501 -0.00000000000E+00  0.00000000000E+00  0.15296190198E+02  0.15296472913E+02  0.93000000000E-01 0. -1.
          3   -1    0    0  501    0  0.00000000000E+00 -0.00000000000E+00 -0.65370134530E+01  0.65376749602E+01  0.93000000000E-01 0.  1.
       1023    2    1    2    0    0  0.00000000000E+00  0.00000000000E+00  0.87591767447E+01  0.21834147873E+02  0.20000170901E+02 0.  0.
        -11    1    3    3    0    0 -0.77744652793E+01  0.62896036371E+01  0.43980011864E+01  0.10924460581E+02  0.51100000000E-03 0.  1.
         11    1    3    3    0    0  0.77744652793E+01 -0.62896036371E+01  0.43611755583E+01  0.10909687292E+02  0.51100000000E-03 0. -1.
<mgrwt>
<rscale>  0 0.20000171E+02</rscale>
<asrwt>0</asrwt>
<pdfrwt beam="2">  1        3 0.10057670E-02 0.20000171E+02</pdfrwt>
<pdfrwt beam="1">  1       -3 0.23533326E-02 0.20000171E+02</pdfrwt>
<totfact> 0.17766517E+06</totfact>
</mgrwt>
</event>
<event>
 5    1  0.4133473E-007  0.2000192E+02  0.7818608E-02  0.1745290E+00
          3   -1    0    0  501    0  0.00000000000E+00  0.00000000000E+00  0.62388246310E+02  0.62388315626E+02  0.93000000000E-01 0.  1.
         -3   -1    0    0    0  501 -0.00000000000E+00 -0.00000000000E+00 -0.16017554360E+01  0.16044530148E+01  0.93000000000E-01 0. -1.
       1023    2    1    2    0    0  0.00000000000E+00  0.00000000000E+00  0.60786490874E+02  0.63992768640E+02  0.20001924045E+02 0.  0.
        -11    1    3    3    0    0 -0.76248876645E+01  0.64709822497E+01  0.30131018436E+02  0.31747295876E+02  0.51100000000E-03 0.  1.
         11    1    3    3    0    0  0.76248876645E+01 -0.64709822497E+01  0.30655472438E+02  0.32245472764E+02  0.51100000000E-03 0. -1.
<mgrwt>
<rscale>  0 0.20001924E+02</rscale>
<asrwt>0</asrwt>
<pdfrwt beam="1">  1        3 0.95984043E-02 0.20001924E+02</pdfrwt>
<pdfrwt beam="2">  1       -3 0.24663676E-03 0.20001924E+02</pdfrwt>
<totfact> 0.15564750E+06</totfact>
</mgrwt>
</event>
<event>
 5    1  0.4133473E-007  0.2000067E+02  0.7818608E-02  0.1745315E+00
          3   -1    0    0  501    0  0.00000000000E+00  0.00000000000E+00  0.57118565348E+02  0.57118641059E+02  0.93000000000E-01 0. -1.
         -3   -1    0    0    0  501 -0.00000000000E+00 -0.00000000000E+00 -0.17495497453E+01  0.17520197805E+01  0.93000000000E-01 0.  1.
       1023    2    1    2    0    0  0.00000000000E+00  0.00000000000E+00  0.55369015602E+02  0.58870660839E+02  0.20000670460E+02 0.  0.
        -11    1    3    3    0    0  0.13122046696E+01 -0.99138302908E+01  0.27601655311E+02  0.29357406022E+02  0.51100000000E-03 0.  1.
         11    1    3    3    0    0 -0.13122046696E+01  0.99138302908E+01  0.27767360291E+02  0.29513254817E+02  0.51100000000E-03 0. -1.
<mgrwt>
<rscale>  0 0.20000670E+02</rscale>
<asrwt>0</asrwt>
<pdfrwt beam="1">  1        3 0.87876676E-02 0.20000670E+02</pdfrwt>
<pdfrwt beam="2">  1       -3 0.26935732E-03 0.20000670E+02</pdfrwt>
<totfact> 0.15793070E+06</totfact>
</mgrwt>
</event>
<event>
 5    1  0.4133473E-007  0.2000256E+02  0.7818608E-02  0.1745277E+00
         -3   -1    0    0    0  501 -0.00000000000E+00  0.00000000000E+00  0.52620073748E+02  0.52620155932E+02  0.93000000000E-01 0.  1.
          3   -1    0    0  501    0  0.00000000000E+00 -0.00000000000E+00 -0.18996808045E+01  0.19019558773E+01  0.93000000000E-01 0. -1.
       1023    2    1    2    0    0  0.00000000000E+00  0.00000000000E+00  0.50720392944E+02  0.54522111809E+02  0.20002560230E+02 0.  0.
        -11    1    3    3    0    0  0.58928973631E+01  0.80795509711E+01  0.25747795302E+02  0.27621628236E+02  0.51100000000E-03 0.  1.
         11    1    3    3    0    0 -0.58928973631E+01 -0.80795509711E+01  0.24972597641E+02  0.26900483573E+02  0.51100000000E-03 0. -1.
<mgrwt>
<rscale>  0 0.20002560E+02</rscale>
<asrwt>0</asrwt>
<pdfrwt beam="2">  1        3 0.29243994E-03 0.20002560E+02</pdfrwt>
<pdfrwt beam="1">  1       -3 0.80955766E-02 0.20002560E+02</pdfrwt>
<totfact> 0.15991230E+06</totfact>
</mgrwt>
</event>
<event>
 5    1  0.4133473E-007  0.2000029E+02  0.7818608E-02  0.1745322E+00
          3   -1    0    0  501    0  0.00000000000E+00  0.00000000000E+00  0.29369262388E+02  0.29369409633E+02  0.93000000000E-01 0. -1.
         -3   -1    0    0    0  501 -0.00000000000E+00 -0.00000000000E+00 -0.34042271079E+01  0.34054972033E+01  0.93000000000E-01 0.  1.
       1023    2    1    2    0    0  0.00000000000E+00  0.00000000000E+00  0.25965035280E+02  0.32774906836E+02  0.20000286524E+02 0.  0.
        -11    1    3    3    0    0 -0.90350419734E+01  0.42858137388E+01  0.12897649284E+02  0.16320218754E+02  0.51100000000E-03 0.  1.
         11    1    3    3    0    0  0.90350419734E+01 -0.42858137388E+01  0.13067385996E+02  0.16454688082E+02  0.51100000000E-03 0. -1.
<mgrwt>
<rscale>  0 0.20000287E+02</rscale>
<asrwt>0</asrwt>
<pdfrwt beam="1">  1        3 0.45184570E-02 0.20000287E+02</pdfrwt>
<pdfrwt beam="2">  1       -3 0.52383628E-03 0.20000287E+02</pdfrwt>
<totfact> 0.17106222E+06</totfact>
</mgrwt>
</event>
<event>
 5    1  0.4198690E-007  0.2000159E+02  0.7818608E-02  0.1745296E+00
         -3   -1    0    0    0  501 -0.00000000000E+00  0.00000000000E+00  0.42035447554E+01  0.42045734041E+01  0.93000000000E-01 0.  1.
          3   -1    0    0  501    0  0.00000000000E+00 -0.00000000000E+00 -0.23789205432E+02  0.23789387215E+02  0.93000000000E-01 0. -1.
       1023    2    1    2    0    0  0.00000000000E+00  0.00000000000E+00 -0.19585660676E+02  0.27993960619E+02  0.20001593112E+02 0.  0.
        -11    1    3    3    0    0  0.11209283367E+01  0.99377059078E+01 -0.98461700264E+01  0.14034298824E+02  0.51100000000E-03 0. -1.
         11    1    3    3    0    0 -0.11209283367E+01 -0.99377059078E+01 -0.97394906501E+01  0.13959661795E+02  0.51100000000E-03 0.  1.
<mgrwt>
<rscale>  0 0.20001593E+02</rscale>
<asrwt>0</asrwt>
<pdfrwt beam="2">  1        3 0.36599708E-02 0.20001593E+02</pdfrwt>
<pdfrwt beam="1">  1       -3 0.64679232E-03 0.20001593E+02</pdfrwt>
<totfact> 0.17381824E+06</totfact>
</mgrwt>
</event>
<event>
 5    1  0.4146377E-007  0.2000062E+02  0.7818608E-02  0.1745316E+00
         -3   -1    0    0    0  501 -0.00000000000E+00  0.00000000000E+00  0.19221413740E+02  0.19221638722E+02  0.93000000000E-01 0.  1.
          3   -1    0    0  501    0  0.00000000000E+00 -0.00000000000E+00 -0.52021831030E+01  0.52030143222E+01  0.93000000000E-01 0. -1.
       1023    2    1    2    0    0  0.00000000000E+00  0.00000000000E+00  0.14019230637E+02  0.24424653044E+02  0.20000621207E+02 0.  0.
        -11    1    3    3    0    0  0.49066051673E+01  0.87137115089E+01  0.69465210096E+01  0.12176111733E+02  0.51100000000E-03 0. -1.
         11    1    3    3    0    0 -0.49066051673E+01 -0.87137115089E+01  0.70727096276E+01  0.12248541312E+02  0.51100000000E-03 0.  1.
<mgrwt>
<rscale>  0 0.20000621E+02</rscale>
<asrwt>0</asrwt>
<pdfrwt beam="2">  1        3 0.80041710E-03 0.20000621E+02</pdfrwt>
<pdfrwt beam="1">  1       -3 0.29572218E-02 0.20000621E+02</pdfrwt>
<totfact> 0.17602313E+06</totfact>
</mgrwt>
</event>
<event>
 5    1  0.4133473E-007  0.2000053E+02  0.7818608E-02  0.1745318E+00
          3   -1    0    0  501    0  0.00000000000E+00  0.00000000000E+00  0.53205551079E+02  0.53205632359E+02  0.93000000000E-01 0. -1.
         -3   -1    0    0    0  501 -0.00000000000E+00 -0.00000000000E+00 -0.18783695415E+01  0.18806703949E+01  0.93000000000E-01 0.  1.
       1023    2    1    2    0    0  0.00000000000E+00  0.00000000000E+00  0.51327181538E+02  0.55086302753E+02  0.20000529653E+02 0.  0.
        -11    1    3    3    0    0  0.91428400671E+01  0.40512002095E+01  0.25771980251E+02  0.27644144298E+02  0.51100000000E-03 0.  1.
         11    1    3    3    0    0 -0.91428400671E+01 -0.40512002095E+01  0.25555201287E+02  0.27442158456E+02  0.51100000000E-03 0. -1.
<mgrwt>
<rscale>  0 0.20000530E+02</rscale>
<asrwt>0</asrwt>
<pdfrwt beam="1">  1        3 0.81856511E-02 0.20000530E+02</pdfrwt>
<pdfrwt beam="2">  1       -3 0.28916323E-03 0.20000530E+02</pdfrwt>
<totfact> 0.15965876E+06</totfact>
</mgrwt>
</event>
<event>
 5    1  0.4133473E-007  0.2000136E+02  0.7818608E-02  0.1745301E+00
         -3   -1    0    0    0  501 -0.00000000000E+00  0.00000000000E+00  0.18075892302E+01  0.18099800621E+01  0.93000000000E-01 0. -1.
          3   -1    0    0  501    0  0.00000000000E+00 -0.00000000000E+00 -0.55290849557E+02  0.55290927771E+02  0.93000000000E-01 0.  1.
       1023    2    1    2    0    0  0.00000000000E+00  0.00000000000E+00 -0.53483260327E+02  0.57100907833E+02  0.20001363457E+02 0.  0.
        -11    1    3    3    0    0  0.98525089363E+01 -0.17122758361E+01 -0.27024446261E+02  0.28815352103E+02  0.51100000000E-03 0. -1.
         11    1    3    3    0    0 -0.98525089363E+01  0.17122758361E+01 -0.26458814066E+02  0.28285555729E+02  0.51100000000E-03 0.  1.
<mgrwt>
<rscale>  0 0.20001363E+02</rscale>
<asrwt>0</asrwt>
<pdfrwt beam="2">  1        3 0.85064732E-02 0.20001363E+02</pdfrwt>
<pdfrwt beam="1">  1       -3 0.27828062E-03 0.20001363E+02</pdfrwt>
<totfact> 0.15871952E+06</totfact>
</mgrwt>
</event>
<event>
 5    1  0.4133473E-007  0.2000095E+02  0.7818608E-02  0.1745309E+00
          3   -1    0    0  501    0  0.00000000000E+00  0.00000000000E+00  0.13271363384E+01  0.13303908676E+01  0.93000000000E-01 0. -1.
         -3   -1    0    0    0  501 -0.00000000000E+00 -0.00000000000E+00 -0.75261827982E+02  0.75261885441E+02  0.93000000000E-01 0.  1.
       1023    2    1    2    0    0  0.00000000000E+00  0.00000000000E+00 -0.73934691643E+02  0.76592276309E+02  0.20000954021E+02 0.  0.
        -11    1    3    3    0    0 -0.78947648068E+01 -0.61383879298E+01 -0.37155824126E+02  0.38478076673E+02  0.51100000000E-03 0.  1.
         11    1    3    3    0    0  0.78947648068E+01  0.61383879298E+01 -0.36778867518E+02  0.38114199636E+02  0.51100000000E-03 0. -1.
<mgrwt>
<rscale>  0 0.20000954E+02</rscale>
<asrwt>0</asrwt>
<pdfrwt beam="1">  1        3 0.20442965E-03 0.20000954E+02</pdfrwt>
<pdfrwt beam="2">  1       -3 0.11578994E-01 0.20000954E+02</pdfrwt>
<totfact> 0.15046681E+06</totfact>
</mgrwt>
</event>
<event>
 5    1  0.4133473E-007  0.2000100E+02  0.7818608E-02  0.1745308E+00
          3   -1    0    0  501    0  0.00000000000E+00  0.00000000000E+00  0.10649793993E+01  0.10690323292E+01  0.93000000000E-01 0.  1.
         -3   -1    0    0    0  501 -0.00000000000E+00 -0.00000000000E+00 -0.93725458195E+02  0.93725504335E+02  0.93000000000E-01 0. -1.
       1023    2    1    2    0    0  0.00000000000E+00  0.00000000000E+00 -0.92660478796E+02  0.94794536664E+02  0.20000996244E+02 0.  0.
        -11    1    3    3    0    0 -0.26322731247E+01 -0.96478054592E+01 -0.46184124112E+02  0.47254442460E+02  0.51100000000E-03 0.  1.
         11    1    3    3    0    0  0.26322731247E+01  0.96478054592E+01 -0.46476354684E+02  0.47540094205E+02  0.51100000000E-03 0. -1.
<mgrwt>
<rscale>  0 0.20000996E+02</rscale>
<asrwt>0</asrwt>
<pdfrwt beam="1">  1        3 0.16415837E-03 0.20000996E+02</pdfrwt>
<pdfrwt beam="2">  1       -3 0.14419610E-01 0.20000996E+02</pdfrwt>
<totfact> 0.14362203E+06</totfact>
</mgrwt>
</event>
<event>
 5    1  0.4316048E-007  0.2000130E+02  0.7818608E-02  0.1745302E+00
          3   -1    0    0  501    0  0.00000000000E+00  0.00000000000E+00  0.41235980292E+01  0.41246466159E+01  0.93000000000E-01 0.  1.
         -3   -1    0    0    0  501 -0.00000000000E+00 -0.00000000000E+00 -0.24249593181E+02  0.24249771513E+02  0.93000000000E-01 0. -1.
       1023    2    1    2    0    0  0.00000000000E+00  0.00000000000E+00 -0.20125995151E+02  0.28374418129E+02  0.20001298041E+02 0.  0.
        -11    1    3    3    0    0  0.38157387873E+01 -0.92440853425E+01 -0.10065923985E+02  0.14189284769E+02  0.51100000000E-03 0. -1.
         11    1    3    3    0    0 -0.38157387873E+01  0.92440853425E+01 -0.10060071166E+02  0.14185133360E+02  0.51100000000E-03 0.  1.
<mgrwt>
<rscale>  0 0.20001298E+02</rscale>
<asrwt>0</asrwt>
<pdfrwt beam="1">  1        3 0.63449409E-03 0.20001298E+02</pdfrwt>
<pdfrwt beam="2">  1       -3 0.37308009E-02 0.20001298E+02</pdfrwt>
<totfact> 0.17361257E+06</totfact>
</mgrwt>
</event>
<event>
 5    1  0.4147393E-007  0.2000239E+02  0.7818608E-02  0.1745281E+00
          3   -1    0    0  501    0  0.00000000000E+00  0.00000000000E+00  0.26798751173E+01  0.26814883263E+01  0.93000000000E-01 0. -1.
         -3   -1    0    0    0  501 -0.00000000000E+00 -0.00000000000E+00 -0.37311191533E+02  0.37311307437E+02  0.93000000000E-01 0.  1.
       1023    2    1    2    0    0  0.00000000000E+00  0.00000000000E+00 -0.34631316416E+02  0.39992795763E+02  0.20002390763E+02 0.  0.
        -11    1    3    3    0    0 -0.39057204235E+01  0.92059307179E+01 -0.17032219690E+02  0.19750957451E+02  0.51100000000E-03 0.  1.
         11    1    3    3    0    0  0.39057204235E+01 -0.92059307179E+01 -0.17599096726E+02  0.20241838312E+02  0.51100000000E-03 0. -1.
<mgrwt>
<rscale>  0 0.20002391E+02</rscale>
<asrwt>0</asrwt>
<pdfrwt beam="1">  1        3 0.41242151E-03 0.20002391E+02</pdfrwt>
<pdfrwt beam="2">  1       -3 0.57403160E-02 0.20002391E+02</pdfrwt>
<totfact> 0.16710142E+06</totfact>
</mgrwt>
</event>
<event>
 5    1  0.4133473E-007  0.2000014E+02  0.7818608E-02  0.1745325E+00
         -3   -1    0    0    0  501 -0.00000000000E+00  0.00000000000E+00  0.12151640714E+02  0.12151996586E+02  0.93000000000E-01 0. -1.
          3   -1    0    0  501    0  0.00000000000E+00 -0.00000000000E+00 -0.82287164072E+01  0.82292419281E+01  0.93000000000E-01 0.  1.
       1023    2    1    2    0    0  0.00000000000E+00  0.00000000000E+00  0.39229243064E+01  0.20381238514E+02  0.20000138706E+02 0.  0.
        -11    1    3    3    0    0  0.99510382640E+01 -0.98867294644E+00  0.19335527428E+01  0.10185247331E+02  0.51100000000E-03 0. -1.
         11    1    3    3    0    0 -0.99510382640E+01  0.98867294644E+00  0.19893715635E+01  0.10195991183E+02  0.51100000000E-03 0.  1.
<mgrwt>
<rscale>  0 0.20000139E+02</rscale>
<asrwt>0</asrwt>
<pdfrwt beam="2">  1        3 0.12660242E-02 0.20000139E+02</pdfrwt>
<pdfrwt beam="1">  1       -3 0.18695510E-02 0.20000139E+02</pdfrwt>
<totfact> 0.17860577E+06</totfact>
</mgrwt>
</event>
<event>
 5    1  0.4133473E-007  0.2000651E+02  0.7818608E-02  0.1745199E+00
          3   -1    0    0  501    0  0.00000000000E+00  0.00000000000E+00  0.14588079994E+01  0.14617694001E+01  0.93000000000E-01 0.  1.
         -3   -1    0    0    0  501 -0.00000000000E+00 -0.00000000000E+00 -0.68521182506E+02  0.68521245618E+02  0.93000000000E-01 0. -1.
       1023    2    1    2    0    0  0.00000000000E+00  0.00000000000E+00 -0.67062374506E+02  0.69983015018E+02  0.20006506855E+02 0.  0.
        -11    1    3    3    0    0 -0.23997444222E+01 -0.97100323155E+01 -0.33017348183E+02  0.34499112773E+02  0.51100000000E-03 0. -1.
         11    1    3    3    0    0  0.23997444222E+01  0.97100323155E+01 -0.34045026323E+02  0.35483902244E+02  0.51100000000E-03 0.  1.
<mgrwt>
<rscale>  0 0.20006507E+02</rscale>
<asrwt>0</asrwt>
<pdfrwt beam="1">  1        3 0.22466471E-03 0.20006507E+02</pdfrwt>
<pdfrwt beam="2">  1       -3 0.10541951E-01 0.20006507E+02</pdfrwt>
<totfact> 0.15305955E+06</totfact>
</mgrwt>
</event>
<event>
 5    1  0.4133473E-007  0.2000102E+02  0.7818608E-02  0.1745308E+00
          3   -1    0    0  501    0  0.00000000000E+00  0.00000000000E+00  0.93074003388E+02  0.93074049851E+02  0.93000000000E-01 0. -1.
         -3   -1    0    0    0  501 -0.00000000000E+00 -0.00000000000E+00 -0.10724641442E+01  0.10764888948E+01  0.93000000000E-01 0.  1.
       1023    2    1    2    0    0  0.00000000000E+00  0.00000000000E+00  0.92001539244E+02  0.94150538746E+02  0.20001018046E+02 0.  0.
        -11    1    3    3    0    0 -0.98316049883E+01 -0.18291052118E+01  0.46302107359E+02  0.47369729033E+02  0.51100000000E-03 0.  1.
         11    1    3    3    0    0  0.98316049883E+01  0.18291052118E+01  0.45699431885E+02  0.46780809713E+02  0.51100000000E-03 0. -1.
<mgrwt>
<rscale>  0 0.20001018E+02</rscale>
<asrwt>0</asrwt>
<pdfrwt beam="1">  1        3 0.14319389E-01 0.20001018E+02</pdfrwt>
<pdfrwt beam="2">  1       -3 0.16530767E-03 0.20001018E+02</pdfrwt>
<totfact> 0.14382286E+06</totfact>
</mgrwt>
</event>
<event>
 5    1  0.4133473E-007  0.2000066E+02  0.7818608E-02  0.1745315E+00
          3   -1    0    0  501    0  0.00000000000E+00  0.00000000000E+00  0.46842736292E+02  0.46842828612E+02  0.93000000000E-01 0.  1.
         -3   -1    0    0    0  501 -0.00000000000E+00 -0.00000000000E+00 -0.21338363109E+01  0.21358619810E+01  0.93000000000E-01 0. -1.
       1023    2    1    2    0    0  0.00000000000E+00  0.00000000000E+00  0.44708899981E+02  0.48978690593E+02  0.20000659855E+02 0.  0.
        -11    1    3    3    0    0 -0.77748414363E+01  0.62895486054E+01  0.22344241580E+02  0.24480026819E+02  0.51100000000E-03 0.  1.
         11    1    3    3    0    0  0.77748414363E+01 -0.62895486054E+01  0.22364658401E+02  0.24498663774E+02  0.51100000000E-03 0. -1.
<mgrwt>
<rscale>  0 0.20000660E+02</rscale>
<asrwt>0</asrwt>
<pdfrwt beam="1">  1        3 0.72067376E-02 0.20000660E+02</pdfrwt>
<pdfrwt beam="2">  1       -3 0.32844544E-03 0.20000660E+02</pdfrwt>
<totfact> 0.16255562E+06</totfact>
</mgrwt>
</event>
<event>
 5    1  0.4133473E-007  0.2000694E+02  0.7818608E-02  0.1745190E+00
          3   -1    0    0  501    0  0.00000000000E+00  0.00000000000E+00  0.94171527710E+02  0.94171573631E+02  0.93000000000E-01 0.  1.
         -3   -1    0    0    0  501 -0.00000000000E+00 -0.00000000000E+00 -0.10605484504E+01  0.10646182488E+01  0.93000000000E-01 0. -1.
       1023    2    1    2    0    0  0.00000000000E+00  0.00000000000E+00  0.93110979259E+02  0.95236191880E+02  0.20006943424E+02 0.  0.
        -11    1    3    3    0    0 -0.45710959382E+01  0.88975989768E+01  0.46961093181E+02  0.48014648376E+02  0.51100000000E-03 0. -1.
         11    1    3    3    0    0  0.45710959382E+01 -0.88975989768E+01  0.46149886079E+02  0.47221543505E+02  0.51100000000E-03 0.  1.
<mgrwt>
<rscale>  0 0.20006943E+02</rscale>
<asrwt>0</asrwt>
<pdfrwt beam="1">  1        3 0.14488242E-01 0.20006943E+02</pdfrwt>
<pdfrwt beam="2">  1       -3 0.16347791E-03 0.20006943E+02</pdfrwt>
<totfact> 0.14334455E+06</totfact>
</mgrwt>
</event>
<event>
 5    1  0.4133473E-007  0.2000271E+02  0.7818608E-02  0.1745274E+00
          3   -1    0    0  501    0  0.00000000000E+00  0.00000000000E+00  0.15508005073E+02  0.15508283926E+02  0.93000000000E-01 0. -1.
         -3   -1    0    0    0  501 -0.00000000000E+00 -0.00000000000E+00 -0.64493606056E+01  0.64500311024E+01  0.93000000000E-01 0.  1.
       1023    2    1    2    0    0  0.00000000000E+00  0.00000000000E+00  0.90586444669E+01  0.21958315028E+02  0.20002713799E+02 0.  0.
        -11    1    3    3    0    0 -0.67237479702E+01  0.74037815586E+01  0.44758639045E+01  0.10957103910E+02  0.51100000000E-03 0. -1.
         11    1    3    3    0    0  0.67237479702E+01 -0.74037815586E+01  0.45827805624E+01  0.11001211119E+02  0.51100000000E-03 0.  1.
<mgrwt>
<rscale>  0 0.20002714E+02</rscale>
<asrwt>0</asrwt>
<pdfrwt beam="1">  1        3 0.23859199E-02 0.20002714E+02</pdfrwt>
<pdfrwt beam="2">  1       -3 0.99228236E-03 0.20002714E+02</pdfrwt>
<totfact> 0.17752930E+06</totfact>
</mgrwt>
</event>
<event>
 5    1  0.4133473E-007  0.2000157E+02  0.7818608E-02  0.1745297E+00
         -3   -1    0    0    0  501 -0.00000000000E+00  0.00000000000E+00  0.19706244748E+01  0.19728177363E+01  0.93000000000E-01 0. -1.
          3   -1    0    0  501    0  0.00000000000E+00 -0.00000000000E+00 -0.50722851846E+02  0.50722937103E+02  0.93000000000E-01 0.  1.
       1023    2    1    2    0    0  0.00000000000E+00  0.00000000000E+00 -0.48752227371E+02  0.52695754839E+02  0.20001572550E+02 0.  0.
        -11    1    3    3    0    0 -0.71414866889E-01  0.10000476656E+02 -0.24463191383E+02  0.26428438591E+02  0.51100000000E-03 0. -1.
         11    1    3    3    0    0  0.71414866889E-01 -0.10000476656E+02 -0.24289035987E+02  0.26267316248E+02  0.51100000000E-03 0.  1.
<mgrwt>
<rscale>  0 0.20001573E+02</rscale>
<asrwt>0</asrwt>
<pdfrwt beam="2">  1        3 0.78036900E-02 0.20001573E+02</pdfrwt>
<pdfrwt beam="1">  1       -3 0.30334830E-03 0.20001573E+02</pdfrwt>
<totfact> 0.16075800E+06</totfact>
</mgrwt>
</event>
<event>
 4    1  0.4133473E-007  0.2002139E+02  0.7818608E-02  0.1744903E+00
         -3   -1    0    0    0  501 -0.00000000000E+00  0.00000000000E+00  0.61382884714E+02  0.61382955166E+02  0.93000000000E-01 0.  1.
          3   -1    0    0  501    0  0.00000000000E+00 -0.00000000000E+00 -0.16312096953E+01  0.16338586445E+01  0.93000000000E-01 0. -1.
        -11    1    1    2    0    0  0.67437215997E+01 -0.73954784379E+01  0.29221979062E+02  0.30888427329E+02  0.51100000000E-03 0.  1.
         11    1    1    2    0    0 -0.67437215997E+01  0.73954784379E+01  0.30529695957E+02  0.32128386481E+02  0.51100000000E-03 0. -1.
<mgrwt>
<rscale>  0 0.20021392E+02</rscale>
<asrwt>0</asrwt>
<pdfrwt beam="2">  1        3 0.25116454E-03 0.20021392E+02</pdfrwt>
<pdfrwt beam="1">  1       -3 0.94437294E-02 0.20021392E+02</pdfrwt>
<totfact> 0.15577422E+06</totfact>
</mgrwt>
</event>
<event>
 5    1  0.4133473E-007  0.2000251E+02  0.7818608E-02  0.1745278E+00
          3   -1    0    0  501    0  0.00000000000E+00  0.00000000000E+00  0.11307634570E+01  0.11345814187E+01  0.93000000000E-01 0. -1.
         -3   -1    0    0    0  501 -0.00000000000E+00 -0.00000000000E+00 -0.88305107875E+02  0.88305156847E+02  0.93000000000E-01 0.  1.
       1023    2    1    2    0    0  0.00000000000E+00  0.00000000000E+00 -0.87174344418E+02  0.89439738266E+02  0.20002511252E+02 0.  0.
        -11    1    3    3    0    0 -0.72255019690E+01  0.69147639790E+01 -0.43843031585E+02  0.44969247919E+02  0.51100000000E-03 0. -1.
         11    1    3    3    0    0  0.72255019690E+01 -0.69147639790E+01 -0.43331312833E+02  0.44470490346E+02  0.51100000000E-03 0.  1.
<mgrwt>
<rscale>  0 0.20002511E+02</rscale>
<asrwt>0</asrwt>
<pdfrwt beam="1">  1        3 0.17426113E-03 0.20002511E+02</pdfrwt>
<pdfrwt beam="2">  1       -3 0.13585693E-01 0.20002511E+02</pdfrwt>
<totfact> 0.14553670E+06</totfact>
</mgrwt>
</event>
<event>
 5    1  0.4133473E-007  0.2000011E+02  0.7818608E-02  0.1745326E+00
          3   -1    0    0  501    0  0.00000000000E+00  0.00000000000E+00  0.38127792293E+01  0.38139132727E+01  0.93000000000E-01 0. -1.
         -3   -1    0    0    0  501 -0.00000000000E+00 -0.00000000000E+00 -0.26222760738E+02  0.26222925651E+02  0.93000000000E-01 0.  1.
       1023    2    1    2    0    0  0.00000000000E+00  0.00000000000E+00 -0.22409981509E+02  0.30036838924E+02  0.20000110533E+02 0.  0.
        -11    1    3    3    0    0  0.79783868603E+01 -0.60287852325E+01 -0.11226059333E+02  0.15034138375E+02  0.51100000000E-03 0.  1.
         11    1    3    3    0    0 -0.79783868603E+01  0.60287852325E+01 -0.11183922176E+02  0.15002700549E+02  0.51100000000E-03 0. -1.
<mgrwt>
<rscale>  0 0.20000111E+02</rscale>
<asrwt>0</asrwt>
<pdfrwt beam="1">  1        3 0.58668136E-03 0.20000111E+02</pdfrwt>
<pdfrwt beam="2">  1       -3 0.40343707E-02 0.20000111E+02</pdfrwt>
<totfact> 0.17265720E+06</totfact>
</mgrwt>
</event>
<event>
 5    1  0.4133473E-007  0.2000369E+02  0.7818608E-02  0.1745255E+00
         -3   -1    0    0    0  501 -0.00000000000E+00  0.00000000000E+00  0.31039058360E+01  0.31052987680E+01  0.93000000000E-01 0. -1.
          3   -1    0    0  501    0  0.00000000000E+00 -0.00000000000E+00 -0.32220682196E+02  0.32220816410E+02  0.93000000000E-01 0.  1.
       1023    2    1    2    0    0  0.00000000000E+00  0.00000000000E+00 -0.29116776360E+02  0.35326115179E+02  0.20003693360E+02 0.  0.
        -11    1    3    3    0    0 -0.44890814421E+01  0.89374276485E+01 -0.14711036446E+02  0.17788874578E+02  0.51100000000E-03 0. -1.
         11    1    3    3    0    0  0.44890814421E+01 -0.89374276485E+01 -0.14405739913E+02  0.17537240600E+02  0.51100000000E-03 0.  1.
<mgrwt>
<rscale>  0 0.20003693E+02</rscale>
<asrwt>0</asrwt>
<pdfrwt beam="2">  1        3 0.49571453E-02 0.20003693E+02</pdfrwt>
<pdfrwt beam="1">  1       -3 0.47764147E-03 0.20003693E+02</pdfrwt>
<totfact> 0.16957284E+06</totfact>
</mgrwt>
</event>
<event>
 5    1  0.4133473E-007  0.2000018E+02  0.7818608E-02  0.1745325E+00
         -3   -1    0    0    0  501 -0.00000000000E+00  0.00000000000E+00  0.65962385534E+02  0.65962451094E+02  0.93000000000E-01 0.  1.
          3   -1    0    0  501    0  0.00000000000E+00 -0.00000000000E+00 -0.15145494501E+01  0.15174020682E+01  0.93000000000E-01 0. -1.
       1023    2    1    2    0    0  0.00000000000E+00  0.00000000000E+00  0.64447836084E+02  0.67479853162E+02  0.20000175172E+02 0.  0.
        -11    1    3    3    0    0 -0.92287154165E+01  0.38511741861E+01  0.32116129919E+02  0.33636981614E+02  0.51100000000E-03 0. -1.
         11    1    3    3    0    0  0.92287154165E+01 -0.38511741861E+01  0.32331706165E+02  0.33842871549E+02  0.51100000000E-03 0.  1.
<mgrwt>
<rscale>  0 0.20000175E+02</rscale>
<asrwt>0</asrwt>
<pdfrwt beam="2">  1        3 0.23323209E-03 0.20000175E+02</pdfrwt>
<pdfrwt beam="1">  1       -3 0.10148283E-01 0.20000175E+02</pdfrwt>
<totfact> 0.15421247E+06</totfact>
</mgrwt>
</event>
<event>
 4    1  0.4133473E-007  0.2001278E+02  0.7818608E-02  0.1745074E+00
         -3   -1    0    0    0  501 -0.00000000000E+00  0.00000000000E+00  0.90567706150E+02  0.90567753899E+02  0.93000000000E-01 0.  1.
          3   -1    0    0  501    0  0.00000000000E+00 -0.00000000000E+00 -0.11035541120E+01  0.11074658813E+01  0.93000000000E-01 0. -1.
        -11    1    1    2    0    0 -0.30014831596E+01  0.95394588810E+01  0.43160654486E+02  0.44304088669E+02  0.51100000000E-03 0. -1.
         11    1    1    2    0    0  0.30014831596E+01 -0.95394588810E+01  0.46303497552E+02  0.47371131111E+02  0.51100000000E-03 0.  1.
<mgrwt>
<rscale>  0 0.20012781E+02</rscale>
<asrwt>0</asrwt>
<pdfrwt beam="2">  1        3 0.17008215E-03 0.20012781E+02</pdfrwt>
<pdfrwt beam="1">  1       -3 0.13933797E-01 0.20012781E+02</pdfrwt>
<totfact> 0.14456089E+06</totfact>
</mgrwt>
</event>
<event>
 5    1  0.4268149E-007  0.2000102E+02  0.7818608E-02  0.1745308E+00
         -3   -1    0    0    0  501 -0.00000000000E+00  0.00000000000E+00  0.12924813630E+02  0.12925148215E+02  0.93000000000E-01 0. -1.
          3   -1    0    0  501    0  0.00000000000E+00 -0.00000000000E+00 -0.77371331690E+01  0.77376920767E+01  0.93000000000E-01 0.  1.
       1023    2    1    2    0    0  0.00000000000E+00  0.00000000000E+00  0.51876804615E+01  0.20662840292E+02  0.20001023483E+02 0.  0.
        -11    1    3    3    0    0  0.98893558267E+01 -0.14856926255E+01  0.25319101561E+01  0.10315871778E+02  0.51100000000E-03 0. -1.
         11    1    3    3    0    0 -0.98893558267E+01  0.14856926255E+01  0.26557703054E+01  0.10346968514E+02  0.51100000000E-03 0.  1.
<mgrwt>
<rscale>  0 0.20001023E+02</rscale>
<asrwt>0</asrwt>
<pdfrwt beam="2">  1        3 0.11903969E-02 0.20001023E+02</pdfrwt>
<pdfrwt beam="1">  1       -3 0.19885016E-02 0.20001023E+02</pdfrwt>
<totfact> 0.17840592E+06</totfact>
</mgrwt>
</event>
<event>
 5    1  0.4133473E-007  0.2000418E+02  0.7818608E-02  0.1745245E+00
          3   -1    0    0  501    0  0.00000000000E+00  0.00000000000E+00  0.25413805878E+02  0.25413976041E+02  0.93000000000E-01 0.  1.
         -3   -1    0    0    0  501 -0.00000000000E+00 -0.00000000000E+00 -0.39357831459E+01  0.39368817574E+01  0.93000000000E-01 0. -1.
       1023    2    1    2    0    0  0.00000000000E+00  0.00000000000E+00  0.21478022732E+02  0.29350857798E+02  0.20004184388E+02 0.  0.
        -11    1    3    3    0    0  0.74040379571E+01 -0.67239350151E+01  0.10891263759E+02  0.14786842350E+02  0.51100000000E-03 0. -1.
         11    1    3    3    0    0 -0.74040379571E+01  0.67239350151E+01  0.10586758973E+02  0.14564015448E+02  0.51100000000E-03 0.  1.
<mgrwt>
<rscale>  0 0.20004184E+02</rscale>
<asrwt>0</asrwt>
<pdfrwt beam="1">  1        3 0.39099139E-02 0.20004184E+02</pdfrwt>
<pdfrwt beam="2">  1       -3 0.60560270E-03 0.20004184E+02</pdfrwt>
<totfact> 0.17296617E+06</totfact>
</mgrwt>
</event>
<event>
 4    1  0.4133473E-007  0.2006223E+02  0.7818608E-02  0.1744093E+00
          3   -1    0    0  501    0  0.00000000000E+00  0.00000000000E+00  0.26070457463E+01  0.26087039930E+01  0.93000000000E-01 0. -1.
         -3   -1    0    0    0  501 -0.00000000000E+00 -0.00000000000E+00 -0.38582690817E+02  0.38582802901E+02  0.93000000000E-01 0.  1.
        -11    1    1    2    0    0  0.84999245913E+01 -0.52952433564E+01 -0.19176154607E+02  0.21633613337E+02  0.51100000000E-03 0. -1.
         11    1    1    2    0    0 -0.84999245913E+01  0.52952433564E+01 -0.16799490464E+02  0.19557893557E+02  0.51100000000E-03 0.  1.
<mgrwt>
<rscale>  0 0.20062233E+02</rscale>
<asrwt>0</asrwt>
<pdfrwt beam="1">  1        3 0.40122017E-03 0.20062233E+02</pdfrwt>
<pdfrwt beam="2">  1       -3 0.59359344E-02 0.20062233E+02</pdfrwt>
<totfact> 0.16540773E+06</totfact>
</mgrwt>
</event>
<event>
 5    1  0.4159891E-007  0.2000177E+02  0.7818608E-02  0.1745293E+00
          3   -1    0    0  501    0  0.00000000000E+00  0.00000000000E+00  0.22055456294E+02  0.22055652367E+02  0.93000000000E-01 0. -1.
         -3   -1    0    0    0  501 -0.00000000000E+00 -0.00000000000E+00 -0.45341353480E+01  0.45350890128E+01  0.93000000000E-01 0.  1.
       1023    2    1    2    0    0  0.00000000000E+00  0.00000000000E+00  0.17521320946E+02  0.26590741380E+02  0.20001770908E+02 0.  0.
        -11    1    3    3    0    0 -0.99325581220E+01  0.11626382824E+01  0.88953915890E+01  0.13384148475E+02  0.51100000000E-03 0. -1.
         11    1    3    3    0    0  0.99325581220E+01 -0.11626382824E+01  0.86259293574E+01  0.13206592905E+02  0.51100000000E-03 0.  1.
<mgrwt>
<rscale>  0 0.20001771E+02</rscale>
<asrwt>0</asrwt>
<pdfrwt beam="1">  1        3 0.33932355E-02 0.20001771E+02</pdfrwt>
<pdfrwt beam="2">  1       -3 0.69764773E-03 0.20001771E+02</pdfrwt>
<totfact> 0.17465870E+06</totfact>
</mgrwt>
</event>
<event>
 5    1  0.4133473E-007  0.2000022E+02  0.7818608E-02  0.1745324E+00
         -3   -1    0    0    0  501 -0.00000000000E+00  0.00000000000E+00  0.23962802949E+01  0.23980842879E+01  0.93000000000E-01 0. -1.
          3   -1    0    0  501    0  0.00000000000E+00 -0.00000000000E+00 -0.41714696738E+02  0.41714800407E+02  0.93000000000E-01 0.  1.
       1023    2    1    2    0    0  0.00000000000E+00  0.00000000000E+00 -0.39318416443E+02  0.44112884694E+02  0.20000218110E+02 0.  0.
        -11    1    3    3    0    0 -0.95570723313E+01  0.29434090733E+01 -0.19593321941E+02  0.21997717006E+02  0.51100000000E-03 0. -1.
         11    1    3    3    0    0  0.95570723313E+01 -0.29434090733E+01 -0.19725094502E+02  0.22115167688E+02  0.51100000000E-03 0.  1.
<mgrwt>
<rscale>  0 0.20000218E+02</rscale>
<asrwt>0</asrwt>
<pdfrwt beam="2">  1        3 0.64177919E-02 0.20000218E+02</pdfrwt>
<pdfrwt beam="1">  1       -3 0.36880528E-03 0.20000218E+02</pdfrwt>
<totfact> 0.16498483E+06</totfact>
</mgrwt>
</event>
<event>
 5    1  0.4133473E-007  0.2000536E+02  0.7818608E-02  0.1745221E+00
          3   -1    0    0  501    0  0.00000000000E+00  0.00000000000E+00  0.44378260780E+02  0.44378358226E+02  0.93000000000E-01 0.  1.
         -3   -1    0    0    0  501 -0.00000000000E+00 -0.00000000000E+00 -0.22535047476E+01  0.22554229420E+01  0.93000000000E-01 0. -1.
       1023    2    1    2    0    0  0.00000000000E+00  0.00000000000E+00  0.42124756032E+02  0.46633781168E+02  0.20005361163E+02 0.  0.
        -11    1    3    3    0    0 -0.81315577321E+01  0.58228013441E+01  0.21440929551E+02  0.23658839932E+02  0.51100000000E-03 0.  1.
         11    1    3    3    0    0  0.81315577321E+01 -0.58228013441E+01  0.20683826481E+02  0.22974941236E+02  0.51100000000E-03 0. -1.
<mgrwt>
<rscale>  0 0.20005361E+02</rscale>
<asrwt>0</asrwt>
<pdfrwt beam="1">  1        3 0.68275794E-02 0.20005361E+02</pdfrwt>
<pdfrwt beam="2">  1       -3 0.34684811E-03 0.20005361E+02</pdfrwt>
<totfact> 0.16362675E+06</totfact>
</mgrwt>
</event>
<event>
 5    1  0.4382115E-007  0.2000099E+02  0.7818608E-02  0.1745308E+00
         -3   -1    0    0    0  501 -0.00000000000E+00  0.00000000000E+00  0.30276551316E+02  0.30276694149E+02  0.93000000000E-01 0.  1.
          3   -1    0    0  501    0  0.00000000000E+00 -0.00000000000E+00 -0.33024079156E+01  0.33037171551E+01  0.93000000000E-01 0. -1.
       1023    2    1    2    0    0  0.00000000000E+00  0.00000000000E+00  0.26974143401E+02  0.33580411304E+02  0.20000990255E+02 0.  0.
        -11    1    3    3    0    0 -0.14490001100E+01  0.98947614024E+01  0.13593230476E+02  0.16875479832E+02  0.51100000000E-03 0.  1.
         11    1    3    3    0    0  0.14490001100E+01 -0.98947614024E+01  0.13380912925E+02  0.16704931472E+02  0.51100000000E-03 0. -1.
<mgrwt>
<rscale>  0 0.20000990E+02</rscale>
<asrwt>0</asrwt>
<pdfrwt beam="2">  1        3 0.50817447E-03 0.20000990E+02</pdfrwt>
<pdfrwt beam="1">  1       -3 0.46580426E-02 0.20000990E+02</pdfrwt>
<totfact> 0.17061363E+06</totfact>
</mgrwt>
</event>
<event>
 5    1  0.4167656E-007  0.2000196E+02  0.7818608E-02  0.1745289E+00
          3   -1    0    0  501    0  0.00000000000E+00  0.00000000000E+00  0.43706754467E+01  0.43716647699E+01  0.93000000000E-01 0.  1.
         -3   -1    0    0    0  501 -0.00000000000E+00 -0.00000000000E+00 -0.22880572366E+02  0.22880761368E+02  0.93000000000E-01 0. -1.
       1023    2    1    2    0    0  0.00000000000E+00  0.00000000000E+00 -0.18509896919E+02  0.27252426138E+02  0.20001961065E+02 0.  0.
        -11    1    3    3    0    0  0.99901971135E+01  0.46192884136E+00 -0.93187782390E+01  0.13669566370E+02  0.51100000000E-03 0. -1.
         11    1    3    3    0    0 -0.99901971135E+01 -0.46192884136E+00 -0.91911186799E+01  0.13582859768E+02  0.51100000000E-03 0.  1.
<mgrwt>
<rscale>  0 0.20001961E+02</rscale>
<asrwt>0</asrwt>
<pdfrwt beam="1">  1        3 0.67250226E-03 0.20001961E+02</pdfrwt>
<pdfrwt beam="2">  1       -3 0.35201786E-02 0.20001961E+02</pdfrwt>
<totfact> 0.17427020E+06</totfact>
</mgrwt>
</event>
<event>
 5    1  0.4133473E-007  0.2000046E+02  0.7818608E-02  0.1745319E+00
          3   -1    0    0  501    0  0.00000000000E+00  0.00000000000E+00  0.13483774832E+01  0.13515808660E+01  0.93000000000E-01 0. -1.
         -3   -1    0    0    0  501 -0.00000000000E+00 -0.00000000000E+00 -0.74075404315E+02  0.74075462694E+02  0.93000000000E-01 0.  1.
       1023    2    1    2    0    0  0.00000000000E+00  0.00000000000E+00 -0.72727026831E+02  0.75427043560E+02  0.20000461707E+02 0.  0.
        -11    1    3    3    0    0 -0.84133254832E+01 -0.54054637918E+01 -0.36215885115E+02  0.37571178041E+02  0.51100000000E-03 0.  1.
         11    1    3    3    0    0  0.84133254832E+01  0.54054637918E+01 -0.36511141716E+02  0.37855865519E+02  0.51100000000E-03 0. -1.
<mgrwt>
<rscale>  0 0.20000462E+02</rscale>
<asrwt>0</asrwt>
<pdfrwt beam="1">  1        3 0.20769365E-03 0.20000462E+02</pdfrwt>
<pdfrwt beam="2">  1       -3 0.11396464E-01 0.20000462E+02</pdfrwt>
<totfact> 0.15093938E+06</totfact>
</mgrwt>
</event>
<event>
 5    1  0.4133473E-007  0.2000054E+02  0.7818608E-02  0.1745317E+00
          3   -1    0    0  501    0  0.00000000000E+00  0.00000000000E+00  0.12052592851E+03  0.12052596439E+03  0.93000000000E-01 0. -1.
         -3   -1    0    0    0  501 -0.00000000000E+00 -0.00000000000E+00 -0.82709975036E+00  0.83231183882E+00  0.93000000000E-01 0.  1.
       1023    2    1    2    0    0  0.00000000000E+00  0.00000000000E+00  0.11969882876E+03  0.12135827623E+03  0.20000540064E+02 0.  0.
        -11    1    3    3    0    0  0.34380512029E+01 -0.93906016082E+01  0.60107262538E+02  0.60933460469E+02  0.51100000000E-03 0. -1.
         11    1    3    3    0    0 -0.34380512029E+01  0.93906016082E+01  0.59591566218E+02  0.60424815757E+02  0.51100000000E-03 0.  1.
<mgrwt>
<rscale>  0 0.20000540E+02</rscale>
<asrwt>0</asrwt>
<pdfrwt beam="1">  1        3 0.18542843E-01 0.20000540E+02</pdfrwt>
<pdfrwt beam="2">  1       -3 0.12764989E-03 0.20000540E+02</pdfrwt>
<totfact> 0.13478027E+06</totfact>
</mgrwt>
</event>
<event>
 5    1  0.4133473E-007  0.2000023E+02  0.7818608E-02  0.1745324E+00
         -3   -1    0    0    0  501 -0.00000000000E+00  0.00000000000E+00  0.30520928199E+01  0.30535093878E+01  0.93000000000E-01 0.  1.
          3   -1    0    0  501    0  0.00000000000E+00 -0.00000000000E+00 -0.32756062604E+02  0.32756194625E+02  0.93000000000E-01 0. -1.
       1023    2    1    2    0    0  0.00000000000E+00  0.00000000000E+00 -0.29703969785E+02  0.35809704013E+02  0.20000227013E+02 0.  0.
        -11    1    3    3    0    0  0.45630885599E+01  0.88982291160E+01 -0.14771687550E+02  0.17838245764E+02  0.51100000000E-03 0. -1.
         11    1    3    3    0    0 -0.45630885599E+01 -0.88982291160E+01 -0.14932282235E+02  0.17971458249E+02  0.51100000000E-03 0.  1.
<mgrwt>
<rscale>  0 0.20000227E+02</rscale>
<asrwt>0</asrwt>
<pdfrwt beam="2">  1        3 0.50395131E-02 0.20000227E+02</pdfrwt>
<pdfrwt beam="1">  1       -3 0.46967189E-03 0.20000227E+02</pdfrwt>
<totfact> 0.16936980E+06</totfact>
</mgrwt>
</event>
<event>
 5    1  0.4133473E-007  0.2000004E+02  0.7818608E-02  0.1745327E+00
          3   -1    0    0  501    0  0.00000000000E+00  0.00000000000E+00  0.43953892102E+02  0.43953990490E+02  0.93000000000E-01 0.  1.
         -3   -1    0    0    0  501 -0.00000000000E+00 -0.00000000000E+00 -0.22740682764E+01  0.22759691399E+01  0.93000000000E-01 0. -1.
       1023    2    1    2    0    0  0.00000000000E+00  0.00000000000E+00  0.41679823826E+02  0.46229959629E+02  0.20000036329E+02 0.  0.
        -11    1    3    3    0    0  0.84802723004E+01 -0.52995390373E+01  0.20875023347E+02  0.23146635442E+02  0.51100000000E-03 0.  1.
         11    1    3    3    0    0 -0.84802723004E+01  0.52995390373E+01  0.20804800479E+02  0.23083324187E+02  0.51100000000E-03 0. -1.
<mgrwt>
<rscale>  0 0.20000036E+02</rscale>
<asrwt>0</asrwt>
<pdfrwt beam="1">  1        3 0.67622903E-02 0.20000036E+02</pdfrwt>
<pdfrwt beam="2">  1       -3 0.35001049E-03 0.20000036E+02</pdfrwt>
<totfact> 0.16392151E+06</totfact>
</mgrwt>
</event>
<event>
 5    1  0.4133473E-007  0.2000317E+02  0.7818608E-02  0.1745265E+00
          3   -1    0    0  501    0  0.00000000000E+00  0.00000000000E+00  0.59448700833E+01  0.59455974727E+01  0.93000000000E-01 0. -1.
         -3   -1    0    0    0  501 -0.00000000000E+00 -0.00000000000E+00 -0.16824676298E+02  0.16824933329E+02  0.93000000000E-01 0.  1.
       1023    2    1    2    0    0  0.00000000000E+00  0.00000000000E+00 -0.10879806215E+02  0.22770530802E+02  0.20003171992E+02 0.  0.
        -11    1    3    3    0    0  0.85967191438E+01 -0.51114817570E+01 -0.54058213925E+01  0.11368981088E+02  0.51100000000E-03 0. -1.
         11    1    3    3    0    0 -0.85967191438E+01  0.51114817570E+01 -0.54739848224E+01  0.11401549714E+02  0.51100000000E-03 0.  1.
<mgrwt>
<rscale>  0 0.20003172E+02</rscale>
<asrwt>0</asrwt>
<pdfrwt beam="1">  1        3 0.91467113E-03 0.20003172E+02</pdfrwt>
<pdfrwt beam="2">  1       -3 0.25884874E-02 0.20003172E+02</pdfrwt>
<totfact> 0.17701139E+06</totfact>
</mgrwt>
</event>
<event>
 5    1  0.4133473E-007  0.2000044E+02  0.7818608E-02  0.1745319E+00
         -3   -1    0    0    0  501 -0.00000000000E+00  0.00000000000E+00  0.43778196615E+02  0.43778295397E+02  0.93000000000E-01 0.  1.
          3   -1    0    0  501    0  0.00000000000E+00 -0.00000000000E+00 -0.22832956365E+01  0.22851888245E+01  0.93000000000E-01 0. -1.
       1023    2    1    2    0    0  0.00000000000E+00  0.00000000000E+00  0.41494900979E+02  0.46063484222E+02  0.20000444280E+02 0.  0.
        -11    1    3    3    0    0  0.30177063480E+01 -0.95339935563E+01  0.20814907004E+02  0.23092508278E+02  0.51100000000E-03 0. -1.
         11    1    3    3    0    0 -0.30177063480E+01  0.95339935563E+01  0.20679993975E+02  0.22970975944E+02  0.51100000000E-03 0.  1.
<mgrwt>
<rscale>  0 0.20000444E+02</rscale>
<asrwt>0</asrwt>
<pdfrwt beam="2">  1        3 0.35142949E-03 0.20000444E+02</pdfrwt>
<pdfrwt beam="1">  1       -3 0.67352603E-02 0.20000444E+02</pdfrwt>
<totfact> 0.16402199E+06</totfact>
</mgrwt>
</event>
<event>
 5    1  0.4133473E-007  0.2000207E+02  0.7818608E-02  0.1745287E+00
         -3   -1    0    0    0  501 -0.00000000000E+00  0.00000000000E+00  0.98704103016E+02  0.98704146828E+02  0.93000000000E-01 0.  1.
          3   -1    0    0  501    0  0.00000000000E+00 -0.00000000000E+00 -0.10111610906E+01  0.10154288509E+01  0.93000000000E-01 0. -1.
       1023    2    1    2    0    0  0.00000000000E+00  0.00000000000E+00  0.97692941925E+02  0.99719575679E+02  0.20002071685E+02 0.  0.
        -11    1    3    3    0    0  0.44767576440E+01 -0.89424352077E+01  0.48295555678E+02  0.49320068988E+02  0.51100000000E-03 0. -1.
         11    1    3    3    0    0 -0.44767576440E+01  0.89424352077E+01  0.49397386247E+02  0.50399506691E+02  0.51100000000E-03 0.  1.
<mgrwt>
<rscale>  0 0.20002072E+02</rscale>
<asrwt>0</asrwt>
<pdfrwt beam="2">  1        3 0.15589489E-03 0.20002072E+02</pdfrwt>
<pdfrwt beam="1">  1       -3 0.15185580E-01 0.20002072E+02</pdfrwt>
<totfact> 0.14187427E+06</totfact>
</mgrwt>
</event>
<event>
 5    1  0.4361442E-007  0.2000215E+02  0.7818608E-02  0.1745285E+00
          3   -1    0    0  501    0  0.00000000000E+00  0.00000000000E+00  0.13585257442E+02  0.13585575761E+02  0.93000000000E-01 0.  1.
         -3   -1    0    0    0  501 -0.00000000000E+00 -0.00000000000E+00 -0.73618020070E+01  0.73623894076E+01  0.93000000000E-01 0. -1.
       1023    2    1    2    0    0  0.00000000000E+00  0.00000000000E+00  0.62234554351E+01  0.20947965169E+02  0.20002146064E+02 0.  0.
        -11    1    3    3    0    0  0.36845875673E+01  0.92973706650E+01  0.31793949219E+01  0.10494085913E+02  0.51100000000E-03 0.  1.
         11    1    3    3    0    0 -0.36845875673E+01 -0.92973706650E+01  0.30440605132E+01  0.10453879256E+02  0.51100000000E-03 0. -1.
<mgrwt>
<rscale>  0 0.20002146E+02</rscale>
<asrwt>0</asrwt>
<pdfrwt beam="1">  1        3 0.20901092E-02 0.20002146E+02</pdfrwt>
<pdfrwt beam="2">  1       -3 0.11326546E-02 0.20002146E+02</pdfrwt>
<totfact> 0.17819346E+06</totfact>
</mgrwt>
</event>
<event>
 5    1  0.4133473E-007  0.2000250E+02  0.7818608E-02  0.1745278E+00
          3   -1    0    0  501    0  0.00000000000E+00  0.00000000000E+00  0.32946631154E+02  0.32946762411E+02  0.93000000000E-01 0.  1.
         -3   -1    0    0    0  501 -0.00000000000E+00 -0.00000000000E+00 -0.30351217775E+01  0.30365462625E+01  0.93000000000E-01 0. -1.
       1023    2    1    2    0    0  0.00000000000E+00  0.00000000000E+00  0.29911509376E+02  0.35983308674E+02  0.20002502592E+02 0.  0.
        -11    1    3    3    0    0 -0.42572270803E+01 -0.90498924673E+01  0.14995622348E+02  0.18024794755E+02  0.51100000000E-03 0.  1.
         11    1    3    3    0    0  0.42572270803E+01  0.90498924673E+01  0.14915887028E+02  0.17958513919E+02  0.51100000000E-03 0. -1.
<mgrwt>
<rscale>  0 0.20002503E+02</rscale>
<asrwt>0</asrwt>
<pdfrwt beam="1">  1        3 0.50688323E-02 0.20002503E+02</pdfrwt>
<pdfrwt beam="2">  1       -3 0.46706147E-03 0.20002503E+02</pdfrwt>
<totfact> 0.16923314E+06</totfact>
</mgrwt>
</event>
<event>
 5    1  0.4133473E-007  0.2000042E+02  0.7818608E-02  0.1745320E+00
         -3   -1    0    0    0  501 -0.00000000000E+00  0.00000000000E+00  0.11960049813E+03  0.11960053429E+03  0.93000000000E-01 0. -1.
          3   -1    0    0  501    0  0.00000000000E+00 -0.00000000000E+00 -0.83352933109E+00  0.83870146405E+00  0.93000000000E-01 0.  1.
       1023    2    1    2    0    0  0.00000000000E+00  0.00000000000E+00  0.11876696880E+03  0.12043923575E+03  0.20000415766E+02 0.  0.
        -11    1    3    3    0    0 -0.75515459753E+01  0.65557631919E+01  0.59282755738E+02  0.60120287806E+02  0.51100000000E-03 0. -1.
         11    1    3    3    0    0  0.75515459753E+01 -0.65557631919E+01  0.59484213060E+02  0.60318947946E+02  0.51100000000E-03 0.  1.
<mgrwt>
<rscale>  0 0.20000416E+02</rscale>
<asrwt>0</asrwt>
<pdfrwt beam="2">  1        3 0.12863600E-03 0.20000416E+02</pdfrwt>
<pdfrwt beam="1">  1       -3 0.18400465E-01 0.20000416E+02</pdfrwt>
<totfact> 0.13509355E+06</totfact>
</mgrwt>
</event>
<event>
 5    1  0.4159683E-007  0.2000315E+02  0.7818608E-02  0.1745266E+00
         -3   -1    0    0    0  501 -0.00000000000E+00  0.00000000000E+00  0.27421418898E+02  0.27421576603E+02  0.93000000000E-01 0. -1.
          3   -1    0    0  501    0  0.00000000000E+00 -0.00000000000E+00 -0.36471705246E+01  0.36483560456E+01  0.93000000000E-01 0.  1.
       1023    2    1    2    0    0  0.00000000000E+00  0.00000000000E+00  0.23774248374E+02  0.31069932649E+02  0.20003145479E+02 0.  0.
        -11    1    3    3    0    0 -0.21335227719E+01  0.97700095292E+01  0.12139743314E+02  0.15728266707E+02  0.51100000000E-03 0.  1.
         11    1    3    3    0    0  0.21335227719E+01 -0.97700095292E+01  0.11634505059E+02  0.15341665941E+02  0.51100000000E-03 0. -1.
<mgrwt>
<rscale>  0 0.20003145E+02</rscale>
<asrwt>0</asrwt>
<pdfrwt beam="2">  1        3 0.56120651E-03 0.20003145E+02</pdfrwt>
<pdfrwt beam="1">  1       -3 0.42187830E-02 0.20003145E+02</pdfrwt>
<totfact> 0.17200286E+06</totfact>
</mgrwt>
</event>
<event>
 5    1  0.4133473E-007  0.2000019E+02  0.7818608E-02  0.1745324E+00
          3   -1    0    0  501    0  0.00000000000E+00  0.00000000000E+00  0.20200578543E+01  0.20221975014E+01  0.93000000000E-01 0.  1.
         -3   -1    0    0    0  501 -0.00000000000E+00 -0.00000000000E+00 -0.49476076275E+02  0.49476163681E+02  0.93000000000E-01 0. -1.
       1023    2    1    2    0    0  0.00000000000E+00  0.00000000000E+00 -0.47456018421E+02  0.51498361182E+02  0.20000188002E+02 0.  0.
        -11    1    3    3    0    0 -0.78981567417E+01 -0.61334632333E+01 -0.23831921971E+02  0.25844936763E+02  0.51100000000E-03 0. -1.
         11    1    3    3    0    0  0.78981567417E+01  0.61334632333E+01 -0.23624096450E+02  0.25653424420E+02  0.51100000000E-03 0.  1.
<mgrwt>
<rscale>  0 0.20000188E+02</rscale>
<asrwt>0</asrwt>
<pdfrwt beam="1">  1        3 0.31094948E-03 0.20000188E+02</pdfrwt>
<pdfrwt beam="2">  1       -3 0.76118745E-02 0.20000188E+02</pdfrwt>
<totfact> 0.16137590E+06</totfact>
</mgrwt>
</event>
<event>
 5    1  0.4133473E-007  0.2000131E+02  0.7818608E-02  0.1745302E+00
         -3   -1    0    0    0  501 -0.00000000000E+00  0.00000000000E+00  0.12126074267E+03  0.12126077833E+03  0.93000000000E-01 0. -1.
          3   -1    0    0  501    0  0.00000000000E+00 -0.00000000000E+00 -0.82212006257E+00  0.82736352184E+00  0.93000000000E-01 0.  1.
       1023    2    1    2    0    0  0.00000000000E+00  0.00000000000E+00  0.12043862260E+03  0.12208814185E+03  0.20001314105E+02 0.  0.
        -11    1    3    3    0    0 -0.76301931307E+01  0.64647314062E+01  0.60077223202E+02  0.60903902562E+02  0.51100000000E-03 0. -1.
         11    1    3    3    0    0  0.76301931307E+01 -0.64647314062E+01  0.60361399403E+02  0.61184239290E+02  0.51100000000E-03 0.  1.
<mgrwt>
<rscale>  0 0.20001314E+02</rscale>
<asrwt>0</asrwt>
<pdfrwt beam="2">  1        3 0.12688601E-03 0.20001314E+02</pdfrwt>
<pdfrwt beam="1">  1       -3 0.18655918E-01 0.20001314E+02</pdfrwt>
<totfact> 0.13456910E+06</totfact>
</mgrwt>
</event>
<event>
 5    1  0.4133473E-007  0.2000104E+02  0.7818608E-02  0.1745307E+00
          3   -1    0    0  501    0  0.00000000000E+00  0.00000000000E+00  0.64448082716E+02  0.64448149817E+02  0.93000000000E-01 0. -1.
         -3   -1    0    0    0  501 -0.00000000000E+00 -0.00000000000E+00 -0.15503371795E+01  0.15531240679E+01  0.93000000000E-01 0.  1.
       1023    2    1    2    0    0  0.00000000000E+00  0.00000000000E+00  0.62897745537E+02  0.66001273885E+02  0.20001043993E+02 0.  0.
        -11    1    3    3    0    0  0.63931812914E+01  0.76899202410E+01  0.31274271411E+02  0.32834245733E+02  0.51100000000E-03 0.  1.
         11    1    3    3    0    0 -0.63931812914E+01 -0.76899202410E+01  0.31623474126E+02  0.33167028151E+02  0.51100000000E-03 0. -1.
<mgrwt>
<rscale>  0 0.20001044E+02</rscale>
<asrwt>0</asrwt>
<pdfrwt beam="1">  1        3 0.99153082E-02 0.20001044E+02</pdfrwt>
<pdfrwt beam="2">  1       -3 0.23873297E-03 0.20001044E+02</pdfrwt>
<totfact> 0.15479789E+06</totfact>
</mgrwt>
</event>
<event>
 5    1  0.4133473E-007  0.2000201E+02  0.7818608E-02  0.1745288E+00
         -3   -1    0    0    0  501 -0.00000000000E+00  0.00000000000E+00  0.14182438516E+01  0.14212897743E+01  0.93000000000E-01 0. -1.
          3   -1    0    0  501    0  0.00000000000E+00 -0.00000000000E+00 -0.70445152772E+02  0.70445214161E+02  0.93000000000E-01 0.  1.
       1023    2    1    2    0    0  0.00000000000E+00  0.00000000000E+00 -0.69026908921E+02  0.71866503935E+02  0.20002005716E+02 0.  0.
        -11    1    3    3    0    0  0.99971508814E+01  0.26600807092E+00 -0.34228909254E+02  0.35659949734E+02  0.51100000000E-03 0. -1.
         11    1    3    3    0    0 -0.99971508814E+01 -0.26600807092E+00 -0.34797999667E+02  0.36206554201E+02  0.51100000000E-03 0.  1.
<mgrwt>
<rscale>  0 0.20002006E+02</rscale>
<asrwt>0</asrwt>
<pdfrwt beam="2">  1        3 0.10837952E-01 0.20002006E+02</pdfrwt>
<pdfrwt beam="1">  1       -3 0.21843044E-03 0.20002006E+02</pdfrwt>
<totfact> 0.15232751E+06</totfact>
</mgrwt>
</event>
<event>
 5    1  0.4133473E-007  0.2000543E+02  0.7818608E-02  0.1745220E+00
          3   -1    0    0  501    0  0.00000000000E+00  0.00000000000E+00  0.13147638127E+01  0.13180488926E+01  0.93000000000E-01 0. -1.
         -3   -1    0    0    0  501 -0.00000000000E+00 -0.00000000000E+00 -0.76002294476E+02  0.76002351376E+02  0.93000000000E-01 0.  1.
       1023    2    1    2    0    0  0.00000000000E+00  0.00000000000E+00 -0.74687530664E+02  0.77320400269E+02  0.20005425790E+02 0.  0.
        -11    1    3    3    0    0 -0.96134383689E+01 -0.27632708607E+01 -0.37266284783E+02  0.38585357908E+02  0.51100000000E-03 0. -1.
         11    1    3    3    0    0  0.96134383689E+01  0.27632708607E+01 -0.37421245881E+02  0.38735042361E+02  0.51100000000E-03 0.  1.
<mgrwt>
<rscale>  0 0.20005426E+02</rscale>
<asrwt>0</asrwt>
<pdfrwt beam="1">  1        3 0.20252849E-03 0.20005426E+02</pdfrwt>
<pdfrwt beam="2">  1       -3 0.11692914E-01 0.20005426E+02</pdfrwt>
<totfact> 0.15010620E+06</totfact>
</mgrwt>
</event>
<event>
 4    1  0.4133473E-007  0.2001247E+02  0.7818608E-02  0.1745080E+00
         -3   -1    0    0    0  501 -0.00000000000E+00  0.00000000000E+00  0.20484497447E+01  0.20505597666E+01  0.93000000000E-01 0. -1.
          3   -1    0    0  501    0  0.00000000000E+00 -0.00000000000E+00 -0.48850978485E+02  0.48851067009E+02  0.93000000000E-01 0.  1.
        -11    1    1    2    0    0 -0.66222612605E+01 -0.74934260448E+01 -0.22524036252E+02  0.24644228278E+02  0.51100000000E-03 0. -1.
         11    1    1    2    0    0  0.66222612605E+01  0.74934260448E+01 -0.24278492489E+02  0.26257398498E+02  0.51100000000E-03 0.  1.
<mgrwt>
<rscale>  0 0.20012469E+02</rscale>
<asrwt>0</asrwt>
<pdfrwt beam="2">  1        3 0.75157034E-02 0.20012469E+02</pdfrwt>
<pdfrwt beam="1">  1       -3 0.31531527E-03 0.20012469E+02</pdfrwt>
<totfact> 0.16142201E+06</totfact>
</mgrwt>
</event>
<event>
 5    1  0.4218583E-007  0.2000069E+02  0.7818608E-02  0.1745314E+00
         -3   -1    0    0    0  501 -0.00000000000E+00  0.00000000000E+00  0.74764742609E+01  0.74770526529E+01  0.93000000000E-01 0.  1.
          3   -1    0    0  501    0  0.00000000000E+00 -0.00000000000E+00 -0.13374948564E+02  0.13375271889E+02  0.93000000000E-01 0. -1.
       1023    2    1    2    0    0  0.00000000000E+00  0.00000000000E+00 -0.58984743033E+01  0.20852324542E+02  0.20000685980E+02 0.  0.
        -11    1    3    3    0    0 -0.26037358887E+01 -0.96554135426E+01 -0.29703066135E+01  0.10432122167E+02  0.51100000000E-03 0. -1.
         11    1    3    3    0    0  0.26037358887E+01  0.96554135426E+01 -0.29281676898E+01  0.10420202375E+02  0.51100000000E-03 0.  1.
<mgrwt>
<rscale>  0 0.20000686E+02</rscale>
<asrwt>0</asrwt>
<pdfrwt beam="2">  1        3 0.20577538E-02 0.20000686E+02</pdfrwt>
<pdfrwt beam="1">  1       -3 0.11502962E-02 0.20000686E+02</pdfrwt>
<totfact> 0.17828397E+06</totfact>
</mgrwt>
</event>
<event>
 5    1  0.4266107E-007  0.2000168E+02  0.7818608E-02  0.1745295E+00
          3   -1    0    0  501    0  0.00000000000E+00  0.00000000000E+00  0.36934340242E+01  0.36946047002E+01  0.93000000000E-01 0.  1.
         -3   -1    0    0    0  501 -0.00000000000E+00 -0.00000000000E+00 -0.27074081291E+02  0.27074241018E+02  0.93000000000E-01 0. -1.
       1023    2    1    2    0    0  0.00000000000E+00  0.00000000000E+00 -0.23380647266E+02  0.30768845719E+02  0.20001679936E+02 0.  0.
        -11    1    3    3    0    0  0.30522021202E+00  0.99957781961E+01 -0.11828418251E+02  0.15489358273E+02  0.51100000000E-03 0. -1.
         11    1    3    3    0    0 -0.30522021202E+00 -0.99957781961E+01 -0.11552229015E+02  0.15279487446E+02  0.51100000000E-03 0.  1.
<mgrwt>
<rscale>  0 0.20001680E+02</rscale>
<asrwt>0</asrwt>
<pdfrwt beam="1">  1        3 0.56832298E-03 0.20001680E+02</pdfrwt>
<pdfrwt beam="2">  1       -3 0.41653455E-02 0.20001680E+02</pdfrwt>
<totfact> 0.17220356E+06</totfact>
</mgrwt>
</event>
<event>
 5    1  0.4364382E-007  0.2000064E+02  0.7818608E-02  0.1745315E+00
          3   -1    0    0  501    0  0.00000000000E+00  0.00000000000E+00  0.13765313239E+02  0.13765627395E+02  0.93000000000E-01 0. -1.
         -3   -1    0    0    0  501 -0.00000000000E+00 -0.00000000000E+00 -0.72644038203E+01  0.72649990960E+01  0.93000000000E-01 0.  1.
       1023    2    1    2    0    0  0.00000000000E+00  0.00000000000E+00  0.65009094188E+01  0.21030626491E+02  0.20000635673E+02 0.  0.
        -11    1    3    3    0    0  0.31413817414E+01  0.94940831802E+01  0.32278562667E+01  0.10508327698E+02  0.51100000000E-03 0. -1.
         11    1    3    3    0    0 -0.31413817414E+01 -0.94940831802E+01  0.32730531521E+01  0.10522298792E+02  0.51100000000E-03 0.  1.
<mgrwt>
<rscale>  0 0.20000636E+02</rscale>
<asrwt>0</asrwt>
<pdfrwt beam="1">  1        3 0.21178104E-02 0.20000636E+02</pdfrwt>
<pdfrwt beam="2">  1       -3 0.11176706E-02 0.20000636E+02</pdfrwt>
<totfact> 0.17816854E+06</totfact>
</mgrwt>
</event>
<event>
 5    1  0.4133473E-007  0.2000165E+02  0.7818608E-02  0.1745295E+00
          3   -1    0    0  501    0  0.00000000000E+00  0.00000000000E+00  0.18467669055E+01  0.18491070827E+01  0.93000000000E-01 0. -1.
         -3   -1    0    0    0  501 -0.00000000000E+00 -0.00000000000E+00 -0.54120969390E+02  0.54121049294E+02  0.93000000000E-01 0.  1.
       1023    2    1    2    0    0  0.00000000000E+00  0.00000000000E+00 -0.52274202484E+02  0.55970156377E+02  0.20001653918E+02 0.  0.
        -11    1    3    3    0    0 -0.51149259616E+01 -0.85937136433E+01 -0.26007114513E+02  0.27863675051E+02  0.51100000000E-03 0.  1.
         11    1    3    3    0    0  0.51149259616E+01  0.85937136433E+01 -0.26267087971E+02  0.28106481326E+02  0.51100000000E-03 0. -1.
<mgrwt>
<rscale>  0 0.20001654E+02</rscale>
<asrwt>0</asrwt>
<pdfrwt beam="1">  1        3 0.28430419E-03 0.20001654E+02</pdfrwt>
<pdfrwt beam="2">  1       -3 0.83264879E-02 0.20001654E+02</pdfrwt>
<totfact> 0.15925886E+06</totfact>
</mgrwt>
</event>
<event>
 4    1  0.4133473E-007  0.2001773E+02  0.7818608E-02  0.1744976E+00
          3   -1    0    0  501    0  0.00000000000E+00  0.00000000000E+00  0.69475874388E+01  0.69482098572E+01  0.93000000000E-01 0.  1.
         -3   -1    0    0    0  501 -0.00000000000E+00 -0.00000000000E+00 -0.14417595774E+02  0.14417895717E+02  0.93000000000E-01 0. -1.
        -11    1    1    2    0    0  0.99506128104E+01  0.10471512461E+01 -0.40095031750E+01  0.10779023008E+02  0.51100000000E-03 0. -1.
         11    1    1    2    0    0 -0.99506128104E+01 -0.10471512461E+01 -0.34605051601E+01  0.10587082566E+02  0.51100000000E-03 0.  1.
<mgrwt>
<rscale>  0 0.20017728E+02</rscale>
<asrwt>0</asrwt>
<pdfrwt beam="1">  1        3 0.10689306E-02 0.20017728E+02</pdfrwt>
<pdfrwt beam="2">  1       -3 0.22181626E-02 0.20017728E+02</pdfrwt>
<totfact> 0.17762989E+06</totfact>
</mgrwt>
</event>
<event>
 5    1  0.4203616E-007  0.2000080E+02  0.7818608E-02  0.1745312E+00
          3   -1    0    0  501    0  0.00000000000E+00  0.00000000000E+00  0.10900413130E+02  0.10900809851E+02  0.93000000000E-01 0. -1.
         -3   -1    0    0    0  501 -0.00000000000E+00 -0.00000000000E+00 -0.91738960620E+01  0.91743674418E+01  0.93000000000E-01 0.  1.
       1023    2    1    2    0    0  0.00000000000E+00  0.00000000000E+00  0.17265170677E+01  0.20075177292E+02  0.20000797038E+02 0.  0.
        -11    1    3    3    0    0 -0.84976488578E+01 -0.52719727769E+01  0.79792266333E+00  0.10031969593E+02  0.51100000000E-03 0.  1.
         11    1    3    3    0    0  0.84976488578E+01  0.52719727769E+01  0.92859440438E+00  0.10043207700E+02  0.51100000000E-03 0. -1.
<mgrwt>
<rscale>  0 0.20000797E+02</rscale>
<asrwt>0</asrwt>
<pdfrwt beam="1">  1        3 0.16770534E-02 0.20000797E+02</pdfrwt>
<pdfrwt beam="2">  1       -3 0.14114354E-02 0.20000797E+02</pdfrwt>
<totfact> 0.17879128E+06</totfact>
</mgrwt>
</event>
<event>
 5    1  0.4133473E-007  0.2000043E+02  0.7818608E-02  0.1745320E+00
         -3   -1    0    0    0  501 -0.00000000000E+00  0.00000000000E+00  0.63477872498E+01  0.63484684742E+01  0.93000000000E-01 0. -1.
          3   -1    0    0  501    0  0.00000000000E+00 -0.00000000000E+00 -0.15752532682E+02  0.15752807206E+02  0.93000000000E-01 0.  1.
       1023    2    1    2    0    0  0.00000000000E+00  0.00000000000E+00 -0.94047454318E+01  0.22101275681E+02  0.20000428747E+02 0.  0.
        -11    1    3    3    0    0  0.87440896232E+01 -0.48520708399E+01 -0.47586374219E+01  0.11074580134E+02  0.51100000000E-03 0.  1.
         11    1    3    3    0    0 -0.87440896232E+01  0.48520708399E+01 -0.46461080099E+01  0.11026695546E+02  0.51100000000E-03 0. -1.
<mgrwt>
<rscale>  0 0.20000429E+02</rscale>
<asrwt>0</asrwt>
<pdfrwt beam="2">  1        3 0.24235401E-02 0.20000429E+02</pdfrwt>
<pdfrwt beam="1">  1       -3 0.97665618E-03 0.20000429E+02</pdfrwt>
<totfact> 0.17748142E+06</totfact>
</mgrwt>
</event>
<event>
 5    1  0.4133473E-007  0.2000033E+02  0.7818608E-02  0.1745321E+00
         -3   -1    0    0    0  501 -0.00000000000E+00  0.00000000000E+00  0.18081437002E+01  0.18105337999E+01  0.93000000000E-01 0. -1.
          3   -1    0    0  501    0  0.00000000000E+00 -0.00000000000E+00 -0.55268212715E+02  0.55268290961E+02  0.93000000000E-01 0.  1.
       1023    2    1    2    0    0  0.00000000000E+00  0.00000000000E+00 -0.53460069015E+02  0.57078824761E+02  0.20000331422E+02 0.  0.
        -11    1    3    3    0    0  0.60992842398E+01 -0.79245841403E+01 -0.26573409232E+02  0.28392717033E+02  0.51100000000E-03 0.  1.
         11    1    3    3    0    0 -0.60992842398E+01  0.79245841403E+01 -0.26886659782E+02  0.28686107727E+02  0.51100000000E-03 0. -1.
<mgrwt>
<rscale>  0 0.20000331E+02</rscale>
<asrwt>0</asrwt>
<pdfrwt beam="2">  1        3 0.85029905E-02 0.20000331E+02</pdfrwt>
<pdfrwt beam="1">  1       -3 0.27836587E-03 0.20000331E+02</pdfrwt>
<totfact> 0.15874717E+06</totfact>
</mgrwt>
</event>
<event>
 5    1  0.4133473E-007  0.2000216E+02  0.7818608E-02  0.1745285E+00
         -3   -1    0    0    0  501 -0.00000000000E+00  0.00000000000E+00  0.84558663027E+02  0.84558714169E+02  0.93000000000E-01 0. -1.
          3   -1    0    0  501    0  0.00000000000E+00 -0.00000000000E+00 -0.11809864055E+01  0.11846425157E+01  0.93000000000E-01 0.  1.
       1023    2    1    2    0    0  0.00000000000E+00  0.00000000000E+00  0.83377676622E+02  0.85743356685E+02  0.20002156303E+02 0.  0.
        -11    1    3    3    0    0 -0.35753971360E+01 -0.93400856169E+01  0.41560242852E+02  0.42746630864E+02  0.51100000000E-03 0. -1.
         11    1    3    3    0    0  0.35753971360E+01  0.93400856169E+01  0.41817433769E+02  0.42996725821E+02  0.51100000000E-03 0.  1.
<mgrwt>
<rscale>  0 0.20002156E+02</rscale>
<asrwt>0</asrwt>
<pdfrwt beam="2">  1        3 0.18197532E-03 0.20002156E+02</pdfrwt>
<pdfrwt beam="1">  1       -3 0.13009315E-01 0.20002156E+02</pdfrwt>
<totfact> 0.14691599E+06</totfact>
</mgrwt>
</event>
<event>
 5    1  0.4185370E-007  0.2000346E+02  0.7818608E-02  0.1745259E+00
         -3   -1    0    0    0  501 -0.00000000000E+00  0.00000000000E+00  0.17642710546E+02  0.17642955660E+02  0.93000000000E-01 0.  1.
          3   -1    0    0  501    0  0.00000000000E+00 -0.00000000000E+00 -0.56693590389E+01  0.56701217723E+01  0.93000000000E-01 0. -1.
       1023    2    1    2    0    0  0.00000000000E+00  0.00000000000E+00  0.11973351507E+02  0.23313077432E+02  0.20003460527E+02 0.  0.
        -11    1    3    3    0    0  0.39016405375E+01  0.92075654043E+01  0.57764143516E+01  0.11548550670E+02  0.51100000000E-03 0.  1.
         11    1    3    3    0    0 -0.39016405375E+01 -0.92075654043E+01  0.61969371555E+01  0.11764526762E+02  0.51100000000E-03 0. -1.
<mgrwt>
<rscale>  0 0.20003461E+02</rscale>
<asrwt>0</asrwt>
<pdfrwt beam="2">  1        3 0.87228661E-03 0.20003461E+02</pdfrwt>
<pdfrwt beam="1">  1       -3 0.27143407E-02 0.20003461E+02</pdfrwt>
<totfact> 0.17666349E+06</totfact>
</mgrwt>
</event>
<event>
 5    1  0.4281089E-007  0.2000060E+02  0.7818608E-02  0.1745316E+00
         -3   -1    0    0    0  501 -0.00000000000E+00  0.00000000000E+00  0.90387209680E+01  0.90391993969E+01  0.93000000000E-01 0. -1.
          3   -1    0    0  501    0  0.00000000000E+00 -0.00000000000E+00 -0.11063205025E+02  0.11063595909E+02  0.93000000000E-01 0.  1.
       1023    2    1    2    0    0  0.00000000000E+00  0.00000000000E+00 -0.20244840574E+01  0.20102795306E+02  0.20000596076E+02 0.  0.
        -11    1    3    3    0    0  0.37080206737E+01  0.92874306055E+01 -0.10255771144E+01  0.10052740584E+02  0.51100000000E-03 0.  1.
         11    1    3    3    0    0 -0.37080206737E+01 -0.92874306055E+01 -0.99890694294E+00  0.10050054722E+02  0.51100000000E-03 0. -1.
<mgrwt>
<rscale>  0 0.20000596E+02</rscale>
<asrwt>0</asrwt>
<pdfrwt beam="2">  1        3 0.17020984E-02 0.20000596E+02</pdfrwt>
<pdfrwt beam="1">  1       -3 0.13906393E-02 0.20000596E+02</pdfrwt>
<totfact> 0.17877708E+06</totfact>
</mgrwt>
</event>
<event>
 5    1  0.4133473E-007  0.2000043E+02  0.7818608E-02  0.1745320E+00
         -3   -1    0    0    0  501 -0.00000000000E+00  0.00000000000E+00  0.63980415445E+02  0.63980483036E+02  0.93000000000E-01 0. -1.
          3   -1    0    0  501    0  0.00000000000E+00 -0.00000000000E+00 -0.15615930097E+01  0.15643598460E+01  0.93000000000E-01 0.  1.
       1023    2    1    2    0    0  0.00000000000E+00  0.00000000000E+00  0.62418822436E+02  0.65544842882E+02  0.20000425851E+02 0.  0.
        -11    1    3    3    0    0  0.99996260495E+01 -0.93781966885E-01  0.31031653476E+02  0.32603141473E+02  0.51100000000E-03 0.  1.
         11    1    3    3    0    0 -0.99996260495E+01  0.93781966885E-01  0.31387168959E+02  0.32941701409E+02  0.51100000000E-03 0. -1.
<mgrwt>
<rscale>  0 0.20000426E+02</rscale>
<asrwt>0</asrwt>
<pdfrwt beam="2">  1        3 0.24046314E-03 0.20000426E+02</pdfrwt>
<pdfrwt beam="1">  1       -3 0.98433576E-02 0.20000426E+02</pdfrwt>
<totfact> 0.15503186E+06</totfact>
</mgrwt>
</event>
<event>
 5    1  0.4161415E-007  0.2000145E+02  0.7818608E-02  0.1745299E+00
         -3   -1    0    0    0  501 -0.00000000000E+00  0.00000000000E+00  0.27446396203E+02  0.27446553764E+02  0.93000000000E-01 0. -1.
          3   -1    0    0  501    0  0.00000000000E+00 -0.00000000000E+00 -0.36432315048E+01  0.36444183071E+01  0.93000000000E-01 0.  1.
       1023    2    1    2    0    0  0.00000000000E+00  0.00000000000E+00  0.23803164698E+02  0.31090972071E+02  0.20001447315E+02 0.  0.
        -11    1    3    3    0    0  0.24413635878E+01  0.96980922724E+01  0.11847209977E+02  0.15503858694E+02  0.51100000000E-03 0.  1.
         11    1    3    3    0    0 -0.24413635878E+01 -0.96980922724E+01  0.11955954721E+02  0.15587113377E+02  0.51100000000E-03 0. -1.
<mgrwt>
<rscale>  0 0.20001447E+02</rscale>
<asrwt>0</asrwt>
<pdfrwt beam="2">  1        3 0.56060055E-03 0.20001447E+02</pdfrwt>
<pdfrwt beam="1">  1       -3 0.42226260E-02 0.20001447E+02</pdfrwt>
<totfact> 0.17202217E+06</totfact>
</mgrwt>
</event>
<event>
 5    1  0.4133473E-007  0.2000045E+02  0.7818608E-02  0.1745319E+00
          3   -1    0    0  501    0  0.00000000000E+00  0.00000000000E+00  0.43293813727E+01  0.43303801300E+01  0.93000000000E-01 0. -1.
         -3   -1    0    0    0  501 -0.00000000000E+00 -0.00000000000E+00 -0.23095265079E+02  0.23095452324E+02  0.93000000000E-01 0.  1.
       1023    2    1    2    0    0  0.00000000000E+00  0.00000000000E+00 -0.18765883706E+02  0.27425832454E+02  0.20000447358E+02 0.  0.
        -11    1    3    3    0    0 -0.33528371986E+01 -0.94213725656E+01 -0.94190940894E+01  0.13737653076E+02  0.51100000000E-03 0. -1.
         11    1    3    3    0    0  0.33528371986E+01  0.94213725656E+01 -0.93467896167E+01  0.13688179379E+02  0.51100000000E-03 0.  1.
<mgrwt>
<rscale>  0 0.20000447E+02</rscale>
<asrwt>0</asrwt>
<pdfrwt beam="1">  1        3 0.66614992E-03 0.20000447E+02</pdfrwt>
<pdfrwt beam="2">  1       -3 0.35532089E-02 0.20000447E+02</pdfrwt>
<totfact> 0.17419457E+06</totfact>
</mgrwt>
</event>
<event>
 5    1  0.4133473E-007  0.2000167E+02  0.7818608E-02  0.1745295E+00
          3   -1    0    0  501    0  0.00000000000E+00  0.00000000000E+00  0.93402258764E+00  0.93864114241E+00  0.93000000000E-01 0. -1.
         -3   -1    0    0    0  501 -0.00000000000E+00 -0.00000000000E+00 -0.10681296490E+03  0.10681300539E+03  0.93000000000E-01 0.  1.
       1023    2    1    2    0    0  0.00000000000E+00  0.00000000000E+00 -0.10587894231E+03  0.10775164653E+03  0.20001672544E+02 0.  0.
        -11    1    3    3    0    0 -0.75235326306E+01  0.65888259940E+01 -0.52812598548E+02  0.53751155680E+02  0.51100000000E-03 0.  1.
         11    1    3    3    0    0  0.75235326306E+01 -0.65888259940E+01 -0.53066343766E+02  0.54000490851E+02  0.51100000000E-03 0. -1.
<mgrwt>
<rscale>  0 0.20001673E+02</rscale>
<asrwt>0</asrwt>
<pdfrwt beam="1">  1        3 0.14405425E-03 0.20001673E+02</pdfrwt>
<pdfrwt beam="2">  1       -3 0.16433113E-01 0.20001673E+02</pdfrwt>
<totfact> 0.13915493E+06</totfact>
</mgrwt>
</event>
<event>
 5    1  0.4133473E-007  0.2000186E+02  0.7818608E-02  0.1745291E+00
          3   -1    0    0  501    0  0.00000000000E+00  0.00000000000E+00  0.14497071576E+01  0.14526871112E+01  0.93000000000E-01 0. -1.
         -3   -1    0    0    0  501 -0.00000000000E+00 -0.00000000000E+00 -0.68918404392E+02  0.68918467140E+02  0.93000000000E-01 0.  1.
       1023    2    1    2    0    0  0.00000000000E+00  0.00000000000E+00 -0.67468697234E+02  0.70371154251E+02  0.20001856018E+02 0.  0.
        -11    1    3    3    0    0 -0.90391098154E+01 -0.42780009986E+01 -0.34115910135E+02  0.35551401146E+02  0.51100000000E-03 0.  1.
         11    1    3    3    0    0  0.90391098154E+01  0.42780009986E+01 -0.33352787099E+02  0.34819753105E+02  0.51100000000E-03 0. -1.
<mgrwt>
<rscale>  0 0.20001856E+02</rscale>
<asrwt>0</asrwt>
<pdfrwt beam="1">  1        3 0.22326598E-03 0.20001856E+02</pdfrwt>
<pdfrwt beam="2">  1       -3 0.10603063E-01 0.20001856E+02</pdfrwt>
<totfact> 0.15297501E+06</totfact>
</mgrwt>
</event>
<event>
 4    1  0.4133473E-007  0.2006631E+02  0.7818608E-02  0.1744013E+00
          3   -1    0    0  501    0  0.00000000000E+00  0.00000000000E+00  0.88947482956E+02  0.88947531574E+02  0.93000000000E-01 0. -1.
         -3   -1    0    0    0  501 -0.00000000000E+00 -0.00000000000E+00 -0.11297663918E+01  0.11335877116E+01  0.93000000000E-01 0.  1.
        -11    1    1    2    0    0 -0.45526296140E+01  0.89226740665E+01  0.41355043135E+02  0.42550912350E+02  0.51100000000E-03 0.  1.
         11    1    1    2    0    0  0.45526296140E+01 -0.89226740665E+01  0.46462673429E+02  0.47530206936E+02  0.51100000000E-03 0. -1.
<mgrwt>
<rscale>  0 0.20066308E+02</rscale>
<asrwt>0</asrwt>
<pdfrwt beam="1">  1        3 0.13684527E-01 0.20066308E+02</pdfrwt>
<pdfrwt beam="2">  1       -3 0.17410789E-03 0.20066308E+02</pdfrwt>
<totfact> 0.14428230E+06</totfact>
</mgrwt>
</event>
<event>
 5    1  0.4133473E-007  0.2000048E+02  0.7818608E-02  0.1745319E+00
         -3   -1    0    0    0  501 -0.00000000000E+00  0.00000000000E+00  0.35860970726E+01  0.35873027770E+01  0.93000000000E-01 0. -1.
          3   -1    0    0  501    0  0.00000000000E+00 -0.00000000000E+00 -0.27880840230E+02  0.27880995336E+02  0.93000000000E-01 0.  1.
       1023    2    1    2    0    0  0.00000000000E+00  0.00000000000E+00 -0.24294743157E+02  0.31468298113E+02  0.20000481020E+02 0.  0.
        -11    1    3    3    0    0 -0.95570377524E+01 -0.29435246360E+01 -0.12054261203E+02  0.15662264245E+02  0.51100000000E-03 0.  1.
         11    1    3    3    0    0  0.95570377524E+01  0.29435246360E+01 -0.12240481955E+02  0.15806033868E+02  0.51100000000E-03 0. -1.
<mgrwt>
<rscale>  0 0.20000481E+02</rscale>
<asrwt>0</asrwt>
<pdfrwt beam="2">  1        3 0.42894646E-02 0.20000481E+02</pdfrwt>
<pdfrwt beam="1">  1       -3 0.55181194E-03 0.20000481E+02</pdfrwt>
<totfact> 0.17180498E+06</totfact>
</mgrwt>
</event>
<event>
 5    1  0.4133473E-007  0.2000911E+02  0.7818608E-02  0.1745147E+00
         -3   -1    0    0    0  501 -0.00000000000E+00  0.00000000000E+00  0.84381266433E+02  0.84381317682E+02  0.93000000000E-01 0.  1.
          3   -1    0    0  501    0  0.00000000000E+00 -0.00000000000E+00 -0.11843022887E+01  0.11879481938E+01  0.93000000000E-01 0. -1.
       1023    2    1    2    0    0  0.00000000000E+00  0.00000000000E+00  0.83196964144E+02  0.85569265876E+02  0.20009108421E+02 0.  0.
        -11    1    3    3    0    0 -0.87260589979E+01 -0.48935584981E+01  0.41559222789E+02  0.42746462070E+02  0.51100000000E-03 0. -1.
         11    1    3    3    0    0  0.87260589979E+01  0.48935584981E+01  0.41637741355E+02  0.42822803806E+02  0.51100000000E-03 0.  1.
<mgrwt>
<rscale>  0 0.20009108E+02</rscale>
<asrwt>0</asrwt>
<pdfrwt beam="2">  1        3 0.18248472E-03 0.20009108E+02</pdfrwt>
<pdfrwt beam="1">  1       -3 0.12982020E-01 0.20009108E+02</pdfrwt>
<totfact> 0.14687181E+06</totfact>
</mgrwt>
</event>
<event>
 5    1  0.4133473E-007  0.2000078E+02  0.7818608E-02  0.1745313E+00
         -3   -1    0    0    0  501 -0.00000000000E+00  0.00000000000E+00  0.27630650322E+01  0.27646296989E+01  0.93000000000E-01 0.  1.
          3   -1    0    0  501    0  0.00000000000E+00 -0.00000000000E+00 -0.36182639993E+02  0.36182759512E+02  0.93000000000E-01 0. -1.
       1023    2    1    2    0    0  0.00000000000E+00  0.00000000000E+00 -0.33419574961E+02  0.38947389210E+02  0.20000778378E+02 0.  0.
        -11    1    3    3    0    0  0.68911123888E+01 -0.72470316624E+01 -0.16651831250E+02  0.19423964119E+02  0.51100000000E-03 0. -1.
         11    1    3    3    0    0 -0.68911123888E+01  0.72470316624E+01 -0.16767743711E+02  0.19523425091E+02  0.51100000000E-03 0.  1.
<mgrwt>
<rscale>  0 0.20000778E+02</rscale>
<asrwt>0</asrwt>
<pdfrwt beam="2">  1        3 0.55666892E-02 0.20000778E+02</pdfrwt>
<pdfrwt beam="1">  1       -3 0.42521651E-03 0.20000778E+02</pdfrwt>
<totfact> 0.16766219E+06</totfact>
</mgrwt>
</event>
<event>
 5    1  0.4215850E-007  0.2000390E+02  0.7818608E-02  0.1745250E+00
          3   -1    0    0  501    0  0.00000000000E+00  0.00000000000E+00  0.12888489990E+02  0.12888825518E+02  0.93000000000E-01 0.  1.
         -3   -1    0    0    0  501 -0.00000000000E+00 -0.00000000000E+00 -0.77611743440E+01  0.77617315206E+01  0.93000000000E-01 0. -1.
       1023    2    1    2    0    0  0.00000000000E+00  0.00000000000E+00  0.51273156462E+01  0.20650557038E+02  0.20003903126E+02 0.  0.
        -11    1    3    3    0    0  0.98387717064E+01 -0.17923526150E+01  0.27271380940E+01  0.10365868947E+02  0.51100000000E-03 0.  1.
         11    1    3    3    0    0 -0.98387717064E+01  0.17923526150E+01  0.24001775522E+01  0.10284688091E+02  0.51100000000E-03 0. -1.
<mgrwt>
<rscale>  0 0.20003903E+02</rscale>
<asrwt>0</asrwt>
<pdfrwt beam="1">  1        3 0.19829133E-02 0.20003903E+02</pdfrwt>
<pdfrwt beam="2">  1       -3 0.11940955E-02 0.20003903E+02</pdfrwt>
<totfact> 0.17835403E+06</totfact>
</mgrwt>
</event>
<event>
 5    1  0.4133473E-007  0.2000045E+02  0.7818608E-02  0.1745319E+00
         -3   -1    0    0    0  501 -0.00000000000E+00  0.00000000000E+00  0.10870701757E+01  0.10910410473E+01  0.93000000000E-01 0. -1.
          3   -1    0    0  501    0  0.00000000000E+00 -0.00000000000E+00 -0.91822817632E+02  0.91822864728E+02  0.93000000000E-01 0.  1.
       1023    2    1    2    0    0  0.00000000000E+00  0.00000000000E+00 -0.90735747456E+02  0.92913905775E+02  0.20000450495E+02 0.  0.
        -11    1    3    3    0    0 -0.20744226162E+01 -0.97826051230E+01 -0.45571038202E+02  0.46655354626E+02  0.51100000000E-03 0.  1.
         11    1    3    3    0    0  0.20744226162E+01  0.97826051230E+01 -0.45164709253E+02  0.46258551149E+02  0.51100000000E-03 0. -1.
<mgrwt>
<rscale>  0 0.20000450E+02</rscale>
<asrwt>0</asrwt>
<pdfrwt beam="2">  1        3 0.14126890E-01 0.20000450E+02</pdfrwt>
<pdfrwt beam="1">  1       -3 0.16755071E-03 0.20000450E+02</pdfrwt>
<totfact> 0.14427557E+06</totfact>
</mgrwt>
</event>
<event>
 4    1  0.4133473E-007  0.2002858E+02  0.7818608E-02  0.1744760E+00
          3   -1    0    0  501    0  0.00000000000E+00  0.00000000000E+00  0.11207843117E+02  0.11208228956E+02  0.93000000000E-01 0.  1.
         -3   -1    0    0    0  501 -0.00000000000E+00 -0.00000000000E+00 -0.89470584326E+01  0.89475417627E+01  0.93000000000E-01 0. -1.
        -11    1    1    2    0    0 -0.99534544837E+01  0.11013522467E+01  0.10882542872E+01  0.10073158918E+02  0.51100000000E-03 0.  1.
         11    1    1    2    0    0  0.99534544837E+01 -0.11013522467E+01  0.11725303967E+01  0.10082611801E+02  0.51100000000E-03 0. -1.
<mgrwt>
<rscale>  0 0.20028578E+02</rscale>
<asrwt>0</asrwt>
<pdfrwt beam="1">  1        3 0.17243504E-02 0.20028578E+02</pdfrwt>
<pdfrwt beam="2">  1       -3 0.13765374E-02 0.20028578E+02</pdfrwt>
<totfact> 0.17820446E+06</totfact>
</mgrwt>
</event>
<event>
 4    1  0.4133473E-007  0.2002260E+02  0.7818608E-02  0.1744879E+00
         -3   -1    0    0    0  501 -0.00000000000E+00  0.00000000000E+00  0.12020454629E+02  0.12020814385E+02  0.93000000000E-01 0.  1.
          3   -1    0    0  501    0  0.00000000000E+00 -0.00000000000E+00 -0.83372247217E+01  0.83377434034E+01  0.93000000000E-01 0. -1.
        -11    1    1    2    0    0  0.27412046546E+01 -0.96264365631E+01  0.16290886340E+01  0.10140829054E+02  0.51100000000E-03 0.  1.
         11    1    1    2    0    0 -0.27412046546E+01  0.96264365631E+01  0.20541412731E+01  0.10217728735E+02  0.51100000000E-03 0. -1.
<mgrwt>
<rscale>  0 0.20022605E+02</rscale>
<asrwt>0</asrwt>
<pdfrwt beam="2">  1        3 0.12827175E-02 0.20022605E+02</pdfrwt>
<pdfrwt beam="1">  1       -3 0.18493683E-02 0.20022605E+02</pdfrwt>
<totfact> 0.17818888E+06</totfact>
</mgrwt>
</event>
<event>
 5    1  0.4133473E-007  0.2000061E+02  0.7818608E-02  0.1745316E+00
         -3   -1    0    0    0  501 -0.00000000000E+00  0.00000000000E+00  0.48199136025E+01  0.48208107342E+01  0.93000000000E-01 0.  1.
          3   -1    0    0  501    0  0.00000000000E+00 -0.00000000000E+00 -0.20745598849E+02  0.20745807302E+02  0.93000000000E-01 0. -1.
       1023    2    1    2    0    0  0.00000000000E+00  0.00000000000E+00 -0.15925685246E+02  0.25566618036E+02  0.20000612671E+02 0.  0.
        -11    1    3    3    0    0 -0.26204364771E+01 -0.96508306162E+01 -0.80013536338E+01  0.12807297886E+02  0.51100000000E-03 0. -1.
         11    1    3    3    0    0  0.26204364771E+01  0.96508306162E+01 -0.79243316126E+01  0.12759320150E+02  0.51100000000E-03 0.  1.
<mgrwt>
<rscale>  0 0.20000613E+02</rscale>
<asrwt>0</asrwt>
<pdfrwt beam="2">  1        3 0.31917156E-02 0.20000613E+02</pdfrwt>
<pdfrwt beam="1">  1       -3 0.74161022E-03 0.20000613E+02</pdfrwt>
<totfact> 0.17530531E+06</totfact>
</mgrwt>
</event>
<event>
 5    1  0.4133473E-007  0.2000033E+02  0.7818608E-02  0.1745322E+00
          3   -1    0    0  501    0  0.00000000000E+00  0.00000000000E+00  0.30989171646E+01  0.31003123380E+01  0.93000000000E-01 0. -1.
         -3   -1    0    0    0  501 -0.00000000000E+00 -0.00000000000E+00 -0.32261660676E+02  0.32261794720E+02  0.93000000000E-01 0.  1.
       1023    2    1    2    0    0  0.00000000000E+00  0.00000000000E+00 -0.29162743511E+02  0.35362107058E+02  0.20000325160E+02 0.  0.
        -11    1    3    3    0    0 -0.75367321127E+01  0.65727106062E+01 -0.14616543105E+02  0.17710058957E+02  0.51100000000E-03 0. -1.
         11    1    3    3    0    0  0.75367321127E+01 -0.65727106062E+01 -0.14546200406E+02  0.17652048101E+02  0.51100000000E-03 0.  1.
<mgrwt>
<rscale>  0 0.20000325E+02</rscale>
<asrwt>0</asrwt>
<pdfrwt beam="1">  1        3 0.47687414E-03 0.20000325E+02</pdfrwt>
<pdfrwt beam="2">  1       -3 0.49634498E-02 0.20000325E+02</pdfrwt>
<totfact> 0.16963456E+06</totfact>
</mgrwt>
</event>
<event>
 4    1  0.4133473E-007  0.2003077E+02  0.7818608E-02  0.1744717E+00
          3   -1    0    0  501    0  0.00000000000E+00  0.00000000000E+00  0.11502783245E+02  0.11503159192E+02  0.93000000000E-01 0. -1.
         -3   -1    0    0    0  501 -0.00000000000E+00 -0.00000000000E+00 -0.87195493851E+01  0.87200453255E+01  0.93000000000E-01 0.  1.
        -11    1    1    2    0    0 -0.99198369202E+01  0.13782146404E+01  0.14648547029E+01  0.10121681663E+02  0.51100000000E-03 0. -1.
         11    1    1    2    0    0  0.99198369202E+01 -0.13782146404E+01  0.13183791574E+01  0.10101522855E+02  0.51100000000E-03 0.  1.
<mgrwt>
<rscale>  0 0.20030767E+02</rscale>
<asrwt>0</asrwt>
<pdfrwt beam="1">  1        3 0.17697260E-02 0.20030767E+02</pdfrwt>
<pdfrwt beam="2">  1       -3 0.13415362E-02 0.20030767E+02</pdfrwt>
<totfact> 0.17811802E+06</totfact>
</mgrwt>
</event>
<event>
 5    1  0.4133473E-007  0.2000916E+02  0.7818608E-02  0.1745146E+00
          3   -1    0    0  501    0  0.00000000000E+00  0.00000000000E+00  0.77495453423E+02  0.77495509226E+02  0.93000000000E-01 0.  1.
         -3   -1    0    0    0  501 -0.00000000000E+00 -0.00000000000E+00 -0.12898496899E+01  0.12931980601E+01  0.93000000000E-01 0. -1.
       1023    2    1    2    0    0  0.00000000000E+00  0.00000000000E+00  0.76205603733E+02  0.78788707286E+02  0.20009156792E+02 0.  0.
        -11    1    3    3    0    0 -0.99591074225E+01  0.94595495851E+00  0.37654928717E+02  0.38961164104E+02  0.51100000000E-03 0.  1.
         11    1    3    3    0    0  0.99591074225E+01 -0.94595495851E+00  0.38550675016E+02  0.39827543182E+02  0.51100000000E-03 0. -1.
<mgrwt>
<rscale>  0 0.20009157E+02</rscale>
<asrwt>0</asrwt>
<pdfrwt beam="1">  1        3 0.11922639E-01 0.20009157E+02</pdfrwt>
<pdfrwt beam="2">  1       -3 0.19870029E-03 0.20009157E+02</pdfrwt>
<totfact> 0.14943977E+06</totfact>
</mgrwt>
</event>
<event>
 5    1  0.4213451E-007  0.2000079E+02  0.7818608E-02  0.1745312E+00
          3   -1    0    0  501    0  0.00000000000E+00  0.00000000000E+00  0.17083010815E+02  0.17083263959E+02  0.93000000000E-01 0.  1.
         -3   -1    0    0    0  501 -0.00000000000E+00 -0.00000000000E+00 -0.58535644729E+01  0.58543032069E+01  0.93000000000E-01 0. -1.
       1023    2    1    2    0    0  0.00000000000E+00  0.00000000000E+00  0.11229446342E+02  0.22937567166E+02  0.20000788043E+02 0.  0.
        -11    1    3    3    0    0  0.99963971963E+01 -0.26897196899E+00  0.57145536628E+01  0.11517657169E+02  0.51100000000E-03 0.  1.
         11    1    3    3    0    0 -0.99963971963E+01  0.26897196899E+00  0.55148926790E+01  0.11419909997E+02  0.51100000000E-03 0. -1.
<mgrwt>
<rscale>  0 0.20000788E+02</rscale>
<asrwt>0</asrwt>
<pdfrwt beam="1">  1        3 0.26282318E-02 0.20000788E+02</pdfrwt>
<pdfrwt beam="2">  1       -3 0.90062468E-03 0.20000788E+02</pdfrwt>
<totfact> 0.17694164E+06</totfact>
</mgrwt>
</event>
<event>
 5    1  0.4455845E-007  0.2000123E+02  0.7818608E-02  0.1745304E+00
          3   -1    0    0  501    0  0.00000000000E+00  0.00000000000E+00  0.13363578243E+02  0.13363901842E+02  0.93000000000E-01 0.  1.
         -3   -1    0    0    0  501 -0.00000000000E+00 -0.00000000000E+00 -0.74832393255E+01  0.74838171947E+01  0.93000000000E-01 0. -1.
       1023    2    1    2    0    0  0.00000000000E+00  0.00000000000E+00  0.58803389171E+01  0.20847719037E+02  0.20001225044E+02 0.  0.
        -11    1    3    3    0    0  0.95030573393E+01 -0.31140602239E+01  0.30259993635E+01  0.10448068830E+02  0.51100000000E-03 0.  1.
         11    1    3    3    0    0 -0.95030573393E+01  0.31140602239E+01  0.28543395536E+01  0.10399650207E+02  0.51100000000E-03 0. -1.
<mgrwt>
<rscale>  0 0.20001225E+02</rscale>
<asrwt>0</asrwt>
<pdfrwt beam="1">  1        3 0.20560044E-02 0.20001225E+02</pdfrwt>
<pdfrwt beam="2">  1       -3 0.11513370E-02 0.20001225E+02</pdfrwt>
<totfact> 0.17827663E+06</totfact>
</mgrwt>
</event>
<event>
 5    1  0.4133473E-007  0.2000062E+02  0.7818608E-02  0.1745316E+00
          3   -1    0    0  501    0  0.00000000000E+00  0.00000000000E+00  0.25881791673E+01  0.25898494941E+01  0.93000000000E-01 0. -1.
         -3   -1    0    0    0  501 -0.00000000000E+00 -0.00000000000E+00 -0.38625422777E+02  0.38625534736E+02  0.93000000000E-01 0.  1.
       1023    2    1    2    0    0  0.00000000000E+00  0.00000000000E+00 -0.36037243609E+02  0.41215384230E+02  0.20000624248E+02 0.  0.
        -11    1    3    3    0    0 -0.95604784741E+01  0.29327724125E+01 -0.18118297742E+02  0.20694845155E+02  0.51100000000E-03 0. -1.
         11    1    3    3    0    0  0.95604784741E+01 -0.29327724125E+01 -0.17918945867E+02  0.20520539075E+02  0.51100000000E-03 0.  1.
<mgrwt>
<rscale>  0 0.20000624E+02</rscale>
<asrwt>0</asrwt>
<pdfrwt beam="1">  1        3 0.39831854E-03 0.20000624E+02</pdfrwt>
<pdfrwt beam="2">  1       -3 0.59425094E-02 0.20000624E+02</pdfrwt>
<totfact> 0.16649264E+06</totfact>
</mgrwt>
</event>
<event>
 5    1  0.4133473E-007  0.2000078E+02  0.7818608E-02  0.1745313E+00
         -3   -1    0    0    0  501 -0.00000000000E+00  0.00000000000E+00  0.13522302814E+01  0.13554245585E+01  0.93000000000E-01 0. -1.
          3   -1    0    0  501    0  0.00000000000E+00 -0.00000000000E+00 -0.73867164031E+02  0.73867222575E+02  0.93000000000E-01 0.  1.
       1023    2    1    2    0    0  0.00000000000E+00  0.00000000000E+00 -0.72514933749E+02  0.75222647134E+02  0.20000775613E+02 0.  0.
        -11    1    3    3    0    0 -0.74562259049E+01  0.66642127469E+01 -0.36156567637E+02  0.37514056296E+02  0.51100000000E-03 0. -1.
         11    1    3    3    0    0  0.74562259049E+01 -0.66642127469E+01 -0.36358366113E+02  0.37708590837E+02  0.51100000000E-03 0.  1.
<mgrwt>
<rscale>  0 0.20000776E+02</rscale>
<asrwt>0</asrwt>
<pdfrwt beam="2">  1        3 0.11364426E-01 0.20000776E+02</pdfrwt>
<pdfrwt beam="1">  1       -3 0.20828570E-03 0.20000776E+02</pdfrwt>
<totfact> 0.15098712E+06</totfact>
</mgrwt>
</event>
<event>
 5    1  0.4133473E-007  0.2000013E+02  0.7818608E-02  0.1745326E+00
         -3   -1    0    0    0  501 -0.00000000000E+00  0.00000000000E+00  0.19010307147E+01  0.19033041739E+01  0.93000000000E-01 0. -1.
          3   -1    0    0  501    0  0.00000000000E+00 -0.00000000000E+00 -0.52569951407E+02  0.52570033669E+02  0.93000000000E-01 0.  1.
       1023    2    1    2    0    0  0.00000000000E+00  0.00000000000E+00 -0.50668920692E+02  0.54473337842E+02  0.20000125290E+02 0.  0.
        -11    1    3    3    0    0  0.65655141579E+01 -0.75428938936E+01 -0.25319999007E+02  0.27223217562E+02  0.51100000000E-03 0.  1.
         11    1    3    3    0    0 -0.65655141579E+01  0.75428938936E+01 -0.25348921686E+02  0.27250120281E+02  0.51100000000E-03 0. -1.
<mgrwt>
<rscale>  0 0.20000125E+02</rscale>
<asrwt>0</asrwt>
<pdfrwt beam="2">  1        3 0.80878650E-02 0.20000125E+02</pdfrwt>
<pdfrwt beam="1">  1       -3 0.29264751E-03 0.20000125E+02</pdfrwt>
<totfact> 0.15995011E+06</totfact>
</mgrwt>
</event>
<event>
 5    1  0.4133473E-007  0.2000068E+02  0.7818608E-02  0.1745314E+00
         -3   -1    0    0    0  501 -0.00000000000E+00  0.00000000000E+00  0.58084960401E+02  0.58085034852E+02  0.93000000000E-01 0.  1.
          3   -1    0    0  501    0  0.00000000000E+00 -0.00000000000E+00 -0.17204022005E+01  0.17229140232E+01  0.93000000000E-01 0. -1.
       1023    2    1    2    0    0  0.00000000000E+00  0.00000000000E+00  0.56364558201E+02  0.59807948875E+02  0.20000683177E+02 0.  0.
        -11    1    3    3    0    0 -0.81465804969E+01  0.57997619708E+01  0.28341044200E+02  0.30053598774E+02  0.51100000000E-03 0.  1.
         11    1    3    3    0    0  0.81465804969E+01 -0.57997619708E+01  0.28023514001E+02  0.29754350101E+02  0.51100000000E-03 0. -1.
<mgrwt>
<rscale>  0 0.20000683E+02</rscale>
<asrwt>0</asrwt>
<pdfrwt beam="2">  1        3 0.26487621E-03 0.20000683E+02</pdfrwt>
<pdfrwt beam="1">  1       -3 0.89363467E-02 0.20000683E+02</pdfrwt>
<totfact> 0.15753825E+06</totfact>
</mgrwt>
</event>
<event>
 5    1  0.4364944E-007  0.2000134E+02  0.7818608E-02  0.1745301E+00
          3   -1    0    0  501    0  0.00000000000E+00  0.00000000000E+00  0.40609540793E+01  0.40620188372E+01  0.93000000000E-01 0. -1.
         -3   -1    0    0    0  501 -0.00000000000E+00 -0.00000000000E+00 -0.24623668377E+02  0.24623844000E+02  0.93000000000E-01 0.  1.
       1023    2    1    2    0    0  0.00000000000E+00  0.00000000000E+00 -0.20562714298E+02  0.28685862837E+02  0.20001337641E+02 0.  0.
        -11    1    3    3    0    0  0.57730376478E+01 -0.81660861437E+01 -0.10311781329E+02  0.14364740201E+02  0.51100000000E-03 0. -1.
         11    1    3    3    0    0 -0.57730376478E+01  0.81660861437E+01 -0.10250932968E+02  0.14321122636E+02  0.51100000000E-03 0.  1.
<mgrwt>
<rscale>  0 0.20001338E+02</rscale>
<asrwt>0</asrwt>
<pdfrwt beam="1">  1        3 0.62485760E-03 0.20001338E+02</pdfrwt>
<pdfrwt beam="2">  1       -3 0.37883520E-02 0.20001338E+02</pdfrwt>
<totfact> 0.17342727E+06</totfact>
</mgrwt>
</event>
<event>
 5    1  0.4133473E-007  0.2000018E+02  0.7818608E-02  0.1745325E+00
          3   -1    0    0  501    0  0.00000000000E+00  0.00000000000E+00  0.90392788567E+02  0.90392836408E+02  0.93000000000E-01 0. -1.
         -3   -1    0    0    0  501 -0.00000000000E+00 -0.00000000000E+00 -0.11043000968E+01  0.11082092328E+01  0.93000000000E-01 0.  1.
       1023    2    1    2    0    0  0.00000000000E+00  0.00000000000E+00  0.89288488470E+02  0.91501045641E+02  0.20000179502E+02 0.  0.
        -11    1    3    3    0    0  0.84381550602E+01  0.53664473270E+01  0.44754142831E+02  0.45857763994E+02  0.51100000000E-03 0.  1.
         11    1    3    3    0    0 -0.84381550602E+01 -0.53664473270E+01  0.44534345639E+02  0.45643281647E+02  0.51100000000E-03 0. -1.
<mgrwt>
<rscale>  0 0.20000180E+02</rscale>
<asrwt>0</asrwt>
<pdfrwt beam="1">  1        3 0.13906887E-01 0.20000180E+02</pdfrwt>
<pdfrwt beam="2">  1       -3 0.17019671E-03 0.20000180E+02</pdfrwt>
<totfact> 0.14479085E+06</totfact>
</mgrwt>
</event>
<event>
 5    1  0.4326629E-007  0.2000186E+02  0.7818608E-02  0.1745291E+00
          3   -1    0    0  501    0  0.00000000000E+00  0.00000000000E+00  0.59957153613E+01  0.59964365830E+01  0.93000000000E-01 0.  1.
         -3   -1    0    0    0  501 -0.00000000000E+00 -0.00000000000E+00 -0.16679830487E+02  0.16680089750E+02  0.93000000000E-01 0. -1.
       1023    2    1    2    0    0  0.00000000000E+00  0.00000000000E+00 -0.10684115126E+02  0.22676526333E+02  0.20001863176E+02 0.  0.
        -11    1    3    3    0    0 -0.21964485224E+01 -0.97566195154E+01 -0.52840060678E+01  0.11310912026E+02  0.51100000000E-03 0.  1.
         11    1    3    3    0    0  0.21964485224E+01  0.97566195154E+01 -0.54001090581E+01  0.11365614307E+02  0.51100000000E-03 0. -1.
<mgrwt>
<rscale>  0 0.20001863E+02</rscale>
<asrwt>0</asrwt>
<pdfrwt beam="1">  1        3 0.92249318E-03 0.20001863E+02</pdfrwt>
<pdfrwt beam="2">  1       -3 0.25662032E-02 0.20001863E+02</pdfrwt>
<totfact> 0.17709594E+06</totfact>
</mgrwt>
</event>
<event>
 4    1  0.4133473E-007  0.2001338E+02  0.7818608E-02  0.1745062E+00
          3   -1    0    0  501    0  0.00000000000E+00  0.00000000000E+00  0.97547902100E+01  0.97552335206E+01  0.93000000000E-01 0.  1.
         -3   -1    0    0    0  501 -0.00000000000E+00 -0.00000000000E+00 -0.10264203963E+02  0.10264625273E+02  0.93000000000E-01 0. -1.
        -11    1    1    2    0    0  0.52098228700E+01  0.85408163029E+01 -0.40130488753E-01  0.10004469410E+02  0.51100000000E-03 0.  1.
         11    1    1    2    0    0 -0.52098228700E+01 -0.85408163029E+01 -0.46928326387E+00  0.10015389383E+02  0.51100000000E-03 0. -1.
<mgrwt>
<rscale>  0 0.20013377E+02</rscale>
<asrwt>0</asrwt>
<pdfrwt beam="1">  1        3 0.15008035E-02 0.20013377E+02</pdfrwt>
<pdfrwt beam="2">  1       -3 0.15791748E-02 0.20013377E+02</pdfrwt>
<totfact> 0.17858600E+06</totfact>
</mgrwt>
</event>
<event>
 5    1  0.4133473E-007  0.2000048E+02  0.7818608E-02  0.1745319E+00
         -3   -1    0    0    0  501 -0.00000000000E+00  0.00000000000E+00  0.14219250097E+02  0.14219554223E+02  0.93000000000E-01 0.  1.
          3   -1    0    0  501    0  0.00000000000E+00 -0.00000000000E+00 -0.70323711318E+01  0.70329860469E+01  0.93000000000E-01 0. -1.
       1023    2    1    2    0    0  0.00000000000E+00  0.00000000000E+00  0.71868789647E+01  0.21252540270E+02  0.20000480961E+02 0.  0.
        -11    1    3    3    0    0 -0.55098713585E+01  0.83452654503E+01  0.35385163920E+01  0.10607697033E+02  0.51100000000E-03 0.  1.
         11    1    3    3    0    0  0.55098713585E+01 -0.83452654503E+01  0.36483625728E+01  0.10644843237E+02  0.51100000000E-03 0. -1.
<mgrwt>
<rscale>  0 0.20000481E+02</rscale>
<asrwt>0</asrwt>
<pdfrwt beam="2">  1        3 0.10819739E-02 0.20000481E+02</pdfrwt>
<pdfrwt beam="1">  1       -3 0.21876476E-02 0.20000481E+02</pdfrwt>
<totfact> 0.17803345E+06</totfact>
</mgrwt>
</event>
<event>
 5    1  0.4250234E-007  0.2000175E+02  0.7818608E-02  0.1745293E+00
          3   -1    0    0  501    0  0.00000000000E+00  0.00000000000E+00  0.29372253689E+01  0.29386973079E+01  0.93000000000E-01 0.  1.
         -3   -1    0    0    0  501 -0.00000000000E+00 -0.00000000000E+00 -0.34041640453E+02  0.34041767488E+02  0.93000000000E-01 0. -1.
       1023    2    1    2    0    0  0.00000000000E+00  0.00000000000E+00 -0.31104415084E+02  0.36980464796E+02  0.20001753394E+02 0.  0.
        -11    1    3    3    0    0 -0.38051243555E+00 -0.99933477027E+01 -0.15412054307E+02  0.18372348959E+02  0.51100000000E-03 0. -1.
         11    1    3    3    0    0  0.38051243555E+00  0.99933477027E+01 -0.15692360776E+02  0.18608115837E+02  0.51100000000E-03 0.  1.
<mgrwt>
<rscale>  0 0.20001753E+02</rscale>
<asrwt>0</asrwt>
<pdfrwt beam="1">  1        3 0.45200385E-03 0.20001753E+02</pdfrwt>
<pdfrwt beam="2">  1       -3 0.52372982E-02 0.20001753E+02</pdfrwt>
<totfact> 0.16872391E+06</totfact>
</mgrwt>
</event>
<event>
 5    1  0.4133473E-007  0.2000382E+02  0.7818608E-02  0.1745252E+00
          3   -1    0    0  501    0  0.00000000000E+00  0.00000000000E+00  0.58678989648E+01  0.58686358944E+01  0.93000000000E-01 0.  1.
         -3   -1    0    0    0  501 -0.00000000000E+00 -0.00000000000E+00 -0.17046446929E+02  0.17046700616E+02  0.93000000000E-01 0. -1.
       1023    2    1    2    0    0  0.00000000000E+00  0.00000000000E+00 -0.11178547964E+02  0.22915336510E+02  0.20003817456E+02 0.  0.
        -11    1    3    3    0    0 -0.49268268778E+01  0.87042290266E+01 -0.55539303537E+01  0.11440426944E+02  0.51100000000E-03 0. -1.
         11    1    3    3    0    0  0.49268268778E+01 -0.87042290266E+01 -0.56246176101E+01  0.11474909566E+02  0.51100000000E-03 0.  1.
<mgrwt>
<rscale>  0 0.20003817E+02</rscale>
<asrwt>0</asrwt>
<pdfrwt beam="1">  1        3 0.90282989E-03 0.20003817E+02</pdfrwt>
<pdfrwt beam="2">  1       -3 0.26226065E-02 0.20003817E+02</pdfrwt>
<totfact> 0.17690745E+06</totfact>
</mgrwt>
</event>
<event>
 5    1  0.4133473E-007  0.2000010E+02  0.7818608E-02  0.1745326E+00
         -3   -1    0    0    0  501 -0.00000000000E+00  0.00000000000E+00  0.20869547844E+02  0.20869755059E+02  0.93000000000E-01 0.  1.
          3   -1    0    0  501    0  0.00000000000E+00 -0.00000000000E+00 -0.47910344856E+01  0.47919370240E+01  0.93000000000E-01 0. -1.
       1023    2    1    2    0    0  0.00000000000E+00  0.00000000000E+00  0.16078513359E+02  0.25661692083E+02  0.20000096218E+02 0.  0.
        -11    1    3    3    0    0  0.17291110298E+01 -0.98493807102E+01  0.80763684084E+01  0.12854098656E+02  0.51100000000E-03 0.  1.
         11    1    3    3    0    0 -0.17291110298E+01  0.98493807102E+01  0.80021449505E+01  0.12807593427E+02  0.51100000000E-03 0. -1.
<mgrwt>
<rscale>  0 0.20000096E+02</rscale>
<asrwt>0</asrwt>
<pdfrwt beam="2">  1        3 0.73716760E-03 0.20000096E+02</pdfrwt>
<pdfrwt beam="1">  1       -3 0.32107850E-02 0.20000096E+02</pdfrwt>
<totfact> 0.17526967E+06</totfact>
</mgrwt>
</event>
<event>
 5    1  0.4133473E-007  0.2001098E+02  0.7818608E-02  0.1745110E+00
          3   -1    0    0  501    0  0.00000000000E+00  0.00000000000E+00  0.19607494954E+01  0.19629537905E+01  0.93000000000E-01 0.  1.
         -3   -1    0    0    0  501 -0.00000000000E+00 -0.00000000000E+00 -0.51025976278E+02  0.51026061029E+02  0.93000000000E-01 0. -1.
       1023    2    1    2    0    0  0.00000000000E+00  0.00000000000E+00 -0.49065226783E+02  0.52989014820E+02  0.20010977295E+02 0.  0.
        -11    1    3    3    0    0 -0.94938999587E+01 -0.31498066579E+01 -0.23915088100E+02  0.25922709301E+02  0.51100000000E-03 0.  1.
         11    1    3    3    0    0  0.94938999587E+01  0.31498066579E+01 -0.25150138683E+02  0.27066305519E+02  0.51100000000E-03 0. -1.
<mgrwt>
<rscale>  0 0.20010977E+02</rscale>
<asrwt>0</asrwt>
<pdfrwt beam="1">  1        3 0.30182989E-03 0.20010977E+02</pdfrwt>
<pdfrwt beam="2">  1       -3 0.78503253E-02 0.20010977E+02</pdfrwt>
<totfact> 0.16048398E+06</totfact>
</mgrwt>
</event>
<event>
 5    1  0.4133473E-007  0.2000007E+02  0.7818608E-02  0.1745327E+00
          3   -1    0    0  501    0  0.00000000000E+00  0.00000000000E+00  0.19484981490E+02  0.19485203429E+02  0.93000000000E-01 0.  1.
         -3   -1    0    0    0  501 -0.00000000000E+00 -0.00000000000E+00 -0.51315206635E+01  0.51323633269E+01  0.93000000000E-01 0. -1.
       1023    2    1    2    0    0  0.00000000000E+00  0.00000000000E+00  0.14353460827E+02  0.24617566756E+02  0.20000068882E+02 0.  0.
        -11    1    3    3    0    0  0.97755657213E+01 -0.21068931510E+01  0.71740797578E+01  0.12307237893E+02  0.51100000000E-03 0.  1.
         11    1    3    3    0    0 -0.97755657213E+01  0.21068931510E+01  0.71793810688E+01  0.12310328863E+02  0.51100000000E-03 0. -1.
<mgrwt>
<rscale>  0 0.20000069E+02</rscale>
<asrwt>0</asrwt>
<pdfrwt beam="1">  1        3 0.29977713E-02 0.20000069E+02</pdfrwt>
<pdfrwt beam="2">  1       -3 0.78954663E-03 0.20000069E+02</pdfrwt>
<totfact> 0.17590198E+06</totfact>
</mgrwt>
</event>
<event>
 5    1  0.4238329E-007  0.2000117E+02  0.7818608E-02  0.1745305E+00
          3   -1    0    0  501    0  0.00000000000E+00  0.00000000000E+00  0.65657950346E+01  0.65664536423E+01  0.93000000000E-01 0. -1.
         -3   -1    0    0    0  501 -0.00000000000E+00 -0.00000000000E+00 -0.15230659400E+02  0.15230943332E+02  0.93000000000E-01 0.  1.
       1023    2    1    2    0    0  0.00000000000E+00  0.00000000000E+00 -0.86648643657E+01  0.21797396974E+02  0.20001165975E+02 0.  0.
        -11    1    3    3    0    0  0.66336355291E+01  0.74835843346E+01 -0.43869769931E+01  0.10920381048E+02  0.51100000000E-03 0.  1.
         11    1    3    3    0    0 -0.66336355291E+01 -0.74835843346E+01 -0.42778873726E+01  0.10877015926E+02  0.51100000000E-03 0. -1.
<mgrwt>
<rscale>  0 0.20001166E+02</rscale>
<asrwt>0</asrwt>
<pdfrwt beam="1">  1        3 0.10101948E-02 0.20001166E+02</pdfrwt>
<pdfrwt beam="2">  1       -3 0.23432509E-02 0.20001166E+02</pdfrwt>
<totfact> 0.17766967E+06</totfact>
</mgrwt>
</event>
<event>
 5    1  0.4133473E-007  0.2000234E+02  0.7818608E-02  0.1745282E+00
          3   -1    0    0  501    0  0.00000000000E+00  0.00000000000E+00  0.27981983193E+01  0.27997433515E+01  0.93000000000E-01 0.  1.
         -3   -1    0    0    0  501 -0.00000000000E+00 -0.00000000000E+00 -0.35734177758E+02  0.35734298777E+02  0.93000000000E-01 0. -1.
       1023    2    1    2    0    0  0.00000000000E+00  0.00000000000E+00 -0.32935979439E+02  0.38534042128E+02  0.20002341391E+02 0.  0.
        -11    1    3    3    0    0 -0.52159507887E+01 -0.85333031716E+01 -0.16473887420E+02  0.19272061971E+02  0.51100000000E-03 0. -1.
         11    1    3    3    0    0  0.52159507887E+01  0.85333031716E+01 -0.16462092019E+02  0.19261980157E+02  0.51100000000E-03 0.  1.
<mgrwt>
<rscale>  0 0.20002341E+02</rscale>
<asrwt>0</asrwt>
<pdfrwt beam="1">  1        3 0.43062023E-03 0.20002341E+02</pdfrwt>
<pdfrwt beam="2">  1       -3 0.54976936E-02 0.20002341E+02</pdfrwt>
<totfact> 0.16787640E+06</totfact>
</mgrwt>
</event>
<event>
 5    1  0.4133473E-007  0.2000090E+02  0.7818608E-02  0.1745310E+00
          3   -1    0    0  501    0  0.00000000000E+00  0.00000000000E+00  0.16222618812E+01  0.16249254171E+01  0.93000000000E-01 0. -1.
         -3   -1    0    0    0  501 -0.00000000000E+00 -0.00000000000E+00 -0.61594595786E+02  0.61594665995E+02  0.93000000000E-01 0.  1.
       1023    2    1    2    0    0  0.00000000000E+00  0.00000000000E+00 -0.59972333905E+02  0.63219591412E+02  0.20000897588E+02 0.  0.
        -11    1    3    3    0    0 -0.53429316514E+01  0.84534793396E+01 -0.29899936717E+02  0.31527994663E+02  0.51100000000E-03 0. -1.
         11    1    3    3    0    0  0.53429316514E+01 -0.84534793396E+01 -0.30072397188E+02  0.31691596749E+02  0.51100000000E-03 0.  1.
<mgrwt>
<rscale>  0 0.20000898E+02</rscale>
<asrwt>0</asrwt>
<pdfrwt beam="1">  1        3 0.24978909E-03 0.20000898E+02</pdfrwt>
<pdfrwt beam="2">  1       -3 0.94763001E-02 0.20000898E+02</pdfrwt>
<totfact> 0.15602886E+06</totfact>
</mgrwt>
</event>
<event>
 5    1  0.4133473E-007  0.2000493E+02  0.7818608E-02  0.1745230E+00
         -3   -1    0    0    0  501 -0.00000000000E+00  0.00000000000E+00  0.24498183550E+01  0.24515829524E+01  0.93000000000E-01 0. -1.
          3   -1    0    0  501    0  0.00000000000E+00 -0.00000000000E+00 -0.40822953995E+02  0.40823059928E+02  0.93000000000E-01 0.  1.
       1023    2    1    2    0    0  0.00000000000E+00  0.00000000000E+00 -0.38373135640E+02  0.43274642880E+02  0.20004928832E+02 0.  0.
        -11    1    3    3    0    0  0.96280214434E+01  0.27072031087E+01 -0.19504112936E+02  0.21918899773E+02  0.51100000000E-03 0.  1.
         11    1    3    3    0    0 -0.96280214434E+01 -0.27072031087E+01 -0.18869022704E+02  0.21355743107E+02  0.51100000000E-03 0. -1.
<mgrwt>
<rscale>  0 0.20004929E+02</rscale>
<asrwt>0</asrwt>
<pdfrwt beam="2">  1        3 0.62805979E-02 0.20004929E+02</pdfrwt>
<pdfrwt beam="1">  1       -3 0.37703905E-03 0.20004929E+02</pdfrwt>
<totfact> 0.16532916E+06</totfact>
</mgrwt>
</event>
<event>
 5    1  0.4133473E-007  0.2000226E+02  0.7818608E-02  0.1745283E+00
         -3   -1    0    0    0  501 -0.00000000000E+00  0.00000000000E+00  0.35931676629E+01  0.35943709955E+01  0.93000000000E-01 0.  1.
          3   -1    0    0  501    0  0.00000000000E+00 -0.00000000000E+00 -0.27830942552E+02  0.27831097936E+02  0.93000000000E-01 0. -1.
       1023    2    1    2    0    0  0.00000000000E+00  0.00000000000E+00 -0.24237774889E+02  0.31425468931E+02  0.20002259022E+02 0.  0.
        -11    1    3    3    0    0  0.75956770117E+01 -0.65052375650E+01 -0.12277297210E+02  0.15834912443E+02  0.51100000000E-03 0.  1.
         11    1    3    3    0    0 -0.75956770117E+01  0.65052375650E+01 -0.11960477679E+02  0.15590556488E+02  0.51100000000E-03 0. -1.
<mgrwt>
<rscale>  0 0.20002259E+02</rscale>
<asrwt>0</asrwt>
<pdfrwt beam="2">  1        3 0.42817879E-02 0.20002259E+02</pdfrwt>
<pdfrwt beam="1">  1       -3 0.55289956E-03 0.20002259E+02</pdfrwt>
<totfact> 0.17179678E+06</totfact>
</mgrwt>
</event>
<event>
 5    1  0.4235488E-007  0.2000140E+02  0.7818608E-02  0.1745300E+00
         -3   -1    0    0    0  501 -0.00000000000E+00  0.00000000000E+00  0.60676262282E+01  0.60683389033E+01  0.93000000000E-01 0.  1.
          3   -1    0    0  501    0  0.00000000000E+00 -0.00000000000E+00 -0.16481401925E+02  0.16481664310E+02  0.93000000000E-01 0. -1.
       1023    2    1    2    0    0  0.00000000000E+00  0.00000000000E+00 -0.10413775697E+02  0.22550003213E+02  0.20001397967E+02 0.  0.
        -11    1    3    3    0    0  0.16177255629E+01  0.98686346118E+01 -0.53011796479E+01  0.11318546330E+02  0.51100000000E-03 0. -1.
         11    1    3    3    0    0 -0.16177255629E+01 -0.98686346118E+01 -0.51125960491E+01  0.11231456883E+02  0.51100000000E-03 0.  1.
<mgrwt>
<rscale>  0 0.20001398E+02</rscale>
<asrwt>0</asrwt>
<pdfrwt beam="2">  1        3 0.25356753E-02 0.20001398E+02</pdfrwt>
<pdfrwt beam="1">  1       -3 0.93355597E-03 0.20001398E+02</pdfrwt>
<totfact> 0.17717633E+06</totfact>
</mgrwt>
</event>
<event>
 5    1  0.4216147E-007  0.2000096E+02  0.7818608E-02  0.1745309E+00
         -3   -1    0    0    0  501 -0.00000000000E+00  0.00000000000E+00  0.25002293777E+02  0.25002466740E+02  0.93000000000E-01 0.  1.
          3   -1    0    0  501    0  0.00000000000E+00 -0.00000000000E+00 -0.39992878656E+01  0.40003690370E+01  0.93000000000E-01 0. -1.
       1023    2    1    2    0    0  0.00000000000E+00  0.00000000000E+00  0.21003005911E+02  0.29002835777E+02  0.20000955623E+02 0.  0.
        -11    1    3    3    0    0 -0.85947824160E+01  0.51125960772E+01  0.10465026536E+02  0.14475002732E+02  0.51100000000E-03 0. -1.
         11    1    3    3    0    0  0.85947824160E+01 -0.51125960772E+01  0.10537979375E+02  0.14527833045E+02  0.51100000000E-03 0.  1.
<mgrwt>
<rscale>  0 0.20000956E+02</rscale>
<asrwt>0</asrwt>
<pdfrwt beam="2">  1        3 0.61537153E-03 0.20000956E+02</pdfrwt>
<pdfrwt beam="1">  1       -3 0.38466032E-02 0.20000956E+02</pdfrwt>
<totfact> 0.17324725E+06</totfact>
</mgrwt>
</event>
<event>
 5    1  0.4442582E-007  0.2000186E+02  0.7818608E-02  0.1745291E+00
          3   -1    0    0  501    0  0.00000000000E+00  0.00000000000E+00  0.12476005245E+02  0.12476351865E+02  0.93000000000E-01 0. -1.
         -3   -1    0    0    0  501 -0.00000000000E+00 -0.00000000000E+00 -0.80161508818E+01  0.80166903371E+01  0.93000000000E-01 0.  1.
       1023    2    1    2    0    0  0.00000000000E+00  0.00000000000E+00  0.44598543628E+01  0.20493042202E+02  0.20001861858E+02 0.  0.
        -11    1    3    3    0    0  0.39039981434E+01  0.92067860795E+01  0.21153426888E+01  0.10221584338E+02  0.51100000000E-03 0.  1.
         11    1    3    3    0    0 -0.39039981434E+01 -0.92067860795E+01  0.23445116741E+01  0.10271457865E+02  0.51100000000E-03 0. -1.
<mgrwt>
<rscale>  0 0.20001862E+02</rscale>
<asrwt>0</asrwt>
<pdfrwt beam="1">  1        3 0.19194536E-02 0.20001862E+02</pdfrwt>
<pdfrwt beam="2">  1       -3 0.12333221E-02 0.20001862E+02</pdfrwt>
<totfact> 0.17849599E+06</totfact>
</mgrwt>
</event>
<event>
 5    1  0.4188090E-007  0.2000057E+02  0.7818608E-02  0.1745317E+00
         -3   -1    0    0    0  501 -0.00000000000E+00  0.00000000000E+00  0.17123493023E+02  0.17123745569E+02  0.93000000000E-01 0.  1.
          3   -1    0    0  501    0  0.00000000000E+00 -0.00000000000E+00 -0.58395994643E+01  0.58403399647E+01  0.93000000000E-01 0. -1.
       1023    2    1    2    0    0  0.00000000000E+00  0.00000000000E+00  0.11283893559E+02  0.22964085534E+02  0.20000574255E+02 0.  0.
        -11    1    3    3    0    0 -0.42510169089E+01  0.90517461021E+01  0.56165278423E+01  0.11469552630E+02  0.51100000000E-03 0.  1.
         11    1    3    3    0    0  0.42510169089E+01 -0.90517461021E+01  0.56673657164E+01  0.11494532904E+02  0.51100000000E-03 0. -1.
<mgrwt>
<rscale>  0 0.20000574E+02</rscale>
<asrwt>0</asrwt>
<pdfrwt beam="2">  1        3 0.89847630E-03 0.20000574E+02</pdfrwt>
<pdfrwt beam="1">  1       -3 0.26344599E-02 0.20000574E+02</pdfrwt>
<totfact> 0.17693842E+06</totfact>
</mgrwt>
</event>
<event>
 5    1  0.4133473E-007  0.2001187E+02  0.7818608E-02  0.1745092E+00
         -3   -1    0    0    0  501 -0.00000000000E+00  0.00000000000E+00  0.81887651367E+01  0.81892932213E+01  0.93000000000E-01 0.  1.
          3   -1    0    0  501    0  0.00000000000E+00 -0.00000000000E+00 -0.12225248834E+02  0.12225602564E+02  0.93000000000E-01 0. -1.
       1023    2    1    2    0    0  0.00000000000E+00  0.00000000000E+00 -0.40364836977E+01  0.20414895786E+02  0.20011865713E+02 0.  0.
        -11    1    3    3    0    0  0.95061076661E+01 -0.31186931090E+01 -0.18526068768E+01  0.10174698136E+02  0.51100000000E-03 0. -1.
         11    1    3    3    0    0 -0.95061076661E+01  0.31186931090E+01 -0.21838768210E+01  0.10240197649E+02  0.51100000000E-03 0.  1.
<mgrwt>
<rscale>  0 0.20011866E+02</rscale>
<asrwt>0</asrwt>
<pdfrwt beam="2">  1        3 0.18808753E-02 0.20011866E+02</pdfrwt>
<pdfrwt beam="1">  1       -3 0.12598779E-02 0.20011866E+02</pdfrwt>
<totfact> 0.17835485E+06</totfact>
</mgrwt>
</event>
<event>
 5    1  0.4133473E-007  0.2000067E+02  0.7818608E-02  0.1745315E+00
         -3   -1    0    0    0  501 -0.00000000000E+00  0.00000000000E+00  0.99048260065E+02  0.99048303726E+02  0.93000000000E-01 0.  1.
          3   -1    0    0  501    0  0.00000000000E+00 -0.00000000000E+00 -0.10074906733E+01  0.10117739158E+01  0.93000000000E-01 0. -1.
       1023    2    1    2    0    0  0.00000000000E+00  0.00000000000E+00  0.98040769392E+02  0.10006007764E+03  0.20000666855E+02 0.  0.
        -11    1    3    3    0    0 -0.19073435511E+01  0.98166243624E+01  0.48765529068E+02  0.49780326424E+02  0.51100000000E-03 0. -1.
         11    1    3    3    0    0  0.19073435511E+01 -0.98166243624E+01  0.49275240323E+02  0.50279751217E+02  0.51100000000E-03 0.  1.
<mgrwt>
<rscale>  0 0.20000667E+02</rscale>
<asrwt>0</asrwt>
<pdfrwt beam="2">  1        3 0.15533144E-03 0.20000667E+02</pdfrwt>
<pdfrwt beam="1">  1       -3 0.15238523E-01 0.20000667E+02</pdfrwt>
<totfact> 0.14177771E+06</totfact>
</mgrwt>
</event>
<event>
 5    1  0.4133473E-007  0.2000010E+02  0.7818608E-02  0.1745326E+00
         -3   -1    0    0    0  501 -0.00000000000E+00  0.00000000000E+00  0.93632619835E+01  0.93637238303E+01  0.93000000000E-01 0.  1.
          3   -1    0    0  501    0  0.00000000000E+00 -0.00000000000E+00 -0.10679213137E+02  0.10679618075E+02  0.93000000000E-01 0. -1.
       1023    2    1    2    0    0  0.00000000000E+00  0.00000000000E+00 -0.13159511532E+01  0.20043341905E+02  0.20000095682E+02 0.  0.
        -11    1    3    3    0    0 -0.10259738310E+01  0.99472776951E+01 -0.65712930245E+00  0.10021615390E+02  0.51100000000E-03 0. -1.
         11    1    3    3    0    0  0.10259738310E+01 -0.99472776951E+01 -0.65882185073E+00  0.10021726515E+02  0.51100000000E-03 0.  1.
<mgrwt>
<rscale>  0 0.20000096E+02</rscale>
<asrwt>0</asrwt>
<pdfrwt beam="2">  1        3 0.16430226E-02 0.20000096E+02</pdfrwt>
<pdfrwt beam="1">  1       -3 0.14405685E-02 0.20000096E+02</pdfrwt>
<totfact> 0.17882568E+06</totfact>
</mgrwt>
</event>
<event>
 5    1  0.4133473E-007  0.2000423E+02  0.7818608E-02  0.1745244E+00
         -3   -1    0    0    0  501 -0.00000000000E+00  0.00000000000E+00  0.64427692117E+02  0.64427759238E+02  0.93000000000E-01 0.  1.
          3   -1    0    0  501    0  0.00000000000E+00 -0.00000000000E+00 -0.15513244812E+01  0.15541095991E+01  0.93000000000E-01 0. -1.
       1023    2    1    2    0    0  0.00000000000E+00  0.00000000000E+00  0.62876367636E+02  0.65981868838E+02  0.20004234758E+02 0.  0.
        -11    1    3    3    0    0 -0.43995187785E+01  0.89825704704E+01  0.31450553017E+02  0.33002721450E+02  0.51100000000E-03 0. -1.
         11    1    3    3    0    0  0.43995187785E+01 -0.89825704704E+01  0.31425814618E+02  0.32979147388E+02  0.51100000000E-03 0.  1.
<mgrwt>
<rscale>  0 0.20004235E+02</rscale>
<asrwt>0</asrwt>
<pdfrwt beam="2">  1        3 0.23888467E-03 0.20004235E+02</pdfrwt>
<pdfrwt beam="1">  1       -3 0.99121735E-02 0.20004235E+02</pdfrwt>
<totfact> 0.15478154E+06</totfact>
</mgrwt>
</event>
<event>
 5    1  0.4133473E-007  0.2000020E+02  0.7818608E-02  0.1745324E+00
          3   -1    0    0  501    0  0.00000000000E+00  0.00000000000E+00  0.46694305840E+02  0.46694398452E+02  0.93000000000E-01 0.  1.
         -3   -1    0    0    0  501 -0.00000000000E+00 -0.00000000000E+00 -0.21405276437E+01  0.21425469875E+01  0.93000000000E-01 0. -1.
       1023    2    1    2    0    0  0.00000000000E+00  0.00000000000E+00  0.44553778196E+02  0.48836945440E+02  0.20000202208E+02 0.  0.
        -11    1    3    3    0    0 -0.35362516351E+01  0.93539779174E+01  0.22292961837E+02  0.24433135824E+02  0.51100000000E-03 0.  1.
         11    1    3    3    0    0  0.35362516351E+01 -0.93539779174E+01  0.22260816359E+02  0.24403809616E+02  0.51100000000E-03 0. -1.
<mgrwt>
<rscale>  0 0.20000202E+02</rscale>
<asrwt>0</asrwt>
<pdfrwt beam="1">  1        3 0.71839020E-02 0.20000202E+02</pdfrwt>
<pdfrwt beam="2">  1       -3 0.32947440E-03 0.20000202E+02</pdfrwt>
<totfact> 0.16263269E+06</totfact>
</mgrwt>
</event>
<event>
 5    1  0.4133473E-007  0.2001174E+02  0.7818608E-02  0.1745095E+00
          3   -1    0    0  501    0  0.00000000000E+00  0.00000000000E+00  0.21068129510E+02  0.21068334771E+02  0.93000000000E-01 0. -1.
         -3   -1    0    0    0  501 -0.00000000000E+00 -0.00000000000E+00 -0.47513986948E+01  0.47523087606E+01  0.93000000000E-01 0.  1.
       1023    2    1    2    0    0  0.00000000000E+00  0.00000000000E+00  0.16316730815E+02  0.25820643532E+02  0.20011744749E+02 0.  0.
        -11    1    3    3    0    0  0.66359927691E+01  0.74813568748E+01  0.85870415021E+01  0.13181213250E+02  0.51100000000E-03 0.  1.
         11    1    3    3    0    0 -0.66359927691E+01 -0.74813568748E+01  0.77296893128E+01  0.12639430282E+02  0.51100000000E-03 0. -1.
<mgrwt>
<rscale>  0 0.20011745E+02</rscale>
<asrwt>0</asrwt>
<pdfrwt beam="1">  1        3 0.32413365E-02 0.20011745E+02</pdfrwt>
<pdfrwt beam="2">  1       -3 0.73107020E-03 0.20011745E+02</pdfrwt>
<totfact> 0.17493988E+06</totfact>
</mgrwt>
</event>
<event>
 5    1  0.4133473E-007  0.2000056E+02  0.7818608E-02  0.1745317E+00
          3   -1    0    0  501    0  0.00000000000E+00  0.00000000000E+00  0.22862680953E+01  0.22881588239E+01  0.93000000000E-01 0.  1.
         -3   -1    0    0    0  501 -0.00000000000E+00 -0.00000000000E+00 -0.43721844184E+02  0.43721943093E+02  0.93000000000E-01 0. -1.
       1023    2    1    2    0    0  0.00000000000E+00  0.00000000000E+00 -0.41435576088E+02  0.46010101917E+02  0.20000562808E+02 0.  0.
        -11    1    3    3    0    0 -0.12364969600E+01  0.99235410740E+01 -0.20731535582E+02  0.23017431656E+02  0.51100000000E-03 0.  1.
         11    1    3    3    0    0  0.12364969600E+01 -0.99235410740E+01 -0.20704040507E+02  0.22992670261E+02  0.51100000000E-03 0. -1.
<mgrwt>
<rscale>  0 0.20000563E+02</rscale>
<asrwt>0</asrwt>
<pdfrwt beam="1">  1        3 0.35188664E-03 0.20000563E+02</pdfrwt>
<pdfrwt beam="2">  1       -3 0.67265900E-02 0.20000563E+02</pdfrwt>
<totfact> 0.16404657E+06</totfact>
</mgrwt>
</event>
<event>
 5    1  0.4133473E-007  0.2000598E+02  0.7818608E-02  0.1745209E+00
          3   -1    0    0  501    0  0.00000000000E+00  0.00000000000E+00  0.11709322484E+03  0.11709326177E+03  0.93000000000E-01 0.  1.
         -3   -1    0    0    0  501 -0.00000000000E+00 -0.00000000000E+00 -0.85196323156E+00  0.85702412331E+00  0.93000000000E-01 0. -1.
       1023    2    1    2    0    0  0.00000000000E+00  0.00000000000E+00  0.11624126161E+03  0.11795028589E+03  0.20005975169E+02 0.  0.
        -11    1    3    3    0    0 -0.23512404680E+01 -0.97202739944E+01  0.59408310945E+02  0.60244165425E+02  0.51100000000E-03 0.  1.
         11    1    3    3    0    0  0.23512404680E+01  0.97202739944E+01  0.56832950662E+02  0.57706120468E+02  0.51100000000E-03 0. -1.
<mgrwt>
<rscale>  0 0.20005975E+02</rscale>
<asrwt>0</asrwt>
<pdfrwt beam="1">  1        3 0.18014733E-01 0.20005975E+02</pdfrwt>
<pdfrwt beam="2">  1       -3 0.13146342E-03 0.20005975E+02</pdfrwt>
<totfact> 0.13576604E+06</totfact>
</mgrwt>
</event>
<event>
 4    1  0.4133473E-007  0.2001448E+02  0.7818608E-02  0.1745040E+00
         -3   -1    0    0    0  501 -0.00000000000E+00  0.00000000000E+00  0.60194295877E+02  0.60194367719E+02  0.93000000000E-01 0.  1.
          3   -1    0    0  501    0  0.00000000000E+00 -0.00000000000E+00 -0.16623213370E+01  0.16649207872E+01  0.93000000000E-01 0. -1.
        -11    1    1    2    0    0  0.73057954699E+01 -0.68388655676E+01  0.29227784102E+02  0.30893495974E+02  0.51100000000E-03 0.  1.
         11    1    1    2    0    0 -0.73057954699E+01  0.68388655676E+01  0.29304190437E+02  0.30965792532E+02  0.51100000000E-03 0. -1.
<mgrwt>
<rscale>  0 0.20014483E+02</rscale>
<asrwt>0</asrwt>
<pdfrwt beam="2">  1        3 0.25594722E-03 0.20014483E+02</pdfrwt>
<pdfrwt beam="1">  1       -3 0.92608668E-02 0.20014483E+02</pdfrwt>
<totfact> 0.15639640E+06</totfact>
</mgrwt>
</event>
<event>
 5    1  0.4133473E-007  0.2000736E+02  0.7818608E-02  0.1745182E+00
         -3   -1    0    0    0  501 -0.00000000000E+00  0.00000000000E+00  0.44366711563E+02  0.44366809035E+02  0.93000000000E-01 0.  1.
          3   -1    0    0  501    0  0.00000000000E+00 -0.00000000000E+00 -0.22545437089E+01  0.22564610201E+01  0.93000000000E-01 0. -1.
       1023    2    1    2    0    0  0.00000000000E+00  0.00000000000E+00  0.42112167854E+02  0.46623270055E+02  0.20007364375E+02 0.  0.
        -11    1    3    3    0    0 -0.65299949150E+01 -0.75762302998E+01  0.20629199578E+02  0.22926054493E+02  0.51100000000E-03 0.  1.
         11    1    3    3    0    0  0.65299949150E+01  0.75762302998E+01  0.21482968276E+02  0.23697215562E+02  0.51100000000E-03 0. -1.
<mgrwt>
<rscale>  0 0.20007364E+02</rscale>
<asrwt>0</asrwt>
<pdfrwt beam="2">  1        3 0.34700787E-03 0.20007364E+02</pdfrwt>
<pdfrwt beam="1">  1       -3 0.68258028E-02 0.20007364E+02</pdfrwt>
<totfact> 0.16362147E+06</totfact>
</mgrwt>
</event>
<event>
 4    1  0.4133473E-007  0.2007794E+02  0.7818608E-02  0.1743783E+00
         -3   -1    0    0    0  501 -0.00000000000E+00  0.00000000000E+00  0.29946261744E+02  0.29946406152E+02  0.93000000000E-01 0.  1.
          3   -1    0    0  501    0  0.00000000000E+00 -0.00000000000E+00 -0.33645976330E+01  0.33658826825E+01  0.93000000000E-01 0. -1.
        -11    1    1    2    0    0  0.84968004864E+01  0.52783252825E+01  0.14703150189E+02  0.17783108897E+02  0.51100000000E-03 0.  1.
         11    1    1    2    0    0 -0.84968004864E+01 -0.52783252825E+01  0.11878513922E+02  0.15529179938E+02  0.51100000000E-03 0. -1.
<mgrwt>
<rscale>  0 0.20077941E+02</rscale>
<asrwt>0</asrwt>
<pdfrwt beam="2">  1        3 0.51774037E-03 0.20077941E+02</pdfrwt>
<pdfrwt beam="1">  1       -3 0.46072271E-02 0.20077941E+02</pdfrwt>
<totfact> 0.16935934E+06</totfact>
</mgrwt>
</event>
<event>
 5    1  0.4314716E-007  0.2000059E+02  0.7818608E-02  0.1745316E+00
         -3   -1    0    0    0  501 -0.00000000000E+00  0.00000000000E+00  0.20055172442E+02  0.20055388071E+02  0.93000000000E-01 0.  1.
          3   -1    0    0  501    0  0.00000000000E+00 -0.00000000000E+00 -0.49858619350E+01  0.49867292121E+01  0.93000000000E-01 0. -1.
       1023    2    1    2    0    0  0.00000000000E+00  0.00000000000E+00  0.15069310507E+02  0.25042117283E+02  0.20000587963E+02 0.  0.
        -11    1    3    3    0    0  0.57607512909E+01  0.81742411108E+01  0.74877021571E+01  0.12492804210E+02  0.51100000000E-03 0.  1.
         11    1    3    3    0    0 -0.57607512909E+01 -0.81742411108E+01  0.75816083498E+01  0.12549313073E+02  0.51100000000E-03 0. -1.
<mgrwt>
<rscale>  0 0.20000588E+02</rscale>
<asrwt>0</asrwt>
<pdfrwt beam="2">  1        3 0.76713899E-03 0.20000588E+02</pdfrwt>
<pdfrwt beam="1">  1       -3 0.30854944E-02 0.20000588E+02</pdfrwt>
<totfact> 0.17564122E+06</totfact>
</mgrwt>
</event>
<event>
 5    1  0.4133473E-007  0.2000025E+02  0.7818608E-02  0.1745323E+00
         -3   -1    0    0    0  501 -0.00000000000E+00  0.00000000000E+00  0.11786066122E+02  0.11786433032E+02  0.93000000000E-01 0.  1.
          3   -1    0    0  501    0  0.00000000000E+00 -0.00000000000E+00 -0.84840576418E+01  0.84845673472E+01  0.93000000000E-01 0. -1.
       1023    2    1    2    0    0  0.00000000000E+00  0.00000000000E+00  0.33020084797E+01  0.20271000379E+02  0.20000254908E+02 0.  0.
        -11    1    3    3    0    0 -0.98741113874E+01  0.15825322719E+01  0.16428485427E+01  0.10134171682E+02  0.51100000000E-03 0. -1.
         11    1    3    3    0    0  0.98741113874E+01 -0.15825322719E+01  0.16591599370E+01  0.10136828697E+02  0.51100000000E-03 0.  1.
<mgrwt>
<rscale>  0 0.20000255E+02</rscale>
<asrwt>0</asrwt>
<pdfrwt beam="2">  1        3 0.13053071E-02 0.20000255E+02</pdfrwt>
<pdfrwt beam="1">  1       -3 0.18133084E-02 0.20000255E+02</pdfrwt>
<totfact> 0.17867540E+06</totfact>
</mgrwt>
</event>
<event>
 5    1  0.4133473E-007  0.2000264E+02  0.7818608E-02  0.1745276E+00
         -3   -1    0    0    0  501 -0.00000000000E+00  0.00000000000E+00  0.91092279560E+02  0.91092327033E+02  0.93000000000E-01 0.  1.
          3   -1    0    0  501    0  0.00000000000E+00 -0.00000000000E+00 -0.10960605111E+01  0.10999989291E+01  0.93000000000E-01 0. -1.
       1023    2    1    2    0    0  0.00000000000E+00  0.00000000000E+00  0.89996219049E+02  0.92192325963E+02  0.20002637910E+02 0.  0.
        -11    1    3    3    0    0 -0.12795079968E+01 -0.99190553868E+01  0.45181319472E+02  0.46275008697E+02  0.51100000000E-03 0.  1.
         11    1    3    3    0    0  0.12795079968E+01  0.99190553868E+01  0.44814899577E+02  0.45917317265E+02  0.51100000000E-03 0. -1.
<mgrwt>
<rscale>  0 0.20002638E+02</rscale>
<asrwt>0</asrwt>
<pdfrwt beam="2">  1        3 0.16893125E-03 0.20002638E+02</pdfrwt>
<pdfrwt beam="1">  1       -3 0.14014508E-01 0.20002638E+02</pdfrwt>
<totfact> 0.14453099E+06</totfact>
</mgrwt>
</event>
<event>
 5    1  0.4133473E-007  0.2000045E+02  0.7818608E-02  0.1745319E+00
         -3   -1    0    0    0  501 -0.00000000000E+00  0.00000000000E+00  0.89511216590E+01  0.89516047698E+01  0.93000000000E-01 0.  1.
          3   -1    0    0  501    0  0.00000000000E+00 -0.00000000000E+00 -0.11171306810E+02  0.11171693911E+02  0.93000000000E-01 0. -1.
       1023    2    1    2    0    0  0.00000000000E+00  0.00000000000E+00 -0.22201851509E+01  0.20123298681E+02  0.20000448187E+02 0.  0.
        -11    1    3    3    0    0 -0.94759795756E+01  0.31948162844E+01 -0.10510666215E+01  0.10055137061E+02  0.51100000000E-03 0.  1.
         11    1    3    3    0    0  0.94759795756E+01 -0.31948162844E+01 -0.11691185294E+01  0.10068161620E+02  0.51100000000E-03 0. -1.
<mgrwt>
<rscale>  0 0.20000448E+02</rscale>
<asrwt>0</asrwt>
<pdfrwt beam="2">  1        3 0.17187295E-02 0.20000448E+02</pdfrwt>
<pdfrwt beam="1">  1       -3 0.13771626E-02 0.20000448E+02</pdfrwt>
<totfact> 0.17876638E+06</totfact>
</mgrwt>
</event>
<event>
 5    1  0.4133473E-007  0.2000519E+02  0.7818608E-02  0.1745225E+00
         -3   -1    0    0    0  501 -0.00000000000E+00  0.00000000000E+00  0.91408870671E+01  0.91413601490E+01  0.93000000000E-01 0.  1.
          3   -1    0    0  501    0  0.00000000000E+00 -0.00000000000E+00 -0.10944584304E+02  0.10944979423E+02  0.93000000000E-01 0. -1.
       1023    2    1    2    0    0  0.00000000000E+00  0.00000000000E+00 -0.18036972366E+01  0.20086339572E+02  0.20005192169E+02 0.  0.
        -11    1    3    3    0    0  0.72620825597E+01 -0.68770849701E+01 -0.10430868113E+01  0.10055852582E+02  0.51100000000E-03 0.  1.
         11    1    3    3    0    0 -0.72620825597E+01  0.68770849701E+01 -0.76061042523E+00  0.10030486991E+02  0.51100000000E-03 0. -1.
<mgrwt>
<rscale>  0 0.20005192E+02</rscale>
<asrwt>0</asrwt>
<pdfrwt beam="2">  1        3 0.16838490E-02 0.20005192E+02</pdfrwt>
<pdfrwt beam="1">  1       -3 0.14063571E-02 0.20005192E+02</pdfrwt>
<totfact> 0.17869933E+06</totfact>
</mgrwt>
</event>
<event>
 5    1  0.4340596E-007  0.2000145E+02  0.7818608E-02  0.1745299E+00
          3   -1    0    0  501    0  0.00000000000E+00  0.00000000000E+00  0.15495386068E+02  0.15495665149E+02  0.93000000000E-01 0. -1.
         -3   -1    0    0    0  501 -0.00000000000E+00 -0.00000000000E+00 -0.64538001300E+01  0.64544701655E+01  0.93000000000E-01 0.  1.
       1023    2    1    2    0    0  0.00000000000E+00  0.00000000000E+00  0.90415859382E+01  0.21950135314E+02  0.20001454048E+02 0.  0.
        -11    1    3    3    0    0 -0.74126875268E+01  0.67129906244E+01  0.44674659796E+01  0.10953101480E+02  0.51100000000E-03 0. -1.
         11    1    3    3    0    0  0.74126875268E+01 -0.67129906244E+01  0.45741199586E+01  0.10997033834E+02  0.51100000000E-03 0.  1.
<mgrwt>
<rscale>  0 0.20001454E+02</rscale>
<asrwt>0</asrwt>
<pdfrwt beam="1">  1        3 0.23839786E-02 0.20001454E+02</pdfrwt>
<pdfrwt beam="2">  1       -3 0.99296533E-03 0.20001454E+02</pdfrwt>
<totfact> 0.17755864E+06</totfact>
</mgrwt>
</event>
<event>
 5    1  0.4497153E-007  0.2000112E+02  0.7818608E-02  0.1745306E+00
         -3   -1    0    0    0  501 -0.00000000000E+00  0.00000000000E+00  0.87959465067E+01  0.87964381398E+01  0.93000000000E-01 0. -1.
          3   -1    0    0  501    0  0.00000000000E+00 -0.00000000000E+00 -0.11369142092E+02  0.11369522457E+02  0.93000000000E-01 0.  1.
       1023    2    1    2    0    0  0.00000000000E+00  0.00000000000E+00 -0.25731955851E+01  0.20165960597E+02  0.20001115751E+02 0.  0.
        -11    1    3    3    0    0 -0.76954931195E+01 -0.63863064653E+01 -0.12109263211E+01  0.10073324547E+02  0.51100000000E-03 0.  1.
         11    1    3    3    0    0  0.76954931195E+01  0.63863064653E+01 -0.13622692640E+01  0.10092636050E+02  0.51100000000E-03 0. -1.
<mgrwt>
<rscale>  0 0.20001116E+02</rscale>
<asrwt>0</asrwt>
<pdfrwt beam="2">  1        3 0.17491659E-02 0.20001116E+02</pdfrwt>
<pdfrwt beam="1">  1       -3 0.13532896E-02 0.20001116E+02</pdfrwt>
<totfact> 0.17872524E+06</totfact>
</mgrwt>
</event>
<event>
 5    1  0.4133473E-007  0.2000701E+02  0.7818608E-02  0.1745189E+00
          3   -1    0    0  501    0  0.00000000000E+00  0.00000000000E+00  0.73165938440E+01  0.73171848738E+01  0.93000000000E-01 0. -1.
         -3   -1    0    0    0  501 -0.00000000000E+00 -0.00000000000E+00 -0.13675844985E+02  0.13676161196E+02  0.93000000000E-01 0.  1.
       1023    2    1    2    0    0  0.00000000000E+00  0.00000000000E+00 -0.63592511415E+01  0.20993346070E+02  0.20007011374E+02 0.  0.
        -11    1    3    3    0    0 -0.98894732157E+01 -0.15028579563E+01 -0.30754155387E+01  0.10465105996E+02  0.51100000000E-03 0. -1.
         11    1    3    3    0    0  0.98894732157E+01  0.15028579563E+01 -0.32838356027E+01  0.10528240074E+02  0.51100000000E-03 0.  1.
<mgrwt>
<rscale>  0 0.20007011E+02</rscale>
<asrwt>0</asrwt>
<pdfrwt beam="1">  1        3 0.11256996E-02 0.20007011E+02</pdfrwt>
<pdfrwt beam="2">  1       -3 0.21040459E-02 0.20007011E+02</pdfrwt>
<totfact> 0.17807608E+06</totfact>
</mgrwt>
</event>
<event>
 5    1  0.4309674E-007  0.2000230E+02  0.7818608E-02  0.1745282E+00
         -3   -1    0    0    0  501 -0.00000000000E+00  0.00000000000E+00  0.79116593553E+01  0.79122059347E+01  0.93000000000E-01 0.  1.
          3   -1    0    0  501    0  0.00000000000E+00 -0.00000000000E+00 -0.12641325200E+02  0.12641667288E+02  0.93000000000E-01 0. -1.
       1023    2    1    2    0    0  0.00000000000E+00  0.00000000000E+00 -0.47296658447E+01  0.20553873222E+02  0.20002299004E+02 0.  0.
        -11    1    3    3    0    0  0.37089563978E+01 -0.92879598000E+01 -0.23862964947E+01  0.10281875609E+02  0.51100000000E-03 0. -1.
         11    1    3    3    0    0 -0.37089563978E+01  0.92879598000E+01 -0.23433693500E+01  0.10271997614E+02  0.51100000000E-03 0.  1.
<mgrwt>
<rscale>  0 0.20002299E+02</rscale>
<asrwt>0</asrwt>
<pdfrwt beam="2">  1        3 0.19448876E-02 0.20002299E+02</pdfrwt>
<pdfrwt beam="1">  1       -3 0.12172467E-02 0.20002299E+02</pdfrwt>
<totfact> 0.17844787E+06</totfact>
</mgrwt>
</event>
<event>
 5    1  0.4133473E-007  0.2000988E+02  0.7818608E-02  0.1745132E+00
         -3   -1    0    0    0  501 -0.00000000000E+00  0.00000000000E+00  0.18046327030E+01  0.18070274466E+01  0.93000000000E-01 0.  1.
          3   -1    0    0  501    0  0.00000000000E+00 -0.00000000000E+00 -0.55428480251E+02  0.55428558271E+02  0.93000000000E-01 0. -1.
       1023    2    1    2    0    0  0.00000000000E+00  0.00000000000E+00 -0.53623847548E+02  0.57235585717E+02  0.20009878723E+02 0.  0.
        -11    1    3    3    0    0 -0.69568096810E+01 -0.71903624233E+01 -0.26762492132E+02  0.28571480502E+02  0.51100000000E-03 0.  1.
         11    1    3    3    0    0  0.69568096810E+01  0.71903624233E+01 -0.26861355417E+02  0.28664105215E+02  0.51100000000E-03 0. -1.
<mgrwt>
<rscale>  0 0.20009879E+02</rscale>
<asrwt>0</asrwt>
<pdfrwt beam="2">  1        3 0.85276474E-02 0.20009879E+02</pdfrwt>
<pdfrwt beam="1">  1       -3 0.27782605E-03 0.20009879E+02</pdfrwt>
<totfact> 0.15851321E+06</totfact>
</mgrwt>
</event>
<event>
 4    1  0.4133473E-007  0.2004058E+02  0.7818608E-02  0.1744522E+00
         -3   -1    0    0    0  501 -0.00000000000E+00  0.00000000000E+00  0.52346297549E+02  0.52346380163E+02  0.93000000000E-01 0. -1.
          3   -1    0    0  501    0  0.00000000000E+00 -0.00000000000E+00 -0.19169026603E+01  0.19191573174E+01  0.93000000000E-01 0.  1.
        -11    1    1    2    0    0  0.43304920926E+01  0.90234379155E+01  0.26514936638E+02  0.28341091348E+02  0.51100000000E-03 0. -1.
         11    1    1    2    0    0 -0.43304920926E+01 -0.90234379155E+01  0.23914458251E+02  0.25924446132E+02  0.51100000000E-03 0.  1.
<mgrwt>
<rscale>  0 0.20040576E+02</rscale>
<asrwt>0</asrwt>
<pdfrwt beam="2">  1        3 0.29508793E-03 0.20040576E+02</pdfrwt>
<pdfrwt beam="1">  1       -3 0.80534554E-02 0.20040576E+02</pdfrwt>
<totfact> 0.15938008E+06</totfact>
</mgrwt>
</event>
<event>
 5    1  0.4133473E-007  0.2000041E+02  0.7818608E-02  0.1745320E+00
          3   -1    0    0  501    0  0.00000000000E+00  0.00000000000E+00  0.33227705126E+02  0.33227835273E+02  0.93000000000E-01 0.  1.
         -3   -1    0    0    0  501 -0.00000000000E+00 -0.00000000000E+00 -0.30088054541E+01  0.30102423923E+01  0.93000000000E-01 0. -1.
       1023    2    1    2    0    0  0.00000000000E+00  0.00000000000E+00  0.30218899672E+02  0.36238077666E+02  0.20000409383E+02 0.  0.
        -11    1    3    3    0    0 -0.19689515552E+01 -0.98044401567E+01  0.15079316058E+02  0.18093910303E+02  0.51100000000E-03 0. -1.
         11    1    3    3    0    0  0.19689515552E+01  0.98044401567E+01  0.15139583614E+02  0.18144167363E+02  0.51100000000E-03 0.  1.
<mgrwt>
<rscale>  0 0.20000409E+02</rscale>
<asrwt>0</asrwt>
<pdfrwt beam="1">  1        3 0.51120751E-02 0.20000409E+02</pdfrwt>
<pdfrwt beam="2">  1       -3 0.46301370E-03 0.20000409E+02</pdfrwt>
<totfact> 0.16913175E+06</totfact>
</mgrwt>
</event>
<event>
 4    1  0.4133473E-007  0.2003351E+02  0.7818608E-02  0.1744662E+00
         -3   -1    0    0    0  501 -0.00000000000E+00  0.00000000000E+00  0.23822278159E+01  0.23840424424E+01  0.93000000000E-01 0.  1.
          3   -1    0    0  501    0  0.00000000000E+00 -0.00000000000E+00 -0.42100398826E+02  0.42100501545E+02  0.93000000000E-01 0. -1.
        -11    1    1    2    0    0 -0.99821099645E+01  0.66200777944E+00 -0.20979533973E+02  0.23242668083E+02  0.51100000000E-03 0. -1.
         11    1    1    2    0    0  0.99821099645E+01 -0.66200777944E+00 -0.18738637038E+02  0.21241875904E+02  0.51100000000E-03 0.  1.
<mgrwt>
<rscale>  0 0.20033511E+02</rscale>
<asrwt>0</asrwt>
<pdfrwt beam="2">  1        3 0.64771313E-02 0.20033511E+02</pdfrwt>
<pdfrwt beam="1">  1       -3 0.36664411E-03 0.20033511E+02</pdfrwt>
<totfact> 0.16420810E+06</totfact>
</mgrwt>
</event>
<event>
 5    1  0.4156051E-007  0.2000116E+02  0.7818608E-02  0.1745305E+00
          3   -1    0    0  501    0  0.00000000000E+00  0.00000000000E+00  0.28294574142E+01  0.28309853866E+01  0.93000000000E-01 0. -1.
         -3   -1    0    0    0  501 -0.00000000000E+00 -0.00000000000E+00 -0.35335434806E+02  0.35335557190E+02  0.93000000000E-01 0.  1.
       1023    2    1    2    0    0  0.00000000000E+00  0.00000000000E+00 -0.32505977391E+02  0.38166542576E+02  0.20001160118E+02 0.  0.
        -11    1    3    3    0    0 -0.19822045117E+01  0.98021625068E+01 -0.16236275150E+02  0.19069036566E+02  0.51100000000E-03 0.  1.
         11    1    3    3    0    0  0.19822045117E+01 -0.98021625068E+01 -0.16269702241E+02  0.19097506010E+02  0.51100000000E-03 0. -1.
<mgrwt>
<rscale>  0 0.20001160E+02</rscale>
<asrwt>0</asrwt>
<pdfrwt beam="1">  1        3 0.43542812E-03 0.20001160E+02</pdfrwt>
<pdfrwt beam="2">  1       -3 0.54363474E-02 0.20001160E+02</pdfrwt>
<totfact> 0.16809452E+06</totfact>
</mgrwt>
</event>
<event>
 5    1  0.4133473E-007  0.2000164E+02  0.7818608E-02  0.1745296E+00
          3   -1    0    0  501    0  0.00000000000E+00  0.00000000000E+00  0.67714971490E+02  0.67715035353E+02  0.93000000000E-01 0. -1.
         -3   -1    0    0    0  501 -0.00000000000E+00 -0.00000000000E+00 -0.14754914557E+01  0.14784194384E+01  0.93000000000E-01 0.  1.
       1023    2    1    2    0    0  0.00000000000E+00  0.00000000000E+00  0.66239480034E+02  0.69193454791E+02  0.20001636703E+02 0.  0.
        -11    1    3    3    0    0 -0.16870306926E+01 -0.98574962538E+01  0.33147085508E+02  0.34622905466E+02  0.51100000000E-03 0.  1.
         11    1    3    3    0    0  0.16870306926E+01  0.98574962538E+01  0.33092394526E+02  0.34570549325E+02  0.51100000000E-03 0. -1.
<mgrwt>
<rscale>  0 0.20001637E+02</rscale>
<asrwt>0</asrwt>
<pdfrwt beam="1">  1        3 0.10417919E-01 0.20001637E+02</pdfrwt>
<pdfrwt beam="2">  1       -3 0.22722881E-03 0.20001637E+02</pdfrwt>
<totfact> 0.15343970E+06</totfact>
</mgrwt>
</event>
<event>
 4    1  0.4133473E-007  0.2001467E+02  0.7818608E-02  0.1745036E+00
         -3   -1    0    0    0  501 -0.00000000000E+00  0.00000000000E+00  0.16467220101E+02  0.16467482711E+02  0.93000000000E-01 0. -1.
          3   -1    0    0  501    0  0.00000000000E+00 -0.00000000000E+00 -0.60809177740E+01  0.60816288915E+01  0.93000000000E-01 0.  1.
        -11    1    1    2    0    0 -0.35742954585E+01 -0.93472562349E+01  0.51947865501E+01  0.11275309074E+02  0.51100000000E-03 0. -1.
         11    1    1    2    0    0  0.35742954585E+01  0.93472562349E+01  0.51915157768E+01  0.11273802529E+02  0.51100000000E-03 0.  1.
<mgrwt>
<rscale>  0 0.20014674E+02</rscale>
<asrwt>0</asrwt>
<pdfrwt beam="2">  1        3 0.93560071E-03 0.20014674E+02</pdfrwt>
<pdfrwt beam="1">  1       -3 0.25334934E-02 0.20014674E+02</pdfrwt>
<totfact> 0.17693267E+06</totfact>
</mgrwt>
</event>
<event>
 5    1  0.4298428E-007  0.2000107E+02  0.7818608E-02  0.1745307E+00
         -3   -1    0    0    0  501 -0.00000000000E+00  0.00000000000E+00  0.40153349632E+01  0.40164118149E+01  0.93000000000E-01 0.  1.
          3   -1    0    0  501    0  0.00000000000E+00 -0.00000000000E+00 -0.24902685450E+02  0.24902859106E+02  0.93000000000E-01 0. -1.
       1023    2    1    2    0    0  0.00000000000E+00  0.00000000000E+00 -0.20887350487E+02  0.28919270921E+02  0.20001070477E+02 0.  0.
        -11    1    3    3    0    0 -0.25570903498E+01  0.96678790695E+01 -0.10351002713E+02  0.14392701420E+02  0.51100000000E-03 0.  1.
         11    1    3    3    0    0  0.25570903498E+01 -0.96678790695E+01 -0.10536347775E+02  0.14526569500E+02  0.51100000000E-03 0. -1.
<mgrwt>
<rscale>  0 0.20001070E+02</rscale>
<asrwt>0</asrwt>
<pdfrwt beam="2">  1        3 0.38312785E-02 0.20001070E+02</pdfrwt>
<pdfrwt beam="1">  1       -3 0.61784005E-03 0.20001070E+02</pdfrwt>
<totfact> 0.17327842E+06</totfact>
</mgrwt>
</event>
<event>
 5    1  0.4133473E-007  0.2000027E+02  0.7818608E-02  0.1745323E+00
          3   -1    0    0  501    0  0.00000000000E+00  0.00000000000E+00  0.58126382710E+01  0.58133822057E+01  0.93000000000E-01 0.  1.
         -3   -1    0    0    0  501 -0.00000000000E+00 -0.00000000000E+00 -0.17202386123E+02  0.17202637511E+02  0.93000000000E-01 0. -1.
       1023    2    1    2    0    0  0.00000000000E+00  0.00000000000E+00 -0.11389747852E+02  0.23016019717E+02  0.20000270185E+02 0.  0.
        -11    1    3    3    0    0  0.51237929789E+01  0.85876838719E+01 -0.57336065328E+01  0.11527177144E+02  0.51100000000E-03 0. -1.
         11    1    3    3    0    0 -0.51237929789E+01 -0.85876838719E+01 -0.56561413193E+01  0.11488842573E+02  0.51100000000E-03 0.  1.
<mgrwt>
<rscale>  0 0.20000270E+02</rscale>
<asrwt>0</asrwt>
<pdfrwt beam="1">  1        3 0.89432861E-03 0.20000270E+02</pdfrwt>
<pdfrwt beam="2">  1       -3 0.26465975E-02 0.20000270E+02</pdfrwt>
<totfact> 0.17691141E+06</totfact>
</mgrwt>
</event>
<event>
 5    1  0.4136838E-007  0.2000089E+02  0.7818608E-02  0.1745310E+00
         -3   -1    0    0    0  501 -0.00000000000E+00  0.00000000000E+00  0.41029526056E+01  0.41040064674E+01  0.93000000000E-01 0.  1.
          3   -1    0    0  501    0  0.00000000000E+00 -0.00000000000E+00 -0.24370600484E+02  0.24370777931E+02  0.93000000000E-01 0. -1.
       1023    2    1    2    0    0  0.00000000000E+00  0.00000000000E+00 -0.20267647879E+02  0.28474784399E+02  0.20000894880E+02 0.  0.
        -11    1    3    3    0    0  0.17396418075E+01  0.98479521343E+01 -0.10104169004E+02  0.14216284549E+02  0.51100000000E-03 0. -1.
         11    1    3    3    0    0 -0.17396418075E+01 -0.98479521343E+01 -0.10163478875E+02  0.14258499849E+02  0.51100000000E-03 0.  1.
<mgrwt>
<rscale>  0 0.20000895E+02</rscale>
<asrwt>0</asrwt>
<pdfrwt beam="2">  1        3 0.37494178E-02 0.20000895E+02</pdfrwt>
<pdfrwt beam="1">  1       -3 0.63131821E-03 0.20000895E+02</pdfrwt>
<totfact> 0.17354495E+06</totfact>
</mgrwt>
</event>
<event>
 5    1  0.4133473E-007  0.2000231E+02  0.7818608E-02  0.1745282E+00
          3   -1    0    0  501    0  0.00000000000E+00  0.00000000000E+00  0.69948933063E+01  0.69955115158E+01  0.93000000000E-01 0.  1.
         -3   -1    0    0    0  501 -0.00000000000E+00 -0.00000000000E+00 -0.14298037989E+02  0.14298340440E+02  0.93000000000E-01 0. -1.
       1023    2    1    2    0    0  0.00000000000E+00  0.00000000000E+00 -0.73031446825E+01  0.21293851955E+02  0.20002305088E+02 0.  0.
        -11    1    3    3    0    0  0.66487321470E+01  0.74711045973E+01 -0.36547454372E+01  0.10648014253E+02  0.51100000000E-03 0. -1.
         11    1    3    3    0    0 -0.66487321470E+01 -0.74711045973E+01 -0.36483992453E+01  0.10645837702E+02  0.51100000000E-03 0.  1.
<mgrwt>
<rscale>  0 0.20002305E+02</rscale>
<asrwt>0</asrwt>
<pdfrwt beam="1">  1        3 0.10762082E-02 0.20002305E+02</pdfrwt>
<pdfrwt beam="2">  1       -3 0.21997690E-02 0.20002305E+02</pdfrwt>
<totfact> 0.17797178E+06</totfact>
</mgrwt>
</event>
<event>
 5    1  0.4133473E-007  0.2000015E+02  0.7818608E-02  0.1745325E+00
          3   -1    0    0  501    0  0.00000000000E+00  0.00000000000E+00  0.15105513712E+02  0.15105799996E+02  0.93000000000E-01 0. -1.
         -3   -1    0    0    0  501 -0.00000000000E+00 -0.00000000000E+00 -0.66195255604E+01  0.66201788227E+01  0.93000000000E-01 0.  1.
       1023    2    1    2    0    0  0.00000000000E+00  0.00000000000E+00  0.84859881520E+01  0.21725978819E+02  0.20000154017E+02 0.  0.
        -11    1    3    3    0    0 -0.91247652467E+01  0.40914724315E+01  0.42351266822E+01  0.10859916470E+02  0.51100000000E-03 0.  1.
         11    1    3    3    0    0  0.91247652467E+01 -0.40914724315E+01  0.42508614699E+01  0.10866062348E+02  0.51100000000E-03 0. -1.
<mgrwt>
<rscale>  0 0.20000154E+02</rscale>
<asrwt>0</asrwt>
<pdfrwt beam="1">  1        3 0.23239974E-02 0.20000154E+02</pdfrwt>
<pdfrwt beam="2">  1       -3 0.10184608E-02 0.20000154E+02</pdfrwt>
<totfact> 0.17772753E+06</totfact>
</mgrwt>
</event>
<event>
 5    1  0.4320468E-007  0.2000112E+02  0.7818608E-02  0.1745306E+00
         -3   -1    0    0    0  501 -0.00000000000E+00  0.00000000000E+00  0.39540770608E+01  0.39551705909E+01  0.93000000000E-01 0. -1.
          3   -1    0    0  501    0  0.00000000000E+00 -0.00000000000E+00 -0.25288518370E+02  0.25288689376E+02  0.93000000000E-01 0.  1.
       1023    2    1    2    0    0  0.00000000000E+00  0.00000000000E+00 -0.21334441309E+02  0.29243859967E+02  0.20001123963E+02 0.  0.
        -11    1    3    3    0    0 -0.75299408210E+01 -0.65805801900E+01 -0.10543197115E+02  0.14531450377E+02  0.51100000000E-03 0. -1.
         11    1    3    3    0    0  0.75299408210E+01  0.65805801900E+01 -0.10791244194E+02  0.14712409589E+02  0.51100000000E-03 0.  1.
<mgrwt>
<rscale>  0 0.20001124E+02</rscale>
<asrwt>0</asrwt>
<pdfrwt beam="2">  1        3 0.38906385E-02 0.20001124E+02</pdfrwt>
<pdfrwt beam="1">  1       -3 0.60841684E-03 0.20001124E+02</pdfrwt>
<totfact> 0.17308605E+06</totfact>
</mgrwt>
</event>
<event>
 5    1  0.4149153E-007  0.2000145E+02  0.7818608E-02  0.1745299E+00
         -3   -1    0    0    0  501 -0.00000000000E+00  0.00000000000E+00  0.15210470120E+02  0.15210754428E+02  0.93000000000E-01 0.  1.
          3   -1    0    0  501    0  0.00000000000E+00 -0.00000000000E+00 -0.65746957691E+01  0.65753534853E+01  0.93000000000E-01 0. -1.
       1023    2    1    2    0    0  0.00000000000E+00  0.00000000000E+00  0.86357743508E+01  0.21786107913E+02  0.20001447432E+02 0.  0.
        -11    1    3    3    0    0 -0.93095559634E+01  0.36532067074E+01  0.43471770241E+01  0.10904664132E+02  0.51100000000E-03 0.  1.
         11    1    3    3    0    0  0.93095559634E+01 -0.36532067074E+01  0.42885973268E+01  0.10881443782E+02  0.51100000000E-03 0. -1.
<mgrwt>
<rscale>  0 0.20001447E+02</rscale>
<asrwt>0</asrwt>
<pdfrwt beam="2">  1        3 0.10115641E-02 0.20001447E+02</pdfrwt>
<pdfrwt beam="1">  1       -3 0.23401447E-02 0.20001447E+02</pdfrwt>
<totfact> 0.17767152E+06</totfact>
</mgrwt>
</event>
<event>
 4    1  0.4133473E-007  0.2017475E+02  0.7818608E-02  0.1741875E+00
         -3   -1    0    0    0  501 -0.00000000000E+00  0.00000000000E+00  0.10516284438E+03  0.10516288550E+03  0.93000000000E-01 0.  1.
          3   -1    0    0  501    0  0.00000000000E+00 -0.00000000000E+00 -0.96531969187E+00  0.96978920777E+00  0.93000000000E-01 0. -1.
        -11    1    1    2    0    0  0.99179392809E+01  0.17772239337E+01  0.54627594546E+02  0.55549060573E+02  0.51100000000E-03 0.  1.
         11    1    1    2    0    0 -0.99179392809E+01 -0.17772239337E+01  0.49569930142E+02  0.50583614136E+02  0.51100000000E-03 0. -1.
<mgrwt>
<rscale>  0 0.20174749E+02</rscale>
<asrwt>0</asrwt>
<pdfrwt beam="2">  1        3 0.14885763E-03 0.20174749E+02</pdfrwt>
<pdfrwt beam="1">  1       -3 0.16179253E-01 0.20174749E+02</pdfrwt>
<totfact> 0.13713347E+06</totfact>
</mgrwt>
</event>
<event>
 5    1  0.4333873E-007  0.2000179E+02  0.7818608E-02  0.1745292E+00
          3   -1    0    0  501    0  0.00000000000E+00  0.00000000000E+00  0.10011753047E+02  0.10012184980E+02  0.93000000000E-01 0.  1.
         -3   -1    0    0    0  501 -0.00000000000E+00 -0.00000000000E+00 -0.99891846373E+01  0.99896175461E+01  0.93000000000E-01 0. -1.
       1023    2    1    2    0    0  0.00000000000E+00  0.00000000000E+00  0.22568409860E-01  0.20001802526E+02  0.20001789794E+02 0.  0.
        -11    1    3    3    0    0 -0.14072971005E+01  0.99006463362E+01 -0.10961035477E+00  0.10000764856E+02  0.51100000000E-03 0. -1.
         11    1    3    3    0    0  0.14072971005E+01 -0.99006463362E+01  0.13217876463E+00  0.10001037671E+02  0.51100000000E-03 0.  1.
<mgrwt>
<rscale>  0 0.20001790E+02</rscale>
<asrwt>0</asrwt>
<pdfrwt beam="1">  1        3 0.15403362E-02 0.20001790E+02</pdfrwt>
<pdfrwt beam="2">  1       -3 0.15368642E-02 0.20001790E+02</pdfrwt>
<totfact> 0.17882061E+06</totfact>
</mgrwt>
</event>
<event>
 5    1  0.4133473E-007  0.2000346E+02  0.7818608E-02  0.1745259E+00
         -3   -1    0    0    0  501 -0.00000000000E+00  0.00000000000E+00  0.12770844321E+01  0.12804661833E+01  0.93000000000E-01 0. -1.
          3   -1    0    0  501    0  0.00000000000E+00 -0.00000000000E+00 -0.78223461924E+02  0.78223517208E+02  0.93000000000E-01 0.  1.
       1023    2    1    2    0    0  0.00000000000E+00  0.00000000000E+00 -0.76946377492E+02  0.79503983392E+02  0.20003458850E+02 0.  0.
        -11    1    3    3    0    0  0.45995149625E+01  0.88809671350E+01 -0.38129535182E+02  0.39419393306E+02  0.51100000000E-03 0.  1.
         11    1    3    3    0    0 -0.45995149625E+01 -0.88809671350E+01 -0.38816842310E+02  0.40084590086E+02  0.51100000000E-03 0. -1.
<mgrwt>
<rscale>  0 0.20003459E+02</rscale>
<asrwt>0</asrwt>
<pdfrwt beam="2">  1        3 0.12034639E-01 0.20003459E+02</pdfrwt>
<pdfrwt beam="1">  1       -3 0.19673898E-03 0.20003459E+02</pdfrwt>
<totfact> 0.14925179E+06</totfact>
</mgrwt>
</event>
<event>
 5    1  0.4133473E-007  0.2000200E+02  0.7818608E-02  0.1745288E+00
         -3   -1    0    0    0  501 -0.00000000000E+00  0.00000000000E+00  0.10215054692E+01  0.10257301904E+01  0.93000000000E-01 0. -1.
          3   -1    0    0  501    0  0.00000000000E+00 -0.00000000000E+00 -0.97707969925E+02  0.97708014184E+02  0.93000000000E-01 0.  1.
       1023    2    1    2    0    0  0.00000000000E+00  0.00000000000E+00 -0.96686464456E+02  0.98733744375E+02  0.20001996633E+02 0.  0.
        -11    1    3    3    0    0 -0.42352195476E+01 -0.90593022512E+01 -0.47804187821E+02  0.48839005062E+02  0.51100000000E-03 0. -1.
         11    1    3    3    0    0  0.42352195476E+01  0.90593022512E+01 -0.48882276635E+02  0.49894739313E+02  0.51100000000E-03 0.  1.
<mgrwt>
<rscale>  0 0.20001997E+02</rscale>
<asrwt>0</asrwt>
<pdfrwt beam="2">  1        3 0.15032316E-01 0.20001997E+02</pdfrwt>
<pdfrwt beam="1">  1       -3 0.15748315E-03 0.20001997E+02</pdfrwt>
<totfact> 0.14218968E+06</totfact>
</mgrwt>
</event>
<event>
 5    1  0.4133473E-007  0.2000141E+02  0.7818608E-02  0.1745300E+00
          3   -1    0    0  501    0  0.00000000000E+00  0.00000000000E+00  0.35074540234E+02  0.35074663528E+02  0.93000000000E-01 0. -1.
         -3   -1    0    0    0  501 -0.00000000000E+00 -0.00000000000E+00 -0.28505850626E+01  0.28521017161E+01  0.93000000000E-01 0.  1.
       1023    2    1    2    0    0  0.00000000000E+00  0.00000000000E+00  0.32223955171E+02  0.37926765244E+02  0.20001405826E+02 0.  0.
        -11    1    3    3    0    0 -0.40524102672E+01 -0.91428478616E+01  0.16075874909E+02  0.18932708479E+02  0.51100000000E-03 0. -1.
         11    1    3    3    0    0  0.40524102672E+01  0.91428478616E+01  0.16148080262E+02  0.18994056766E+02  0.51100000000E-03 0.  1.
<mgrwt>
<rscale>  0 0.20001406E+02</rscale>
<asrwt>0</asrwt>
<pdfrwt beam="1">  1        3 0.53962091E-02 0.20001406E+02</pdfrwt>
<pdfrwt beam="2">  1       -3 0.43867771E-03 0.20001406E+02</pdfrwt>
<totfact> 0.16819743E+06</totfact>
</mgrwt>
</event>
<event>
 5    1  0.4172709E-007  0.2000150E+02  0.7818608E-02  0.1745298E+00
          3   -1    0    0  501    0  0.00000000000E+00  0.00000000000E+00  0.20250815575E+02  0.20251029121E+02  0.93000000000E-01 0. -1.
         -3   -1    0    0    0  501 -0.00000000000E+00 -0.00000000000E+00 -0.49381355504E+01  0.49390112082E+01  0.93000000000E-01 0.  1.
       1023    2    1    2    0    0  0.00000000000E+00  0.00000000000E+00  0.15312680025E+02  0.25190040329E+02  0.20001499000E+02 0.  0.
        -11    1    3    3    0    0 -0.25139812620E+01  0.96789735377E+01  0.75163259925E+01  0.12509907562E+02  0.51100000000E-03 0. -1.
         11    1    3    3    0    0  0.25139812620E+01 -0.96789735377E+01  0.77963540324E+01  0.12680132767E+02  0.51100000000E-03 0.  1.
<mgrwt>
<rscale>  0 0.20001499E+02</rscale>
<asrwt>0</asrwt>
<pdfrwt beam="1">  1        3 0.31155939E-02 0.20001499E+02</pdfrwt>
<pdfrwt beam="2">  1       -3 0.75979695E-03 0.20001499E+02</pdfrwt>
<totfact> 0.17552037E+06</totfact>
</mgrwt>
</event>
<event>
 5    1  0.4133473E-007  0.2000041E+02  0.7818608E-02  0.1745320E+00
          3   -1    0    0  501    0  0.00000000000E+00  0.00000000000E+00  0.62968951106E+02  0.62969019783E+02  0.93000000000E-01 0.  1.
         -3   -1    0    0    0  501 -0.00000000000E+00 -0.00000000000E+00 -0.15867176523E+01  0.15894407532E+01  0.93000000000E-01 0. -1.
       1023    2    1    2    0    0  0.00000000000E+00  0.00000000000E+00  0.61382233454E+02  0.64558460536E+02  0.20000406071E+02 0.  0.
        -11    1    3    3    0    0 -0.60923063030E+01 -0.79301711851E+01  0.30742089673E+02  0.32327695384E+02  0.51100000000E-03 0.  1.
         11    1    3    3    0    0  0.60923063030E+01  0.79301711851E+01  0.30640143781E+02  0.32230765152E+02  0.51100000000E-03 0. -1.
<mgrwt>
<rscale>  0 0.20000406E+02</rscale>
<asrwt>0</asrwt>
<pdfrwt beam="1">  1        3 0.96877449E-02 0.20000406E+02</pdfrwt>
<pdfrwt beam="2">  1       -3 0.24432518E-03 0.20000406E+02</pdfrwt>
<totfact> 0.15542815E+06</totfact>
</mgrwt>
</event>
<event>
 5    1  0.4133473E-007  0.2000085E+02  0.7818608E-02  0.1745311E+00
         -3   -1    0    0    0  501 -0.00000000000E+00  0.00000000000E+00  0.13041648589E+01  0.13074765693E+01  0.93000000000E-01 0.  1.
          3   -1    0    0  501    0  0.00000000000E+00 -0.00000000000E+00 -0.76583385321E+02  0.76583441789E+02  0.93000000000E-01 0. -1.
       1023    2    1    2    0    0  0.00000000000E+00  0.00000000000E+00 -0.75279220462E+02  0.77890918358E+02  0.20000853214E+02 0.  0.
        -11    1    3    3    0    0 -0.97622253001E+01  0.21691025895E+01 -0.37445546267E+02  0.38757902218E+02  0.51100000000E-03 0. -1.
         11    1    3    3    0    0  0.97622253001E+01 -0.21691025895E+01 -0.37833674195E+02  0.39133016140E+02  0.51100000000E-03 0.  1.
<mgrwt>
<rscale>  0 0.20000853E+02</rscale>
<asrwt>0</asrwt>
<pdfrwt beam="2">  1        3 0.11782315E-01 0.20000853E+02</pdfrwt>
<pdfrwt beam="1">  1       -3 0.20089990E-03 0.20000853E+02</pdfrwt>
<totfact> 0.14992566E+06</totfact>
</mgrwt>
</event>
<event>
 5    1  0.4133473E-007  0.2000231E+02  0.7818608E-02  0.1745282E+00
         -3   -1    0    0    0  501 -0.00000000000E+00  0.00000000000E+00  0.46446406910E+02  0.46446500017E+02  0.93000000000E-01 0. -1.
          3   -1    0    0  501    0  0.00000000000E+00 -0.00000000000E+00 -0.21524168848E+01  0.21544250848E+01  0.93000000000E-01 0.  1.
       1023    2    1    2    0    0  0.00000000000E+00  0.00000000000E+00  0.44293990025E+02  0.48600925102E+02  0.20002309077E+02 0.  0.
        -11    1    3    3    0    0 -0.65589616637E+01 -0.75499798212E+01  0.22073359220E+02  0.24233352242E+02  0.51100000000E-03 0.  1.
         11    1    3    3    0    0  0.65589616637E+01  0.75499798212E+01  0.22220630805E+02  0.24367572859E+02  0.51100000000E-03 0. -1.
<mgrwt>
<rscale>  0 0.20002309E+02</rscale>
<asrwt>0</asrwt>
<pdfrwt beam="2">  1        3 0.33130272E-03 0.20002309E+02</pdfrwt>
<pdfrwt beam="1">  1       -3 0.71457623E-02 0.20002309E+02</pdfrwt>
<totfact> 0.16273635E+06</totfact>
</mgrwt>
</event>
<event>
 4    1  0.4133473E-007  0.2006324E+02  0.7818608E-02  0.1744073E+00
          3   -1    0    0  501    0  0.00000000000E+00  0.00000000000E+00  0.21779649857E+01  0.21799496506E+01  0.93000000000E-01 0.  1.
         -3   -1    0    0    0  501 -0.00000000000E+00 -0.00000000000E+00 -0.46182189605E+02  0.46182283245E+02  0.93000000000E-01 0. -1.
        -11    1    1    2    0    0 -0.62207744592E+01 -0.78569708401E+01 -0.23089295438E+02  0.25170331538E+02  0.51100000000E-03 0.  1.
         11    1    1    2    0    0  0.62207744592E+01  0.78569708401E+01 -0.20914929182E+02  0.23191901358E+02  0.51100000000E-03 0. -1.
<mgrwt>
<rscale>  0 0.20063245E+02</rscale>
<asrwt>0</asrwt>
<pdfrwt beam="1">  1        3 0.33523144E-03 0.20063245E+02</pdfrwt>
<pdfrwt beam="2">  1       -3 0.71051114E-02 0.20063245E+02</pdfrwt>
<totfact> 0.16179182E+06</totfact>
</mgrwt>
</event>
<event>
 5    1  0.4133473E-007  0.2000062E+02  0.7818608E-02  0.1745316E+00
         -3   -1    0    0    0  501 -0.00000000000E+00  0.00000000000E+00  0.34992003822E+02  0.34992127407E+02  0.93000000000E-01 0.  1.
          3   -1    0    0  501    0  0.00000000000E+00 -0.00000000000E+00 -0.28570880902E+01  0.28586012935E+01  0.93000000000E-01 0. -1.
       1023    2    1    2    0    0  0.00000000000E+00  0.00000000000E+00  0.32134915731E+02  0.37850728700E+02  0.20000621342E+02 0.  0.
        -11    1    3    3    0    0 -0.84676659458E+01  0.53199666834E+01  0.16167619371E+02  0.19010400534E+02  0.51100000000E-03 0. -1.
         11    1    3    3    0    0  0.84676659458E+01 -0.53199666834E+01  0.15967296361E+02  0.18840328166E+02  0.51100000000E-03 0.  1.
<mgrwt>
<rscale>  0 0.20000621E+02</rscale>
<asrwt>0</asrwt>
<pdfrwt beam="2">  1        3 0.43967790E-03 0.20000621E+02</pdfrwt>
<pdfrwt beam="1">  1       -3 0.53835113E-02 0.20000621E+02</pdfrwt>
<totfact> 0.16827397E+06</totfact>
</mgrwt>
</event>
<event>
 5    1  0.4309874E-007  0.2000163E+02  0.7818608E-02  0.1745296E+00
         -3   -1    0    0    0  501 -0.00000000000E+00  0.00000000000E+00  0.20209938615E+02  0.20210152593E+02  0.93000000000E-01 0.  1.
          3   -1    0    0  501    0  0.00000000000E+00 -0.00000000000E+00 -0.49481888721E+01  0.49490627510E+01  0.93000000000E-01 0. -1.
       1023    2    1    2    0    0  0.00000000000E+00  0.00000000000E+00  0.15261749743E+02  0.25159215344E+02  0.20001627721E+02 0.  0.
        -11    1    3    3    0    0  0.27402028075E+01  0.96180826682E+01  0.76399433359E+01  0.12585108664E+02  0.51100000000E-03 0.  1.
         11    1    3    3    0    0 -0.27402028075E+01 -0.96180826682E+01  0.76218064071E+01  0.12574106680E+02  0.51100000000E-03 0. -1.
<mgrwt>
<rscale>  0 0.20001628E+02</rscale>
<asrwt>0</asrwt>
<pdfrwt beam="2">  1        3 0.76134351E-03 0.20001628E+02</pdfrwt>
<pdfrwt beam="1">  1       -3 0.31093050E-02 0.20001628E+02</pdfrwt>
<totfact> 0.17554936E+06</totfact>
</mgrwt>
</event>
<event>
 5    1  0.4133473E-007  0.2000030E+02  0.7818608E-02  0.1745322E+00
         -3   -1    0    0    0  501 -0.00000000000E+00  0.00000000000E+00  0.13919619501E+01  0.13950652567E+01  0.93000000000E-01 0. -1.
          3   -1    0    0  501    0  0.00000000000E+00 -0.00000000000E+00 -0.71760094569E+02  0.71760154832E+02  0.93000000000E-01 0.  1.
       1023    2    1    2    0    0  0.00000000000E+00  0.00000000000E+00 -0.70368132619E+02  0.73155220089E+02  0.20000303447E+02 0.  0.
        -11    1    3    3    0    0  0.92991439643E+01 -0.36781343734E+01 -0.35245630756E+02  0.36636828992E+02  0.51100000000E-03 0. -1.
         11    1    3    3    0    0 -0.92991439643E+01  0.36781343734E+01 -0.35122501863E+02  0.36518391097E+02  0.51100000000E-03 0.  1.
<mgrwt>
<rscale>  0 0.20000303E+02</rscale>
<asrwt>0</asrwt>
<pdfrwt beam="2">  1        3 0.11040255E-01 0.20000303E+02</pdfrwt>
<pdfrwt beam="1">  1       -3 0.21439140E-03 0.20000303E+02</pdfrwt>
<totfact> 0.15182920E+06</totfact>
</mgrwt>
</event>
<event>
 5    1  0.4133473E-007  0.2000059E+02  0.7818608E-02  0.1745316E+00
          3   -1    0    0  501    0  0.00000000000E+00  0.00000000000E+00  0.16809309180E+02  0.16809566446E+02  0.93000000000E-01 0. -1.
         -3   -1    0    0    0  501 -0.00000000000E+00 -0.00000000000E+00 -0.59487708262E+01  0.59494977386E+01  0.93000000000E-01 0.  1.
       1023    2    1    2    0    0  0.00000000000E+00  0.00000000000E+00  0.10860538353E+02  0.22759064184E+02  0.20000592722E+02 0.  0.
        -11    1    3    3    0    0  0.58317482409E+01  0.81236843879E+01  0.53746219282E+01  0.11352977438E+02  0.51100000000E-03 0.  1.
         11    1    3    3    0    0 -0.58317482409E+01 -0.81236843879E+01  0.54859164253E+01  0.11406086746E+02  0.51100000000E-03 0. -1.
<mgrwt>
<rscale>  0 0.20000593E+02</rscale>
<asrwt>0</asrwt>
<pdfrwt beam="1">  1        3 0.25861233E-02 0.20000593E+02</pdfrwt>
<pdfrwt beam="2">  1       -3 0.91527120E-03 0.20000593E+02</pdfrwt>
<totfact> 0.17705864E+06</totfact>
</mgrwt>
</event>
<event>
 5    1  0.4213722E-007  0.2000105E+02  0.7818608E-02  0.1745307E+00
         -3   -1    0    0    0  501 -0.00000000000E+00  0.00000000000E+00  0.42919557675E+02  0.42919658434E+02  0.93000000000E-01 0. -1.
          3   -1    0    0  501    0  0.00000000000E+00 -0.00000000000E+00 -0.23291525976E+01  0.23310085421E+01  0.93000000000E-01 0.  1.
       1023    2    1    2    0    0  0.00000000000E+00  0.00000000000E+00  0.40590405078E+02  0.45250666976E+02  0.20001046907E+02 0.  0.
        -11    1    3    3    0    0 -0.41555987870E+01 -0.90959884961E+01  0.20446312198E+02  0.22760880712E+02  0.51100000000E-03 0. -1.
         11    1    3    3    0    0  0.41555987870E+01  0.90959884961E+01  0.20144092880E+02  0.22489786264E+02  0.51100000000E-03 0.  1.
<mgrwt>
<rscale>  0 0.20001047E+02</rscale>
<asrwt>0</asrwt>
<pdfrwt beam="2">  1        3 0.35848167E-03 0.20001047E+02</pdfrwt>
<pdfrwt beam="1">  1       -3 0.66031596E-02 0.20001047E+02</pdfrwt>
<totfact> 0.16441875E+06</totfact>
</mgrwt>
</event>
<event>
 5    1  0.4133473E-007  0.2000197E+02  0.7818608E-02  0.1745289E+00
         -3   -1    0    0    0  501 -0.00000000000E+00  0.00000000000E+00  0.40044622247E+02  0.40044730239E+02  0.93000000000E-01 0.  1.
          3   -1    0    0  501    0  0.00000000000E+00 -0.00000000000E+00 -0.24967299550E+01  0.24984614202E+01  0.93000000000E-01 0. -1.
       1023    2    1    2    0    0  0.00000000000E+00  0.00000000000E+00  0.37547892292E+02  0.42543191659E+02  0.20001973427E+02 0.  0.
        -11    1    3    3    0    0  0.84635399012E+01 -0.53276850650E+01  0.18908452320E+02  0.21390308675E+02  0.51100000000E-03 0.  1.
         11    1    3    3    0    0 -0.84635399012E+01  0.53276850650E+01  0.18639439972E+02  0.21152882984E+02  0.51100000000E-03 0. -1.
<mgrwt>
<rscale>  0 0.20001973E+02</rscale>
<asrwt>0</asrwt>
<pdfrwt beam="2">  1        3 0.38425381E-03 0.20001973E+02</pdfrwt>
<pdfrwt beam="1">  1       -3 0.61608524E-02 0.20001973E+02</pdfrwt>
<totfact> 0.16578114E+06</totfact>
</mgrwt>
</event>
<event>
 4    1  0.4133473E-007  0.2011043E+02  0.7818608E-02  0.1743141E+00
          3   -1    0    0  501    0  0.00000000000E+00  0.00000000000E+00  0.31384189694E+01  0.31397965901E+01  0.93000000000E-01 0.  1.
         -3   -1    0    0    0  501 -0.00000000000E+00 -0.00000000000E+00 -0.32207497222E+02  0.32207631492E+02  0.93000000000E-01 0. -1.
        -11    1    1    2    0    0 -0.48010636758E+01 -0.87844240294E+01 -0.12875407898E+02  0.16309274869E+02  0.51100000000E-03 0.  1.
         11    1    1    2    0    0  0.48010636758E+01  0.87844240294E+01 -0.16193670355E+02  0.19038153213E+02  0.51100000000E-03 0. -1.
<mgrwt>
<rscale>  0 0.20110429E+02</rscale>
<asrwt>0</asrwt>
<pdfrwt beam="1">  1        3 0.48295001E-03 0.20110429E+02</pdfrwt>
<pdfrwt beam="2">  1       -3 0.49551157E-02 0.20110429E+02</pdfrwt>
<totfact> 0.16765059E+06</totfact>
</mgrwt>
</event>
<event>
 5    1  0.4133473E-007  0.2000529E+02  0.7818608E-02  0.1745223E+00
         -3   -1    0    0    0  501 -0.00000000000E+00  0.00000000000E+00  0.37485082886E+02  0.37485198252E+02  0.93000000000E-01 0.  1.
          3   -1    0    0  501    0  0.00000000000E+00 -0.00000000000E+00 -0.26682085376E+01  0.26698287960E+01  0.93000000000E-01 0. -1.
       1023    2    1    2    0    0  0.00000000000E+00  0.00000000000E+00  0.34816874348E+02  0.40155027048E+02  0.20005285747E+02 0.  0.
        -11    1    3    3    0    0  0.43113760992E+01  0.90253991879E+01  0.17577208783E+02  0.20223848873E+02  0.51100000000E-03 0. -1.
         11    1    3    3    0    0 -0.43113760992E+01 -0.90253991879E+01  0.17239665565E+02  0.19931178175E+02  0.51100000000E-03 0.  1.
<mgrwt>
<rscale>  0 0.20005286E+02</rscale>
<asrwt>0</asrwt>
<pdfrwt beam="2">  1        3 0.41062718E-03 0.20005286E+02</pdfrwt>
<pdfrwt beam="1">  1       -3 0.57670686E-02 0.20005286E+02</pdfrwt>
<totfact> 0.16696406E+06</totfact>
</mgrwt>
</event>
<event>
 5    1  0.4133473E-007  0.2000597E+02  0.7818608E-02  0.1745209E+00
          3   -1    0    0  501    0  0.00000000000E+00  0.00000000000E+00  0.38026610749E+02  0.38026724472E+02  0.93000000000E-01 0. -1.
         -3   -1    0    0    0  501 -0.00000000000E+00 -0.00000000000E+00 -0.26303670106E+01  0.26320105643E+01  0.93000000000E-01 0.  1.
       1023    2    1    2    0    0  0.00000000000E+00  0.00000000000E+00  0.35396243739E+02  0.40658735036E+02  0.20005965709E+02 0.  0.
        -11    1    3    3    0    0  0.96631987295E+01  0.25837242271E+01  0.17532700176E+02  0.20185356482E+02  0.51100000000E-03 0. -1.
         11    1    3    3    0    0 -0.96631987295E+01 -0.25837242271E+01  0.17863543562E+02  0.20473378554E+02  0.51100000000E-03 0.  1.
<mgrwt>
<rscale>  0 0.20005966E+02</rscale>
<asrwt>0</asrwt>
<pdfrwt beam="1">  1        3 0.58503828E-02 0.20005966E+02</pdfrwt>
<pdfrwt beam="2">  1       -3 0.40480703E-03 0.20005966E+02</pdfrwt>
<totfact> 0.16666502E+06</totfact>
</mgrwt>
</event>
<event>
 4    1  0.4133473E-007  0.2012345E+02  0.7818608E-02  0.1742884E+00
          3   -1    0    0  501    0  0.00000000000E+00  0.00000000000E+00  0.36469179015E+02  0.36469297595E+02  0.93000000000E-01 0.  1.
         -3   -1    0    0    0  501 -0.00000000000E+00 -0.00000000000E+00 -0.27750957469E+01  0.27766536342E+01  0.93000000000E-01 0. -1.
        -11    1    1    2    0    0  0.10007151777E+02  0.82636571820E+00  0.15594627688E+02  0.18547732475E+02  0.51100000000E-03 0. -1.
         11    1    1    2    0    0 -0.10007151777E+02 -0.82636571820E+00  0.18099455580E+02  0.20698218753E+02  0.51100000000E-03 0.  1.
<mgrwt>
<rscale>  0 0.20123455E+02</rscale>
<asrwt>0</asrwt>
<pdfrwt beam="1">  1        3 0.56107719E-02 0.20123455E+02</pdfrwt>
<pdfrwt beam="2">  1       -3 0.42706677E-03 0.20123455E+02</pdfrwt>
<totfact> 0.16531493E+06</totfact>
</mgrwt>
</event>
<event>
 5    1  0.4133473E-007  0.2000026E+02  0.7818608E-02  0.1745323E+00
          3   -1    0    0  501    0  0.00000000000E+00  0.00000000000E+00  0.25801993155E+01  0.25818748048E+01  0.93000000000E-01 0.  1.
         -3   -1    0    0    0  501 -0.00000000000E+00 -0.00000000000E+00 -0.38743378003E+02  0.38743489622E+02  0.93000000000E-01 0. -1.
       1023    2    1    2    0    0  0.00000000000E+00  0.00000000000E+00 -0.36163178688E+02  0.41325364427E+02  0.20000256304E+02 0.  0.
        -11    1    3    3    0    0  0.84081385315E+01 -0.54134786959E+01 -0.18090266382E+02  0.20670275354E+02  0.51100000000E-03 0. -1.
         11    1    3    3    0    0 -0.84081385315E+01  0.54134786959E+01 -0.18072912306E+02  0.20655089073E+02  0.51100000000E-03 0.  1.
<mgrwt>
<rscale>  0 0.20000256E+02</rscale>
<asrwt>0</asrwt>
<pdfrwt beam="1">  1        3 0.39709124E-03 0.20000256E+02</pdfrwt>
<pdfrwt beam="2">  1       -3 0.59606567E-02 0.20000256E+02</pdfrwt>
<totfact> 0.16644197E+06</totfact>
</mgrwt>
</event>
<event>
 5    1  0.4133473E-007  0.2000036E+02  0.7818608E-02  0.1745321E+00
         -3   -1    0    0    0  501 -0.00000000000E+00  0.00000000000E+00  0.31206700777E+01  0.31220555303E+01  0.93000000000E-01 0.  1.
          3   -1    0    0  501    0  0.00000000000E+00 -0.00000000000E+00 -0.32036995036E+02  0.32037130020E+02  0.93000000000E-01 0. -1.
       1023    2    1    2    0    0  0.00000000000E+00  0.00000000000E+00 -0.28916324958E+02  0.35159185551E+02  0.20000361984E+02 0.  0.
        -11    1    3    3    0    0  0.98906114639E+01  0.14760125897E+01 -0.14508234613E+02  0.17620774107E+02  0.51100000000E-03 0. -1.
         11    1    3    3    0    0 -0.98906114639E+01 -0.14760125897E+01 -0.14408090345E+02  0.17538411443E+02  0.51100000000E-03 0.  1.
<mgrwt>
<rscale>  0 0.20000362E+02</rscale>
<asrwt>0</asrwt>
<pdfrwt beam="2">  1        3 0.49288852E-02 0.20000362E+02</pdfrwt>
<pdfrwt beam="1">  1       -3 0.48022007E-03 0.20000362E+02</pdfrwt>
<totfact> 0.16972580E+06</totfact>
</mgrwt>
</event>
<event>
 5    1  0.4133473E-007  0.2000064E+02  0.7818608E-02  0.1745315E+00
         -3   -1    0    0    0  501 -0.00000000000E+00  0.00000000000E+00  0.44702743561E+02  0.44702840300E+02  0.93000000000E-01 0.  1.
          3   -1    0    0  501    0  0.00000000000E+00 -0.00000000000E+00 -0.22360755197E+01  0.22380086527E+01  0.93000000000E-01 0. -1.
       1023    2    1    2    0    0  0.00000000000E+00  0.00000000000E+00  0.42466668041E+02  0.46940848953E+02  0.20000635136E+02 0.  0.
        -11    1    3    3    0    0  0.97074343801E+01 -0.24024093010E+01  0.21180932482E+02  0.23423017606E+02  0.51100000000E-03 0. -1.
         11    1    3    3    0    0 -0.97074343801E+01  0.24024093010E+01  0.21285735560E+02  0.23517831347E+02  0.51100000000E-03 0.  1.
<mgrwt>
<rscale>  0 0.20000635E+02</rscale>
<asrwt>0</asrwt>
<pdfrwt beam="2">  1        3 0.34416775E-03 0.20000635E+02</pdfrwt>
<pdfrwt beam="1">  1       -3 0.68775016E-02 0.20000635E+02</pdfrwt>
<totfact> 0.16358220E+06</totfact>
</mgrwt>
</event>
<event>
 5    1  0.4133473E-007  0.2000076E+02  0.7818608E-02  0.1745313E+00
         -3   -1    0    0    0  501 -0.00000000000E+00  0.00000000000E+00  0.36264300040E+01  0.36276223031E+01  0.93000000000E-01 0.  1.
          3   -1    0    0  501    0  0.00000000000E+00 -0.00000000000E+00 -0.27571628343E+02  0.27571785189E+02  0.93000000000E-01 0. -1.
       1023    2    1    2    0    0  0.00000000000E+00  0.00000000000E+00 -0.23945198339E+02  0.31199407492E+02  0.20000762594E+02 0.  0.
        -11    1    3    3    0    0 -0.87760774521E+01 -0.47941606110E+01 -0.12072657621E+02  0.15676497495E+02  0.51100000000E-03 0.  1.
         11    1    3    3    0    0  0.87760774521E+01  0.47941606110E+01 -0.11872540718E+02  0.15522909997E+02  0.51100000000E-03 0. -1.
<mgrwt>
<rscale>  0 0.20000763E+02</rscale>
<asrwt>0</asrwt>
<pdfrwt beam="2">  1        3 0.42418926E-02 0.20000763E+02</pdfrwt>
<pdfrwt beam="1">  1       -3 0.55801611E-03 0.20000763E+02</pdfrwt>
<totfact> 0.17195471E+06</totfact>
</mgrwt>
</event>
<event>
 5    1  0.4133473E-007  0.2000171E+02  0.7818608E-02  0.1745294E+00
         -3   -1    0    0    0  501 -0.00000000000E+00  0.00000000000E+00  0.90587132601E+00  0.91063266979E+00  0.93000000000E-01 0.  1.
          3   -1    0    0  501    0  0.00000000000E+00 -0.00000000000E+00 -0.11011561500E+03  0.11011565427E+03  0.93000000000E-01 0. -1.
       1023    2    1    2    0    0  0.00000000000E+00  0.00000000000E+00 -0.10920974367E+03  0.11102628694E+03  0.20001706897E+02 0.  0.
        -11    1    3    3    0    0  0.33822787467E+01  0.94114252104E+01 -0.54336620290E+02  0.55249280890E+02  0.51100000000E-03 0. -1.
         11    1    3    3    0    0 -0.33822787467E+01 -0.94114252104E+01 -0.54873123382E+02  0.55777006050E+02  0.51100000000E-03 0.  1.
<mgrwt>
<rscale>  0 0.20001707E+02</rscale>
<asrwt>0</asrwt>
<pdfrwt beam="2">  1        3 0.16941223E-01 0.20001707E+02</pdfrwt>
<pdfrwt beam="1">  1       -3 0.13973418E-03 0.20001707E+02</pdfrwt>
<totfact> 0.13804869E+06</totfact>
</mgrwt>
</event>
<event>
 5    1  0.4133473E-007  0.2000042E+02  0.7818608E-02  0.1745320E+00
          3   -1    0    0  501    0  0.00000000000E+00  0.00000000000E+00  0.49100485079E+02  0.49100573153E+02  0.93000000000E-01 0. -1.
         -3   -1    0    0    0  501 -0.00000000000E+00 -0.00000000000E+00 -0.20355740386E+01  0.20376973933E+01  0.93000000000E-01 0.  1.
       1023    2    1    2    0    0  0.00000000000E+00  0.00000000000E+00  0.47064911040E+02  0.51138270546E+02  0.20000421577E+02 0.  0.
        -11    1    3    3    0    0  0.99759938709E+01 -0.69402597424E+00  0.23415570679E+02  0.25461560758E+02  0.51100000000E-03 0.  1.
         11    1    3    3    0    0 -0.99759938709E+01  0.69402597424E+00  0.23649340361E+02  0.25676709788E+02  0.51100000000E-03 0. -1.
<mgrwt>
<rscale>  0 0.20000422E+02</rscale>
<asrwt>0</asrwt>
<pdfrwt beam="1">  1        3 0.75540898E-02 0.20000422E+02</pdfrwt>
<pdfrwt beam="2">  1       -3 0.31333539E-03 0.20000422E+02</pdfrwt>
<totfact> 0.16151773E+06</totfact>
</mgrwt>
</event>
<event>
 5    1  0.4288676E-007  0.2000131E+02  0.7818608E-02  0.1745302E+00
         -3   -1    0    0    0  501 -0.00000000000E+00  0.00000000000E+00  0.41775299484E+01  0.41785650013E+01  0.93000000000E-01 0.  1.
          3   -1    0    0  501    0  0.00000000000E+00 -0.00000000000E+00 -0.23936633561E+02  0.23936814225E+02  0.93000000000E-01 0. -1.
       1023    2    1    2    0    0  0.00000000000E+00  0.00000000000E+00 -0.19759103613E+02  0.28115379226E+02  0.20001309294E+02 0.  0.
        -11    1    3    3    0    0  0.97034402394E+01  0.24189409356E+01 -0.97795077675E+01  0.13987380032E+02  0.51100000000E-03 0.  1.
         11    1    3    3    0    0 -0.97034402394E+01 -0.24189409356E+01 -0.99795958452E+01  0.14127999194E+02  0.51100000000E-03 0. -1.
<mgrwt>
<rscale>  0 0.20001309E+02</rscale>
<asrwt>0</asrwt>
<pdfrwt beam="2">  1        3 0.36826524E-02 0.20001309E+02</pdfrwt>
<pdfrwt beam="1">  1       -3 0.64279045E-03 0.20001309E+02</pdfrwt>
<totfact> 0.17375109E+06</totfact>
</mgrwt>
</event>
<event>
 5    1  0.4133473E-007  0.2000207E+02  0.7818608E-02  0.1745287E+00
         -3   -1    0    0    0  501 -0.00000000000E+00  0.00000000000E+00  0.54345600224E+02  0.54345679798E+02  0.93000000000E-01 0.  1.
          3   -1    0    0  501    0  0.00000000000E+00 -0.00000000000E+00 -0.18392011337E+01  0.18415509252E+01  0.93000000000E-01 0. -1.
       1023    2    1    2    0    0  0.00000000000E+00  0.00000000000E+00  0.52506399091E+02  0.56187230723E+02  0.20002073665E+02 0.  0.
        -11    1    3    3    0    0  0.44835579401E+00  0.99899885901E+01  0.26648894930E+02  0.28463388699E+02  0.51100000000E-03 0. -1.
         11    1    3    3    0    0 -0.44835579401E+00 -0.99899885901E+01  0.25857504160E+02  0.27723842025E+02  0.51100000000E-03 0.  1.
<mgrwt>
<rscale>  0 0.20002074E+02</rscale>
<asrwt>0</asrwt>
<pdfrwt beam="2">  1        3 0.28314089E-03 0.20002074E+02</pdfrwt>
<pdfrwt beam="1">  1       -3 0.83610487E-02 0.20002074E+02</pdfrwt>
<totfact> 0.15915205E+06</totfact>
</mgrwt>
</event>
<event>
 5    1  0.4133473E-007  0.2000080E+02  0.7818608E-02  0.1745312E+00
         -3   -1    0    0    0  501 -0.00000000000E+00  0.00000000000E+00  0.69125923807E+02  0.69125986367E+02  0.93000000000E-01 0.  1.
          3   -1    0    0  501    0  0.00000000000E+00 -0.00000000000E+00 -0.14451924576E+01  0.14481817012E+01  0.93000000000E-01 0. -1.
       1023    2    1    2    0    0  0.00000000000E+00  0.00000000000E+00  0.67680731350E+02  0.70574168068E+02  0.20000795047E+02 0.  0.
        -11    1    3    3    0    0  0.94767317538E+01  0.31926646162E+01  0.33558118230E+02  0.35016408318E+02  0.51100000000E-03 0. -1.
         11    1    3    3    0    0 -0.94767317538E+01 -0.31926646162E+01  0.34122613119E+02  0.35557759750E+02  0.51100000000E-03 0.  1.
<mgrwt>
<rscale>  0 0.20000795E+02</rscale>
<asrwt>0</asrwt>
<pdfrwt beam="2">  1        3 0.22257208E-03 0.20000795E+02</pdfrwt>
<pdfrwt beam="1">  1       -3 0.10634991E-01 0.20000795E+02</pdfrwt>
<totfact> 0.15290840E+06</totfact>
</mgrwt>
</event>
<event>
 5    1  0.4133473E-007  0.2000302E+02  0.7818608E-02  0.1745268E+00
          3   -1    0    0  501    0  0.00000000000E+00  0.00000000000E+00  0.39279802818E+02  0.39279912913E+02  0.93000000000E-01 0.  1.
         -3   -1    0    0    0  501 -0.00000000000E+00 -0.00000000000E+00 -0.25456425380E+01  0.25473407568E+01  0.93000000000E-01 0. -1.
       1023    2    1    2    0    0  0.00000000000E+00  0.00000000000E+00  0.36734160280E+02  0.41827253670E+02  0.20003015224E+02 0.  0.
        -11    1    3    3    0    0  0.98701732210E+01  0.16154534045E+01  0.18392271568E+02  0.20935750830E+02  0.51100000000E-03 0. -1.
         11    1    3    3    0    0 -0.98701732210E+01 -0.16154534045E+01  0.18341888712E+02  0.20891502840E+02  0.51100000000E-03 0.  1.
<mgrwt>
<rscale>  0 0.20003015E+02</rscale>
<asrwt>0</asrwt>
<pdfrwt beam="1">  1        3 0.60431853E-02 0.20003015E+02</pdfrwt>
<pdfrwt beam="2">  1       -3 0.39177644E-03 0.20003015E+02</pdfrwt>
<totfact> 0.16610911E+06</totfact>
</mgrwt>
</event>
<event>
 5    1  0.4133473E-007  0.2000800E+02  0.7818608E-02  0.1745169E+00
          3   -1    0    0  501    0  0.00000000000E+00  0.00000000000E+00  0.12609538686E+01  0.12643787639E+01  0.93000000000E-01 0.  1.
         -3   -1    0    0    0  501 -0.00000000000E+00 -0.00000000000E+00 -0.79257435440E+02  0.79257490003E+02  0.93000000000E-01 0. -1.
       1023    2    1    2    0    0  0.00000000000E+00  0.00000000000E+00 -0.77996481572E+02  0.80521868767E+02  0.20008003702E+02 0.  0.
        -11    1    3    3    0    0 -0.95711101280E+01  0.29109679323E+01 -0.38945862047E+02  0.40210198386E+02  0.51100000000E-03 0. -1.
         11    1    3    3    0    0  0.95711101280E+01 -0.29109679323E+01 -0.39050619525E+02  0.40311670381E+02  0.51100000000E-03 0.  1.
<mgrwt>
<rscale>  0 0.20008004E+02</rscale>
<asrwt>0</asrwt>
<pdfrwt beam="1">  1        3 0.19426062E-03 0.20008004E+02</pdfrwt>
<pdfrwt beam="2">  1       -3 0.12193715E-01 0.20008004E+02</pdfrwt>
<totfact> 0.14881288E+06</totfact>
</mgrwt>
</event>
<event>
 5    1  0.4396207E-007  0.2000108E+02  0.7818608E-02  0.1745307E+00
         -3   -1    0    0    0  501 -0.00000000000E+00  0.00000000000E+00  0.96725004447E+01  0.96729475266E+01  0.93000000000E-01 0.  1.
          3   -1    0    0  501    0  0.00000000000E+00 -0.00000000000E+00 -0.10338812735E+02  0.10339231005E+02  0.93000000000E-01 0. -1.
       1023    2    1    2    0    0  0.00000000000E+00  0.00000000000E+00 -0.66631229065E+00  0.20012178532E+02  0.20001082909E+02 0.  0.
        -11    1    3    3    0    0 -0.64149112618E+01 -0.76716353876E+01 -0.40904742589E+00  0.10008616092E+02  0.51100000000E-03 0.  1.
         11    1    3    3    0    0  0.64149112618E+01  0.76716353876E+01 -0.25726486476E+00  0.10003562440E+02  0.51100000000E-03 0. -1.
<mgrwt>
<rscale>  0 0.20001083E+02</rscale>
<asrwt>0</asrwt>
<pdfrwt beam="2">  1        3 0.15906531E-02 0.20001083E+02</pdfrwt>
<pdfrwt beam="1">  1       -3 0.14881436E-02 0.20001083E+02</pdfrwt>
<totfact> 0.17882720E+06</totfact>
</mgrwt>
</event>
<event>
 5    1  0.4133473E-007  0.2000075E+02  0.7818608E-02  0.1745313E+00
         -3   -1    0    0    0  501 -0.00000000000E+00  0.00000000000E+00  0.71433978106E+02  0.71434038645E+02  0.93000000000E-01 0. -1.
          3   -1    0    0  501    0  0.00000000000E+00 -0.00000000000E+00 -0.13983931158E+01  0.14014821819E+01  0.93000000000E-01 0.  1.
       1023    2    1    2    0    0  0.00000000000E+00  0.00000000000E+00  0.70035584990E+02  0.72835520826E+02  0.20000748214E+02 0.  0.
        -11    1    3    3    0    0 -0.82924606341E+01  0.55894491194E+01  0.34925867900E+02  0.36329369574E+02  0.51100000000E-03 0.  1.
         11    1    3    3    0    0  0.82924606341E+01 -0.55894491194E+01  0.35109717090E+02  0.36506151252E+02  0.51100000000E-03 0. -1.
<mgrwt>
<rscale>  0 0.20000748E+02</rscale>
<asrwt>0</asrwt>
<pdfrwt beam="2">  1        3 0.21537967E-03 0.20000748E+02</pdfrwt>
<pdfrwt beam="1">  1       -3 0.10990085E-01 0.20000748E+02</pdfrwt>
<totfact> 0.15198093E+06</totfact>
</mgrwt>
</event>
<event>
 5    1  0.4230333E-007  0.2000099E+02  0.7818608E-02  0.1745308E+00
          3   -1    0    0  501    0  0.00000000000E+00  0.00000000000E+00  0.19475287117E+02  0.19475509166E+02  0.93000000000E-01 0.  1.
         -3   -1    0    0    0  501 -0.00000000000E+00 -0.00000000000E+00 -0.51345486614E+01  0.51353908280E+01  0.93000000000E-01 0. -1.
       1023    2    1    2    0    0  0.00000000000E+00  0.00000000000E+00  0.14340738455E+02  0.24610899994E+02  0.20000990452E+02 0.  0.
        -11    1    3    3    0    0  0.94571385082E+01  0.32513733220E+01  0.71313168194E+01  0.12282694211E+02  0.51100000000E-03 0. -1.
         11    1    3    3    0    0 -0.94571385082E+01 -0.32513733220E+01  0.72094216358E+01  0.12328205783E+02  0.51100000000E-03 0.  1.
<mgrwt>
<rscale>  0 0.20000990E+02</rscale>
<asrwt>0</asrwt>
<pdfrwt beam="1">  1        3 0.29962798E-02 0.20000990E+02</pdfrwt>
<pdfrwt beam="2">  1       -3 0.79001244E-03 0.20000990E+02</pdfrwt>
<totfact> 0.17588868E+06</totfact>
</mgrwt>
</event>
<event>
 4    1  0.4133473E-007  0.2008545E+02  0.7818608E-02  0.1743634E+00
         -3   -1    0    0    0  501 -0.00000000000E+00  0.00000000000E+00  0.48722439826E+02  0.48722528584E+02  0.93000000000E-01 0. -1.
          3   -1    0    0  501    0  0.00000000000E+00 -0.00000000000E+00 -0.20688828887E+01  0.20709720924E+01  0.93000000000E-01 0.  1.
        -11    1    1    2    0    0 -0.18121190737E+01  0.98571632269E+01  0.24943854769E+02  0.26882026215E+02  0.51100000000E-03 0. -1.
         11    1    1    2    0    0  0.18121190737E+01 -0.98571632269E+01  0.21709702169E+02  0.23911474462E+02  0.51100000000E-03 0.  1.
<mgrwt>
<rscale>  0 0.20085451E+02</rscale>
<asrwt>0</asrwt>
<pdfrwt beam="2">  1        3 0.31845721E-03 0.20085451E+02</pdfrwt>
<pdfrwt beam="1">  1       -3 0.74959276E-02 0.20085451E+02</pdfrwt>
<totfact> 0.16024089E+06</totfact>
</mgrwt>
</event>
<event>
 5    1  0.4212806E-007  0.2000053E+02  0.7818608E-02  0.1745317E+00
         -3   -1    0    0    0  501 -0.00000000000E+00  0.00000000000E+00  0.17576622823E+02  0.17576868858E+02  0.93000000000E-01 0.  1.
          3   -1    0    0  501    0  0.00000000000E+00 -0.00000000000E+00 -0.56890135324E+01  0.56897736310E+01  0.93000000000E-01 0. -1.
       1023    2    1    2    0    0  0.00000000000E+00  0.00000000000E+00  0.11887609290E+02  0.23266642489E+02  0.20000534945E+02 0.  0.
        -11    1    3    3    0    0  0.27478596261E+01  0.96152769987E+01  0.59058415692E+01  0.11613924797E+02  0.51100000000E-03 0. -1.
         11    1    3    3    0    0 -0.27478596261E+01 -0.96152769987E+01  0.59817677213E+01  0.11652717692E+02  0.51100000000E-03 0.  1.
<mgrwt>
<rscale>  0 0.20000535E+02</rscale>
<asrwt>0</asrwt>
<pdfrwt beam="2">  1        3 0.87531027E-03 0.20000535E+02</pdfrwt>
<pdfrwt beam="1">  1       -3 0.27041731E-02 0.20000535E+02</pdfrwt>
<totfact> 0.17674837E+06</totfact>
</mgrwt>
</event>
<event>
 5    1  0.4133473E-007  0.2000018E+02  0.7818608E-02  0.1745324E+00
         -3   -1    0    0    0  501 -0.00000000000E+00  0.00000000000E+00  0.19866564236E+02  0.19866781912E+02  0.93000000000E-01 0. -1.
          3   -1    0    0  501    0  0.00000000000E+00 -0.00000000000E+00 -0.50330010142E+01  0.50338601698E+01  0.93000000000E-01 0.  1.
       1023    2    1    2    0    0  0.00000000000E+00  0.00000000000E+00  0.14833563221E+02  0.24900642082E+02  0.20000184455E+02 0.  0.
        -11    1    3    3    0    0 -0.11205987655E+01 -0.99371054588E+01  0.74091265191E+01  0.12445760826E+02  0.51100000000E-03 0.  1.
         11    1    3    3    0    0  0.11205987655E+01  0.99371054588E+01  0.74244367024E+01  0.12454881256E+02  0.51100000000E-03 0. -1.
<mgrwt>
<rscale>  0 0.20000184E+02</rscale>
<asrwt>0</asrwt>
<pdfrwt beam="2">  1        3 0.77439067E-03 0.20000184E+02</pdfrwt>
<pdfrwt beam="1">  1       -3 0.30564774E-02 0.20000184E+02</pdfrwt>
<totfact> 0.17573623E+06</totfact>
</mgrwt>
</event>
<event>
 5    1  0.4133473E-007  0.2000045E+02  0.7818608E-02  0.1745319E+00
         -3   -1    0    0    0  501 -0.00000000000E+00  0.00000000000E+00  0.43716297069E+02  0.43716395991E+02  0.93000000000E-01 0. -1.
          3   -1    0    0  501    0  0.00000000000E+00 -0.00000000000E+00 -0.22865336694E+01  0.22884241786E+01  0.93000000000E-01 0.  1.
       1023    2    1    2    0    0  0.00000000000E+00  0.00000000000E+00  0.41429763400E+02  0.46004820170E+02  0.20000454582E+02 0.  0.
        -11    1    3    3    0    0  0.88333354622E+01  0.46876965992E+01  0.20606240322E+02  0.22904572803E+02  0.51100000000E-03 0. -1.
         11    1    3    3    0    0 -0.88333354622E+01 -0.46876965992E+01  0.20823523077E+02  0.23100247367E+02  0.51100000000E-03 0.  1.
<mgrwt>
<rscale>  0 0.20000455E+02</rscale>
<asrwt>0</asrwt>
<pdfrwt beam="2">  1        3 0.35192745E-03 0.20000455E+02</pdfrwt>
<pdfrwt beam="1">  1       -3 0.67257370E-02 0.20000455E+02</pdfrwt>
<totfact> 0.16405112E+06</totfact>
</mgrwt>
</event>
<event>
 5    1  0.4133473E-007  0.2000037E+02  0.7818608E-02  0.1745321E+00
         -3   -1    0    0    0  501 -0.00000000000E+00  0.00000000000E+00  0.11045538209E+02  0.11045929718E+02  0.93000000000E-01 0. -1.
          3   -1    0    0  501    0  0.00000000000E+00 -0.00000000000E+00 -0.90529739159E+01  0.90534515917E+01  0.93000000000E-01 0.  1.
       1023    2    1    2    0    0  0.00000000000E+00  0.00000000000E+00  0.19925642933E+01  0.20099381310E+02  0.20000370411E+02 0.  0.
        -11    1    3    3    0    0 -0.92778810573E+01 -0.37314895494E+01  0.10211576457E+01  0.10052156702E+02  0.51100000000E-03 0. -1.
         11    1    3    3    0    0  0.92778810573E+01  0.37314895494E+01  0.97140664766E+00  0.10047224607E+02  0.51100000000E-03 0.  1.
<mgrwt>
<rscale>  0 0.20000370E+02</rscale>
<asrwt>0</asrwt>
<pdfrwt beam="2">  1        3 0.13928321E-02 0.20000370E+02</pdfrwt>
<pdfrwt beam="1">  1       -3 0.16993804E-02 0.20000370E+02</pdfrwt>
<totfact> 0.17878542E+06</totfact>
</mgrwt>
</event>
<event>
 5    1  0.4133473E-007  0.2000037E+02  0.7818608E-02  0.1745321E+00
          3   -1    0    0  501    0  0.00000000000E+00  0.00000000000E+00  0.61127591471E+01  0.61134665608E+01  0.93000000000E-01 0. -1.
         -3   -1    0    0    0  501 -0.00000000000E+00 -0.00000000000E+00 -0.16358050686E+02  0.16358315049E+02  0.93000000000E-01 0.  1.
       1023    2    1    2    0    0  0.00000000000E+00  0.00000000000E+00 -0.10245291539E+02  0.22471781610E+02  0.20000374247E+02 0.  0.
        -11    1    3    3    0    0 -0.92433378152E+01  0.38160920122E+01 -0.50737992199E+01  0.11213620780E+02  0.51100000000E-03 0.  1.
         11    1    3    3    0    0  0.92433378152E+01 -0.38160920122E+01 -0.51714923194E+01  0.11258160830E+02  0.51100000000E-03 0. -1.
<mgrwt>
<rscale>  0 0.20000374E+02</rscale>
<asrwt>0</asrwt>
<pdfrwt beam="1">  1        3 0.94049924E-03 0.20000374E+02</pdfrwt>
<pdfrwt beam="2">  1       -3 0.25166979E-02 0.20000374E+02</pdfrwt>
<totfact> 0.17725446E+06</totfact>
</mgrwt>
</event>
<event>
 5    1  0.4133473E-007  0.2000028E+02  0.7818608E-02  0.1745322E+00
         -3   -1    0    0    0  501 -0.00000000000E+00  0.00000000000E+00  0.83912420530E+00  0.84426206354E+00  0.93000000000E-01 0.  1.
          3   -1    0    0  501    0  0.00000000000E+00 -0.00000000000E+00 -0.11880633794E+03  0.11880637434E+03  0.93000000000E-01 0. -1.
       1023    2    1    2    0    0  0.00000000000E+00  0.00000000000E+00 -0.11796721374E+03  0.11965063641E+03  0.20000281882E+02 0.  0.
        -11    1    3    3    0    0  0.88902905518E+01  0.45785549130E+01 -0.59275914783E+02  0.60113513496E+02  0.51100000000E-03 0. -1.
         11    1    3    3    0    0 -0.88902905518E+01 -0.45785549130E+01 -0.58691298956E+02  0.59537122911E+02  0.51100000000E-03 0.  1.
<mgrwt>
<rscale>  0 0.20000282E+02</rscale>
<asrwt>0</asrwt>
<pdfrwt beam="2">  1        3 0.18278283E-01 0.20000282E+02</pdfrwt>
<pdfrwt beam="1">  1       -3 0.12949415E-03 0.20000282E+02</pdfrwt>
<totfact> 0.13531540E+06</totfact>
</mgrwt>
</event>
<event>
 5    1  0.4133473E-007  0.2000037E+02  0.7818608E-02  0.1745321E+00
          3   -1    0    0  501    0  0.00000000000E+00  0.00000000000E+00  0.22980503184E+02  0.22980691364E+02  0.93000000000E-01 0.  1.
         -3   -1    0    0    0  501 -0.00000000000E+00 -0.00000000000E+00 -0.43509722575E+01  0.43519660598E+01  0.93000000000E-01 0. -1.
       1023    2    1    2    0    0  0.00000000000E+00  0.00000000000E+00  0.18629530926E+02  0.27332657424E+02  0.20000368480E+02 0.  0.
        -11    1    3    3    0    0 -0.66313254566E+01  0.74851981882E+01  0.93583116446E+01  0.13696009139E+02  0.51100000000E-03 0.  1.
         11    1    3    3    0    0  0.66313254566E+01 -0.74851981882E+01  0.92712192818E+01  0.13636648285E+02  0.51100000000E-03 0. -1.
<mgrwt>
<rscale>  0 0.20000368E+02</rscale>
<asrwt>0</asrwt>
<pdfrwt beam="1">  1        3 0.35355529E-02 0.20000368E+02</pdfrwt>
<pdfrwt beam="2">  1       -3 0.66947128E-03 0.20000368E+02</pdfrwt>
<totfact> 0.17423731E+06</totfact>
</mgrwt>
</event>
<event>
 5    1  0.4133473E-007  0.2000059E+02  0.7818608E-02  0.1745316E+00
          3   -1    0    0  501    0  0.00000000000E+00  0.00000000000E+00  0.12794660081E+01  0.12828414812E+01  0.93000000000E-01 0.  1.
         -3   -1    0    0    0  501 -0.00000000000E+00 -0.00000000000E+00 -0.78055860347E+02  0.78055915750E+02  0.93000000000E-01 0. -1.
       1023    2    1    2    0    0  0.00000000000E+00  0.00000000000E+00 -0.76776394339E+02  0.79338757231E+02  0.20000591773E+02 0.  0.
        -11    1    3    3    0    0 -0.99895143720E+01  0.46413871879E+00 -0.38349448925E+02  0.39631881803E+02  0.51100000000E-03 0. -1.
         11    1    3    3    0    0  0.99895143720E+01 -0.46413871879E+00 -0.38426945414E+02  0.39706875428E+02  0.51100000000E-03 0.  1.
<mgrwt>
<rscale>  0 0.20000592E+02</rscale>
<asrwt>0</asrwt>
<pdfrwt beam="1">  1        3 0.19710490E-03 0.20000592E+02</pdfrwt>
<pdfrwt beam="2">  1       -3 0.12008854E-01 0.20000592E+02</pdfrwt>
<totfact> 0.14939133E+06</totfact>
</mgrwt>
</event>
<event>
 5    1  0.4323748E-007  0.2000136E+02  0.7818608E-02  0.1745301E+00
         -3   -1    0    0    0  501 -0.00000000000E+00  0.00000000000E+00  0.10590726613E+02  0.10591134934E+02  0.93000000000E-01 0. -1.
          3   -1    0    0  501    0  0.00000000000E+00 -0.00000000000E+00 -0.94426919861E+01  0.94431499482E+01  0.93000000000E-01 0.  1.
       1023    2    1    2    0    0  0.00000000000E+00  0.00000000000E+00  0.11480346264E+01  0.20034284882E+02  0.20001364634E+02 0.  0.
        -11    1    3    3    0    0 -0.66624913593E+01 -0.74578490386E+01  0.64723446456E+00  0.10021338040E+02  0.51100000000E-03 0.  1.
         11    1    3    3    0    0  0.66624913593E+01  0.74578490386E+01  0.50080016188E+00  0.10012946842E+02  0.51100000000E-03 0. -1.
<mgrwt>
<rscale>  0 0.20001365E+02</rscale>
<asrwt>0</asrwt>
<pdfrwt beam="2">  1        3 0.14527885E-02 0.20001365E+02</pdfrwt>
<pdfrwt beam="1">  1       -3 0.16294092E-02 0.20001365E+02</pdfrwt>
<totfact> 0.17880820E+06</totfact>
</mgrwt>
</event>
<event>
 5    1  0.4133473E-007  0.2000026E+02  0.7818608E-02  0.1745323E+00
          3   -1    0    0  501    0  0.00000000000E+00  0.00000000000E+00  0.19483525018E+01  0.19505708065E+01  0.93000000000E-01 0. -1.
         -3   -1    0    0    0  501 -0.00000000000E+00 -0.00000000000E+00 -0.51295269499E+02  0.51295353805E+02  0.93000000000E-01 0.  1.
       1023    2    1    2    0    0  0.00000000000E+00  0.00000000000E+00 -0.49346916997E+02  0.53245924612E+02  0.20000256763E+02 0.  0.
        -11    1    3    3    0    0 -0.11190459215E+01  0.99373178053E+01 -0.24684894253E+02  0.26633560661E+02  0.51100000000E-03 0.  1.
         11    1    3    3    0    0  0.11190459215E+01 -0.99373178053E+01 -0.24662022744E+02  0.26612363950E+02  0.51100000000E-03 0. -1.
<mgrwt>
<rscale>  0 0.20000257E+02</rscale>
<asrwt>0</asrwt>
<pdfrwt beam="1">  1        3 0.29992370E-03 0.20000257E+02</pdfrwt>
<pdfrwt beam="2">  1       -3 0.78917560E-02 0.20000257E+02</pdfrwt>
<totfact> 0.16054808E+06</totfact>
</mgrwt>
</event>
<event>
 5    1  0.4133473E-007  0.2000502E+02  0.7818608E-02  0.1745228E+00
          3   -1    0    0  501    0  0.00000000000E+00  0.00000000000E+00  0.13271319330E+01  0.13303864730E+01  0.93000000000E-01 0.  1.
         -3   -1    0    0    0  501 -0.00000000000E+00 -0.00000000000E+00 -0.75292686518E+02  0.75292743954E+02  0.93000000000E-01 0. -1.
       1023    2    1    2    0    0  0.00000000000E+00  0.00000000000E+00 -0.73965554585E+02  0.76623130427E+02  0.20005020653E+02 0.  0.
        -11    1    3    3    0    0 -0.83502425780E+01  0.55048332330E+01 -0.37530810331E+02  0.38840590423E+02  0.51100000000E-03 0.  1.
         11    1    3    3    0    0  0.83502425780E+01 -0.55048332330E+01 -0.36434744254E+02  0.37782540004E+02  0.51100000000E-03 0. -1.
<mgrwt>
<rscale>  0 0.20005021E+02</rscale>
<asrwt>0</asrwt>
<pdfrwt beam="1">  1        3 0.20442897E-03 0.20005021E+02</pdfrwt>
<pdfrwt beam="2">  1       -3 0.11583742E-01 0.20005021E+02</pdfrwt>
<totfact> 0.15038888E+06</totfact>
</mgrwt>
</event>
<event>
 4    1  0.4133473E-007  0.2002839E+02  0.7818608E-02  0.1744764E+00
          3   -1    0    0  501    0  0.00000000000E+00  0.00000000000E+00  0.35520947753E+01  0.35533120174E+01  0.93000000000E-01 0.  1.
         -3   -1    0    0    0  501 -0.00000000000E+00 -0.00000000000E+00 -0.28226249214E+02  0.28226402422E+02  0.93000000000E-01 0. -1.
        -11    1    1    2    0    0 -0.86715767448E+01  0.49886434765E+01 -0.11625199711E+02  0.15337146917E+02  0.51100000000E-03 0.  1.
         11    1    1    2    0    0  0.86715767448E+01 -0.49886434765E+01 -0.13048954728E+02  0.16442567522E+02  0.51100000000E-03 0. -1.
<mgrwt>
<rscale>  0 0.20028389E+02</rscale>
<asrwt>0</asrwt>
<pdfrwt beam="1">  1        3 0.54658156E-03 0.20028389E+02</pdfrwt>
<pdfrwt beam="2">  1       -3 0.43426052E-02 0.20028389E+02</pdfrwt>
<totfact> 0.17113003E+06</totfact>
</mgrwt>
</event>
<event>
 4    1  0.4133473E-007  0.2004235E+02  0.7818608E-02  0.1744487E+00
         -3   -1    0    0    0  501 -0.00000000000E+00  0.00000000000E+00  0.25767015441E+02  0.25767183272E+02  0.93000000000E-01 0.  1.
          3   -1    0    0  501    0  0.00000000000E+00 -0.00000000000E+00 -0.38966483042E+01  0.38977579461E+01  0.93000000000E-01 0. -1.
        -11    1    1    2    0    0 -0.30914987569E+01  0.95298256608E+01  0.11262829680E+02  0.15074026481E+02  0.51100000000E-03 0. -1.
         11    1    1    2    0    0  0.30914987569E+01 -0.95298256608E+01  0.10607537458E+02  0.14590914737E+02  0.51100000000E-03 0.  1.
<mgrwt>
<rscale>  0 0.20042350E+02</rscale>
<asrwt>0</asrwt>
<pdfrwt beam="2">  1        3 0.59958264E-03 0.20042350E+02</pdfrwt>
<pdfrwt beam="1">  1       -3 0.39642543E-02 0.20042350E+02</pdfrwt>
<totfact> 0.17209114E+06</totfact>
</mgrwt>
</event>
<event>
 5    1  0.4264023E-007  0.2000069E+02  0.7818608E-02  0.1745314E+00
         -3   -1    0    0    0  501 -0.00000000000E+00  0.00000000000E+00  0.21899310092E+02  0.21899507563E+02  0.93000000000E-01 0.  1.
          3   -1    0    0  501    0  0.00000000000E+00 -0.00000000000E+00 -0.45659796317E+01  0.45669266468E+01  0.93000000000E-01 0. -1.
       1023    2    1    2    0    0  0.00000000000E+00  0.00000000000E+00  0.17333330460E+02  0.26466434210E+02  0.20000694861E+02 0.  0.
        -11    1    3    3    0    0  0.99304840689E+01  0.11794584155E+01  0.86187254203E+01  0.13201820485E+02  0.51100000000E-03 0.  1.
         11    1    3    3    0    0 -0.99304840689E+01 -0.11794584155E+01  0.87146050401E+01  0.13264613725E+02  0.51100000000E-03 0. -1.
<mgrwt>
<rscale>  0 0.20000695E+02</rscale>
<asrwt>0</asrwt>
<pdfrwt beam="2">  1        3 0.70254645E-03 0.20000695E+02</pdfrwt>
<pdfrwt beam="1">  1       -3 0.33692126E-02 0.20000695E+02</pdfrwt>
<totfact> 0.17476813E+06</totfact>
</mgrwt>
</event>
<event>
 5    1  0.4133473E-007  0.2000186E+02  0.7818608E-02  0.1745291E+00
          3   -1    0    0  501    0  0.00000000000E+00  0.00000000000E+00  0.35799130821E+02  0.35799251620E+02  0.93000000000E-01 0. -1.
         -3   -1    0    0    0  501 -0.00000000000E+00 -0.00000000000E+00 -0.27929826924E+01  0.27945306082E+01  0.93000000000E-01 0.  1.
       1023    2    1    2    0    0  0.00000000000E+00  0.00000000000E+00  0.33006148129E+02  0.38593782228E+02  0.20001855223E+02 0.  0.
        -11    1    3    3    0    0  0.71470590173E+01  0.69955769929E+01  0.16506286385E+02  0.19299638353E+02  0.51100000000E-03 0.  1.
         11    1    3    3    0    0 -0.71470590173E+01 -0.69955769929E+01  0.16499861743E+02  0.19294143875E+02  0.51100000000E-03 0. -1.
<mgrwt>
<rscale>  0 0.20001855E+02</rscale>
<asrwt>0</asrwt>
<pdfrwt beam="1">  1        3 0.55076864E-02 0.20001855E+02</pdfrwt>
<pdfrwt beam="2">  1       -3 0.42981805E-03 0.20001855E+02</pdfrwt>
<totfact> 0.16783151E+06</totfact>
</mgrwt>
</event>
<event>
 5    1  0.4133473E-007  0.2000374E+02  0.7818608E-02  0.1745254E+00
         -3   -1    0    0    0  501 -0.00000000000E+00  0.00000000000E+00  0.52508118110E+02  0.52508200469E+02  0.93000000000E-01 0.  1.
          3   -1    0    0  501    0  0.00000000000E+00 -0.00000000000E+00 -0.19039612057E+01  0.19062311698E+01  0.93000000000E-01 0. -1.
       1023    2    1    2    0    0  0.00000000000E+00  0.00000000000E+00  0.50604156904E+02  0.54414431638E+02  0.20003741514E+02 0.  0.
        -11    1    3    3    0    0  0.88327946594E+01 -0.46916594926E+01  0.25066688345E+02  0.26988308490E+02  0.51100000000E-03 0. -1.
         11    1    3    3    0    0 -0.88327946594E+01  0.46916594926E+01  0.25537468559E+02  0.27426123149E+02  0.51100000000E-03 0.  1.
<mgrwt>
<rscale>  0 0.20003742E+02</rscale>
<asrwt>0</asrwt>
<pdfrwt beam="2">  1        3 0.29309808E-03 0.20003742E+02</pdfrwt>
<pdfrwt beam="1">  1       -3 0.80783524E-02 0.20003742E+02</pdfrwt>
<totfact> 0.15994206E+06</totfact>
</mgrwt>
</event>
<event>
 5    1  0.4133473E-007  0.2000084E+02  0.7818608E-02  0.1745311E+00
         -3   -1    0    0    0  501 -0.00000000000E+00  0.00000000000E+00  0.18549987392E+01  0.18573285446E+01  0.93000000000E-01 0.  1.
          3   -1    0    0  501    0  0.00000000000E+00 -0.00000000000E+00 -0.53876689877E+02  0.53876770143E+02  0.93000000000E-01 0. -1.
       1023    2    1    2    0    0  0.00000000000E+00  0.00000000000E+00 -0.52021691138E+02  0.55734098688E+02  0.20000835176E+02 0.  0.
        -11    1    3    3    0    0 -0.98981076314E+01 -0.14260068444E+01 -0.25876583180E+02  0.27741730075E+02  0.51100000000E-03 0.  1.
         11    1    3    3    0    0  0.98981076314E+01  0.14260068444E+01 -0.26145107958E+02  0.27992368613E+02  0.51100000000E-03 0. -1.
<mgrwt>
<rscale>  0 0.20000835E+02</rscale>
<asrwt>0</asrwt>
<pdfrwt beam="2">  1        3 0.82889057E-02 0.20000835E+02</pdfrwt>
<pdfrwt beam="1">  1       -3 0.28556985E-03 0.20000835E+02</pdfrwt>
<totfact> 0.15935447E+06</totfact>
</mgrwt>
</event>
<event>
 5    1  0.4302056E-007  0.2000076E+02  0.7818608E-02  0.1745313E+00
         -3   -1    0    0    0  501 -0.00000000000E+00  0.00000000000E+00  0.66133923676E+01  0.66140462357E+01  0.93000000000E-01 0.  1.
          3   -1    0    0  501    0  0.00000000000E+00 -0.00000000000E+00 -0.15120441649E+02  0.15120727650E+02  0.93000000000E-01 0. -1.
       1023    2    1    2    0    0  0.00000000000E+00  0.00000000000E+00 -0.85070492817E+01  0.21734773886E+02  0.20000762695E+02 0.  0.
        -11    1    3    3    0    0 -0.81085546585E+01 -0.58525687887E+01 -0.43405063211E+01  0.10901431808E+02  0.51100000000E-03 0. -1.
         11    1    3    3    0    0  0.81085546585E+01  0.58525687887E+01 -0.41665429606E+01  0.10833342078E+02  0.51100000000E-03 0.  1.
<mgrwt>
<rscale>  0 0.20000763E+02</rscale>
<asrwt>0</asrwt>
<pdfrwt beam="2">  1        3 0.23262941E-02 0.20000763E+02</pdfrwt>
<pdfrwt beam="1">  1       -3 0.10175173E-02 0.20000763E+02</pdfrwt>
<totfact> 0.17771021E+06</totfact>
</mgrwt>
</event>
<event>
 4    1  0.4133473E-007  0.2013317E+02  0.7818608E-02  0.1742693E+00
          3   -1    0    0  501    0  0.00000000000E+00  0.00000000000E+00  0.50534242369E+01  0.50542799209E+01  0.93000000000E-01 0. -1.
         -3   -1    0    0    0  501 -0.00000000000E+00 -0.00000000000E+00 -0.20050297428E+02  0.20050513109E+02  0.93000000000E-01 0.  1.
        -11    1    1    2    0    0 -0.98974793232E+01  0.16262235612E+01 -0.85648460398E+01  0.13189438501E+02  0.51100000000E-03 0. -1.
         11    1    1    2    0    0  0.98974793232E+01 -0.16262235612E+01 -0.64320271512E+01  0.11915354529E+02  0.51100000000E-03 0.  1.
<mgrwt>
<rscale>  0 0.20133167E+02</rscale>
<asrwt>0</asrwt>
<pdfrwt beam="1">  1        3 0.77753230E-03 0.20133167E+02</pdfrwt>
<pdfrwt beam="2">  1       -3 0.30847435E-02 0.20133167E+02</pdfrwt>
<totfact> 0.17312059E+06</totfact>
</mgrwt>
</event>
<event>
 5    1  0.4133473E-007  0.2000416E+02  0.7818608E-02  0.1745245E+00
          3   -1    0    0  501    0  0.00000000000E+00  0.00000000000E+00  0.94741359025E+00  0.95196717958E+00  0.93000000000E-01 0.  1.
         -3   -1    0    0    0  501 -0.00000000000E+00 -0.00000000000E+00 -0.10533675662E+03  0.10533679768E+03  0.93000000000E-01 0. -1.
       1023    2    1    2    0    0  0.00000000000E+00  0.00000000000E+00 -0.10438934303E+03  0.10628876485E+03  0.20004164465E+02 0.  0.
        -11    1    3    3    0    0  0.44789179331E+01  0.89412101101E+01 -0.53198661203E+02  0.54130430426E+02  0.51100000000E-03 0.  1.
         11    1    3    3    0    0 -0.44789179331E+01 -0.89412101101E+01 -0.51190681828E+02  0.52158334429E+02  0.51100000000E-03 0. -1.
<mgrwt>
<rscale>  0 0.20004164E+02</rscale>
<asrwt>0</asrwt>
<pdfrwt beam="1">  1        3 0.14610945E-03 0.20004164E+02</pdfrwt>
<pdfrwt beam="2">  1       -3 0.16205999E-01 0.20004164E+02</pdfrwt>
<totfact> 0.13960541E+06</totfact>
</mgrwt>
</event>
<event>
 5    1  0.4133473E-007  0.2000402E+02  0.7818608E-02  0.1745248E+00
          3   -1    0    0  501    0  0.00000000000E+00  0.00000000000E+00  0.11424187964E+02  0.11424566496E+02  0.93000000000E-01 0.  1.
         -3   -1    0    0    0  501 -0.00000000000E+00 -0.00000000000E+00 -0.87561099217E+01  0.87566037915E+01  0.93000000000E-01 0. -1.
       1023    2    1    2    0    0  0.00000000000E+00  0.00000000000E+00  0.26680780420E+01  0.20181170288E+02  0.20004024439E+02 0.  0.
        -11    1    3    3    0    0 -0.68136257954E+01  0.73213313742E+01  0.14484389889E+01  0.10105709541E+02  0.51100000000E-03 0. -1.
         11    1    3    3    0    0  0.68136257954E+01 -0.73213313742E+01  0.12196390531E+01  0.10075460746E+02  0.51100000000E-03 0.  1.
<mgrwt>
<rscale>  0 0.20004024E+02</rscale>
<asrwt>0</asrwt>
<pdfrwt beam="1">  1        3 0.17576345E-02 0.20004024E+02</pdfrwt>
<pdfrwt beam="2">  1       -3 0.13471609E-02 0.20004024E+02</pdfrwt>
<totfact> 0.17865920E+06</totfact>
</mgrwt>
</event>
<event>
 5    1  0.4452287E-007  0.2000086E+02  0.7818608E-02  0.1745311E+00
          3   -1    0    0  501    0  0.00000000000E+00  0.00000000000E+00  0.11345139715E+02  0.11345520885E+02  0.93000000000E-01 0.  1.
         -3   -1    0    0    0  501 -0.00000000000E+00 -0.00000000000E+00 -0.88143277495E+01  0.88148183575E+01  0.93000000000E-01 0. -1.
       1023    2    1    2    0    0  0.00000000000E+00  0.00000000000E+00  0.25308119653E+01  0.20160339242E+02  0.20000856711E+02 0.  0.
        -11    1    3    3    0    0  0.34018990326E+01  0.94038955410E+01  0.12160393739E+01  0.10073972424E+02  0.51100000000E-03 0. -1.
         11    1    3    3    0    0 -0.34018990326E+01 -0.94038955410E+01  0.13147725914E+01  0.10086366819E+02  0.51100000000E-03 0.  1.
<mgrwt>
<rscale>  0 0.20000857E+02</rscale>
<asrwt>0</asrwt>
<pdfrwt beam="1">  1        3 0.17454732E-02 0.20000857E+02</pdfrwt>
<pdfrwt beam="2">  1       -3 0.13561175E-02 0.20000857E+02</pdfrwt>
<totfact> 0.17873395E+06</totfact>
</mgrwt>
</event>
<event>
 5    1  0.4140687E-007  0.2000044E+02  0.7818608E-02  0.1745319E+00
         -3   -1    0    0    0  501 -0.00000000000E+00  0.00000000000E+00  0.85744411491E+01  0.85749454820E+01  0.93000000000E-01 0.  1.
          3   -1    0    0  501    0  0.00000000000E+00 -0.00000000000E+00 -0.11662051337E+02  0.11662422149E+02  0.93000000000E-01 0. -1.
       1023    2    1    2    0    0  0.00000000000E+00  0.00000000000E+00 -0.30876101875E+01  0.20237367631E+02  0.20000442794E+02 0.  0.
        -11    1    3    3    0    0 -0.62411602722E+01  0.78135947655E+01 -0.15530248867E+01  0.10120090477E+02  0.51100000000E-03 0.  1.
         11    1    3    3    0    0  0.62411602722E+01 -0.78135947655E+01 -0.15345853008E+01  0.10117277154E+02  0.51100000000E-03 0. -1.
<mgrwt>
<rscale>  0 0.20000443E+02</rscale>
<asrwt>0</asrwt>
<pdfrwt beam="2">  1        3 0.17942291E-02 0.20000443E+02</pdfrwt>
<pdfrwt beam="1">  1       -3 0.13192121E-02 0.20000443E+02</pdfrwt>
<totfact> 0.17869102E+06</totfact>
</mgrwt>
</event>
<event>
 5    1  0.4133473E-007  0.2000574E+02  0.7818608E-02  0.1745214E+00
          3   -1    0    0  501    0  0.00000000000E+00  0.00000000000E+00  0.21698299996E+02  0.21698499297E+02  0.93000000000E-01 0. -1.
         -3   -1    0    0    0  501 -0.00000000000E+00 -0.00000000000E+00 -0.46106126470E+01  0.46115504963E+01  0.93000000000E-01 0.  1.
       1023    2    1    2    0    0  0.00000000000E+00  0.00000000000E+00  0.17087687349E+02  0.26310049793E+02  0.20005740705E+02 0.  0.
        -11    1    3    3    0    0 -0.56877451696E+01  0.82273056088E+01  0.87222957004E+01  0.13270924807E+02  0.51100000000E-03 0.  1.
         11    1    3    3    0    0  0.56877451696E+01 -0.82273056088E+01  0.83653916490E+01  0.13039124986E+02  0.51100000000E-03 0. -1.
<mgrwt>
<rscale>  0 0.20005741E+02</rscale>
<asrwt>0</asrwt>
<pdfrwt beam="1">  1        3 0.33382875E-02 0.20005741E+02</pdfrwt>
<pdfrwt beam="2">  1       -3 0.70941249E-03 0.20005741E+02</pdfrwt>
<totfact> 0.17475446E+06</totfact>
</mgrwt>
</event>
<event>
 5    1  0.4133473E-007  0.2000054E+02  0.7818608E-02  0.1745317E+00
         -3   -1    0    0    0  501 -0.00000000000E+00  0.00000000000E+00  0.41486268490E+02  0.41486372729E+02  0.93000000000E-01 0. -1.
          3   -1    0    0  501    0  0.00000000000E+00 -0.00000000000E+00 -0.24095613653E+01  0.24113554224E+01  0.93000000000E-01 0.  1.
       1023    2    1    2    0    0  0.00000000000E+00  0.00000000000E+00  0.39076707125E+02  0.43897728152E+02  0.20000537422E+02 0.  0.
        -11    1    3    3    0    0  0.98347340086E+01  0.18119733485E+01  0.19512985094E+02  0.21926281672E+02  0.51100000000E-03 0.  1.
         11    1    3    3    0    0 -0.98347340086E+01 -0.18119733485E+01  0.19563722031E+02  0.21971446479E+02  0.51100000000E-03 0. -1.
<mgrwt>
<rscale>  0 0.20000537E+02</rscale>
<asrwt>0</asrwt>
<pdfrwt beam="2">  1        3 0.37084779E-03 0.20000537E+02</pdfrwt>
<pdfrwt beam="1">  1       -3 0.63826485E-02 0.20000537E+02</pdfrwt>
<totfact> 0.16511255E+06</totfact>
</mgrwt>
</event>
<event>
 5    1  0.4133473E-007  0.2000026E+02  0.7818608E-02  0.1745323E+00
         -3   -1    0    0    0  501 -0.00000000000E+00  0.00000000000E+00  0.68916693011E+01  0.68922967692E+01  0.93000000000E-01 0.  1.
          3   -1    0    0  501    0  0.00000000000E+00 -0.00000000000E+00 -0.14509212853E+02  0.14509510902E+02  0.93000000000E-01 0. -1.
       1023    2    1    2    0    0  0.00000000000E+00  0.00000000000E+00 -0.76175435516E+01  0.21401807671E+02  0.20000260044E+02 0.  0.
        -11    1    3    3    0    0 -0.88860594066E+01  0.45868402978E+01 -0.38494417060E+01  0.10715379480E+02  0.51100000000E-03 0. -1.
         11    1    3    3    0    0  0.88860594066E+01 -0.45868402978E+01 -0.37681018455E+01  0.10686428191E+02  0.51100000000E-03 0.  1.
<mgrwt>
<rscale>  0 0.20000260E+02</rscale>
<asrwt>0</asrwt>
<pdfrwt beam="2">  1        3 0.22322578E-02 0.20000260E+02</pdfrwt>
<pdfrwt beam="1">  1       -3 0.10603280E-02 0.20000260E+02</pdfrwt>
<totfact> 0.17793472E+06</totfact>
</mgrwt>
</event>
<event>
 5    1  0.4133473E-007  0.2000001E+02  0.7818608E-02  0.1745328E+00
          3   -1    0    0  501    0  0.00000000000E+00  0.00000000000E+00  0.10708133990E+01  0.10748443308E+01  0.93000000000E-01 0. -1.
         -3   -1    0    0    0  501 -0.00000000000E+00 -0.00000000000E+00 -0.93207510583E+02  0.93207556979E+02  0.93000000000E-01 0.  1.
       1023    2    1    2    0    0  0.00000000000E+00  0.00000000000E+00 -0.92136697184E+02  0.94282401310E+02  0.20000005722E+02 0.  0.
        -11    1    3    3    0    0  0.84890815230E+01  0.52854065139E+01 -0.46094097109E+02  0.47166363181E+02  0.51100000000E-03 0. -1.
         11    1    3    3    0    0 -0.84890815230E+01 -0.52854065139E+01 -0.46042600074E+02  0.47116038129E+02  0.51100000000E-03 0.  1.
<mgrwt>
<rscale>  0 0.20000006E+02</rscale>
<asrwt>0</asrwt>
<pdfrwt beam="1">  1        3 0.16505424E-03 0.20000006E+02</pdfrwt>
<pdfrwt beam="2">  1       -3 0.14339924E-01 0.20000006E+02</pdfrwt>
<totfact> 0.14382013E+06</totfact>
</mgrwt>
</event>
<event>
 5    1  0.4133473E-007  0.2000437E+02  0.7818608E-02  0.1745241E+00
          3   -1    0    0  501    0  0.00000000000E+00  0.00000000000E+00  0.39943794754E+01  0.39954619750E+01  0.93000000000E-01 0. -1.
         -3   -1    0    0    0  501 -0.00000000000E+00 -0.00000000000E+00 -0.25041565173E+02  0.25041737865E+02  0.93000000000E-01 0.  1.
       1023    2    1    2    0    0  0.00000000000E+00  0.00000000000E+00 -0.21047185698E+02  0.29037199840E+02  0.20004373241E+02 0.  0.
        -11    1    3    3    0    0 -0.75876367757E+01  0.65170044992E+01 -0.10505379036E+02  0.14505397907E+02  0.51100000000E-03 0. -1.
         11    1    3    3    0    0  0.75876367757E+01 -0.65170044992E+01 -0.10541806662E+02  0.14531801934E+02  0.51100000000E-03 0.  1.
<mgrwt>
<rscale>  0 0.20004373E+02</rscale>
<asrwt>0</asrwt>
<pdfrwt beam="1">  1        3 0.61461649E-03 0.20004373E+02</pdfrwt>
<pdfrwt beam="2">  1       -3 0.38526449E-02 0.20004373E+02</pdfrwt>
<totfact> 0.17316332E+06</totfact>
</mgrwt>
</event>
<event>
 5    1  0.4133473E-007  0.2000039E+02  0.7818608E-02  0.1745320E+00
         -3   -1    0    0    0  501 -0.00000000000E+00  0.00000000000E+00  0.83002050345E+01  0.83007260294E+01  0.93000000000E-01 0. -1.
          3   -1    0    0  501    0  0.00000000000E+00 -0.00000000000E+00 -0.12047291479E+02  0.12047650434E+02  0.93000000000E-01 0.  1.
       1023    2    1    2    0    0  0.00000000000E+00  0.00000000000E+00 -0.37470864448E+01  0.20348376464E+02  0.20000394193E+02 0.  0.
        -11    1    3    3    0    0  0.95137322923E+01 -0.30810257679E+01 -0.18624075606E+01  0.10172137636E+02  0.51100000000E-03 0. -1.
         11    1    3    3    0    0 -0.95137322923E+01  0.30810257679E+01 -0.18846788842E+01  0.10176238827E+02  0.51100000000E-03 0.  1.
<mgrwt>
<rscale>  0 0.20000394E+02</rscale>
<asrwt>0</asrwt>
<pdfrwt beam="2">  1        3 0.18534971E-02 0.20000394E+02</pdfrwt>
<pdfrwt beam="1">  1       -3 0.12770223E-02 0.20000394E+02</pdfrwt>
<totfact> 0.17861895E+06</totfact>
</mgrwt>
</event>
<event>
 5    1  0.4182370E-007  0.2000088E+02  0.7818608E-02  0.1745311E+00
          3   -1    0    0  501    0  0.00000000000E+00  0.00000000000E+00  0.40746970324E+02  0.40747076454E+02  0.93000000000E-01 0. -1.
         -3   -1    0    0    0  501 -0.00000000000E+00 -0.00000000000E+00 -0.24533964027E+01  0.24551584284E+01  0.93000000000E-01 0.  1.
       1023    2    1    2    0    0  0.00000000000E+00  0.00000000000E+00  0.38293573921E+02  0.43202234883E+02  0.20000882361E+02 0.  0.
        -11    1    3    3    0    0 -0.54467218912E+01 -0.83867408752E+01  0.19293631086E+02  0.21731277059E+02  0.51100000000E-03 0.  1.
         11    1    3    3    0    0  0.54467218912E+01  0.83867408752E+01  0.18999942835E+02  0.21470957824E+02  0.51100000000E-03 0. -1.
<mgrwt>
<rscale>  0 0.20000882E+02</rscale>
<asrwt>0</asrwt>
<pdfrwt beam="1">  1        3 0.62689082E-02 0.20000882E+02</pdfrwt>
<pdfrwt beam="2">  1       -3 0.37758932E-03 0.20000882E+02</pdfrwt>
<totfact> 0.16543817E+06</totfact>
</mgrwt>
</event>
<event>
 5    1  0.4133473E-007  0.2000250E+02  0.7818608E-02  0.1745278E+00
         -3   -1    0    0    0  501 -0.00000000000E+00  0.00000000000E+00  0.13871488739E+01  0.13902629242E+01  0.93000000000E-01 0. -1.
          3   -1    0    0  501    0  0.00000000000E+00 -0.00000000000E+00 -0.72024342794E+02  0.72024402836E+02  0.93000000000E-01 0.  1.
       1023    2    1    2    0    0  0.00000000000E+00  0.00000000000E+00 -0.70637193920E+02  0.73414665760E+02  0.20002499439E+02 0.  0.
        -11    1    3    3    0    0 -0.99215215423E+01  0.12575396376E+01 -0.35011518954E+02  0.36411872451E+02  0.51100000000E-03 0. -1.
         11    1    3    3    0    0  0.99215215423E+01 -0.12575396376E+01 -0.35625674966E+02  0.37002793309E+02  0.51100000000E-03 0.  1.
<mgrwt>
<rscale>  0 0.20002499E+02</rscale>
<asrwt>0</asrwt>
<pdfrwt beam="2">  1        3 0.11080909E-01 0.20002499E+02</pdfrwt>
<pdfrwt beam="1">  1       -3 0.21365174E-03 0.20002499E+02</pdfrwt>
<totfact> 0.15168809E+06</totfact>
</mgrwt>
</event>
<event>
 5    1  0.4133473E-007  0.2000046E+02  0.7818608E-02  0.1745319E+00
          3   -1    0    0  501    0  0.00000000000E+00  0.00000000000E+00  0.11569739808E+01  0.11607057303E+01  0.93000000000E-01 0. -1.
         -3   -1    0    0    0  501 -0.00000000000E+00 -0.00000000000E+00 -0.86293410074E+02  0.86293460188E+02  0.93000000000E-01 0.  1.
       1023    2    1    2    0    0  0.00000000000E+00  0.00000000000E+00 -0.85136436093E+02  0.87454165918E+02  0.20000459640E+02 0.  0.
        -11    1    3    3    0    0  0.37126106879E+01 -0.92853016243E+01 -0.42854676058E+02  0.44005949197E+02  0.51100000000E-03 0. -1.
         11    1    3    3    0    0 -0.37126106879E+01  0.92853016243E+01 -0.42281760035E+02  0.43448216722E+02  0.51100000000E-03 0.  1.
<mgrwt>
<rscale>  0 0.20000460E+02</rscale>
<asrwt>0</asrwt>
<pdfrwt beam="1">  1        3 0.17828698E-03 0.20000460E+02</pdfrwt>
<pdfrwt beam="2">  1       -3 0.13276195E-01 0.20000460E+02</pdfrwt>
<totfact> 0.14630307E+06</totfact>
</mgrwt>
</event>
<event>
 5    1  0.4133473E-007  0.2000802E+02  0.7818608E-02  0.1745169E+00
         -3   -1    0    0    0  501 -0.00000000000E+00  0.00000000000E+00  0.21297067633E+02  0.21297270688E+02  0.93000000000E-01 0. -1.
          3   -1    0    0  501    0  0.00000000000E+00 -0.00000000000E+00 -0.46985606972E+01  0.46994809953E+01  0.93000000000E-01 0.  1.
       1023    2    1    2    0    0  0.00000000000E+00  0.00000000000E+00  0.16598506936E+02  0.25996751683E+02  0.20008015034E+02 0.  0.
        -11    1    3    3    0    0  0.95285243107E+01  0.30406371894E+01  0.85652680282E+01  0.13168221851E+02  0.51100000000E-03 0.  1.
         11    1    3    3    0    0 -0.95285243107E+01 -0.30406371894E+01  0.80332389074E+01  0.12828529832E+02  0.51100000000E-03 0. -1.
<mgrwt>
<rscale>  0 0.20008015E+02</rscale>
<asrwt>0</asrwt>
<pdfrwt beam="2">  1        3 0.72294190E-03 0.20008015E+02</pdfrwt>
<pdfrwt beam="1">  1       -3 0.32765584E-02 0.20008015E+02</pdfrwt>
<totfact> 0.17491580E+06</totfact>
</mgrwt>
</event>
<event>
 5    1  0.4240957E-007  0.2000128E+02  0.7818608E-02  0.1745303E+00
         -3   -1    0    0    0  501 -0.00000000000E+00  0.00000000000E+00  0.36592268050E+02  0.36592386230E+02  0.93000000000E-01 0.  1.
          3   -1    0    0  501    0  0.00000000000E+00 -0.00000000000E+00 -0.27322524972E+01  0.27338347990E+01  0.93000000000E-01 0. -1.
       1023    2    1    2    0    0  0.00000000000E+00  0.00000000000E+00  0.33860015552E+02  0.39326221029E+02  0.20001275140E+02 0.  0.
        -11    1    3    3    0    0  0.77579057356E+01 -0.63104904517E+01  0.17073961596E+02  0.19787055263E+02  0.51100000000E-03 0.  1.
         11    1    3    3    0    0 -0.77579057356E+01  0.63104904517E+01  0.16786053957E+02  0.19539165766E+02  0.51100000000E-03 0. -1.
<mgrwt>
<rscale>  0 0.20001275E+02</rscale>
<asrwt>0</asrwt>
<pdfrwt beam="2">  1        3 0.42047732E-03 0.20001275E+02</pdfrwt>
<pdfrwt beam="1">  1       -3 0.56297109E-02 0.20001275E+02</pdfrwt>
<totfact> 0.16747384E+06</totfact>
</mgrwt>
</event>
<event>
 5    1  0.4232341E-007  0.2000237E+02  0.7818608E-02  0.1745281E+00
         -3   -1    0    0    0  501 -0.00000000000E+00  0.00000000000E+00  0.61018761658E+01  0.61025848411E+01  0.93000000000E-01 0. -1.
          3   -1    0    0  501    0  0.00000000000E+00 -0.00000000000E+00 -0.16390491654E+02  0.16390755494E+02  0.93000000000E-01 0.  1.
       1023    2    1    2    0    0  0.00000000000E+00  0.00000000000E+00 -0.10288615488E+02  0.22493340335E+02  0.20002368629E+02 0.  0.
        -11    1    3    3    0    0 -0.99602472769E+01 -0.89143882217E+00 -0.49756335263E+01  0.11169517368E+02  0.51100000000E-03 0. -1.
         11    1    3    3    0    0  0.99602472769E+01  0.89143882217E+00 -0.53129819617E+01  0.11323822967E+02  0.51100000000E-03 0.  1.
<mgrwt>
<rscale>  0 0.20002369E+02</rscale>
<asrwt>0</asrwt>
<pdfrwt beam="2">  1        3 0.25216889E-02 0.20002369E+02</pdfrwt>
<pdfrwt beam="1">  1       -3 0.93882499E-03 0.20002369E+02</pdfrwt>
<totfact> 0.17719394E+06</totfact>
</mgrwt>
</event>
<event>
 5    1  0.4170395E-007  0.2000192E+02  0.7818608E-02  0.1745290E+00
         -3   -1    0    0    0  501 -0.00000000000E+00  0.00000000000E+00  0.37907574863E+01  0.37918981157E+01  0.93000000000E-01 0.  1.
          3   -1    0    0  501    0  0.00000000000E+00 -0.00000000000E+00 -0.26379838446E+02  0.26380002377E+02  0.93000000000E-01 0. -1.
       1023    2    1    2    0    0  0.00000000000E+00  0.00000000000E+00 -0.22589080960E+02  0.30171900493E+02  0.20001924926E+02 0.  0.
        -11    1    3    3    0    0 -0.84694109335E+01 -0.53171849822E+01 -0.11104498343E+02  0.14943669610E+02  0.51100000000E-03 0.  1.
         11    1    3    3    0    0  0.84694109335E+01  0.53171849822E+01 -0.11484582617E+02  0.15228230884E+02  0.51100000000E-03 0. -1.
<mgrwt>
<rscale>  0 0.20001925E+02</rscale>
<asrwt>0</asrwt>
<pdfrwt beam="2">  1        3 0.40585369E-02 0.20001925E+02</pdfrwt>
<pdfrwt beam="1">  1       -3 0.58329383E-03 0.20001925E+02</pdfrwt>
<totfact> 0.17252800E+06</totfact>
</mgrwt>
</event>
<event>
 5    1  0.4133473E-007  0.2000014E+02  0.7818608E-02  0.1745325E+00
          3   -1    0    0  501    0  0.00000000000E+00  0.00000000000E+00  0.23448765960E+01  0.23467201048E+01  0.93000000000E-01 0. -1.
         -3   -1    0    0    0  501 -0.00000000000E+00 -0.00000000000E+00 -0.42628108668E+02  0.42628210115E+02  0.93000000000E-01 0.  1.
       1023    2    1    2    0    0  0.00000000000E+00  0.00000000000E+00 -0.40283232072E+02  0.44974930220E+02  0.20000139052E+02 0.  0.
        -11    1    3    3    0    0  0.99880908756E+01  0.48921216710E+00 -0.20164369732E+02  0.22507845184E+02  0.51100000000E-03 0. -1.
         11    1    3    3    0    0 -0.99880908756E+01 -0.48921216710E+00 -0.20118862341E+02  0.22467085036E+02  0.51100000000E-03 0.  1.
<mgrwt>
<rscale>  0 0.20000139E+02</rscale>
<asrwt>0</asrwt>
<pdfrwt beam="1">  1        3 0.36089989E-03 0.20000139E+02</pdfrwt>
<pdfrwt beam="2">  1       -3 0.65583196E-02 0.20000139E+02</pdfrwt>
<totfact> 0.16457368E+06</totfact>
</mgrwt>
</event>
<event>
 5    1  0.4187684E-007  0.2000106E+02  0.7818608E-02  0.1745307E+00
         -3   -1    0    0    0  501 -0.00000000000E+00  0.00000000000E+00  0.49106898873E+01  0.49115704382E+01  0.93000000000E-01 0.  1.
          3   -1    0    0  501    0  0.00000000000E+00 -0.00000000000E+00 -0.20363085269E+02  0.20363297637E+02  0.93000000000E-01 0. -1.
       1023    2    1    2    0    0  0.00000000000E+00  0.00000000000E+00 -0.15452395382E+02  0.25274868076E+02  0.20001060802E+02 0.  0.
        -11    1    3    3    0    0  0.86684652876E+01  0.49866331883E+01 -0.76724796463E+01  0.12604592226E+02  0.51100000000E-03 0. -1.
         11    1    3    3    0    0 -0.86684652876E+01 -0.49866331883E+01 -0.77799157353E+01  0.12670275850E+02  0.51100000000E-03 0.  1.
<mgrwt>
<rscale>  0 0.20001061E+02</rscale>
<asrwt>0</asrwt>
<pdfrwt beam="2">  1        3 0.31328664E-02 0.20001061E+02</pdfrwt>
<pdfrwt beam="1">  1       -3 0.75557483E-03 0.20001061E+02</pdfrwt>
<totfact> 0.17547634E+06</totfact>
</mgrwt>
</event>
<event>
 5    1  0.4345736E-007  0.2000133E+02  0.7818608E-02  0.1745302E+00
         -3   -1    0    0    0  501 -0.00000000000E+00  0.00000000000E+00  0.11049075814E+02  0.11049467197E+02  0.93000000000E-01 0. -1.
          3   -1    0    0  501    0  0.00000000000E+00 -0.00000000000E+00 -0.90509446003E+01  0.90514223831E+01  0.93000000000E-01 0.  1.
       1023    2    1    2    0    0  0.00000000000E+00  0.00000000000E+00  0.19981312137E+01  0.20100889580E+02  0.20001330795E+02 0.  0.
        -11    1    3    3    0    0 -0.82915013025E+01 -0.55907885688E+01  0.91262898602E+00  0.10041852548E+02  0.51100000000E-03 0. -1.
         11    1    3    3    0    0  0.82915013025E+01  0.55907885688E+01  0.10855022277E+01  0.10059037032E+02  0.51100000000E-03 0.  1.
<mgrwt>
<rscale>  0 0.20001331E+02</rscale>
<asrwt>0</asrwt>
<pdfrwt beam="2">  1        3 0.13925199E-02 0.20001331E+02</pdfrwt>
<pdfrwt beam="1">  1       -3 0.16999247E-02 0.20001331E+02</pdfrwt>
<totfact> 0.17876594E+06</totfact>
</mgrwt>
</event>
<event>
 5    1  0.4133473E-007  0.2000206E+02  0.7818608E-02  0.1745287E+00
          3   -1    0    0  501    0  0.00000000000E+00  0.00000000000E+00  0.93718980246E+00  0.94179282533E+00  0.93000000000E-01 0.  1.
         -3   -1    0    0    0  501 -0.00000000000E+00 -0.00000000000E+00 -0.10645784433E+03  0.10645788495E+03  0.93000000000E-01 0. -1.
       1023    2    1    2    0    0  0.00000000000E+00  0.00000000000E+00 -0.10552065453E+03  0.10739967778E+03  0.20002056262E+02 0.  0.
        -11    1    3    3    0    0 -0.51804480526E+01 -0.85535476749E+01 -0.53526173910E+02  0.54452286577E+02  0.51100000000E-03 0. -1.
         11    1    3    3    0    0  0.51804480526E+01  0.85535476749E+01 -0.51994480620E+02  0.52947391201E+02  0.51100000000E-03 0.  1.
<mgrwt>
<rscale>  0 0.20002056E+02</rscale>
<asrwt>0</asrwt>
<pdfrwt beam="1">  1        3 0.14454033E-03 0.20002056E+02</pdfrwt>
<pdfrwt beam="2">  1       -3 0.16378478E-01 0.20002056E+02</pdfrwt>
<totfact> 0.13926622E+06</totfact>
</mgrwt>
</event>
<event>
 5    1  0.4133473E-007  0.2000016E+02  0.7818608E-02  0.1745325E+00
          3   -1    0    0  501    0  0.00000000000E+00  0.00000000000E+00  0.59946901748E+01  0.59954115198E+01  0.93000000000E-01 0. -1.
         -3   -1    0    0    0  501 -0.00000000000E+00 -0.00000000000E+00 -0.16679841728E+02  0.16680100991E+02  0.93000000000E-01 0.  1.
       1023    2    1    2    0    0  0.00000000000E+00  0.00000000000E+00 -0.10685151554E+02  0.22675512511E+02  0.20000160097E+02 0.  0.
        -11    1    3    3    0    0  0.92294500942E+01  0.38495216674E+01 -0.53492458663E+01  0.11340899334E+02  0.51100000000E-03 0. -1.
         11    1    3    3    0    0 -0.92294500942E+01 -0.38495216674E+01 -0.53359056873E+01  0.11334613177E+02  0.51100000000E-03 0.  1.
<mgrwt>
<rscale>  0 0.20000160E+02</rscale>
<asrwt>0</asrwt>
<pdfrwt beam="1">  1        3 0.92233547E-03 0.20000160E+02</pdfrwt>
<pdfrwt beam="2">  1       -3 0.25662049E-02 0.20000160E+02</pdfrwt>
<totfact> 0.17712907E+06</totfact>
</mgrwt>
</event>
<event>
 5    1  0.4237237E-007  0.2000098E+02  0.7818608E-02  0.1745309E+00
          3   -1    0    0  501    0  0.00000000000E+00  0.00000000000E+00  0.26850351553E+01  0.26866452659E+01  0.93000000000E-01 0.  1.
         -3   -1    0    0    0  501 -0.00000000000E+00 -0.00000000000E+00 -0.37234285819E+02  0.37234401961E+02  0.93000000000E-01 0. -1.
       1023    2    1    2    0    0  0.00000000000E+00  0.00000000000E+00 -0.34549250663E+02  0.39921047227E+02  0.20000982234E+02 0.  0.
        -11    1    3    3    0    0 -0.39975608610E+01  0.91666751134E+01 -0.17200027645E+02  0.19895963830E+02  0.51100000000E-03 0. -1.
         11    1    3    3    0    0  0.39975608610E+01 -0.91666751134E+01 -0.17349223019E+02  0.20025083398E+02  0.51100000000E-03 0.  1.
<mgrwt>
<rscale>  0 0.20000982E+02</rscale>
<asrwt>0</asrwt>
<pdfrwt beam="1">  1        3 0.41321515E-03 0.20000982E+02</pdfrwt>
<pdfrwt beam="2">  1       -3 0.57284841E-02 0.20000982E+02</pdfrwt>
<totfact> 0.16716453E+06</totfact>
</mgrwt>
</event>
<event>
 5    1  0.4133473E-007  0.2000465E+02  0.7818608E-02  0.1745236E+00
          3   -1    0    0  501    0  0.00000000000E+00  0.00000000000E+00  0.83840292978E+00  0.84354518116E+00  0.93000000000E-01 0.  1.
         -3   -1    0    0    0  501 -0.00000000000E+00 -0.00000000000E+00 -0.11895985691E+03  0.11895989326E+03  0.93000000000E-01 0. -1.
       1023    2    1    2    0    0  0.00000000000E+00  0.00000000000E+00 -0.11812145398E+03  0.11980343844E+03  0.20004648773E+02 0.  0.
        -11    1    3    3    0    0 -0.73841699945E+01  0.67464883539E+01 -0.59501675968E+02  0.60336477482E+02  0.51100000000E-03 0. -1.
         11    1    3    3    0    0  0.73841699945E+01 -0.67464883539E+01 -0.58619778010E+02  0.59466960960E+02  0.51100000000E-03 0.  1.
<mgrwt>
<rscale>  0 0.20004649E+02</rscale>
<asrwt>0</asrwt>
<pdfrwt beam="1">  1        3 0.12938351E-03 0.20004649E+02</pdfrwt>
<pdfrwt beam="2">  1       -3 0.18301901E-01 0.20004649E+02</pdfrwt>
<totfact> 0.13523045E+06</totfact>
</mgrwt>
</event>
<event>
 5    1  0.4133473E-007  0.2000599E+02  0.7818608E-02  0.1745209E+00
          3   -1    0    0  501    0  0.00000000000E+00  0.00000000000E+00  0.11215243695E+02  0.11215629279E+02  0.93000000000E-01 0.  1.
         -3   -1    0    0    0  501 -0.00000000000E+00 -0.00000000000E+00 -0.89209943085E+01  0.89214790507E+01  0.93000000000E-01 0. -1.
       1023    2    1    2    0    0  0.00000000000E+00  0.00000000000E+00  0.22942493862E+01  0.20137108330E+02  0.20005987895E+02 0.  0.
        -11    1    3    3    0    0  0.73424006170E+01 -0.67923022781E+01  0.10294370719E+01  0.10055145847E+02  0.51100000000E-03 0.  1.
         11    1    3    3    0    0 -0.73424006170E+01  0.67923022781E+01  0.12648123142E+01  0.10081962483E+02  0.51100000000E-03 0. -1.
<mgrwt>
<rscale>  0 0.20005988E+02</rscale>
<asrwt>0</asrwt>
<pdfrwt beam="1">  1        3 0.17254890E-02 0.20005988E+02</pdfrwt>
<pdfrwt beam="2">  1       -3 0.13725276E-02 0.20005988E+02</pdfrwt>
<totfact> 0.17865061E+06</totfact>
</mgrwt>
</event>
<event>
 5    1  0.4133473E-007  0.2000063E+02  0.7818608E-02  0.1745316E+00
         -3   -1    0    0    0  501 -0.00000000000E+00  0.00000000000E+00  0.89720168509E+02  0.89720216709E+02  0.93000000000E-01 0.  1.
          3   -1    0    0  501    0  0.00000000000E+00 -0.00000000000E+00 -0.11126582571E+01  0.11165381306E+01  0.93000000000E-01 0. -1.
       1023    2    1    2    0    0  0.00000000000E+00  0.00000000000E+00  0.88607510252E+02  0.90836754839E+02  0.20000628909E+02 0.  0.
        -11    1    3    3    0    0  0.74630323899E+01 -0.66563228435E+01  0.44544193799E+02  0.45652915435E+02  0.51100000000E-03 0. -1.
         11    1    3    3    0    0 -0.74630323899E+01  0.66563228435E+01  0.44063316452E+02  0.45183839404E+02  0.51100000000E-03 0.  1.
<mgrwt>
<rscale>  0 0.20000629E+02</rscale>
<asrwt>0</asrwt>
<pdfrwt beam="2">  1        3 0.17148039E-03 0.20000629E+02</pdfrwt>
<pdfrwt beam="1">  1       -3 0.13803402E-01 0.20000629E+02</pdfrwt>
<totfact> 0.14505457E+06</totfact>
</mgrwt>
</event>
<event>
 5    1  0.4149829E-007  0.2000180E+02  0.7818608E-02  0.1745292E+00
         -3   -1    0    0    0  501 -0.00000000000E+00  0.00000000000E+00  0.51909400446E+01  0.51917730639E+01  0.93000000000E-01 0. -1.
          3   -1    0    0  501    0  0.00000000000E+00 -0.00000000000E+00 -0.19265305425E+02  0.19265529894E+02  0.93000000000E-01 0.  1.
       1023    2    1    2    0    0  0.00000000000E+00  0.00000000000E+00 -0.14074365380E+02  0.24457302958E+02  0.20001797598E+02 0.  0.
        -11    1    3    3    0    0 -0.13280373255E+01 -0.99122869418E+01 -0.70013043156E+01  0.12208004666E+02  0.51100000000E-03 0.  1.
         11    1    3    3    0    0  0.13280373255E+01  0.99122869418E+01 -0.70730610644E+01  0.12249298292E+02  0.51100000000E-03 0. -1.
<mgrwt>
<rscale>  0 0.20001798E+02</rscale>
<asrwt>0</asrwt>
<pdfrwt beam="2">  1        3 0.29639745E-02 0.20001798E+02</pdfrwt>
<pdfrwt beam="1">  1       -3 0.79868751E-03 0.20001798E+02</pdfrwt>
<totfact> 0.17596897E+06</totfact>
</mgrwt>
</event>
<event>
 5    1  0.4133473E-007  0.2000207E+02  0.7818608E-02  0.1745287E+00
          3   -1    0    0  501    0  0.00000000000E+00  0.00000000000E+00  0.20565181236E+01  0.20586198757E+01  0.93000000000E-01 0. -1.
         -3   -1    0    0    0  501 -0.00000000000E+00 -0.00000000000E+00 -0.48608963290E+02  0.48609052255E+02  0.93000000000E-01 0.  1.
       1023    2    1    2    0    0  0.00000000000E+00  0.00000000000E+00 -0.46552445167E+02  0.50667672131E+02  0.20002071097E+02 0.  0.
        -11    1    3    3    0    0  0.83961491901E+01 -0.54318400463E+01 -0.23638948153E+02  0.25667101074E+02  0.51100000000E-03 0. -1.
         11    1    3    3    0    0 -0.83961491901E+01  0.54318400463E+01 -0.22913497014E+02  0.25000571057E+02  0.51100000000E-03 0.  1.
<mgrwt>
<rscale>  0 0.20002071E+02</rscale>
<asrwt>0</asrwt>
<pdfrwt beam="1">  1        3 0.31655596E-03 0.20002071E+02</pdfrwt>
<pdfrwt beam="2">  1       -3 0.74784697E-02 0.20002071E+02</pdfrwt>
<totfact> 0.16174034E+06</totfact>
</mgrwt>
</event>
<event>
 5    1  0.4133473E-007  0.2000145E+02  0.7818608E-02  0.1745299E+00
         -3   -1    0    0    0  501 -0.00000000000E+00  0.00000000000E+00  0.52958347117E+02  0.52958428775E+02  0.93000000000E-01 0.  1.
          3   -1    0    0  501    0  0.00000000000E+00 -0.00000000000E+00 -0.18873226686E+01  0.18896126204E+01  0.93000000000E-01 0. -1.
       1023    2    1    2    0    0  0.00000000000E+00  0.00000000000E+00  0.51071024448E+02  0.54848041395E+02  0.20001452616E+02 0.  0.
        -11    1    3    3    0    0  0.84422273026E+01  0.53611851763E+01  0.25448014778E+02  0.27342548614E+02  0.51100000000E-03 0. -1.
         11    1    3    3    0    0 -0.84422273026E+01 -0.53611851763E+01  0.25623009670E+02  0.27505492781E+02  0.51100000000E-03 0.  1.
<mgrwt>
<rscale>  0 0.20001453E+02</rscale>
<asrwt>0</asrwt>
<pdfrwt beam="2">  1        3 0.29053979E-03 0.20001453E+02</pdfrwt>
<pdfrwt beam="1">  1       -3 0.81476196E-02 0.20001453E+02</pdfrwt>
<totfact> 0.15978006E+06</totfact>
</mgrwt>
</event>
<event>
 5    1  0.4133473E-007  0.2000644E+02  0.7818608E-02  0.1745200E+00
          3   -1    0    0  501    0  0.00000000000E+00  0.00000000000E+00  0.64498736335E+01  0.64505440769E+01  0.93000000000E-01 0.  1.
         -3   -1    0    0    0  501 -0.00000000000E+00 -0.00000000000E+00 -0.15512556279E+02  0.15512835050E+02  0.93000000000E-01 0. -1.
       1023    2    1    2    0    0  0.00000000000E+00  0.00000000000E+00 -0.90626826452E+01  0.21963379127E+02  0.20006444111E+02 0.  0.
        -11    1    3    3    0    0  0.30751867964E+01 -0.95168435945E+01 -0.43191322093E+01  0.10894126360E+02  0.51100000000E-03 0. -1.
         11    1    3    3    0    0 -0.30751867964E+01  0.95168435945E+01 -0.47435504359E+01  0.11069252768E+02  0.51100000000E-03 0.  1.
<mgrwt>
<rscale>  0 0.20006444E+02</rscale>
<asrwt>0</asrwt>
<pdfrwt beam="1">  1        3 0.99236127E-03 0.20006444E+02</pdfrwt>
<pdfrwt beam="2">  1       -3 0.23866201E-02 0.20006444E+02</pdfrwt>
<totfact> 0.17746252E+06</totfact>
</mgrwt>
</event>
<event>
 4    1  0.4133473E-007  0.2001508E+02  0.7818608E-02  0.1745028E+00
          3   -1    0    0  501    0  0.00000000000E+00  0.00000000000E+00  0.21486507609E+02  0.21486708874E+02  0.93000000000E-01 0.  1.
         -3   -1    0    0    0  501 -0.00000000000E+00 -0.00000000000E+00 -0.46604164290E+01  0.46613442580E+01  0.93000000000E-01 0. -1.
        -11    1    1    2    0    0 -0.71244530311E+01 -0.70236510118E+01  0.80895132415E+01  0.12865835739E+02  0.51100000000E-03 0.  1.
         11    1    1    2    0    0  0.71244530311E+01  0.70236510118E+01  0.87365779384E+01  0.13282217392E+02  0.51100000000E-03 0. -1.
<mgrwt>
<rscale>  0 0.20015078E+02</rscale>
<asrwt>0</asrwt>
<pdfrwt beam="1">  1        3 0.33057034E-02 0.20015078E+02</pdfrwt>
<pdfrwt beam="2">  1       -3 0.71707400E-03 0.20015078E+02</pdfrwt>
<totfact> 0.17467749E+06</totfact>
</mgrwt>
</event>
<event>
 5    1  0.4133473E-007  0.2000037E+02  0.7818608E-02  0.1745321E+00
          3   -1    0    0  501    0  0.00000000000E+00  0.00000000000E+00  0.11859742276E+01  0.11896150085E+01  0.93000000000E-01 0. -1.
         -3   -1    0    0    0  501 -0.00000000000E+00 -0.00000000000E+00 -0.84189110477E+02  0.84189161843E+02  0.93000000000E-01 0.  1.
       1023    2    1    2    0    0  0.00000000000E+00  0.00000000000E+00 -0.83003136249E+02  0.85378776852E+02  0.20000372734E+02 0.  0.
        -11    1    3    3    0    0 -0.99438780029E+01 -0.10596445468E+01 -0.41445776083E+02  0.42635148782E+02  0.51100000000E-03 0. -1.
         11    1    3    3    0    0  0.99438780029E+01  0.10596445468E+01 -0.41557360166E+02  0.42743628070E+02  0.51100000000E-03 0.  1.
<mgrwt>
<rscale>  0 0.20000373E+02</rscale>
<asrwt>0</asrwt>
<pdfrwt beam="1">  1        3 0.18274165E-03 0.20000373E+02</pdfrwt>
<pdfrwt beam="2">  1       -3 0.12952450E-01 0.20000373E+02</pdfrwt>
<totfact> 0.14708132E+06</totfact>
</mgrwt>
</event>
<event>
 5    1  0.4133473E-007  0.2000196E+02  0.7818608E-02  0.1745289E+00
         -3   -1    0    0    0  501 -0.00000000000E+00  0.00000000000E+00  0.17756608765E+01  0.17780946398E+01  0.93000000000E-01 0. -1.
          3   -1    0    0  501    0  0.00000000000E+00 -0.00000000000E+00 -0.56287046935E+02  0.56287123765E+02  0.93000000000E-01 0.  1.
       1023    2    1    2    0    0  0.00000000000E+00  0.00000000000E+00 -0.54511386059E+02  0.58065218405E+02  0.20001959362E+02 0.  0.
        -11    1    3    3    0    0 -0.90835083388E+01  0.41821619199E+01 -0.26855626961E+02  0.28657028837E+02  0.51100000000E-03 0. -1.
         11    1    3    3    0    0  0.90835083388E+01 -0.41821619199E+01 -0.27655759098E+02  0.29408189567E+02  0.51100000000E-03 0.  1.
<mgrwt>
<rscale>  0 0.20001959E+02</rscale>
<asrwt>0</asrwt>
<pdfrwt beam="2">  1        3 0.86597374E-02 0.20001959E+02</pdfrwt>
<pdfrwt beam="1">  1       -3 0.27337176E-03 0.20001959E+02</pdfrwt>
<totfact> 0.15827182E+06</totfact>
</mgrwt>
</event>
<event>
 5    1  0.4133473E-007  0.2000275E+02  0.7818608E-02  0.1745273E+00
          3   -1    0    0  501    0  0.00000000000E+00  0.00000000000E+00  0.24153379278E+01  0.24171276974E+01  0.93000000000E-01 0.  1.
         -3   -1    0    0    0  501 -0.00000000000E+00 -0.00000000000E+00 -0.41396277414E+02  0.41396381880E+02  0.93000000000E-01 0. -1.
       1023    2    1    2    0    0  0.00000000000E+00  0.00000000000E+00 -0.38980939486E+02  0.43813509577E+02  0.20002749267E+02 0.  0.
        -11    1    3    3    0    0  0.60694808073E+01 -0.79484555331E+01 -0.19261246578E+02  0.21702814624E+02  0.51100000000E-03 0. -1.
         11    1    3    3    0    0 -0.60694808073E+01  0.79484555331E+01 -0.19719692909E+02  0.22110694953E+02  0.51100000000E-03 0.  1.
<mgrwt>
<rscale>  0 0.20002749E+02</rscale>
<asrwt>0</asrwt>
<pdfrwt beam="1">  1        3 0.37173619E-03 0.20002749E+02</pdfrwt>
<pdfrwt beam="2">  1       -3 0.63688033E-02 0.20002749E+02</pdfrwt>
<totfact> 0.16511622E+06</totfact>
</mgrwt>
</event>
<event>
 5    1  0.4137931E-007  0.2000081E+02  0.7818608E-02  0.1745312E+00
         -3   -1    0    0    0  501 -0.00000000000E+00  0.00000000000E+00  0.15242188889E+02  0.15242472605E+02  0.93000000000E-01 0.  1.
          3   -1    0    0  501    0  0.00000000000E+00 -0.00000000000E+00 -0.65605938527E+01  0.65612529825E+01  0.93000000000E-01 0. -1.
       1023    2    1    2    0    0  0.00000000000E+00  0.00000000000E+00  0.86815950361E+01  0.21803725588E+02  0.20000808912E+02 0.  0.
        -11    1    3    3    0    0 -0.93773360164E+01  0.34747109597E+01  0.43478627573E+01  0.10904675962E+02  0.51100000000E-03 0. -1.
         11    1    3    3    0    0  0.93773360164E+01 -0.34747109597E+01  0.43337322789E+01  0.10899049626E+02  0.51100000000E-03 0.  1.
<mgrwt>
<rscale>  0 0.20000809E+02</rscale>
<asrwt>0</asrwt>
<pdfrwt beam="2">  1        3 0.10093946E-02 0.20000809E+02</pdfrwt>
<pdfrwt beam="1">  1       -3 0.23450247E-02 0.20000809E+02</pdfrwt>
<totfact> 0.17767245E+06</totfact>
</mgrwt>
</event>
<event>
 5    1  0.4133473E-007  0.2000076E+02  0.7818608E-02  0.1745313E+00
         -3   -1    0    0    0  501 -0.00000000000E+00  0.00000000000E+00  0.10150250684E+03  0.10150254945E+03  0.93000000000E-01 0.  1.
          3   -1    0    0  501    0  0.00000000000E+00 -0.00000000000E+00 -0.98303451530E+00  0.98742384935E+00  0.93000000000E-01 0. -1.
       1023    2    1    2    0    0  0.00000000000E+00  0.00000000000E+00  0.10051947233E+03  0.10248997329E+03  0.20000757721E+02 0.  0.
        -11    1    3    3    0    0  0.67224474396E+01  0.74035314236E+01  0.49935647771E+02  0.50927129270E+02  0.51100000000E-03 0. -1.
         11    1    3    3    0    0 -0.67224474396E+01 -0.74035314236E+01  0.50583824555E+02  0.51562844025E+02  0.51100000000E-03 0.  1.
<mgrwt>
<rscale>  0 0.20000758E+02</rscale>
<asrwt>0</asrwt>
<pdfrwt beam="2">  1        3 0.15157710E-03 0.20000758E+02</pdfrwt>
<pdfrwt beam="1">  1       -3 0.15616101E-01 0.20000758E+02</pdfrwt>
<totfact> 0.14094093E+06</totfact>
</mgrwt>
</event>
<event>
 5    1  0.4133473E-007  0.2000289E+02  0.7818608E-02  0.1745271E+00
          3   -1    0    0  501    0  0.00000000000E+00  0.00000000000E+00  0.11485166625E+03  0.11485170390E+03  0.93000000000E-01 0.  1.
         -3   -1    0    0    0  501 -0.00000000000E+00 -0.00000000000E+00 -0.86841960955E+00  0.87338514886E+00  0.93000000000E-01 0. -1.
       1023    2    1    2    0    0  0.00000000000E+00  0.00000000000E+00  0.11398324664E+03  0.11572508905E+03  0.20002892825E+02 0.  0.
        -11    1    3    3    0    0 -0.65347948974E+01  0.75709309748E+01  0.56529155271E+02  0.57407037339E+02  0.51100000000E-03 0. -1.
         11    1    3    3    0    0  0.65347948974E+01 -0.75709309748E+01  0.57454091371E+02  0.58318051714E+02  0.51100000000E-03 0.  1.
<mgrwt>
<rscale>  0 0.20002893E+02</rscale>
<asrwt>0</asrwt>
<pdfrwt beam="1">  1        3 0.17669874E-01 0.20002893E+02</pdfrwt>
<pdfrwt beam="2">  1       -3 0.13398787E-03 0.20002893E+02</pdfrwt>
<totfact> 0.13651593E+06</totfact>
</mgrwt>
</event>
<event>
 5    1  0.4133473E-007  0.2000954E+02  0.7818608E-02  0.1745138E+00
         -3   -1    0    0    0  501 -0.00000000000E+00  0.00000000000E+00  0.35666497342E+01  0.35678620106E+01  0.93000000000E-01 0.  1.
          3   -1    0    0  501    0  0.00000000000E+00 -0.00000000000E+00 -0.28058222817E+02  0.28058376943E+02  0.93000000000E-01 0. -1.
       1023    2    1    2    0    0  0.00000000000E+00  0.00000000000E+00 -0.24491573083E+02  0.31626238953E+02  0.20009543679E+02 0.  0.
        -11    1    3    3    0    0 -0.99787453976E+01  0.66730330652E+00 -0.11813493490E+02  0.15478348817E+02  0.51100000000E-03 0. -1.
         11    1    3    3    0    0  0.99787453976E+01 -0.66730330652E+00 -0.12678079593E+02  0.16147890136E+02  0.51100000000E-03 0.  1.
<mgrwt>
<rscale>  0 0.20009544E+02</rscale>
<asrwt>0</asrwt>
<pdfrwt beam="2">  1        3 0.43167546E-02 0.20009544E+02</pdfrwt>
<pdfrwt beam="1">  1       -3 0.54882047E-03 0.20009544E+02</pdfrwt>
<totfact> 0.17154694E+06</totfact>
</mgrwt>
</event>
<event>
 5    1  0.4133473E-007  0.2000597E+02  0.7818608E-02  0.1745209E+00
         -3   -1    0    0    0  501 -0.00000000000E+00  0.00000000000E+00  0.89572793033E+02  0.89572841312E+02  0.93000000000E-01 0.  1.
          3   -1    0    0  501    0  0.00000000000E+00 -0.00000000000E+00 -0.11150922659E+01  0.11189636998E+01  0.93000000000E-01 0. -1.
       1023    2    1    2    0    0  0.00000000000E+00  0.00000000000E+00  0.88457700767E+02  0.90691805012E+02  0.20005965893E+02 0.  0.
        -11    1    3    3    0    0 -0.99494382054E+01 -0.10308677391E+01  0.43887841424E+02  0.45013293969E+02  0.51100000000E-03 0. -1.
         11    1    3    3    0    0  0.99494382054E+01  0.10308677391E+01  0.44569859343E+02  0.45678511042E+02  0.51100000000E-03 0.  1.
<mgrwt>
<rscale>  0 0.20005966E+02</rscale>
<asrwt>0</asrwt>
<pdfrwt beam="2">  1        3 0.17185419E-03 0.20005966E+02</pdfrwt>
<pdfrwt beam="1">  1       -3 0.13780730E-01 0.20005966E+02</pdfrwt>
<totfact> 0.14502435E+06</totfact>
</mgrwt>
</event>
<event>
 5    1  0.4233161E-007  0.2000061E+02  0.7818608E-02  0.1745316E+00
         -3   -1    0    0    0  501 -0.00000000000E+00  0.00000000000E+00  0.22023758654E+02  0.22023955009E+02  0.93000000000E-01 0. -1.
          3   -1    0    0  501    0  0.00000000000E+00 -0.00000000000E+00 -0.45401331903E+01  0.45410855955E+01  0.93000000000E-01 0.  1.
       1023    2    1    2    0    0  0.00000000000E+00  0.00000000000E+00  0.17483625464E+02  0.26565040605E+02  0.20000605565E+02 0.  0.
        -11    1    3    3    0    0 -0.67647969392E+01  0.73649199833E+01  0.87937913968E+01  0.13316729755E+02  0.51100000000E-03 0.  1.
         11    1    3    3    0    0  0.67647969392E+01 -0.73649199833E+01  0.86898340669E+01  0.13248310849E+02  0.51100000000E-03 0. -1.
<mgrwt>
<rscale>  0 0.20000606E+02</rscale>
<asrwt>0</asrwt>
<pdfrwt beam="2">  1        3 0.69857039E-03 0.20000606E+02</pdfrwt>
<pdfrwt beam="1">  1       -3 0.33883590E-02 0.20000606E+02</pdfrwt>
<totfact> 0.17471007E+06</totfact>
</mgrwt>
</event>
<event>
 5    1  0.4133473E-007  0.2000057E+02  0.7818608E-02  0.1745317E+00
          3   -1    0    0  501    0  0.00000000000E+00  0.00000000000E+00  0.35180957907E+02  0.35181080829E+02  0.93000000000E-01 0.  1.
         -3   -1    0    0    0  501 -0.00000000000E+00 -0.00000000000E+00 -0.28417212246E+01  0.28432426063E+01  0.93000000000E-01 0. -1.
       1023    2    1    2    0    0  0.00000000000E+00  0.00000000000E+00  0.32339236683E+02  0.38024323435E+02  0.20000573579E+02 0.  0.
        -11    1    3    3    0    0 -0.93589036799E+01 -0.35237210606E+01  0.16156528704E+02  0.19001029136E+02  0.51100000000E-03 0. -1.
         11    1    3    3    0    0  0.93589036799E+01  0.35237210606E+01  0.16182707979E+02  0.19023294299E+02  0.51100000000E-03 0.  1.
<mgrwt>
<rscale>  0 0.20000574E+02</rscale>
<asrwt>0</asrwt>
<pdfrwt beam="1">  1        3 0.54125815E-02 0.20000574E+02</pdfrwt>
<pdfrwt beam="2">  1       -3 0.43731437E-03 0.20000574E+02</pdfrwt>
<totfact> 0.16815999E+06</totfact>
</mgrwt>
</event>
<event>
 5    1  0.4172583E-007  0.2000079E+02  0.7818608E-02  0.1745312E+00
          3   -1    0    0  501    0  0.00000000000E+00  0.00000000000E+00  0.13020759682E+02  0.13021091801E+02  0.93000000000E-01 0.  1.
         -3   -1    0    0    0  501 -0.00000000000E+00 -0.00000000000E+00 -0.76799370306E+01  0.76805001005E+01  0.93000000000E-01 0. -1.
       1023    2    1    2    0    0  0.00000000000E+00  0.00000000000E+00  0.53408226510E+01  0.20701591901E+02  0.20000788001E+02 0.  0.
        -11    1    3    3    0    0 -0.95561526483E+01 -0.29470837221E+01  0.27224111091E+01  0.10364211423E+02  0.51100000000E-03 0. -1.
         11    1    3    3    0    0  0.95561526483E+01  0.29470837221E+01  0.26184115420E+01  0.10337380479E+02  0.51100000000E-03 0.  1.
<mgrwt>
<rscale>  0 0.20000788E+02</rscale>
<asrwt>0</asrwt>
<pdfrwt beam="1">  1        3 0.20032627E-02 0.20000788E+02</pdfrwt>
<pdfrwt beam="2">  1       -3 0.11815976E-02 0.20000788E+02</pdfrwt>
<totfact> 0.17838067E+06</totfact>
</mgrwt>
</event>
<event>
 5    1  0.4238757E-007  0.2000139E+02  0.7818608E-02  0.1745300E+00
          3   -1    0    0  501    0  0.00000000000E+00  0.00000000000E+00  0.28918853104E+01  0.28933803153E+01  0.93000000000E-01 0.  1.
         -3   -1    0    0    0  501 -0.00000000000E+00 -0.00000000000E+00 -0.34573836141E+02  0.34573961221E+02  0.93000000000E-01 0. -1.
       1023    2    1    2    0    0  0.00000000000E+00  0.00000000000E+00 -0.31681950831E+02  0.37467341537E+02  0.20001391786E+02 0.  0.
        -11    1    3    3    0    0 -0.15609234307E+01 -0.98781178464E+01 -0.15869007450E+02  0.18757374333E+02  0.51100000000E-03 0.  1.
         11    1    3    3    0    0  0.15609234307E+01  0.98781178464E+01 -0.15812943381E+02  0.18709967204E+02  0.51100000000E-03 0. -1.
<mgrwt>
<rscale>  0 0.20001392E+02</rscale>
<asrwt>0</asrwt>
<pdfrwt beam="1">  1        3 0.44503008E-03 0.20001392E+02</pdfrwt>
<pdfrwt beam="2">  1       -3 0.53191761E-02 0.20001392E+02</pdfrwt>
<totfact> 0.16846677E+06</totfact>
</mgrwt>
</event>
<event>
 5    1  0.4133473E-007  0.2000037E+02  0.7818608E-02  0.1745321E+00
         -3   -1    0    0    0  501 -0.00000000000E+00  0.00000000000E+00  0.36918897466E+01  0.36930609122E+01  0.93000000000E-01 0. -1.
          3   -1    0    0  501    0  0.00000000000E+00 -0.00000000000E+00 -0.27081858665E+02  0.27082018348E+02  0.93000000000E-01 0.  1.
       1023    2    1    2    0    0  0.00000000000E+00  0.00000000000E+00 -0.23389968919E+02  0.30775079260E+02  0.20000371432E+02 0.  0.
        -11    1    3    3    0    0 -0.53994295786E+01  0.84170399621E+01 -0.11783546040E+02  0.15454849046E+02  0.51100000000E-03 0.  1.
         11    1    3    3    0    0  0.53994295786E+01 -0.84170399621E+01 -0.11606422879E+02  0.15320230214E+02  0.51100000000E-03 0. -1.
<mgrwt>
<rscale>  0 0.20000371E+02</rscale>
<asrwt>0</asrwt>
<pdfrwt beam="2">  1        3 0.41665420E-02 0.20000371E+02</pdfrwt>
<pdfrwt beam="1">  1       -3 0.56808543E-03 0.20000371E+02</pdfrwt>
<totfact> 0.17220685E+06</totfact>
</mgrwt>
</event>
<event>
 5    1  0.4133473E-007  0.2000126E+02  0.7818608E-02  0.1745303E+00
          3   -1    0    0  501    0  0.00000000000E+00  0.00000000000E+00  0.28110472752E+02  0.28110626591E+02  0.93000000000E-01 0.  1.
         -3   -1    0    0    0  501 -0.00000000000E+00 -0.00000000000E+00 -0.35570685612E+01  0.35582841018E+01  0.93000000000E-01 0. -1.
       1023    2    1    2    0    0  0.00000000000E+00  0.00000000000E+00  0.24553404190E+02  0.31668910692E+02  0.20001256138E+02 0.  0.
        -11    1    3    3    0    0 -0.99942246450E+01  0.35378815654E+00  0.12361513894E+02  0.15900211267E+02  0.51100000000E-03 0.  1.
         11    1    3    3    0    0  0.99942246450E+01 -0.35378815654E+00  0.12191890296E+02  0.15768699425E+02  0.51100000000E-03 0. -1.
<mgrwt>
<rscale>  0 0.20001256E+02</rscale>
<asrwt>0</asrwt>
<pdfrwt beam="1">  1        3 0.43247935E-02 0.20001256E+02</pdfrwt>
<pdfrwt beam="2">  1       -3 0.54734665E-03 0.20001256E+02</pdfrwt>
<totfact> 0.17167538E+06</totfact>
</mgrwt>
</event>
<event>
 5    1  0.4133473E-007  0.2000111E+02  0.7818608E-02  0.1745306E+00
         -3   -1    0    0    0  501 -0.00000000000E+00  0.00000000000E+00  0.54841274399E+02  0.54841353253E+02  0.93000000000E-01 0.  1.
          3   -1    0    0  501    0  0.00000000000E+00 -0.00000000000E+00 -0.18223815145E+01  0.18247529653E+01  0.93000000000E-01 0. -1.
       1023    2    1    2    0    0  0.00000000000E+00  0.00000000000E+00  0.53018892884E+02  0.56666106219E+02  0.20001114752E+02 0.  0.
        -11    1    3    3    0    0 -0.88432438985E+01 -0.46698726996E+01  0.26447771466E+02  0.28275347734E+02  0.51100000000E-03 0. -1.
         11    1    3    3    0    0  0.88432438985E+01  0.46698726996E+01  0.26571121418E+02  0.28390758485E+02  0.51100000000E-03 0.  1.
<mgrwt>
<rscale>  0 0.20001115E+02</rscale>
<asrwt>0</asrwt>
<pdfrwt beam="2">  1        3 0.28055482E-03 0.20001115E+02</pdfrwt>
<pdfrwt beam="1">  1       -3 0.84373092E-02 0.20001115E+02</pdfrwt>
<totfact> 0.15894925E+06</totfact>
</mgrwt>
</event>
<event>
 5    1  0.4133473E-007  0.2000129E+02  0.7818608E-02  0.1745302E+00
          3   -1    0    0  501    0  0.00000000000E+00  0.00000000000E+00  0.67491039662E+02  0.67491103737E+02  0.93000000000E-01 0. -1.
         -3   -1    0    0    0  501 -0.00000000000E+00 -0.00000000000E+00 -0.14803453223E+01  0.14832637234E+01  0.93000000000E-01 0.  1.
       1023    2    1    2    0    0  0.00000000000E+00  0.00000000000E+00  0.66010694339E+02  0.68974367460E+02  0.20001289943E+02 0.  0.
        -11    1    3    3    0    0  0.48645689761E+01  0.87375851696E+01  0.33208593891E+02  0.34681697398E+02  0.51100000000E-03 0.  1.
         11    1    3    3    0    0 -0.48645689761E+01 -0.87375851696E+01  0.32802100448E+02  0.34292670062E+02  0.51100000000E-03 0. -1.
<mgrwt>
<rscale>  0 0.20001290E+02</rscale>
<asrwt>0</asrwt>
<pdfrwt beam="1">  1        3 0.10383465E-01 0.20001290E+02</pdfrwt>
<pdfrwt beam="2">  1       -3 0.22797488E-03 0.20001290E+02</pdfrwt>
<totfact> 0.15353700E+06</totfact>
</mgrwt>
</event>
<event>
 5    1  0.4263968E-007  0.2000172E+02  0.7818608E-02  0.1745294E+00
          3   -1    0    0  501    0  0.00000000000E+00  0.00000000000E+00  0.43416944318E+01  0.43426903573E+01  0.93000000000E-01 0.  1.
         -3   -1    0    0    0  501 -0.00000000000E+00 -0.00000000000E+00 -0.23032709864E+02  0.23032897618E+02  0.93000000000E-01 0. -1.
       1023    2    1    2    0    0  0.00000000000E+00  0.00000000000E+00 -0.18691015433E+02  0.27375587976E+02  0.20001718904E+02 0.  0.
        -11    1    3    3    0    0  0.10621067532E+01 -0.99443003078E+01 -0.93411473733E+01  0.13684816911E+02  0.51100000000E-03 0.  1.
         11    1    3    3    0    0 -0.10621067532E+01  0.99443003078E+01 -0.93498680592E+01  0.13690771065E+02  0.51100000000E-03 0. -1.
<mgrwt>
<rscale>  0 0.20001719E+02</rscale>
<asrwt>0</asrwt>
<pdfrwt beam="1">  1        3 0.66804406E-03 0.20001719E+02</pdfrwt>
<pdfrwt beam="2">  1       -3 0.35435848E-02 0.20001719E+02</pdfrwt>
<totfact> 0.17420085E+06</totfact>
</mgrwt>
</event>
<event>
 5    1  0.4133473E-007  0.2000030E+02  0.7818608E-02  0.1745322E+00
         -3   -1    0    0    0  501 -0.00000000000E+00  0.00000000000E+00  0.62555511061E+01  0.62562423739E+01  0.93000000000E-01 0. -1.
          3   -1    0    0  501    0  0.00000000000E+00 -0.00000000000E+00 -0.15984566335E+02  0.15984836875E+02  0.93000000000E-01 0.  1.
       1023    2    1    2    0    0  0.00000000000E+00  0.00000000000E+00 -0.97290152289E+01  0.22241079249E+02  0.20000296719E+02 0.  0.
        -11    1    3    3    0    0  0.42160719195E+01 -0.90679466920E+01 -0.48568589895E+01  0.11117193852E+02  0.51100000000E-03 0. -1.
         11    1    3    3    0    0 -0.42160719195E+01  0.90679466920E+01 -0.48721562394E+01  0.11123885397E+02  0.51100000000E-03 0.  1.
<mgrwt>
<rscale>  0 0.20000297E+02</rscale>
<asrwt>0</asrwt>
<pdfrwt beam="2">  1        3 0.24592380E-02 0.20000297E+02</pdfrwt>
<pdfrwt beam="1">  1       -3 0.96246647E-03 0.20000297E+02</pdfrwt>
<totfact> 0.17739457E+06</totfact>
</mgrwt>
</event>
<event>
 4    1  0.4133473E-007  0.2004351E+02  0.7818608E-02  0.1744464E+00
          3   -1    0    0  501    0  0.00000000000E+00  0.00000000000E+00  0.31765781709E+02  0.31765917846E+02  0.93000000000E-01 0.  1.
         -3   -1    0    0    0  501 -0.00000000000E+00 -0.00000000000E+00 -0.31609264348E+01  0.31622942505E+01  0.93000000000E-01 0. -1.
        -11    1    1    2    0    0 -0.64769107128E+01  0.76345601059E+01  0.15079180843E+02  0.18100236892E+02  0.51100000000E-03 0. -1.
         11    1    1    2    0    0  0.64769107128E+01 -0.76345601059E+01  0.13525674431E+02  0.16827975204E+02  0.51100000000E-03 0.  1.
<mgrwt>
<rscale>  0 0.20043509E+02</rscale>
<asrwt>0</asrwt>
<pdfrwt beam="1">  1        3 0.48871592E-02 0.20043509E+02</pdfrwt>
<pdfrwt beam="2">  1       -3 0.48641205E-03 0.20043509E+02</pdfrwt>
<totfact> 0.16906819E+06</totfact>
</mgrwt>
</event>
<event>
 5    1  0.4133473E-007  0.2000071E+02  0.7818608E-02  0.1745314E+00
          3   -1    0    0  501    0  0.00000000000E+00  0.00000000000E+00  0.83002686046E+00  0.83522068287E+00  0.93000000000E-01 0.  1.
         -3   -1    0    0    0  501 -0.00000000000E+00 -0.00000000000E+00 -0.12010563021E+03  0.12010566621E+03  0.93000000000E-01 0. -1.
       1023    2    1    2    0    0  0.00000000000E+00  0.00000000000E+00 -0.11927560335E+03  0.12094088689E+03  0.20000714223E+02 0.  0.
        -11    1    3    3    0    0  0.33931825262E+01  0.94068217595E+01 -0.59203488516E+02  0.60042110522E+02  0.51100000000E-03 0. -1.
         11    1    3    3    0    0 -0.33931825262E+01 -0.94068217595E+01 -0.60072114830E+02  0.60898776372E+02  0.51100000000E-03 0.  1.
<mgrwt>
<rscale>  0 0.20000714E+02</rscale>
<asrwt>0</asrwt>
<pdfrwt beam="1">  1        3 0.12809883E-03 0.20000714E+02</pdfrwt>
<pdfrwt beam="2">  1       -3 0.18478178E-01 0.20000714E+02</pdfrwt>
<totfact> 0.13493320E+06</totfact>
</mgrwt>
</event>
<event>
 5    1  0.4133473E-007  0.2000352E+02  0.7818608E-02  0.1745258E+00
         -3   -1    0    0    0  501 -0.00000000000E+00  0.00000000000E+00  0.37972735670E+02  0.37972849555E+02  0.93000000000E-01 0. -1.
          3   -1    0    0  501    0  0.00000000000E+00 -0.00000000000E+00 -0.26334573215E+01  0.26350989477E+01  0.93000000000E-01 0.  1.
       1023    2    1    2    0    0  0.00000000000E+00  0.00000000000E+00  0.35339278349E+02  0.40607948502E+02  0.20003521873E+02 0.  0.
        -11    1    3    3    0    0  0.99876406160E+01 -0.52356086074E+00  0.17852799235E+02  0.20463370246E+02  0.51100000000E-03 0.  1.
         11    1    3    3    0    0 -0.99876406160E+01  0.52356086074E+00  0.17486479114E+02  0.20144578256E+02  0.51100000000E-03 0. -1.
<mgrwt>
<rscale>  0 0.20003522E+02</rscale>
<asrwt>0</asrwt>
<pdfrwt beam="2">  1        3 0.40528233E-03 0.20003522E+02</pdfrwt>
<pdfrwt beam="1">  1       -3 0.58420942E-02 0.20003522E+02</pdfrwt>
<totfact> 0.16675800E+06</totfact>
</mgrwt>
</event>
<event>
 5    1  0.4133473E-007  0.2000234E+02  0.7818608E-02  0.1745282E+00
          3   -1    0    0  501    0  0.00000000000E+00  0.00000000000E+00  0.23102599976E+01  0.23121311071E+01  0.93000000000E-01 0.  1.
         -3   -1    0    0    0  501 -0.00000000000E+00 -0.00000000000E+00 -0.43275853443E+02  0.43275953372E+02  0.93000000000E-01 0. -1.
       1023    2    1    2    0    0  0.00000000000E+00  0.00000000000E+00 -0.40965593446E+02  0.45588084479E+02  0.20002339866E+02 0.  0.
        -11    1    3    3    0    0  0.65538935901E+01 -0.75537132695E+01 -0.20240580942E+02  0.22576386391E+02  0.51100000000E-03 0.  1.
         11    1    3    3    0    0 -0.65538935901E+01  0.75537132695E+01 -0.20725012504E+02  0.23011698088E+02  0.51100000000E-03 0. -1.
<mgrwt>
<rscale>  0 0.20002340E+02</rscale>
<asrwt>0</asrwt>
<pdfrwt beam="1">  1        3 0.35557627E-03 0.20002340E+02</pdfrwt>
<pdfrwt beam="2">  1       -3 0.66579746E-02 0.20002340E+02</pdfrwt>
<totfact> 0.16422647E+06</totfact>
</mgrwt>
</event>
<event>
 5    1  0.4347333E-007  0.2000276E+02  0.7818608E-02  0.1745273E+00
         -3   -1    0    0    0  501 -0.00000000000E+00  0.00000000000E+00  0.34667452137E+01  0.34679924130E+01  0.93000000000E-01 0.  1.
          3   -1    0    0  501    0  0.00000000000E+00 -0.00000000000E+00 -0.28846945546E+02  0.28847095458E+02  0.93000000000E-01 0. -1.
       1023    2    1    2    0    0  0.00000000000E+00  0.00000000000E+00 -0.25380200333E+02  0.32315087871E+02  0.20002758189E+02 0.  0.
        -11    1    3    3    0    0 -0.99932357509E+01  0.39859081417E+00 -0.12588589708E+02  0.16077817840E+02  0.51100000000E-03 0.  1.
         11    1    3    3    0    0  0.99932357509E+01 -0.39859081417E+00 -0.12791610625E+02  0.16237270031E+02  0.51100000000E-03 0. -1.
<mgrwt>
<rscale>  0 0.20002758E+02</rscale>
<asrwt>0</asrwt>
<pdfrwt beam="2">  1        3 0.44380989E-02 0.20002758E+02</pdfrwt>
<pdfrwt beam="1">  1       -3 0.53345291E-03 0.20002758E+02</pdfrwt>
<totfact> 0.17127812E+06</totfact>
</mgrwt>
</event>
<event>
 5    1  0.4133473E-007  0.2000300E+02  0.7818608E-02  0.1745268E+00
         -3   -1    0    0    0  501 -0.00000000000E+00  0.00000000000E+00  0.17922602919E+02  0.17922844205E+02  0.93000000000E-01 0.  1.
          3   -1    0    0  501    0  0.00000000000E+00 -0.00000000000E+00 -0.55805568573E+01  0.55813317262E+01  0.93000000000E-01 0. -1.
       1023    2    1    2    0    0  0.00000000000E+00  0.00000000000E+00  0.12342046062E+02  0.23504175931E+02  0.20003004404E+02 0.  0.
        -11    1    3    3    0    0 -0.47357781743E+01 -0.88086730277E+01  0.62869327745E+01  0.11812952188E+02  0.51100000000E-03 0.  1.
         11    1    3    3    0    0  0.47357781743E+01  0.88086730277E+01  0.60551132871E+01  0.11691223743E+02  0.51100000000E-03 0. -1.
<mgrwt>
<rscale>  0 0.20003004E+02</rscale>
<asrwt>0</asrwt>
<pdfrwt beam="2">  1        3 0.85862537E-03 0.20003004E+02</pdfrwt>
<pdfrwt beam="1">  1       -3 0.27574017E-02 0.20003004E+02</pdfrwt>
<totfact> 0.17655217E+06</totfact>
</mgrwt>
</event>
<event>
 5    1  0.4133473E-007  0.2000043E+02  0.7818608E-02  0.1745320E+00
         -3   -1    0    0    0  501 -0.00000000000E+00  0.00000000000E+00  0.10479019409E+03  0.10479023536E+03  0.93000000000E-01 0. -1.
          3   -1    0    0  501    0  0.00000000000E+00 -0.00000000000E+00 -0.95202152600E+00  0.95655317990E+00  0.93000000000E-01 0.  1.
       1023    2    1    2    0    0  0.00000000000E+00  0.00000000000E+00  0.10383817256E+03  0.10574678854E+03  0.20000430112E+02 0.  0.
        -11    1    3    3    0    0 -0.38788015057E+01 -0.92172684184E+01  0.51738801170E+02  0.52696363109E+02  0.51100000000E-03 0. -1.
         11    1    3    3    0    0  0.38788015057E+01  0.92172684184E+01  0.52099371393E+02  0.53050425427E+02  0.51100000000E-03 0.  1.
<mgrwt>
<rscale>  0 0.20000430E+02</rscale>
<asrwt>0</asrwt>
<pdfrwt beam="2">  1        3 0.14681656E-03 0.20000430E+02</pdfrwt>
<pdfrwt beam="1">  1       -3 0.16121926E-01 0.20000430E+02</pdfrwt>
<totfact> 0.13984304E+06</totfact>
</mgrwt>
</event>
<event>
 5    1  0.4165569E-007  0.2000136E+02  0.7818608E-02  0.1745301E+00
          3   -1    0    0  501    0  0.00000000000E+00  0.00000000000E+00  0.33569818030E+01  0.33582697667E+01  0.93000000000E-01 0.  1.
         -3   -1    0    0    0  501 -0.00000000000E+00 -0.00000000000E+00 -0.29785651148E+02  0.29785796335E+02  0.93000000000E-01 0. -1.
       1023    2    1    2    0    0  0.00000000000E+00  0.00000000000E+00 -0.26428669345E+02  0.33144066102E+02  0.20001363814E+02 0.  0.
        -11    1    3    3    0    0  0.97472887488E+01  0.22362000051E+01 -0.13117569607E+02  0.16494873781E+02  0.51100000000E-03 0. -1.
         11    1    3    3    0    0 -0.97472887488E+01 -0.22362000051E+01 -0.13311099738E+02  0.16649192320E+02  0.51100000000E-03 0.  1.
<mgrwt>
<rscale>  0 0.20001364E+02</rscale>
<asrwt>0</asrwt>
<pdfrwt beam="1">  1        3 0.51656900E-03 0.20001364E+02</pdfrwt>
<pdfrwt beam="2">  1       -3 0.45825179E-02 0.20001364E+02</pdfrwt>
<totfact> 0.17085239E+06</totfact>
</mgrwt>
</event>
<event>
 5    1  0.4133473E-007  0.2000119E+02  0.7818608E-02  0.1745304E+00
         -3   -1    0    0    0  501 -0.00000000000E+00  0.00000000000E+00  0.10956364703E+03  0.10956368650E+03  0.93000000000E-01 0.  1.
          3   -1    0    0  501    0  0.00000000000E+00 -0.00000000000E+00 -0.91041170862E+00  0.91514942998E+00  0.93000000000E-01 0. -1.
       1023    2    1    2    0    0  0.00000000000E+00  0.00000000000E+00  0.10865323532E+03  0.11047883593E+03  0.20001191031E+02 0.  0.
        -11    1    3    3    0    0 -0.70276597630E+01  0.71147393515E+01  0.53960529960E+02  0.54879379657E+02  0.51100000000E-03 0.  1.
         11    1    3    3    0    0  0.70276597630E+01 -0.71147393515E+01  0.54692705357E+02  0.55599456268E+02  0.51100000000E-03 0. -1.
<mgrwt>
<rscale>  0 0.20001191E+02</rscale>
<asrwt>0</asrwt>
<pdfrwt beam="2">  1        3 0.14043089E-03 0.20001191E+02</pdfrwt>
<pdfrwt beam="1">  1       -3 0.16856305E-01 0.20001191E+02</pdfrwt>
<totfact> 0.13826264E+06</totfact>
</mgrwt>
</event>
<event>
 5    1  0.4133473E-007  0.2000032E+02  0.7818608E-02  0.1745322E+00
         -3   -1    0    0    0  501 -0.00000000000E+00  0.00000000000E+00  0.30851765364E+01  0.30865779208E+01  0.93000000000E-01 0.  1.
          3   -1    0    0  501    0  0.00000000000E+00 -0.00000000000E+00 -0.32405252970E+02  0.32405386421E+02  0.93000000000E-01 0. -1.
       1023    2    1    2    0    0  0.00000000000E+00  0.00000000000E+00 -0.29320076434E+02  0.35491964341E+02  0.20000316266E+02 0.  0.
        -11    1    3    3    0    0 -0.72339640636E+01  0.69043838475E+01 -0.14572920874E+02  0.17674014130E+02  0.51100000000E-03 0. -1.
         11    1    3    3    0    0  0.72339640636E+01 -0.69043838475E+01 -0.14747155560E+02  0.17817950212E+02  0.51100000000E-03 0.  1.
<mgrwt>
<rscale>  0 0.20000316E+02</rscale>
<asrwt>0</asrwt>
<pdfrwt beam="2">  1        3 0.49855414E-02 0.20000316E+02</pdfrwt>
<pdfrwt beam="1">  1       -3 0.47476063E-03 0.20000316E+02</pdfrwt>
<totfact> 0.16954296E+06</totfact>
</mgrwt>
</event>
<event>
 5    1  0.4338920E-007  0.2000135E+02  0.7818608E-02  0.1745301E+00
         -3   -1    0    0    0  501 -0.00000000000E+00  0.00000000000E+00  0.19160367907E+02  0.19160593605E+02  0.93000000000E-01 0.  1.
          3   -1    0    0  501    0  0.00000000000E+00 -0.00000000000E+00 -0.52191390265E+01  0.52199675457E+01  0.93000000000E-01 0. -1.
       1023    2    1    2    0    0  0.00000000000E+00  0.00000000000E+00  0.13941228880E+02  0.24380561151E+02  0.20001347439E+02 0.  0.
        -11    1    3    3    0    0 -0.71824760470E+01 -0.69581538008E+01  0.68511322656E+01  0.12121958590E+02  0.51100000000E-03 0.  1.
         11    1    3    3    0    0  0.71824760470E+01  0.69581538008E+01  0.70900966145E+01  0.12258602561E+02  0.51100000000E-03 0. -1.
<mgrwt>
<rscale>  0 0.20001347E+02</rscale>
<asrwt>0</asrwt>
<pdfrwt beam="2">  1        3 0.80302555E-03 0.20001347E+02</pdfrwt>
<pdfrwt beam="1">  1       -3 0.29478300E-02 0.20001347E+02</pdfrwt>
<totfact> 0.17603680E+06</totfact>
</mgrwt>
</event>
<event>
 5    1  0.4234194E-007  0.2000079E+02  0.7818608E-02  0.1745312E+00
          3   -1    0    0  501    0  0.00000000000E+00  0.00000000000E+00  0.16209566480E+02  0.16209833265E+02  0.93000000000E-01 0.  1.
         -3   -1    0    0    0  501 -0.00000000000E+00 -0.00000000000E+00 -0.61690162597E+01  0.61697172230E+01  0.93000000000E-01 0. -1.
       1023    2    1    2    0    0  0.00000000000E+00  0.00000000000E+00  0.10040550221E+02  0.22379550488E+02  0.20000790767E+02 0.  0.
        -11    1    3    3    0    0  0.50582593031E+01  0.86264009252E+01  0.51147403082E+01  0.11232156907E+02  0.51100000000E-03 0.  1.
         11    1    3    3    0    0 -0.50582593031E+01 -0.86264009252E+01  0.49258099124E+01  0.11147393581E+02  0.51100000000E-03 0. -1.
<mgrwt>
<rscale>  0 0.20000791E+02</rscale>
<asrwt>0</asrwt>
<pdfrwt beam="1">  1        3 0.24938539E-02 0.20000791E+02</pdfrwt>
<pdfrwt beam="2">  1       -3 0.94915386E-03 0.20000791E+02</pdfrwt>
<totfact> 0.17729670E+06</totfact>
</mgrwt>
</event>
<event>
 4    1  0.4133473E-007  0.2002064E+02  0.7818608E-02  0.1744918E+00
          3   -1    0    0  501    0  0.00000000000E+00  0.00000000000E+00  0.97339295225E+01  0.97343737831E+01  0.93000000000E-01 0.  1.
         -3   -1    0    0    0  501 -0.00000000000E+00 -0.00000000000E+00 -0.10293664276E+02  0.10294084380E+02  0.93000000000E-01 0. -1.
        -11    1    1    2    0    0  0.90193948777E+01 -0.43423021520E+01 -0.31711295103E+00  0.10015269983E+02  0.51100000000E-03 0.  1.
         11    1    1    2    0    0 -0.90193948777E+01  0.43423021520E+01 -0.24262180212E+00  0.10013188181E+02  0.51100000000E-03 0. -1.
<mgrwt>
<rscale>  0 0.20020635E+02</rscale>
<asrwt>0</asrwt>
<pdfrwt beam="1">  1        3 0.14975941E-02 0.20020635E+02</pdfrwt>
<pdfrwt beam="2">  1       -3 0.15837071E-02 0.20020635E+02</pdfrwt>
<totfact> 0.17844087E+06</totfact>
</mgrwt>
</event>
<event>
 5    1  0.4133473E-007  0.2000052E+02  0.7818608E-02  0.1745318E+00
         -3   -1    0    0    0  501 -0.00000000000E+00  0.00000000000E+00  0.19612351065E+01  0.19634388564E+01  0.93000000000E-01 0.  1.
          3   -1    0    0  501    0  0.00000000000E+00 -0.00000000000E+00 -0.50960056634E+02  0.50960141495E+02  0.93000000000E-01 0. -1.
       1023    2    1    2    0    0  0.00000000000E+00  0.00000000000E+00 -0.48998821528E+02  0.52923580351E+02  0.20000521145E+02 0.  0.
        -11    1    3    3    0    0 -0.98416159968E+01  0.17738956885E+01 -0.24587168958E+02  0.26543040312E+02  0.51100000000E-03 0. -1.
         11    1    3    3    0    0  0.98416159968E+01 -0.17738956885E+01 -0.24411652570E+02  0.26380540040E+02  0.51100000000E-03 0.  1.
<mgrwt>
<rscale>  0 0.20000521E+02</rscale>
<asrwt>0</asrwt>
<pdfrwt beam="2">  1        3 0.78401838E-02 0.20000521E+02</pdfrwt>
<pdfrwt beam="1">  1       -3 0.30190456E-03 0.20000521E+02</pdfrwt>
<totfact> 0.16066873E+06</totfact>
</mgrwt>
</event>
<event>
 5    1  0.4133473E-007  0.2000069E+02  0.7818608E-02  0.1745314E+00
          3   -1    0    0  501    0  0.00000000000E+00  0.00000000000E+00  0.96401477484E+02  0.96401522343E+02  0.93000000000E-01 0.  1.
         -3   -1    0    0    0  501 -0.00000000000E+00 -0.00000000000E+00 -0.10352705788E+01  0.10394393543E+01  0.93000000000E-01 0. -1.
       1023    2    1    2    0    0  0.00000000000E+00  0.00000000000E+00  0.95366206905E+02  0.97440961697E+02  0.20000689915E+02 0.  0.
        -11    1    3    3    0    0  0.99313429269E+01 -0.11727326305E+01  0.47658817714E+02  0.48696712213E+02  0.51100000000E-03 0. -1.
         11    1    3    3    0    0 -0.99313429269E+01  0.11727326305E+01  0.47707389191E+02  0.48744249485E+02  0.51100000000E-03 0.  1.
<mgrwt>
<rscale>  0 0.20000690E+02</rscale>
<asrwt>0</asrwt>
<pdfrwt beam="1">  1        3 0.14831326E-01 0.20000690E+02</pdfrwt>
<pdfrwt beam="2">  1       -3 0.15959647E-03 0.20000690E+02</pdfrwt>
<totfact> 0.14266185E+06</totfact>
</mgrwt>
</event>
<event>
 5    1  0.4213685E-007  0.2000085E+02  0.7818608E-02  0.1745311E+00
          3   -1    0    0  501    0  0.00000000000E+00  0.00000000000E+00  0.31434332449E+02  0.31434470022E+02  0.93000000000E-01 0. -1.
         -3   -1    0    0    0  501 -0.00000000000E+00 -0.00000000000E+00 -0.31806817828E+01  0.31820411065E+01  0.93000000000E-01 0.  1.
       1023    2    1    2    0    0  0.00000000000E+00  0.00000000000E+00  0.28253650667E+02  0.34616511128E+02  0.20000851649E+02 0.  0.
        -11    1    3    3    0    0  0.93452811101E+01 -0.35592650034E+01  0.14259428736E+02  0.17416485137E+02  0.51100000000E-03 0.  1.
         11    1    3    3    0    0 -0.93452811101E+01  0.35592650034E+01  0.13994221931E+02  0.17200025991E+02  0.51100000000E-03 0. -1.
<mgrwt>
<rscale>  0 0.20000852E+02</rscale>
<asrwt>0</asrwt>
<pdfrwt beam="1">  1        3 0.48361662E-02 0.20000852E+02</pdfrwt>
<pdfrwt beam="2">  1       -3 0.48945082E-03 0.20000852E+02</pdfrwt>
<totfact> 0.17001774E+06</totfact>
</mgrwt>
</event>
<event>
 5    1  0.4133473E-007  0.2000305E+02  0.7818608E-02  0.1745267E+00
          3   -1    0    0  501    0  0.00000000000E+00  0.00000000000E+00  0.83154028458E+02  0.83154080464E+02  0.93000000000E-01 0.  1.
         -3   -1    0    0    0  501 -0.00000000000E+00 -0.00000000000E+00 -0.12011047662E+01  0.12046998213E+01  0.93000000000E-01 0. -1.
       1023    2    1    2    0    0  0.00000000000E+00  0.00000000000E+00  0.81952923692E+02  0.84358780285E+02  0.20003052506E+02 0.  0.
        -11    1    3    3    0    0 -0.20137671976E+01  0.97961058267E+01  0.41430275708E+02  0.42620261534E+02  0.51100000000E-03 0.  1.
         11    1    3    3    0    0  0.20137671976E+01 -0.97961058267E+01  0.40522647984E+02  0.41738518752E+02  0.51100000000E-03 0. -1.
<mgrwt>
<rscale>  0 0.20003053E+02</rscale>
<asrwt>0</asrwt>
<pdfrwt beam="1">  1        3 0.12793211E-01 0.20003053E+02</pdfrwt>
<pdfrwt beam="2">  1       -3 0.18506584E-03 0.20003053E+02</pdfrwt>
<totfact> 0.14739457E+06</totfact>
</mgrwt>
</event>
<event>
 5    1  0.4133473E-007  0.2000416E+02  0.7818608E-02  0.1745245E+00
          3   -1    0    0  501    0  0.00000000000E+00  0.00000000000E+00  0.24158538323E+02  0.24158717328E+02  0.93000000000E-01 0.  1.
         -3   -1    0    0    0  501 -0.00000000000E+00 -0.00000000000E+00 -0.41403292845E+01  0.41413736349E+01  0.93000000000E-01 0. -1.
       1023    2    1    2    0    0  0.00000000000E+00  0.00000000000E+00  0.20018209039E+02  0.28300090963E+02  0.20004160951E+02 0.  0.
        -11    1    3    3    0    0 -0.24060095423E+01  0.97068073733E+01  0.97615412242E+01  0.13974930362E+02  0.51100000000E-03 0. -1.
         11    1    3    3    0    0  0.24060095423E+01 -0.97068073733E+01  0.10256667815E+02  0.14325160600E+02  0.51100000000E-03 0.  1.
<mgrwt>
<rscale>  0 0.20004161E+02</rscale>
<asrwt>0</asrwt>
<pdfrwt beam="1">  1        3 0.37167924E-02 0.20004161E+02</pdfrwt>
<pdfrwt beam="2">  1       -3 0.63706783E-03 0.20004161E+02</pdfrwt>
<totfact> 0.17358779E+06</totfact>
</mgrwt>
</event>
<event>
 4    1  0.4133473E-007  0.2001703E+02  0.7818608E-02  0.1744990E+00
          3   -1    0    0  501    0  0.00000000000E+00  0.00000000000E+00  0.81268478605E+01  0.81273799682E+01  0.93000000000E-01 0. -1.
         -3   -1    0    0    0  501 -0.00000000000E+00 -0.00000000000E+00 -0.12324741118E+02  0.12325091992E+02  0.93000000000E-01 0.  1.
        -11    1    1    2    0    0 -0.99877674119E+01 -0.59361882791E+00 -0.23542704641E+01  0.10278641489E+02  0.51100000000E-03 0.  1.
         11    1    1    2    0    0  0.99877674119E+01  0.59361882791E+00 -0.18436227930E+01  0.10173830471E+02  0.51100000000E-03 0. -1.
<mgrwt>
<rscale>  0 0.20017025E+02</rscale>
<asrwt>0</asrwt>
<pdfrwt beam="1">  1        3 0.12503522E-02 0.20017025E+02</pdfrwt>
<pdfrwt beam="2">  1       -3 0.18961819E-02 0.20017025E+02</pdfrwt>
<totfact> 0.17823494E+06</totfact>
</mgrwt>
</event>
<event>
 5    1  0.4729433E-007  0.2000080E+02  0.7818608E-02  0.1745312E+00
         -3   -1    0    0    0  501 -0.00000000000E+00  0.00000000000E+00  0.59841923871E+01  0.59849149974E+01  0.93000000000E-01 0. -1.
          3   -1    0    0  501    0  0.00000000000E+00 -0.00000000000E+00 -0.16710170579E+02  0.16710429372E+02  0.93000000000E-01 0.  1.
       1023    2    1    2    0    0  0.00000000000E+00  0.00000000000E+00 -0.10725978192E+02  0.22695344369E+02  0.20000801180E+02 0.  0.
        -11    1    3    3    0    0 -0.99999955194E+01  0.33361208249E-01 -0.54578476585E+01  0.11392503003E+02  0.51100000000E-03 0.  1.
         11    1    3    3    0    0  0.99999955194E+01 -0.33361208249E-01 -0.52681305338E+01  0.11302841366E+02  0.51100000000E-03 0. -1.
<mgrwt>
<rscale>  0 0.20000801E+02</rscale>
<asrwt>0</asrwt>
<pdfrwt beam="2">  1        3 0.25708710E-02 0.20000801E+02</pdfrwt>
<pdfrwt beam="1">  1       -3 0.92072048E-03 0.20000801E+02</pdfrwt>
<totfact> 0.17709517E+06</totfact>
</mgrwt>
</event>
<event>
 5    1  0.4133473E-007  0.2000720E+02  0.7818608E-02  0.1745185E+00
          3   -1    0    0  501    0  0.00000000000E+00  0.00000000000E+00  0.99452179403E+01  0.99456527629E+01  0.93000000000E-01 0.  1.
         -3   -1    0    0    0  501 -0.00000000000E+00 -0.00000000000E+00 -0.10061456774E+02  0.10061886574E+02  0.93000000000E-01 0. -1.
       1023    2    1    2    0    0  0.00000000000E+00  0.00000000000E+00 -0.11623883416E+00  0.20007539337E+02  0.20007201675E+02 0.  0.
        -11    1    3    3    0    0 -0.38048834537E+01 -0.92515135759E+01  0.81229887566E-02  0.10003384816E+02  0.51100000000E-03 0.  1.
         11    1    3    3    0    0  0.38048834537E+01  0.92515135759E+01 -0.12436182291E+00  0.10004154520E+02  0.51100000000E-03 0. -1.
<mgrwt>
<rscale>  0 0.20007202E+02</rscale>
<asrwt>0</asrwt>
<pdfrwt beam="1">  1        3 0.15301000E-02 0.20007202E+02</pdfrwt>
<pdfrwt beam="2">  1       -3 0.15479829E-02 0.20007202E+02</pdfrwt>
<totfact> 0.17871268E+06</totfact>
</mgrwt>
</event>
<event>
 5    1  0.4203821E-007  0.2000099E+02  0.7818608E-02  0.1745308E+00
          3   -1    0    0  501    0  0.00000000000E+00  0.00000000000E+00  0.47601043809E+01  0.47610127827E+01  0.93000000000E-01 0.  1.
         -3   -1    0    0    0  501 -0.00000000000E+00 -0.00000000000E+00 -0.21006998416E+02  0.21007204275E+02  0.93000000000E-01 0. -1.
       1023    2    1    2    0    0  0.00000000000E+00  0.00000000000E+00 -0.16246894035E+02  0.25768217058E+02  0.20000986089E+02 0.  0.
        -11    1    3    3    0    0  0.58906575415E+01  0.80813744845E+01 -0.80752234866E+01  0.12853703531E+02  0.51100000000E-03 0. -1.
         11    1    3    3    0    0 -0.58906575415E+01 -0.80813744845E+01 -0.81716705488E+01  0.12914513527E+02  0.51100000000E-03 0.  1.
<mgrwt>
<rscale>  0 0.20000986E+02</rscale>
<asrwt>0</asrwt>
<pdfrwt beam="1">  1        3 0.73240948E-03 0.20000986E+02</pdfrwt>
<pdfrwt beam="2">  1       -3 0.32319316E-02 0.20000986E+02</pdfrwt>
<totfact> 0.17518770E+06</totfact>
</mgrwt>
</event>
<event>
 5    1  0.4182878E-007  0.2000201E+02  0.7818608E-02  0.1745288E+00
          3   -1    0    0  501    0  0.00000000000E+00  0.00000000000E+00  0.25077240202E+02  0.25077412648E+02  0.93000000000E-01 0.  1.
         -3   -1    0    0    0  501 -0.00000000000E+00 -0.00000000000E+00 -0.39877515707E+01  0.39888358689E+01  0.93000000000E-01 0. -1.
       1023    2    1    2    0    0  0.00000000000E+00  0.00000000000E+00  0.21089488631E+02  0.29066248517E+02  0.20002006703E+02 0.  0.
        -11    1    3    3    0    0  0.39720608115E+01  0.91774950254E+01  0.10358729083E+02  0.14398157886E+02  0.51100000000E-03 0.  1.
         11    1    3    3    0    0 -0.39720608115E+01 -0.91774950254E+01  0.10730759548E+02  0.14668090631E+02  0.51100000000E-03 0. -1.
<mgrwt>
<rscale>  0 0.20002007E+02</rscale>
<asrwt>0</asrwt>
<pdfrwt beam="1">  1        3 0.38581336E-02 0.20002007E+02</pdfrwt>
<pdfrwt beam="2">  1       -3 0.61359691E-03 0.20002007E+02</pdfrwt>
<totfact> 0.17317423E+06</totfact>
</mgrwt>
</event>
<event>
 5    1  0.4313318E-007  0.2000115E+02  0.7818608E-02  0.1745305E+00
          3   -1    0    0  501    0  0.00000000000E+00  0.00000000000E+00  0.70758295807E+01  0.70764407194E+01  0.93000000000E-01 0. -1.
         -3   -1    0    0    0  501 -0.00000000000E+00 -0.00000000000E+00 -0.14132872418E+02  0.14133178403E+02  0.93000000000E-01 0.  1.
       1023    2    1    2    0    0  0.00000000000E+00  0.00000000000E+00 -0.70570428369E+01  0.21209619122E+02  0.20001152210E+02 0.  0.
        -11    1    3    3    0    0 -0.24932039183E-01 -0.10000512224E+02 -0.35013650951E+01  0.10595773881E+02  0.51100000000E-03 0.  1.
         11    1    3    3    0    0  0.24932039183E-01  0.10000512224E+02 -0.35556777419E+01  0.10613845242E+02  0.51100000000E-03 0. -1.
<mgrwt>
<rscale>  0 0.20001152E+02</rscale>
<asrwt>0</asrwt>
<pdfrwt beam="1">  1        3 0.10886597E-02 0.20001152E+02</pdfrwt>
<pdfrwt beam="2">  1       -3 0.21743586E-02 0.20001152E+02</pdfrwt>
<totfact> 0.17804834E+06</totfact>
</mgrwt>
</event>
<event>
 4    1  0.4133473E-007  0.2001593E+02  0.7818608E-02  0.1745011E+00
         -3   -1    0    0    0  501 -0.00000000000E+00  0.00000000000E+00  0.38021651956E+02  0.38021765694E+02  0.93000000000E-01 0. -1.
          3   -1    0    0  501    0  0.00000000000E+00 -0.00000000000E+00 -0.26333335475E+01  0.26349752508E+01  0.93000000000E-01 0.  1.
        -11    1    1    2    0    0  0.94574143089E+01  0.32495438106E+01  0.18499392088E+02  0.21029258862E+02  0.51100000000E-03 0. -1.
         11    1    1    2    0    0 -0.94574143089E+01 -0.32495438106E+01  0.16888926320E+02  0.19627482082E+02  0.51100000000E-03 0.  1.
<mgrwt>
<rscale>  0 0.20015931E+02</rscale>
<asrwt>0</asrwt>
<pdfrwt beam="2">  1        3 0.40526327E-03 0.20015931E+02</pdfrwt>
<pdfrwt beam="1">  1       -3 0.58496199E-02 0.20015931E+02</pdfrwt>
<totfact> 0.16651033E+06</totfact>
</mgrwt>
</event>
<event>
 4    1  0.4133473E-007  0.2011064E+02  0.7818608E-02  0.1743137E+00
         -3   -1    0    0    0  501 -0.00000000000E+00  0.00000000000E+00  0.13807128234E+01  0.13838413567E+01  0.93000000000E-01 0. -1.
          3   -1    0    0  501    0  0.00000000000E+00 -0.00000000000E+00 -0.73143835184E+02  0.73143894307E+02  0.93000000000E-01 0.  1.
        -11    1    1    2    0    0 -0.11475735547E+01 -0.99598057365E+01 -0.33023562171E+02  0.34511886562E+02  0.51100000000E-03 0. -1.
         11    1    1    2    0    0  0.11475735547E+01  0.99598057365E+01 -0.38739560189E+02  0.40015849101E+02  0.51100000000E-03 0.  1.
<mgrwt>
<rscale>  0 0.20110635E+02</rscale>
<asrwt>0</asrwt>
<pdfrwt beam="2">  1        3 0.11253140E-01 0.20110635E+02</pdfrwt>
<pdfrwt beam="1">  1       -3 0.21266262E-03 0.20110635E+02</pdfrwt>
<totfact> 0.14949642E+06</totfact>
</mgrwt>
</event>
<event>
 5    1  0.4272915E-007  0.2000107E+02  0.7818608E-02  0.1745307E+00
         -3   -1    0    0    0  501 -0.00000000000E+00  0.00000000000E+00  0.34745231137E+02  0.34745355600E+02  0.93000000000E-01 0.  1.
          3   -1    0    0  501    0  0.00000000000E+00 -0.00000000000E+00 -0.28775202104E+01  0.28790226746E+01  0.93000000000E-01 0. -1.
       1023    2    1    2    0    0  0.00000000000E+00  0.00000000000E+00  0.31867710927E+02  0.37624378275E+02  0.20001070992E+02 0.  0.
        -11    1    3    3    0    0 -0.42416161013E+01 -0.90559328045E+01  0.16117048172E+02  0.18967352692E+02  0.51100000000E-03 0. -1.
         11    1    3    3    0    0  0.42416161013E+01  0.90559328045E+01  0.15750662755E+02  0.18657025582E+02  0.51100000000E-03 0.  1.
<mgrwt>
<rscale>  0 0.20001071E+02</rscale>
<asrwt>0</asrwt>
<pdfrwt beam="2">  1        3 0.44282053E-03 0.20001071E+02</pdfrwt>
<pdfrwt beam="1">  1       -3 0.53455457E-02 0.20001071E+02</pdfrwt>
<totfact> 0.16838780E+06</totfact>
</mgrwt>
</event>
<event>
 5    1  0.4133473E-007  0.2000162E+02  0.7818608E-02  0.1745296E+00
         -3   -1    0    0    0  501 -0.00000000000E+00  0.00000000000E+00  0.84557460133E+00  0.85067350165E+00  0.93000000000E-01 0. -1.
          3   -1    0    0  501    0  0.00000000000E+00 -0.00000000000E+00 -0.11792132127E+03  0.11792135794E+03  0.93000000000E-01 0.  1.
       1023    2    1    2    0    0  0.00000000000E+00  0.00000000000E+00 -0.11707574667E+03  0.11877203144E+03  0.20001624819E+02 0.  0.
        -11    1    3    3    0    0  0.48590160885E+01  0.87410274419E+01 -0.58689324587E+02  0.59535303970E+02  0.51100000000E-03 0. -1.
         11    1    3    3    0    0 -0.48590160885E+01 -0.87410274419E+01 -0.58386422082E+02  0.59236727474E+02  0.51100000000E-03 0.  1.
<mgrwt>
<rscale>  0 0.20001625E+02</rscale>
<asrwt>0</asrwt>
<pdfrwt beam="2">  1        3 0.18142124E-01 0.20001625E+02</pdfrwt>
<pdfrwt beam="1">  1       -3 0.13048354E-03 0.20001625E+02</pdfrwt>
<totfact> 0.13557102E+06</totfact>
</mgrwt>
</event>
<event>
 5    1  0.4133473E-007  0.2000034E+02  0.7818608E-02  0.1745321E+00
          3   -1    0    0  501    0  0.00000000000E+00  0.00000000000E+00  0.65787033308E+02  0.65787099042E+02  0.93000000000E-01 0.  1.
         -3   -1    0    0    0  501 -0.00000000000E+00 -0.00000000000E+00 -0.15186196839E+01  0.15214646708E+01  0.93000000000E-01 0. -1.
       1023    2    1    2    0    0  0.00000000000E+00  0.00000000000E+00  0.64268413624E+02  0.67308563713E+02  0.20000343983E+02 0.  0.
        -11    1    3    3    0    0 -0.45729713501E+01 -0.88932145095E+01  0.32288732532E+02  0.33801828058E+02  0.51100000000E-03 0.  1.
         11    1    3    3    0    0  0.45729713501E+01  0.88932145095E+01  0.31979681092E+02  0.33506735655E+02  0.51100000000E-03 0. -1.
<mgrwt>
<rscale>  0 0.20000344E+02</rscale>
<asrwt>0</asrwt>
<pdfrwt beam="1">  1        3 0.10121302E-01 0.20000344E+02</pdfrwt>
<pdfrwt beam="2">  1       -3 0.23385778E-03 0.20000344E+02</pdfrwt>
<totfact> 0.15425359E+06</totfact>
</mgrwt>
</event>
<event>
 4    1  0.4133473E-007  0.2005217E+02  0.7818608E-02  0.1744293E+00
          3   -1    0    0  501    0  0.00000000000E+00  0.00000000000E+00  0.14027344393E+02  0.14027652680E+02  0.93000000000E-01 0.  1.
         -3   -1    0    0    0  501 -0.00000000000E+00 -0.00000000000E+00 -0.71654828601E+01  0.71660863530E+01  0.93000000000E-01 0. -1.
        -11    1    1    2    0    0  0.90080755329E+01  0.43878566473E+01  0.30592780213E+01  0.10476540127E+02  0.51100000000E-03 0. -1.
         11    1    1    2    0    0 -0.90080755329E+01 -0.43878566473E+01  0.38025835113E+01  0.10717198906E+02  0.51100000000E-03 0.  1.
<mgrwt>
<rscale>  0 0.20052168E+02</rscale>
<asrwt>0</asrwt>
<pdfrwt beam="1">  1        3 0.21581231E-02 0.20052168E+02</pdfrwt>
<pdfrwt beam="2">  1       -3 0.11024521E-02 0.20052168E+02</pdfrwt>
<totfact> 0.17707785E+06</totfact>
</mgrwt>
</event>
<event>
 5    1  0.4133473E-007  0.2000358E+02  0.7818608E-02  0.1745257E+00
          3   -1    0    0  501    0  0.00000000000E+00  0.00000000000E+00  0.20459685151E+02  0.20459896516E+02  0.93000000000E-01 0. -1.
         -3   -1    0    0    0  501 -0.00000000000E+00 -0.00000000000E+00 -0.48887312638E+01  0.48896157691E+01  0.93000000000E-01 0.  1.
       1023    2    1    2    0    0  0.00000000000E+00  0.00000000000E+00  0.15570953887E+02  0.25349512286E+02  0.20003578884E+02 0.  0.
        -11    1    3    3    0    0 -0.16382578530E+00  0.99997352114E+01  0.79367452414E+01  0.12767672790E+02  0.51100000000E-03 0. -1.
         11    1    3    3    0    0  0.16382578530E+00 -0.99997352114E+01  0.76342086455E+01  0.12581839495E+02  0.51100000000E-03 0.  1.
<mgrwt>
<rscale>  0 0.20003579E+02</rscale>
<asrwt>0</asrwt>
<pdfrwt beam="1">  1        3 0.31477282E-02 0.20003579E+02</pdfrwt>
<pdfrwt beam="2">  1       -3 0.75219680E-03 0.20003579E+02</pdfrwt>
<totfact> 0.17538281E+06</totfact>
</mgrwt>
</event>
<event>
 5    1  0.4133473E-007  0.2000045E+02  0.7818608E-02  0.1745319E+00
          3   -1    0    0  501    0  0.00000000000E+00  0.00000000000E+00  0.95386689535E+00  0.95838982363E+00  0.93000000000E-01 0.  1.
         -3   -1    0    0    0  501 -0.00000000000E+00 -0.00000000000E+00 -0.10458867627E+03  0.10458871762E+03  0.93000000000E-01 0. -1.
       1023    2    1    2    0    0  0.00000000000E+00  0.00000000000E+00 -0.10363480938E+03  0.10554710744E+03  0.20000454373E+02 0.  0.
        -11    1    3    3    0    0 -0.86488061991E+01 -0.50201195234E+01 -0.51642791141E+02  0.52602103815E+02  0.51100000000E-03 0. -1.
         11    1    3    3    0    0  0.86488061991E+01  0.50201195234E+01 -0.51992018237E+02  0.52945003629E+02  0.51100000000E-03 0.  1.
<mgrwt>
<rscale>  0 0.20000454E+02</rscale>
<asrwt>0</asrwt>
<pdfrwt beam="1">  1        3 0.14709993E-03 0.20000454E+02</pdfrwt>
<pdfrwt beam="2">  1       -3 0.16090908E-01 0.20000454E+02</pdfrwt>
<totfact> 0.13990979E+06</totfact>
</mgrwt>
</event>
<event>
 5    1  0.4280059E-007  0.2000059E+02  0.7818608E-02  0.1745316E+00
         -3   -1    0    0    0  501 -0.00000000000E+00  0.00000000000E+00  0.54054884774E+01  0.54062884384E+01  0.93000000000E-01 0.  1.
          3   -1    0    0  501    0  0.00000000000E+00 -0.00000000000E+00 -0.18498527802E+02  0.18498761576E+02  0.93000000000E-01 0. -1.
       1023    2    1    2    0    0  0.00000000000E+00  0.00000000000E+00 -0.13093039325E+02  0.23905050015E+02  0.20000593427E+02 0.  0.
        -11    1    3    3    0    0  0.14603379836E+01 -0.98929876976E+01 -0.64912095586E+01  0.11922231100E+02  0.51100000000E-03 0. -1.
         11    1    3    3    0    0 -0.14603379836E+01  0.98929876976E+01 -0.66018297663E+01  0.11982818914E+02  0.51100000000E-03 0.  1.
<mgrwt>
<rscale>  0 0.20000593E+02</rscale>
<asrwt>0</asrwt>
<pdfrwt beam="2">  1        3 0.28460068E-02 0.20000593E+02</pdfrwt>
<pdfrwt beam="1">  1       -3 0.83169314E-03 0.20000593E+02</pdfrwt>
<totfact> 0.17633636E+06</totfact>
</mgrwt>
</event>
<event>
 5    1  0.4133473E-007  0.2000200E+02  0.7818608E-02  0.1745288E+00
         -3   -1    0    0    0  501 -0.00000000000E+00  0.00000000000E+00  0.18791247749E+01  0.18814247048E+01  0.93000000000E-01 0. -1.
          3   -1    0    0  501    0  0.00000000000E+00 -0.00000000000E+00 -0.53192027632E+02  0.53192108932E+02  0.93000000000E-01 0.  1.
       1023    2    1    2    0    0  0.00000000000E+00  0.00000000000E+00 -0.51312902857E+02  0.55073533637E+02  0.20002002590E+02 0.  0.
        -11    1    3    3    0    0 -0.98895366577E+01 -0.14853501426E+01 -0.25942941273E+02  0.27803694044E+02  0.51100000000E-03 0. -1.
         11    1    3    3    0    0  0.98895366577E+01  0.14853501426E+01 -0.25369961584E+02  0.27269839593E+02  0.51100000000E-03 0.  1.
<mgrwt>
<rscale>  0 0.20002003E+02</rscale>
<asrwt>0</asrwt>
<pdfrwt beam="2">  1        3 0.81835709E-02 0.20002003E+02</pdfrwt>
<pdfrwt beam="1">  1       -3 0.28927933E-03 0.20002003E+02</pdfrwt>
<totfact> 0.15963941E+06</totfact>
</mgrwt>
</event>
<event>
 5    1  0.4133473E-007  0.2000169E+02  0.7818608E-02  0.1745294E+00
         -3   -1    0    0    0  501 -0.00000000000E+00  0.00000000000E+00  0.11883768545E+03  0.11883772184E+03  0.93000000000E-01 0. -1.
          3   -1    0    0  501    0  0.00000000000E+00 -0.00000000000E+00 -0.83902070398E+00  0.84415919216E+00  0.93000000000E-01 0.  1.
       1023    2    1    2    0    0  0.00000000000E+00  0.00000000000E+00  0.11799866474E+03  0.11968188103E+03  0.20001694067E+02 0.  0.
        -11    1    3    3    0    0  0.62779578143E+01 -0.77848690904E+01  0.59000658542E+02  0.59842248033E+02  0.51100000000E-03 0. -1.
         11    1    3    3    0    0 -0.62779578143E+01  0.77848690904E+01  0.58998006200E+02  0.59839632995E+02  0.51100000000E-03 0.  1.
<mgrwt>
<rscale>  0 0.20001694E+02</rscale>
<asrwt>0</asrwt>
<pdfrwt beam="2">  1        3 0.12947813E-03 0.20001694E+02</pdfrwt>
<pdfrwt beam="1">  1       -3 0.18283125E-01 0.20001694E+02</pdfrwt>
<totfact> 0.13531126E+06</totfact>
</mgrwt>
</event>
<event>
 5    1  0.4133473E-007  0.2000055E+02  0.7818608E-02  0.1745317E+00
          3   -1    0    0  501    0  0.00000000000E+00  0.00000000000E+00  0.26527684620E+01  0.26543981451E+01  0.93000000000E-01 0. -1.
         -3   -1    0    0    0  501 -0.00000000000E+00 -0.00000000000E+00 -0.37685283991E+02  0.37685398744E+02  0.93000000000E-01 0.  1.
       1023    2    1    2    0    0  0.00000000000E+00  0.00000000000E+00 -0.35032515529E+02  0.40339796889E+02  0.20000551711E+02 0.  0.
        -11    1    3    3    0    0  0.59797602114E+00 -0.99823810693E+01 -0.17509946726E+02  0.20164417714E+02  0.51100000000E-03 0. -1.
         11    1    3    3    0    0 -0.59797602114E+00  0.99823810693E+01 -0.17522568803E+02  0.20175379175E+02  0.51100000000E-03 0.  1.
<mgrwt>
<rscale>  0 0.20000552E+02</rscale>
<asrwt>0</asrwt>
<pdfrwt beam="1">  1        3 0.40825244E-03 0.20000552E+02</pdfrwt>
<pdfrwt beam="2">  1       -3 0.57978698E-02 0.20000552E+02</pdfrwt>
<totfact> 0.16695189E+06</totfact>
</mgrwt>
</event>
<event>
 5    1  0.4133473E-007  0.2000058E+02  0.7818608E-02  0.1745316E+00
         -3   -1    0    0    0  501 -0.00000000000E+00  0.00000000000E+00  0.55771548624E+01  0.55779302039E+01  0.93000000000E-01 0. -1.
          3   -1    0    0  501    0  0.00000000000E+00 -0.00000000000E+00 -0.17929194260E+02  0.17929435457E+02  0.93000000000E-01 0.  1.
       1023    2    1    2    0    0  0.00000000000E+00  0.00000000000E+00 -0.12352039398E+02  0.23507365661E+02  0.20000584068E+02 0.  0.
        -11    1    3    3    0    0 -0.37908111556E+01  0.92538006489E+01 -0.62378207383E+01  0.11786156434E+02  0.51100000000E-03 0. -1.
         11    1    3    3    0    0  0.37908111556E+01 -0.92538006489E+01 -0.61142186594E+01  0.11721209227E+02  0.51100000000E-03 0.  1.
<mgrwt>
<rscale>  0 0.20000584E+02</rscale>
<asrwt>0</asrwt>
<pdfrwt beam="2">  1        3 0.27584157E-02 0.20000584E+02</pdfrwt>
<pdfrwt beam="1">  1       -3 0.85810203E-03 0.20000584E+02</pdfrwt>
<totfact> 0.17658587E+06</totfact>
</mgrwt>
</event>
<event>
 5    1  0.4138945E-007  0.2000097E+02  0.7818608E-02  0.1745309E+00
         -3   -1    0    0    0  501 -0.00000000000E+00  0.00000000000E+00  0.29386744214E+01  0.29401456350E+01  0.93000000000E-01 0. -1.
          3   -1    0    0  501    0  0.00000000000E+00 -0.00000000000E+00 -0.34022185816E+02  0.34022312924E+02  0.93000000000E-01 0.  1.
       1023    2    1    2    0    0  0.00000000000E+00  0.00000000000E+00 -0.31083511395E+02  0.36962458559E+02  0.20000966529E+02 0.  0.
        -11    1    3    3    0    0 -0.31865433837E+01 -0.94792186681E+01 -0.15550014459E+02  0.18488174470E+02  0.51100000000E-03 0. -1.
         11    1    3    3    0    0  0.31865433837E+01  0.94792186681E+01 -0.15533496935E+02  0.18474284089E+02  0.51100000000E-03 0.  1.
<mgrwt>
<rscale>  0 0.20000967E+02</rscale>
<asrwt>0</asrwt>
<pdfrwt beam="2">  1        3 0.52343051E-02 0.20000967E+02</pdfrwt>
<pdfrwt beam="1">  1       -3 0.45222673E-03 0.20000967E+02</pdfrwt>
<totfact> 0.16872697E+06</totfact>
</mgrwt>
</event>
<event>
 5    1  0.4189060E-007  0.2000068E+02  0.7818608E-02  0.1745315E+00
          3   -1    0    0  501    0  0.00000000000E+00  0.00000000000E+00  0.23904372103E+02  0.23904553011E+02  0.93000000000E-01 0. -1.
         -3   -1    0    0    0  501 -0.00000000000E+00 -0.00000000000E+00 -0.41829065843E+01  0.41839403070E+01  0.93000000000E-01 0.  1.
       1023    2    1    2    0    0  0.00000000000E+00  0.00000000000E+00  0.19721465519E+02  0.28088493318E+02  0.20000681355E+02 0.  0.
        -11    1    3    3    0    0  0.60419386443E+01 -0.79686193161E+01  0.99363218423E+01  0.14097319192E+02  0.51100000000E-03 0.  1.
         11    1    3    3    0    0 -0.60419386443E+01  0.79686193161E+01  0.97851436764E+01  0.13991174126E+02  0.51100000000E-03 0. -1.
<mgrwt>
<rscale>  0 0.20000681E+02</rscale>
<asrwt>0</asrwt>
<pdfrwt beam="1">  1        3 0.36776891E-02 0.20000681E+02</pdfrwt>
<pdfrwt beam="2">  1       -3 0.64361753E-03 0.20000681E+02</pdfrwt>
<totfact> 0.17377886E+06</totfact>
</mgrwt>
</event>
<event>
 5    1  0.4133473E-007  0.2000417E+02  0.7818608E-02  0.1745245E+00
         -3   -1    0    0    0  501 -0.00000000000E+00  0.00000000000E+00  0.50339559125E+02  0.50339645032E+02  0.93000000000E-01 0.  1.
          3   -1    0    0  501    0  0.00000000000E+00 -0.00000000000E+00 -0.19861613119E+01  0.19883374353E+01  0.93000000000E-01 0. -1.
       1023    2    1    2    0    0  0.00000000000E+00  0.00000000000E+00  0.48353397814E+02  0.52327982467E+02  0.20004166291E+02 0.  0.
        -11    1    3    3    0    0  0.99924078271E+01 -0.39711342617E+00  0.23682076029E+02  0.25706937557E+02  0.51100000000E-03 0.  1.
         11    1    3    3    0    0 -0.99924078271E+01  0.39711342617E+00  0.24671321785E+02  0.26621044910E+02  0.51100000000E-03 0. -1.
<mgrwt>
<rscale>  0 0.20004166E+02</rscale>
<asrwt>0</asrwt>
<pdfrwt beam="2">  1        3 0.30573732E-03 0.20004166E+02</pdfrwt>
<pdfrwt beam="1">  1       -3 0.77447205E-02 0.20004166E+02</pdfrwt>
<totfact> 0.16091320E+06</totfact>
</mgrwt>
</event>
<event>
 5    1  0.4235067E-007  0.2000132E+02  0.7818608E-02  0.1745302E+00
         -3   -1    0    0    0  501 -0.00000000000E+00  0.00000000000E+00  0.60584853862E+01  0.60591991364E+01  0.93000000000E-01 0. -1.
          3   -1    0    0  501    0  0.00000000000E+00 -0.00000000000E+00 -0.16506136328E+02  0.16506398320E+02  0.93000000000E-01 0.  1.
       1023    2    1    2    0    0  0.00000000000E+00  0.00000000000E+00 -0.10447650942E+02  0.22565597456E+02  0.20001319415E+02 0.  0.
        -11    1    3    3    0    0 -0.98767535540E+01 -0.15687022963E+01 -0.51720426296E+01  0.11258823779E+02  0.51100000000E-03 0.  1.
         11    1    3    3    0    0  0.98767535540E+01  0.15687022963E+01 -0.52756083125E+01  0.11306773677E+02  0.51100000000E-03 0. -1.
<mgrwt>
<rscale>  0 0.20001319E+02</rscale>
<asrwt>0</asrwt>
<pdfrwt beam="2">  1        3 0.25394806E-02 0.20001319E+02</pdfrwt>
<pdfrwt beam="1">  1       -3 0.93214974E-03 0.20001319E+02</pdfrwt>
<totfact> 0.17716789E+06</totfact>
</mgrwt>
</event>
<event>
 5    1  0.4133473E-007  0.2000167E+02  0.7818608E-02  0.1745295E+00
          3   -1    0    0  501    0  0.00000000000E+00  0.00000000000E+00  0.13504998272E+01  0.13536981876E+01  0.93000000000E-01 0.  1.
         -3   -1    0    0    0  501 -0.00000000000E+00 -0.00000000000E+00 -0.73968229669E+02  0.73968288134E+02  0.93000000000E-01 0. -1.
       1023    2    1    2    0    0  0.00000000000E+00  0.00000000000E+00 -0.72617729842E+02  0.75321986321E+02  0.20001673329E+02 0.  0.
        -11    1    3    3    0    0  0.95504935389E+00 -0.99548957797E+01 -0.36566056445E+02  0.37908950835E+02  0.51100000000E-03 0. -1.
         11    1    3    3    0    0 -0.95504935389E+00  0.99548957797E+01 -0.36051673397E+02  0.37413035486E+02  0.51100000000E-03 0.  1.
<mgrwt>
<rscale>  0 0.20001673E+02</rscale>
<asrwt>0</asrwt>
<pdfrwt beam="1">  1        3 0.20801979E-03 0.20001673E+02</pdfrwt>
<pdfrwt beam="2">  1       -3 0.11379975E-01 0.20001673E+02</pdfrwt>
<totfact> 0.15096180E+06</totfact>
</mgrwt>
</event>
<event>
 4    1  0.4133473E-007  0.2006706E+02  0.7818608E-02  0.1743998E+00
         -3   -1    0    0    0  501 -0.00000000000E+00  0.00000000000E+00  0.34151334834E+01  0.34163995243E+01  0.93000000000E-01 0. -1.
          3   -1    0    0  501    0  0.00000000000E+00 -0.00000000000E+00 -0.29471331765E+02  0.29471478500E+02  0.93000000000E-01 0.  1.
        -11    1    1    2    0    0  0.64060510191E+01  0.76860461102E+01 -0.14253408093E+02  0.17414718975E+02  0.51100000000E-03 0.  1.
         11    1    1    2    0    0 -0.64060510191E+01 -0.76860461102E+01 -0.11802790189E+02  0.15473159049E+02  0.51100000000E-03 0. -1.
<mgrwt>
<rscale>  0 0.20067064E+02</rscale>
<asrwt>0</asrwt>
<pdfrwt beam="2">  1        3 0.45341595E-02 0.20067064E+02</pdfrwt>
<pdfrwt beam="1">  1       -3 0.52551385E-03 0.20067064E+02</pdfrwt>
<totfact> 0.16977627E+06</totfact>
</mgrwt>
</event>
<event>
 5    1  0.4133473E-007  0.2000016E+02  0.7818608E-02  0.1745325E+00
          3   -1    0    0  501    0  0.00000000000E+00  0.00000000000E+00  0.86978292554E+01  0.86983264343E+01  0.93000000000E-01 0. -1.
         -3   -1    0    0    0  501 -0.00000000000E+00 -0.00000000000E+00 -0.11496290933E+02  0.11496667092E+02  0.93000000000E-01 0.  1.
       1023    2    1    2    0    0  0.00000000000E+00  0.00000000000E+00 -0.27984616779E+01  0.20194993526E+02  0.20000159393E+02 0.  0.
        -11    1    3    3    0    0 -0.99615079172E+01  0.87745026953E+00 -0.14051805622E+01  0.10098321228E+02  0.51100000000E-03 0.  1.
         11    1    3    3    0    0  0.99615079172E+01 -0.87745026953E+00 -0.13932811157E+01  0.10096672298E+02  0.51100000000E-03 0. -1.
<mgrwt>
<rscale>  0 0.20000159E+02</rscale>
<asrwt>0</asrwt>
<pdfrwt beam="1">  1        3 0.13381948E-02 0.20000159E+02</pdfrwt>
<pdfrwt beam="2">  1       -3 0.17687273E-02 0.20000159E+02</pdfrwt>
<totfact> 0.17872692E+06</totfact>
</mgrwt>
</event>
<event>
 5    1  0.4322427E-007  0.2000096E+02  0.7818608E-02  0.1745309E+00
          3   -1    0    0  501    0  0.00000000000E+00  0.00000000000E+00  0.13316502838E+02  0.13316827581E+02  0.93000000000E-01 0. -1.
         -3   -1    0    0    0  501 -0.00000000000E+00 -0.00000000000E+00 -0.75094964799E+01  0.75100723287E+01  0.93000000000E-01 0.  1.
       1023    2    1    2    0    0  0.00000000000E+00  0.00000000000E+00  0.58070063578E+01  0.20826899910E+02  0.20000960902E+02 0.  0.
        -11    1    3    3    0    0 -0.95196314069E+01  0.30632391543E+01  0.29585319838E+01  0.10428793219E+02  0.51100000000E-03 0.  1.
         11    1    3    3    0    0  0.95196314069E+01 -0.30632391543E+01  0.28484743740E+01  0.10398106691E+02  0.51100000000E-03 0. -1.
<mgrwt>
<rscale>  0 0.20000961E+02</rscale>
<asrwt>0</asrwt>
<pdfrwt beam="1">  1        3 0.20487620E-02 0.20000961E+02</pdfrwt>
<pdfrwt beam="2">  1       -3 0.11553764E-02 0.20000961E+02</pdfrwt>
<totfact> 0.17829533E+06</totfact>
</mgrwt>
</event>
<event>
 5    1  0.4133473E-007  0.2000010E+02  0.7818608E-02  0.1745326E+00
         -3   -1    0    0    0  501 -0.00000000000E+00  0.00000000000E+00  0.21248137966E+02  0.21248341489E+02  0.93000000000E-01 0. -1.
          3   -1    0    0  501    0  0.00000000000E+00 -0.00000000000E+00 -0.47056573377E+01  0.47065762482E+01  0.93000000000E-01 0.  1.
       1023    2    1    2    0    0  0.00000000000E+00  0.00000000000E+00  0.16542480628E+02  0.25954917737E+02  0.20000102235E+02 0.  0.
        -11    1    3    3    0    0  0.37543378121E+01 -0.92685319373E+01  0.82493162916E+01  0.12963485497E+02  0.51100000000E-03 0. -1.
         11    1    3    3    0    0 -0.37543378121E+01  0.92685319373E+01  0.82931643368E+01  0.12991432241E+02  0.51100000000E-03 0.  1.
<mgrwt>
<rscale>  0 0.20000102E+02</rscale>
<asrwt>0</asrwt>
<pdfrwt beam="2">  1        3 0.72403362E-03 0.20000102E+02</pdfrwt>
<pdfrwt beam="1">  1       -3 0.32690307E-02 0.20000102E+02</pdfrwt>
<totfact> 0.17509034E+06</totfact>
</mgrwt>
</event>
<event>
 5    1  0.4133473E-007  0.2000053E+02  0.7818608E-02  0.1745317E+00
          3   -1    0    0  501    0  0.00000000000E+00  0.00000000000E+00  0.27917045817E+01  0.27932532058E+01  0.93000000000E-01 0. -1.
         -3   -1    0    0    0  501 -0.00000000000E+00 -0.00000000000E+00 -0.35810779107E+02  0.35810899866E+02  0.93000000000E-01 0.  1.
       1023    2    1    2    0    0  0.00000000000E+00  0.00000000000E+00 -0.33019074525E+02  0.38604153072E+02  0.20000533791E+02 0.  0.
        -11    1    3    3    0    0  0.96086198385E+01 -0.27711845852E+01 -0.16476188869E+02  0.19273552841E+02  0.51100000000E-03 0.  1.
         11    1    3    3    0    0 -0.96086198385E+01  0.27711845852E+01 -0.16542885656E+02  0.19330600231E+02  0.51100000000E-03 0. -1.
<mgrwt>
<rscale>  0 0.20000534E+02</rscale>
<asrwt>0</asrwt>
<pdfrwt beam="1">  1        3 0.42962145E-03 0.20000534E+02</pdfrwt>
<pdfrwt beam="2">  1       -3 0.55094787E-02 0.20000534E+02</pdfrwt>
<totfact> 0.16787155E+06</totfact>
</mgrwt>
</event>
<event>
 5    1  0.4133473E-007  0.2000701E+02  0.7818608E-02  0.1745189E+00
          3   -1    0    0  501    0  0.00000000000E+00  0.00000000000E+00  0.18593648505E+02  0.18593881083E+02  0.93000000000E-01 0. -1.
         -3   -1    0    0    0  501 -0.00000000000E+00 -0.00000000000E+00 -0.53812834841E+01  0.53820870428E+01  0.93000000000E-01 0.  1.
       1023    2    1    2    0    0  0.00000000000E+00  0.00000000000E+00  0.13212365021E+02  0.23975968125E+02  0.20007010224E+02 0.  0.
        -11    1    3    3    0    0 -0.13109181614E+00 -0.10002646097E+02  0.66055801486E+01  0.11987652121E+02  0.51100000000E-03 0. -1.
         11    1    3    3    0    0  0.13109181614E+00  0.10002646097E+02  0.66067848720E+01  0.11988316004E+02  0.51100000000E-03 0.  1.
<mgrwt>
<rscale>  0 0.20007010E+02</rscale>
<asrwt>0</asrwt>
<pdfrwt beam="1">  1        3 0.28606411E-02 0.20007010E+02</pdfrwt>
<pdfrwt beam="2">  1       -3 0.82796945E-03 0.20007010E+02</pdfrwt>
<totfact> 0.17617030E+06</totfact>
</mgrwt>
</event>
<event>
 5    1  0.4133473E-007  0.2000037E+02  0.7818608E-02  0.1745321E+00
         -3   -1    0    0    0  501 -0.00000000000E+00  0.00000000000E+00  0.18908633228E+01  0.18931489919E+01  0.93000000000E-01 0. -1.
          3   -1    0    0  501    0  0.00000000000E+00 -0.00000000000E+00 -0.52853596567E+02  0.52853678387E+02  0.93000000000E-01 0.  1.
       1023    2    1    2    0    0  0.00000000000E+00  0.00000000000E+00 -0.50962733244E+02  0.54746827379E+02  0.20000373205E+02 0.  0.
        -11    1    3    3    0    0  0.50464371329E+01 -0.86334619445E+01 -0.25417819931E+02  0.27314259338E+02  0.51100000000E-03 0.  1.
         11    1    3    3    0    0 -0.50464371329E+01  0.86334619445E+01 -0.25544913313E+02  0.27432568040E+02  0.51100000000E-03 0. -1.
<mgrwt>
<rscale>  0 0.20000373E+02</rscale>
<asrwt>0</asrwt>
<pdfrwt beam="2">  1        3 0.81315036E-02 0.20000373E+02</pdfrwt>
<pdfrwt beam="1">  1       -3 0.29108420E-03 0.20000373E+02</pdfrwt>
<totfact> 0.15981878E+06</totfact>
</mgrwt>
</event>
<event>
 5    1  0.4133473E-007  0.2000021E+02  0.7818608E-02  0.1745324E+00
         -3   -1    0    0    0  501 -0.00000000000E+00  0.00000000000E+00  0.74654313637E+01  0.74660106112E+01  0.93000000000E-01 0. -1.
          3   -1    0    0  501    0  0.00000000000E+00 -0.00000000000E+00 -0.13394100677E+02  0.13394423539E+02  0.93000000000E-01 0.  1.
       1023    2    1    2    0    0  0.00000000000E+00  0.00000000000E+00 -0.59286693131E+01  0.20860434150E+02  0.20000214827E+02 0.  0.
        -11    1    3    3    0    0 -0.90476084078E+01 -0.42592455370E+01 -0.29206081117E+01  0.10417789710E+02  0.51100000000E-03 0.  1.
         11    1    3    3    0    0  0.90476084078E+01  0.42592455370E+01 -0.30080612014E+01  0.10442644440E+02  0.51100000000E-03 0. -1.
<mgrwt>
<rscale>  0 0.20000215E+02</rscale>
<asrwt>0</asrwt>
<pdfrwt beam="2">  1        3 0.20607003E-02 0.20000215E+02</pdfrwt>
<pdfrwt beam="1">  1       -3 0.11485973E-02 0.20000215E+02</pdfrwt>
<totfact> 0.17828772E+06</totfact>
</mgrwt>
</event>
<event>
 5    1  0.4133473E-007  0.2000059E+02  0.7818608E-02  0.1745316E+00
         -3   -1    0    0    0  501 -0.00000000000E+00  0.00000000000E+00  0.57721755358E+02  0.57721830277E+02  0.93000000000E-01 0.  1.
          3   -1    0    0  501    0  0.00000000000E+00 -0.00000000000E+00 -0.17312264968E+01  0.17337226373E+01  0.93000000000E-01 0. -1.
       1023    2    1    2    0    0  0.00000000000E+00  0.00000000000E+00  0.55990528861E+02  0.59455552915E+02  0.20000586248E+02 0.  0.
        -11    1    3    3    0    0  0.99775181719E+01  0.67267776114E+00  0.28143841470E+02  0.29867694541E+02  0.51100000000E-03 0. -1.
         11    1    3    3    0    0 -0.99775181719E+01 -0.67267776114E+00  0.27846687391E+02  0.29587858374E+02  0.51100000000E-03 0.  1.
<mgrwt>
<rscale>  0 0.20000586E+02</rscale>
<asrwt>0</asrwt>
<pdfrwt beam="2">  1        3 0.26654034E-03 0.20000586E+02</pdfrwt>
<pdfrwt beam="1">  1       -3 0.88804670E-02 0.20000586E+02</pdfrwt>
<totfact> 0.15769749E+06</totfact>
</mgrwt>
</event>
<event>
 5    1  0.4357183E-007  0.2000198E+02  0.7818608E-02  0.1745289E+00
         -3   -1    0    0    0  501 -0.00000000000E+00  0.00000000000E+00  0.64584147381E+02  0.64584214340E+02  0.93000000000E-01 0.  1.
          3   -1    0    0  501    0  0.00000000000E+00 -0.00000000000E+00 -0.15472095016E+01  0.15500020135E+01  0.93000000000E-01 0. -1.
       1023    2    1    2    0    0  0.00000000000E+00  0.00000000000E+00  0.63036937880E+02  0.66134216354E+02  0.20001975790E+02 0.  0.
        -11    1    3    3    0    0 -0.99790768719E+01  0.64972589090E+00  0.31931960866E+02  0.33461234944E+02  0.51100000000E-03 0.  1.
         11    1    3    3    0    0  0.99790768719E+01 -0.64972589090E+00  0.31104977013E+02  0.32672981410E+02  0.51100000000E-03 0. -1.
<mgrwt>
<rscale>  0 0.20001976E+02</rscale>
<asrwt>0</asrwt>
<pdfrwt beam="2">  1        3 0.23825220E-03 0.20001976E+02</pdfrwt>
<pdfrwt beam="1">  1       -3 0.99362421E-02 0.20001976E+02</pdfrwt>
<totfact> 0.15475406E+06</totfact>
</mgrwt>
</event>
<event>
 5    1  0.4133473E-007  0.2000145E+02  0.7818608E-02  0.1745299E+00
          3   -1    0    0  501    0  0.00000000000E+00  0.00000000000E+00  0.21402501654E+01  0.21422697707E+01  0.93000000000E-01 0.  1.
         -3   -1    0    0    0  501 -0.00000000000E+00 -0.00000000000E+00 -0.46706186773E+02  0.46706279363E+02  0.93000000000E-01 0. -1.
       1023    2    1    2    0    0  0.00000000000E+00  0.00000000000E+00 -0.44565936608E+02  0.48848549133E+02  0.20001451115E+02 0.  0.
        -11    1    3    3    0    0  0.72569323421E+01  0.68810600283E+01 -0.22161903581E+02  0.24313823737E+02  0.51100000000E-03 0.  1.
         11    1    3    3    0    0 -0.72569323421E+01 -0.68810600283E+01 -0.22404033027E+02  0.24534725396E+02  0.51100000000E-03 0. -1.
<mgrwt>
<rscale>  0 0.20001451E+02</rscale>
<asrwt>0</asrwt>
<pdfrwt beam="1">  1        3 0.32943177E-03 0.20001451E+02</pdfrwt>
<pdfrwt beam="2">  1       -3 0.71857289E-02 0.20001451E+02</pdfrwt>
<totfact> 0.16263057E+06</totfact>
</mgrwt>
</event>
<event>
 4    1  0.4133473E-007  0.2001982E+02  0.7818608E-02  0.1744934E+00
          3   -1    0    0  501    0  0.00000000000E+00  0.00000000000E+00  0.21558128983E+02  0.21558329579E+02  0.93000000000E-01 0. -1.
         -3   -1    0    0    0  501 -0.00000000000E+00 -0.00000000000E+00 -0.46471311782E+01  0.46480616591E+01  0.93000000000E-01 0.  1.
        -11    1    1    2    0    0 -0.89017623611E+01 -0.45668169327E+01  0.88716845915E+01  0.13371760459E+02  0.51100000000E-03 0. -1.
         11    1    1    2    0    0  0.89017623611E+01  0.45668169327E+01  0.80393132132E+01  0.12834630779E+02  0.51100000000E-03 0.  1.
<mgrwt>
<rscale>  0 0.20019818E+02</rscale>
<asrwt>0</asrwt>
<pdfrwt beam="1">  1        3 0.33167222E-02 0.20019818E+02</pdfrwt>
<pdfrwt beam="2">  1       -3 0.71503027E-03 0.20019818E+02</pdfrwt>
<totfact> 0.17455298E+06</totfact>
</mgrwt>
</event>
<event>
 5    1  0.4133473E-007  0.2000012E+02  0.7818608E-02  0.1745326E+00
          3   -1    0    0  501    0  0.00000000000E+00  0.00000000000E+00  0.17039106096E+01  0.17064467075E+01  0.93000000000E-01 0.  1.
         -3   -1    0    0    0  501 -0.00000000000E+00 -0.00000000000E+00 -0.58643002223E+02  0.58643075966E+02  0.93000000000E-01 0. -1.
       1023    2    1    2    0    0  0.00000000000E+00  0.00000000000E+00 -0.56939091614E+02  0.60349522673E+02  0.20000118328E+02 0.  0.
        -11    1    3    3    0    0  0.94568010889E+01  0.32510827555E+01 -0.28540767046E+02  0.30241957770E+02  0.51100000000E-03 0. -1.
         11    1    3    3    0    0 -0.94568010889E+01 -0.32510827555E+01 -0.28398324568E+02  0.30107564904E+02  0.51100000000E-03 0.  1.
<mgrwt>
<rscale>  0 0.20000118E+02</rscale>
<asrwt>0</asrwt>
<pdfrwt beam="1">  1        3 0.26234090E-03 0.20000118E+02</pdfrwt>
<pdfrwt beam="2">  1       -3 0.90221996E-02 0.20000118E+02</pdfrwt>
<totfact> 0.15730620E+06</totfact>
</mgrwt>
</event>
<event>
 5    1  0.4375577E-007  0.2000193E+02  0.7818608E-02  0.1745290E+00
          3   -1    0    0  501    0  0.00000000000E+00  0.00000000000E+00  0.98037724415E+01  0.98042135373E+01  0.93000000000E-01 0. -1.
         -3   -1    0    0    0  501 -0.00000000000E+00 -0.00000000000E+00 -0.10201238778E+02  0.10201662688E+02  0.93000000000E-01 0.  1.
       1023    2    1    2    0    0  0.00000000000E+00  0.00000000000E+00 -0.39746633632E+00  0.20005876225E+02  0.20001927509E+02 0.  0.
        -11    1    3    3    0    0  0.96761620153E+01 -0.25244710797E+01 -0.63761450911E-01  0.10000256565E+02  0.51100000000E-03 0.  1.
         11    1    3    3    0    0 -0.96761620153E+01  0.25244710797E+01 -0.33370488541E+00  0.10005619661E+02  0.51100000000E-03 0. -1.
<mgrwt>
<rscale>  0 0.20001928E+02</rscale>
<asrwt>0</asrwt>
<pdfrwt beam="1">  1        3 0.15083392E-02 0.20001928E+02</pdfrwt>
<pdfrwt beam="2">  1       -3 0.15694879E-02 0.20001928E+02</pdfrwt>
<totfact> 0.17881549E+06</totfact>
</mgrwt>
</event>
<event>
 5    1  0.4133473E-007  0.2000019E+02  0.7818608E-02  0.1745324E+00
          3   -1    0    0  501    0  0.00000000000E+00  0.00000000000E+00  0.10441929313E+03  0.10441933455E+03  0.93000000000E-01 0. -1.
         -3   -1    0    0    0  501 -0.00000000000E+00 -0.00000000000E+00 -0.95539586696E+00  0.95991159103E+00  0.93000000000E-01 0.  1.
       1023    2    1    2    0    0  0.00000000000E+00  0.00000000000E+00  0.10346389726E+03  0.10537924614E+03  0.20000186981E+02 0.  0.
        -11    1    3    3    0    0  0.49306175871E+01  0.87000418208E+01  0.51796926964E+02  0.52753420370E+02  0.51100000000E-03 0.  1.
         11    1    3    3    0    0 -0.49306175871E+01 -0.87000418208E+01  0.51666970299E+02  0.52625825766E+02  0.51100000000E-03 0. -1.
<mgrwt>
<rscale>  0 0.20000187E+02</rscale>
<asrwt>0</asrwt>
<pdfrwt beam="1">  1        3 0.16064858E-01 0.20000187E+02</pdfrwt>
<pdfrwt beam="2">  1       -3 0.14733452E-03 0.20000187E+02</pdfrwt>
<totfact> 0.13994233E+06</totfact>
</mgrwt>
</event>
<event>
 4    1  0.4133473E-007  0.2010514E+02  0.7818608E-02  0.1743245E+00
          3   -1    0    0  501    0  0.00000000000E+00  0.00000000000E+00  0.37499823361E+01  0.37511353643E+01  0.93000000000E-01 0.  1.
         -3   -1    0    0    0  501 -0.00000000000E+00 -0.00000000000E+00 -0.26942521008E+02  0.26942681516E+02  0.93000000000E-01 0. -1.
        -11    1    1    2    0    0 -0.11978171787E+01  0.99495543658E+01 -0.12803916484E+02  0.16259418060E+02  0.51100000000E-03 0.  1.
         11    1    1    2    0    0  0.11978171787E+01 -0.99495543658E+01 -0.10388622188E+02  0.14434398820E+02  0.51100000000E-03 0. -1.
<mgrwt>
<rscale>  0 0.20105137E+02</rscale>
<asrwt>0</asrwt>
<pdfrwt beam="1">  1        3 0.57702142E-03 0.20105137E+02</pdfrwt>
<pdfrwt beam="2">  1       -3 0.41451041E-02 0.20105137E+02</pdfrwt>
<totfact> 0.17034469E+06</totfact>
</mgrwt>
</event>
<event>
 5    1  0.4133473E-007  0.2000192E+02  0.7818608E-02  0.1745290E+00
         -3   -1    0    0    0  501 -0.00000000000E+00  0.00000000000E+00  0.20821557507E+01  0.20842316499E+01  0.93000000000E-01 0.  1.
          3   -1    0    0  501    0  0.00000000000E+00 -0.00000000000E+00 -0.48010309479E+02  0.48010399554E+02  0.93000000000E-01 0. -1.
       1023    2    1    2    0    0  0.00000000000E+00  0.00000000000E+00 -0.45928153729E+02  0.50094631203E+02  0.20001919170E+02 0.  0.
        -11    1    3    3    0    0 -0.44329098823E+01  0.89637997817E+01 -0.23307437156E+02  0.25362117885E+02  0.51100000000E-03 0. -1.
         11    1    3    3    0    0  0.44329098823E+01 -0.89637997817E+01 -0.22620716572E+02  0.24732513319E+02  0.51100000000E-03 0.  1.
<mgrwt>
<rscale>  0 0.20001919E+02</rscale>
<asrwt>0</asrwt>
<pdfrwt beam="2">  1        3 0.73863673E-02 0.20001919E+02</pdfrwt>
<pdfrwt beam="1">  1       -3 0.32049830E-03 0.20001919E+02</pdfrwt>
<totfact> 0.16199285E+06</totfact>
</mgrwt>
</event>
<event>
 5    1  0.4133473E-007  0.2000063E+02  0.7818608E-02  0.1745316E+00
          3   -1    0    0  501    0  0.00000000000E+00  0.00000000000E+00  0.71198899875E+02  0.71198960613E+02  0.93000000000E-01 0. -1.
         -3   -1    0    0    0  501 -0.00000000000E+00 -0.00000000000E+00 -0.14030039174E+01  0.14060828540E+01  0.93000000000E-01 0.  1.
       1023    2    1    2    0    0  0.00000000000E+00  0.00000000000E+00  0.69795895958E+02  0.72605043467E+02  0.20000631099E+02 0.  0.
        -11    1    3    3    0    0  0.94083947875E+01 -0.33893834002E+01  0.34979000001E+02  0.36380437788E+02  0.51100000000E-03 0.  1.
         11    1    3    3    0    0 -0.94083947875E+01  0.33893834002E+01  0.34816895957E+02  0.36224605680E+02  0.51100000000E-03 0. -1.
<mgrwt>
<rscale>  0 0.20000631E+02</rscale>
<asrwt>0</asrwt>
<pdfrwt beam="1">  1        3 0.10953915E-01 0.20000631E+02</pdfrwt>
<pdfrwt beam="2">  1       -3 0.21608834E-03 0.20000631E+02</pdfrwt>
<totfact> 0.15204789E+06</totfact>
</mgrwt>
</event>
<event>
 5    1  0.4133473E-007  0.2000029E+02  0.7818608E-02  0.1745322E+00
          3   -1    0    0  501    0  0.00000000000E+00  0.00000000000E+00  0.62958741070E+01  0.62965609480E+01  0.93000000000E-01 0. -1.
         -3   -1    0    0    0  501 -0.00000000000E+00 -0.00000000000E+00 -0.15882184068E+02  0.15882456352E+02  0.93000000000E-01 0.  1.
       1023    2    1    2    0    0  0.00000000000E+00  0.00000000000E+00 -0.95863099607E+01  0.22179017300E+02  0.20000286741E+02 0.  0.
        -11    1    3    3    0    0  0.25357402688E+01 -0.96732742757E+01 -0.47648121296E+01  0.11077258181E+02  0.51100000000E-03 0. -1.
         11    1    3    3    0    0 -0.25357402688E+01  0.96732742757E+01 -0.48214978311E+01  0.11101759118E+02  0.51100000000E-03 0.  1.
<mgrwt>
<rscale>  0 0.20000287E+02</rscale>
<asrwt>0</asrwt>
<pdfrwt beam="1">  1        3 0.96866980E-03 0.20000287E+02</pdfrwt>
<pdfrwt beam="2">  1       -3 0.24434867E-02 0.20000287E+02</pdfrwt>
<totfact> 0.17744261E+06</totfact>
</mgrwt>
</event>
<event>
 5    1  0.4347165E-007  0.2000056E+02  0.7818608E-02  0.1745317E+00
         -3   -1    0    0    0  501 -0.00000000000E+00  0.00000000000E+00  0.93577750695E+01  0.93582371872E+01  0.93000000000E-01 0.  1.
          3   -1    0    0  501    0  0.00000000000E+00 -0.00000000000E+00 -0.10685968044E+02  0.10686372726E+02  0.93000000000E-01 0. -1.
       1023    2    1    2    0    0  0.00000000000E+00  0.00000000000E+00 -0.13281929743E+01  0.20044609913E+02  0.20000557242E+02 0.  0.
        -11    1    3    3    0    0 -0.72623057384E+01 -0.68747934372E+01 -0.62274070219E+00  0.10019564646E+02  0.51100000000E-03 0. -1.
         11    1    3    3    0    0  0.72623057384E+01  0.68747934372E+01 -0.70545227207E+00  0.10025045267E+02  0.51100000000E-03 0.  1.
<mgrwt>
<rscale>  0 0.20000557E+02</rscale>
<asrwt>0</asrwt>
<pdfrwt beam="2">  1        3 0.16440618E-02 0.20000557E+02</pdfrwt>
<pdfrwt beam="1">  1       -3 0.14397244E-02 0.20000557E+02</pdfrwt>
<totfact> 0.17881595E+06</totfact>
</mgrwt>
</event>
<event>
 5    1  0.4133473E-007  0.2000104E+02  0.7818608E-02  0.1745307E+00
         -3   -1    0    0    0  501 -0.00000000000E+00  0.00000000000E+00  0.89460814276E+00  0.89942911288E+00  0.93000000000E-01 0. -1.
          3   -1    0    0  501    0  0.00000000000E+00 -0.00000000000E+00 -0.11148715013E+03  0.11148718892E+03  0.93000000000E-01 0.  1.
       1023    2    1    2    0    0  0.00000000000E+00  0.00000000000E+00 -0.11059254199E+03  0.11238661803E+03  0.20001039211E+02 0.  0.
        -11    1    3    3    0    0 -0.97089976823E+01 -0.23949454544E+01 -0.54734580942E+02  0.55640585465E+02  0.51100000000E-03 0. -1.
         11    1    3    3    0    0  0.97089976823E+01  0.23949454544E+01 -0.55857961048E+02  0.56746032569E+02  0.51100000000E-03 0.  1.
<mgrwt>
<rscale>  0 0.20001039E+02</rscale>
<asrwt>0</asrwt>
<pdfrwt beam="2">  1        3 0.17152232E-01 0.20001039E+02</pdfrwt>
<pdfrwt beam="1">  1       -3 0.13800594E-03 0.20001039E+02</pdfrwt>
<totfact> 0.13761608E+06</totfact>
</mgrwt>
</event>
<event>
 4    1  0.4133473E-007  0.2001722E+02  0.7818608E-02  0.1744986E+00
          3   -1    0    0  501    0  0.00000000000E+00  0.00000000000E+00  0.19574048230E+01  0.19596128804E+01  0.93000000000E-01 0. -1.
         -3   -1    0    0    0  501 -0.00000000000E+00 -0.00000000000E+00 -0.51144986507E+02  0.51145071061E+02  0.93000000000E-01 0.  1.
        -11    1    1    2    0    0  0.84291478893E+01  0.53964248598E+01 -0.24542043069E+02  0.26504411212E+02  0.51100000000E-03 0. -1.
         11    1    1    2    0    0 -0.84291478893E+01 -0.53964248598E+01 -0.24645538615E+02  0.26600272730E+02  0.51100000000E-03 0.  1.
<mgrwt>
<rscale>  0 0.20017224E+02</rscale>
<asrwt>0</asrwt>
<pdfrwt beam="1">  1        3 0.30131560E-03 0.20017224E+02</pdfrwt>
<pdfrwt beam="2">  1       -3 0.78686348E-02 0.20017224E+02</pdfrwt>
<totfact> 0.16032209E+06</totfact>
</mgrwt>
</event>
<event>
 5    1  0.4133473E-007  0.2000198E+02  0.7818608E-02  0.1745289E+00
          3   -1    0    0  501    0  0.00000000000E+00  0.00000000000E+00  0.16943110772E+02  0.16943366006E+02  0.93000000000E-01 0.  1.
         -3   -1    0    0    0  501 -0.00000000000E+00 -0.00000000000E+00 -0.59026093183E+01  0.59033419149E+01  0.93000000000E-01 0. -1.
       1023    2    1    2    0    0  0.00000000000E+00  0.00000000000E+00  0.11040501453E+02  0.22846707921E+02  0.20001984664E+02 0.  0.
        -11    1    3    3    0    0  0.59256752703E+01  0.80561761080E+01  0.54458178940E+01  0.11387384848E+02  0.51100000000E-03 0. -1.
         11    1    3    3    0    0 -0.59256752703E+01 -0.80561761080E+01  0.55946835595E+01  0.11459323073E+02  0.51100000000E-03 0.  1.
<mgrwt>
<rscale>  0 0.20001985E+02</rscale>
<asrwt>0</asrwt>
<pdfrwt beam="1">  1        3 0.26067084E-02 0.20001985E+02</pdfrwt>
<pdfrwt beam="2">  1       -3 0.90816973E-03 0.20001985E+02</pdfrwt>
<totfact> 0.17697646E+06</totfact>
</mgrwt>
</event>
<event>
 5    1  0.4190006E-007  0.2000068E+02  0.7818608E-02  0.1745315E+00
          3   -1    0    0  501    0  0.00000000000E+00  0.00000000000E+00  0.29921415246E+02  0.29921559774E+02  0.93000000000E-01 0.  1.
         -3   -1    0    0    0  501 -0.00000000000E+00 -0.00000000000E+00 -0.33415141237E+01  0.33428080470E+01  0.93000000000E-01 0. -1.
       1023    2    1    2    0    0  0.00000000000E+00  0.00000000000E+00  0.26579901122E+02  0.33264367821E+02  0.20000675560E+02 0.  0.
        -11    1    3    3    0    0  0.98483927811E+01 -0.17352613534E+01  0.13174926065E+02  0.16540273559E+02  0.51100000000E-03 0. -1.
         11    1    3    3    0    0 -0.98483927811E+01  0.17352613534E+01  0.13404975058E+02  0.16724094262E+02  0.51100000000E-03 0.  1.
<mgrwt>
<rscale>  0 0.20000676E+02</rscale>
<asrwt>0</asrwt>
<pdfrwt beam="1">  1        3 0.46034050E-02 0.20000676E+02</pdfrwt>
<pdfrwt beam="2">  1       -3 0.51418978E-03 0.20000676E+02</pdfrwt>
<totfact> 0.17077822E+06</totfact>
</mgrwt>
</event>
<event>
 4    1  0.4133473E-007  0.2001791E+02  0.7818608E-02  0.1744972E+00
          3   -1    0    0  501    0  0.00000000000E+00  0.00000000000E+00  0.10084813020E+02  0.10085241824E+02  0.93000000000E-01 0.  1.
         -3   -1    0    0    0  501 -0.00000000000E+00 -0.00000000000E+00 -0.99328076220E+01  0.99332429878E+01  0.93000000000E-01 0. -1.
        -11    1    1    2    0    0 -0.10452703843E+01  0.99540862386E+01  0.23714982833E-01  0.10008845372E+02  0.51100000000E-03 0. -1.
         11    1    1    2    0    0  0.10452703843E+01 -0.99540862386E+01  0.12829041523E+00  0.10009639440E+02  0.51100000000E-03 0.  1.
<mgrwt>
<rscale>  0 0.20017908E+02</rscale>
<asrwt>0</asrwt>
<pdfrwt beam="1">  1        3 0.15515762E-02 0.20017908E+02</pdfrwt>
<pdfrwt beam="2">  1       -3 0.15281907E-02 0.20017908E+02</pdfrwt>
<totfact> 0.17849945E+06</totfact>
</mgrwt>
</event>
<event>
 5    1  0.4133473E-007  0.2000044E+02  0.7818608E-02  0.1745319E+00
          3   -1    0    0  501    0  0.00000000000E+00  0.00000000000E+00  0.63058379913E+01  0.63065237471E+01  0.93000000000E-01 0. -1.
         -3   -1    0    0    0  501 -0.00000000000E+00 -0.00000000000E+00 -0.15857336896E+02  0.15857609606E+02  0.93000000000E-01 0.  1.
       1023    2    1    2    0    0  0.00000000000E+00  0.00000000000E+00 -0.95514989043E+01  0.22164133353E+02  0.20000441895E+02 0.  0.
        -11    1    3    3    0    0  0.21374812737E+01 -0.97690633151E+01 -0.48106964470E+01  0.11097126872E+02  0.51100000000E-03 0. -1.
         11    1    3    3    0    0 -0.21374812737E+01  0.97690633151E+01 -0.47408024574E+01  0.11067006481E+02  0.51100000000E-03 0.  1.
<mgrwt>
<rscale>  0 0.20000442E+02</rscale>
<asrwt>0</asrwt>
<pdfrwt beam="1">  1        3 0.97020266E-03 0.20000442E+02</pdfrwt>
<pdfrwt beam="2">  1       -3 0.24396640E-02 0.20000442E+02</pdfrwt>
<totfact> 0.17744913E+06</totfact>
</mgrwt>
</event>
<event>
 5    1  0.4133473E-007  0.2000077E+02  0.7818608E-02  0.1745313E+00
         -3   -1    0    0    0  501 -0.00000000000E+00  0.00000000000E+00  0.57263647766E+02  0.57263723285E+02  0.93000000000E-01 0.  1.
          3   -1    0    0  501    0  0.00000000000E+00 -0.00000000000E+00 -0.17451282481E+01  0.17476045325E+01  0.93000000000E-01 0. -1.
       1023    2    1    2    0    0  0.00000000000E+00  0.00000000000E+00  0.55518519518E+02  0.59011327818E+02  0.20000770019E+02 0.  0.
        -11    1    3    3    0    0 -0.87180738747E+01 -0.48990770379E+01  0.27888951021E+02  0.29627678904E+02  0.51100000000E-03 0.  1.
         11    1    3    3    0    0  0.87180738747E+01  0.48990770379E+01  0.27629568497E+02  0.29383648914E+02  0.51100000000E-03 0. -1.
<mgrwt>
<rscale>  0 0.20000770E+02</rscale>
<asrwt>0</asrwt>
<pdfrwt beam="2">  1        3 0.26867757E-03 0.20000770E+02</pdfrwt>
<pdfrwt beam="1">  1       -3 0.88099881E-02 0.20000770E+02</pdfrwt>
<totfact> 0.15789335E+06</totfact>
</mgrwt>
</event>
<event>
 5    1  0.4373418E-007  0.2000097E+02  0.7818608E-02  0.1745309E+00
          3   -1    0    0  501    0  0.00000000000E+00  0.00000000000E+00  0.78783802895E+01  0.78789291776E+01  0.93000000000E-01 0.  1.
         -3   -1    0    0    0  501 -0.00000000000E+00 -0.00000000000E+00 -0.12693038954E+02  0.12693379648E+02  0.93000000000E-01 0. -1.
       1023    2    1    2    0    0  0.00000000000E+00  0.00000000000E+00 -0.48146586643E+01  0.20572308825E+02  0.20000973785E+02 0.  0.
        -11    1    3    3    0    0  0.34288469169E+01 -0.93939626949E+01 -0.23262647090E+01  0.10267182381E+02  0.51100000000E-03 0.  1.
         11    1    3    3    0    0 -0.34288469169E+01  0.93939626949E+01 -0.24883939553E+01  0.10305126444E+02  0.51100000000E-03 0. -1.
<mgrwt>
<rscale>  0 0.20000974E+02</rscale>
<asrwt>0</asrwt>
<pdfrwt beam="1">  1        3 0.12121269E-02 0.20000974E+02</pdfrwt>
<pdfrwt beam="2">  1       -3 0.19528437E-02 0.20000974E+02</pdfrwt>
<totfact> 0.17846555E+06</totfact>
</mgrwt>
</event>
<event>
 4    1  0.4133473E-007  0.2013828E+02  0.7818608E-02  0.1742592E+00
          3   -1    0    0  501    0  0.00000000000E+00  0.00000000000E+00  0.62882822226E+02  0.62882890997E+02  0.93000000000E-01 0. -1.
         -3   -1    0    0    0  501 -0.00000000000E+00 -0.00000000000E+00 -0.16109150311E+01  0.16135972972E+01  0.93000000000E-01 0.  1.
        -11    1    1    2    0    0  0.49006925165E+00  0.10034806761E+02  0.32784575030E+02  0.34289442614E+02  0.51100000000E-03 0. -1.
         11    1    1    2    0    0 -0.49006925165E+00 -0.10034806761E+02  0.28487332165E+02  0.30207045681E+02  0.51100000000E-03 0.  1.
<mgrwt>
<rscale>  0 0.20138282E+02</rscale>
<asrwt>0</asrwt>
<pdfrwt beam="1">  1        3 0.96744897E-02 0.20138282E+02</pdfrwt>
<pdfrwt beam="2">  1       -3 0.24804476E-03 0.20138282E+02</pdfrwt>
<totfact> 0.15317663E+06</totfact>
</mgrwt>
</event>
<event>
 4    1  0.4133473E-007  0.2002236E+02  0.7818608E-02  0.1744884E+00
         -3   -1    0    0    0  501 -0.00000000000E+00  0.00000000000E+00  0.26009403869E+01  0.26026025237E+01  0.93000000000E-01 0.  1.
          3   -1    0    0  501    0  0.00000000000E+00 -0.00000000000E+00 -0.38519621239E+02  0.38519733506E+02  0.93000000000E-01 0. -1.
        -11    1    1    2    0    0 -0.58720919816E+01 -0.81069027658E+01 -0.17666106584E+02  0.20305040231E+02  0.51100000000E-03 0.  1.
         11    1    1    2    0    0  0.58720919816E+01  0.81069027658E+01 -0.18252574268E+02  0.20817295798E+02  0.51100000000E-03 0. -1.
<mgrwt>
<rscale>  0 0.20022360E+02</rscale>
<asrwt>0</asrwt>
<pdfrwt beam="2">  1        3 0.59262316E-02 0.20022360E+02</pdfrwt>
<pdfrwt beam="1">  1       -3 0.40028120E-03 0.20022360E+02</pdfrwt>
<totfact> 0.16613001E+06</totfact>
</mgrwt>
</event>
<event>
 5    1  0.4133473E-007  0.2000059E+02  0.7818608E-02  0.1745316E+00
          3   -1    0    0  501    0  0.00000000000E+00  0.00000000000E+00  0.45949071548E+01  0.45958482091E+01  0.93000000000E-01 0. -1.
         -3   -1    0    0    0  501 -0.00000000000E+00 -0.00000000000E+00 -0.21761244971E+02  0.21761443695E+02  0.93000000000E-01 0.  1.
       1023    2    1    2    0    0  0.00000000000E+00  0.00000000000E+00 -0.17166337816E+02  0.26357291904E+02  0.20000592053E+02 0.  0.
        -11    1    3    3    0    0 -0.84267736587E+01 -0.53847190605E+01 -0.86021155864E+01  0.13190985804E+02  0.51100000000E-03 0. -1.
         11    1    3    3    0    0  0.84267736587E+01  0.53847190605E+01 -0.85642222297E+01  0.13166306100E+02  0.51100000000E-03 0.  1.
<mgrwt>
<rscale>  0 0.20000592E+02</rscale>
<asrwt>0</asrwt>
<pdfrwt beam="1">  1        3 0.70699648E-03 0.20000592E+02</pdfrwt>
<pdfrwt beam="2">  1       -3 0.33479715E-02 0.20000592E+02</pdfrwt>
<totfact> 0.17483626E+06</totfact>
</mgrwt>
</event>
<event>
 5    1  0.4133473E-007  0.2000250E+02  0.7818608E-02  0.1745278E+00
          3   -1    0    0  501    0  0.00000000000E+00  0.00000000000E+00  0.75530917081E+01  0.75536642334E+01  0.93000000000E-01 0. -1.
         -3   -1    0    0    0  501 -0.00000000000E+00 -0.00000000000E+00 -0.13241690355E+02  0.13242016933E+02  0.93000000000E-01 0.  1.
       1023    2    1    2    0    0  0.00000000000E+00  0.00000000000E+00 -0.56885986465E+01  0.20795681166E+02  0.20002504858E+02 0.  0.
        -11    1    3    3    0    0 -0.21435732752E+00  0.99979504927E+01 -0.29916471802E+01  0.10438147165E+02  0.51100000000E-03 0.  1.
         11    1    3    3    0    0  0.21435732752E+00 -0.99979504927E+01 -0.26969514663E+01  0.10357534001E+02  0.51100000000E-03 0. -1.
<mgrwt>
<rscale>  0 0.20002505E+02</rscale>
<asrwt>0</asrwt>
<pdfrwt beam="1">  1        3 0.11620833E-02 0.20002505E+02</pdfrwt>
<pdfrwt beam="2">  1       -3 0.20372523E-02 0.20002505E+02</pdfrwt>
<totfact> 0.17829109E+06</totfact>
</mgrwt>
</event>
<event>
 5    1  0.4133473E-007  0.2000023E+02  0.7818608E-02  0.1745324E+00
         -3   -1    0    0    0  501 -0.00000000000E+00  0.00000000000E+00  0.98970330427E+00  0.99406319240E+00  0.93000000000E-01 0. -1.
          3   -1    0    0  501    0  0.00000000000E+00 -0.00000000000E+00 -0.10081624359E+03  0.10081628649E+03  0.93000000000E-01 0.  1.
       1023    2    1    2    0    0  0.00000000000E+00  0.00000000000E+00 -0.99826540290E+02  0.10181034968E+03  0.20000228899E+02 0.  0.
        -11    1    3    3    0    0  0.92445183910E+01 -0.38131728415E+01 -0.50064392435E+02  0.51053352461E+02  0.51100000000E-03 0.  1.
         11    1    3    3    0    0 -0.92445183910E+01  0.38131728415E+01 -0.49762147855E+02  0.50756997220E+02  0.51100000000E-03 0. -1.
<mgrwt>
<rscale>  0 0.20000229E+02</rscale>
<asrwt>0</asrwt>
<pdfrwt beam="2">  1        3 0.15510522E-01 0.20000229E+02</pdfrwt>
<pdfrwt beam="1">  1       -3 0.15260080E-03 0.20000229E+02</pdfrwt>
<totfact> 0.14115325E+06</totfact>
</mgrwt>
</event>
<event>
 5    1  0.4133473E-007  0.2000979E+02  0.7818608E-02  0.1745133E+00
         -3   -1    0    0    0  501 -0.00000000000E+00  0.00000000000E+00  0.65111112195E+02  0.65111178612E+02  0.93000000000E-01 0.  1.
          3   -1    0    0  501    0  0.00000000000E+00 -0.00000000000E+00 -0.15358663542E+01  0.15386794527E+01  0.93000000000E-01 0. -1.
       1023    2    1    2    0    0  0.00000000000E+00  0.00000000000E+00  0.63575245841E+02  0.66649858065E+02  0.20009790013E+02 0.  0.
        -11    1    3    3    0    0  0.71283369476E+01 -0.70172886669E+01  0.32473456758E+02  0.33979124796E+02  0.51100000000E-03 0. -1.
         11    1    3    3    0    0 -0.71283369476E+01  0.70172886669E+01  0.31101789083E+02  0.32670733269E+02  0.51100000000E-03 0.  1.
<mgrwt>
<rscale>  0 0.20009790E+02</rscale>
<asrwt>0</asrwt>
<pdfrwt beam="2">  1        3 0.23650858E-03 0.20009790E+02</pdfrwt>
<pdfrwt beam="1">  1       -3 0.10017318E-01 0.20009790E+02</pdfrwt>
<totfact> 0.15440486E+06</totfact>
</mgrwt>
</event>
<event>
 5    1  0.4263381E-007  0.2000094E+02  0.7818608E-02  0.1745309E+00
         -3   -1    0    0    0  501 -0.00000000000E+00  0.00000000000E+00  0.11185630216E+02  0.11186016821E+02  0.93000000000E-01 0. -1.
          3   -1    0    0  501    0  0.00000000000E+00 -0.00000000000E+00 -0.89400966528E+01  0.89405803593E+01  0.93000000000E-01 0.  1.
       1023    2    1    2    0    0  0.00000000000E+00  0.00000000000E+00  0.22455335633E+01  0.20126597181E+02  0.20000937305E+02 0.  0.
        -11    1    3    3    0    0 -0.48740872177E+01  0.87322724411E+01  0.11146650828E+01  0.10062394680E+02  0.51100000000E-03 0.  1.
         11    1    3    3    0    0  0.48740872177E+01 -0.87322724411E+01  0.11308684805E+01  0.10064202501E+02  0.51100000000E-03 0. -1.
<mgrwt>
<rscale>  0 0.20000937E+02</rscale>
<asrwt>0</asrwt>
<pdfrwt beam="2">  1        3 0.13754664E-02 0.20000937E+02</pdfrwt>
<pdfrwt beam="1">  1       -3 0.17209331E-02 0.20000937E+02</pdfrwt>
<totfact> 0.17875676E+06</totfact>
</mgrwt>
</event>
<event>
 5    1  0.4133473E-007  0.2000074E+02  0.7818608E-02  0.1745313E+00
         -3   -1    0    0    0  501 -0.00000000000E+00  0.00000000000E+00  0.30525470761E+01  0.30539634333E+01  0.93000000000E-01 0.  1.
          3   -1    0    0  501    0  0.00000000000E+00 -0.00000000000E+00 -0.32752878819E+02  0.32753010853E+02  0.93000000000E-01 0. -1.
       1023    2    1    2    0    0  0.00000000000E+00  0.00000000000E+00 -0.29700331743E+02  0.35806974286E+02  0.20000742534E+02 0.  0.
        -11    1    3    3    0    0  0.96054722067E+01 -0.27812679075E+01 -0.14701694069E+02  0.17780336225E+02  0.51100000000E-03 0.  1.
         11    1    3    3    0    0 -0.96054722067E+01  0.27812679075E+01 -0.14998637674E+02  0.18026638062E+02  0.51100000000E-03 0. -1.
<mgrwt>
<rscale>  0 0.20000743E+02</rscale>
<asrwt>0</asrwt>
<pdfrwt beam="2">  1        3 0.50390233E-02 0.20000743E+02</pdfrwt>
<pdfrwt beam="1">  1       -3 0.46974176E-03 0.20000743E+02</pdfrwt>
<totfact> 0.16936191E+06</totfact>
</mgrwt>
</event>
<event>
 5    1  0.4133473E-007  0.2000160E+02  0.7818608E-02  0.1745296E+00
         -3   -1    0    0    0  501 -0.00000000000E+00  0.00000000000E+00  0.91637046957E+00  0.92107754152E+00  0.93000000000E-01 0. -1.
          3   -1    0    0  501    0  0.00000000000E+00 -0.00000000000E+00 -0.10885927413E+03  0.10885931386E+03  0.93000000000E-01 0.  1.
       1023    2    1    2    0    0  0.00000000000E+00  0.00000000000E+00 -0.10794290366E+03  0.10978039140E+03  0.20001597053E+02 0.  0.
        -11    1    3    3    0    0  0.40929840171E+00  0.99924010389E+01 -0.54076626919E+02  0.54993610382E+02  0.51100000000E-03 0. -1.
         11    1    3    3    0    0 -0.40929840171E+00 -0.99924010389E+01 -0.53866276745E+02  0.54786781018E+02  0.51100000000E-03 0.  1.
<mgrwt>
<rscale>  0 0.20001597E+02</rscale>
<asrwt>0</asrwt>
<pdfrwt beam="2">  1        3 0.16747936E-01 0.20001597E+02</pdfrwt>
<pdfrwt beam="1">  1       -3 0.14134530E-03 0.20001597E+02</pdfrwt>
<totfact> 0.13845832E+06</totfact>
</mgrwt>
</event>
<event>
 5    1  0.4133473E-007  0.2000160E+02  0.7818608E-02  0.1745296E+00
          3   -1    0    0  501    0  0.00000000000E+00  0.00000000000E+00  0.17846463775E+01  0.17870679038E+01  0.93000000000E-01 0. -1.
         -3   -1    0    0    0  501 -0.00000000000E+00 -0.00000000000E+00 -0.56001998825E+02  0.56002076045E+02  0.93000000000E-01 0.  1.
       1023    2    1    2    0    0  0.00000000000E+00  0.00000000000E+00 -0.54217352447E+02  0.57789143949E+02  0.20001596235E+02 0.  0.
        -11    1    3    3    0    0 -0.47612439022E+01  0.87944531262E+01 -0.26923372393E+02  0.28720721275E+02  0.51100000000E-03 0. -1.
         11    1    3    3    0    0  0.47612439022E+01 -0.87944531262E+01 -0.27293980054E+02  0.29068422674E+02  0.51100000000E-03 0.  1.
<mgrwt>
<rscale>  0 0.20001596E+02</rscale>
<asrwt>0</asrwt>
<pdfrwt beam="1">  1        3 0.27475324E-03 0.20001596E+02</pdfrwt>
<pdfrwt beam="2">  1       -3 0.86158830E-02 0.20001596E+02</pdfrwt>
<totfact> 0.15843023E+06</totfact>
</mgrwt>
</event>
<event>
 5    1  0.4150306E-007  0.2000060E+02  0.7818608E-02  0.1745316E+00
          3   -1    0    0  501    0  0.00000000000E+00  0.00000000000E+00  0.20390623922E+02  0.20390836004E+02  0.93000000000E-01 0. -1.
         -3   -1    0    0    0  501 -0.00000000000E+00 -0.00000000000E+00 -0.49038290819E+01  0.49047108645E+01  0.93000000000E-01 0.  1.
       1023    2    1    2    0    0  0.00000000000E+00  0.00000000000E+00  0.15486794840E+02  0.25295546869E+02  0.20000596915E+02 0.  0.
        -11    1    3    3    0    0  0.43398557616E+01  0.90095035953E+01  0.77706967696E+01  0.12664487025E+02  0.51100000000E-03 0. -1.
         11    1    3    3    0    0 -0.43398557616E+01 -0.90095035953E+01  0.77160980709E+01  0.12631059843E+02  0.51100000000E-03 0.  1.
<mgrwt>
<rscale>  0 0.20000597E+02</rscale>
<asrwt>0</asrwt>
<pdfrwt beam="1">  1        3 0.31371032E-02 0.20000597E+02</pdfrwt>
<pdfrwt beam="2">  1       -3 0.75451938E-03 0.20000597E+02</pdfrwt>
<totfact> 0.17547236E+06</totfact>
</mgrwt>
</event>
<event>
 5    1  0.4133473E-007  0.2000021E+02  0.7818608E-02  0.1745324E+00
          3   -1    0    0  501    0  0.00000000000E+00  0.00000000000E+00  0.15642061194E+02  0.15642337658E+02  0.93000000000E-01 0. -1.
         -3   -1    0    0    0  501 -0.00000000000E+00 -0.00000000000E+00 -0.63924848743E+01  0.63931613360E+01  0.93000000000E-01 0.  1.
       1023    2    1    2    0    0  0.00000000000E+00  0.00000000000E+00  0.92495763196E+01  0.22035498994E+02  0.20000213844E+02 0.  0.
        -11    1    3    3    0    0  0.51845794099E+01  0.85510543781E+01  0.46707932758E+01  0.11037060511E+02  0.51100000000E-03 0. -1.
         11    1    3    3    0    0 -0.51845794099E+01 -0.85510543781E+01  0.45787830439E+01  0.10998438483E+02  0.51100000000E-03 0.  1.
<mgrwt>
<rscale>  0 0.20000214E+02</rscale>
<asrwt>0</asrwt>
<pdfrwt beam="1">  1        3 0.24065442E-02 0.20000214E+02</pdfrwt>
<pdfrwt beam="2">  1       -3 0.98353252E-03 0.20000214E+02</pdfrwt>
<totfact> 0.17752764E+06</totfact>
</mgrwt>
</event>
<event>
 5    1  0.4133473E-007  0.2000878E+02  0.7818608E-02  0.1745153E+00
          3   -1    0    0  501    0  0.00000000000E+00  0.00000000000E+00  0.13585278383E+02  0.13585596702E+02  0.93000000000E-01 0. -1.
         -3   -1    0    0    0  501 -0.00000000000E+00 -0.00000000000E+00 -0.73666774211E+01  0.73672644330E+01  0.93000000000E-01 0.  1.
       1023    2    1    2    0    0  0.00000000000E+00  0.00000000000E+00  0.62186009623E+01  0.20952861135E+02  0.20008782867E+02 0.  0.
        -11    1    3    3    0    0 -0.89624062469E+01 -0.44425072671E+01  0.32821686412E+01  0.10527736120E+02  0.51100000000E-03 0. -1.
         11    1    3    3    0    0  0.89624062469E+01  0.44425072671E+01  0.29364323211E+01  0.10425125016E+02  0.51100000000E-03 0.  1.
<mgrwt>
<rscale>  0 0.20008783E+02</rscale>
<asrwt>0</asrwt>
<pdfrwt beam="1">  1        3 0.20901124E-02 0.20008783E+02</pdfrwt>
<pdfrwt beam="2">  1       -3 0.11334046E-02 0.20008783E+02</pdfrwt>
<totfact> 0.17806296E+06</totfact>
</mgrwt>
</event>
<event>
 5    1  0.4133473E-007  0.2000076E+02  0.7818608E-02  0.1745313E+00
         -3   -1    0    0    0  501 -0.00000000000E+00  0.00000000000E+00  0.29507022322E+01  0.29521674517E+01  0.93000000000E-01 0.  1.
          3   -1    0    0  501    0  0.00000000000E+00 -0.00000000000E+00 -0.33882858965E+02  0.33882986596E+02  0.93000000000E-01 0. -1.
       1023    2    1    2    0    0  0.00000000000E+00  0.00000000000E+00 -0.30932156733E+02  0.36835154047E+02  0.20000756324E+02 0.  0.
        -11    1    3    3    0    0 -0.86574545184E+01 -0.50053951966E+01 -0.15382422032E+02  0.18347326989E+02  0.51100000000E-03 0. -1.
         11    1    3    3    0    0  0.86574545184E+01  0.50053951966E+01 -0.15549734701E+02  0.18487827058E+02  0.51100000000E-03 0.  1.
<mgrwt>
<rscale>  0 0.20000756E+02</rscale>
<asrwt>0</asrwt>
<pdfrwt beam="2">  1        3 0.52128698E-02 0.20000756E+02</pdfrwt>
<pdfrwt beam="1">  1       -3 0.45407674E-03 0.20000756E+02</pdfrwt>
<totfact> 0.16879999E+06</totfact>
</mgrwt>
</event>
<event>
 5    1  0.4394317E-007  0.2000092E+02  0.7818608E-02  0.1745310E+00
          3   -1    0    0  501    0  0.00000000000E+00  0.00000000000E+00  0.11895092810E+02  0.11895456357E+02  0.93000000000E-01 0. -1.
         -3   -1    0    0    0  501 -0.00000000000E+00 -0.00000000000E+00 -0.84068512282E+01  0.84073656144E+01  0.93000000000E-01 0.  1.
       1023    2    1    2    0    0  0.00000000000E+00  0.00000000000E+00  0.34882415815E+01  0.20302821972E+02  0.20000918746E+02 0.  0.
        -11    1    3    3    0    0  0.70739402111E+01 -0.70688269876E+01  0.17599224268E+01  0.10154125876E+02  0.51100000000E-03 0.  1.
         11    1    3    3    0    0 -0.70739402111E+01  0.70688269876E+01  0.17283191548E+01  0.10148696096E+02  0.51100000000E-03 0. -1.
<mgrwt>
<rscale>  0 0.20000919E+02</rscale>
<asrwt>0</asrwt>
<pdfrwt beam="1">  1        3 0.18300818E-02 0.20000919E+02</pdfrwt>
<pdfrwt beam="2">  1       -3 0.12934293E-02 0.20000919E+02</pdfrwt>
<totfact> 0.17863878E+06</totfact>
</mgrwt>
</event>
<event>
 4    1  0.4133473E-007  0.2001668E+02  0.7818608E-02  0.1744997E+00
          3   -1    0    0  501    0  0.00000000000E+00  0.00000000000E+00  0.59582183560E+01  0.59589441160E+01  0.93000000000E-01 0. -1.
         -3   -1    0    0    0  501 -0.00000000000E+00 -0.00000000000E+00 -0.16809672117E+02  0.16809929377E+02  0.93000000000E-01 0.  1.
        -11    1    1    2    0    0  0.29013519211E+01  0.95785223078E+01 -0.54608794743E+01  0.11401190178E+02  0.51100000000E-03 0. -1.
         11    1    1    2    0    0 -0.29013519211E+01 -0.95785223078E+01 -0.53905742865E+01  0.11367683316E+02  0.51100000000E-03 0.  1.
<mgrwt>
<rscale>  0 0.20016682E+02</rscale>
<asrwt>0</asrwt>
<pdfrwt beam="1">  1        3 0.91672460E-03 0.20016682E+02</pdfrwt>
<pdfrwt beam="2">  1       -3 0.25861790E-02 0.20016682E+02</pdfrwt>
<totfact> 0.17675519E+06</totfact>
</mgrwt>
</event>
<event>
 5    1  0.4133473E-007  0.2000243E+02  0.7818608E-02  0.1745280E+00
          3   -1    0    0  501    0  0.00000000000E+00  0.00000000000E+00  0.21841725376E+01  0.21861515671E+01  0.93000000000E-01 0.  1.
         -3   -1    0    0    0  501 -0.00000000000E+00 -0.00000000000E+00 -0.45772303243E+02  0.45772397721E+02  0.93000000000E-01 0. -1.
       1023    2    1    2    0    0  0.00000000000E+00  0.00000000000E+00 -0.43588130705E+02  0.47958549288E+02  0.20002432639E+02 0.  0.
        -11    1    3    3    0    0  0.72843823118E+00  0.99736278594E+01 -0.21451172651E+02  0.23667629440E+02  0.51100000000E-03 0.  1.
         11    1    3    3    0    0 -0.72843823118E+00 -0.99736278594E+01 -0.22136958055E+02  0.24290919849E+02  0.51100000000E-03 0. -1.
<mgrwt>
<rscale>  0 0.20002433E+02</rscale>
<asrwt>0</asrwt>
<pdfrwt beam="1">  1        3 0.33618608E-03 0.20002433E+02</pdfrwt>
<pdfrwt beam="2">  1       -3 0.70420516E-02 0.20002433E+02</pdfrwt>
<totfact> 0.16304870E+06</totfact>
</mgrwt>
</event>
<event>
 5    1  0.4351565E-007  0.2000076E+02  0.7818608E-02  0.1745313E+00
         -3   -1    0    0    0  501 -0.00000000000E+00  0.00000000000E+00  0.16565760879E+02  0.16566021927E+02  0.93000000000E-01 0.  1.
          3   -1    0    0  501    0  0.00000000000E+00 -0.00000000000E+00 -0.60363372313E+01  0.60370536001E+01  0.93000000000E-01 0. -1.
       1023    2    1    2    0    0  0.00000000000E+00  0.00000000000E+00  0.10529423647E+02  0.22603075527E+02  0.20000756509E+02 0.  0.
        -11    1    3    3    0    0  0.17157730760E+01 -0.98518905450E+01  0.51937716662E+01  0.11268490979E+02  0.51100000000E-03 0.  1.
         11    1    3    3    0    0 -0.17157730760E+01  0.98518905450E+01  0.53356519811E+01  0.11334584548E+02  0.51100000000E-03 0. -1.
<mgrwt>
<rscale>  0 0.20000757E+02</rscale>
<asrwt>0</asrwt>
<pdfrwt beam="2">  1        3 0.92874245E-03 0.20000757E+02</pdfrwt>
<pdfrwt beam="1">  1       -3 0.25486538E-02 0.20000757E+02</pdfrwt>
<totfact> 0.17716368E+06</totfact>
</mgrwt>
</event>
<event>
 5    1  0.4133473E-007  0.2001229E+02  0.7818608E-02  0.1745084E+00
          3   -1    0    0  501    0  0.00000000000E+00  0.00000000000E+00  0.79745728238E+01  0.79751150915E+01  0.93000000000E-01 0. -1.
         -3   -1    0    0    0  501 -0.00000000000E+00 -0.00000000000E+00 -0.12554133596E+02  0.12554478059E+02  0.93000000000E-01 0.  1.
       1023    2    1    2    0    0  0.00000000000E+00  0.00000000000E+00 -0.45795607717E+01  0.20529593150E+02  0.20012291674E+02 0.  0.
        -11    1    3    3    0    0 -0.88452042716E+01 -0.46744800751E+01 -0.20990947061E+01  0.10222260094E+02  0.51100000000E-03 0. -1.
         11    1    3    3    0    0  0.88452042716E+01  0.46744800751E+01 -0.24804660657E+01  0.10307333057E+02  0.51100000000E-03 0.  1.
<mgrwt>
<rscale>  0 0.20012292E+02</rscale>
<asrwt>0</asrwt>
<pdfrwt beam="1">  1        3 0.12269256E-02 0.20012292E+02</pdfrwt>
<pdfrwt beam="2">  1       -3 0.19314734E-02 0.20012292E+02</pdfrwt>
<totfact> 0.17827578E+06</totfact>
</mgrwt>
</event>
<event>
 5    1  0.4133473E-007  0.2000301E+02  0.7818608E-02  0.1745268E+00
         -3   -1    0    0    0  501 -0.00000000000E+00  0.00000000000E+00  0.33505803930E+01  0.33518708164E+01  0.93000000000E-01 0.  1.
          3   -1    0    0  501    0  0.00000000000E+00 -0.00000000000E+00 -0.29847463446E+02  0.29847608332E+02  0.93000000000E-01 0. -1.
       1023    2    1    2    0    0  0.00000000000E+00  0.00000000000E+00 -0.26496883053E+02  0.33199479149E+02  0.20003014878E+02 0.  0.
        -11    1    3    3    0    0  0.98813477325E+01  0.15433112366E+01 -0.13106554929E+02  0.16486498262E+02  0.51100000000E-03 0. -1.
         11    1    3    3    0    0 -0.98813477325E+01 -0.15433112366E+01 -0.13390328124E+02  0.16712980887E+02  0.51100000000E-03 0.  1.
<mgrwt>
<rscale>  0 0.20003015E+02</rscale>
<asrwt>0</asrwt>
<pdfrwt beam="2">  1        3 0.45920277E-02 0.20003015E+02</pdfrwt>
<pdfrwt beam="1">  1       -3 0.51558433E-03 0.20003015E+02</pdfrwt>
<totfact> 0.17077187E+06</totfact>
</mgrwt>
</event>
<event>
 5    1  0.4297080E-007  0.2000128E+02  0.7818608E-02  0.1745303E+00
         -3   -1    0    0    0  501 -0.00000000000E+00  0.00000000000E+00  0.11071879092E+02  0.11072269670E+02  0.93000000000E-01 0. -1.
          3   -1    0    0  501    0  0.00000000000E+00 -0.00000000000E+00 -0.90322561921E+01  0.90327349634E+01  0.93000000000E-01 0.  1.
       1023    2    1    2    0    0  0.00000000000E+00  0.00000000000E+00  0.20396229003E+01  0.20105004633E+02  0.20001278702E+02 0.  0.
        -11    1    3    3    0    0  0.10324988018E+01 -0.99471361253E+01  0.98475512539E+00  0.10048945904E+02  0.51100000000E-03 0.  1.
         11    1    3    3    0    0 -0.10324988018E+01  0.99471361253E+01  0.10548677749E+01  0.10056058729E+02  0.51100000000E-03 0. -1.
<mgrwt>
<rscale>  0 0.20001279E+02</rscale>
<asrwt>0</asrwt>
<pdfrwt beam="2">  1        3 0.13896448E-02 0.20001279E+02</pdfrwt>
<pdfrwt beam="1">  1       -3 0.17034329E-02 0.20001279E+02</pdfrwt>
<totfact> 0.17876429E+06</totfact>
</mgrwt>
</event>
<event>
 5    1  0.4133473E-007  0.2000358E+02  0.7818608E-02  0.1745257E+00
          3   -1    0    0  501    0  0.00000000000E+00  0.00000000000E+00  0.37967020998E+02  0.37967134900E+02  0.93000000000E-01 0. -1.
         -3   -1    0    0    0  501 -0.00000000000E+00 -0.00000000000E+00 -0.26338702086E+01  0.26355115776E+01  0.93000000000E-01 0.  1.
       1023    2    1    2    0    0  0.00000000000E+00  0.00000000000E+00  0.35333150790E+02  0.40602646477E+02  0.20003583584E+02 0.  0.
        -11    1    3    3    0    0  0.81564239799E+01 -0.57884067819E+01  0.17556637959E+02  0.20205653712E+02  0.51100000000E-03 0.  1.
         11    1    3    3    0    0 -0.81564239799E+01  0.57884067819E+01  0.17776512830E+02  0.20396992766E+02  0.51100000000E-03 0. -1.
<mgrwt>
<rscale>  0 0.20003584E+02</rscale>
<asrwt>0</asrwt>
<pdfrwt beam="1">  1        3 0.58412147E-02 0.20003584E+02</pdfrwt>
<pdfrwt beam="2">  1       -3 0.40534585E-03 0.20003584E+02</pdfrwt>
<totfact> 0.16673707E+06</totfact>
</mgrwt>
</event>
<event>
 5    1  0.4133473E-007  0.2000426E+02  0.7818608E-02  0.1745243E+00
          3   -1    0    0  501    0  0.00000000000E+00  0.00000000000E+00  0.90905769322E+00  0.91380243467E+00  0.93000000000E-01 0.  1.
         -3   -1    0    0    0  501 -0.00000000000E+00 -0.00000000000E+00 -0.10975966274E+03  0.10975970214E+03  0.93000000000E-01 0. -1.
       1023    2    1    2    0    0  0.00000000000E+00  0.00000000000E+00 -0.10885060505E+03  0.11067350457E+03  0.20004259440E+02 0.  0.
        -11    1    3    3    0    0  0.35989908232E+01  0.93307130350E+01 -0.55345394891E+02  0.56241689845E+02  0.51100000000E-03 0. -1.
         11    1    3    3    0    0 -0.35989908232E+01 -0.93307130350E+01 -0.53505210156E+02  0.54431814730E+02  0.51100000000E-03 0.  1.
<mgrwt>
<rscale>  0 0.20004259E+02</rscale>
<asrwt>0</asrwt>
<pdfrwt beam="1">  1        3 0.14022313E-03 0.20004259E+02</pdfrwt>
<pdfrwt beam="2">  1       -3 0.16886460E-01 0.20004259E+02</pdfrwt>
<totfact> 0.13815343E+06</totfact>
</mgrwt>
</event>
<event>
 5    1  0.4133473E-007  0.2000018E+02  0.7818608E-02  0.1745325E+00
         -3   -1    0    0    0  501 -0.00000000000E+00  0.00000000000E+00  0.15386234511E+02  0.15386515571E+02  0.93000000000E-01 0. -1.
          3   -1    0    0  501    0  0.00000000000E+00 -0.00000000000E+00 -0.64987585817E+01  0.64994239824E+01  0.93000000000E-01 0.  1.
       1023    2    1    2    0    0  0.00000000000E+00  0.00000000000E+00  0.88874759290E+01  0.21885939554E+02  0.20000178043E+02 0.  0.
        -11    1    3    3    0    0 -0.82801447651E+01 -0.56071937315E+01  0.44229377775E+01  0.10934523205E+02  0.51100000000E-03 0.  1.
         11    1    3    3    0    0  0.82801447651E+01  0.56071937315E+01  0.44645381515E+01  0.10951416349E+02  0.51100000000E-03 0. -1.
<mgrwt>
<rscale>  0 0.20000178E+02</rscale>
<asrwt>0</asrwt>
<pdfrwt beam="2">  1        3 0.99988182E-03 0.20000178E+02</pdfrwt>
<pdfrwt beam="1">  1       -3 0.23671858E-02 0.20000178E+02</pdfrwt>
<totfact> 0.17763187E+06</totfact>
</mgrwt>
</event>
<event>
 5    1  0.4133473E-007  0.2000041E+02  0.7818608E-02  0.1745320E+00
         -3   -1    0    0    0  501 -0.00000000000E+00  0.00000000000E+00  0.15559643112E+02  0.15559921040E+02  0.93000000000E-01 0. -1.
          3   -1    0    0  501    0  0.00000000000E+00 -0.00000000000E+00 -0.64264743697E+01  0.64271472540E+01  0.93000000000E-01 0.  1.
       1023    2    1    2    0    0  0.00000000000E+00  0.00000000000E+00  0.91331687422E+01  0.21987068294E+02  0.20000410018E+02 0.  0.
        -11    1    3    3    0    0 -0.79895686186E+00  0.99681156901E+01  0.45123094373E+01  0.10970988980E+02  0.51100000000E-03 0.  1.
         11    1    3    3    0    0  0.79895686186E+00 -0.99681156901E+01  0.46208593049E+01  0.11016079314E+02  0.51100000000E-03 0. -1.
<mgrwt>
<rscale>  0 0.20000410E+02</rscale>
<asrwt>0</asrwt>
<pdfrwt beam="2">  1        3 0.98876151E-03 0.20000410E+02</pdfrwt>
<pdfrwt beam="1">  1       -3 0.23938644E-02 0.20000410E+02</pdfrwt>
<totfact> 0.17756275E+06</totfact>
</mgrwt>
</event>
<event>
 5    1  0.4133473E-007  0.2000087E+02  0.7818608E-02  0.1745311E+00
         -3   -1    0    0    0  501 -0.00000000000E+00  0.00000000000E+00  0.62989111947E+02  0.62989180602E+02  0.93000000000E-01 0. -1.
          3   -1    0    0  501    0  0.00000000000E+00 -0.00000000000E+00 -0.15862832487E+01  0.15890070941E+01  0.93000000000E-01 0.  1.
       1023    2    1    2    0    0  0.00000000000E+00  0.00000000000E+00  0.61402828698E+02  0.64578187696E+02  0.20000873829E+02 0.  0.
        -11    1    3    3    0    0  0.57597965809E+01 -0.81750720806E+01  0.30569151286E+02  0.32163334261E+02  0.51100000000E-03 0. -1.
         11    1    3    3    0    0 -0.57597965809E+01  0.81750720806E+01  0.30833677413E+02  0.32414853435E+02  0.51100000000E-03 0.  1.
<mgrwt>
<rscale>  0 0.20000874E+02</rscale>
<asrwt>0</asrwt>
<pdfrwt beam="2">  1        3 0.24425840E-03 0.20000874E+02</pdfrwt>
<pdfrwt beam="1">  1       -3 0.96908466E-02 0.20000874E+02</pdfrwt>
<totfact> 0.15544008E+06</totfact>
</mgrwt>
</event>
<event>
 5    1  0.4210808E-007  0.2000096E+02  0.7818608E-02  0.1745309E+00
         -3   -1    0    0    0  501 -0.00000000000E+00  0.00000000000E+00  0.41181803801E+02  0.41181908811E+02  0.93000000000E-01 0.  1.
          3   -1    0    0  501    0  0.00000000000E+00 -0.00000000000E+00 -0.24274915230E+01  0.24292723385E+01  0.93000000000E-01 0. -1.
       1023    2    1    2    0    0  0.00000000000E+00  0.00000000000E+00  0.38754312278E+02  0.43611181149E+02  0.20000960004E+02 0.  0.
        -11    1    3    3    0    0 -0.84072040254E+01 -0.54155653063E+01  0.19348484966E+02  0.21780112439E+02  0.51100000000E-03 0. -1.
         11    1    3    3    0    0  0.84072040254E+01  0.54155653063E+01  0.19405827312E+02  0.21831068711E+02  0.51100000000E-03 0.  1.
<mgrwt>
<rscale>  0 0.20000960E+02</rscale>
<asrwt>0</asrwt>
<pdfrwt beam="2">  1        3 0.37360528E-03 0.20000960E+02</pdfrwt>
<pdfrwt beam="1">  1       -3 0.63358074E-02 0.20000960E+02</pdfrwt>
<totfact> 0.16525117E+06</totfact>
</mgrwt>
</event>
<event>
 4    1  0.4133473E-007  0.2001472E+02  0.7818608E-02  0.1745036E+00
          3   -1    0    0  501    0  0.00000000000E+00  0.00000000000E+00  0.12176357950E+01  0.12211821851E+01  0.93000000000E-01 0. -1.
         -3   -1    0    0    0  501 -0.00000000000E+00 -0.00000000000E+00 -0.82124115981E+02  0.82124168639E+02  0.93000000000E-01 0.  1.
        -11    1    1    2    0    0 -0.86955607784E+01  0.49465716506E+01 -0.39384301479E+02  0.40635016324E+02  0.51100000000E-03 0. -1.
         11    1    1    2    0    0  0.86955607784E+01 -0.49465716506E+01 -0.41522178707E+02  0.42710334501E+02  0.51100000000E-03 0.  1.
<mgrwt>
<rscale>  0 0.20014719E+02</rscale>
<asrwt>0</asrwt>
<pdfrwt beam="1">  1        3 0.18760550E-03 0.20014719E+02</pdfrwt>
<pdfrwt beam="2">  1       -3 0.12634752E-01 0.20014719E+02</pdfrwt>
<totfact> 0.14762321E+06</totfact>
</mgrwt>
</event>
<event>
 5    1  0.4159771E-007  0.2000234E+02  0.7818608E-02  0.1745282E+00
          3   -1    0    0  501    0  0.00000000000E+00  0.00000000000E+00  0.21324677500E+02  0.21324880293E+02  0.93000000000E-01 0.  1.
         -3   -1    0    0    0  501 -0.00000000000E+00 -0.00000000000E+00 -0.46898127155E+01  0.46907347299E+01  0.93000000000E-01 0. -1.
       1023    2    1    2    0    0  0.00000000000E+00  0.00000000000E+00  0.16634864785E+02  0.26015615023E+02  0.20002337328E+02 0.  0.
        -11    1    3    3    0    0  0.22278872930E+01  0.97498282171E+01  0.82819957577E+01  0.12985148672E+02  0.51100000000E-03 0. -1.
         11    1    3    3    0    0 -0.22278872930E+01 -0.97498282171E+01  0.83528690272E+01  0.13030466350E+02  0.51100000000E-03 0.  1.
<mgrwt>
<rscale>  0 0.20002337E+02</rscale>
<asrwt>0</asrwt>
<pdfrwt beam="1">  1        3 0.32808062E-02 0.20002337E+02</pdfrwt>
<pdfrwt beam="2">  1       -3 0.72159616E-03 0.20002337E+02</pdfrwt>
<totfact> 0.17499789E+06</totfact>
</mgrwt>
</event>
<event>
 5    1  0.4369868E-007  0.2000090E+02  0.7818608E-02  0.1745310E+00
         -3   -1    0    0    0  501 -0.00000000000E+00  0.00000000000E+00  0.27971460483E+02  0.27971615086E+02  0.93000000000E-01 0. -1.
          3   -1    0    0  501    0  0.00000000000E+00 -0.00000000000E+00 -0.35746258724E+01  0.35758354447E+01  0.93000000000E-01 0.  1.
       1023    2    1    2    0    0  0.00000000000E+00  0.00000000000E+00  0.24396834610E+02  0.31547450531E+02  0.20000902380E+02 0.  0.
        -11    1    3    3    0    0  0.34193225924E+01 -0.93974071610E+01  0.12076286917E+02  0.15679277225E+02  0.51100000000E-03 0. -1.
         11    1    3    3    0    0 -0.34193225924E+01  0.93974071610E+01  0.12320547693E+02  0.15868173306E+02  0.51100000000E-03 0.  1.
<mgrwt>
<rscale>  0 0.20000902E+02</rscale>
<asrwt>0</asrwt>
<pdfrwt beam="2">  1        3 0.55004738E-03 0.20000902E+02</pdfrwt>
<pdfrwt beam="1">  1       -3 0.43034065E-02 0.20000902E+02</pdfrwt>
<totfact> 0.17176957E+06</totfact>
</mgrwt>
</event>
<event>
 5    1  0.4176120E-007  0.2000057E+02  0.7818608E-02  0.1745317E+00
         -3   -1    0    0    0  501 -0.00000000000E+00  0.00000000000E+00  0.39406410825E+01  0.39417383400E+01  0.93000000000E-01 0. -1.
          3   -1    0    0  501    0  0.00000000000E+00 -0.00000000000E+00 -0.25373317783E+02  0.25373488217E+02  0.93000000000E-01 0.  1.
       1023    2    1    2    0    0  0.00000000000E+00  0.00000000000E+00 -0.21432676701E+02  0.29315226557E+02  0.20000571931E+02 0.  0.
        -11    1    3    3    0    0 -0.67417791683E+01 -0.73857782977E+01 -0.10813692519E+02  0.14728789956E+02  0.51100000000E-03 0.  1.
         11    1    3    3    0    0  0.67417791683E+01  0.73857782977E+01 -0.10618984181E+02  0.14586436601E+02  0.51100000000E-03 0. -1.
<mgrwt>
<rscale>  0 0.20000572E+02</rscale>
<asrwt>0</asrwt>
<pdfrwt beam="2">  1        3 0.39036848E-02 0.20000572E+02</pdfrwt>
<pdfrwt beam="1">  1       -3 0.60635000E-03 0.20000572E+02</pdfrwt>
<totfact> 0.17305435E+06</totfact>
</mgrwt>
</event>
<event>
 5    1  0.4133473E-007  0.2000288E+02  0.7818608E-02  0.1745271E+00
         -3   -1    0    0    0  501 -0.00000000000E+00  0.00000000000E+00  0.40232044742E+02  0.40232152231E+02  0.93000000000E-01 0. -1.
          3   -1    0    0  501    0  0.00000000000E+00 -0.00000000000E+00 -0.24853159919E+01  0.24870554034E+01  0.93000000000E-01 0.  1.
       1023    2    1    2    0    0  0.00000000000E+00  0.00000000000E+00  0.37746728750E+02  0.42719207634E+02  0.20002879032E+02 0.  0.
        -11    1    3    3    0    0  0.92430417231E+01 -0.38203096224E+01  0.18842695473E+02  0.21332504748E+02  0.51100000000E-03 0. -1.
         11    1    3    3    0    0 -0.92430417231E+01  0.38203096224E+01  0.18904033278E+02  0.21386702886E+02  0.51100000000E-03 0.  1.
<mgrwt>
<rscale>  0 0.20002879E+02</rscale>
<asrwt>0</asrwt>
<pdfrwt beam="2">  1        3 0.38249839E-03 0.20002879E+02</pdfrwt>
<pdfrwt beam="1">  1       -3 0.61896872E-02 0.20002879E+02</pdfrwt>
<totfact> 0.16567434E+06</totfact>
</mgrwt>
</event>
<event>
 5    1  0.4133473E-007  0.2000036E+02  0.7818608E-02  0.1745321E+00
          3   -1    0    0  501    0  0.00000000000E+00  0.00000000000E+00  0.30094690677E+02  0.30094834373E+02  0.93000000000E-01 0.  1.
         -3   -1    0    0    0  501 -0.00000000000E+00 -0.00000000000E+00 -0.33221615856E+01  0.33234630434E+01  0.93000000000E-01 0. -1.
       1023    2    1    2    0    0  0.00000000000E+00  0.00000000000E+00  0.26772529091E+02  0.33418297416E+02  0.20000357203E+02 0.  0.
        -11    1    3    3    0    0  0.54205469216E+01  0.84035211567E+01  0.13310151300E+02  0.16648171811E+02  0.51100000000E-03 0.  1.
         11    1    3    3    0    0 -0.54205469216E+01 -0.84035211567E+01  0.13462377791E+02  0.16770125605E+02  0.51100000000E-03 0. -1.
<mgrwt>
<rscale>  0 0.20000357E+02</rscale>
<asrwt>0</asrwt>
<pdfrwt beam="1">  1        3 0.46300635E-02 0.20000357E+02</pdfrwt>
<pdfrwt beam="2">  1       -3 0.51121296E-03 0.20000357E+02</pdfrwt>
<totfact> 0.17069730E+06</totfact>
</mgrwt>
</event>
<event>
 4    1  0.4133473E-007  0.2004201E+02  0.7818608E-02  0.1744494E+00
          3   -1    0    0  501    0  0.00000000000E+00  0.00000000000E+00  0.72869478859E+02  0.72869538205E+02  0.93000000000E-01 0. -1.
         -3   -1    0    0    0  501 -0.00000000000E+00 -0.00000000000E+00 -0.13764593516E+01  0.13795975307E+01  0.93000000000E-01 0.  1.
        -11    1    1    2    0    0 -0.88947844644E+01  0.46155589875E+01  0.35739010632E+02  0.37117347112E+02  0.51100000000E-03 0. -1.
         11    1    1    2    0    0  0.88947844644E+01 -0.46155589875E+01  0.35754008875E+02  0.37131788623E+02  0.51100000000E-03 0.  1.
<mgrwt>
<rscale>  0 0.20042014E+02</rscale>
<asrwt>0</asrwt>
<pdfrwt beam="1">  1        3 0.11210934E-01 0.20042014E+02</pdfrwt>
<pdfrwt beam="2">  1       -3 0.21200896E-03 0.20042014E+02</pdfrwt>
<totfact> 0.15071035E+06</totfact>
</mgrwt>
</event>
<event>
 5    1  0.4344670E-007  0.2000155E+02  0.7818608E-02  0.1745297E+00
         -3   -1    0    0    0  501 -0.00000000000E+00  0.00000000000E+00  0.22148751922E+02  0.22148947170E+02  0.93000000000E-01 0. -1.
          3   -1    0    0  501    0  0.00000000000E+00 -0.00000000000E+00 -0.45149350045E+01  0.45158927240E+01  0.93000000000E-01 0.  1.
       1023    2    1    2    0    0  0.00000000000E+00  0.00000000000E+00  0.17633816918E+02  0.26664839894E+02  0.20001554626E+02 0.  0.
        -11    1    3    3    0    0  0.99623186675E+01  0.87613869843E+00  0.88323608951E+01  0.13342638850E+02  0.51100000000E-03 0.  1.
         11    1    3    3    0    0 -0.99623186675E+01 -0.87613869843E+00  0.88014560228E+01  0.13322201043E+02  0.51100000000E-03 0. -1.
<mgrwt>
<rscale>  0 0.20001555E+02</rscale>
<asrwt>0</asrwt>
<pdfrwt beam="2">  1        3 0.69469408E-03 0.20001555E+02</pdfrwt>
<pdfrwt beam="1">  1       -3 0.34075890E-02 0.20001555E+02</pdfrwt>
<totfact> 0.17463184E+06</totfact>
</mgrwt>
</event>
<event>
 5    1  0.4133473E-007  0.2000006E+02  0.7818608E-02  0.1745327E+00
         -3   -1    0    0    0  501 -0.00000000000E+00  0.00000000000E+00  0.23040839932E+01  0.23059601141E+01  0.93000000000E-01 0.  1.
          3   -1    0    0  501    0  0.00000000000E+00 -0.00000000000E+00 -0.43381860601E+02  0.43381960285E+02  0.93000000000E-01 0. -1.
       1023    2    1    2    0    0  0.00000000000E+00  0.00000000000E+00 -0.41077776608E+02  0.45687920399E+02  0.20000058485E+02 0.  0.
        -11    1    3    3    0    0 -0.64604733990E+01  0.76330115591E+01 -0.20535214747E+02  0.22840657323E+02  0.51100000000E-03 0.  1.
         11    1    3    3    0    0  0.64604733990E+01 -0.76330115591E+01 -0.20542561861E+02  0.22847263076E+02  0.51100000000E-03 0. -1.
<mgrwt>
<rscale>  0 0.20000058E+02</rscale>
<asrwt>0</asrwt>
<pdfrwt beam="2">  1        3 0.66742838E-02 0.20000058E+02</pdfrwt>
<pdfrwt beam="1">  1       -3 0.35462648E-03 0.20000058E+02</pdfrwt>
<totfact> 0.16419224E+06</totfact>
</mgrwt>
</event>
<event>
 5    1  0.4133473E-007  0.2000007E+02  0.7818608E-02  0.1745327E+00
          3   -1    0    0  501    0  0.00000000000E+00  0.00000000000E+00  0.87424621276E+00  0.87917884445E+00  0.93000000000E-01 0. -1.
         -3   -1    0    0    0  501 -0.00000000000E+00 -0.00000000000E+00 -0.11405828828E+03  0.11405832619E+03  0.93000000000E-01 0.  1.
       1023    2    1    2    0    0  0.00000000000E+00  0.00000000000E+00 -0.11318404206E+03  0.11493750504E+03  0.20000067149E+02 0.  0.
        -11    1    3    3    0    0  0.98539068884E+01 -0.17032173322E+01 -0.56502808959E+02  0.57380901446E+02  0.51100000000E-03 0. -1.
         11    1    3    3    0    0 -0.98539068884E+01  0.17032173322E+01 -0.56681233104E+02  0.57556603589E+02  0.51100000000E-03 0.  1.
<mgrwt>
<rscale>  0 0.20000067E+02</rscale>
<asrwt>0</asrwt>
<pdfrwt beam="1">  1        3 0.13488186E-03 0.20000067E+02</pdfrwt>
<pdfrwt beam="2">  1       -3 0.17547800E-01 0.20000067E+02</pdfrwt>
<totfact> 0.13683567E+06</totfact>
</mgrwt>
</event>
<event>
 5    1  0.4133473E-007  0.2000109E+02  0.7818608E-02  0.1745306E+00
         -3   -1    0    0    0  501 -0.00000000000E+00  0.00000000000E+00  0.54018997759E+02  0.54019077814E+02  0.93000000000E-01 0. -1.
          3   -1    0    0  501    0  0.00000000000E+00 -0.00000000000E+00 -0.18501522973E+01  0.18524881979E+01  0.93000000000E-01 0.  1.
       1023    2    1    2    0    0  0.00000000000E+00  0.00000000000E+00  0.52168845462E+02  0.55871566012E+02  0.20001086266E+02 0.  0.
        -11    1    3    3    0    0  0.99468909904E+01 -0.10298308347E+01  0.25809716895E+02  0.27679282476E+02  0.51100000000E-03 0.  1.
         11    1    3    3    0    0 -0.99468909904E+01  0.10298308347E+01  0.26359128567E+02  0.28192283536E+02  0.51100000000E-03 0. -1.
<mgrwt>
<rscale>  0 0.20001086E+02</rscale>
<asrwt>0</asrwt>
<pdfrwt beam="2">  1        3 0.28482467E-03 0.20001086E+02</pdfrwt>
<pdfrwt beam="1">  1       -3 0.83108005E-02 0.20001086E+02</pdfrwt>
<totfact> 0.15931387E+06</totfact>
</mgrwt>
</event>
<event>
 4    1  0.4151824E-007  0.2001293E+02  0.7818608E-02  0.1745071E+00
          3   -1    0    0  501    0  0.00000000000E+00  0.00000000000E+00  0.34599242556E+01  0.34611739128E+01  0.93000000000E-01 0. -1.
         -3   -1    0    0    0  501 -0.00000000000E+00 -0.00000000000E+00 -0.28933198116E+02  0.28933347580E+02  0.93000000000E-01 0.  1.
        -11    1    1    2    0    0 -0.10000165519E+02 -0.12509187692E+00 -0.12198863032E+02  0.15774384867E+02  0.51100000000E-03 0.  1.
         11    1    1    2    0    0  0.10000165519E+02  0.12509187692E+00 -0.13274410828E+02  0.16620136626E+02  0.51100000000E-03 0. -1.
<mgrwt>
<rscale>  0 0.20012929E+02</rscale>
<asrwt>0</asrwt>
<pdfrwt beam="1">  1        3 0.53240368E-03 0.20012929E+02</pdfrwt>
<pdfrwt beam="2">  1       -3 0.44513687E-02 0.20012929E+02</pdfrwt>
<totfact> 0.17106414E+06</totfact>
</mgrwt>
</event>
<event>
 5    1  0.4133473E-007  0.2000071E+02  0.7818608E-02  0.1745314E+00
         -3   -1    0    0    0  501 -0.00000000000E+00  0.00000000000E+00  0.49658355302E+01  0.49667063043E+01  0.93000000000E-01 0. -1.
          3   -1    0    0  501    0  0.00000000000E+00 -0.00000000000E+00 -0.20136276984E+02  0.20136491744E+02  0.93000000000E-01 0.  1.
       1023    2    1    2    0    0  0.00000000000E+00  0.00000000000E+00 -0.15170441454E+02  0.25103198049E+02  0.20000706447E+02 0.  0.
        -11    1    3    3    0    0  0.99599212272E+01 -0.89624123392E+00 -0.76624397269E+01  0.12598264247E+02  0.51100000000E-03 0. -1.
         11    1    3    3    0    0 -0.99599212272E+01  0.89624123392E+00 -0.75080017268E+01  0.12504933802E+02  0.51100000000E-03 0.  1.
<mgrwt>
<rscale>  0 0.20000706E+02</rscale>
<asrwt>0</asrwt>
<pdfrwt beam="2">  1        3 0.30979722E-02 0.20000706E+02</pdfrwt>
<pdfrwt beam="1">  1       -3 0.76405821E-03 0.20000706E+02</pdfrwt>
<totfact> 0.17558896E+06</totfact>
</mgrwt>
</event>
<event>
 5    1  0.4136199E-007  0.2000020E+02  0.7818608E-02  0.1745324E+00
         -3   -1    0    0    0  501 -0.00000000000E+00  0.00000000000E+00  0.19738745942E+02  0.19738965027E+02  0.93000000000E-01 0. -1.
          3   -1    0    0  501    0  0.00000000000E+00 -0.00000000000E+00 -0.50656058265E+01  0.50664594530E+01  0.93000000000E-01 0.  1.
       1023    2    1    2    0    0  0.00000000000E+00  0.00000000000E+00  0.14673140115E+02  0.24805424480E+02  0.20000201069E+02 0.  0.
        -11    1    3    3    0    0 -0.99770597173E+01  0.67832335262E+00  0.73526105787E+01  0.12412200681E+02  0.51100000000E-03 0. -1.
         11    1    3    3    0    0  0.99770597173E+01 -0.67832335262E+00  0.73205295367E+01  0.12393223799E+02  0.51100000000E-03 0.  1.
<mgrwt>
<rscale>  0 0.20000201E+02</rscale>
<asrwt>0</asrwt>
<pdfrwt beam="2">  1        3 0.77940649E-03 0.20000201E+02</pdfrwt>
<pdfrwt beam="1">  1       -3 0.30368127E-02 0.20000201E+02</pdfrwt>
<totfact> 0.17579482E+06</totfact>
</mgrwt>
</event>
<event>
 5    1  0.4133473E-007  0.2000337E+02  0.7818608E-02  0.1745261E+00
         -3   -1    0    0    0  501 -0.00000000000E+00  0.00000000000E+00  0.70307118634E+02  0.70307180143E+02  0.93000000000E-01 0.  1.
          3   -1    0    0  501    0  0.00000000000E+00 -0.00000000000E+00 -0.14212283474E+01  0.14242678875E+01  0.93000000000E-01 0. -1.
       1023    2    1    2    0    0  0.00000000000E+00  0.00000000000E+00  0.68885890287E+02  0.71731448030E+02  0.20003368615E+02 0.  0.
        -11    1    3    3    0    0  0.20127929941E+01  0.97958672739E+01  0.34990759042E+02  0.36391806356E+02  0.51100000000E-03 0. -1.
         11    1    3    3    0    0 -0.20127929941E+01 -0.97958672739E+01  0.33895131245E+02  0.35339641674E+02  0.51100000000E-03 0.  1.
<mgrwt>
<rscale>  0 0.20003369E+02</rscale>
<asrwt>0</asrwt>
<pdfrwt beam="2">  1        3 0.21888912E-03 0.20003369E+02</pdfrwt>
<pdfrwt beam="1">  1       -3 0.10816715E-01 0.20003369E+02</pdfrwt>
<totfact> 0.15238947E+06</totfact>
</mgrwt>
</event>
<event>
 5    1  0.4133473E-007  0.2000023E+02  0.7818608E-02  0.1745323E+00
          3   -1    0    0  501    0  0.00000000000E+00  0.00000000000E+00  0.90608430848E+00  0.91084453892E+00  0.93000000000E-01 0. -1.
         -3   -1    0    0    0  501 -0.00000000000E+00 -0.00000000000E+00 -0.11007364119E+03  0.11007368048E+03  0.93000000000E-01 0.  1.
       1023    2    1    2    0    0  0.00000000000E+00  0.00000000000E+00 -0.10916755688E+03  0.11098452502E+03  0.20000232939E+02 0.  0.
        -11    1    3    3    0    0  0.24632603852E+01 -0.96919878058E+01 -0.54622932450E+02  0.55530775513E+02  0.51100000000E-03 0. -1.
         11    1    3    3    0    0 -0.24632603852E+01  0.96919878058E+01 -0.54544624431E+02  0.55453749502E+02  0.51100000000E-03 0.  1.
<mgrwt>
<rscale>  0 0.20000233E+02</rscale>
<asrwt>0</asrwt>
<pdfrwt beam="1">  1        3 0.13976687E-03 0.20000233E+02</pdfrwt>
<pdfrwt beam="2">  1       -3 0.16934765E-01 0.20000233E+02</pdfrwt>
<totfact> 0.13811145E+06</totfact>
</mgrwt>
</event>
<event>
 5    1  0.4208244E-007  0.2000114E+02  0.7818608E-02  0.1745305E+00
         -3   -1    0    0    0  501 -0.00000000000E+00  0.00000000000E+00  0.24086085063E+01  0.24104032726E+01  0.93000000000E-01 0.  1.
          3   -1    0    0  501    0  0.00000000000E+00 -0.00000000000E+00 -0.41505175983E+02  0.41505280174E+02  0.93000000000E-01 0. -1.
       1023    2    1    2    0    0  0.00000000000E+00  0.00000000000E+00 -0.39096567476E+02  0.43915683447E+02  0.20001141572E+02 0.  0.
        -11    1    3    3    0    0  0.78565863162E+01 -0.61875045803E+01 -0.19583297867E+02  0.21989013554E+02  0.51100000000E-03 0.  1.
         11    1    3    3    0    0 -0.78565863162E+01  0.61875045803E+01 -0.19513269609E+02  0.21926669893E+02  0.51100000000E-03 0. -1.
<mgrwt>
<rscale>  0 0.20001142E+02</rscale>
<asrwt>0</asrwt>
<pdfrwt beam="2">  1        3 0.63855573E-02 0.20001142E+02</pdfrwt>
<pdfrwt beam="1">  1       -3 0.37070126E-03 0.20001142E+02</pdfrwt>
<totfact> 0.16506885E+06</totfact>
</mgrwt>
</event>
<event>
 5    1  0.4189874E-007  0.2000117E+02  0.7818608E-02  0.1745305E+00
          3   -1    0    0  501    0  0.00000000000E+00  0.00000000000E+00  0.19979897121E+01  0.20001529666E+01  0.93000000000E-01 0.  1.
         -3   -1    0    0    0  501 -0.00000000000E+00 -0.00000000000E+00 -0.50026856691E+02  0.50026943134E+02  0.93000000000E-01 0. -1.
       1023    2    1    2    0    0  0.00000000000E+00  0.00000000000E+00 -0.48028866979E+02  0.52027096101E+02  0.20001166602E+02 0.  0.
        -11    1    3    3    0    0  0.65696708607E+01 -0.75394813144E+01 -0.23791998078E+02  0.25808206573E+02  0.51100000000E-03 0.  1.
         11    1    3    3    0    0 -0.65696708607E+01  0.75394813144E+01 -0.24236868900E+02  0.26218889528E+02  0.51100000000E-03 0. -1.
<mgrwt>
<rscale>  0 0.20001167E+02</rscale>
<asrwt>0</asrwt>
<pdfrwt beam="1">  1        3 0.30755612E-03 0.20001167E+02</pdfrwt>
<pdfrwt beam="2">  1       -3 0.76966116E-02 0.20001167E+02</pdfrwt>
<totfact> 0.16110759E+06</totfact>
</mgrwt>
</event>
<event>
 5    1  0.4133473E-007  0.2000031E+02  0.7818608E-02  0.1745322E+00
         -3   -1    0    0    0  501 -0.00000000000E+00  0.00000000000E+00  0.11109339250E+01  0.11148197996E+01  0.93000000000E-01 0.  1.
          3   -1    0    0  501    0  0.00000000000E+00 -0.00000000000E+00 -0.89856092262E+02  0.89856140389E+02  0.93000000000E-01 0. -1.
       1023    2    1    2    0    0  0.00000000000E+00  0.00000000000E+00 -0.88745158337E+02  0.90970960188E+02  0.20000311732E+02 0.  0.
        -11    1    3    3    0    0 -0.92199942882E+01  0.38720358439E+01 -0.44584013845E+02  0.45691741563E+02  0.51100000000E-03 0.  1.
         11    1    3    3    0    0  0.92199942882E+01 -0.38720358439E+01 -0.44161144492E+02  0.45279218626E+02  0.51100000000E-03 0. -1.
<mgrwt>
<rscale>  0 0.20000312E+02</rscale>
<asrwt>0</asrwt>
<pdfrwt beam="2">  1        3 0.13824311E-01 0.20000312E+02</pdfrwt>
<pdfrwt beam="1">  1       -3 0.17121560E-03 0.20000312E+02</pdfrwt>
<totfact> 0.14498164E+06</totfact>
</mgrwt>
</event>
<event>
 5    1  0.4133473E-007  0.2000652E+02  0.7818608E-02  0.1745198E+00
         -3   -1    0    0    0  501 -0.00000000000E+00  0.00000000000E+00  0.46119891237E+02  0.46119985003E+02  0.93000000000E-01 0. -1.
          3   -1    0    0  501    0  0.00000000000E+00 -0.00000000000E+00 -0.21685829454E+01  0.21705761887E+01  0.93000000000E-01 0.  1.
       1023    2    1    2    0    0  0.00000000000E+00  0.00000000000E+00  0.43951308291E+02  0.48290561192E+02  0.20006518930E+02 0.  0.
        -11    1    3    3    0    0  0.48730498093E+01 -0.87326638439E+01  0.21388527214E+02  0.23610911226E+02  0.51100000000E-03 0. -1.
         11    1    3    3    0    0 -0.48730498093E+01  0.87326638439E+01  0.22562781077E+02  0.24679649966E+02  0.51100000000E-03 0.  1.
<mgrwt>
<rscale>  0 0.20006519E+02</rscale>
<asrwt>0</asrwt>
<pdfrwt beam="2">  1        3 0.33378866E-03 0.20006519E+02</pdfrwt>
<pdfrwt beam="1">  1       -3 0.70955288E-02 0.20006519E+02</pdfrwt>
<totfact> 0.16281445E+06</totfact>
</mgrwt>
</event>
<event>
 5    1  0.4133473E-007  0.2000027E+02  0.7818608E-02  0.1745323E+00
         -3   -1    0    0    0  501 -0.00000000000E+00  0.00000000000E+00  0.91624369858E+00  0.92095141847E+00  0.93000000000E-01 0. -1.
          3   -1    0    0  501    0  0.00000000000E+00 -0.00000000000E+00 -0.10885979390E+03  0.10885983363E+03  0.93000000000E-01 0.  1.
       1023    2    1    2    0    0  0.00000000000E+00  0.00000000000E+00 -0.10794355020E+03  0.10978078505E+03  0.20000268367E+02 0.  0.
        -11    1    3    3    0    0  0.99951706221E+01 -0.31242997657E+00 -0.53749816083E+02  0.54672148096E+02  0.51100000000E-03 0.  1.
         11    1    3    3    0    0 -0.99951706221E+01  0.31242997657E+00 -0.54193734121E+02  0.55108636950E+02  0.51100000000E-03 0. -1.
<mgrwt>
<rscale>  0 0.20000268E+02</rscale>
<asrwt>0</asrwt>
<pdfrwt beam="2">  1        3 0.16748016E-01 0.20000268E+02</pdfrwt>
<pdfrwt beam="1">  1       -3 0.14132584E-03 0.20000268E+02</pdfrwt>
<totfact> 0.13847793E+06</totfact>
</mgrwt>
</event>
<event>
 5    1  0.4133473E-007  0.2000050E+02  0.7818608E-02  0.1745318E+00
         -3   -1    0    0    0  501 -0.00000000000E+00  0.00000000000E+00  0.77513777570E+02  0.77513833360E+02  0.93000000000E-01 0.  1.
          3   -1    0    0  501    0  0.00000000000E+00 -0.00000000000E+00 -0.12884258744E+01  0.12917779352E+01  0.93000000000E-01 0. -1.
       1023    2    1    2    0    0  0.00000000000E+00  0.00000000000E+00  0.76225351695E+02  0.78805611295E+02  0.20000503256E+02 0.  0.
        -11    1    3    3    0    0 -0.32690104424E+00 -0.99947634592E+01  0.38323814625E+02  0.39607031302E+02  0.51100000000E-03 0. -1.
         11    1    3    3    0    0  0.32690104424E+00  0.99947634592E+01  0.37901537071E+02  0.39198579993E+02  0.51100000000E-03 0.  1.
<mgrwt>
<rscale>  0 0.20000503E+02</rscale>
<asrwt>0</asrwt>
<pdfrwt beam="2">  1        3 0.19848147E-03 0.20000503E+02</pdfrwt>
<pdfrwt beam="1">  1       -3 0.11925461E-01 0.20000503E+02</pdfrwt>
<totfact> 0.14960116E+06</totfact>
</mgrwt>
</event>
<event>
 5    1  0.4133473E-007  0.2000204E+02  0.7818608E-02  0.1745287E+00
         -3   -1    0    0    0  501 -0.00000000000E+00  0.00000000000E+00  0.23775641326E+01  0.23793823158E+01  0.93000000000E-01 0.  1.
          3   -1    0    0  501    0  0.00000000000E+00 -0.00000000000E+00 -0.42050504345E+02  0.42050607186E+02  0.93000000000E-01 0. -1.
       1023    2    1    2    0    0  0.00000000000E+00  0.00000000000E+00 -0.39672940213E+02  0.44429989502E+02  0.20002044445E+02 0.  0.
        -11    1    3    3    0    0  0.98705579247E+01 -0.16100035345E+01 -0.19881998566E+02  0.22255648549E+02  0.51100000000E-03 0.  1.
         11    1    3    3    0    0 -0.98705579247E+01  0.16100035345E+01 -0.19790941647E+02  0.22174340952E+02  0.51100000000E-03 0. -1.
<mgrwt>
<rscale>  0 0.20002044E+02</rscale>
<asrwt>0</asrwt>
<pdfrwt beam="2">  1        3 0.64694556E-02 0.20002044E+02</pdfrwt>
<pdfrwt beam="1">  1       -3 0.36592690E-03 0.20002044E+02</pdfrwt>
<totfact> 0.16479144E+06</totfact>
</mgrwt>
</event>
<event>
 5    1  0.4133473E-007  0.2000271E+02  0.7818608E-02  0.1745274E+00
          3   -1    0    0  501    0  0.00000000000E+00  0.00000000000E+00  0.64783774109E+01  0.64790449048E+01  0.93000000000E-01 0.  1.
         -3   -1    0    0    0  501 -0.00000000000E+00 -0.00000000000E+00 -0.15438548479E+02  0.15438828587E+02  0.93000000000E-01 0. -1.
       1023    2    1    2    0    0  0.00000000000E+00  0.00000000000E+00 -0.89601710679E+01  0.21917873492E+02  0.20002712637E+02 0.  0.
        -11    1    3    3    0    0 -0.96998339363E+01  0.24346878196E+01 -0.43568701068E+01  0.10908565468E+02  0.51100000000E-03 0.  1.
         11    1    3    3    0    0  0.96998339363E+01 -0.24346878196E+01 -0.46033009611E+01  0.11009308024E+02  0.51100000000E-03 0. -1.
<mgrwt>
<rscale>  0 0.20002713E+02</rscale>
<asrwt>0</asrwt>
<pdfrwt beam="1">  1        3 0.99674634E-03 0.20002713E+02</pdfrwt>
<pdfrwt beam="2">  1       -3 0.23752342E-02 0.20002713E+02</pdfrwt>
<totfact> 0.17756295E+06</totfact>
</mgrwt>
</event>
<event>
 5    1  0.4133473E-007  0.2000208E+02  0.7818608E-02  0.1745287E+00
          3   -1    0    0  501    0  0.00000000000E+00  0.00000000000E+00  0.17274582781E+01  0.17299598558E+01  0.93000000000E-01 0. -1.
         -3   -1    0    0    0  501 -0.00000000000E+00 -0.00000000000E+00 -0.57856149493E+02  0.57856224239E+02  0.93000000000E-01 0.  1.
       1023    2    1    2    0    0  0.00000000000E+00  0.00000000000E+00 -0.56128691215E+02  0.59586184095E+02  0.20002083828E+02 0.  0.
        -11    1    3    3    0    0 -0.64234079838E+01  0.76649349415E+01 -0.28353804300E+02  0.30065754877E+02  0.51100000000E-03 0. -1.
         11    1    3    3    0    0  0.64234079838E+01 -0.76649349415E+01 -0.27774886916E+02  0.29520429218E+02  0.51100000000E-03 0.  1.
<mgrwt>
<rscale>  0 0.20002084E+02</rscale>
<asrwt>0</asrwt>
<pdfrwt beam="1">  1        3 0.26596103E-03 0.20002084E+02</pdfrwt>
<pdfrwt beam="2">  1       -3 0.89011428E-02 0.20002084E+02</pdfrwt>
<totfact> 0.15761376E+06</totfact>
</mgrwt>
</event>
<event>
 5    1  0.4250995E-007  0.2000075E+02  0.7818608E-02  0.1745313E+00
         -3   -1    0    0    0  501 -0.00000000000E+00  0.00000000000E+00  0.28658294731E+02  0.28658445629E+02  0.93000000000E-01 0. -1.
          3   -1    0    0  501    0  0.00000000000E+00 -0.00000000000E+00 -0.34888733373E+01  0.34901126291E+01  0.93000000000E-01 0.  1.
       1023    2    1    2    0    0  0.00000000000E+00  0.00000000000E+00  0.25169421394E+02  0.32148558258E+02  0.20000750606E+02 0.  0.
        -11    1    3    3    0    0 -0.74291151613E+01 -0.66944524508E+01  0.12597186545E+02  0.16084046593E+02  0.51100000000E-03 0. -1.
         11    1    3    3    0    0  0.74291151613E+01  0.66944524508E+01  0.12572234849E+02  0.16064511666E+02  0.51100000000E-03 0.  1.
<mgrwt>
<rscale>  0 0.20000751E+02</rscale>
<asrwt>0</asrwt>
<pdfrwt beam="2">  1        3 0.53685669E-03 0.20000751E+02</pdfrwt>
<pdfrwt beam="1">  1       -3 0.44090753E-02 0.20000751E+02</pdfrwt>
<totfact> 0.17142839E+06</totfact>
</mgrwt>
</event>
<event>
 4    1  0.4133473E-007  0.2001435E+02  0.7818608E-02  0.1745043E+00
          3   -1    0    0  501    0  0.00000000000E+00  0.00000000000E+00  0.26019731411E+01  0.26036346186E+01  0.93000000000E-01 0. -1.
         -3   -1    0    0    0  501 -0.00000000000E+00 -0.00000000000E+00 -0.38473558900E+02  0.38473671301E+02  0.93000000000E-01 0.  1.
        -11    1    1    2    0    0 -0.98926103675E+01  0.14643217656E+01 -0.17179963886E+02  0.19878610049E+02  0.51100000000E-03 0.  1.
         11    1    1    2    0    0  0.98926103675E+01 -0.14643217656E+01 -0.18691621873E+02  0.21198695871E+02  0.51100000000E-03 0. -1.
<mgrwt>
<rscale>  0 0.20014355E+02</rscale>
<asrwt>0</asrwt>
<pdfrwt beam="1">  1        3 0.40044004E-03 0.20014355E+02</pdfrwt>
<pdfrwt beam="2">  1       -3 0.59191451E-02 0.20014355E+02</pdfrwt>
<totfact> 0.16631909E+06</totfact>
</mgrwt>
</event>
<event>
 5    1  0.4133473E-007  0.2000619E+02  0.7818608E-02  0.1745205E+00
         -3   -1    0    0    0  501 -0.00000000000E+00  0.00000000000E+00  0.14035190186E+01  0.14065968277E+01  0.93000000000E-01 0. -1.
          3   -1    0    0  501    0  0.00000000000E+00 -0.00000000000E+00 -0.71212366121E+02  0.71212426848E+02  0.93000000000E-01 0.  1.
       1023    2    1    2    0    0  0.00000000000E+00  0.00000000000E+00 -0.69808847103E+02  0.72619023676E+02  0.20006185689E+02 0.  0.
        -11    1    3    3    0    0 -0.10000774669E+02  0.55623386749E-01 -0.34149294942E+02  0.35583604838E+02  0.51100000000E-03 0. -1.
         11    1    3    3    0    0  0.10000774669E+02 -0.55623386749E-01 -0.35659552161E+02  0.37035418838E+02  0.51100000000E-03 0.  1.
<mgrwt>
<rscale>  0 0.20006186E+02</rscale>
<asrwt>0</asrwt>
<pdfrwt beam="2">  1        3 0.10955987E-01 0.20006186E+02</pdfrwt>
<pdfrwt beam="1">  1       -3 0.21616748E-03 0.20006186E+02</pdfrwt>
<totfact> 0.15195155E+06</totfact>
</mgrwt>
</event>
<event>
 5    1  0.4133473E-007  0.2000012E+02  0.7818608E-02  0.1745326E+00
         -3   -1    0    0    0  501 -0.00000000000E+00  0.00000000000E+00  0.17427665641E+01  0.17452461996E+01  0.93000000000E-01 0. -1.
          3   -1    0    0  501    0  0.00000000000E+00 -0.00000000000E+00 -0.57337381883E+02  0.57337457305E+02  0.93000000000E-01 0.  1.
       1023    2    1    2    0    0  0.00000000000E+00  0.00000000000E+00 -0.55594615319E+02  0.59082703505E+02  0.20000115024E+02 0.  0.
        -11    1    3    3    0    0  0.88358438123E+01  0.46828367079E+01 -0.27819110165E+02  0.29561867095E+02  0.51100000000E-03 0.  1.
         11    1    3    3    0    0 -0.88358438123E+01 -0.46828367079E+01 -0.27775505154E+02  0.29520836410E+02  0.51100000000E-03 0. -1.
<mgrwt>
<rscale>  0 0.20000115E+02</rscale>
<asrwt>0</asrwt>
<pdfrwt beam="2">  1        3 0.88213308E-02 0.20000115E+02</pdfrwt>
<pdfrwt beam="1">  1       -3 0.26831452E-03 0.20000115E+02</pdfrwt>
<totfact> 0.15784492E+06</totfact>
</mgrwt>
</event>
<event>
 5    1  0.4133473E-007  0.2000072E+02  0.7818608E-02  0.1745314E+00
          3   -1    0    0  501    0  0.00000000000E+00  0.00000000000E+00  0.31789761148E+01  0.31803361675E+01  0.93000000000E-01 0. -1.
         -3   -1    0    0    0  501 -0.00000000000E+00 -0.00000000000E+00 -0.31450782367E+02  0.31450919867E+02  0.93000000000E-01 0.  1.
       1023    2    1    2    0    0  0.00000000000E+00  0.00000000000E+00 -0.28271806252E+02  0.34631256035E+02  0.20000721632E+02 0.  0.
        -11    1    3    3    0    0 -0.24446978272E+01  0.96968947563E+01 -0.14187871315E+02  0.17358053119E+02  0.51100000000E-03 0. -1.
         11    1    3    3    0    0  0.24446978272E+01 -0.96968947563E+01 -0.14083934938E+02  0.17273202916E+02  0.51100000000E-03 0.  1.
<mgrwt>
<rscale>  0 0.20000722E+02</rscale>
<asrwt>0</asrwt>
<pdfrwt beam="1">  1        3 0.48918847E-03 0.20000722E+02</pdfrwt>
<pdfrwt beam="2">  1       -3 0.48386969E-02 0.20000722E+02</pdfrwt>
<totfact> 0.17003169E+06</totfact>
</mgrwt>
</event>
<event>
 5    1  0.4340893E-007  0.2000076E+02  0.7818608E-02  0.1745313E+00
         -3   -1    0    0    0  501 -0.00000000000E+00  0.00000000000E+00  0.59795534482E+01  0.59802766190E+01  0.93000000000E-01 0.  1.
          3   -1    0    0  501    0  0.00000000000E+00 -0.00000000000E+00 -0.16723069037E+02  0.16723327630E+02  0.93000000000E-01 0. -1.
       1023    2    1    2    0    0  0.00000000000E+00  0.00000000000E+00 -0.10743515589E+02  0.22703604249E+02  0.20000762952E+02 0.  0.
        -11    1    3    3    0    0  0.27122338161E+01 -0.96255560096E+01 -0.53610705072E+01  0.11346744820E+02  0.51100000000E-03 0. -1.
         11    1    3    3    0    0 -0.27122338161E+01  0.96255560096E+01 -0.53824450815E+01  0.11356859429E+02  0.51100000000E-03 0.  1.
<mgrwt>
<rscale>  0 0.20000763E+02</rscale>
<asrwt>0</asrwt>
<pdfrwt beam="2">  1        3 0.25728554E-02 0.20000763E+02</pdfrwt>
<pdfrwt beam="1">  1       -3 0.92000683E-03 0.20000763E+02</pdfrwt>
<totfact> 0.17709065E+06</totfact>
</mgrwt>
</event>
<event>
 5    1  0.4161457E-007  0.2000299E+02  0.7818608E-02  0.1745269E+00
          3   -1    0    0  501    0  0.00000000000E+00  0.00000000000E+00  0.16326580258E+02  0.16326845131E+02  0.93000000000E-01 0. -1.
         -3   -1    0    0    0  501 -0.00000000000E+00 -0.00000000000E+00 -0.61261423288E+01  0.61268481973E+01  0.93000000000E-01 0.  1.
       1023    2    1    2    0    0  0.00000000000E+00  0.00000000000E+00  0.10200437930E+02  0.22453693328E+02  0.20002985030E+02 0.  0.
        -11    1    3    3    0    0  0.82675213330E+01  0.56283140748E+01  0.51057127793E+01  0.11229342437E+02  0.51100000000E-03 0.  1.
         11    1    3    3    0    0 -0.82675213330E+01 -0.56283140748E+01  0.50947251503E+01  0.11224350892E+02  0.51100000000E-03 0. -1.
<mgrwt>
<rscale>  0 0.20002985E+02</rscale>
<asrwt>0</asrwt>
<pdfrwt beam="1">  1        3 0.25118562E-02 0.20002985E+02</pdfrwt>
<pdfrwt beam="2">  1       -3 0.94255811E-03 0.20002985E+02</pdfrwt>
<totfact> 0.17720747E+06</totfact>
</mgrwt>
</event>
<event>
 5    1  0.4306318E-007  0.2000092E+02  0.7818608E-02  0.1745310E+00
          3   -1    0    0  501    0  0.00000000000E+00  0.00000000000E+00  0.13262020249E+02  0.13262346327E+02  0.93000000000E-01 0. -1.
         -3   -1    0    0    0  501 -0.00000000000E+00 -0.00000000000E+00 -0.75403207614E+01  0.75408942563E+01  0.93000000000E-01 0.  1.
       1023    2    1    2    0    0  0.00000000000E+00  0.00000000000E+00  0.57216994876E+01  0.20803240583E+02  0.20000924322E+02 0.  0.
        -11    1    3    3    0    0  0.91763199112E+01  0.39754698675E+01  0.28670373260E+01  0.10403322117E+02  0.51100000000E-03 0.  1.
         11    1    3    3    0    0 -0.91763199112E+01 -0.39754698675E+01  0.28546621616E+01  0.10399918466E+02  0.51100000000E-03 0. -1.
<mgrwt>
<rscale>  0 0.20000924E+02</rscale>
<asrwt>0</asrwt>
<pdfrwt beam="1">  1        3 0.20403800E-02 0.20000924E+02</pdfrwt>
<pdfrwt beam="2">  1       -3 0.11601185E-02 0.20000924E+02</pdfrwt>
<totfact> 0.17831152E+06</totfact>
</mgrwt>
</event>
<event>
 5    1  0.4374164E-007  0.2000151E+02  0.7818608E-02  0.1745298E+00
         -3   -1    0    0    0  501 -0.00000000000E+00  0.00000000000E+00  0.90390547624E+01  0.90395331736E+01  0.93000000000E-01 0.  1.
          3   -1    0    0  501    0  0.00000000000E+00 -0.00000000000E+00 -0.11063806724E+02  0.11064197586E+02  0.93000000000E-01 0. -1.
       1023    2    1    2    0    0  0.00000000000E+00  0.00000000000E+00 -0.20247519615E+01  0.20103730760E+02  0.20001509192E+02 0.  0.
        -11    1    3    3    0    0  0.42894942002E+01 -0.90340237924E+01 -0.10543728972E+01  0.10056095109E+02  0.51100000000E-03 0.  1.
         11    1    3    3    0    0 -0.42894942002E+01  0.90340237924E+01 -0.97037906423E+00  0.10047635651E+02  0.51100000000E-03 0. -1.
<mgrwt>
<rscale>  0 0.20001509E+02</rscale>
<asrwt>0</asrwt>
<pdfrwt beam="2">  1        3 0.17021910E-02 0.20001509E+02</pdfrwt>
<pdfrwt beam="1">  1       -3 0.13906907E-02 0.20001509E+02</pdfrwt>
<totfact> 0.17875888E+06</totfact>
</mgrwt>
</event>
<event>
 5    1  0.4133473E-007  0.2000007E+02  0.7818608E-02  0.1745327E+00
         -3   -1    0    0    0  501 -0.00000000000E+00  0.00000000000E+00  0.11481341713E+01  0.11518945591E+01  0.93000000000E-01 0. -1.
          3   -1    0    0  501    0  0.00000000000E+00 -0.00000000000E+00 -0.86952267193E+02  0.86952316927E+02  0.93000000000E-01 0.  1.
       1023    2    1    2    0    0  0.00000000000E+00  0.00000000000E+00 -0.85804133022E+02  0.88104211486E+02  0.20000070950E+02 0.  0.
        -11    1    3    3    0    0  0.81068540651E+01 -0.58548748137E+01 -0.42865922038E+02  0.44016904870E+02  0.51100000000E-03 0. -1.
         11    1    3    3    0    0 -0.81068540651E+01  0.58548748137E+01 -0.42938210984E+02  0.44087306616E+02  0.51100000000E-03 0.  1.
<mgrwt>
<rscale>  0 0.20000071E+02</rscale>
<asrwt>0</asrwt>
<pdfrwt beam="2">  1        3 0.13377560E-01 0.20000071E+02</pdfrwt>
<pdfrwt beam="1">  1       -3 0.17692918E-03 0.20000071E+02</pdfrwt>
<totfact> 0.14603875E+06</totfact>
</mgrwt>
</event>
<event>
 5    1  0.4133473E-007  0.2000047E+02  0.7818608E-02  0.1745319E+00
          3   -1    0    0  501    0  0.00000000000E+00  0.00000000000E+00  0.10760631291E+02  0.10761033165E+02  0.93000000000E-01 0.  1.
         -3   -1    0    0    0  501 -0.00000000000E+00 -0.00000000000E+00 -0.92927624723E+01  0.92932278228E+01  0.93000000000E-01 0. -1.
       1023    2    1    2    0    0  0.00000000000E+00  0.00000000000E+00  0.14678688189E+01  0.20054260988E+02  0.20000468617E+02 0.  0.
        -11    1    3    3    0    0 -0.89584094113E+01 -0.44438006467E+01  0.79909070058E+00  0.10031899600E+02  0.51100000000E-03 0. -1.
         11    1    3    3    0    0  0.89584094113E+01  0.44438006467E+01  0.66877811836E+00  0.10022361388E+02  0.51100000000E-03 0.  1.
<mgrwt>
<rscale>  0 0.20000469E+02</rscale>
<asrwt>0</asrwt>
<pdfrwt beam="1">  1        3 0.16555485E-02 0.20000469E+02</pdfrwt>
<pdfrwt beam="2">  1       -3 0.14297225E-02 0.20000469E+02</pdfrwt>
<totfact> 0.17881132E+06</totfact>
</mgrwt>
</event>
<event>
 4    1  0.4133473E-007  0.2003159E+02  0.7818608E-02  0.1744701E+00
         -3   -1    0    0    0  501 -0.00000000000E+00  0.00000000000E+00  0.69823533755E+01  0.69829726951E+01  0.93000000000E-01 0. -1.
          3   -1    0    0  501    0  0.00000000000E+00 -0.00000000000E+00 -0.14365685216E+02  0.14365986243E+02  0.93000000000E-01 0.  1.
        -11    1    1    2    0    0  0.54483594231E+01  0.84042419278E+01 -0.37071697322E+01  0.10679841313E+02  0.51100000000E-03 0. -1.
         11    1    1    2    0    0 -0.54483594231E+01 -0.84042419278E+01 -0.36761621083E+01  0.10669117625E+02  0.51100000000E-03 0.  1.
<mgrwt>
<rscale>  0 0.20031587E+02</rscale>
<asrwt>0</asrwt>
<pdfrwt beam="2">  1        3 0.22101762E-02 0.20031587E+02</pdfrwt>
<pdfrwt beam="1">  1       -3 0.10742790E-02 0.20031587E+02</pdfrwt>
<totfact> 0.17736982E+06</totfact>
</mgrwt>
</event>
<event>
 5    1  0.4133473E-007  0.2000268E+02  0.7818608E-02  0.1745275E+00
          3   -1    0    0  501    0  0.00000000000E+00  0.00000000000E+00  0.11938079717E+02  0.11938441956E+02  0.93000000000E-01 0. -1.
         -3   -1    0    0    0  501 -0.00000000000E+00 -0.00000000000E+00 -0.83780546844E+01  0.83785708384E+01  0.93000000000E-01 0.  1.
       1023    2    1    2    0    0  0.00000000000E+00  0.00000000000E+00  0.35600250326E+01  0.20317012794E+02  0.20002680586E+02 0.  0.
        -11    1    3    3    0    0  0.87054347204E+01 -0.49220786851E+01  0.16541493525E+01  0.10136452170E+02  0.51100000000E-03 0.  1.
         11    1    3    3    0    0 -0.87054347204E+01  0.49220786851E+01  0.19058756801E+01  0.10180560624E+02  0.51100000000E-03 0. -1.
<mgrwt>
<rscale>  0 0.20002681E+02</rscale>
<asrwt>0</asrwt>
<pdfrwt beam="1">  1        3 0.18366952E-02 0.20002681E+02</pdfrwt>
<pdfrwt beam="2">  1       -3 0.12889991E-02 0.20002681E+02</pdfrwt>
<totfact> 0.17859556E+06</totfact>
</mgrwt>
</event>
<event>
 5    1  0.4133473E-007  0.2000272E+02  0.7818608E-02  0.1745274E+00
          3   -1    0    0  501    0  0.00000000000E+00  0.00000000000E+00  0.11830089479E+03  0.11830093134E+03  0.93000000000E-01 0. -1.
         -3   -1    0    0    0  501 -0.00000000000E+00 -0.00000000000E+00 -0.84293779411E+00  0.84805254834E+00  0.93000000000E-01 0.  1.
       1023    2    1    2    0    0  0.00000000000E+00  0.00000000000E+00  0.11745795699E+03  0.11914898389E+03  0.20002717345E+02 0.  0.
        -11    1    3    3    0    0 -0.71004339606E+01 -0.70433655237E+01  0.58996345034E+02  0.59838063872E+02  0.51100000000E-03 0.  1.
         11    1    3    3    0    0  0.71004339606E+01  0.70433655237E+01  0.58461611959E+02  0.59310920018E+02  0.51100000000E-03 0. -1.
<mgrwt>
<rscale>  0 0.20002717E+02</rscale>
<asrwt>0</asrwt>
<pdfrwt beam="1">  1        3 0.18200519E-01 0.20002717E+02</pdfrwt>
<pdfrwt beam="2">  1       -3 0.13007910E-03 0.20002717E+02</pdfrwt>
<totfact> 0.13543697E+06</totfact>
</mgrwt>
</event>
<event>
 5    1  0.4179162E-007  0.2000139E+02  0.7818608E-02  0.1745300E+00
          3   -1    0    0  501    0  0.00000000000E+00  0.00000000000E+00  0.30915085869E+02  0.30915225752E+02  0.93000000000E-01 0. -1.
         -3   -1    0    0    0  501 -0.00000000000E+00 -0.00000000000E+00 -0.32343011515E+01  0.32356379493E+01  0.93000000000E-01 0.  1.
       1023    2    1    2    0    0  0.00000000000E+00  0.00000000000E+00  0.27680784718E+02  0.34150863701E+02  0.20001391176E+02 0.  0.
        -11    1    3    3    0    0  0.12825096461E+01  0.99175912947E+01  0.13665734459E+02  0.16933863902E+02  0.51100000000E-03 0. -1.
         11    1    3    3    0    0 -0.12825096461E+01 -0.99175912947E+01  0.14015050259E+02  0.17216999800E+02  0.51100000000E-03 0.  1.
<mgrwt>
<rscale>  0 0.20001391E+02</rscale>
<asrwt>0</asrwt>
<pdfrwt beam="1">  1        3 0.47562805E-02 0.20001391E+02</pdfrwt>
<pdfrwt beam="2">  1       -3 0.49769840E-03 0.20001391E+02</pdfrwt>
<totfact> 0.17026741E+06</totfact>
</mgrwt>
</event>
<event>
 5    1  0.4133473E-007  0.2000049E+02  0.7818608E-02  0.1745318E+00
         -3   -1    0    0    0  501 -0.00000000000E+00  0.00000000000E+00  0.38133962009E+01  0.38145300608E+01  0.93000000000E-01 0. -1.
          3   -1    0    0  501    0  0.00000000000E+00 -0.00000000000E+00 -0.26219521855E+02  0.26219686789E+02  0.93000000000E-01 0.  1.
       1023    2    1    2    0    0  0.00000000000E+00  0.00000000000E+00 -0.22406125654E+02  0.30034216850E+02  0.20000492868E+02 0.  0.
        -11    1    3    3    0    0 -0.94238132029E+01 -0.33457239699E+01 -0.11123540594E+02  0.14957783251E+02  0.51100000000E-03 0.  1.
         11    1    3    3    0    0  0.94238132029E+01  0.33457239699E+01 -0.11282585060E+02  0.15076433599E+02  0.51100000000E-03 0. -1.
<mgrwt>
<rscale>  0 0.20000493E+02</rscale>
<asrwt>0</asrwt>
<pdfrwt beam="2">  1        3 0.40338724E-02 0.20000493E+02</pdfrwt>
<pdfrwt beam="1">  1       -3 0.58677626E-03 0.20000493E+02</pdfrwt>
<totfact> 0.17263481E+06</totfact>
</mgrwt>
</event>
<event>
 5    1  0.4133473E-007  0.2000548E+02  0.7818608E-02  0.1745219E+00
         -3   -1    0    0    0  501 -0.00000000000E+00  0.00000000000E+00  0.22170137726E+02  0.22170332785E+02  0.93000000000E-01 0.  1.
          3   -1    0    0  501    0  0.00000000000E+00 -0.00000000000E+00 -0.45123482821E+01  0.45133065505E+01  0.93000000000E-01 0. -1.
       1023    2    1    2    0    0  0.00000000000E+00  0.00000000000E+00  0.17657789444E+02  0.26683639336E+02  0.20005476254E+02 0.  0.
        -11    1    3    3    0    0  0.85096333507E+01  0.52569496182E+01  0.87309638530E+01  0.13277014315E+02  0.51100000000E-03 0.  1.
         11    1    3    3    0    0 -0.85096333507E+01 -0.52569496182E+01  0.89268255913E+01  0.13406625021E+02  0.51100000000E-03 0. -1.
<mgrwt>
<rscale>  0 0.20005476E+02</rscale>
<asrwt>0</asrwt>
<pdfrwt beam="2">  1        3 0.69429614E-03 0.20005476E+02</pdfrwt>
<pdfrwt beam="1">  1       -3 0.34108791E-02 0.20005476E+02</pdfrwt>
<totfact> 0.17454679E+06</totfact>
</mgrwt>
</event>
<event>
 4    1  0.4133473E-007  0.2034664E+02  0.7818608E-02  0.1738521E+00
          3   -1    0    0  501    0  0.00000000000E+00  0.00000000000E+00  0.21013009365E+02  0.21013215165E+02  0.93000000000E-01 0.  1.
         -3   -1    0    0    0  501 -0.00000000000E+00 -0.00000000000E+00 -0.49246794577E+01  0.49255575076E+01  0.93000000000E-01 0. -1.
        -11    1    1    2    0    0  0.98207292041E+01  0.24666744608E+01  0.92966210967E+01  0.13746212899E+02  0.51100000000E-03 0. -1.
         11    1    1    2    0    0 -0.98207292041E+01 -0.24666744608E+01  0.67917088102E+01  0.12192559773E+02  0.51100000000E-03 0.  1.
<mgrwt>
<rscale>  0 0.20346635E+02</rscale>
<asrwt>0</asrwt>
<pdfrwt beam="1">  1        3 0.32328540E-02 0.20346635E+02</pdfrwt>
<pdfrwt beam="2">  1       -3 0.75772638E-03 0.20346635E+02</pdfrwt>
<totfact> 0.16871209E+06</totfact>
</mgrwt>
</event>
<event>
 5    1  0.4133473E-007  0.2000319E+02  0.7818608E-02  0.1745265E+00
         -3   -1    0    0    0  501 -0.00000000000E+00  0.00000000000E+00  0.47264571178E+01  0.47273719852E+01  0.93000000000E-01 0.  1.
          3   -1    0    0  501    0  0.00000000000E+00 -0.00000000000E+00 -0.21161181645E+02  0.21161386004E+02  0.93000000000E-01 0. -1.
       1023    2    1    2    0    0  0.00000000000E+00  0.00000000000E+00 -0.16434724527E+02  0.25888757989E+02  0.20003190244E+02 0.  0.
        -11    1    3    3    0    0  0.97083666420E+01  0.24039507965E+01 -0.81872193416E+01  0.12925243638E+02  0.51100000000E-03 0.  1.
         11    1    3    3    0    0 -0.97083666420E+01 -0.24039507965E+01 -0.82475051851E+01  0.12963514351E+02  0.51100000000E-03 0. -1.
<mgrwt>
<rscale>  0 0.20003190E+02</rscale>
<asrwt>0</asrwt>
<pdfrwt beam="2">  1        3 0.32556524E-02 0.20003190E+02</pdfrwt>
<pdfrwt beam="1">  1       -3 0.72723336E-03 0.20003190E+02</pdfrwt>
<totfact> 0.17505933E+06</totfact>
</mgrwt>
</event>
<event>
 5    1  0.4139505E-007  0.2000127E+02  0.7818608E-02  0.1745303E+00
          3   -1    0    0  501    0  0.00000000000E+00  0.00000000000E+00  0.25809473509E+01  0.25826223549E+01  0.93000000000E-01 0. -1.
         -3   -1    0    0    0  501 -0.00000000000E+00 -0.00000000000E+00 -0.38736076783E+02  0.38736188423E+02  0.93000000000E-01 0.  1.
       1023    2    1    2    0    0  0.00000000000E+00  0.00000000000E+00 -0.36155129432E+02  0.41318810778E+02  0.20001268456E+02 0.  0.
        -11    1    3    3    0    0  0.45181005824E+00  0.99902365079E+01 -0.17951450699E+02  0.20549052053E+02  0.51100000000E-03 0. -1.
         11    1    3    3    0    0 -0.45181005824E+00 -0.99902365079E+01 -0.18203678733E+02  0.20769758725E+02  0.51100000000E-03 0.  1.
<mgrwt>
<rscale>  0 0.20001268E+02</rscale>
<asrwt>0</asrwt>
<pdfrwt beam="1">  1        3 0.39720629E-03 0.20001268E+02</pdfrwt>
<pdfrwt beam="2">  1       -3 0.59595334E-02 0.20001268E+02</pdfrwt>
<totfact> 0.16642727E+06</totfact>
</mgrwt>
</event>
<event>
 5    1  0.4229722E-007  0.2000089E+02  0.7818608E-02  0.1745310E+00
         -3   -1    0    0    0  501 -0.00000000000E+00  0.00000000000E+00  0.60742394637E+01  0.60749513630E+01  0.93000000000E-01 0.  1.
          3   -1    0    0  501    0  0.00000000000E+00 -0.00000000000E+00 -0.16462628151E+02  0.16462890834E+02  0.93000000000E-01 0. -1.
       1023    2    1    2    0    0  0.00000000000E+00  0.00000000000E+00 -0.10388388687E+02  0.22537842197E+02  0.20000892765E+02 0.  0.
        -11    1    3    3    0    0  0.69036952338E+01 -0.72351521862E+01 -0.51691857804E+01  0.11257393878E+02  0.51100000000E-03 0.  1.
         11    1    3    3    0    0 -0.69036952338E+01  0.72351521862E+01 -0.52192029063E+01  0.11280448319E+02  0.51100000000E-03 0. -1.
<mgrwt>
<rscale>  0 0.20000893E+02</rscale>
<asrwt>0</asrwt>
<pdfrwt beam="2">  1        3 0.25327870E-02 0.20000893E+02</pdfrwt>
<pdfrwt beam="1">  1       -3 0.93457335E-03 0.20000893E+02</pdfrwt>
<totfact> 0.17719372E+06</totfact>
</mgrwt>
</event>
<event>
 5    1  0.4227388E-007  0.2000124E+02  0.7818608E-02  0.1745303E+00
          3   -1    0    0  501    0  0.00000000000E+00  0.00000000000E+00  0.26588414507E+02  0.26588577152E+02  0.93000000000E-01 0.  1.
         -3   -1    0    0    0  501 -0.00000000000E+00 -0.00000000000E+00 -0.37607535293E+01  0.37619032561E+01  0.93000000000E-01 0. -1.
       1023    2    1    2    0    0  0.00000000000E+00  0.00000000000E+00  0.22827660978E+02  0.30350480408E+02  0.20001238844E+02 0.  0.
        -11    1    3    3    0    0  0.74064691810E+01 -0.67192256424E+01  0.11273031253E+02  0.15069340160E+02  0.51100000000E-03 0.  1.
         11    1    3    3    0    0 -0.74064691810E+01  0.67192256424E+01  0.11554629724E+02  0.15281140248E+02  0.51100000000E-03 0. -1.
<mgrwt>
<rscale>  0 0.20001239E+02</rscale>
<asrwt>0</asrwt>
<pdfrwt beam="1">  1        3 0.40906261E-02 0.20001239E+02</pdfrwt>
<pdfrwt beam="2">  1       -3 0.57867844E-03 0.20001239E+02</pdfrwt>
<totfact> 0.17243688E+06</totfact>
</mgrwt>
</event>
<event>
 5    1  0.4318104E-007  0.2000083E+02  0.7818608E-02  0.1745312E+00
          3   -1    0    0  501    0  0.00000000000E+00  0.00000000000E+00  0.36638781410E+01  0.36650582576E+01  0.93000000000E-01 0. -1.
         -3   -1    0    0    0  501 -0.00000000000E+00 -0.00000000000E+00 -0.27290087515E+02  0.27290245979E+02  0.93000000000E-01 0.  1.
       1023    2    1    2    0    0  0.00000000000E+00  0.00000000000E+00 -0.23626209374E+02  0.30955304237E+02  0.20000827257E+02 0.  0.
        -11    1    3    3    0    0 -0.64571792248E+01 -0.76361188774E+01 -0.11731245568E+02  0.15415174274E+02  0.51100000000E-03 0. -1.
         11    1    3    3    0    0  0.64571792248E+01  0.76361188774E+01 -0.11894963806E+02  0.15540129963E+02  0.51100000000E-03 0.  1.
<mgrwt>
<rscale>  0 0.20000827E+02</rscale>
<asrwt>0</asrwt>
<pdfrwt beam="1">  1        3 0.56377654E-03 0.20000827E+02</pdfrwt>
<pdfrwt beam="2">  1       -3 0.41985779E-02 0.20000827E+02</pdfrwt>
<totfact> 0.17211178E+06</totfact>
</mgrwt>
</event>
<event>
 5    1  0.4133473E-007  0.2000014E+02  0.7818608E-02  0.1745325E+00
          3   -1    0    0  501    0  0.00000000000E+00  0.00000000000E+00  0.99423711451E+00  0.99857720777E+00  0.93000000000E-01 0. -1.
         -3   -1    0    0    0  501 -0.00000000000E+00 -0.00000000000E+00 -0.10035766611E+03  0.10035770921E+03  0.93000000000E-01 0.  1.
       1023    2    1    2    0    0  0.00000000000E+00  0.00000000000E+00 -0.99363429000E+02  0.10135628641E+03  0.20000144320E+02 0.  0.
        -11    1    3    3    0    0 -0.40853298803E+01 -0.91275116050E+01 -0.49719166510E+02  0.50714858839E+02  0.51100000000E-03 0. -1.
         11    1    3    3    0    0  0.40853298803E+01  0.91275116050E+01 -0.49644262490E+02  0.50641427574E+02  0.51100000000E-03 0.  1.
<mgrwt>
<rscale>  0 0.20000144E+02</rscale>
<asrwt>0</asrwt>
<pdfrwt beam="1">  1        3 0.15329680E-03 0.20000144E+02</pdfrwt>
<pdfrwt beam="2">  1       -3 0.15439970E-01 0.20000144E+02</pdfrwt>
<totfact> 0.14133862E+06</totfact>
</mgrwt>
</event>
<event>
 5    1  0.4133473E-007  0.2000185E+02  0.7818608E-02  0.1745291E+00
          3   -1    0    0  501    0  0.00000000000E+00  0.00000000000E+00  0.17145806480E+01  0.17171009867E+01  0.93000000000E-01 0. -1.
         -3   -1    0    0    0  501 -0.00000000000E+00 -0.00000000000E+00 -0.58288678553E+02  0.58288752744E+02  0.93000000000E-01 0.  1.
       1023    2    1    2    0    0  0.00000000000E+00  0.00000000000E+00 -0.56574097905E+02  0.60005853731E+02  0.20001848120E+02 0.  0.
        -11    1    3    3    0    0 -0.81448834751E+01  0.58033600726E+01 -0.28344507968E+02  0.30057099780E+02  0.51100000000E-03 0.  1.
         11    1    3    3    0    0  0.81448834751E+01 -0.58033600726E+01 -0.28229589937E+02  0.29948753951E+02  0.51100000000E-03 0. -1.
<mgrwt>
<rscale>  0 0.20001848E+02</rscale>
<asrwt>0</asrwt>
<pdfrwt beam="1">  1        3 0.26398126E-03 0.20001848E+02</pdfrwt>
<pdfrwt beam="2">  1       -3 0.89676871E-02 0.20001848E+02</pdfrwt>
<totfact> 0.15743016E+06</totfact>
</mgrwt>
</event>
<event>
 5    1  0.4133473E-007  0.2000928E+02  0.7818608E-02  0.1745144E+00
          3   -1    0    0  501    0  0.00000000000E+00  0.00000000000E+00  0.10056415817E+01  0.10099326665E+01  0.93000000000E-01 0.  1.
         -3   -1    0    0    0  501 -0.00000000000E+00 -0.00000000000E+00 -0.99315067302E+02  0.99315110845E+02  0.93000000000E-01 0. -1.
       1023    2    1    2    0    0  0.00000000000E+00  0.00000000000E+00 -0.98309425720E+02  0.10032504351E+03  0.20009277103E+02 0.  0.
        -11    1    3    3    0    0 -0.90474628798E+01 -0.42605871148E+01 -0.50604467455E+02  0.51583149514E+02  0.51100000000E-03 0.  1.
         11    1    3    3    0    0  0.90474628798E+01  0.42605871148E+01 -0.47704958265E+02  0.48741893998E+02  0.51100000000E-03 0. -1.
<mgrwt>
<rscale>  0 0.20009277E+02</rscale>
<asrwt>0</asrwt>
<pdfrwt beam="1">  1        3 0.15504760E-03 0.20009277E+02</pdfrwt>
<pdfrwt beam="2">  1       -3 0.15279567E-01 0.20009277E+02</pdfrwt>
<totfact> 0.14155523E+06</totfact>
</mgrwt>
</event>
<event>
 4    1  0.4133473E-007  0.2004462E+02  0.7818608E-02  0.1744442E+00
          3   -1    0    0  501    0  0.00000000000E+00  0.00000000000E+00  0.93827767030E+01  0.93832375894E+01  0.93000000000E-01 0. -1.
         -3   -1    0    0    0  501 -0.00000000000E+00 -0.00000000000E+00 -0.10704506924E+02  0.10704910905E+02  0.93000000000E-01 0.  1.
        -11    1    1    2    0    0 -0.69033737367E+01  0.72562153010E+01 -0.28931061469E+00  0.10019627255E+02  0.51100000000E-03 0. -1.
         11    1    1    2    0    0  0.69033737367E+01 -0.72562153010E+01 -0.10324196065E+01  0.10068521239E+02  0.51100000000E-03 0.  1.
<mgrwt>
<rscale>  0 0.20044619E+02</rscale>
<asrwt>0</asrwt>
<pdfrwt beam="1">  1        3 0.14435706E-02 0.20044619E+02</pdfrwt>
<pdfrwt beam="2">  1       -3 0.16469138E-02 0.20044619E+02</pdfrwt>
<totfact> 0.17794252E+06</totfact>
</mgrwt>
</event>
<event>
 5    1  0.4133473E-007  0.2000132E+02  0.7818608E-02  0.1745302E+00
          3   -1    0    0  501    0  0.00000000000E+00  0.00000000000E+00  0.11148620137E+03  0.11148624016E+03  0.93000000000E-01 0. -1.
         -3   -1    0    0    0  501 -0.00000000000E+00 -0.00000000000E+00 -0.89464102800E+00  0.89946182185E+00  0.93000000000E-01 0.  1.
       1023    2    1    2    0    0  0.00000000000E+00  0.00000000000E+00  0.11059156034E+03  0.11238570198E+03  0.20001319730E+02 0.  0.
        -11    1    3    3    0    0  0.94417490566E+01  0.32964463472E+01  0.55274974973E+02  0.56172377930E+02  0.51100000000E-03 0. -1.
         11    1    3    3    0    0 -0.94417490566E+01 -0.32964463472E+01  0.55316585365E+02  0.56213324047E+02  0.51100000000E-03 0.  1.
<mgrwt>
<rscale>  0 0.20001320E+02</rscale>
<asrwt>0</asrwt>
<pdfrwt beam="1">  1        3 0.17152101E-01 0.20001320E+02</pdfrwt>
<pdfrwt beam="2">  1       -3 0.13801087E-03 0.20001320E+02</pdfrwt>
<totfact> 0.13761220E+06</totfact>
</mgrwt>
</event>
<event>
 5    1  0.4133473E-007  0.2000048E+02  0.7818608E-02  0.1745319E+00
         -3   -1    0    0    0  501 -0.00000000000E+00  0.00000000000E+00  0.11247955136E+01  0.11286336639E+01  0.93000000000E-01 0.  1.
          3   -1    0    0  501    0  0.00000000000E+00 -0.00000000000E+00 -0.88753993818E+02  0.88754042543E+02  0.93000000000E-01 0. -1.
       1023    2    1    2    0    0  0.00000000000E+00  0.00000000000E+00 -0.87629198304E+02  0.89882676206E+02  0.20000477158E+02 0.  0.
        -11    1    3    3    0    0 -0.99708844371E+01 -0.76517947494E+00 -0.43692737785E+02  0.44822531962E+02  0.51100000000E-03 0.  1.
         11    1    3    3    0    0  0.99708844371E+01  0.76517947494E+00 -0.43936460519E+02  0.45060144244E+02  0.51100000000E-03 0. -1.
<mgrwt>
<rscale>  0 0.20000477E+02</rscale>
<asrwt>0</asrwt>
<pdfrwt beam="2">  1        3 0.13654754E-01 0.20000477E+02</pdfrwt>
<pdfrwt beam="1">  1       -3 0.17334452E-03 0.20000477E+02</pdfrwt>
<totfact> 0.14537684E+06</totfact>
</mgrwt>
</event>
<event>
 4    1  0.4133473E-007  0.2001530E+02  0.7818608E-02  0.1745024E+00
          3   -1    0    0  501    0  0.00000000000E+00  0.00000000000E+00  0.64362281878E+01  0.64369000525E+01  0.93000000000E-01 0.  1.
         -3   -1    0    0    0  501 -0.00000000000E+00 -0.00000000000E+00 -0.15559211270E+02  0.15559489206E+02  0.93000000000E-01 0. -1.
        -11    1    1    2    0    0  0.99848295159E+01 -0.67490362866E+00 -0.45311073697E+01  0.10985592821E+02  0.51100000000E-03 0.  1.
         11    1    1    2    0    0 -0.99848295159E+01  0.67490362866E+00 -0.45918757128E+01  0.11010796438E+02  0.51100000000E-03 0. -1.
<mgrwt>
<rscale>  0 0.20015302E+02</rscale>
<asrwt>0</asrwt>
<pdfrwt beam="1">  1        3 0.99026202E-03 0.20015302E+02</pdfrwt>
<pdfrwt beam="2">  1       -3 0.23937979E-02 0.20015302E+02</pdfrwt>
<totfact> 0.17727228E+06</totfact>
</mgrwt>
</event>
<event>
 5    1  0.4308647E-007  0.2000248E+02  0.7818608E-02  0.1745279E+00
         -3   -1    0    0    0  501 -0.00000000000E+00  0.00000000000E+00  0.17416086340E+02  0.17416334643E+02  0.93000000000E-01 0. -1.
          3   -1    0    0  501    0  0.00000000000E+00 -0.00000000000E+00 -0.57425769351E+01  0.57433299449E+01  0.93000000000E-01 0.  1.
       1023    2    1    2    0    0  0.00000000000E+00  0.00000000000E+00  0.11673509405E+02  0.23159664588E+02  0.20002480896E+02 0.  0.
        -11    1    3    3    0    0 -0.64043424837E+00  0.99794845947E+01  0.60181384561E+01  0.11671257839E+02  0.51100000000E-03 0. -1.
         11    1    3    3    0    0  0.64043424837E+00 -0.99794845947E+01  0.56553709485E+01  0.11488406749E+02  0.51100000000E-03 0.  1.
<mgrwt>
<rscale>  0 0.20002481E+02</rscale>
<asrwt>0</asrwt>
<pdfrwt beam="2">  1        3 0.88355040E-03 0.20002481E+02</pdfrwt>
<pdfrwt beam="1">  1       -3 0.26794749E-02 0.20002481E+02</pdfrwt>
<totfact> 0.17677869E+06</totfact>
</mgrwt>
</event>
<event>
 5    1  0.4142685E-007  0.2000063E+02  0.7818608E-02  0.1745316E+00
         -3   -1    0    0    0  501 -0.00000000000E+00  0.00000000000E+00  0.77159636020E+01  0.77165240431E+01  0.93000000000E-01 0.  1.
          3   -1    0    0  501    0  0.00000000000E+00 -0.00000000000E+00 -0.12959764279E+02  0.12960097961E+02  0.93000000000E-01 0. -1.
       1023    2    1    2    0    0  0.00000000000E+00  0.00000000000E+00 -0.52438006766E+01  0.20676622004E+02  0.20000631289E+02 0.  0.
        -11    1    3    3    0    0 -0.95109684019E+01  0.30895796534E+01 -0.26713754780E+01  0.10350858398E+02  0.51100000000E-03 0. -1.
         11    1    3    3    0    0  0.95109684019E+01 -0.30895796534E+01 -0.25724251986E+01  0.10325763606E+02  0.51100000000E-03 0.  1.
<mgrwt>
<rscale>  0 0.20000631E+02</rscale>
<asrwt>0</asrwt>
<pdfrwt beam="2">  1        3 0.19938787E-02 0.20000631E+02</pdfrwt>
<pdfrwt beam="1">  1       -3 0.11871401E-02 0.20000631E+02</pdfrwt>
<totfact> 0.17839993E+06</totfact>
</mgrwt>
</event>
<event>
 5    1  0.4133473E-007  0.2000028E+02  0.7818608E-02  0.1745323E+00
          3   -1    0    0  501    0  0.00000000000E+00  0.00000000000E+00  0.55509527258E+02  0.55509605163E+02  0.93000000000E-01 0. -1.
         -3   -1    0    0    0  501 -0.00000000000E+00 -0.00000000000E+00 -0.18002631641E+01  0.18026637124E+01  0.93000000000E-01 0.  1.
       1023    2    1    2    0    0  0.00000000000E+00  0.00000000000E+00  0.53709264094E+02  0.57312268876E+02  0.20000277853E+02 0.  0.
        -11    1    3    3    0    0 -0.27030832469E+01  0.96278711731E+01  0.26896739595E+02  0.28695594844E+02  0.51100000000E-03 0.  1.
         11    1    3    3    0    0  0.27030832469E+01 -0.96278711731E+01  0.26812524498E+02  0.28616674031E+02  0.51100000000E-03 0. -1.
<mgrwt>
<rscale>  0 0.20000278E+02</rscale>
<asrwt>0</asrwt>
<pdfrwt beam="1">  1        3 0.85401188E-02 0.20000278E+02</pdfrwt>
<pdfrwt beam="2">  1       -3 0.27715419E-03 0.20000278E+02</pdfrwt>
<totfact> 0.15864182E+06</totfact>
</mgrwt>
</event>
<event>
 5    1  0.4133473E-007  0.2000045E+02  0.7818608E-02  0.1745319E+00
         -3   -1    0    0    0  501 -0.00000000000E+00  0.00000000000E+00  0.13427297921E+01  0.13459466166E+01  0.93000000000E-01 0.  1.
          3   -1    0    0  501    0  0.00000000000E+00 -0.00000000000E+00 -0.74386132403E+02  0.74386190539E+02  0.93000000000E-01 0. -1.
       1023    2    1    2    0    0  0.00000000000E+00  0.00000000000E+00 -0.73043402611E+02  0.75732137155E+02  0.20000448324E+02 0.  0.
        -11    1    3    3    0    0 -0.14506345888E+01 -0.98944485659E+01 -0.36500998739E+02  0.37846101019E+02  0.51100000000E-03 0.  1.
         11    1    3    3    0    0  0.14506345888E+01  0.98944485659E+01 -0.36542403871E+02  0.37886036136E+02  0.51100000000E-03 0. -1.
<mgrwt>
<rscale>  0 0.20000448E+02</rscale>
<asrwt>0</asrwt>
<pdfrwt beam="2">  1        3 0.11444269E-01 0.20000448E+02</pdfrwt>
<pdfrwt beam="1">  1       -3 0.20682579E-03 0.20000448E+02</pdfrwt>
<totfact> 0.15078855E+06</totfact>
</mgrwt>
</event>
<event>
 5    1  0.4240355E-007  0.2000117E+02  0.7818608E-02  0.1745305E+00
          3   -1    0    0  501    0  0.00000000000E+00  0.00000000000E+00  0.26435287650E+01  0.26451641407E+01  0.93000000000E-01 0.  1.
         -3   -1    0    0    0  501 -0.00000000000E+00 -0.00000000000E+00 -0.37819274658E+02  0.37819389004E+02  0.93000000000E-01 0. -1.
       1023    2    1    2    0    0  0.00000000000E+00  0.00000000000E+00 -0.35175745893E+02  0.40464553145E+02  0.20001174018E+02 0.  0.
        -11    1    3    3    0    0 -0.69307578194E+01 -0.72093000709E+01 -0.17490242469E+02  0.20147406616E+02  0.51100000000E-03 0.  1.
         11    1    3    3    0    0  0.69307578194E+01  0.72093000709E+01 -0.17685503424E+02  0.20317146529E+02  0.51100000000E-03 0. -1.
<mgrwt>
<rscale>  0 0.20001174E+02</rscale>
<asrwt>0</asrwt>
<pdfrwt beam="1">  1        3 0.40683135E-03 0.20001174E+02</pdfrwt>
<pdfrwt beam="2">  1       -3 0.58184842E-02 0.20001174E+02</pdfrwt>
<totfact> 0.16687524E+06</totfact>
</mgrwt>
</event>
<event>
 5    1  0.4184587E-007  0.2000085E+02  0.7818608E-02  0.1745311E+00
         -3   -1    0    0    0  501 -0.00000000000E+00  0.00000000000E+00  0.20577644711E+02  0.20577854865E+02  0.93000000000E-01 0.  1.
          3   -1    0    0  501    0  0.00000000000E+00 -0.00000000000E+00 -0.48593779079E+01  0.48602677552E+01  0.93000000000E-01 0. -1.
       1023    2    1    2    0    0  0.00000000000E+00  0.00000000000E+00  0.15718266803E+02  0.25438122621E+02  0.20000854261E+02 0.  0.
        -11    1    3    3    0    0 -0.32446250813E+01  0.94592831027E+01  0.79277874273E+01  0.12761482770E+02  0.51100000000E-03 0. -1.
         11    1    3    3    0    0  0.32446250813E+01 -0.94592831027E+01  0.77904793761E+01  0.12676639851E+02  0.51100000000E-03 0.  1.
<mgrwt>
<rscale>  0 0.20000854E+02</rscale>
<asrwt>0</asrwt>
<pdfrwt beam="2">  1        3 0.74768121E-03 0.20000854E+02</pdfrwt>
<pdfrwt beam="1">  1       -3 0.31658761E-02 0.20000854E+02</pdfrwt>
<totfact> 0.17539244E+06</totfact>
</mgrwt>
</event>
<event>
 5    1  0.4133473E-007  0.2001183E+02  0.7818608E-02  0.1745093E+00
          3   -1    0    0  501    0  0.00000000000E+00  0.00000000000E+00  0.90952058523E+01  0.90956813102E+01  0.93000000000E-01 0.  1.
         -3   -1    0    0    0  501 -0.00000000000E+00 -0.00000000000E+00 -0.11006849640E+02  0.11007242525E+02  0.93000000000E-01 0. -1.
       1023    2    1    2    0    0  0.00000000000E+00  0.00000000000E+00 -0.19116437875E+01  0.20102923835E+02  0.20011825622E+02 0.  0.
        -11    1    3    3    0    0  0.45097332105E+01 -0.89306617878E+01 -0.80059557613E+00  0.10036701009E+02  0.51100000000E-03 0. -1.
         11    1    3    3    0    0 -0.45097332105E+01  0.89306617878E+01 -0.11110482114E+01  0.10066222826E+02  0.51100000000E-03 0.  1.
<mgrwt>
<rscale>  0 0.20011826E+02</rscale>
<asrwt>0</asrwt>
<pdfrwt beam="1">  1        3 0.13993292E-02 0.20011826E+02</pdfrwt>
<pdfrwt beam="2">  1       -3 0.16934283E-02 0.20011826E+02</pdfrwt>
<totfact> 0.17856254E+06</totfact>
</mgrwt>
</event>
<event>
 5    1  0.4133473E-007  0.2000040E+02  0.7818608E-02  0.1745320E+00
          3   -1    0    0  501    0  0.00000000000E+00  0.00000000000E+00  0.20571258809E+02  0.20571469029E+02  0.93000000000E-01 0. -1.
         -3   -1    0    0    0  501 -0.00000000000E+00 -0.00000000000E+00 -0.48606636254E+01  0.48615532373E+01  0.93000000000E-01 0.  1.
       1023    2    1    2    0    0  0.00000000000E+00  0.00000000000E+00  0.15710595184E+02  0.25433022266E+02  0.20000395510E+02 0.  0.
        -11    1    3    3    0    0  0.37144523756E+01 -0.92847307824E+01  0.78248654614E+01  0.12697712467E+02  0.51100000000E-03 0. -1.
         11    1    3    3    0    0 -0.37144523756E+01  0.92847307824E+01  0.78857297224E+01  0.12735309799E+02  0.51100000000E-03 0.  1.
<mgrwt>
<rscale>  0 0.20000396E+02</rscale>
<asrwt>0</asrwt>
<pdfrwt beam="1">  1        3 0.31648936E-02 0.20000396E+02</pdfrwt>
<pdfrwt beam="2">  1       -3 0.74787901E-03 0.20000396E+02</pdfrwt>
<totfact> 0.17539152E+06</totfact>
</mgrwt>
</event>
<event>
 5    1  0.4133473E-007  0.2000090E+02  0.7818608E-02  0.1745310E+00
          3   -1    0    0  501    0  0.00000000000E+00  0.00000000000E+00  0.10660176604E+01  0.10700666579E+01  0.93000000000E-01 0. -1.
         -3   -1    0    0    0  501 -0.00000000000E+00 -0.00000000000E+00 -0.93633644500E+02  0.93633690686E+02  0.93000000000E-01 0.  1.
       1023    2    1    2    0    0  0.00000000000E+00  0.00000000000E+00 -0.92567626840E+02  0.94703757344E+02  0.20000902885E+02 0.  0.
        -11    1    3    3    0    0 -0.88613903434E+01  0.46345088260E+01 -0.46654169395E+02  0.47713880927E+02  0.51100000000E-03 0. -1.
         11    1    3    3    0    0  0.88613903434E+01 -0.46345088260E+01 -0.45913457445E+02  0.46989876417E+02  0.51100000000E-03 0.  1.
<mgrwt>
<rscale>  0 0.20000903E+02</rscale>
<asrwt>0</asrwt>
<pdfrwt beam="1">  1        3 0.16431780E-03 0.20000903E+02</pdfrwt>
<pdfrwt beam="2">  1       -3 0.14405485E-01 0.20000903E+02</pdfrwt>
<totfact> 0.14365583E+06</totfact>
</mgrwt>
</event>
<event>
 5    1  0.4133473E-007  0.2000295E+02  0.7818608E-02  0.1745270E+00
         -3   -1    0    0    0  501 -0.00000000000E+00  0.00000000000E+00  0.14743299415E+02  0.14743592732E+02  0.93000000000E-01 0.  1.
          3   -1    0    0  501    0  0.00000000000E+00 -0.00000000000E+00 -0.67840607281E+01  0.67846981482E+01  0.93000000000E-01 0. -1.
       1023    2    1    2    0    0  0.00000000000E+00  0.00000000000E+00  0.79592386866E+01  0.21528290880E+02  0.20002945476E+02 0.  0.
        -11    1    3    3    0    0  0.12239490151E+01  0.99262172886E+01  0.39363567863E+01  0.10748150811E+02  0.51100000000E-03 0.  1.
         11    1    3    3    0    0 -0.12239490151E+01 -0.99262172886E+01  0.40228819003E+01  0.10780140069E+02  0.51100000000E-03 0. -1.
<mgrwt>
<rscale>  0 0.20002945E+02</rscale>
<asrwt>0</asrwt>
<pdfrwt beam="2">  1        3 0.10437733E-02 0.20002945E+02</pdfrwt>
<pdfrwt beam="1">  1       -3 0.22682715E-02 0.20002945E+02</pdfrwt>
<totfact> 0.17780839E+06</totfact>
</mgrwt>
</event>
<event>
 4    1  0.4133473E-007  0.2007554E+02  0.7818608E-02  0.1743830E+00
          3   -1    0    0  501    0  0.00000000000E+00  0.00000000000E+00  0.93397766217E+01  0.93402396299E+01  0.93000000000E-01 0.  1.
         -3   -1    0    0    0  501 -0.00000000000E+00 -0.00000000000E+00 -0.10786993037E+02  0.10787393929E+02  0.93000000000E-01 0. -1.
        -11    1    1    2    0    0  0.37265094097E+01  0.93054097654E+01 -0.12534450861E+01  0.10101913092E+02  0.51100000000E-03 0. -1.
         11    1    1    2    0    0 -0.37265094097E+01 -0.93054097654E+01 -0.19377132928E+00  0.10025720466E+02  0.51100000000E-03 0.  1.
<mgrwt>
<rscale>  0 0.20075537E+02</rscale>
<asrwt>0</asrwt>
<pdfrwt beam="1">  1        3 0.14369552E-02 0.20075537E+02</pdfrwt>
<pdfrwt beam="2">  1       -3 0.16596038E-02 0.20075537E+02</pdfrwt>
<totfact> 0.17732655E+06</totfact>
</mgrwt>
</event>
<event>
 5    1  0.4133473E-007  0.2000071E+02  0.7818608E-02  0.1745314E+00
          3   -1    0    0  501    0  0.00000000000E+00  0.00000000000E+00  0.17102235553E+01  0.17127503055E+01  0.93000000000E-01 0. -1.
         -3   -1    0    0    0  501 -0.00000000000E+00 -0.00000000000E+00 -0.58430310814E+02  0.58430384825E+02  0.93000000000E-01 0.  1.
       1023    2    1    2    0    0  0.00000000000E+00  0.00000000000E+00 -0.56720087258E+02  0.60143135130E+02  0.20000710105E+02 0.  0.
        -11    1    3    3    0    0  0.99992576492E+01 -0.12527632306E+00 -0.28122254144E+02  0.29847311874E+02  0.51100000000E-03 0. -1.
         11    1    3    3    0    0 -0.99992576492E+01  0.12527632306E+00 -0.28597833114E+02  0.30295823257E+02  0.51100000000E-03 0.  1.
<mgrwt>
<rscale>  0 0.20000710E+02</rscale>
<asrwt>0</asrwt>
<pdfrwt beam="1">  1        3 0.26331142E-03 0.20000710E+02</pdfrwt>
<pdfrwt beam="2">  1       -3 0.89894771E-02 0.20000710E+02</pdfrwt>
<totfact> 0.15738816E+06</totfact>
</mgrwt>
</event>
<event>
 5    1  0.4461057E-007  0.2000169E+02  0.7818608E-02  0.1745294E+00
          3   -1    0    0  501    0  0.00000000000E+00  0.00000000000E+00  0.12428333795E+02  0.12428681745E+02  0.93000000000E-01 0.  1.
         -3   -1    0    0    0  501 -0.00000000000E+00 -0.00000000000E+00 -0.80467650424E+01  0.80473024454E+01  0.93000000000E-01 0. -1.
       1023    2    1    2    0    0  0.00000000000E+00  0.00000000000E+00  0.43815687525E+01  0.20475984190E+02  0.20001694524E+02 0.  0.
        -11    1    3    3    0    0  0.99169706122E+01 -0.12902033394E+01  0.21113894435E+01  0.10221002711E+02  0.51100000000E-03 0.  1.
         11    1    3    3    0    0 -0.99169706122E+01  0.12902033394E+01  0.22701793090E+01  0.10254981479E+02  0.51100000000E-03 0. -1.
<mgrwt>
<rscale>  0 0.20001695E+02</rscale>
<asrwt>0</asrwt>
<pdfrwt beam="1">  1        3 0.19121194E-02 0.20001695E+02</pdfrwt>
<pdfrwt beam="2">  1       -3 0.12380320E-02 0.20001695E+02</pdfrwt>
<totfact> 0.17851036E+06</totfact>
</mgrwt>
</event>
<event>
 5    1  0.4321567E-007  0.2000131E+02  0.7818608E-02  0.1745302E+00
         -3   -1    0    0    0  501 -0.00000000000E+00  0.00000000000E+00  0.68503965055E+01  0.68510277537E+01  0.93000000000E-01 0.  1.
          3   -1    0    0  501    0  0.00000000000E+00 -0.00000000000E+00 -0.14598158028E+02  0.14598454261E+02  0.93000000000E-01 0. -1.
       1023    2    1    2    0    0  0.00000000000E+00  0.00000000000E+00 -0.77477615221E+01  0.21449482014E+02  0.20001311709E+02 0.  0.
        -11    1    3    3    0    0 -0.65799851265E+01 -0.75310596228E+01 -0.38817577459E+01  0.10727586251E+02  0.51100000000E-03 0. -1.
         11    1    3    3    0    0  0.65799851265E+01  0.75310596228E+01 -0.38660037762E+01  0.10721895764E+02  0.51100000000E-03 0.  1.
<mgrwt>
<rscale>  0 0.20001312E+02</rscale>
<asrwt>0</asrwt>
<pdfrwt beam="2">  1        3 0.22459418E-02 0.20001312E+02</pdfrwt>
<pdfrwt beam="1">  1       -3 0.10539785E-02 0.20001312E+02</pdfrwt>
<totfact> 0.17788373E+06</totfact>
</mgrwt>
</event>
<event>
 5    1  0.4133473E-007  0.2000052E+02  0.7818608E-02  0.1745318E+00
          3   -1    0    0  501    0  0.00000000000E+00  0.00000000000E+00  0.73354214632E+01  0.73360109762E+01  0.93000000000E-01 0.  1.
         -3   -1    0    0    0  501 -0.00000000000E+00 -0.00000000000E+00 -0.13631891866E+02  0.13632209097E+02  0.93000000000E-01 0. -1.
       1023    2    1    2    0    0  0.00000000000E+00  0.00000000000E+00 -0.62964704031E+01  0.20968220073E+02  0.20000517830E+02 0.  0.
        -11    1    3    3    0    0  0.87289377502E+01  0.48795243307E+01 -0.31824672913E+01  0.10494389466E+02  0.51100000000E-03 0.  1.
         11    1    3    3    0    0 -0.87289377502E+01 -0.48795243307E+01 -0.31140031118E+01  0.10473830607E+02  0.51100000000E-03 0. -1.
<mgrwt>
<rscale>  0 0.20000518E+02</rscale>
<asrwt>0</asrwt>
<pdfrwt beam="1">  1        3 0.11285961E-02 0.20000518E+02</pdfrwt>
<pdfrwt beam="2">  1       -3 0.20972839E-02 0.20000518E+02</pdfrwt>
<totfact> 0.17821699E+06</totfact>
</mgrwt>
</event>
<event>
 5    1  0.4195912E-007  0.2000165E+02  0.7818608E-02  0.1745295E+00
          3   -1    0    0  501    0  0.00000000000E+00  0.00000000000E+00  0.54685579856E+02  0.54685658936E+02  0.93000000000E-01 0. -1.
         -3   -1    0    0    0  501 -0.00000000000E+00 -0.00000000000E+00 -0.18276746800E+01  0.18300392717E+01  0.93000000000E-01 0.  1.
       1023    2    1    2    0    0  0.00000000000E+00  0.00000000000E+00  0.52857905176E+02  0.56515698207E+02  0.20001650038E+02 0.  0.
        -11    1    3    3    0    0  0.82216284477E+01  0.56938200015E+01  0.26311080842E+02  0.28147606219E+02  0.51100000000E-03 0. -1.
         11    1    3    3    0    0 -0.82216284477E+01 -0.56938200015E+01  0.26546824335E+02  0.28368091988E+02  0.51100000000E-03 0.  1.
<mgrwt>
<rscale>  0 0.20001650E+02</rscale>
<asrwt>0</asrwt>
<pdfrwt beam="1">  1        3 0.84133546E-02 0.20001650E+02</pdfrwt>
<pdfrwt beam="2">  1       -3 0.28136868E-03 0.20001650E+02</pdfrwt>
<totfact> 0.15898178E+06</totfact>
</mgrwt>
</event>
<event>
 5    1  0.4133473E-007  0.2000761E+02  0.7818608E-02  0.1745177E+00
          3   -1    0    0  501    0  0.00000000000E+00  0.00000000000E+00  0.22087343960E+01  0.22106914376E+01  0.93000000000E-01 0. -1.
         -3   -1    0    0    0  501 -0.00000000000E+00 -0.00000000000E+00 -0.45287207705E+02  0.45287303196E+02  0.93000000000E-01 0.  1.
       1023    2    1    2    0    0  0.00000000000E+00  0.00000000000E+00 -0.43078473309E+02  0.47497994633E+02  0.20007614339E+02 0.  0.
        -11    1    3    3    0    0 -0.90639411721E+01  0.42324104493E+01 -0.21749302914E+02  0.23939517650E+02  0.51100000000E-03 0.  1.
         11    1    3    3    0    0  0.90639411721E+01 -0.42324104493E+01 -0.21329170395E+02  0.23558476983E+02  0.51100000000E-03 0. -1.
<mgrwt>
<rscale>  0 0.20007614E+02</rscale>
<asrwt>0</asrwt>
<pdfrwt beam="1">  1        3 0.33996321E-03 0.20007614E+02</pdfrwt>
<pdfrwt beam="2">  1       -3 0.69674199E-02 0.20007614E+02</pdfrwt>
<totfact> 0.16318444E+06</totfact>
</mgrwt>
</event>
<event>
 5    1  0.4133473E-007  0.2000079E+02  0.7818608E-02  0.1745312E+00
         -3   -1    0    0    0  501 -0.00000000000E+00  0.00000000000E+00  0.40351070265E+01  0.40361786030E+01  0.93000000000E-01 0. -1.
          3   -1    0    0  501    0  0.00000000000E+00 -0.00000000000E+00 -0.24779990899E+02  0.24780165414E+02  0.93000000000E-01 0.  1.
       1023    2    1    2    0    0  0.00000000000E+00  0.00000000000E+00 -0.20744883873E+02  0.28816344017E+02  0.20000786875E+02 0.  0.
        -11    1    3    3    0    0 -0.61683992414E+01 -0.78710028576E+01 -0.10260530339E+02  0.14327606859E+02  0.51100000000E-03 0.  1.
         11    1    3    3    0    0  0.61683992414E+01  0.78710028576E+01 -0.10484353533E+02  0.14488737159E+02  0.51100000000E-03 0. -1.
<mgrwt>
<rscale>  0 0.20000787E+02</rscale>
<asrwt>0</asrwt>
<pdfrwt beam="2">  1        3 0.38124020E-02 0.20000787E+02</pdfrwt>
<pdfrwt beam="1">  1       -3 0.62088157E-03 0.20000787E+02</pdfrwt>
<totfact> 0.17334454E+06</totfact>
</mgrwt>
</event>
<event>
 5    1  0.4158164E-007  0.2000057E+02  0.7818608E-02  0.1745317E+00
         -3   -1    0    0    0  501 -0.00000000000E+00  0.00000000000E+00  0.21258890764E+01  0.21279223118E+01  0.93000000000E-01 0.  1.
          3   -1    0    0  501    0  0.00000000000E+00 -0.00000000000E+00 -0.47017260868E+02  0.47017352844E+02  0.93000000000E-01 0. -1.
       1023    2    1    2    0    0  0.00000000000E+00  0.00000000000E+00 -0.44891371791E+02  0.49145275156E+02  0.20000570214E+02 0.  0.
        -11    1    3    3    0    0  0.83654979159E+01 -0.54794293816E+01 -0.22446861140E+02  0.24573711096E+02  0.51100000000E-03 0.  1.
         11    1    3    3    0    0 -0.83654979159E+01  0.54794293816E+01 -0.22444510651E+02  0.24571564060E+02  0.51100000000E-03 0. -1.
<mgrwt>
<rscale>  0 0.20000570E+02</rscale>
<asrwt>0</asrwt>
<pdfrwt beam="2">  1        3 0.72335874E-02 0.20000570E+02</pdfrwt>
<pdfrwt beam="1">  1       -3 0.32722337E-03 0.20000570E+02</pdfrwt>
<totfact> 0.16247612E+06</totfact>
</mgrwt>
</event>
<event>
 5    1  0.4133473E-007  0.2000583E+02  0.7818608E-02  0.1745212E+00
          3   -1    0    0  501    0  0.00000000000E+00  0.00000000000E+00  0.21987986958E+02  0.21988183632E+02  0.93000000000E-01 0.  1.
         -3   -1    0    0    0  501 -0.00000000000E+00 -0.00000000000E+00 -0.45498979662E+01  0.45508483278E+01  0.93000000000E-01 0. -1.
       1023    2    1    2    0    0  0.00000000000E+00  0.00000000000E+00  0.17438088991E+02  0.26539031960E+02  0.20005830893E+02 0.  0.
        -11    1    3    3    0    0  0.11621182758E+01  0.99344278578E+01  0.88811972692E+01  0.13376062236E+02  0.51100000000E-03 0. -1.
         11    1    3    3    0    0 -0.11621182758E+01 -0.99344278578E+01  0.85568917222E+01  0.13162969724E+02  0.51100000000E-03 0.  1.
<mgrwt>
<rscale>  0 0.20005831E+02</rscale>
<asrwt>0</asrwt>
<pdfrwt beam="1">  1        3 0.33828555E-02 0.20005831E+02</pdfrwt>
<pdfrwt beam="2">  1       -3 0.70007253E-03 0.20005831E+02</pdfrwt>
<totfact> 0.17461374E+06</totfact>
</mgrwt>
</event>
<event>
 5    1  0.4299132E-007  0.2000091E+02  0.7818608E-02  0.1745310E+00
          3   -1    0    0  501    0  0.00000000000E+00  0.00000000000E+00  0.21267654092E+02  0.21267857428E+02  0.93000000000E-01 0. -1.
         -3   -1    0    0    0  501 -0.00000000000E+00 -0.00000000000E+00 -0.47017194270E+01  0.47026391069E+01  0.93000000000E-01 0.  1.
       1023    2    1    2    0    0  0.00000000000E+00  0.00000000000E+00  0.16565934665E+02  0.25970496535E+02  0.20000912453E+02 0.  0.
        -11    1    3    3    0    0  0.24328663469E+01  0.96999138798E+01  0.82255325805E+01  0.12948612066E+02  0.51100000000E-03 0.  1.
         11    1    3    3    0    0 -0.24328663469E+01 -0.96999138798E+01  0.83404020848E+01  0.13021884469E+02  0.51100000000E-03 0. -1.
<mgrwt>
<rscale>  0 0.20000912E+02</rscale>
<asrwt>0</asrwt>
<pdfrwt beam="1">  1        3 0.32720332E-02 0.20000912E+02</pdfrwt>
<pdfrwt beam="2">  1       -3 0.72342784E-03 0.20000912E+02</pdfrwt>
<totfact> 0.17505229E+06</totfact>
</mgrwt>
</event>
<event>
 5    1  0.4133473E-007  0.2000248E+02  0.7818608E-02  0.1745279E+00
          3   -1    0    0  501    0  0.00000000000E+00  0.00000000000E+00  0.65685196185E+02  0.65685262022E+02  0.93000000000E-01 0. -1.
         -3   -1    0    0    0  501 -0.00000000000E+00 -0.00000000000E+00 -0.15213038790E+01  0.15241438555E+01  0.93000000000E-01 0.  1.
       1023    2    1    2    0    0  0.00000000000E+00  0.00000000000E+00  0.64163892306E+02  0.67209405877E+02  0.20002478909E+02 0.  0.
        -11    1    3    3    0    0  0.15791337799E+01 -0.98748065288E+01  0.31614875796E+02  0.33158797314E+02  0.51100000000E-03 0.  1.
         11    1    3    3    0    0 -0.15791337799E+01  0.98748065288E+01  0.32549016510E+02  0.34050608563E+02  0.51100000000E-03 0. -1.
<mgrwt>
<rscale>  0 0.20002479E+02</rscale>
<asrwt>0</asrwt>
<pdfrwt beam="1">  1        3 0.10105636E-01 0.20002479E+02</pdfrwt>
<pdfrwt beam="2">  1       -3 0.23427032E-03 0.20002479E+02</pdfrwt>
<totfact> 0.15426021E+06</totfact>
</mgrwt>
</event>
<event>
 5    1  0.4133473E-007  0.2000030E+02  0.7818608E-02  0.1745322E+00
          3   -1    0    0  501    0  0.00000000000E+00  0.00000000000E+00  0.27395210394E+02  0.27395368249E+02  0.93000000000E-01 0. -1.
         -3   -1    0    0    0  501 -0.00000000000E+00 -0.00000000000E+00 -0.36496204619E+01  0.36508051874E+01  0.93000000000E-01 0.  1.
       1023    2    1    2    0    0  0.00000000000E+00  0.00000000000E+00  0.23745589932E+02  0.31046173437E+02  0.20000296094E+02 0.  0.
        -11    1    3    3    0    0  0.80215753879E+01 -0.59712854222E+01  0.11822749593E+02  0.15484809637E+02  0.51100000000E-03 0.  1.
         11    1    3    3    0    0 -0.80215753879E+01  0.59712854222E+01  0.11922840339E+02  0.15561363800E+02  0.51100000000E-03 0. -1.
<mgrwt>
<rscale>  0 0.20000296E+02</rscale>
<asrwt>0</asrwt>
<pdfrwt beam="1">  1        3 0.42147511E-02 0.20000296E+02</pdfrwt>
<pdfrwt beam="2">  1       -3 0.56158334E-03 0.20000296E+02</pdfrwt>
<totfact> 0.17205171E+06</totfact>
</mgrwt>
</event>
<event>
 5    1  0.4133473E-007  0.2000033E+02  0.7818608E-02  0.1745322E+00
         -3   -1    0    0    0  501 -0.00000000000E+00  0.00000000000E+00  0.12178666355E+01  0.12214123554E+01  0.93000000000E-01 0.  1.
          3   -1    0    0  501    0  0.00000000000E+00 -0.00000000000E+00 -0.81990572331E+02  0.81990625074E+02  0.93000000000E-01 0. -1.
       1023    2    1    2    0    0  0.00000000000E+00  0.00000000000E+00 -0.80772705695E+02  0.83212037430E+02  0.20000329695E+02 0.  0.
        -11    1    3    3    0    0 -0.66850490415E+01 -0.74372151474E+01 -0.40239439392E+02  0.41463411976E+02  0.51100000000E-03 0. -1.
         11    1    3    3    0    0  0.66850490415E+01  0.74372151474E+01 -0.40533266303E+02  0.41748625454E+02  0.51100000000E-03 0.  1.
<mgrwt>
<rscale>  0 0.20000330E+02</rscale>
<asrwt>0</asrwt>
<pdfrwt beam="2">  1        3 0.12614207E-01 0.20000330E+02</pdfrwt>
<pdfrwt beam="1">  1       -3 0.18764097E-03 0.20000330E+02</pdfrwt>
<totfact> 0.14787298E+06</totfact>
</mgrwt>
</event>
<event>
 5    1  0.4133473E-007  0.2000260E+02  0.7818608E-02  0.1745276E+00
          3   -1    0    0  501    0  0.00000000000E+00  0.00000000000E+00  0.15565296476E+02  0.15565574303E+02  0.93000000000E-01 0. -1.
         -3   -1    0    0    0  501 -0.00000000000E+00 -0.00000000000E+00 -0.64255495108E+01  0.64262224919E+01  0.93000000000E-01 0.  1.
       1023    2    1    2    0    0  0.00000000000E+00  0.00000000000E+00  0.91397469650E+01  0.21991796795E+02  0.20002603622E+02 0.  0.
        -11    1    3    3    0    0 -0.28973953048E+01  0.95720584793E+01  0.46607663730E+01  0.11033673302E+02  0.51100000000E-03 0. -1.
         11    1    3    3    0    0  0.28973953048E+01 -0.95720584793E+01  0.44789805919E+01  0.10958123493E+02  0.51100000000E-03 0.  1.
<mgrwt>
<rscale>  0 0.20002604E+02</rscale>
<asrwt>0</asrwt>
<pdfrwt beam="1">  1        3 0.23947341E-02 0.20002604E+02</pdfrwt>
<pdfrwt beam="2">  1       -3 0.98861923E-03 0.20002604E+02</pdfrwt>
<totfact> 0.17750995E+06</totfact>
</mgrwt>
</event>
<event>
 5    1  0.4133473E-007  0.2000053E+02  0.7818608E-02  0.1745318E+00
         -3   -1    0    0    0  501 -0.00000000000E+00  0.00000000000E+00  0.66606979045E+02  0.66607043970E+02  0.93000000000E-01 0.  1.
          3   -1    0    0  501    0  0.00000000000E+00 -0.00000000000E+00 -0.14999178463E+01  0.15027982385E+01  0.93000000000E-01 0. -1.
       1023    2    1    2    0    0  0.00000000000E+00  0.00000000000E+00  0.65107061198E+02  0.68109842209E+02  0.20000529688E+02 0.  0.
        -11    1    3    3    0    0  0.76446316578E+01  0.64470837973E+01  0.32540779964E+02  0.34042732611E+02  0.51100000000E-03 0.  1.
         11    1    3    3    0    0 -0.76446316578E+01 -0.64470837973E+01  0.32566281234E+02  0.34067109598E+02  0.51100000000E-03 0. -1.
<mgrwt>
<rscale>  0 0.20000530E+02</rscale>
<asrwt>0</asrwt>
<pdfrwt beam="2">  1        3 0.23098324E-03 0.20000530E+02</pdfrwt>
<pdfrwt beam="1">  1       -3 0.10247450E-01 0.20000530E+02</pdfrwt>
<totfact> 0.15394091E+06</totfact>
</mgrwt>
</event>
<event>
 5    1  0.4354387E-007  0.2000078E+02  0.7818608E-02  0.1745313E+00
         -3   -1    0    0    0  501 -0.00000000000E+00  0.00000000000E+00  0.10835452104E+02  0.10835851203E+02  0.93000000000E-01 0. -1.
          3   -1    0    0  501    0  0.00000000000E+00 -0.00000000000E+00 -0.92288794974E+01  0.92293480690E+01  0.93000000000E-01 0.  1.
       1023    2    1    2    0    0  0.00000000000E+00  0.00000000000E+00  0.16065726065E+01  0.20065199272E+02  0.20000778642E+02 0.  0.
        -11    1    3    3    0    0  0.20891837529E+01 -0.97795405674E+01  0.86417651108E+00  0.10037474970E+02  0.51100000000E-03 0.  1.
         11    1    3    3    0    0 -0.20891837529E+01  0.97795405674E+01  0.74239609541E+00  0.10027724302E+02  0.51100000000E-03 0. -1.
<mgrwt>
<rscale>  0 0.20000779E+02</rscale>
<asrwt>0</asrwt>
<pdfrwt beam="2">  1        3 0.14198944E-02 0.20000779E+02</pdfrwt>
<pdfrwt beam="1">  1       -3 0.16670594E-02 0.20000779E+02</pdfrwt>
<totfact> 0.17879960E+06</totfact>
</mgrwt>
</event>
<event>
 5    1  0.4251028E-007  0.2000149E+02  0.7818608E-02  0.1745298E+00
         -3   -1    0    0    0  501 -0.00000000000E+00  0.00000000000E+00  0.10286248223E+02  0.10286668630E+02  0.93000000000E-01 0. -1.
          3   -1    0    0  501    0  0.00000000000E+00 -0.00000000000E+00 -0.97223225757E+01  0.97227673666E+01  0.93000000000E-01 0.  1.
       1023    2    1    2    0    0  0.00000000000E+00  0.00000000000E+00  0.56392564692E+00  0.20009435996E+02  0.20001487864E+02 0.  0.
        -11    1    3    3    0    0  0.50526140577E+01  0.86300003892E+01  0.18672313275E+00  0.10002033859E+02  0.51100000000E-03 0. -1.
         11    1    3    3    0    0 -0.50526140577E+01 -0.86300003892E+01  0.37720251417E+00  0.10007402137E+02  0.51100000000E-03 0.  1.
<mgrwt>
<rscale>  0 0.20001488E+02</rscale>
<asrwt>0</asrwt>
<pdfrwt beam="2">  1        3 0.14958085E-02 0.20001488E+02</pdfrwt>
<pdfrwt beam="1">  1       -3 0.15825663E-02 0.20001488E+02</pdfrwt>
<totfact> 0.17882172E+06</totfact>
</mgrwt>
</event>
<event>
 5    1  0.4133473E-007  0.2000038E+02  0.7818608E-02  0.1745321E+00
          3   -1    0    0  501    0  0.00000000000E+00  0.00000000000E+00  0.31756626345E+02  0.31756762521E+02  0.93000000000E-01 0.  1.
         -3   -1    0    0    0  501 -0.00000000000E+00 -0.00000000000E+00 -0.31482381148E+01  0.31496114407E+01  0.93000000000E-01 0. -1.
       1023    2    1    2    0    0  0.00000000000E+00  0.00000000000E+00  0.28608388231E+02  0.34906373962E+02  0.20000376647E+02 0.  0.
        -11    1    3    3    0    0  0.30685655989E+01  0.95177502399E+01  0.14286586385E+02  0.17438756127E+02  0.51100000000E-03 0. -1.
         11    1    3    3    0    0 -0.30685655989E+01 -0.95177502399E+01  0.14321801845E+02  0.17467617835E+02  0.51100000000E-03 0.  1.
<mgrwt>
<rscale>  0 0.20000377E+02</rscale>
<asrwt>0</asrwt>
<pdfrwt beam="1">  1        3 0.48857507E-02 0.20000377E+02</pdfrwt>
<pdfrwt beam="2">  1       -3 0.48446046E-03 0.20000377E+02</pdfrwt>
<totfact> 0.16986549E+06</totfact>
</mgrwt>
</event>
<event>
 5    1  0.4133473E-007  0.2000304E+02  0.7818608E-02  0.1745268E+00
         -3   -1    0    0    0  501 -0.00000000000E+00  0.00000000000E+00  0.44656333309E+02  0.44656430148E+02  0.93000000000E-01 0.  1.
          3   -1    0    0  501    0  0.00000000000E+00 -0.00000000000E+00 -0.22389402186E+01  0.22408708804E+01  0.93000000000E-01 0. -1.
       1023    2    1    2    0    0  0.00000000000E+00  0.00000000000E+00  0.42417393090E+02  0.46897301029E+02  0.20003039949E+02 0.  0.
        -11    1    3    3    0    0 -0.29606294798E+01 -0.95526544147E+01  0.21464110892E+02  0.23679666170E+02  0.51100000000E-03 0. -1.
         11    1    3    3    0    0  0.29606294798E+01  0.95526544147E+01  0.20953282198E+02  0.23217634859E+02  0.51100000000E-03 0.  1.
<mgrwt>
<rscale>  0 0.20003040E+02</rscale>
<asrwt>0</asrwt>
<pdfrwt beam="2">  1        3 0.34460832E-03 0.20003040E+02</pdfrwt>
<pdfrwt beam="1">  1       -3 0.68703608E-02 0.20003040E+02</pdfrwt>
<totfact> 0.16356152E+06</totfact>
</mgrwt>
</event>
<event>
 5    1  0.4133473E-007  0.2000112E+02  0.7818608E-02  0.1745306E+00
          3   -1    0    0  501    0  0.00000000000E+00  0.00000000000E+00  0.14080726175E+01  0.14111404948E+01  0.93000000000E-01 0. -1.
         -3   -1    0    0    0  501 -0.00000000000E+00 -0.00000000000E+00 -0.70946595005E+02  0.70946655959E+02  0.93000000000E-01 0.  1.
       1023    2    1    2    0    0  0.00000000000E+00  0.00000000000E+00 -0.69538522387E+02  0.72357796454E+02  0.20001115265E+02 0.  0.
        -11    1    3    3    0    0  0.12254427327E+01  0.99250031136E+01 -0.34990975775E+02  0.36391974152E+02  0.51100000000E-03 0. -1.
         11    1    3    3    0    0 -0.12254427327E+01 -0.99250031136E+01 -0.34547546612E+02  0.35965822302E+02  0.51100000000E-03 0.  1.
<mgrwt>
<rscale>  0 0.20001115E+02</rscale>
<asrwt>0</asrwt>
<pdfrwt beam="1">  1        3 0.21686729E-03 0.20001115E+02</pdfrwt>
<pdfrwt beam="2">  1       -3 0.10915099E-01 0.20001115E+02</pdfrwt>
<totfact> 0.15216985E+06</totfact>
</mgrwt>
</event>
<event>
 5    1  0.4490196E-007  0.2000101E+02  0.7818608E-02  0.1745308E+00
         -3   -1    0    0    0  501 -0.00000000000E+00  0.00000000000E+00  0.63347879239E+02  0.63347947505E+02  0.93000000000E-01 0.  1.
          3   -1    0    0  501    0  0.00000000000E+00 -0.00000000000E+00 -0.15773050660E+01  0.15800443890E+01  0.93000000000E-01 0. -1.
       1023    2    1    2    0    0  0.00000000000E+00  0.00000000000E+00  0.61770574173E+02  0.64927991894E+02  0.20001007418E+02 0.  0.
        -11    1    3    3    0    0 -0.99974633181E+01  0.24462230336E+00  0.30985936086E+02  0.32559750433E+02  0.51100000000E-03 0.  1.
         11    1    3    3    0    0  0.99974633181E+01 -0.24462230336E+00  0.30784638087E+02  0.32368241461E+02  0.51100000000E-03 0. -1.
<mgrwt>
<rscale>  0 0.20001007E+02</rscale>
<asrwt>0</asrwt>
<pdfrwt beam="2">  1        3 0.24287827E-03 0.20001007E+02</pdfrwt>
<pdfrwt beam="1">  1       -3 0.97460442E-02 0.20001007E+02</pdfrwt>
<totfact> 0.15528709E+06</totfact>
</mgrwt>
</event>
<event>
 5    1  0.4177701E-007  0.2000164E+02  0.7818608E-02  0.1745295E+00
          3   -1    0    0  501    0  0.00000000000E+00  0.00000000000E+00  0.66884222545E+01  0.66890687883E+01  0.93000000000E-01 0. -1.
         -3   -1    0    0    0  501 -0.00000000000E+00 -0.00000000000E+00 -0.14952147199E+02  0.14952436419E+02  0.93000000000E-01 0.  1.
       1023    2    1    2    0    0  0.00000000000E+00  0.00000000000E+00 -0.82637249445E+01  0.21641505207E+02  0.20001639875E+02 0.  0.
        -11    1    3    3    0    0  0.62959052451E+01  0.77703220870E+01 -0.41409772765E+01  0.10824233056E+02  0.51100000000E-03 0.  1.
         11    1    3    3    0    0 -0.62959052451E+01 -0.77703220870E+01 -0.41227476680E+01  0.10817272151E+02  0.51100000000E-03 0. -1.
<mgrwt>
<rscale>  0 0.20001640E+02</rscale>
<asrwt>0</asrwt>
<pdfrwt beam="1">  1        3 0.10290600E-02 0.20001640E+02</pdfrwt>
<pdfrwt beam="2">  1       -3 0.23004023E-02 0.20001640E+02</pdfrwt>
<totfact> 0.17776062E+06</totfact>
</mgrwt>
</event>
<event>
 5    1  0.4133473E-007  0.2000015E+02  0.7818608E-02  0.1745325E+00
         -3   -1    0    0    0  501 -0.00000000000E+00  0.00000000000E+00  0.14027608524E+01  0.14058403213E+01  0.93000000000E-01 0.  1.
          3   -1    0    0  501    0  0.00000000000E+00 -0.00000000000E+00 -0.71207776040E+02  0.71207836771E+02  0.93000000000E-01 0. -1.
       1023    2    1    2    0    0  0.00000000000E+00  0.00000000000E+00 -0.69805015187E+02  0.72613677092E+02  0.20000148887E+02 0.  0.
        -11    1    3    3    0    0 -0.93145495963E+01  0.36386477652E+01 -0.35011237724E+02  0.36411363048E+02  0.51100000000E-03 0. -1.
         11    1    3    3    0    0  0.93145495963E+01 -0.36386477652E+01 -0.34793777463E+02  0.36202314044E+02  0.51100000000E-03 0.  1.
<mgrwt>
<rscale>  0 0.20000149E+02</rscale>
<asrwt>0</asrwt>
<pdfrwt beam="2">  1        3 0.10955281E-01 0.20000149E+02</pdfrwt>
<pdfrwt beam="1">  1       -3 0.21605097E-03 0.20000149E+02</pdfrwt>
<totfact> 0.15205224E+06</totfact>
</mgrwt>
</event>
<event>
 5    1  0.4150599E-007  0.2000113E+02  0.7818608E-02  0.1745306E+00
          3   -1    0    0  501    0  0.00000000000E+00  0.00000000000E+00  0.63997131205E+02  0.63997198778E+02  0.93000000000E-01 0. -1.
         -3   -1    0    0    0  501 -0.00000000000E+00 -0.00000000000E+00 -0.15612947103E+01  0.15640620744E+01  0.93000000000E-01 0.  1.
       1023    2    1    2    0    0  0.00000000000E+00  0.00000000000E+00  0.62435836495E+02  0.65561260853E+02  0.20001131113E+02 0.  0.
        -11    1    3    3    0    0  0.30473778352E+01 -0.95245104035E+01  0.31520143062E+02  0.33068447635E+02  0.51100000000E-03 0.  1.
         11    1    3    3    0    0 -0.30473778352E+01  0.95245104035E+01  0.30915693433E+02  0.32492813218E+02  0.51100000000E-03 0. -1.
<mgrwt>
<rscale>  0 0.20001131E+02</rscale>
<asrwt>0</asrwt>
<pdfrwt beam="1">  1        3 0.98459304E-02 0.20001131E+02</pdfrwt>
<pdfrwt beam="2">  1       -3 0.24041726E-03 0.20001131E+02</pdfrwt>
<totfact> 0.15498472E+06</totfact>
</mgrwt>
</event>
<event>
 5    1  0.4262350E-007  0.2000104E+02  0.7818608E-02  0.1745307E+00
         -3   -1    0    0    0  501 -0.00000000000E+00  0.00000000000E+00  0.43063511248E+02  0.43063611670E+02  0.93000000000E-01 0.  1.
          3   -1    0    0  501    0  0.00000000000E+00 -0.00000000000E+00 -0.23213596156E+01  0.23232217856E+01  0.93000000000E-01 0. -1.
       1023    2    1    2    0    0  0.00000000000E+00  0.00000000000E+00  0.40742151633E+02  0.45386833455E+02  0.20001043258E+02 0.  0.
        -11    1    3    3    0    0 -0.20314648399E+01  0.97918297109E+01  0.20233902956E+02  0.22570281513E+02  0.51100000000E-03 0. -1.
         11    1    3    3    0    0  0.20314648399E+01 -0.97918297109E+01  0.20508248677E+02  0.22816551943E+02  0.51100000000E-03 0.  1.
<mgrwt>
<rscale>  0 0.20001043E+02</rscale>
<asrwt>0</asrwt>
<pdfrwt beam="2">  1        3 0.35728326E-03 0.20001043E+02</pdfrwt>
<pdfrwt beam="1">  1       -3 0.66253057E-02 0.20001043E+02</pdfrwt>
<totfact> 0.16435036E+06</totfact>
</mgrwt>
</event>
<event>
 5    1  0.4133473E-007  0.2000051E+02  0.7818608E-02  0.1745318E+00
          3   -1    0    0  501    0  0.00000000000E+00  0.00000000000E+00  0.84879262431E+02  0.84879313380E+02  0.93000000000E-01 0.  1.
         -3   -1    0    0    0  501 -0.00000000000E+00 -0.00000000000E+00 -0.11763176555E+01  0.11799882316E+01  0.93000000000E-01 0. -1.
       1023    2    1    2    0    0  0.00000000000E+00  0.00000000000E+00  0.83702944775E+02  0.86059301611E+02  0.20000510737E+02 0.  0.
        -11    1    3    3    0    0  0.96838965696E+01  0.24954335586E+01  0.41886365129E+02  0.43063588162E+02  0.51100000000E-03 0.  1.
         11    1    3    3    0    0 -0.96838965696E+01 -0.24954335586E+01  0.41816579646E+02  0.42995713449E+02  0.51100000000E-03 0. -1.
<mgrwt>
<rscale>  0 0.20000511E+02</rscale>
<asrwt>0</asrwt>
<pdfrwt beam="1">  1        3 0.13058635E-01 0.20000511E+02</pdfrwt>
<pdfrwt beam="2">  1       -3 0.18125822E-03 0.20000511E+02</pdfrwt>
<totfact> 0.14679421E+06</totfact>
</mgrwt>
</event>
<event>
 5    1  0.4133473E-007  0.2000019E+02  0.7818608E-02  0.1745324E+00
          3   -1    0    0  501    0  0.00000000000E+00  0.00000000000E+00  0.93924866382E+01  0.93929470481E+01  0.93000000000E-01 0.  1.
         -3   -1    0    0    0  501 -0.00000000000E+00 -0.00000000000E+00 -0.10646081399E+02  0.10646487597E+02  0.93000000000E-01 0. -1.
       1023    2    1    2    0    0  0.00000000000E+00  0.00000000000E+00 -0.12535947609E+01  0.20039434645E+02  0.20000186026E+02 0.  0.
        -11    1    3    3    0    0 -0.71758776532E+01 -0.69647439174E+01 -0.59539771826E+00  0.10017753073E+02  0.51100000000E-03 0.  1.
         11    1    3    3    0    0  0.71758776532E+01  0.69647439174E+01 -0.65819704269E+00  0.10021681572E+02  0.51100000000E-03 0. -1.
<mgrwt>
<rscale>  0 0.20000186E+02</rscale>
<asrwt>0</asrwt>
<pdfrwt beam="1">  1        3 0.14450646E-02 0.20000186E+02</pdfrwt>
<pdfrwt beam="2">  1       -3 0.16379253E-02 0.20000186E+02</pdfrwt>
<totfact> 0.17882762E+06</totfact>
</mgrwt>
</event>
<event>
 5    1  0.4236859E-007  0.2000084E+02  0.7818608E-02  0.1745311E+00
         -3   -1    0    0    0  501 -0.00000000000E+00  0.00000000000E+00  0.11347679985E+02  0.11348061069E+02  0.93000000000E-01 0.  1.
          3   -1    0    0  501    0  0.00000000000E+00 -0.00000000000E+00 -0.88123440198E+01  0.88128347382E+01  0.93000000000E-01 0. -1.
       1023    2    1    2    0    0  0.00000000000E+00  0.00000000000E+00  0.25353359647E+01  0.20160895807E+02  0.20000844765E+02 0.  0.
        -11    1    3    3    0    0  0.44565217561E+00 -0.99902443177E+01  0.11973951501E+01  0.10071610735E+02  0.51100000000E-03 0. -1.
         11    1    3    3    0    0 -0.44565217561E+00  0.99902443177E+01  0.13379408146E+01  0.10089285072E+02  0.51100000000E-03 0.  1.
<mgrwt>
<rscale>  0 0.20000845E+02</rscale>
<asrwt>0</asrwt>
<pdfrwt beam="2">  1        3 0.13558123E-02 0.20000845E+02</pdfrwt>
<pdfrwt beam="1">  1       -3 0.17458640E-02 0.20000845E+02</pdfrwt>
<totfact> 0.17873605E+06</totfact>
</mgrwt>
</event>
<event>
 5    1  0.4133473E-007  0.2000290E+02  0.7818608E-02  0.1745270E+00
          3   -1    0    0  501    0  0.00000000000E+00  0.00000000000E+00  0.85601630828E+01  0.85606682569E+01  0.93000000000E-01 0.  1.
         -3   -1    0    0    0  501 -0.00000000000E+00 -0.00000000000E+00 -0.11684375554E+02  0.11684745658E+02  0.93000000000E-01 0. -1.
       1023    2    1    2    0    0  0.00000000000E+00  0.00000000000E+00 -0.31242124712E+01  0.20245413915E+02  0.20002901815E+02 0.  0.
        -11    1    3    3    0    0  0.99931597613E+01 -0.40086539572E+00 -0.16342793340E+01  0.10133844497E+02  0.51100000000E-03 0. -1.
         11    1    3    3    0    0 -0.99931597613E+01  0.40086539572E+00 -0.14899331371E+01  0.10111569418E+02  0.51100000000E-03 0.  1.
<mgrwt>
<rscale>  0 0.20002902E+02</rscale>
<asrwt>0</asrwt>
<pdfrwt beam="1">  1        3 0.13170155E-02 0.20002902E+02</pdfrwt>
<pdfrwt beam="2">  1       -3 0.17976636E-02 0.20002902E+02</pdfrwt>
<totfact> 0.17864116E+06</totfact>
</mgrwt>
</event>
<event>
 5    1  0.4133473E-007  0.2000039E+02  0.7818608E-02  0.1745320E+00
         -3   -1    0    0    0  501 -0.00000000000E+00  0.00000000000E+00  0.46308939459E+02  0.46309032842E+02  0.93000000000E-01 0.  1.
          3   -1    0    0  501    0  0.00000000000E+00 -0.00000000000E+00 -0.21583984242E+01  0.21604010640E+01  0.93000000000E-01 0. -1.
       1023    2    1    2    0    0  0.00000000000E+00  0.00000000000E+00  0.44150541034E+02  0.48469433906E+02  0.20000393735E+02 0.  0.
        -11    1    3    3    0    0  0.99715278105E+01 -0.75595873315E+00  0.22155523777E+02  0.24307819206E+02  0.51100000000E-03 0. -1.
         11    1    3    3    0    0 -0.99715278105E+01  0.75595873315E+00  0.21995017258E+02  0.24161614700E+02  0.51100000000E-03 0.  1.
<mgrwt>
<rscale>  0 0.20000394E+02</rscale>
<asrwt>0</asrwt>
<pdfrwt beam="2">  1        3 0.33222253E-03 0.20000394E+02</pdfrwt>
<pdfrwt beam="1">  1       -3 0.71246134E-02 0.20000394E+02</pdfrwt>
<totfact> 0.16283409E+06</totfact>
</mgrwt>
</event>
<event>
 4    1  0.4450898E-007  0.2021077E+02  0.7818608E-02  0.1741169E+00
         -3   -1    0    0    0  501 -0.00000000000E+00  0.00000000000E+00  0.34096085875E+02  0.34096212708E+02  0.93000000000E-01 0.  1.
          3   -1    0    0  501    0  0.00000000000E+00 -0.00000000000E+00 -0.29941765431E+01  0.29956204985E+01  0.93000000000E-01 0. -1.
        -11    1    1    2    0    0 -0.95562721608E+01  0.29954223491E+01  0.13072388578E+02  0.16467611729E+02  0.51100000000E-03 0. -1.
         11    1    1    2    0    0  0.95562721608E+01 -0.29954223491E+01  0.18029520754E+02  0.20624221477E+02  0.51100000000E-03 0.  1.
<mgrwt>
<rscale>  0 0.20210773E+02</rscale>
<asrwt>0</asrwt>
<pdfrwt beam="2">  1        3 0.46076338E-03 0.20210773E+02</pdfrwt>
<pdfrwt beam="1">  1       -3 0.52456724E-02 0.20210773E+02</pdfrwt>
<totfact> 0.16493170E+06</totfact>
</mgrwt>
</event>
<event>
 5    1  0.4133473E-007  0.2000015E+02  0.7818608E-02  0.1745325E+00
          3   -1    0    0  501    0  0.00000000000E+00  0.00000000000E+00  0.32246350254E+02  0.32246484362E+02  0.93000000000E-01 0.  1.
         -3   -1    0    0    0  501 -0.00000000000E+00 -0.00000000000E+00 -0.31003355446E+01  0.31017300799E+01  0.93000000000E-01 0. -1.
       1023    2    1    2    0    0  0.00000000000E+00  0.00000000000E+00  0.29146014710E+02  0.35348214442E+02  0.20000152269E+02 0.  0.
        -11    1    3    3    0    0 -0.35736791322E+01 -0.93397011256E+01  0.14541254081E+02  0.17647925378E+02  0.51100000000E-03 0. -1.
         11    1    3    3    0    0  0.35736791322E+01  0.93397011256E+01  0.14604760629E+02  0.17700289064E+02  0.51100000000E-03 0.  1.
<mgrwt>
<rscale>  0 0.20000152E+02</rscale>
<asrwt>0</asrwt>
<pdfrwt beam="1">  1        3 0.49610947E-02 0.20000152E+02</pdfrwt>
<pdfrwt beam="2">  1       -3 0.47709228E-03 0.20000152E+02</pdfrwt>
<totfact> 0.16962521E+06</totfact>
</mgrwt>
</event>
<event>
 5    1  0.4133473E-007  0.2000143E+02  0.7818608E-02  0.1745300E+00
         -3   -1    0    0    0  501 -0.00000000000E+00  0.00000000000E+00  0.32104161484E+02  0.32104296186E+02  0.93000000000E-01 0. -1.
          3   -1    0    0  501    0  0.00000000000E+00 -0.00000000000E+00 -0.31144703742E+01  0.31158585834E+01  0.93000000000E-01 0.  1.
       1023    2    1    2    0    0  0.00000000000E+00  0.00000000000E+00  0.28989691110E+02  0.35220154770E+02  0.20001427732E+02 0.  0.
        -11    1    3    3    0    0 -0.95934394252E+01  0.28249237110E+01  0.14498184274E+02  0.17612825483E+02  0.51100000000E-03 0. -1.
         11    1    3    3    0    0  0.95934394252E+01 -0.28249237110E+01  0.14491506836E+02  0.17607329287E+02  0.51100000000E-03 0.  1.
<mgrwt>
<rscale>  0 0.20001428E+02</rscale>
<asrwt>0</asrwt>
<pdfrwt beam="2">  1        3 0.47926645E-03 0.20001428E+02</pdfrwt>
<pdfrwt beam="1">  1       -3 0.49392188E-02 0.20001428E+02</pdfrwt>
<totfact> 0.16969274E+06</totfact>
</mgrwt>
</event>
<event>
 5    1  0.4133473E-007  0.2000209E+02  0.7818608E-02  0.1745286E+00
          3   -1    0    0  501    0  0.00000000000E+00  0.00000000000E+00  0.75064490874E+02  0.75064548485E+02  0.93000000000E-01 0. -1.
         -3   -1    0    0    0  501 -0.00000000000E+00 -0.00000000000E+00 -0.13307857248E+01  0.13340313510E+01  0.93000000000E-01 0.  1.
       1023    2    1    2    0    0  0.00000000000E+00  0.00000000000E+00  0.73733705150E+02  0.76398579836E+02  0.20002093037E+02 0.  0.
        -11    1    3    3    0    0 -0.82579373375E+01  0.56412673455E+01  0.36640729147E+02  0.37981053949E+02  0.51100000000E-03 0. -1.
         11    1    3    3    0    0  0.82579373375E+01 -0.56412673455E+01  0.37092976002E+02  0.38417525887E+02  0.51100000000E-03 0.  1.
<mgrwt>
<rscale>  0 0.20002093E+02</rscale>
<asrwt>0</asrwt>
<pdfrwt beam="1">  1        3 0.11548641E-01 0.20002093E+02</pdfrwt>
<pdfrwt beam="2">  1       -3 0.20499029E-03 0.20002093E+02</pdfrwt>
<totfact> 0.15049629E+06</totfact>
</mgrwt>
</event>
<event>
 5    1  0.4133473E-007  0.2001231E+02  0.7818608E-02  0.1745083E+00
          3   -1    0    0  501    0  0.00000000000E+00  0.00000000000E+00  0.16585125987E+01  0.16611180091E+01  0.93000000000E-01 0. -1.
         -3   -1    0    0    0  501 -0.00000000000E+00 -0.00000000000E+00 -0.60319237583E+02  0.60319309276E+02  0.93000000000E-01 0.  1.
       1023    2    1    2    0    0  0.00000000000E+00  0.00000000000E+00 -0.58660724984E+02  0.61980427285E+02  0.20012313980E+02 0.  0.
        -11    1    3    3    0    0 -0.71111085018E+01  0.70390392274E+01 -0.29066833268E+02  0.30740799174E+02  0.51100000000E-03 0. -1.
         11    1    3    3    0    0  0.71111085018E+01 -0.70390392274E+01 -0.29593891716E+02  0.31239628111E+02  0.51100000000E-03 0.  1.
<mgrwt>
<rscale>  0 0.20012314E+02</rscale>
<asrwt>0</asrwt>
<pdfrwt beam="1">  1        3 0.25536176E-03 0.20012314E+02</pdfrwt>
<pdfrwt beam="2">  1       -3 0.92800870E-02 0.20012314E+02</pdfrwt>
<totfact> 0.15637958E+06</totfact>
</mgrwt>
</event>
<event>
 5    1  0.4348613E-007  0.2000109E+02  0.7818608E-02  0.1745306E+00
         -3   -1    0    0    0  501 -0.00000000000E+00  0.00000000000E+00  0.48170328094E+01  0.48179304776E+01  0.93000000000E-01 0. -1.
          3   -1    0    0  501    0  0.00000000000E+00 -0.00000000000E+00 -0.20758995726E+02  0.20759204044E+02  0.93000000000E-01 0.  1.
       1023    2    1    2    0    0  0.00000000000E+00  0.00000000000E+00 -0.15941962917E+02  0.25577134522E+02  0.20001090688E+02 0.  0.
        -11    1    3    3    0    0  0.22084869027E+01 -0.97535115224E+01 -0.80349911087E+01  0.12828463813E+02  0.51100000000E-03 0. -1.
         11    1    3    3    0    0 -0.22084869027E+01  0.97535115224E+01 -0.79069718079E+01  0.12748670709E+02  0.51100000000E-03 0.  1.
<mgrwt>
<rscale>  0 0.20001091E+02</rscale>
<asrwt>0</asrwt>
<pdfrwt beam="2">  1        3 0.31937767E-02 0.20001091E+02</pdfrwt>
<pdfrwt beam="1">  1       -3 0.74116706E-03 0.20001091E+02</pdfrwt>
<totfact> 0.17528984E+06</totfact>
</mgrwt>
</event>
<event>
 5    1  0.4133473E-007  0.2000015E+02  0.7818608E-02  0.1745325E+00
          3   -1    0    0  501    0  0.00000000000E+00  0.00000000000E+00  0.25225215647E+02  0.25225387082E+02  0.93000000000E-01 0. -1.
         -3   -1    0    0    0  501 -0.00000000000E+00 -0.00000000000E+00 -0.39636156539E+01  0.39647065530E+01  0.93000000000E-01 0.  1.
       1023    2    1    2    0    0  0.00000000000E+00  0.00000000000E+00  0.21261599993E+02  0.29190093635E+02  0.20000148303E+02 0.  0.
        -11    1    3    3    0    0  0.44012461691E+01 -0.89793837553E+01  0.10680984388E+02  0.14631600330E+02  0.51100000000E-03 0. -1.
         11    1    3    3    0    0 -0.44012461691E+01  0.89793837553E+01  0.10580615606E+02  0.14558493305E+02  0.51100000000E-03 0.  1.
<mgrwt>
<rscale>  0 0.20000148E+02</rscale>
<asrwt>0</asrwt>
<pdfrwt beam="1">  1        3 0.38808995E-02 0.20000148E+02</pdfrwt>
<pdfrwt beam="2">  1       -3 0.60988413E-03 0.20000148E+02</pdfrwt>
<totfact> 0.17313587E+06</totfact>
</mgrwt>
</event>
<event>
 5    1  0.4133473E-007  0.2000043E+02  0.7818608E-02  0.1745320E+00
         -3   -1    0    0    0  501 -0.00000000000E+00  0.00000000000E+00  0.19721564561E+01  0.19743480158E+01  0.93000000000E-01 0. -1.
          3   -1    0    0  501    0  0.00000000000E+00 -0.00000000000E+00 -0.50677698732E+02  0.50677784065E+02  0.93000000000E-01 0.  1.
       1023    2    1    2    0    0  0.00000000000E+00  0.00000000000E+00 -0.48705542276E+02  0.52652132081E+02  0.20000429103E+02 0.  0.
        -11    1    3    3    0    0 -0.16367318084E+01  0.98651965264E+01 -0.24503937637E+02  0.26465901713E+02  0.51100000000E-03 0.  1.
         11    1    3    3    0    0  0.16367318084E+01 -0.98651965264E+01 -0.24201604639E+02  0.26186230367E+02  0.51100000000E-03 0. -1.
<mgrwt>
<rscale>  0 0.20000429E+02</rscale>
<asrwt>0</asrwt>
<pdfrwt beam="2">  1        3 0.77967432E-02 0.20000429E+02</pdfrwt>
<pdfrwt beam="1">  1       -3 0.30358387E-03 0.20000429E+02</pdfrwt>
<totfact> 0.16079834E+06</totfact>
</mgrwt>
</event>
<event>
 5    1  0.4133473E-007  0.2000042E+02  0.7818608E-02  0.1745320E+00
          3   -1    0    0  501    0  0.00000000000E+00  0.00000000000E+00  0.28410399827E+01  0.28425617290E+01  0.93000000000E-01 0.  1.
         -3   -1    0    0    0  501 -0.00000000000E+00 -0.00000000000E+00 -0.35188860003E+02  0.35188982896E+02  0.93000000000E-01 0. -1.
       1023    2    1    2    0    0  0.00000000000E+00  0.00000000000E+00 -0.32347820020E+02  0.38031544625E+02  0.20000423159E+02 0.  0.
        -11    1    3    3    0    0 -0.64217814110E+01  0.76658237835E+01 -0.16192982994E+02  0.19031994885E+02  0.51100000000E-03 0. -1.
         11    1    3    3    0    0  0.64217814110E+01 -0.76658237835E+01 -0.16154837025E+02  0.18999549741E+02  0.51100000000E-03 0.  1.
<mgrwt>
<rscale>  0 0.20000423E+02</rscale>
<asrwt>0</asrwt>
<pdfrwt beam="1">  1        3 0.43720961E-03 0.20000423E+02</pdfrwt>
<pdfrwt beam="2">  1       -3 0.54137970E-02 0.20000423E+02</pdfrwt>
<totfact> 0.16818032E+06</totfact>
</mgrwt>
</event>
<event>
 5    1  0.4242420E-007  0.2000099E+02  0.7818608E-02  0.1745308E+00
          3   -1    0    0  501    0  0.00000000000E+00  0.00000000000E+00  0.40445248442E+01  0.40455939262E+01  0.93000000000E-01 0.  1.
         -3   -1    0    0    0  501 -0.00000000000E+00 -0.00000000000E+00 -0.24722817385E+02  0.24722992304E+02  0.93000000000E-01 0. -1.
       1023    2    1    2    0    0  0.00000000000E+00  0.00000000000E+00 -0.20678292541E+02  0.28768586230E+02  0.20000994257E+02 0.  0.
        -11    1    3    3    0    0 -0.93138798501E+01  0.36411685431E+01 -0.10254340040E+02  0.14323336069E+02  0.51100000000E-03 0. -1.
         11    1    3    3    0    0  0.93138798501E+01 -0.36411685431E+01 -0.10423952501E+02  0.14445250161E+02  0.51100000000E-03 0.  1.
<mgrwt>
<rscale>  0 0.20000994E+02</rscale>
<asrwt>0</asrwt>
<pdfrwt beam="1">  1        3 0.62233030E-03 0.20000994E+02</pdfrwt>
<pdfrwt beam="2">  1       -3 0.38036060E-02 0.20000994E+02</pdfrwt>
<totfact> 0.17338477E+06</totfact>
</mgrwt>
</event>
<event>
 5    1  0.4133473E-007  0.2000067E+02  0.7818608E-02  0.1745315E+00
          3   -1    0    0  501    0  0.00000000000E+00  0.00000000000E+00  0.32589832151E+02  0.32589964845E+02  0.93000000000E-01 0.  1.
         -3   -1    0    0    0  501 -0.00000000000E+00 -0.00000000000E+00 -0.30678021793E+01  0.30692114967E+01  0.93000000000E-01 0. -1.
       1023    2    1    2    0    0  0.00000000000E+00  0.00000000000E+00  0.29522029971E+02  0.35659176342E+02  0.20000665083E+02 0.  0.
        -11    1    3    3    0    0 -0.57014377814E+00  0.99839924214E+01  0.14692377323E+02  0.17772763439E+02  0.51100000000E-03 0. -1.
         11    1    3    3    0    0  0.57014377814E+00 -0.99839924214E+01  0.14829652649E+02  0.17886412903E+02  0.51100000000E-03 0.  1.
<mgrwt>
<rscale>  0 0.20000665E+02</rscale>
<asrwt>0</asrwt>
<pdfrwt beam="1">  1        3 0.50139390E-02 0.20000665E+02</pdfrwt>
<pdfrwt beam="2">  1       -3 0.47208818E-03 0.20000665E+02</pdfrwt>
<totfact> 0.16944455E+06</totfact>
</mgrwt>
</event>
<event>
 4    1  0.4133473E-007  0.2075758E+02  0.7818608E-02  0.1730669E+00
          3   -1    0    0  501    0  0.00000000000E+00  0.00000000000E+00  0.16390070180E+01  0.16416433855E+01  0.93000000000E-01 0.  1.
         -3   -1    0    0    0  501 -0.00000000000E+00 -0.00000000000E+00 -0.65666775734E+02  0.65666841589E+02  0.93000000000E-01 0. -1.
        -11    1    1    2    0    0 -0.10077044083E+02 -0.24635221586E+01 -0.33057006457E+02  0.34646521255E+02  0.51100000000E-03 0.  1.
         11    1    1    2    0    0  0.10077044083E+02  0.24635221586E+01 -0.30970762258E+02  0.32661963719E+02  0.51100000000E-03 0. -1.
<mgrwt>
<rscale>  0 0.20757577E+02</rscale>
<asrwt>0</asrwt>
<pdfrwt beam="1">  1        3 0.25236284E-03 0.20757577E+02</pdfrwt>
<pdfrwt beam="2">  1       -3 0.10102787E-01 0.20757577E+02</pdfrwt>
<totfact> 0.14238433E+06</totfact>
</mgrwt>
</event>
<event>
 5    1  0.4143178E-007  0.2000139E+02  0.7818608E-02  0.1745301E+00
         -3   -1    0    0    0  501 -0.00000000000E+00  0.00000000000E+00  0.43958734683E+01  0.43968571217E+01  0.93000000000E-01 0. -1.
          3   -1    0    0  501    0  0.00000000000E+00 -0.00000000000E+00 -0.22748134704E+02  0.22748324807E+02  0.93000000000E-01 0.  1.
       1023    2    1    2    0    0  0.00000000000E+00  0.00000000000E+00 -0.18352261236E+02  0.27145181929E+02  0.20001385189E+02 0.  0.
        -11    1    3    3    0    0 -0.74153083413E+01  0.67100634266E+01 -0.91138913000E+01  0.13530512329E+02  0.51100000000E-03 0.  1.
         11    1    3    3    0    0  0.74153083413E+01 -0.67100634266E+01 -0.92383699360E+01  0.13614669600E+02  0.51100000000E-03 0. -1.
<mgrwt>
<rscale>  0 0.20001385E+02</rscale>
<asrwt>0</asrwt>
<pdfrwt beam="2">  1        3 0.34998033E-02 0.20001385E+02</pdfrwt>
<pdfrwt beam="1">  1       -3 0.67637853E-03 0.20001385E+02</pdfrwt>
<totfact> 0.17433099E+06</totfact>
</mgrwt>
</event>
<event>
 5    1  0.4133473E-007  0.2000205E+02  0.7818608E-02  0.1745287E+00
          3   -1    0    0  501    0  0.00000000000E+00  0.00000000000E+00  0.55161917223E+02  0.55161995620E+02  0.93000000000E-01 0. -1.
         -3   -1    0    0    0  501 -0.00000000000E+00 -0.00000000000E+00 -0.18119440102E+01  0.18143291036E+01  0.93000000000E-01 0.  1.
       1023    2    1    2    0    0  0.00000000000E+00  0.00000000000E+00  0.53349973213E+02  0.56976324723E+02  0.20002048324E+02 0.  0.
        -11    1    3    3    0    0  0.52544508528E+01  0.85093358199E+01  0.26815525005E+02  0.28619755963E+02  0.51100000000E-03 0.  1.
         11    1    3    3    0    0 -0.52544508528E+01 -0.85093358199E+01  0.26534448208E+02  0.28356568760E+02  0.51100000000E-03 0. -1.
<mgrwt>
<rscale>  0 0.20002048E+02</rscale>
<asrwt>0</asrwt>
<pdfrwt beam="1">  1        3 0.84866367E-02 0.20002048E+02</pdfrwt>
<pdfrwt beam="2">  1       -3 0.27895017E-03 0.20002048E+02</pdfrwt>
<totfact> 0.15876462E+06</totfact>
</mgrwt>
</event>
<event>
 5    1  0.4133473E-007  0.2000219E+02  0.7818608E-02  0.1745285E+00
          3   -1    0    0  501    0  0.00000000000E+00  0.00000000000E+00  0.20662422130E+02  0.20662631422E+02  0.93000000000E-01 0. -1.
         -3   -1    0    0    0  501 -0.00000000000E+00 -0.00000000000E+00 -0.48400824422E+01  0.48409758362E+01  0.93000000000E-01 0.  1.
       1023    2    1    2    0    0  0.00000000000E+00  0.00000000000E+00  0.15822339688E+02  0.25503607258E+02  0.20002188630E+02 0.  0.
        -11    1    3    3    0    0 -0.54073241720E+01  0.84129831534E+01  0.78261427363E+01  0.12699053139E+02  0.51100000000E-03 0.  1.
         11    1    3    3    0    0  0.54073241720E+01 -0.84129831534E+01  0.79961969519E+01  0.12804554119E+02  0.51100000000E-03 0. -1.
<mgrwt>
<rscale>  0 0.20002189E+02</rscale>
<asrwt>0</asrwt>
<pdfrwt beam="1">  1        3 0.31789189E-02 0.20002189E+02</pdfrwt>
<pdfrwt beam="2">  1       -3 0.74471291E-03 0.20002189E+02</pdfrwt>
<totfact> 0.17531428E+06</totfact>
</mgrwt>
</event>
<event>
 5    1  0.4157499E-007  0.2000180E+02  0.7818608E-02  0.1745292E+00
         -3   -1    0    0    0  501 -0.00000000000E+00  0.00000000000E+00  0.13118357402E+02  0.13118687050E+02  0.93000000000E-01 0.  1.
          3   -1    0    0  501    0  0.00000000000E+00 -0.00000000000E+00 -0.76235697439E+01  0.76241369767E+01  0.93000000000E-01 0. -1.
       1023    2    1    2    0    0  0.00000000000E+00  0.00000000000E+00  0.54947876580E+01  0.20742824027E+02  0.20001801349E+02 0.  0.
        -11    1    3    3    0    0 -0.80794776101E+01  0.58940646292E+01  0.27395139503E+01  0.10369324628E+02  0.51100000000E-03 0.  1.
         11    1    3    3    0    0  0.80794776101E+01 -0.58940646292E+01  0.27552737076E+01  0.10373499399E+02  0.51100000000E-03 0. -1.
<mgrwt>
<rscale>  0 0.20001801E+02</rscale>
<asrwt>0</asrwt>
<pdfrwt beam="2">  1        3 0.11729259E-02 0.20001801E+02</pdfrwt>
<pdfrwt beam="1">  1       -3 0.20182778E-02 0.20001801E+02</pdfrwt>
<totfact> 0.17833906E+06</totfact>
</mgrwt>
</event>
<event>
 4    1  0.4133473E-007  0.2001431E+02  0.7818608E-02  0.1745044E+00
         -3   -1    0    0    0  501 -0.00000000000E+00  0.00000000000E+00  0.12257035841E+01  0.12292266985E+01  0.93000000000E-01 0. -1.
          3   -1    0    0  501    0  0.00000000000E+00 -0.00000000000E+00 -0.81581742857E+02  0.81581795865E+02  0.93000000000E-01 0.  1.
        -11    1    1    2    0    0 -0.80301510629E+01 -0.59610339974E+01 -0.41645844099E+02  0.42829821193E+02  0.51100000000E-03 0.  1.
         11    1    1    2    0    0  0.80301510629E+01  0.59610339974E+01 -0.38710195173E+02  0.39981201370E+02  0.51100000000E-03 0. -1.
<mgrwt>
<rscale>  0 0.20014305E+02</rscale>
<asrwt>0</asrwt>
<pdfrwt beam="2">  1        3 0.12551308E-01 0.20014305E+02</pdfrwt>
<pdfrwt beam="1">  1       -3 0.18884493E-03 0.20014305E+02</pdfrwt>
<totfact> 0.14780407E+06</totfact>
</mgrwt>
</event>
<event>
 5    1  0.4133473E-007  0.2000044E+02  0.7818608E-02  0.1745319E+00
          3   -1    0    0  501    0  0.00000000000E+00  0.00000000000E+00  0.31026854943E+02  0.31026994322E+02  0.93000000000E-01 0.  1.
         -3   -1    0    0    0  501 -0.00000000000E+00 -0.00000000000E+00 -0.32223396121E+01  0.32236813700E+01  0.93000000000E-01 0. -1.
       1023    2    1    2    0    0  0.00000000000E+00  0.00000000000E+00  0.27804515330E+02  0.34250675692E+02  0.20000442809E+02 0.  0.
        -11    1    3    3    0    0  0.33416347330E+01 -0.94252859602E+01  0.13976702199E+02  0.17185771520E+02  0.51100000000E-03 0. -1.
         11    1    3    3    0    0 -0.33416347330E+01  0.94252859602E+01  0.13827813131E+02  0.17064904171E+02  0.51100000000E-03 0.  1.
<mgrwt>
<rscale>  0 0.20000443E+02</rscale>
<asrwt>0</asrwt>
<pdfrwt beam="1">  1        3 0.47734761E-02 0.20000443E+02</pdfrwt>
<pdfrwt beam="2">  1       -3 0.49585851E-03 0.20000443E+02</pdfrwt>
<totfact> 0.17022903E+06</totfact>
</mgrwt>
</event>
<event>
 5    1  0.4170799E-007  0.2000177E+02  0.7818608E-02  0.1745293E+00
          3   -1    0    0  501    0  0.00000000000E+00  0.00000000000E+00  0.31982137757E+02  0.31982272973E+02  0.93000000000E-01 0.  1.
         -3   -1    0    0    0  501 -0.00000000000E+00 -0.00000000000E+00 -0.31264645750E+01  0.31278474609E+01  0.93000000000E-01 0. -1.
       1023    2    1    2    0    0  0.00000000000E+00  0.00000000000E+00  0.28855673182E+02  0.35110120434E+02  0.20001766974E+02 0.  0.
        -11    1    3    3    0    0 -0.25605277410E+01  0.96671265432E+01  0.14585157048E+02  0.17684355920E+02  0.51100000000E-03 0. -1.
         11    1    3    3    0    0  0.25605277410E+01 -0.96671265432E+01  0.14270516134E+02  0.17425764514E+02  0.51100000000E-03 0.  1.
<mgrwt>
<rscale>  0 0.20001767E+02</rscale>
<asrwt>0</asrwt>
<pdfrwt beam="1">  1        3 0.49204455E-02 0.20001767E+02</pdfrwt>
<pdfrwt beam="2">  1       -3 0.48111134E-03 0.20001767E+02</pdfrwt>
<totfact> 0.16972729E+06</totfact>
</mgrwt>
</event>
<event>
 5    1  0.4225805E-007  0.2000098E+02  0.7818608E-02  0.1745309E+00
          3   -1    0    0  501    0  0.00000000000E+00  0.00000000000E+00  0.44745415213E+01  0.44755078847E+01  0.93000000000E-01 0. -1.
         -3   -1    0    0    0  501 -0.00000000000E+00 -0.00000000000E+00 -0.22347378258E+02  0.22347571770E+02  0.93000000000E-01 0.  1.
       1023    2    1    2    0    0  0.00000000000E+00  0.00000000000E+00 -0.17872836737E+02  0.26823079655E+02  0.20000982704E+02 0.  0.
        -11    1    3    3    0    0  0.20066678423E+01 -0.97970875999E+01 -0.89181404788E+01  0.13399360848E+02  0.51100000000E-03 0. -1.
         11    1    3    3    0    0 -0.20066678423E+01  0.97970875999E+01 -0.89546962579E+01  0.13423718807E+02  0.51100000000E-03 0.  1.
<mgrwt>
<rscale>  0 0.20000983E+02</rscale>
<asrwt>0</asrwt>
<pdfrwt beam="1">  1        3 0.68848024E-03 0.20000983E+02</pdfrwt>
<pdfrwt beam="2">  1       -3 0.34381473E-02 0.20000983E+02</pdfrwt>
<totfact> 0.17454700E+06</totfact>
</mgrwt>
</event>
<event>
 5    1  0.4133473E-007  0.2000018E+02  0.7818608E-02  0.1745325E+00
          3   -1    0    0  501    0  0.00000000000E+00  0.00000000000E+00  0.12456525672E+02  0.12456872835E+02  0.93000000000E-01 0.  1.
         -3   -1    0    0    0  501 -0.00000000000E+00 -0.00000000000E+00 -0.80273352388E+01  0.80278739425E+01  0.93000000000E-01 0. -1.
       1023    2    1    2    0    0  0.00000000000E+00  0.00000000000E+00  0.44291904334E+01  0.20484746777E+02  0.20000178065E+02 0.  0.
        -11    1    3    3    0    0  0.99475479946E+01 -0.10230495973E+01  0.22534459369E+01  0.10250773651E+02  0.51100000000E-03 0.  1.
         11    1    3    3    0    0 -0.99475479946E+01  0.10230495973E+01  0.21757444964E+01  0.10233973127E+02  0.51100000000E-03 0. -1.
<mgrwt>
<rscale>  0 0.20000178E+02</rscale>
<asrwt>0</asrwt>
<pdfrwt beam="1">  1        3 0.19164567E-02 0.20000178E+02</pdfrwt>
<pdfrwt beam="2">  1       -3 0.12350428E-02 0.20000178E+02</pdfrwt>
<totfact> 0.17853380E+06</totfact>
</mgrwt>
</event>
<event>
 5    1  0.4133473E-007  0.2000049E+02  0.7818608E-02  0.1745318E+00
         -3   -1    0    0    0  501 -0.00000000000E+00  0.00000000000E+00  0.68320745316E+02  0.68320808613E+02  0.93000000000E-01 0.  1.
          3   -1    0    0  501    0  0.00000000000E+00 -0.00000000000E+00 -0.14622141390E+01  0.14651686552E+01  0.93000000000E-01 0. -1.
       1023    2    1    2    0    0  0.00000000000E+00  0.00000000000E+00  0.66858531177E+02  0.69785977268E+02  0.20000485797E+02 0.  0.
        -11    1    3    3    0    0 -0.84133930571E+01 -0.54053881177E+01  0.33296201843E+02  0.34765506769E+02  0.51100000000E-03 0. -1.
         11    1    3    3    0    0  0.84133930571E+01  0.54053881177E+01  0.33562329334E+02  0.35020470500E+02  0.51100000000E-03 0.  1.
<mgrwt>
<rscale>  0 0.20000486E+02</rscale>
<asrwt>0</asrwt>
<pdfrwt beam="2">  1        3 0.22518814E-03 0.20000486E+02</pdfrwt>
<pdfrwt beam="1">  1       -3 0.10511117E-01 0.20000486E+02</pdfrwt>
<totfact> 0.15324041E+06</totfact>
</mgrwt>
</event>
<event>
 5    1  0.4133473E-007  0.2000483E+02  0.7818608E-02  0.1745232E+00
         -3   -1    0    0    0  501 -0.00000000000E+00  0.00000000000E+00  0.33287646274E+02  0.33287776187E+02  0.93000000000E-01 0. -1.
          3   -1    0    0  501    0  0.00000000000E+00 -0.00000000000E+00 -0.30047139228E+01  0.30061528168E+01  0.93000000000E-01 0.  1.
       1023    2    1    2    0    0  0.00000000000E+00  0.00000000000E+00  0.30282932351E+02  0.36293929004E+02  0.20004831685E+02 0.  0.
        -11    1    3    3    0    0  0.90759357818E+01  0.42042075417E+01  0.15175458884E+02  0.18175327342E+02  0.51100000000E-03 0.  1.
         11    1    3    3    0    0 -0.90759357818E+01 -0.42042075417E+01  0.15107473467E+02  0.18118601662E+02  0.51100000000E-03 0. -1.
<mgrwt>
<rscale>  0 0.20004832E+02</rscale>
<asrwt>0</asrwt>
<pdfrwt beam="2">  1        3 0.46238432E-03 0.20004832E+02</pdfrwt>
<pdfrwt beam="1">  1       -3 0.51212975E-02 0.20004832E+02</pdfrwt>
<totfact> 0.16904149E+06</totfact>
</mgrwt>
</event>
<event>
 5    1  0.4133473E-007  0.2000040E+02  0.7818608E-02  0.1745320E+00
          3   -1    0    0  501    0  0.00000000000E+00  0.00000000000E+00  0.40515216856E+01  0.40525889218E+01  0.93000000000E-01 0. -1.
         -3   -1    0    0    0  501 -0.00000000000E+00 -0.00000000000E+00 -0.24678674209E+02  0.24678849440E+02  0.93000000000E-01 0.  1.
       1023    2    1    2    0    0  0.00000000000E+00  0.00000000000E+00 -0.20627152523E+02  0.28731438362E+02  0.20000403225E+02 0.  0.
        -11    1    3    3    0    0 -0.26244315426E+01 -0.96496745061E+01 -0.10294679826E+02  0.14352152869E+02  0.51100000000E-03 0.  1.
         11    1    3    3    0    0  0.26244315426E+01  0.96496745061E+01 -0.10332472697E+02  0.14379285493E+02  0.51100000000E-03 0. -1.
<mgrwt>
<rscale>  0 0.20000403E+02</rscale>
<asrwt>0</asrwt>
<pdfrwt beam="1">  1        3 0.62340662E-03 0.20000403E+02</pdfrwt>
<pdfrwt beam="2">  1       -3 0.37968146E-02 0.20000403E+02</pdfrwt>
<totfact> 0.17341775E+06</totfact>
</mgrwt>
</event>
<event>
 5    1  0.4133473E-007  0.2000486E+02  0.7818608E-02  0.1745231E+00
          3   -1    0    0  501    0  0.00000000000E+00  0.00000000000E+00  0.19878800649E+02  0.19879018191E+02  0.93000000000E-01 0. -1.
         -3   -1    0    0    0  501 -0.00000000000E+00 -0.00000000000E+00 -0.50322552800E+01  0.50331145629E+01  0.93000000000E-01 0.  1.
       1023    2    1    2    0    0  0.00000000000E+00  0.00000000000E+00  0.14846545369E+02  0.24912132754E+02  0.20004860633E+02 0.  0.
        -11    1    3    3    0    0 -0.85906915772E+01  0.51221971165E+01  0.75581276721E+01  0.12536434072E+02  0.51100000000E-03 0. -1.
         11    1    3    3    0    0  0.85906915772E+01 -0.51221971165E+01  0.72884176965E+01  0.12375698681E+02  0.51100000000E-03 0.  1.
<mgrwt>
<rscale>  0 0.20004861E+02</rscale>
<asrwt>0</asrwt>
<pdfrwt beam="1">  1        3 0.30583598E-02 0.20004861E+02</pdfrwt>
<pdfrwt beam="2">  1       -3 0.77427596E-03 0.20004861E+02</pdfrwt>
<totfact> 0.17562859E+06</totfact>
</mgrwt>
</event>
<event>
 5    1  0.4289570E-007  0.2000176E+02  0.7818608E-02  0.1745293E+00
         -3   -1    0    0    0  501 -0.00000000000E+00  0.00000000000E+00  0.24564075460E+01  0.24581674134E+01  0.93000000000E-01 0.  1.
          3   -1    0    0  501    0  0.00000000000E+00 -0.00000000000E+00 -0.40700612459E+02  0.40700718710E+02  0.93000000000E-01 0. -1.
       1023    2    1    2    0    0  0.00000000000E+00  0.00000000000E+00 -0.38244204913E+02  0.43158886123E+02  0.20001755973E+02 0.  0.
        -11    1    3    3    0    0 -0.25554508389E+01  0.96681853468E+01 -0.19372098167E+02  0.21800970725E+02  0.51100000000E-03 0. -1.
         11    1    3    3    0    0  0.25554508389E+01 -0.96681853468E+01 -0.18872106745E+02  0.21357915398E+02  0.51100000000E-03 0.  1.
<mgrwt>
<rscale>  0 0.20001756E+02</rscale>
<asrwt>0</asrwt>
<pdfrwt beam="2">  1        3 0.62617757E-02 0.20001756E+02</pdfrwt>
<pdfrwt beam="1">  1       -3 0.37805243E-03 0.20001756E+02</pdfrwt>
<totfact> 0.16544488E+06</totfact>
</mgrwt>
</event>
<event>
 4    1  0.4133473E-007  0.2004514E+02  0.7818608E-02  0.1744432E+00
          3   -1    0    0  501    0  0.00000000000E+00  0.00000000000E+00  0.11903668305E+01  0.11939942174E+01  0.93000000000E-01 0. -1.
         -3   -1    0    0    0  501 -0.00000000000E+00 -0.00000000000E+00 -0.84255304168E+02  0.84255355495E+02  0.93000000000E-01 0.  1.
        -11    1    1    2    0    0 -0.75100535034E+01  0.66322238183E+01 -0.40449075193E+02  0.41671512819E+02  0.51100000000E-03 0. -1.
         11    1    1    2    0    0  0.75100535034E+01 -0.66322238183E+01 -0.42615862145E+02  0.43777836893E+02  0.51100000000E-03 0.  1.
<mgrwt>
<rscale>  0 0.20045138E+02</rscale>
<asrwt>0</asrwt>
<pdfrwt beam="1">  1        3 0.18341640E-03 0.20045138E+02</pdfrwt>
<pdfrwt beam="2">  1       -3 0.12962633E-01 0.20045138E+02</pdfrwt>
<totfact> 0.14635035E+06</totfact>
</mgrwt>
</event>
<event>
 4    1  0.4133473E-007  0.2001589E+02  0.7818608E-02  0.1745012E+00
         -3   -1    0    0    0  501 -0.00000000000E+00  0.00000000000E+00  0.21282736579E+02  0.21282939770E+02  0.93000000000E-01 0. -1.
          3   -1    0    0  501    0  0.00000000000E+00 -0.00000000000E+00 -0.47054266221E+01  0.47063455776E+01  0.93000000000E-01 0.  1.
        -11    1    1    2    0    0 -0.23973831123E+01 -0.97108561881E+01  0.87207872408E+01  0.13270278974E+02  0.51100000000E-03 0.  1.
         11    1    1    2    0    0  0.23973831123E+01  0.97108561881E+01  0.78565227157E+01  0.12719006374E+02  0.51100000000E-03 0. -1.
<mgrwt>
<rscale>  0 0.20015887E+02</rscale>
<asrwt>0</asrwt>
<pdfrwt beam="2">  1        3 0.72399811E-03 0.20015887E+02</pdfrwt>
<pdfrwt beam="1">  1       -3 0.32743535E-02 0.20015887E+02</pdfrwt>
<totfact> 0.17477225E+06</totfact>
</mgrwt>
</event>
<event>
 5    1  0.4133473E-007  0.2000018E+02  0.7818608E-02  0.1745324E+00
         -3   -1    0    0    0  501 -0.00000000000E+00  0.00000000000E+00  0.98606272205E+01  0.98610657731E+01  0.93000000000E-01 0.  1.
          3   -1    0    0  501    0  0.00000000000E+00 -0.00000000000E+00 -0.10140651763E+02  0.10141078206E+02  0.93000000000E-01 0. -1.
       1023    2    1    2    0    0  0.00000000000E+00  0.00000000000E+00 -0.28002454223E+00  0.20002143979E+02  0.20000183749E+02 0.  0.
        -11    1    3    3    0    0 -0.85073619349E+01 -0.52560976711E+01 -0.14822400496E+00  0.10001186951E+02  0.51100000000E-03 0.  1.
         11    1    3    3    0    0  0.85073619349E+01  0.52560976711E+01 -0.13180053727E+00  0.10000957027E+02  0.51100000000E-03 0. -1.
<mgrwt>
<rscale>  0 0.20000184E+02</rscale>
<asrwt>0</asrwt>
<pdfrwt beam="2">  1        3 0.15601668E-02 0.20000184E+02</pdfrwt>
<pdfrwt beam="1">  1       -3 0.15170861E-02 0.20000184E+02</pdfrwt>
<totfact> 0.17885123E+06</totfact>
</mgrwt>
</event>
<event>
 5    1  0.4133473E-007  0.2000369E+02  0.7818608E-02  0.1745255E+00
          3   -1    0    0  501    0  0.00000000000E+00  0.00000000000E+00  0.11567578801E+02  0.11567952641E+02  0.93000000000E-01 0.  1.
         -3   -1    0    0    0  501 -0.00000000000E+00 -0.00000000000E+00 -0.86472816448E+01  0.86477817297E+01  0.93000000000E-01 0. -1.
       1023    2    1    2    0    0  0.00000000000E+00  0.00000000000E+00  0.29202971560E+01  0.20215734371E+02  0.20003694176E+02 0.  0.
        -11    1    3    3    0    0  0.75936387452E+01 -0.65091210195E+01  0.13891250981E+01  0.10097607372E+02  0.51100000000E-03 0.  1.
         11    1    3    3    0    0 -0.75936387452E+01  0.65091210195E+01  0.15311720580E+01  0.10118126999E+02  0.51100000000E-03 0. -1.
<mgrwt>
<rscale>  0 0.20003694E+02</rscale>
<asrwt>0</asrwt>
<pdfrwt beam="1">  1        3 0.17796947E-02 0.20003694E+02</pdfrwt>
<pdfrwt beam="2">  1       -3 0.13304182E-02 0.20003694E+02</pdfrwt>
<totfact> 0.17864272E+06</totfact>
</mgrwt>
</event>
<event>
 5    1  0.4133473E-007  0.2000039E+02  0.7818608E-02  0.1745320E+00
          3   -1    0    0  501    0  0.00000000000E+00  0.00000000000E+00  0.34033244615E+01  0.34045948937E+01  0.93000000000E-01 0. -1.
         -3   -1    0    0    0  501 -0.00000000000E+00 -0.00000000000E+00 -0.29377353804E+02  0.29377501009E+02  0.93000000000E-01 0.  1.
       1023    2    1    2    0    0  0.00000000000E+00  0.00000000000E+00 -0.25974029342E+02  0.32782095902E+02  0.20000390283E+02 0.  0.
        -11    1    3    3    0    0 -0.68640190553E+01 -0.72723868727E+01 -0.13051215131E+02  0.16441915492E+02  0.51100000000E-03 0. -1.
         11    1    3    3    0    0  0.68640190553E+01  0.72723868727E+01 -0.12922814212E+02  0.16340180410E+02  0.51100000000E-03 0.  1.
<mgrwt>
<rscale>  0 0.20000390E+02</rscale>
<asrwt>0</asrwt>
<pdfrwt beam="1">  1        3 0.52369745E-03 0.20000390E+02</pdfrwt>
<pdfrwt beam="2">  1       -3 0.45197018E-02 0.20000390E+02</pdfrwt>
<totfact> 0.17107492E+06</totfact>
</mgrwt>
</event>
<event>
 5    1  0.4185940E-007  0.2000193E+02  0.7818608E-02  0.1745290E+00
          3   -1    0    0  501    0  0.00000000000E+00  0.00000000000E+00  0.15505783899E+02  0.15506062792E+02  0.93000000000E-01 0. -1.
         -3   -1    0    0    0  501 -0.00000000000E+00 -0.00000000000E+00 -0.64497786418E+01  0.64504490951E+01  0.93000000000E-01 0.  1.
       1023    2    1    2    0    0  0.00000000000E+00  0.00000000000E+00  0.90560052569E+01  0.21956511887E+02  0.20001929483E+02 0.  0.
        -11    1    3    3    0    0  0.62235136672E+01  0.78273948334E+01  0.46795645131E+01  0.11040767932E+02  0.51100000000E-03 0.  1.
         11    1    3    3    0    0 -0.62235136672E+01 -0.78273948334E+01  0.43764407438E+01  0.10915743955E+02  0.51100000000E-03 0. -1.
<mgrwt>
<rscale>  0 0.20001929E+02</rscale>
<asrwt>0</asrwt>
<pdfrwt beam="1">  1        3 0.23855782E-02 0.20001929E+02</pdfrwt>
<pdfrwt beam="2">  1       -3 0.99234668E-03 0.20001929E+02</pdfrwt>
<totfact> 0.17754545E+06</totfact>
</mgrwt>
</event>
<event>
 5    1  0.4133473E-007  0.2000066E+02  0.7818608E-02  0.1745315E+00
          3   -1    0    0  501    0  0.00000000000E+00  0.00000000000E+00  0.11774435379E+03  0.11774439052E+03  0.93000000000E-01 0. -1.
         -3   -1    0    0    0  501 -0.00000000000E+00 -0.00000000000E+00 -0.84677069178E+00  0.85186243282E+00  0.93000000000E-01 0.  1.
       1023    2    1    2    0    0  0.00000000000E+00  0.00000000000E+00  0.11689758310E+03  0.11859625296E+03  0.20000656983E+02 0.  0.
        -11    1    3    3    0    0  0.99959371169E+01 -0.29615526902E+00  0.58388644728E+02  0.59238841145E+02  0.51100000000E-03 0.  1.
         11    1    3    3    0    0 -0.99959371169E+01  0.29615526902E+00  0.58508938375E+02  0.59357411811E+02  0.51100000000E-03 0. -1.
<mgrwt>
<rscale>  0 0.20000657E+02</rscale>
<asrwt>0</asrwt>
<pdfrwt beam="1">  1        3 0.18114905E-01 0.20000657E+02</pdfrwt>
<pdfrwt beam="2">  1       -3 0.13066695E-03 0.20000657E+02</pdfrwt>
<totfact> 0.13564028E+06</totfact>
</mgrwt>
</event>
<event>
 5    1  0.4133473E-007  0.2000019E+02  0.7818608E-02  0.1745324E+00
          3   -1    0    0  501    0  0.00000000000E+00  0.00000000000E+00  0.27920095700E+02  0.27920250588E+02  0.93000000000E-01 0.  1.
         -3   -1    0    0    0  501 -0.00000000000E+00 -0.00000000000E+00 -0.35809503826E+01  0.35821578194E+01  0.93000000000E-01 0. -1.
       1023    2    1    2    0    0  0.00000000000E+00  0.00000000000E+00  0.24339145317E+02  0.31502408407E+02  0.20000193516E+02 0.  0.
        -11    1    3    3    0    0  0.84171169321E+01 -0.53994491526E+01  0.12177652012E+02  0.15757446411E+02  0.51100000000E-03 0. -1.
         11    1    3    3    0    0 -0.84171169321E+01  0.53994491526E+01  0.12161493305E+02  0.15744961996E+02  0.51100000000E-03 0.  1.
<mgrwt>
<rscale>  0 0.20000194E+02</rscale>
<asrwt>0</asrwt>
<pdfrwt beam="1">  1        3 0.42955040E-02 0.20000194E+02</pdfrwt>
<pdfrwt beam="2">  1       -3 0.55102026E-03 0.20000194E+02</pdfrwt>
<totfact> 0.17179067E+06</totfact>
</mgrwt>
</event>
<event>
 4    1  0.4133473E-007  0.2005816E+02  0.7818608E-02  0.1744174E+00
          3   -1    0    0  501    0  0.00000000000E+00  0.00000000000E+00  0.11639500800E+02  0.11639872331E+02  0.93000000000E-01 0. -1.
         -3   -1    0    0    0  501 -0.00000000000E+00 -0.00000000000E+00 -0.86407178552E+01  0.86412183200E+01  0.93000000000E-01 0.  1.
        -11    1    1    2    0    0 -0.36504559597E+01 -0.93410611950E+01  0.15348740235E+01  0.10145791812E+02  0.51100000000E-03 0. -1.
         11    1    1    2    0    0  0.36504559597E+01  0.93410611950E+01  0.14639089216E+01  0.10135298839E+02  0.51100000000E-03 0.  1.
<mgrwt>
<rscale>  0 0.20058164E+02</rscale>
<asrwt>0</asrwt>
<pdfrwt beam="1">  1        3 0.17907595E-02 0.20058164E+02</pdfrwt>
<pdfrwt beam="2">  1       -3 0.13294083E-02 0.20058164E+02</pdfrwt>
<totfact> 0.17755617E+06</totfact>
</mgrwt>
</event>
<event>
 5    1  0.4133473E-007  0.2000049E+02  0.7818608E-02  0.1745318E+00
         -3   -1    0    0    0  501 -0.00000000000E+00  0.00000000000E+00  0.13419962882E+02  0.13420285122E+02  0.93000000000E-01 0. -1.
          3   -1    0    0  501    0  0.00000000000E+00 -0.00000000000E+00 -0.74512453672E+01  0.74518257174E+01  0.93000000000E-01 0.  1.
       1023    2    1    2    0    0  0.00000000000E+00  0.00000000000E+00  0.59687175146E+01  0.20872110839E+02  0.20000485547E+02 0.  0.
        -11    1    3    3    0    0  0.64653303649E+01 -0.76290850007E+01  0.30236920654E+01  0.10447303415E+02  0.51100000000E-03 0. -1.
         11    1    3    3    0    0 -0.64653303649E+01  0.76290850007E+01  0.29450254492E+01  0.10424807424E+02  0.51100000000E-03 0.  1.
<mgrwt>
<rscale>  0 0.20000486E+02</rscale>
<asrwt>0</asrwt>
<pdfrwt beam="2">  1        3 0.11464149E-02 0.20000486E+02</pdfrwt>
<pdfrwt beam="1">  1       -3 0.20646791E-02 0.20000486E+02</pdfrwt>
<totfact> 0.17828010E+06</totfact>
</mgrwt>
</event>
<event>
 5    1  0.4133473E-007  0.2000132E+02  0.7818608E-02  0.1745302E+00
          3   -1    0    0  501    0  0.00000000000E+00  0.00000000000E+00  0.10360840859E+01  0.10402496013E+01  0.93000000000E-01 0. -1.
         -3   -1    0    0    0  501 -0.00000000000E+00 -0.00000000000E+00 -0.96332143725E+02  0.96332188616E+02  0.93000000000E-01 0.  1.
       1023    2    1    2    0    0  0.00000000000E+00  0.00000000000E+00 -0.95296059639E+02  0.97372438218E+02  0.20001318501E+02 0.  0.
        -11    1    3    3    0    0  0.49247804573E+01 -0.87040049416E+01 -0.47670126996E+02  0.48707845083E+02  0.51100000000E-03 0. -1.
         11    1    3    3    0    0 -0.49247804573E+01  0.87040049416E+01 -0.47625932643E+02  0.48664593135E+02  0.51100000000E-03 0.  1.
<mgrwt>
<rscale>  0 0.20001319E+02</rscale>
<asrwt>0</asrwt>
<pdfrwt beam="1">  1        3 0.15972150E-03 0.20001319E+02</pdfrwt>
<pdfrwt beam="2">  1       -3 0.14820647E-01 0.20001319E+02</pdfrwt>
<totfact> 0.14270490E+06</totfact>
</mgrwt>
</event>
<event>
 5    1  0.4133473E-007  0.2000031E+02  0.7818608E-02  0.1745322E+00
          3   -1    0    0  501    0  0.00000000000E+00  0.00000000000E+00  0.13194708658E+02  0.13195036399E+02  0.93000000000E-01 0. -1.
         -3   -1    0    0    0  501 -0.00000000000E+00 -0.00000000000E+00 -0.75783260865E+01  0.75788967056E+01  0.93000000000E-01 0.  1.
       1023    2    1    2    0    0  0.00000000000E+00  0.00000000000E+00  0.56163825720E+01  0.20773933105E+02  0.20000313584E+02 0.  0.
        -11    1    3    3    0    0 -0.81914480157E+01  0.57360880382E+01  0.27825582281E+01  0.10380036470E+02  0.51100000000E-03 0.  1.
         11    1    3    3    0    0  0.81914480157E+01 -0.57360880382E+01  0.28338243439E+01  0.10393896634E+02  0.51100000000E-03 0. -1.
<mgrwt>
<rscale>  0 0.20000314E+02</rscale>
<asrwt>0</asrwt>
<pdfrwt beam="1">  1        3 0.20300243E-02 0.20000314E+02</pdfrwt>
<pdfrwt beam="2">  1       -3 0.11659654E-02 0.20000314E+02</pdfrwt>
<totfact> 0.17834244E+06</totfact>
</mgrwt>
</event>
<event>
 5    1  0.4324276E-007  0.2000193E+02  0.7818608E-02  0.1745290E+00
          3   -1    0    0  501    0  0.00000000000E+00  0.00000000000E+00  0.11408408616E+02  0.11408787673E+02  0.93000000000E-01 0.  1.
         -3   -1    0    0    0  501 -0.00000000000E+00 -0.00000000000E+00 -0.87663808564E+01  0.87668741476E+01  0.93000000000E-01 0. -1.
       1023    2    1    2    0    0  0.00000000000E+00  0.00000000000E+00  0.26420277600E+01  0.20175661820E+02  0.20001925387E+02 0.  0.
        -11    1    3    3    0    0  0.94287180328E+01  0.33325464443E+01  0.14345302420E+01  0.10102696018E+02  0.51100000000E-03 0. -1.
         11    1    3    3    0    0 -0.94287180328E+01 -0.33325464443E+01  0.12074975180E+01  0.10072965803E+02  0.51100000000E-03 0.  1.
<mgrwt>
<rscale>  0 0.20001925E+02</rscale>
<asrwt>0</asrwt>
<pdfrwt beam="1">  1        3 0.17552069E-02 0.20001925E+02</pdfrwt>
<pdfrwt beam="2">  1       -3 0.13487411E-02 0.20001925E+02</pdfrwt>
<totfact> 0.17870323E+06</totfact>
</mgrwt>
</event>
<event>
 5    1  0.4133473E-007  0.2000003E+02  0.7818608E-02  0.1745327E+00
         -3   -1    0    0    0  501 -0.00000000000E+00  0.00000000000E+00  0.14652463106E+01  0.14681947250E+01  0.93000000000E-01 0.  1.
          3   -1    0    0  501    0  0.00000000000E+00 -0.00000000000E+00 -0.68176552575E+02  0.68176616006E+02  0.93000000000E-01 0. -1.
       1023    2    1    2    0    0  0.00000000000E+00  0.00000000000E+00 -0.66711306264E+02  0.69644810731E+02  0.20000031956E+02 0.  0.
        -11    1    3    3    0    0  0.99486587761E+01  0.10121663391E+01 -0.33373799947E+02  0.34839787820E+02  0.51100000000E-03 0. -1.
         11    1    3    3    0    0 -0.99486587761E+01 -0.10121663391E+01 -0.33337506317E+02  0.34805022911E+02  0.51100000000E-03 0.  1.
<mgrwt>
<rscale>  0 0.20000032E+02</rscale>
<asrwt>0</asrwt>
<pdfrwt beam="2">  1        3 0.10488930E-01 0.20000032E+02</pdfrwt>
<pdfrwt beam="1">  1       -3 0.22565424E-03 0.20000032E+02</pdfrwt>
<totfact> 0.15327790E+06</totfact>
</mgrwt>
</event>
<event>
 5    1  0.4133473E-007  0.2000272E+02  0.7818608E-02  0.1745274E+00
         -3   -1    0    0    0  501 -0.00000000000E+00  0.00000000000E+00  0.40127398057E+02  0.40127505827E+02  0.93000000000E-01 0.  1.
          3   -1    0    0  501    0  0.00000000000E+00 -0.00000000000E+00 -0.24917634179E+01  0.24934983318E+01  0.93000000000E-01 0. -1.
       1023    2    1    2    0    0  0.00000000000E+00  0.00000000000E+00  0.37635634640E+02  0.42621004158E+02  0.20002724833E+02 0.  0.
        -11    1    3    3    0    0 -0.91426587570E+01  0.40512281504E+01  0.18470358050E+02  0.21003685044E+02  0.51100000000E-03 0.  1.
         11    1    3    3    0    0  0.91426587570E+01 -0.40512281504E+01  0.19165276589E+02  0.21617319114E+02  0.51100000000E-03 0. -1.
<mgrwt>
<rscale>  0 0.20002725E+02</rscale>
<asrwt>0</asrwt>
<pdfrwt beam="2">  1        3 0.38348999E-03 0.20002725E+02</pdfrwt>
<pdfrwt beam="1">  1       -3 0.61735872E-02 0.20002725E+02</pdfrwt>
<totfact> 0.16572766E+06</totfact>
</mgrwt>
</event>
<event>
 5    1  0.4133473E-007  0.2000034E+02  0.7818608E-02  0.1745321E+00
          3   -1    0    0  501    0  0.00000000000E+00  0.00000000000E+00  0.25928692590E+02  0.25928859374E+02  0.93000000000E-01 0. -1.
         -3   -1    0    0    0  501 -0.00000000000E+00 -0.00000000000E+00 -0.38561206592E+01  0.38572419600E+01  0.93000000000E-01 0.  1.
       1023    2    1    2    0    0  0.00000000000E+00  0.00000000000E+00  0.22072571931E+02  0.29786101334E+02  0.20000335023E+02 0.  0.
        -11    1    3    3    0    0 -0.12134987348E+01  0.99261260859E+01  0.10957596925E+02  0.14834739259E+02  0.51100000000E-03 0.  1.
         11    1    3    3    0    0  0.12134987348E+01 -0.99261260859E+01  0.11114975007E+02  0.14951362076E+02  0.51100000000E-03 0. -1.
<mgrwt>
<rscale>  0 0.20000335E+02</rscale>
<asrwt>0</asrwt>
<pdfrwt beam="1">  1        3 0.39891287E-02 0.20000335E+02</pdfrwt>
<pdfrwt beam="2">  1       -3 0.59334841E-03 0.20000335E+02</pdfrwt>
<totfact> 0.17278263E+06</totfact>
</mgrwt>
</event>
<event>
 5    1  0.4133473E-007  0.2000714E+02  0.7818608E-02  0.1745186E+00
         -3   -1    0    0    0  501 -0.00000000000E+00  0.00000000000E+00  0.27218968477E+02  0.27219127355E+02  0.93000000000E-01 0.  1.
          3   -1    0    0  501    0  0.00000000000E+00 -0.00000000000E+00 -0.36757731424E+01  0.36769494414E+01  0.93000000000E-01 0. -1.
       1023    2    1    2    0    0  0.00000000000E+00  0.00000000000E+00  0.23543195334E+02  0.30896076796E+02  0.20007136597E+02 0.  0.
        -11    1    3    3    0    0 -0.85264850375E+01 -0.52309430481E+01  0.11636387969E+02  0.15345006924E+02  0.51100000000E-03 0.  1.
         11    1    3    3    0    0  0.85264850375E+01  0.52309430481E+01  0.11906807365E+02  0.15551069872E+02  0.51100000000E-03 0. -1.
<mgrwt>
<rscale>  0 0.20007137E+02</rscale>
<asrwt>0</asrwt>
<pdfrwt beam="2">  1        3 0.56560624E-03 0.20007137E+02</pdfrwt>
<pdfrwt beam="1">  1       -3 0.41876365E-02 0.20007137E+02</pdfrwt>
<totfact> 0.17202915E+06</totfact>
</mgrwt>
</event>
<event>
 5    1  0.4180365E-007  0.2000062E+02  0.7818608E-02  0.1745316E+00
         -3   -1    0    0    0  501 -0.00000000000E+00  0.00000000000E+00  0.77313931413E+01  0.77319524640E+01  0.93000000000E-01 0.  1.
          3   -1    0    0  501    0  0.00000000000E+00 -0.00000000000E+00 -0.12933884505E+02  0.12934218855E+02  0.93000000000E-01 0. -1.
       1023    2    1    2    0    0  0.00000000000E+00  0.00000000000E+00 -0.52024913634E+01  0.20666171319E+02  0.20000618005E+02 0.  0.
        -11    1    3    3    0    0  0.72332868312E+01 -0.69054837656E+01 -0.25950922998E+01  0.10331536610E+02  0.51100000000E-03 0.  1.
         11    1    3    3    0    0 -0.72332868312E+01  0.69054837656E+01 -0.26073990636E+01  0.10334634709E+02  0.51100000000E-03 0. -1.
<mgrwt>
<rscale>  0 0.20000618E+02</rscale>
<asrwt>0</asrwt>
<pdfrwt beam="2">  1        3 0.19898971E-02 0.20000618E+02</pdfrwt>
<pdfrwt beam="1">  1       -3 0.11895138E-02 0.20000618E+02</pdfrwt>
<totfact> 0.17840699E+06</totfact>
</mgrwt>
</event>
<event>
 5    1  0.4133473E-007  0.2000068E+02  0.7818608E-02  0.1745314E+00
         -3   -1    0    0    0  501 -0.00000000000E+00  0.00000000000E+00  0.10593880125E+03  0.10593884207E+03  0.93000000000E-01 0.  1.
          3   -1    0    0  501    0  0.00000000000E+00 -0.00000000000E+00 -0.94167408847E+00  0.94625529794E+00  0.93000000000E-01 0. -1.
       1023    2    1    2    0    0  0.00000000000E+00  0.00000000000E+00  0.10499712716E+03  0.10688509736E+03  0.20000683171E+02 0.  0.
        -11    1    3    3    0    0 -0.84605411420E+01 -0.53316098442E+01  0.52480344809E+02  0.53424651720E+02  0.51100000000E-03 0. -1.
         11    1    3    3    0    0  0.84605411420E+01  0.53316098442E+01  0.52516782349E+02  0.53460445644E+02  0.51100000000E-03 0.  1.
<mgrwt>
<rscale>  0 0.20000683E+02</rscale>
<asrwt>0</asrwt>
<pdfrwt beam="2">  1        3 0.14522850E-03 0.20000683E+02</pdfrwt>
<pdfrwt beam="1">  1       -3 0.16298630E-01 0.20000683E+02</pdfrwt>
<totfact> 0.13945822E+06</totfact>
</mgrwt>
</event>
<event>
 5    1  0.4351685E-007  0.2000134E+02  0.7818608E-02  0.1745301E+00
          3   -1    0    0  501    0  0.00000000000E+00  0.00000000000E+00  0.45952549660E+01  0.45961959491E+01  0.93000000000E-01 0.  1.
         -3   -1    0    0    0  501 -0.00000000000E+00 -0.00000000000E+00 -0.21761219392E+02  0.21761418116E+02  0.93000000000E-01 0. -1.
       1023    2    1    2    0    0  0.00000000000E+00  0.00000000000E+00 -0.17165964426E+02  0.26357614066E+02  0.20001337069E+02 0.  0.
        -11    1    3    3    0    0  0.41939029287E+01  0.90784696963E+01 -0.86845213097E+01  0.13244936559E+02  0.51100000000E-03 0. -1.
         11    1    3    3    0    0 -0.41939029287E+01 -0.90784696963E+01 -0.84814431167E+01  0.13112677507E+02  0.51100000000E-03 0.  1.
<mgrwt>
<rscale>  0 0.20001337E+02</rscale>
<asrwt>0</asrwt>
<pdfrwt beam="1">  1        3 0.70704998E-03 0.20001337E+02</pdfrwt>
<pdfrwt beam="2">  1       -3 0.33479675E-02 0.20001337E+02</pdfrwt>
<totfact> 0.17482205E+06</totfact>
</mgrwt>
</event>
<event>
 5    1  0.4133473E-007  0.2000328E+02  0.7818608E-02  0.1745263E+00
          3   -1    0    0  501    0  0.00000000000E+00  0.00000000000E+00  0.92112814071E+00  0.92581102370E+00  0.93000000000E-01 0. -1.
         -3   -1    0    0    0  501 -0.00000000000E+00 -0.00000000000E+00 -0.10831805426E+03  0.10831809418E+03  0.93000000000E-01 0.  1.
       1023    2    1    2    0    0  0.00000000000E+00  0.00000000000E+00 -0.10739692612E+03  0.10924390521E+03  0.20003276861E+02 0.  0.
        -11    1    3    3    0    0 -0.61100996912E+01 -0.79177801044E+01 -0.53203589231E+02  0.54135445573E+02  0.51100000000E-03 0. -1.
         11    1    3    3    0    0  0.61100996912E+01  0.79177801044E+01 -0.54193336888E+02  0.55108459635E+02  0.51100000000E-03 0.  1.
<mgrwt>
<rscale>  0 0.20003277E+02</rscale>
<asrwt>0</asrwt>
<pdfrwt beam="1">  1        3 0.14207540E-03 0.20003277E+02</pdfrwt>
<pdfrwt beam="2">  1       -3 0.16664669E-01 0.20003277E+02</pdfrwt>
<totfact> 0.13863732E+06</totfact>
</mgrwt>
</event>
<event>
 4    1  0.4133473E-007  0.2002538E+02  0.7818608E-02  0.1744824E+00
         -3   -1    0    0    0  501 -0.00000000000E+00  0.00000000000E+00  0.57948083703E+01  0.57955545936E+01  0.93000000000E-01 0.  1.
          3   -1    0    0  501    0  0.00000000000E+00 -0.00000000000E+00 -0.17298668616E+02  0.17298918604E+02  0.93000000000E-01 0. -1.
        -11    1    1    2    0    0  0.58779306638E+01 -0.81022646180E+01 -0.54760818607E+01  0.11409830570E+02  0.51100000000E-03 0. -1.
         11    1    1    2    0    0 -0.58779306638E+01  0.81022646180E+01 -0.60277783849E+01  0.11684642628E+02  0.51100000000E-03 0.  1.
<mgrwt>
<rscale>  0 0.20025381E+02</rscale>
<asrwt>0</asrwt>
<pdfrwt beam="2">  1        3 0.26614102E-02 0.20025381E+02</pdfrwt>
<pdfrwt beam="1">  1       -3 0.89158562E-03 0.20025381E+02</pdfrwt>
<totfact> 0.17637486E+06</totfact>
</mgrwt>
</event>
<event>
 5    1  0.4133473E-007  0.2000972E+02  0.7818608E-02  0.1745135E+00
         -3   -1    0    0    0  501 -0.00000000000E+00  0.00000000000E+00  0.57787162394E+01  0.57794645406E+01  0.93000000000E-01 0.  1.
          3   -1    0    0  501    0  0.00000000000E+00 -0.00000000000E+00 -0.17319703072E+02  0.17319952757E+02  0.93000000000E-01 0. -1.
       1023    2    1    2    0    0  0.00000000000E+00  0.00000000000E+00 -0.11540986832E+02  0.23099417297E+02  0.20009715201E+02 0.  0.
        -11    1    3    3    0    0  0.85488367972E+01 -0.51952998195E+01 -0.59471767841E+01  0.11637983621E+02  0.51100000000E-03 0.  1.
         11    1    3    3    0    0 -0.85488367972E+01  0.51952998195E+01 -0.55938100483E+01  0.11461433676E+02  0.51100000000E-03 0. -1.
<mgrwt>
<rscale>  0 0.20009715E+02</rscale>
<asrwt>0</asrwt>
<pdfrwt beam="2">  1        3 0.26646464E-02 0.20009715E+02</pdfrwt>
<pdfrwt beam="1">  1       -3 0.88911004E-03 0.20009715E+02</pdfrwt>
<totfact> 0.17666931E+06</totfact>
</mgrwt>
</event>
<event>
 5    1  0.4133473E-007  0.2000062E+02  0.7818608E-02  0.1745316E+00
          3   -1    0    0  501    0  0.00000000000E+00  0.00000000000E+00  0.26715253592E+02  0.26715415465E+02  0.93000000000E-01 0. -1.
         -3   -1    0    0    0  501 -0.00000000000E+00 -0.00000000000E+00 -0.37426620391E+01  0.37438173218E+01  0.93000000000E-01 0.  1.
       1023    2    1    2    0    0  0.00000000000E+00  0.00000000000E+00  0.22972591553E+02  0.30459232787E+02  0.20000622473E+02 0.  0.
        -11    1    3    3    0    0  0.28111320555E+01 -0.95970560868E+01  0.11461013471E+02  0.15210548281E+02  0.51100000000E-03 0.  1.
         11    1    3    3    0    0 -0.28111320555E+01  0.95970560868E+01  0.11511578082E+02  0.15248684506E+02  0.51100000000E-03 0. -1.
<mgrwt>
<rscale>  0 0.20000622E+02</rscale>
<asrwt>0</asrwt>
<pdfrwt beam="1">  1        3 0.41101402E-02 0.20000622E+02</pdfrwt>
<pdfrwt beam="2">  1       -3 0.57589550E-03 0.20000622E+02</pdfrwt>
<totfact> 0.17238516E+06</totfact>
</mgrwt>
</event>
<event>
 5    1  0.4133473E-007  0.2000307E+02  0.7818608E-02  0.1745267E+00
          3   -1    0    0  501    0  0.00000000000E+00  0.00000000000E+00  0.12577716413E+02  0.12578060230E+02  0.93000000000E-01 0.  1.
         -3   -1    0    0    0  501 -0.00000000000E+00 -0.00000000000E+00 -0.79522821225E+01  0.79528259101E+01  0.93000000000E-01 0. -1.
       1023    2    1    2    0    0  0.00000000000E+00  0.00000000000E+00  0.46254342903E+01  0.20530886141E+02  0.20003065849E+02 0.  0.
        -11    1    3    3    0    0 -0.68252869219E+01 -0.73104025217E+01  0.22467245418E+01  0.10250575497E+02  0.51100000000E-03 0.  1.
         11    1    3    3    0    0  0.68252869219E+01  0.73104025217E+01  0.23787097484E+01  0.10280310643E+02  0.51100000000E-03 0. -1.
<mgrwt>
<rscale>  0 0.20003066E+02</rscale>
<asrwt>0</asrwt>
<pdfrwt beam="1">  1        3 0.19351015E-02 0.20003066E+02</pdfrwt>
<pdfrwt beam="2">  1       -3 0.12234963E-02 0.20003066E+02</pdfrwt>
<totfact> 0.17844813E+06</totfact>
</mgrwt>
</event>
<event>
 5    1  0.4133473E-007  0.2000006E+02  0.7818608E-02  0.1745327E+00
          3   -1    0    0  501    0  0.00000000000E+00  0.00000000000E+00  0.40116678879E+02  0.40116786677E+02  0.93000000000E-01 0.  1.
         -3   -1    0    0    0  501 -0.00000000000E+00 -0.00000000000E+00 -0.24917656203E+01  0.24935005327E+01  0.93000000000E-01 0. -1.
       1023    2    1    2    0    0  0.00000000000E+00  0.00000000000E+00  0.37624913258E+02  0.42610287209E+02  0.20000061959E+02 0.  0.
        -11    1    3    3    0    0  0.42794221408E+01  0.90380893835E+01  0.18834367261E+02  0.21324490708E+02  0.51100000000E-03 0. -1.
         11    1    3    3    0    0 -0.42794221408E+01 -0.90380893835E+01  0.18790545997E+02  0.21285796502E+02  0.51100000000E-03 0.  1.
<mgrwt>
<rscale>  0 0.20000062E+02</rscale>
<asrwt>0</asrwt>
<pdfrwt beam="1">  1        3 0.61719379E-02 0.20000062E+02</pdfrwt>
<pdfrwt beam="2">  1       -3 0.38349034E-03 0.20000062E+02</pdfrwt>
<totfact> 0.16575722E+06</totfact>
</mgrwt>
</event>
<event>
 5    1  0.4133473E-007  0.2000288E+02  0.7818608E-02  0.1745271E+00
          3   -1    0    0  501    0  0.00000000000E+00  0.00000000000E+00  0.20129640392E+02  0.20129855223E+02  0.93000000000E-01 0.  1.
         -3   -1    0    0    0  501 -0.00000000000E+00 -0.00000000000E+00 -0.49685552256E+01  0.49694255231E+01  0.93000000000E-01 0. -1.
       1023    2    1    2    0    0  0.00000000000E+00  0.00000000000E+00  0.15161085166E+02  0.25099280747E+02  0.20002884556E+02 0.  0.
        -11    1    3    3    0    0 -0.90053776674E+01  0.43505393876E+01  0.76677250496E+01  0.12602302472E+02  0.51100000000E-03 0.  1.
         11    1    3    3    0    0  0.90053776674E+01 -0.43505393876E+01  0.74933601169E+01  0.12496978275E+02  0.51100000000E-03 0. -1.
<mgrwt>
<rscale>  0 0.20002885E+02</rscale>
<asrwt>0</asrwt>
<pdfrwt beam="1">  1        3 0.30969512E-02 0.20002885E+02</pdfrwt>
<pdfrwt beam="2">  1       -3 0.76447658E-03 0.20002885E+02</pdfrwt>
<totfact> 0.17555022E+06</totfact>
</mgrwt>
</event>
<event>
 5    1  0.4133473E-007  0.2000019E+02  0.7818608E-02  0.1745324E+00
          3   -1    0    0  501    0  0.00000000000E+00  0.00000000000E+00  0.83817531965E+01  0.83822691228E+01  0.93000000000E-01 0. -1.
         -3   -1    0    0    0  501 -0.00000000000E+00 -0.00000000000E+00 -0.11929843643E+02  0.11930206132E+02  0.93000000000E-01 0.  1.
       1023    2    1    2    0    0  0.00000000000E+00  0.00000000000E+00 -0.35480904469E+01  0.20312475255E+02  0.20000192628E+02 0.  0.
        -11    1    3    3    0    0 -0.18419852287E+01 -0.98289196827E+01 -0.17366695363E+01  0.10149709013E+02  0.51100000000E-03 0. -1.
         11    1    3    3    0    0  0.18419852287E+01  0.98289196827E+01 -0.18114209106E+01  0.10162766242E+02  0.51100000000E-03 0.  1.
<mgrwt>
<rscale>  0 0.20000193E+02</rscale>
<asrwt>0</asrwt>
<pdfrwt beam="1">  1        3 0.12895681E-02 0.20000193E+02</pdfrwt>
<pdfrwt beam="2">  1       -3 0.18354281E-02 0.20000193E+02</pdfrwt>
<totfact> 0.17864954E+06</totfact>
</mgrwt>
</event>
<event>
 5    1  0.4211870E-007  0.2000105E+02  0.7818608E-02  0.1745307E+00
         -3   -1    0    0    0  501 -0.00000000000E+00  0.00000000000E+00  0.20071997435E+01  0.20093530825E+01  0.93000000000E-01 0.  1.
          3   -1    0    0  501    0  0.00000000000E+00 -0.00000000000E+00 -0.49796955532E+02  0.49797042375E+02  0.93000000000E-01 0. -1.
       1023    2    1    2    0    0  0.00000000000E+00  0.00000000000E+00 -0.47789755789E+02  0.51806395457E+02  0.20001046271E+02 0.  0.
        -11    1    3    3    0    0 -0.22049178182E+01  0.97542975087E+01 -0.24023874460E+02  0.26022192967E+02  0.51100000000E-03 0. -1.
         11    1    3    3    0    0  0.22049178182E+01 -0.97542975087E+01 -0.23765881329E+02  0.25784202491E+02  0.51100000000E-03 0.  1.
<mgrwt>
<rscale>  0 0.20001046E+02</rscale>
<asrwt>0</asrwt>
<pdfrwt beam="2">  1        3 0.76612415E-02 0.20001046E+02</pdfrwt>
<pdfrwt beam="1">  1       -3 0.30897232E-03 0.20001046E+02</pdfrwt>
<totfact> 0.16118835E+06</totfact>
</mgrwt>
</event>
<event>
 5    1  0.4357643E-007  0.2000087E+02  0.7818608E-02  0.1745311E+00
         -3   -1    0    0    0  501 -0.00000000000E+00  0.00000000000E+00  0.59539165425E+01  0.59546428269E+01  0.93000000000E-01 0. -1.
          3   -1    0    0  501    0  0.00000000000E+00 -0.00000000000E+00 -0.16795252247E+02  0.16795509728E+02  0.93000000000E-01 0.  1.
       1023    2    1    2    0    0  0.00000000000E+00  0.00000000000E+00 -0.10841335704E+02  0.22750152555E+02  0.20000872017E+02 0.  0.
        -11    1    3    3    0    0  0.97393363234E+01  0.22695104054E+01 -0.54867050682E+01  0.11406545589E+02  0.51100000000E-03 0.  1.
         11    1    3    3    0    0 -0.97393363234E+01 -0.22695104054E+01 -0.53546306359E+01  0.11343606966E+02  0.51100000000E-03 0. -1.
<mgrwt>
<rscale>  0 0.20000872E+02</rscale>
<asrwt>0</asrwt>
<pdfrwt beam="2">  1        3 0.25839606E-02 0.20000872E+02</pdfrwt>
<pdfrwt beam="1">  1       -3 0.91606284E-03 0.20000872E+02</pdfrwt>
<totfact> 0.17705898E+06</totfact>
</mgrwt>
</event>
<event>
 5    1  0.4133473E-007  0.2000094E+02  0.7818608E-02  0.1745309E+00
         -3   -1    0    0    0  501 -0.00000000000E+00  0.00000000000E+00  0.62560050051E+02  0.62560119176E+02  0.93000000000E-01 0.  1.
          3   -1    0    0  501    0  0.00000000000E+00 -0.00000000000E+00 -0.15971914652E+01  0.15998967393E+01  0.93000000000E-01 0. -1.
       1023    2    1    2    0    0  0.00000000000E+00  0.00000000000E+00  0.60962858586E+02  0.64160015916E+02  0.20000937862E+02 0.  0.
        -11    1    3    3    0    0 -0.96062310997E+01  0.27785761347E+01  0.30173453876E+02  0.31787379262E+02  0.51100000000E-03 0. -1.
         11    1    3    3    0    0  0.96062310997E+01 -0.27785761347E+01  0.30789404710E+02  0.32372636654E+02  0.51100000000E-03 0.  1.
<mgrwt>
<rscale>  0 0.20000938E+02</rscale>
<asrwt>0</asrwt>
<pdfrwt beam="2">  1        3 0.24593519E-03 0.20000938E+02</pdfrwt>
<pdfrwt beam="1">  1       -3 0.96248363E-02 0.20000938E+02</pdfrwt>
<totfact> 0.15561974E+06</totfact>
</mgrwt>
</event>
<event>
 4    1  0.4133473E-007  0.2001625E+02  0.7818608E-02  0.1745005E+00
          3   -1    0    0  501    0  0.00000000000E+00  0.00000000000E+00  0.20016538588E+02  0.20016754633E+02  0.93000000000E-01 0. -1.
         -3   -1    0    0    0  501 -0.00000000000E+00 -0.00000000000E+00 -0.50033148562E+01  0.50041791085E+01  0.93000000000E-01 0.  1.
        -11    1    1    2    0    0 -0.74279456074E+01 -0.67070391428E+01  0.75837637113E+01  0.12556760024E+02  0.51100000000E-03 0. -1.
         11    1    1    2    0    0  0.74279456074E+01  0.67070391428E+01  0.74294600208E+01  0.12464173718E+02  0.51100000000E-03 0.  1.
<mgrwt>
<rscale>  0 0.20016249E+02</rscale>
<asrwt>0</asrwt>
<pdfrwt beam="1">  1        3 0.30795505E-02 0.20016249E+02</pdfrwt>
<pdfrwt beam="2">  1       -3 0.76982387E-03 0.20016249E+02</pdfrwt>
<totfact> 0.17534627E+06</totfact>
</mgrwt>
</event>
<event>
 5    1  0.4133473E-007  0.2000418E+02  0.7818608E-02  0.1745245E+00
          3   -1    0    0  501    0  0.00000000000E+00  0.00000000000E+00  0.75157871707E+01  0.75163625375E+01  0.93000000000E-01 0. -1.
         -3   -1    0    0    0  501 -0.00000000000E+00 -0.00000000000E+00 -0.13309639425E+02  0.13309964335E+02  0.93000000000E-01 0.  1.
       1023    2    1    2    0    0  0.00000000000E+00  0.00000000000E+00 -0.57938522539E+01  0.20826326873E+02  0.20004178740E+02 0.  0.
        -11    1    3    3    0    0 -0.16773289574E+01  0.98599953715E+01 -0.29948688625E+01  0.10440410956E+02  0.51100000000E-03 0.  1.
         11    1    3    3    0    0  0.16773289574E+01 -0.98599953715E+01 -0.27989833914E+01  0.10385915917E+02  0.51100000000E-03 0. -1.
<mgrwt>
<rscale>  0 0.20004179E+02</rscale>
<asrwt>0</asrwt>
<pdfrwt beam="1">  1        3 0.11563442E-02 0.20004179E+02</pdfrwt>
<pdfrwt beam="2">  1       -3 0.20477061E-02 0.20004179E+02</pdfrwt>
<totfact> 0.17823899E+06</totfact>
</mgrwt>
</event>
<event>
 4    1  0.4133473E-007  0.2002741E+02  0.7818608E-02  0.1744784E+00
         -3   -1    0    0    0  501 -0.00000000000E+00  0.00000000000E+00  0.54803047114E+02  0.54803126023E+02  0.93000000000E-01 0.  1.
          3   -1    0    0  501    0  0.00000000000E+00 -0.00000000000E+00 -0.18284590662E+01  0.18308226448E+01  0.93000000000E-01 0. -1.
        -11    1    1    2    0    0 -0.62249178359E+01 -0.78437344034E+01  0.26551717827E+02  0.28377235441E+02  0.51100000000E-03 0.  1.
         11    1    1    2    0    0  0.62249178359E+01  0.78437344034E+01  0.26422870221E+02  0.28256713227E+02  0.51100000000E-03 0. -1.
<mgrwt>
<rscale>  0 0.20027410E+02</rscale>
<asrwt>0</asrwt>
<pdfrwt beam="2">  1        3 0.28148928E-03 0.20027410E+02</pdfrwt>
<pdfrwt beam="1">  1       -3 0.84314258E-02 0.20027410E+02</pdfrwt>
<totfact> 0.15851588E+06</totfact>
</mgrwt>
</event>
<event>
 5    1  0.4133473E-007  0.2000410E+02  0.7818608E-02  0.1745247E+00
          3   -1    0    0  501    0  0.00000000000E+00  0.00000000000E+00  0.21767488345E+01  0.21787346072E+01  0.93000000000E-01 0.  1.
         -3   -1    0    0    0  501 -0.00000000000E+00 -0.00000000000E+00 -0.45935920998E+02  0.45936015140E+02  0.93000000000E-01 0. -1.
       1023    2    1    2    0    0  0.00000000000E+00  0.00000000000E+00 -0.43759172163E+02  0.48114749747E+02  0.20004099450E+02 0.  0.
        -11    1    3    3    0    0 -0.94614059941E+01 -0.32437588775E+01 -0.21948604218E+02  0.24120145158E+02  0.51100000000E-03 0. -1.
         11    1    3    3    0    0  0.94614059941E+01  0.32437588775E+01 -0.21810567945E+02  0.23994604589E+02  0.51100000000E-03 0.  1.
<mgrwt>
<rscale>  0 0.20004099E+02</rscale>
<asrwt>0</asrwt>
<pdfrwt beam="1">  1        3 0.33504446E-03 0.20004099E+02</pdfrwt>
<pdfrwt beam="2">  1       -3 0.70672241E-02 0.20004099E+02</pdfrwt>
<totfact> 0.16294289E+06</totfact>
</mgrwt>
</event>
<event>
 5    1  0.4133473E-007  0.2000013E+02  0.7818608E-02  0.1745325E+00
          3   -1    0    0  501    0  0.00000000000E+00  0.00000000000E+00  0.36892996443E+01  0.36904716318E+01  0.93000000000E-01 0.  1.
         -3   -1    0    0    0  501 -0.00000000000E+00 -0.00000000000E+00 -0.27100219907E+02  0.27100379481E+02  0.93000000000E-01 0. -1.
       1023    2    1    2    0    0  0.00000000000E+00  0.00000000000E+00 -0.23410920262E+02  0.30790851112E+02  0.20000133117E+02 0.  0.
        -11    1    3    3    0    0  0.45120692197E+01  0.89242008550E+01 -0.11758821476E+02  0.15435997289E+02  0.51100000000E-03 0. -1.
         11    1    3    3    0    0 -0.45120692197E+01 -0.89242008550E+01 -0.11652098787E+02  0.15354853824E+02  0.51100000000E-03 0.  1.
<mgrwt>
<rscale>  0 0.20000133E+02</rscale>
<asrwt>0</asrwt>
<pdfrwt beam="1">  1        3 0.56768701E-03 0.20000133E+02</pdfrwt>
<pdfrwt beam="2">  1       -3 0.41693669E-02 0.20000133E+02</pdfrwt>
<totfact> 0.17221951E+06</totfact>
</mgrwt>
</event>
<event>
 5    1  0.4133473E-007  0.2000044E+02  0.7818608E-02  0.1745319E+00
         -3   -1    0    0    0  501 -0.00000000000E+00  0.00000000000E+00  0.48414215817E+01  0.48423147287E+01  0.93000000000E-01 0.  1.
          3   -1    0    0  501    0  0.00000000000E+00 -0.00000000000E+00 -0.20653101168E+02  0.20653310555E+02  0.93000000000E-01 0. -1.
       1023    2    1    2    0    0  0.00000000000E+00  0.00000000000E+00 -0.15811679587E+02  0.25495625283E+02  0.20000442426E+02 0.  0.
        -11    1    3    3    0    0  0.99099917623E+01 -0.13388300702E+01 -0.79866772729E+01  0.12797945804E+02  0.51100000000E-03 0. -1.
         11    1    3    3    0    0 -0.99099917623E+01  0.13388300702E+01 -0.78250023138E+01  0.12697679479E+02  0.51100000000E-03 0.  1.
<mgrwt>
<rscale>  0 0.20000442E+02</rscale>
<asrwt>0</asrwt>
<pdfrwt beam="2">  1        3 0.31774849E-02 0.20000442E+02</pdfrwt>
<pdfrwt beam="1">  1       -3 0.74491891E-03 0.20000442E+02</pdfrwt>
<totfact> 0.17535214E+06</totfact>
</mgrwt>
</event>
<event>
 5    1  0.4212028E-007  0.2000069E+02  0.7818608E-02  0.1745314E+00
         -3   -1    0    0    0  501 -0.00000000000E+00  0.00000000000E+00  0.98920063845E+01  0.98924435460E+01  0.93000000000E-01 0.  1.
          3   -1    0    0  501    0  0.00000000000E+00 -0.00000000000E+00 -0.10108993234E+02  0.10109421013E+02  0.93000000000E-01 0. -1.
       1023    2    1    2    0    0  0.00000000000E+00  0.00000000000E+00 -0.21698684984E+00  0.20001864559E+02  0.20000687552E+02 0.  0.
        -11    1    3    3    0    0  0.91239816550E+01 -0.40933666632E+01 -0.17317715132E+00  0.10001633990E+02  0.51100000000E-03 0. -1.
         11    1    3    3    0    0 -0.91239816550E+01  0.40933666632E+01 -0.43809698521E-01  0.10000230569E+02  0.51100000000E-03 0.  1.
<mgrwt>
<rscale>  0 0.20000688E+02</rscale>
<asrwt>0</asrwt>
<pdfrwt beam="2">  1        3 0.15552963E-02 0.20000688E+02</pdfrwt>
<pdfrwt beam="1">  1       -3 0.15219137E-02 0.20000688E+02</pdfrwt>
<totfact> 0.17884173E+06</totfact>
</mgrwt>
</event>
<event>
 5    1  0.4133473E-007  0.2001221E+02  0.7818608E-02  0.1745085E+00
         -3   -1    0    0    0  501 -0.00000000000E+00  0.00000000000E+00  0.61216980540E+02  0.61217051182E+02  0.93000000000E-01 0.  1.
          3   -1    0    0  501    0  0.00000000000E+00 -0.00000000000E+00 -0.16341345673E+01  0.16367787828E+01  0.93000000000E-01 0. -1.
       1023    2    1    2    0    0  0.00000000000E+00  0.00000000000E+00  0.59582845973E+02  0.62853829965E+02  0.20012206451E+02 0.  0.
        -11    1    3    3    0    0 -0.64873299014E-01 -0.10002656166E+02  0.28992143125E+02  0.30669230544E+02  0.51100000000E-03 0.  1.
         11    1    3    3    0    0  0.64873299014E-01  0.10002656166E+02  0.30590702848E+02  0.32184599421E+02  0.51100000000E-03 0. -1.
<mgrwt>
<rscale>  0 0.20012206E+02</rscale>
<asrwt>0</asrwt>
<pdfrwt beam="2">  1        3 0.25161417E-03 0.20012206E+02</pdfrwt>
<pdfrwt beam="1">  1       -3 0.94182052E-02 0.20012206E+02</pdfrwt>
<totfact> 0.15599895E+06</totfact>
</mgrwt>
</event>
<event>
 5    1  0.4133473E-007  0.2000058E+02  0.7818608E-02  0.1745317E+00
          3   -1    0    0  501    0  0.00000000000E+00  0.00000000000E+00  0.21023164617E+01  0.21043724730E+01  0.93000000000E-01 0.  1.
         -3   -1    0    0    0  501 -0.00000000000E+00 -0.00000000000E+00 -0.47543978416E+02  0.47544069374E+02  0.93000000000E-01 0. -1.
       1023    2    1    2    0    0  0.00000000000E+00  0.00000000000E+00 -0.45441661954E+02  0.49648441847E+02  0.20000578408E+02 0.  0.
        -11    1    3    3    0    0  0.67475116955E+00 -0.99774827409E+01 -0.22675538373E+02  0.24782766023E+02  0.51100000000E-03 0. -1.
         11    1    3    3    0    0 -0.67475116955E+00  0.99774827409E+01 -0.22766123581E+02  0.24865675823E+02  0.51100000000E-03 0.  1.
<mgrwt>
<rscale>  0 0.20000578E+02</rscale>
<asrwt>0</asrwt>
<pdfrwt beam="1">  1        3 0.32359849E-03 0.20000578E+02</pdfrwt>
<pdfrwt beam="2">  1       -3 0.73146226E-02 0.20000578E+02</pdfrwt>
<totfact> 0.16225738E+06</totfact>
</mgrwt>
</event>
<event>
 5    1  0.4133473E-007  0.2000012E+02  0.7818608E-02  0.1745326E+00
          3   -1    0    0  501    0  0.00000000000E+00  0.00000000000E+00  0.11779879665E+02  0.11780246769E+02  0.93000000000E-01 0. -1.
         -3   -1    0    0    0  501 -0.00000000000E+00 -0.00000000000E+00 -0.84883950333E+01  0.84889044783E+01  0.93000000000E-01 0.  1.
       1023    2    1    2    0    0  0.00000000000E+00  0.00000000000E+00  0.32914846321E+01  0.20269151247E+02  0.20000115529E+02 0.  0.
        -11    1    3    3    0    0 -0.24508105744E+01 -0.96950699050E+01  0.16633572144E+01  0.10137436087E+02  0.51100000000E-03 0. -1.
         11    1    3    3    0    0  0.24508105744E+01  0.96950699050E+01  0.16281274177E+01  0.10131715160E+02  0.51100000000E-03 0.  1.
<mgrwt>
<rscale>  0 0.20000116E+02</rscale>
<asrwt>0</asrwt>
<pdfrwt beam="1">  1        3 0.18123566E-02 0.20000116E+02</pdfrwt>
<pdfrwt beam="2">  1       -3 0.13059744E-02 0.20000116E+02</pdfrwt>
<totfact> 0.17867638E+06</totfact>
</mgrwt>
</event>
<event>
 4    1  0.4133473E-007  0.2023649E+02  0.7818608E-02  0.1740666E+00
          3   -1    0    0  501    0  0.00000000000E+00  0.00000000000E+00  0.68371353459E+02  0.68371416709E+02  0.93000000000E-01 0. -1.
         -3   -1    0    0    0  501 -0.00000000000E+00 -0.00000000000E+00 -0.14958870507E+01  0.14987751894E+01  0.93000000000E-01 0.  1.
        -11    1    1    2    0    0  0.30686155830E+01 -0.96001558704E+01  0.30350462368E+02  0.31980149476E+02  0.51100000000E-03 0. -1.
         11    1    1    2    0    0 -0.30686155830E+01  0.96001558704E+01  0.36525004041E+02  0.37890042422E+02  0.51100000000E-03 0.  1.
<mgrwt>
<rscale>  0 0.20236494E+02</rscale>
<asrwt>0</asrwt>
<pdfrwt beam="1">  1        3 0.10518896E-01 0.20236494E+02</pdfrwt>
<pdfrwt beam="2">  1       -3 0.23036352E-03 0.20236494E+02</pdfrwt>
<totfact> 0.14936181E+06</totfact>
</mgrwt>
</event>
<event>
 5    1  0.4133473E-007  0.2001073E+02  0.7818608E-02  0.1745115E+00
          3   -1    0    0  501    0  0.00000000000E+00  0.00000000000E+00  0.30105255135E+02  0.30105398781E+02  0.93000000000E-01 0. -1.
         -3   -1    0    0    0  501 -0.00000000000E+00 -0.00000000000E+00 -0.33244416474E+01  0.33257422129E+01  0.93000000000E-01 0.  1.
       1023    2    1    2    0    0  0.00000000000E+00  0.00000000000E+00  0.26780813488E+02  0.33431140994E+02  0.20010727550E+02 0.  0.
        -11    1    3    3    0    0  0.13400837123E+01 -0.99147650568E+01  0.13232677242E+02  0.16589217514E+02  0.51100000000E-03 0.  1.
         11    1    3    3    0    0 -0.13400837123E+01  0.99147650568E+01  0.13548136246E+02  0.16841923480E+02  0.51100000000E-03 0. -1.
<mgrwt>
<rscale>  0 0.20010728E+02</rscale>
<asrwt>0</asrwt>
<pdfrwt beam="1">  1        3 0.46316890E-02 0.20010728E+02</pdfrwt>
<pdfrwt beam="2">  1       -3 0.51156364E-03 0.20010728E+02</pdfrwt>
<totfact> 0.17049987E+06</totfact>
</mgrwt>
</event>
<event>
 5    1  0.4133473E-007  0.2000025E+02  0.7818608E-02  0.1745323E+00
         -3   -1    0    0    0  501 -0.00000000000E+00  0.00000000000E+00  0.19866622103E+01  0.19888377857E+01  0.93000000000E-01 0.  1.
          3   -1    0    0  501    0  0.00000000000E+00 -0.00000000000E+00 -0.50307161852E+02  0.50307247814E+02  0.93000000000E-01 0. -1.
       1023    2    1    2    0    0  0.00000000000E+00  0.00000000000E+00 -0.48320499642E+02  0.52296085600E+02  0.20000247084E+02 0.  0.
        -11    1    3    3    0    0  0.78588112487E+01  0.61838859398E+01 -0.24247405877E+02  0.26228573190E+02  0.51100000000E-03 0. -1.
         11    1    3    3    0    0 -0.78588112487E+01 -0.61838859398E+01 -0.24073093765E+02  0.26067512410E+02  0.51100000000E-03 0.  1.
<mgrwt>
<rscale>  0 0.20000247E+02</rscale>
<asrwt>0</asrwt>
<pdfrwt beam="2">  1        3 0.77397363E-02 0.20000247E+02</pdfrwt>
<pdfrwt beam="1">  1       -3 0.30581434E-03 0.20000247E+02</pdfrwt>
<totfact> 0.16096983E+06</totfact>
</mgrwt>
</event>
<event>
 5    1  0.4133473E-007  0.2000093E+02  0.7818608E-02  0.1745310E+00
         -3   -1    0    0    0  501 -0.00000000000E+00  0.00000000000E+00  0.95484513913E+02  0.95484559203E+02  0.93000000000E-01 0. -1.
          3   -1    0    0  501    0  0.00000000000E+00 -0.00000000000E+00 -0.10452775547E+01  0.10494065781E+01  0.93000000000E-01 0.  1.
       1023    2    1    2    0    0  0.00000000000E+00  0.00000000000E+00  0.94439236359E+02  0.96533965782E+02  0.20000929616E+02 0.  0.
        -11    1    3    3    0    0 -0.44115427009E+01 -0.89748307376E+01  0.47216789753E+02  0.48264215839E+02  0.51100000000E-03 0. -1.
         11    1    3    3    0    0  0.44115427009E+01  0.89748307376E+01  0.47222446606E+02  0.48269749942E+02  0.51100000000E-03 0.  1.
<mgrwt>
<rscale>  0 0.20000930E+02</rscale>
<asrwt>0</asrwt>
<pdfrwt beam="2">  1        3 0.16113304E-03 0.20000930E+02</pdfrwt>
<pdfrwt beam="1">  1       -3 0.14690246E-01 0.20000930E+02</pdfrwt>
<totfact> 0.14300608E+06</totfact>
</mgrwt>
</event>
<event>
 4    1  0.4133473E-007  0.2019648E+02  0.7818608E-02  0.1741449E+00
          3   -1    0    0  501    0  0.00000000000E+00  0.00000000000E+00  0.19920440970E+02  0.19920658057E+02  0.93000000000E-01 0. -1.
         -3   -1    0    0    0  501 -0.00000000000E+00 -0.00000000000E+00 -0.51184166927E+01  0.51192615132E+01  0.93000000000E-01 0.  1.
        -11    1    1    2    0    0  0.31114139365E+01  0.95569435422E+01  0.61872924692E+01  0.11802485116E+02  0.51100000000E-03 0. -1.
         11    1    1    2    0    0 -0.31114139365E+01 -0.95569435422E+01  0.86147318079E+01  0.13237434454E+02  0.51100000000E-03 0.  1.
<mgrwt>
<rscale>  0 0.20196476E+02</rscale>
<asrwt>0</asrwt>
<pdfrwt beam="1">  1        3 0.30647649E-02 0.20196476E+02</pdfrwt>
<pdfrwt beam="2">  1       -3 0.78753041E-03 0.20196476E+02</pdfrwt>
<totfact> 0.17197981E+06</totfact>
</mgrwt>
</event>
<event>
 4    1  0.4133473E-007  0.2006251E+02  0.7818608E-02  0.1744088E+00
         -3   -1    0    0    0  501 -0.00000000000E+00  0.00000000000E+00  0.35573479363E+01  0.35585633814E+01  0.93000000000E-01 0. -1.
          3   -1    0    0  501    0  0.00000000000E+00 -0.00000000000E+00 -0.28280715070E+02  0.28280867983E+02  0.93000000000E-01 0.  1.
        -11    1    1    2    0    0 -0.98839140886E+01  0.15198422452E+01 -0.13615772103E+02  0.16893517348E+02  0.51100000000E-03 0.  1.
         11    1    1    2    0    0  0.98839140886E+01 -0.15198422452E+01 -0.11107595031E+02  0.14945914017E+02  0.51100000000E-03 0. -1.
<mgrwt>
<rscale>  0 0.20062515E+02</rscale>
<asrwt>0</asrwt>
<pdfrwt beam="2">  1        3 0.43509844E-02 0.20062515E+02</pdfrwt>
<pdfrwt beam="1">  1       -3 0.54738957E-03 0.20062515E+02</pdfrwt>
<totfact> 0.17045234E+06</totfact>
</mgrwt>
</event>
<event>
 5    1  0.4185314E-007  0.2000081E+02  0.7818608E-02  0.1745312E+00
         -3   -1    0    0    0  501 -0.00000000000E+00  0.00000000000E+00  0.39607847877E+02  0.39607957059E+02  0.93000000000E-01 0. -1.
          3   -1    0    0  501    0  0.00000000000E+00 -0.00000000000E+00 -0.25239873309E+01  0.25257001102E+01  0.93000000000E-01 0.  1.
       1023    2    1    2    0    0  0.00000000000E+00  0.00000000000E+00  0.37083860546E+02  0.42133657170E+02  0.20000808821E+02 0.  0.
        -11    1    3    3    0    0  0.92100257718E+01  0.38957276726E+01  0.18715891098E+02  0.21219939883E+02  0.51100000000E-03 0. -1.
         11    1    3    3    0    0 -0.92100257718E+01 -0.38957276726E+01  0.18367969448E+02  0.20913717286E+02  0.51100000000E-03 0.  1.
<mgrwt>
<rscale>  0 0.20000809E+02</rscale>
<asrwt>0</asrwt>
<pdfrwt beam="2">  1        3 0.38844592E-03 0.20000809E+02</pdfrwt>
<pdfrwt beam="1">  1       -3 0.60936548E-02 0.20000809E+02</pdfrwt>
<totfact> 0.16601314E+06</totfact>
</mgrwt>
</event>
<event>
 5    1  0.4311412E-007  0.2000154E+02  0.7818608E-02  0.1745297E+00
          3   -1    0    0  501    0  0.00000000000E+00  0.00000000000E+00  0.15399751843E+02  0.15400032657E+02  0.93000000000E-01 0.  1.
         -3   -1    0    0    0  501 -0.00000000000E+00 -0.00000000000E+00 -0.64939402425E+01  0.64946061369E+01  0.93000000000E-01 0. -1.
       1023    2    1    2    0    0  0.00000000000E+00  0.00000000000E+00  0.89058116006E+01  0.21894638794E+02  0.20001543131E+02 0.  0.
        -11    1    3    3    0    0 -0.15375053797E+01 -0.98818684383E+01  0.44380160428E+01  0.10941262874E+02  0.51100000000E-03 0.  1.
         11    1    3    3    0    0  0.15375053797E+01  0.98818684383E+01  0.44677955579E+01  0.10953375919E+02  0.51100000000E-03 0. -1.
<mgrwt>
<rscale>  0 0.20001543E+02</rscale>
<asrwt>0</asrwt>
<pdfrwt beam="1">  1        3 0.23692654E-02 0.20001543E+02</pdfrwt>
<pdfrwt beam="2">  1       -3 0.99914055E-03 0.20001543E+02</pdfrwt>
<totfact> 0.17759254E+06</totfact>
</mgrwt>
</event>
<event>
 5    1  0.4281287E-007  0.2000210E+02  0.7818608E-02  0.1745286E+00
         -3   -1    0    0    0  501 -0.00000000000E+00  0.00000000000E+00  0.21716123748E+02  0.21716322885E+02  0.93000000000E-01 0.  1.
          3   -1    0    0  501    0  0.00000000000E+00 -0.00000000000E+00 -0.46051513638E+01  0.46060903252E+01  0.93000000000E-01 0. -1.
       1023    2    1    2    0    0  0.00000000000E+00  0.00000000000E+00  0.17110972385E+02  0.26322413210E+02  0.20002101421E+02 0.  0.
        -11    1    3    3    0    0  0.73551651970E+00  0.99735162779E+01  0.86803559358E+01  0.13242378598E+02  0.51100000000E-03 0. -1.
         11    1    3    3    0    0 -0.73551651970E+00 -0.99735162779E+01  0.84306164487E+01  0.13080034612E+02  0.51100000000E-03 0.  1.
<mgrwt>
<rscale>  0 0.20002101E+02</rscale>
<asrwt>0</asrwt>
<pdfrwt beam="2">  1        3 0.70857238E-03 0.20002101E+02</pdfrwt>
<pdfrwt beam="1">  1       -3 0.33410296E-02 0.20002101E+02</pdfrwt>
<totfact> 0.17482903E+06</totfact>
</mgrwt>
</event>
<event>
 5    1  0.4261600E-007  0.2000106E+02  0.7818608E-02  0.1745307E+00
         -3   -1    0    0    0  501 -0.00000000000E+00  0.00000000000E+00  0.19554954185E+02  0.19555175330E+02  0.93000000000E-01 0.  1.
          3   -1    0    0  501    0  0.00000000000E+00 -0.00000000000E+00 -0.51136612048E+01  0.51145068107E+01  0.93000000000E-01 0. -1.
       1023    2    1    2    0    0  0.00000000000E+00  0.00000000000E+00  0.14441292981E+02  0.24669682141E+02  0.20001056822E+02 0.  0.
        -11    1    3    3    0    0  0.62088226423E+01 -0.78390604199E+01  0.73453460775E+01  0.12407838496E+02  0.51100000000E-03 0. -1.
         11    1    3    3    0    0 -0.62088226423E+01  0.78390604199E+01  0.70959469032E+01  0.12261843645E+02  0.51100000000E-03 0.  1.
<mgrwt>
<rscale>  0 0.20001057E+02</rscale>
<asrwt>0</asrwt>
<pdfrwt beam="2">  1        3 0.78679916E-03 0.20001057E+02</pdfrwt>
<pdfrwt beam="1">  1       -3 0.30085366E-02 0.20001057E+02</pdfrwt>
<totfact> 0.17586272E+06</totfact>
</mgrwt>
</event>
<event>
 5    1  0.4133473E-007  0.2000296E+02  0.7818608E-02  0.1745269E+00
         -3   -1    0    0    0  501 -0.00000000000E+00  0.00000000000E+00  0.30867456811E+01  0.30881463533E+01  0.93000000000E-01 0.  1.
          3   -1    0    0  501    0  0.00000000000E+00 -0.00000000000E+00 -0.32397354404E+02  0.32397487887E+02  0.93000000000E-01 0. -1.
       1023    2    1    2    0    0  0.00000000000E+00  0.00000000000E+00 -0.29310608723E+02  0.35485634240E+02  0.20002961124E+02 0.  0.
        -11    1    3    3    0    0  0.95559425824E+01 -0.29479741792E+01 -0.14386127907E+02  0.17520481352E+02  0.51100000000E-03 0.  1.
         11    1    3    3    0    0 -0.95559425824E+01  0.29479741792E+01 -0.14924480816E+02  0.17965152888E+02  0.51100000000E-03 0. -1.
<mgrwt>
<rscale>  0 0.20002961E+02</rscale>
<asrwt>0</asrwt>
<pdfrwt beam="2">  1        3 0.49843262E-02 0.20002961E+02</pdfrwt>
<pdfrwt beam="1">  1       -3 0.47500198E-03 0.20002961E+02</pdfrwt>
<totfact> 0.16949824E+06</totfact>
</mgrwt>
</event>
<event>
 5    1  0.4133473E-007  0.2000053E+02  0.7818608E-02  0.1745318E+00
         -3   -1    0    0    0  501 -0.00000000000E+00  0.00000000000E+00  0.73188167722E+02  0.73188226810E+02  0.93000000000E-01 0. -1.
          3   -1    0    0  501    0  0.00000000000E+00 -0.00000000000E+00 -0.13647713427E+01  0.13679363355E+01  0.93000000000E-01 0.  1.
       1023    2    1    2    0    0  0.00000000000E+00  0.00000000000E+00  0.71823396380E+02  0.74556163145E+02  0.20000529879E+02 0.  0.
        -11    1    3    3    0    0  0.95693826488E+01  0.29033179089E+01  0.35708908134E+02  0.37082724543E+02  0.51100000000E-03 0.  1.
         11    1    3    3    0    0 -0.95693826488E+01 -0.29033179089E+01  0.36114488246E+02  0.37473438602E+02  0.51100000000E-03 0. -1.
<mgrwt>
<rscale>  0 0.20000530E+02</rscale>
<asrwt>0</asrwt>
<pdfrwt beam="2">  1        3 0.21021289E-03 0.20000530E+02</pdfrwt>
<pdfrwt beam="1">  1       -3 0.11259963E-01 0.20000530E+02</pdfrwt>
<totfact> 0.15128785E+06</totfact>
</mgrwt>
</event>
<event>
 5    1  0.4133473E-007  0.2000066E+02  0.7818608E-02  0.1745315E+00
          3   -1    0    0  501    0  0.00000000000E+00  0.00000000000E+00  0.65726684072E+02  0.65726749867E+02  0.93000000000E-01 0.  1.
         -3   -1    0    0    0  501 -0.00000000000E+00 -0.00000000000E+00 -0.15200652326E+01  0.15229075189E+01  0.93000000000E-01 0. -1.
       1023    2    1    2    0    0  0.00000000000E+00  0.00000000000E+00  0.64206618839E+02  0.67249657386E+02  0.20000662883E+02 0.  0.
        -11    1    3    3    0    0 -0.99178369936E+01 -0.12814204948E+01  0.31991814409E+02  0.33518378818E+02  0.51100000000E-03 0. -1.
         11    1    3    3    0    0  0.99178369936E+01  0.12814204948E+01  0.32214804430E+02  0.33731278568E+02  0.51100000000E-03 0.  1.
<mgrwt>
<rscale>  0 0.20000663E+02</rscale>
<asrwt>0</asrwt>
<pdfrwt beam="1">  1        3 0.10112017E-01 0.20000663E+02</pdfrwt>
<pdfrwt beam="2">  1       -3 0.23407998E-03 0.20000663E+02</pdfrwt>
<totfact> 0.15427325E+06</totfact>
</mgrwt>
</event>
<event>
 5    1  0.4226130E-007  0.2000181E+02  0.7818608E-02  0.1745292E+00
         -3   -1    0    0    0  501 -0.00000000000E+00  0.00000000000E+00  0.96345898687E+01  0.96350387097E+01  0.93000000000E-01 0. -1.
          3   -1    0    0  501    0  0.00000000000E+00 -0.00000000000E+00 -0.10380253109E+02  0.10380669709E+02  0.93000000000E-01 0.  1.
       1023    2    1    2    0    0  0.00000000000E+00  0.00000000000E+00 -0.74566324012E+00  0.20015708418E+02  0.20001814163E+02 0.  0.
        -11    1    3    3    0    0 -0.96246552502E+01  0.27172480724E+01 -0.34604693646E+00  0.10006856375E+02  0.51100000000E-03 0.  1.
         11    1    3    3    0    0  0.96246552502E+01 -0.27172480724E+01 -0.39961630365E+00  0.10008852043E+02  0.51100000000E-03 0. -1.
<mgrwt>
<rscale>  0 0.20001814E+02</rscale>
<asrwt>0</asrwt>
<pdfrwt beam="2">  1        3 0.15970286E-02 0.20001814E+02</pdfrwt>
<pdfrwt beam="1">  1       -3 0.14823112E-02 0.20001814E+02</pdfrwt>
<totfact> 0.17881077E+06</totfact>
</mgrwt>
</event>
<event>
 4    1  0.4133473E-007  0.2004283E+02  0.7818608E-02  0.1744478E+00
          3   -1    0    0  501    0  0.00000000000E+00  0.00000000000E+00  0.17769610884E+01  0.17793930734E+01  0.93000000000E-01 0. -1.
         -3   -1    0    0    0  501 -0.00000000000E+00 -0.00000000000E+00 -0.56476006858E+02  0.56476083431E+02  0.93000000000E-01 0.  1.
        -11    1    1    2    0    0  0.73156127151E+01 -0.68460624880E+01 -0.26754053223E+02  0.28568621337E+02  0.51100000000E-03 0.  1.
         11    1    1    2    0    0 -0.73156127151E+01  0.68460624880E+01 -0.27944992547E+02  0.29686855167E+02  0.51100000000E-03 0. -1.
<mgrwt>
<rscale>  0 0.20042828E+02</rscale>
<asrwt>0</asrwt>
<pdfrwt beam="1">  1        3 0.27357164E-03 0.20042828E+02</pdfrwt>
<pdfrwt beam="2">  1       -3 0.86888080E-02 0.20042828E+02</pdfrwt>
<totfact> 0.15752096E+06</totfact>
</mgrwt>
</event>
<event>
 5    1  0.4133473E-007  0.2000060E+02  0.7818608E-02  0.1745316E+00
          3   -1    0    0  501    0  0.00000000000E+00  0.00000000000E+00  0.89662029720E+00  0.90143050611E+00  0.93000000000E-01 0. -1.
         -3   -1    0    0    0  501 -0.00000000000E+00 -0.00000000000E+00 -0.11123336585E+03  0.11123340473E+03  0.93000000000E-01 0.  1.
       1023    2    1    2    0    0  0.00000000000E+00  0.00000000000E+00 -0.11033674555E+03  0.11213483523E+03  0.20000596334E+02 0.  0.
        -11    1    3    3    0    0 -0.71970101888E+01  0.69432368241E+01 -0.55289910085E+02  0.56187006067E+02  0.51100000000E-03 0. -1.
         11    1    3    3    0    0  0.71970101888E+01 -0.69432368241E+01 -0.55046835468E+02  0.55947829167E+02  0.51100000000E-03 0.  1.
<mgrwt>
<rscale>  0 0.20000596E+02</rscale>
<asrwt>0</asrwt>
<pdfrwt beam="1">  1        3 0.13831468E-03 0.20000596E+02</pdfrwt>
<pdfrwt beam="2">  1       -3 0.17113188E-01 0.20000596E+02</pdfrwt>
<totfact> 0.13773144E+06</totfact>
</mgrwt>
</event>
<event>
 5    1  0.4133473E-007  0.2000053E+02  0.7818608E-02  0.1745318E+00
          3   -1    0    0  501    0  0.00000000000E+00  0.00000000000E+00  0.33061196755E+02  0.33061327558E+02  0.93000000000E-01 0. -1.
         -3   -1    0    0    0  501 -0.00000000000E+00 -0.00000000000E+00 -0.30240024591E+01  0.30254321795E+01  0.93000000000E-01 0.  1.
       1023    2    1    2    0    0  0.00000000000E+00  0.00000000000E+00  0.30037194296E+02  0.36086759738E+02  0.20000529672E+02 0.  0.
        -11    1    3    3    0    0 -0.99528656551E+01 -0.97227656052E+00  0.15056447218E+02  0.18074884772E+02  0.51100000000E-03 0. -1.
         11    1    3    3    0    0  0.99528656551E+01  0.97227656052E+00  0.14980747079E+02  0.18011874965E+02  0.51100000000E-03 0.  1.
<mgrwt>
<rscale>  0 0.20000530E+02</rscale>
<asrwt>0</asrwt>
<pdfrwt beam="1">  1        3 0.50864577E-02 0.20000530E+02</pdfrwt>
<pdfrwt beam="2">  1       -3 0.46535121E-03 0.20000530E+02</pdfrwt>
<totfact> 0.16921236E+06</totfact>
</mgrwt>
</event>
<event>
 5    1  0.4231817E-007  0.2000125E+02  0.7818608E-02  0.1745303E+00
          3   -1    0    0  501    0  0.00000000000E+00  0.00000000000E+00  0.37565709095E+01  0.37577219160E+01  0.93000000000E-01 0. -1.
         -3   -1    0    0    0  501 -0.00000000000E+00 -0.00000000000E+00 -0.26618027587E+02  0.26618190051E+02  0.93000000000E-01 0.  1.
       1023    2    1    2    0    0  0.00000000000E+00  0.00000000000E+00 -0.22861456677E+02  0.30375911967E+02  0.20001245622E+02 0.  0.
        -11    1    3    3    0    0 -0.96994891226E+01  0.24343043027E+01 -0.11308007595E+02  0.15095594149E+02  0.51100000000E-03 0.  1.
         11    1    3    3    0    0  0.96994891226E+01 -0.24343043027E+01 -0.11553449082E+02  0.15280317819E+02  0.51100000000E-03 0. -1.
<mgrwt>
<rscale>  0 0.20001246E+02</rscale>
<asrwt>0</asrwt>
<pdfrwt beam="1">  1        3 0.57803504E-03 0.20001246E+02</pdfrwt>
<pdfrwt beam="2">  1       -3 0.40951821E-02 0.20001246E+02</pdfrwt>
<totfact> 0.17243905E+06</totfact>
</mgrwt>
</event>
<event>
 5    1  0.4133473E-007  0.2000414E+02  0.7818608E-02  0.1745246E+00
         -3   -1    0    0    0  501 -0.00000000000E+00  0.00000000000E+00  0.15516116877E+02  0.15516395585E+02  0.93000000000E-01 0. -1.
          3   -1    0    0  501    0  0.00000000000E+00 -0.00000000000E+00 -0.64469070756E+01  0.64475778275E+01  0.93000000000E-01 0.  1.
       1023    2    1    2    0    0  0.00000000000E+00  0.00000000000E+00  0.90692098015E+01  0.21963973412E+02  0.20004138613E+02 0.  0.
        -11    1    3    3    0    0  0.99359109602E+01  0.11478373521E+01  0.45775936956E+01  0.10999737338E+02  0.51100000000E-03 0.  1.
         11    1    3    3    0    0 -0.99359109602E+01 -0.11478373521E+01  0.44916161059E+01  0.10964236075E+02  0.51100000000E-03 0. -1.
<mgrwt>
<rscale>  0 0.20004139E+02</rscale>
<asrwt>0</asrwt>
<pdfrwt beam="2">  1        3 0.99190490E-03 0.20004139E+02</pdfrwt>
<pdfrwt beam="1">  1       -3 0.23871679E-02 0.20004139E+02</pdfrwt>
<totfact> 0.17750621E+06</totfact>
</mgrwt>
</event>
<event>
 5    1  0.4134206E-007  0.2000171E+02  0.7818608E-02  0.1745294E+00
          3   -1    0    0  501    0  0.00000000000E+00  0.00000000000E+00  0.25482539426E+02  0.25482709130E+02  0.93000000000E-01 0. -1.
         -3   -1    0    0    0  501 -0.00000000000E+00 -0.00000000000E+00 -0.39241930618E+01  0.39252949171E+01  0.93000000000E-01 0.  1.
       1023    2    1    2    0    0  0.00000000000E+00  0.00000000000E+00  0.21558346364E+02  0.29408004047E+02  0.20001710028E+02 0.  0.
        -11    1    3    3    0    0  0.99941571614E+01  0.35926453850E+00  0.10881591067E+02  0.14779082272E+02  0.51100000000E-03 0.  1.
         11    1    3    3    0    0 -0.99941571614E+01 -0.35926453850E+00  0.10676755296E+02  0.14628921775E+02  0.51100000000E-03 0. -1.
<mgrwt>
<rscale>  0 0.20001710E+02</rscale>
<asrwt>0</asrwt>
<pdfrwt beam="1">  1        3 0.39204883E-02 0.20001710E+02</pdfrwt>
<pdfrwt beam="2">  1       -3 0.60381984E-03 0.20001710E+02</pdfrwt>
<totfact> 0.17297864E+06</totfact>
</mgrwt>
</event>
<event>
 5    1  0.4188801E-007  0.2000222E+02  0.7818608E-02  0.1745284E+00
          3   -1    0    0  501    0  0.00000000000E+00  0.00000000000E+00  0.12816057164E+02  0.12816394587E+02  0.93000000000E-01 0.  1.
         -3   -1    0    0    0  501 -0.00000000000E+00 -0.00000000000E+00 -0.78037276669E+01  0.78042818054E+01  0.93000000000E-01 0. -1.
       1023    2    1    2    0    0  0.00000000000E+00  0.00000000000E+00  0.50123294967E+01  0.20620676393E+02  0.20002221074E+02 0.  0.
        -11    1    3    3    0    0  0.97886902098E+01  0.20502790055E+01  0.25170600465E+01  0.10312986549E+02  0.51100000000E-03 0.  1.
         11    1    3    3    0    0 -0.97886902098E+01 -0.20502790055E+01  0.24952694502E+01  0.10307689844E+02  0.51100000000E-03 0. -1.
<mgrwt>
<rscale>  0 0.20002221E+02</rscale>
<asrwt>0</asrwt>
<pdfrwt beam="1">  1        3 0.19717697E-02 0.20002221E+02</pdfrwt>
<pdfrwt beam="2">  1       -3 0.12006421E-02 0.20002221E+02</pdfrwt>
<totfact> 0.17840581E+06</totfact>
</mgrwt>
</event>
<event>
 5    1  0.4133473E-007  0.2000051E+02  0.7818608E-02  0.1745318E+00
          3   -1    0    0  501    0  0.00000000000E+00  0.00000000000E+00  0.30408228487E+02  0.30408370702E+02  0.93000000000E-01 0. -1.
         -3   -1    0    0    0  501 -0.00000000000E+00 -0.00000000000E+00 -0.32879442845E+01  0.32892592810E+01  0.93000000000E-01 0.  1.
       1023    2    1    2    0    0  0.00000000000E+00  0.00000000000E+00  0.27120284203E+02  0.33697629983E+02  0.20000511274E+02 0.  0.
        -11    1    3    3    0    0  0.92737030417E+01 -0.37421054740E+01  0.13583430538E+02  0.16867557823E+02  0.51100000000E-03 0. -1.
         11    1    3    3    0    0 -0.92737030417E+01  0.37421054740E+01  0.13536853665E+02  0.16830072160E+02  0.51100000000E-03 0.  1.
<mgrwt>
<rscale>  0 0.20000511E+02</rscale>
<asrwt>0</asrwt>
<pdfrwt beam="1">  1        3 0.46783012E-02 0.20000511E+02</pdfrwt>
<pdfrwt beam="2">  1       -3 0.50594967E-03 0.20000511E+02</pdfrwt>
<totfact> 0.17053739E+06</totfact>
</mgrwt>
</event>
<event>
 5    1  0.4133473E-007  0.2000211E+02  0.7818608E-02  0.1745286E+00
         -3   -1    0    0    0  501 -0.00000000000E+00  0.00000000000E+00  0.85042460782E+01  0.85047545737E+01  0.93000000000E-01 0. -1.
          3   -1    0    0  501    0  0.00000000000E+00 -0.00000000000E+00 -0.11760264414E+02  0.11760632130E+02  0.93000000000E-01 0.  1.
       1023    2    1    2    0    0  0.00000000000E+00  0.00000000000E+00 -0.32560183360E+01  0.20265386703E+02  0.20002105960E+02 0.  0.
        -11    1    3    3    0    0 -0.99208862708E+01  0.12572372864E+01 -0.17578777118E+01  0.10153559194E+02  0.51100000000E-03 0. -1.
         11    1    3    3    0    0  0.99208862708E+01 -0.12572372864E+01 -0.14981406242E+01  0.10111827510E+02  0.51100000000E-03 0.  1.
<mgrwt>
<rscale>  0 0.20002106E+02</rscale>
<asrwt>0</asrwt>
<pdfrwt beam="2">  1        3 0.18093388E-02 0.20002106E+02</pdfrwt>
<pdfrwt beam="1">  1       -3 0.13084130E-02 0.20002106E+02</pdfrwt>
<totfact> 0.17864056E+06</totfact>
</mgrwt>
</event>
<event>
 5    1  0.4133473E-007  0.2000309E+02  0.7818608E-02  0.1745267E+00
          3   -1    0    0  501    0  0.00000000000E+00  0.00000000000E+00  0.55189648664E+01  0.55197483817E+01  0.93000000000E-01 0.  1.
         -3   -1    0    0    0  501 -0.00000000000E+00 -0.00000000000E+00 -0.18122753627E+02  0.18122992248E+02  0.93000000000E-01 0. -1.
       1023    2    1    2    0    0  0.00000000000E+00  0.00000000000E+00 -0.12603788760E+02  0.23642740629E+02  0.20003092095E+02 0.  0.
        -11    1    3    3    0    0 -0.82801353021E+01  0.56098370352E+01 -0.62979930228E+01  0.11819290527E+02  0.51100000000E-03 0. -1.
         11    1    3    3    0    0  0.82801353021E+01 -0.56098370352E+01 -0.63057957374E+01  0.11823450103E+02  0.51100000000E-03 0.  1.
<mgrwt>
<rscale>  0 0.20003092E+02</rscale>
<asrwt>0</asrwt>
<pdfrwt beam="1">  1        3 0.84915015E-03 0.20003092E+02</pdfrwt>
<pdfrwt beam="2">  1       -3 0.27881945E-02 0.20003092E+02</pdfrwt>
<totfact> 0.17646369E+06</totfact>
</mgrwt>
</event>
<event>
 5    1  0.4133473E-007  0.2000865E+02  0.7818608E-02  0.1745156E+00
         -3   -1    0    0    0  501 -0.00000000000E+00  0.00000000000E+00  0.40552070760E+01  0.40562733425E+01  0.93000000000E-01 0. -1.
          3   -1    0    0  501    0  0.00000000000E+00 -0.00000000000E+00 -0.24676581252E+02  0.24676756498E+02  0.93000000000E-01 0.  1.
       1023    2    1    2    0    0  0.00000000000E+00  0.00000000000E+00 -0.20621374176E+02  0.28733029841E+02  0.20008646404E+02 0.  0.
        -11    1    3    3    0    0 -0.27586976911E+01  0.96159097369E+01 -0.10456777739E+02  0.14471362547E+02  0.51100000000E-03 0. -1.
         11    1    3    3    0    0  0.27586976911E+01 -0.96159097369E+01 -0.10164596436E+02  0.14261667294E+02  0.51100000000E-03 0.  1.
<mgrwt>
<rscale>  0 0.20008646E+02</rscale>
<asrwt>0</asrwt>
<pdfrwt beam="2">  1        3 0.37964925E-02 0.20008646E+02</pdfrwt>
<pdfrwt beam="1">  1       -3 0.62397353E-03 0.20008646E+02</pdfrwt>
<totfact> 0.17324731E+06</totfact>
</mgrwt>
</event>
<event>
 5    1  0.4344193E-007  0.2000098E+02  0.7818608E-02  0.1745309E+00
          3   -1    0    0  501    0  0.00000000000E+00  0.00000000000E+00  0.62013745791E+01  0.62020718852E+01  0.93000000000E-01 0. -1.
         -3   -1    0    0    0  501 -0.00000000000E+00 -0.00000000000E+00 -0.16125301098E+02  0.16125569277E+02  0.93000000000E-01 0.  1.
       1023    2    1    2    0    0  0.00000000000E+00  0.00000000000E+00 -0.99239265193E+01  0.22327641162E+02  0.20000981034E+02 0.  0.
        -11    1    3    3    0    0  0.99968925089E+01 -0.26561311579E+00 -0.49201917936E+01  0.11145254493E+02  0.51100000000E-03 0.  1.
         11    1    3    3    0    0 -0.99968925089E+01  0.26561311579E+00 -0.50037347256E+01  0.11182386670E+02  0.51100000000E-03 0. -1.
<mgrwt>
<rscale>  0 0.20000981E+02</rscale>
<asrwt>0</asrwt>
<pdfrwt beam="1">  1        3 0.95413190E-03 0.20000981E+02</pdfrwt>
<pdfrwt beam="2">  1       -3 0.24808898E-02 0.20000981E+02</pdfrwt>
<totfact> 0.17733471E+06</totfact>
</mgrwt>
</event>
<event>
 5    1  0.4133473E-007  0.2000135E+02  0.7818608E-02  0.1745301E+00
          3   -1    0    0  501    0  0.00000000000E+00  0.00000000000E+00  0.18511356334E+02  0.18511589946E+02  0.93000000000E-01 0. -1.
         -3   -1    0    0    0  501 -0.00000000000E+00 -0.00000000000E+00 -0.54021511058E+01  0.54029515609E+01  0.93000000000E-01 0.  1.
       1023    2    1    2    0    0  0.00000000000E+00  0.00000000000E+00  0.13109205228E+02  0.23914541507E+02  0.20001350799E+02 0.  0.
        -11    1    3    3    0    0 -0.46579096076E+01 -0.88495862295E+01  0.66108086054E+01  0.11988081124E+02  0.51100000000E-03 0. -1.
         11    1    3    3    0    0  0.46579096076E+01  0.88495862295E+01  0.64983966230E+01  0.11926460383E+02  0.51100000000E-03 0.  1.
<mgrwt>
<rscale>  0 0.20001351E+02</rscale>
<asrwt>0</asrwt>
<pdfrwt beam="1">  1        3 0.28479805E-02 0.20001351E+02</pdfrwt>
<pdfrwt beam="2">  1       -3 0.83117971E-03 0.20001351E+02</pdfrwt>
<totfact> 0.17631605E+06</totfact>
</mgrwt>
</event>
<event>
 4    1  0.4133473E-007  0.2004181E+02  0.7818608E-02  0.1744498E+00
         -3   -1    0    0    0  501 -0.00000000000E+00  0.00000000000E+00  0.46408028577E+02  0.46408121761E+02  0.93000000000E-01 0. -1.
          3   -1    0    0  501    0  0.00000000000E+00 -0.00000000000E+00 -0.21627233356E+01  0.21647219744E+01  0.93000000000E-01 0.  1.
        -11    1    1    2    0    0 -0.31862956362E+01 -0.94826874444E+01  0.20699770343E+02  0.22990309558E+02  0.51100000000E-03 0.  1.
         11    1    1    2    0    0  0.31862956362E+01  0.94826874444E+01  0.23545534898E+02  0.25582534177E+02  0.51100000000E-03 0. -1.
<mgrwt>
<rscale>  0 0.20041809E+02</rscale>
<asrwt>0</asrwt>
<pdfrwt beam="2">  1        3 0.33288756E-03 0.20041809E+02</pdfrwt>
<pdfrwt beam="1">  1       -3 0.71398580E-02 0.20041809E+02</pdfrwt>
<totfact> 0.16206152E+06</totfact>
</mgrwt>
</event>
<event>
 5    1  0.4133473E-007  0.2000783E+02  0.7818608E-02  0.1745172E+00
         -3   -1    0    0    0  501 -0.00000000000E+00  0.00000000000E+00  0.84275515636E+02  0.84275566950E+02  0.93000000000E-01 0.  1.
          3   -1    0    0  501    0  0.00000000000E+00 -0.00000000000E+00 -0.11856411889E+01  0.11892829893E+01  0.93000000000E-01 0. -1.
       1023    2    1    2    0    0  0.00000000000E+00  0.00000000000E+00  0.83089874447E+02  0.85464849939E+02  0.20007831954E+02 0.  0.
        -11    1    3    3    0    0 -0.66698995860E+01  0.74551104593E+01  0.42014851865E+02  0.43189281193E+02  0.51100000000E-03 0.  1.
         11    1    3    3    0    0  0.66698995860E+01 -0.74551104593E+01  0.41075022582E+02  0.42275568746E+02  0.51100000000E-03 0. -1.
<mgrwt>
<rscale>  0 0.20007832E+02</rscale>
<asrwt>0</asrwt>
<pdfrwt beam="2">  1        3 0.18269043E-03 0.20007832E+02</pdfrwt>
<pdfrwt beam="1">  1       -3 0.12965748E-01 0.20007832E+02</pdfrwt>
<totfact> 0.14693120E+06</totfact>
</mgrwt>
</event>
<event>
 5    1  0.4133473E-007  0.2000134E+02  0.7818608E-02  0.1745301E+00
         -3   -1    0    0    0  501 -0.00000000000E+00  0.00000000000E+00  0.11184539322E+01  0.11223137700E+01  0.93000000000E-01 0.  1.
          3   -1    0    0  501    0  0.00000000000E+00 -0.00000000000E+00 -0.89263208275E+02  0.89263256722E+02  0.93000000000E-01 0. -1.
       1023    2    1    2    0    0  0.00000000000E+00  0.00000000000E+00 -0.88144754343E+02  0.90385570492E+02  0.20001340829E+02 0.  0.
        -11    1    3    3    0    0 -0.99085773273E+01 -0.13521912392E+01 -0.43750206354E+02  0.44878601606E+02  0.51100000000E-03 0.  1.
         11    1    3    3    0    0  0.99085773273E+01  0.13521912392E+01 -0.44394547988E+02  0.45506968885E+02  0.51100000000E-03 0. -1.
<mgrwt>
<rscale>  0 0.20001341E+02</rscale>
<asrwt>0</asrwt>
<pdfrwt beam="2">  1        3 0.13733096E-01 0.20001341E+02</pdfrwt>
<pdfrwt beam="1">  1       -3 0.17237054E-03 0.20001341E+02</pdfrwt>
<totfact> 0.14517926E+06</totfact>
</mgrwt>
</event>
<event>
 5    1  0.4133473E-007  0.2000040E+02  0.7818608E-02  0.1745320E+00
          3   -1    0    0  501    0  0.00000000000E+00  0.00000000000E+00  0.27401921900E+02  0.27402079716E+02  0.93000000000E-01 0. -1.
         -3   -1    0    0    0  501 -0.00000000000E+00 -0.00000000000E+00 -0.36487642516E+01  0.36499492550E+01  0.93000000000E-01 0.  1.
       1023    2    1    2    0    0  0.00000000000E+00  0.00000000000E+00  0.23753157648E+02  0.31052028971E+02  0.20000400121E+02 0.  0.
        -11    1    3    3    0    0 -0.29604688472E+01 -0.95517543177E+01  0.11783235291E+02  0.15454611626E+02  0.51100000000E-03 0. -1.
         11    1    3    3    0    0  0.29604688472E+01  0.95517543177E+01  0.11969922357E+02  0.15597417345E+02  0.51100000000E-03 0.  1.
<mgrwt>
<rscale>  0 0.20000400E+02</rscale>
<asrwt>0</asrwt>
<pdfrwt beam="1">  1        3 0.42157834E-02 0.20000400E+02</pdfrwt>
<pdfrwt beam="2">  1       -3 0.56145167E-03 0.20000400E+02</pdfrwt>
<totfact> 0.17204641E+06</totfact>
</mgrwt>
</event>
<event>
 5    1  0.4385149E-007  0.2000148E+02  0.7818608E-02  0.1745299E+00
          3   -1    0    0  501    0  0.00000000000E+00  0.00000000000E+00  0.14369500308E+02  0.14369801255E+02  0.93000000000E-01 0. -1.
         -3   -1    0    0    0  501 -0.00000000000E+00 -0.00000000000E+00 -0.69595295159E+01  0.69601508664E+01  0.93000000000E-01 0.  1.
       1023    2    1    2    0    0  0.00000000000E+00  0.00000000000E+00  0.74099707925E+01  0.21329952122E+02  0.20001479704E+02 0.  0.
        -11    1    3    3    0    0  0.97228730713E+01 -0.23406733943E+01  0.37500361291E+01  0.10680626570E+02  0.51100000000E-03 0. -1.
         11    1    3    3    0    0 -0.97228730713E+01  0.23406733943E+01  0.36599346634E+01  0.10649325551E+02  0.51100000000E-03 0.  1.
<mgrwt>
<rscale>  0 0.20001480E+02</rscale>
<asrwt>0</asrwt>
<pdfrwt beam="1">  1        3 0.22107633E-02 0.20001480E+02</pdfrwt>
<pdfrwt beam="2">  1       -3 0.10707678E-02 0.20001480E+02</pdfrwt>
<totfact> 0.17795787E+06</totfact>
</mgrwt>
</event>
<event>
 5    1  0.4230695E-007  0.2000095E+02  0.7818608E-02  0.1745309E+00
          3   -1    0    0  501    0  0.00000000000E+00  0.00000000000E+00  0.19653076942E+02  0.19653296983E+02  0.93000000000E-01 0. -1.
         -3   -1    0    0    0  501 -0.00000000000E+00 -0.00000000000E+00 -0.50880715226E+01  0.50889213807E+01  0.93000000000E-01 0.  1.
       1023    2    1    2    0    0  0.00000000000E+00  0.00000000000E+00  0.14565005419E+02  0.24742218363E+02  0.20000949644E+02 0.  0.
        -11    1    3    3    0    0 -0.45933645259E+01  0.88829098854E+01  0.72003461549E+01  0.12322746070E+02  0.51100000000E-03 0. -1.
         11    1    3    3    0    0  0.45933645259E+01 -0.88829098854E+01  0.73646592646E+01  0.12419472293E+02  0.51100000000E-03 0.  1.
<mgrwt>
<rscale>  0 0.20000950E+02</rscale>
<asrwt>0</asrwt>
<pdfrwt beam="1">  1        3 0.30236326E-02 0.20000950E+02</pdfrwt>
<pdfrwt beam="2">  1       -3 0.78286254E-03 0.20000950E+02</pdfrwt>
<totfact> 0.17580788E+06</totfact>
</mgrwt>
</event>
<event>
 5    1  0.4133473E-007  0.2000162E+02  0.7818608E-02  0.1745296E+00
         -3   -1    0    0    0  501 -0.00000000000E+00  0.00000000000E+00  0.43683516206E+02  0.43683615202E+02  0.93000000000E-01 0. -1.
          3   -1    0    0  501    0  0.00000000000E+00 -0.00000000000E+00 -0.22885170330E+01  0.22904059051E+01  0.93000000000E-01 0.  1.
       1023    2    1    2    0    0  0.00000000000E+00  0.00000000000E+00  0.41394999173E+02  0.45974021107E+02  0.20001616441E+02 0.  0.
        -11    1    3    3    0    0 -0.98802662862E+01  0.15478204702E+01  0.20634355067E+02  0.22930155241E+02  0.51100000000E-03 0. -1.
         11    1    3    3    0    0  0.98802662862E+01 -0.15478204702E+01  0.20760644107E+02  0.23043865867E+02  0.51100000000E-03 0.  1.
<mgrwt>
<rscale>  0 0.20001616E+02</rscale>
<asrwt>0</asrwt>
<pdfrwt beam="2">  1        3 0.35223243E-03 0.20001616E+02</pdfrwt>
<pdfrwt beam="1">  1       -3 0.67206943E-02 0.20001616E+02</pdfrwt>
<totfact> 0.16404603E+06</totfact>
</mgrwt>
</event>
<event>
 5    1  0.4133473E-007  0.2000013E+02  0.7818608E-02  0.1745325E+00
         -3   -1    0    0    0  501 -0.00000000000E+00  0.00000000000E+00  0.22191448737E+02  0.22191643608E+02  0.93000000000E-01 0. -1.
          3   -1    0    0  501    0  0.00000000000E+00 -0.00000000000E+00 -0.45056060583E+01  0.45065657603E+01  0.93000000000E-01 0.  1.
       1023    2    1    2    0    0  0.00000000000E+00  0.00000000000E+00  0.17685842679E+02  0.26698209369E+02  0.20000133806E+02 0.  0.
        -11    1    3    3    0    0 -0.86645976972E+01 -0.49925050006E+01  0.88011672178E+01  0.13321445270E+02  0.51100000000E-03 0. -1.
         11    1    3    3    0    0  0.86645976972E+01  0.49925050006E+01  0.88846754607E+01  0.13376764098E+02  0.51100000000E-03 0.  1.
<mgrwt>
<rscale>  0 0.20000134E+02</rscale>
<asrwt>0</asrwt>
<pdfrwt beam="2">  1        3 0.69325898E-03 0.20000134E+02</pdfrwt>
<pdfrwt beam="1">  1       -3 0.34141578E-02 0.20000134E+02</pdfrwt>
<totfact> 0.17463837E+06</totfact>
</mgrwt>
</event>
<event>
 5    1  0.4137277E-007  0.2000115E+02  0.7818608E-02  0.1745305E+00
         -3   -1    0    0    0  501 -0.00000000000E+00  0.00000000000E+00  0.42542509570E+02  0.42542611221E+02  0.93000000000E-01 0. -1.
          3   -1    0    0  501    0  0.00000000000E+00 -0.00000000000E+00 -0.23498360082E+01  0.23516756293E+01  0.93000000000E-01 0.  1.
       1023    2    1    2    0    0  0.00000000000E+00  0.00000000000E+00  0.40192673562E+02  0.44894286850E+02  0.20001149561E+02 0.  0.
        -11    1    3    3    0    0 -0.98371928436E+01 -0.17994975112E+01  0.19974603603E+02  0.22338158914E+02  0.51100000000E-03 0.  1.
         11    1    3    3    0    0  0.98371928436E+01  0.17994975112E+01  0.20218069959E+02  0.22556127936E+02  0.51100000000E-03 0. -1.
<mgrwt>
<rscale>  0 0.20001150E+02</rscale>
<asrwt>0</asrwt>
<pdfrwt beam="2">  1        3 0.36166251E-03 0.20001150E+02</pdfrwt>
<pdfrwt beam="1">  1       -3 0.65451517E-02 0.20001150E+02</pdfrwt>
<totfact> 0.16459649E+06</totfact>
</mgrwt>
</event>
<event>
 5    1  0.4133473E-007  0.2000031E+02  0.7818608E-02  0.1745322E+00
         -3   -1    0    0    0  501 -0.00000000000E+00  0.00000000000E+00  0.10302305171E+03  0.10302309368E+03  0.93000000000E-01 0. -1.
          3   -1    0    0  501    0  0.00000000000E+00 -0.00000000000E+00 -0.96841681499E+00  0.97287210237E+00  0.93000000000E-01 0.  1.
       1023    2    1    2    0    0  0.00000000000E+00  0.00000000000E+00  0.10205463489E+03  0.10399596579E+03  0.20000309915E+02 0.  0.
        -11    1    3    3    0    0  0.92815139036E+01 -0.37224263195E+01  0.51089031374E+02  0.52058544784E+02  0.51100000000E-03 0. -1.
         11    1    3    3    0    0 -0.92815139036E+01  0.37224263195E+01  0.50965603518E+02  0.51937421002E+02  0.51100000000E-03 0.  1.
<mgrwt>
<rscale>  0 0.20000310E+02</rscale>
<asrwt>0</asrwt>
<pdfrwt beam="2">  1        3 0.14933319E-03 0.20000310E+02</pdfrwt>
<pdfrwt beam="1">  1       -3 0.15850042E-01 0.20000310E+02</pdfrwt>
<totfact> 0.14043541E+06</totfact>
</mgrwt>
</event>
<event>
 4    1  0.4133473E-007  0.2008199E+02  0.7818608E-02  0.1743702E+00
          3   -1    0    0  501    0  0.00000000000E+00  0.00000000000E+00  0.30423254469E+02  0.30423396613E+02  0.93000000000E-01 0. -1.
         -3   -1    0    0    0  501 -0.00000000000E+00 -0.00000000000E+00 -0.33131631585E+01  0.33144681496E+01  0.93000000000E-01 0.  1.
        -11    1    1    2    0    0 -0.98158693247E+01  0.19253609876E+01  0.15022827729E+02  0.18048369975E+02  0.51100000000E-03 0. -1.
         11    1    1    2    0    0  0.98158693247E+01 -0.19253609876E+01  0.12087263582E+02  0.15689494788E+02  0.51100000000E-03 0.  1.
<mgrwt>
<rscale>  0 0.20081994E+02</rscale>
<asrwt>0</asrwt>
<pdfrwt beam="1">  1        3 0.46806119E-02 0.20081994E+02</pdfrwt>
<pdfrwt beam="2">  1       -3 0.50982874E-03 0.20081994E+02</pdfrwt>
<totfact> 0.16902976E+06</totfact>
</mgrwt>
</event>
<event>
 5    1  0.4133473E-007  0.2000319E+02  0.7818608E-02  0.1745265E+00
         -3   -1    0    0    0  501 -0.00000000000E+00  0.00000000000E+00  0.63088002218E+01  0.63094856556E+01  0.93000000000E-01 0.  1.
          3   -1    0    0  501    0  0.00000000000E+00 -0.00000000000E+00 -0.15854250977E+02  0.15854523741E+02  0.93000000000E-01 0. -1.
       1023    2    1    2    0    0  0.00000000000E+00  0.00000000000E+00 -0.95454507554E+01  0.22164009396E+02  0.20003191805E+02 0.  0.
        -11    1    3    3    0    0  0.49261697398E+01 -0.87042768133E+01 -0.47930717296E+01  0.11090767332E+02  0.51100000000E-03 0.  1.
         11    1    3    3    0    0 -0.49261697398E+01  0.87042768133E+01 -0.47523790259E+01  0.11073242064E+02  0.51100000000E-03 0. -1.
<mgrwt>
<rscale>  0 0.20003192E+02</rscale>
<asrwt>0</asrwt>
<pdfrwt beam="2">  1        3 0.24391892E-02 0.20003192E+02</pdfrwt>
<pdfrwt beam="1">  1       -3 0.97065836E-03 0.20003192E+02</pdfrwt>
<totfact> 0.17738850E+06</totfact>
</mgrwt>
</event>
<event>
 5    1  0.4427786E-007  0.2000172E+02  0.7818608E-02  0.1745294E+00
          3   -1    0    0  501    0  0.00000000000E+00  0.00000000000E+00  0.11520690186E+02  0.11521065549E+02  0.93000000000E-01 0.  1.
         -3   -1    0    0    0  501 -0.00000000000E+00 -0.00000000000E+00 -0.86807611055E+01  0.86812592618E+01  0.93000000000E-01 0. -1.
       1023    2    1    2    0    0  0.00000000000E+00  0.00000000000E+00  0.28399290810E+01  0.20202324810E+02  0.20001718190E+02 0.  0.
        -11    1    3    3    0    0  0.40909570265E+01  0.91255146412E+01  0.13402072612E+01  0.10089950576E+02  0.51100000000E-03 0.  1.
         11    1    3    3    0    0 -0.40909570265E+01 -0.91255146412E+01  0.14997218198E+01  0.10112374234E+02  0.51100000000E-03 0. -1.
<mgrwt>
<rscale>  0 0.20001718E+02</rscale>
<asrwt>0</asrwt>
<pdfrwt beam="1">  1        3 0.17724811E-02 0.20001718E+02</pdfrwt>
<pdfrwt beam="2">  1       -3 0.13355689E-02 0.20001718E+02</pdfrwt>
<totfact> 0.17868960E+06</totfact>
</mgrwt>
</event>
<event>
 5    1  0.4304011E-007  0.2000082E+02  0.7818608E-02  0.1745312E+00
         -3   -1    0    0    0  501 -0.00000000000E+00  0.00000000000E+00  0.91706870901E+01  0.91711586348E+01  0.93000000000E-01 0.  1.
          3   -1    0    0  501    0  0.00000000000E+00 -0.00000000000E+00 -0.10904250523E+02  0.10904647105E+02  0.93000000000E-01 0. -1.
       1023    2    1    2    0    0  0.00000000000E+00  0.00000000000E+00 -0.17335634331E+01  0.20075805739E+02  0.20000818331E+02 0.  0.
        -11    1    3    3    0    0 -0.59468472822E+01  0.80400265179E+01 -0.90103014136E+00  0.10040860251E+02  0.51100000000E-03 0. -1.
         11    1    3    3    0    0  0.59468472822E+01 -0.80400265179E+01 -0.83253329179E+00  0.10034945488E+02  0.51100000000E-03 0.  1.
<mgrwt>
<rscale>  0 0.20000818E+02</rscale>
<asrwt>0</asrwt>
<pdfrwt beam="2">  1        3 0.16776438E-02 0.20000818E+02</pdfrwt>
<pdfrwt beam="1">  1       -3 0.14109417E-02 0.20000818E+02</pdfrwt>
<totfact> 0.17879046E+06</totfact>
</mgrwt>
</event>
<event>
 5    1  0.4133473E-007  0.2000050E+02  0.7818608E-02  0.1745318E+00
         -3   -1    0    0    0  501 -0.00000000000E+00  0.00000000000E+00  0.14641921823E+02  0.14642217170E+02  0.93000000000E-01 0.  1.
          3   -1    0    0  501    0  0.00000000000E+00 -0.00000000000E+00 -0.68293649920E+01  0.68299981840E+01  0.93000000000E-01 0. -1.
       1023    2    1    2    0    0  0.00000000000E+00  0.00000000000E+00  0.78125568307E+01  0.21472215354E+02  0.20000499693E+02 0.  0.
        -11    1    3    3    0    0 -0.50553268758E+01  0.86283632110E+01  0.39104658506E+01  0.10737631254E+02  0.51100000000E-03 0. -1.
         11    1    3    3    0    0  0.50553268758E+01 -0.86283632110E+01  0.39020909800E+01  0.10734584100E+02  0.51100000000E-03 0.  1.
<mgrwt>
<rscale>  0 0.20000500E+02</rscale>
<asrwt>0</asrwt>
<pdfrwt beam="2">  1        3 0.10507430E-02 0.20000500E+02</pdfrwt>
<pdfrwt beam="1">  1       -3 0.22526748E-02 0.20000500E+02</pdfrwt>
<totfact> 0.17789135E+06</totfact>
</mgrwt>
</event>
<event>
 4    1  0.4133473E-007  0.2001414E+02  0.7818608E-02  0.1745047E+00
         -3   -1    0    0    0  501 -0.00000000000E+00  0.00000000000E+00  0.27051981266E+02  0.27052141124E+02  0.93000000000E-01 0.  1.
          3   -1    0    0  501    0  0.00000000000E+00 -0.00000000000E+00 -0.37010625827E+01  0.37022308466E+01  0.93000000000E-01 0. -1.
        -11    1    1    2    0    0  0.80128256198E+01 -0.59945775654E+01  0.11623052965E+02  0.15337395316E+02  0.51100000000E-03 0.  1.
         11    1    1    2    0    0 -0.80128256198E+01  0.59945775654E+01  0.11727865718E+02  0.15416976654E+02  0.51100000000E-03 0. -1.
<mgrwt>
<rscale>  0 0.20014145E+02</rscale>
<asrwt>0</asrwt>
<pdfrwt beam="2">  1        3 0.56949640E-03 0.20014145E+02</pdfrwt>
<pdfrwt beam="1">  1       -3 0.41619455E-02 0.20014145E+02</pdfrwt>
<totfact> 0.17198124E+06</totfact>
</mgrwt>
</event>
<event>
 5    1  0.4229039E-007  0.2000226E+02  0.7818608E-02  0.1745283E+00
         -3   -1    0    0    0  501 -0.00000000000E+00  0.00000000000E+00  0.52844497634E+01  0.52852680445E+01  0.93000000000E-01 0.  1.
          3   -1    0    0  501    0  0.00000000000E+00 -0.00000000000E+00 -0.18925329716E+02  0.18925558218E+02  0.93000000000E-01 0. -1.
       1023    2    1    2    0    0  0.00000000000E+00  0.00000000000E+00 -0.13640879952E+02  0.24210826262E+02  0.20002262433E+02 0.  0.
        -11    1    3    3    0    0 -0.71219542997E+01 -0.70205606681E+01 -0.69536955599E+01  0.12180492081E+02  0.51100000000E-03 0. -1.
         11    1    3    3    0    0  0.71219542997E+01  0.70205606681E+01 -0.66871843924E+01  0.12030334181E+02  0.51100000000E-03 0.  1.
<mgrwt>
<rscale>  0 0.20002262E+02</rscale>
<asrwt>0</asrwt>
<pdfrwt beam="2">  1        3 0.29116697E-02 0.20002262E+02</pdfrwt>
<pdfrwt beam="1">  1       -3 0.81307281E-03 0.20002262E+02</pdfrwt>
<totfact> 0.17611390E+06</totfact>
</mgrwt>
</event>
<event>
 4    1  0.4133473E-007  0.2001534E+02  0.7818608E-02  0.1745023E+00
          3   -1    0    0  501    0  0.00000000000E+00  0.00000000000E+00  0.22351754205E+02  0.22351947678E+02  0.93000000000E-01 0.  1.
         -3   -1    0    0    0  501 -0.00000000000E+00 -0.00000000000E+00 -0.44800900808E+01  0.44810552476E+01  0.93000000000E-01 0. -1.
        -11    1    1    2    0    0  0.35489623724E+01 -0.93494498542E+01  0.94482060563E+01  0.13757759427E+02  0.51100000000E-03 0. -1.
         11    1    1    2    0    0 -0.35489623724E+01  0.93494498542E+01  0.84234580674E+01  0.13075243500E+02  0.51100000000E-03 0.  1.
<mgrwt>
<rscale>  0 0.20015336E+02</rscale>
<asrwt>0</asrwt>
<pdfrwt beam="1">  1        3 0.34388205E-02 0.20015336E+02</pdfrwt>
<pdfrwt beam="2">  1       -3 0.68933377E-03 0.20015336E+02</pdfrwt>
<totfact> 0.17425756E+06</totfact>
</mgrwt>
</event>
<event>
 5    1  0.4133473E-007  0.2000769E+02  0.7818608E-02  0.1745175E+00
          3   -1    0    0  501    0  0.00000000000E+00  0.00000000000E+00  0.42193262067E+01  0.42203510089E+01  0.93000000000E-01 0. -1.
         -3   -1    0    0    0  501 -0.00000000000E+00 -0.00000000000E+00 -0.23714709211E+02  0.23714891565E+02  0.93000000000E-01 0.  1.
       1023    2    1    2    0    0  0.00000000000E+00  0.00000000000E+00 -0.19495383004E+02  0.27935242574E+02  0.20007694000E+02 0.  0.
        -11    1    3    3    0    0  0.34467210622E+01 -0.93903432477E+01 -0.99377122780E+01  0.14100232550E+02  0.51100000000E-03 0. -1.
         11    1    3    3    0    0 -0.34467210622E+01  0.93903432477E+01 -0.95576707259E+01  0.13835010024E+02  0.51100000000E-03 0.  1.
<mgrwt>
<rscale>  0 0.20007694E+02</rscale>
<asrwt>0</asrwt>
<pdfrwt beam="1">  1        3 0.64921998E-03 0.20007694E+02</pdfrwt>
<pdfrwt beam="2">  1       -3 0.36485096E-02 0.20007694E+02</pdfrwt>
<totfact> 0.17375438E+06</totfact>
</mgrwt>
</event>
<event>
 5    1  0.4139002E-007  0.2000049E+02  0.7818608E-02  0.1745318E+00
          3   -1    0    0  501    0  0.00000000000E+00  0.00000000000E+00  0.92676355304E+01  0.92681021425E+01  0.93000000000E-01 0. -1.
         -3   -1    0    0    0  501 -0.00000000000E+00 -0.00000000000E+00 -0.10789827990E+02  0.10790228776E+02  0.93000000000E-01 0.  1.
       1023    2    1    2    0    0  0.00000000000E+00  0.00000000000E+00 -0.15221924593E+01  0.20058330919E+02  0.20000489228E+02 0.  0.
        -11    1    3    3    0    0  0.97049148396E+01 -0.24123666626E+01 -0.76377279004E+00  0.10029368579E+02  0.51100000000E-03 0. -1.
         11    1    3    3    0    0 -0.97049148396E+01  0.24123666626E+01 -0.75841966925E+00  0.10028962340E+02  0.51100000000E-03 0.  1.
<mgrwt>
<rscale>  0 0.20000489E+02</rscale>
<asrwt>0</asrwt>
<pdfrwt beam="1">  1        3 0.14258568E-02 0.20000489E+02</pdfrwt>
<pdfrwt beam="2">  1       -3 0.16600403E-02 0.20000489E+02</pdfrwt>
<totfact> 0.17880961E+06</totfact>
</mgrwt>
</event>
<event>
 5    1  0.4133473E-007  0.2000239E+02  0.7818608E-02  0.1745281E+00
         -3   -1    0    0    0  501 -0.00000000000E+00  0.00000000000E+00  0.11926386075E+01  0.11962591057E+01  0.93000000000E-01 0.  1.
          3   -1    0    0  501    0  0.00000000000E+00 -0.00000000000E+00 -0.83736991905E+02  0.83737043549E+02  0.93000000000E-01 0. -1.
       1023    2    1    2    0    0  0.00000000000E+00  0.00000000000E+00 -0.82544353298E+02  0.84933302655E+02  0.20002390820E+02 0.  0.
        -11    1    3    3    0    0  0.42781158127E+01  0.90399960355E+01 -0.41315921131E+02  0.42509165393E+02  0.51100000000E-03 0.  1.
         11    1    3    3    0    0 -0.42781158127E+01 -0.90399960355E+01 -0.41228432167E+02  0.42424137262E+02  0.51100000000E-03 0. -1.
<mgrwt>
<rscale>  0 0.20002391E+02</rscale>
<asrwt>0</asrwt>
<pdfrwt beam="2">  1        3 0.12882892E-01 0.20002391E+02</pdfrwt>
<pdfrwt beam="1">  1       -3 0.18376540E-03 0.20002391E+02</pdfrwt>
<totfact> 0.14718817E+06</totfact>
</mgrwt>
</event>
<event>
 5    1  0.4178601E-007  0.2000143E+02  0.7818608E-02  0.1745300E+00
          3   -1    0    0  501    0  0.00000000000E+00  0.00000000000E+00  0.50171691180E+02  0.50171777374E+02  0.93000000000E-01 0. -1.
         -3   -1    0    0    0  501 -0.00000000000E+00 -0.00000000000E+00 -0.19922691949E+01  0.19944386541E+01  0.93000000000E-01 0.  1.
       1023    2    1    2    0    0  0.00000000000E+00  0.00000000000E+00  0.48179421985E+02  0.52166216028E+02  0.20001434745E+02 0.  0.
        -11    1    3    3    0    0 -0.21410290433E+01 -0.97681962797E+01  0.24383443861E+02  0.26354392399E+02  0.51100000000E-03 0.  1.
         11    1    3    3    0    0  0.21410290433E+01  0.97681962797E+01  0.23795978124E+02  0.25811823629E+02  0.51100000000E-03 0. -1.
<mgrwt>
<rscale>  0 0.20001435E+02</rscale>
<asrwt>0</asrwt>
<pdfrwt beam="1">  1        3 0.77188949E-02 0.20001435E+02</pdfrwt>
<pdfrwt beam="2">  1       -3 0.30667648E-03 0.20001435E+02</pdfrwt>
<totfact> 0.16101082E+06</totfact>
</mgrwt>
</event>
<event>
 4    1  0.4133473E-007  0.2001530E+02  0.7818608E-02  0.1745024E+00
          3   -1    0    0  501    0  0.00000000000E+00  0.00000000000E+00  0.32326649743E+02  0.32326783518E+02  0.93000000000E-01 0.  1.
         -3   -1    0    0    0  501 -0.00000000000E+00 -0.00000000000E+00 -0.30973198484E+01  0.30987157410E+01  0.93000000000E-01 0. -1.
        -11    1    1    2    0    0  0.41874021761E+01 -0.90883899380E+01  0.14864336746E+02  0.17918752072E+02  0.51100000000E-03 0.  1.
         11    1    1    2    0    0 -0.41874021761E+01  0.90883899380E+01  0.14364993149E+02  0.17506747187E+02  0.51100000000E-03 0. -1.
<mgrwt>
<rscale>  0 0.20015301E+02</rscale>
<asrwt>0</asrwt>
<pdfrwt beam="1">  1        3 0.49734485E-02 0.20015301E+02</pdfrwt>
<pdfrwt beam="2">  1       -3 0.47662841E-03 0.20015301E+02</pdfrwt>
<totfact> 0.16930669E+06</totfact>
</mgrwt>
</event>
<event>
 5    1  0.4133473E-007  0.2000003E+02  0.7818608E-02  0.1745327E+00
         -3   -1    0    0    0  501 -0.00000000000E+00  0.00000000000E+00  0.26368400599E+01  0.26384795814E+01  0.93000000000E-01 0. -1.
          3   -1    0    0  501    0  0.00000000000E+00 -0.00000000000E+00 -0.37910828206E+02  0.37910942276E+02  0.93000000000E-01 0.  1.
       1023    2    1    2    0    0  0.00000000000E+00  0.00000000000E+00 -0.35273988146E+02  0.40549421857E+02  0.20000034331E+02 0.  0.
        -11    1    3    3    0    0  0.31332293679E+01  0.94964788902E+01 -0.17657815663E+02  0.20292823654E+02  0.51100000000E-03 0.  1.
         11    1    3    3    0    0 -0.31332293679E+01 -0.94964788902E+01 -0.17616172483E+02  0.20256598204E+02  0.51100000000E-03 0. -1.
<mgrwt>
<rscale>  0 0.20000034E+02</rscale>
<asrwt>0</asrwt>
<pdfrwt beam="2">  1        3 0.58325696E-02 0.20000034E+02</pdfrwt>
<pdfrwt beam="1">  1       -3 0.40580262E-03 0.20000034E+02</pdfrwt>
<totfact> 0.16682859E+06</totfact>
</mgrwt>
</event>
<event>
 5    1  0.4218214E-007  0.2000127E+02  0.7818608E-02  0.1745303E+00
         -3   -1    0    0    0  501 -0.00000000000E+00  0.00000000000E+00  0.34310381443E+01  0.34322983186E+01  0.93000000000E-01 0. -1.
          3   -1    0    0  501    0  0.00000000000E+00 -0.00000000000E+00 -0.29142700224E+02  0.29142848614E+02  0.93000000000E-01 0.  1.
       1023    2    1    2    0    0  0.00000000000E+00  0.00000000000E+00 -0.25711662080E+02  0.32575146933E+02  0.20001265730E+02 0.  0.
        -11    1    3    3    0    0 -0.20522977061E+01  0.97877041410E+01 -0.12920552607E+02  0.16338658395E+02  0.51100000000E-03 0.  1.
         11    1    3    3    0    0  0.20522977061E+01 -0.97877041410E+01 -0.12791109473E+02  0.16236488538E+02  0.51100000000E-03 0. -1.
<mgrwt>
<rscale>  0 0.20001266E+02</rscale>
<asrwt>0</asrwt>
<pdfrwt beam="2">  1        3 0.44836005E-02 0.20001266E+02</pdfrwt>
<pdfrwt beam="1">  1       -3 0.52796039E-03 0.20001266E+02</pdfrwt>
<totfact> 0.17115761E+06</totfact>
</mgrwt>
</event>
<event>
 5    1  0.4133473E-007  0.2000030E+02  0.7818608E-02  0.1745322E+00
         -3   -1    0    0    0  501 -0.00000000000E+00  0.00000000000E+00  0.26437744157E+02  0.26437907729E+02  0.93000000000E-01 0. -1.
          3   -1    0    0  501    0  0.00000000000E+00 -0.00000000000E+00 -0.37818366353E+01  0.37829799545E+01  0.93000000000E-01 0.  1.
       1023    2    1    2    0    0  0.00000000000E+00  0.00000000000E+00  0.22655907521E+02  0.30220887684E+02  0.20000297667E+02 0.  0.
        -11    1    3    3    0    0 -0.12235186351E+01  0.99249510954E+01  0.11272965556E+02  0.15069220444E+02  0.51100000000E-03 0.  1.
         11    1    3    3    0    0  0.12235186351E+01 -0.99249510954E+01  0.11382941965E+02  0.15151667240E+02  0.51100000000E-03 0. -1.
<mgrwt>
<rscale>  0 0.20000298E+02</rscale>
<asrwt>0</asrwt>
<pdfrwt beam="2">  1        3 0.58192157E-03 0.20000298E+02</pdfrwt>
<pdfrwt beam="1">  1       -3 0.40674456E-02 0.20000298E+02</pdfrwt>
<totfact> 0.17254665E+06</totfact>
</mgrwt>
</event>
<event>
 5    1  0.4133473E-007  0.2000020E+02  0.7818608E-02  0.1745324E+00
          3   -1    0    0  501    0  0.00000000000E+00  0.00000000000E+00  0.95127532724E+02  0.95127578184E+02  0.93000000000E-01 0. -1.
         -3   -1    0    0    0  501 -0.00000000000E+00 -0.00000000000E+00 -0.10491383538E+01  0.10532522420E+01  0.93000000000E-01 0.  1.
       1023    2    1    2    0    0  0.00000000000E+00  0.00000000000E+00  0.94078394370E+02  0.96180830426E+02  0.20000196353E+02 0.  0.
        -11    1    3    3    0    0 -0.97979971663E+01  0.20002319700E+01  0.46957745467E+02  0.48010743964E+02  0.51100000000E-03 0. -1.
         11    1    3    3    0    0  0.97979971663E+01 -0.20002319700E+01  0.47120648904E+02  0.48170086462E+02  0.51100000000E-03 0.  1.
<mgrwt>
<rscale>  0 0.20000196E+02</rscale>
<asrwt>0</asrwt>
<pdfrwt beam="1">  1        3 0.14635328E-01 0.20000196E+02</pdfrwt>
<pdfrwt beam="2">  1       -3 0.16172582E-03 0.20000196E+02</pdfrwt>
<totfact> 0.14311344E+06</totfact>
</mgrwt>
</event>
<event>
 4    1  0.4133473E-007  0.2004010E+02  0.7818608E-02  0.1744532E+00
         -3   -1    0    0    0  501 -0.00000000000E+00  0.00000000000E+00  0.99094119182E+02  0.99094162822E+02  0.93000000000E-01 0.  1.
          3   -1    0    0  501    0  0.00000000000E+00 -0.00000000000E+00 -0.10110139916E+01  0.10152823701E+01  0.93000000000E-01 0. -1.
        -11    1    1    2    0    0  0.20886729633E+01 -0.97961005581E+01  0.47671375266E+02  0.48712279365E+02  0.51100000000E-03 0.  1.
         11    1    1    2    0    0 -0.20886729633E+01  0.97961005581E+01  0.50411729925E+02  0.51397165828E+02  0.51100000000E-03 0. -1.
<mgrwt>
<rscale>  0 0.20040097E+02</rscale>
<asrwt>0</asrwt>
<pdfrwt beam="2">  1        3 0.15587226E-03 0.20040097E+02</pdfrwt>
<pdfrwt beam="1">  1       -3 0.15245585E-01 0.20040097E+02</pdfrwt>
<totfact> 0.14116243E+06</totfact>
</mgrwt>
</event>
<event>
 5    1  0.4133473E-007  0.2000021E+02  0.7818608E-02  0.1745324E+00
          3   -1    0    0  501    0  0.00000000000E+00  0.00000000000E+00  0.10209365330E+02  0.10209788903E+02  0.93000000000E-01 0.  1.
         -3   -1    0    0    0  501 -0.00000000000E+00 -0.00000000000E+00 -0.97942868243E+01  0.97947283473E+01  0.93000000000E-01 0. -1.
       1023    2    1    2    0    0  0.00000000000E+00  0.00000000000E+00  0.41507850567E+00  0.20004517250E+02  0.20000210505E+02 0.  0.
        -11    1    3    3    0    0  0.48368019993E+01  0.87525257182E+01  0.18024287366E+00  0.10001692246E+02  0.51100000000E-03 0.  1.
         11    1    3    3    0    0 -0.48368019993E+01 -0.87525257182E+01  0.23483563200E+00  0.10002825004E+02  0.51100000000E-03 0. -1.
<mgrwt>
<rscale>  0 0.20000211E+02</rscale>
<asrwt>0</asrwt>
<pdfrwt beam="1">  1        3 0.15707381E-02 0.20000211E+02</pdfrwt>
<pdfrwt beam="2">  1       -3 0.15068799E-02 0.20000211E+02</pdfrwt>
<totfact> 0.17884911E+06</totfact>
</mgrwt>
</event>
<event>
 5    1  0.4133473E-007  0.2000017E+02  0.7818608E-02  0.1745325E+00
         -3   -1    0    0    0  501 -0.00000000000E+00  0.00000000000E+00  0.12845500225E+02  0.12845836876E+02  0.93000000000E-01 0. -1.
          3   -1    0    0  501    0  0.00000000000E+00 -0.00000000000E+00 -0.77842466077E+01  0.77848021330E+01  0.93000000000E-01 0.  1.
       1023    2    1    2    0    0  0.00000000000E+00  0.00000000000E+00  0.50612536177E+01  0.20630639009E+02  0.20000174443E+02 0.  0.
        -11    1    3    3    0    0 -0.81351369544E+01  0.58155241037E+01  0.24984951642E+01  0.10307436743E+02  0.51100000000E-03 0.  1.
         11    1    3    3    0    0  0.81351369544E+01 -0.58155241037E+01  0.25627584535E+01  0.10323202266E+02  0.51100000000E-03 0. -1.
<mgrwt>
<rscale>  0 0.20000174E+02</rscale>
<asrwt>0</asrwt>
<pdfrwt beam="2">  1        3 0.11976450E-02 0.20000174E+02</pdfrwt>
<pdfrwt beam="1">  1       -3 0.19762994E-02 0.20000174E+02</pdfrwt>
<totfact> 0.17844310E+06</totfact>
</mgrwt>
</event>
<event>
 4    1  0.4133473E-007  0.2002415E+02  0.7818608E-02  0.1744848E+00
         -3   -1    0    0    0  501 -0.00000000000E+00  0.00000000000E+00  0.56801782583E+02  0.56801858716E+02  0.93000000000E-01 0.  1.
          3   -1    0    0  501    0  0.00000000000E+00 -0.00000000000E+00 -0.17634596204E+01  0.17659101995E+01  0.93000000000E-01 0. -1.
        -11    1    1    2    0    0  0.76440650996E+01  0.64564042147E+01  0.28552234026E+02  0.30254701366E+02  0.51100000000E-03 0.  1.
         11    1    1    2    0    0 -0.76440650996E+01 -0.64564042147E+01  0.26486088936E+02  0.28313067549E+02  0.51100000000E-03 0. -1.
<mgrwt>
<rscale>  0 0.20024149E+02</rscale>
<asrwt>0</asrwt>
<pdfrwt beam="2">  1        3 0.27149587E-03 0.20024149E+02</pdfrwt>
<pdfrwt beam="1">  1       -3 0.87389294E-02 0.20024149E+02</pdfrwt>
<totfact> 0.15769643E+06</totfact>
</mgrwt>
</event>
<event>
 5    1  0.4133473E-007  0.2000014E+02  0.7818608E-02  0.1745325E+00
         -3   -1    0    0    0  501 -0.00000000000E+00  0.00000000000E+00  0.10694960169E+02  0.10695364511E+02  0.93000000000E-01 0.  1.
          3   -1    0    0  501    0  0.00000000000E+00 -0.00000000000E+00 -0.93495149781E+01  0.93499775040E+01  0.93000000000E-01 0. -1.
       1023    2    1    2    0    0  0.00000000000E+00  0.00000000000E+00  0.13454451910E+01  0.20045342015E+02  0.20000137843E+02 0.  0.
        -11    1    3    3    0    0 -0.91950596101E+01  0.39307790215E+01  0.70791921753E+00  0.10025033408E+02  0.51100000000E-03 0. -1.
         11    1    3    3    0    0  0.91950596101E+01 -0.39307790215E+01  0.63752597345E+00  0.10020308607E+02  0.51100000000E-03 0.  1.
<mgrwt>
<rscale>  0 0.20000138E+02</rscale>
<asrwt>0</asrwt>
<pdfrwt beam="2">  1        3 0.14384536E-02 0.20000138E+02</pdfrwt>
<pdfrwt beam="1">  1       -3 0.16454452E-02 0.20000138E+02</pdfrwt>
<totfact> 0.17882475E+06</totfact>
</mgrwt>
</event>
<event>
 5    1  0.4133473E-007  0.2000047E+02  0.7818608E-02  0.1745319E+00
         -3   -1    0    0    0  501 -0.00000000000E+00  0.00000000000E+00  0.11415565780E+03  0.11415569568E+03  0.93000000000E-01 0.  1.
          3   -1    0    0  501    0  0.00000000000E+00 -0.00000000000E+00 -0.87353156369E+00  0.87846820816E+00  0.93000000000E-01 0. -1.
       1023    2    1    2    0    0  0.00000000000E+00  0.00000000000E+00  0.11328212623E+03  0.11503416389E+03  0.20000468429E+02 0.  0.
        -11    1    3    3    0    0  0.99639511512E+01 -0.84986221986E+00  0.56377759782E+02  0.57257788873E+02  0.51100000000E-03 0. -1.
         11    1    3    3    0    0 -0.99639511512E+01  0.84986221986E+00  0.56904366451E+02  0.57776375014E+02  0.51100000000E-03 0.  1.
<mgrwt>
<rscale>  0 0.20000468E+02</rscale>
<asrwt>0</asrwt>
<pdfrwt beam="2">  1        3 0.13477205E-03 0.20000468E+02</pdfrwt>
<pdfrwt beam="1">  1       -3 0.17562801E-01 0.20000468E+02</pdfrwt>
<totfact> 0.13679880E+06</totfact>
</mgrwt>
</event>
<event>
 5    1  0.4133473E-007  0.2000063E+02  0.7818608E-02  0.1745316E+00
         -3   -1    0    0    0  501 -0.00000000000E+00  0.00000000000E+00  0.32575833862E+02  0.32575966614E+02  0.93000000000E-01 0. -1.
          3   -1    0    0  501    0  0.00000000000E+00 -0.00000000000E+00 -0.30691107719E+01  0.30705194886E+01  0.93000000000E-01 0.  1.
       1023    2    1    2    0    0  0.00000000000E+00  0.00000000000E+00  0.29506723090E+02  0.35646486102E+02  0.20000631588E+02 0.  0.
        -11    1    3    3    0    0 -0.97696214814E+01  0.21355821823E+01  0.14735488154E+02  0.17808448179E+02  0.51100000000E-03 0. -1.
         11    1    3    3    0    0  0.97696214814E+01 -0.21355821823E+01  0.14771234937E+02  0.17838037924E+02  0.51100000000E-03 0.  1.
<mgrwt>
<rscale>  0 0.20000632E+02</rscale>
<asrwt>0</asrwt>
<pdfrwt beam="2">  1        3 0.47228949E-03 0.20000632E+02</pdfrwt>
<pdfrwt beam="1">  1       -3 0.50117851E-02 0.20000632E+02</pdfrwt>
<totfact> 0.16947246E+06</totfact>
</mgrwt>
</event>
<event>
 5    1  0.4133473E-007  0.2000076E+02  0.7818608E-02  0.1745313E+00
          3   -1    0    0  501    0  0.00000000000E+00  0.00000000000E+00  0.28612795701E+02  0.28612946839E+02  0.93000000000E-01 0. -1.
         -3   -1    0    0    0  501 -0.00000000000E+00 -0.00000000000E+00 -0.34944265349E+01  0.34956638580E+01  0.93000000000E-01 0.  1.
       1023    2    1    2    0    0  0.00000000000E+00  0.00000000000E+00  0.25118369166E+02  0.32108610697E+02  0.20000760269E+02 0.  0.
        -11    1    3    3    0    0  0.14559462700E+01 -0.98935727723E+01  0.12673163931E+02  0.16143470694E+02  0.51100000000E-03 0.  1.
         11    1    3    3    0    0 -0.14559462700E+01  0.98935727723E+01  0.12445205235E+02  0.15965140004E+02  0.51100000000E-03 0. -1.
<mgrwt>
<rscale>  0 0.20000760E+02</rscale>
<asrwt>0</asrwt>
<pdfrwt beam="1">  1        3 0.44020754E-02 0.20000760E+02</pdfrwt>
<pdfrwt beam="2">  1       -3 0.53771089E-03 0.20000760E+02</pdfrwt>
<totfact> 0.17143275E+06</totfact>
</mgrwt>
</event>
<event>
 5    1  0.4133473E-007  0.2000826E+02  0.7818608E-02  0.1745164E+00
         -3   -1    0    0    0  501 -0.00000000000E+00  0.00000000000E+00  0.23644816787E+01  0.23663099140E+01  0.93000000000E-01 0. -1.
          3   -1    0    0  501    0  0.00000000000E+00 -0.00000000000E+00 -0.42309273533E+02  0.42309375745E+02  0.93000000000E-01 0.  1.
       1023    2    1    2    0    0  0.00000000000E+00  0.00000000000E+00 -0.39944791854E+02  0.44675685659E+02  0.20008260614E+02 0.  0.
        -11    1    3    3    0    0  0.62767095044E+01  0.77886565442E+01 -0.19638435836E+02  0.22039247159E+02  0.51100000000E-03 0.  1.
         11    1    3    3    0    0 -0.62767095044E+01 -0.77886565442E+01 -0.20306356018E+02  0.22636438500E+02  0.51100000000E-03 0. -1.
<mgrwt>
<rscale>  0 0.20008261E+02</rscale>
<asrwt>0</asrwt>
<pdfrwt beam="2">  1        3 0.65092669E-02 0.20008261E+02</pdfrwt>
<pdfrwt beam="1">  1       -3 0.36391494E-03 0.20008261E+02</pdfrwt>
<totfact> 0.16455708E+06</totfact>
</mgrwt>
</event>
<event>
 5    1  0.4166971E-007  0.2000333E+02  0.7818608E-02  0.1745262E+00
         -3   -1    0    0    0  501 -0.00000000000E+00  0.00000000000E+00  0.45148034486E+01  0.45157611961E+01  0.93000000000E-01 0. -1.
          3   -1    0    0  501    0  0.00000000000E+00 -0.00000000000E+00 -0.22153332564E+02  0.22153527770E+02  0.93000000000E-01 0.  1.
       1023    2    1    2    0    0  0.00000000000E+00  0.00000000000E+00 -0.17638529115E+02  0.26669288967E+02  0.20003331339E+02 0.  0.
        -11    1    3    3    0    0  0.99808214082E+01  0.62460042132E+00 -0.90358671276E+01  0.13477901049E+02  0.51100000000E-03 0. -1.
         11    1    3    3    0    0 -0.99808214082E+01 -0.62460042132E+00 -0.86026619875E+01  0.13191387918E+02  0.51100000000E-03 0.  1.
<mgrwt>
<rscale>  0 0.20003331E+02</rscale>
<asrwt>0</asrwt>
<pdfrwt beam="2">  1        3 0.34082936E-02 0.20003331E+02</pdfrwt>
<pdfrwt beam="1">  1       -3 0.69467385E-03 0.20003331E+02</pdfrwt>
<totfact> 0.17458179E+06</totfact>
</mgrwt>
</event>
<event>
 5    1  0.4198348E-007  0.2000140E+02  0.7818608E-02  0.1745300E+00
         -3   -1    0    0    0  501 -0.00000000000E+00  0.00000000000E+00  0.20202316791E+01  0.20223711423E+01  0.93000000000E-01 0. -1.
          3   -1    0    0  501    0  0.00000000000E+00 -0.00000000000E+00 -0.49477835288E+02  0.49477922691E+02  0.93000000000E-01 0.  1.
       1023    2    1    2    0    0  0.00000000000E+00  0.00000000000E+00 -0.47457603609E+02  0.51500293833E+02  0.20001403065E+02 0.  0.
        -11    1    3    3    0    0  0.20840631194E+01 -0.97810324934E+01 -0.23847220715E+02  0.25859270133E+02  0.51100000000E-03 0.  1.
         11    1    3    3    0    0 -0.20840631194E+01  0.97810324934E+01 -0.23610382894E+02  0.25641023700E+02  0.51100000000E-03 0. -1.
<mgrwt>
<rscale>  0 0.20001403E+02</rscale>
<asrwt>0</asrwt>
<pdfrwt beam="2">  1        3 0.76121451E-02 0.20001403E+02</pdfrwt>
<pdfrwt beam="1">  1       -3 0.31097621E-03 0.20001403E+02</pdfrwt>
<totfact> 0.16132789E+06</totfact>
</mgrwt>
</event>
<event>
 5    1  0.4133473E-007  0.2000024E+02  0.7818608E-02  0.1745323E+00
         -3   -1    0    0    0  501 -0.00000000000E+00  0.00000000000E+00  0.42488002859E+02  0.42488104641E+02  0.93000000000E-01 0. -1.
          3   -1    0    0  501    0  0.00000000000E+00 -0.00000000000E+00 -0.23526380304E+01  0.23544754622E+01  0.93000000000E-01 0.  1.
       1023    2    1    2    0    0  0.00000000000E+00  0.00000000000E+00  0.40135364829E+02  0.44842580103E+02  0.20000237007E+02 0.  0.
        -11    1    3    3    0    0 -0.50842034995E+01  0.86112070747E+01  0.20110064432E+02  0.22459223144E+02  0.51100000000E-03 0. -1.
         11    1    3    3    0    0  0.50842034995E+01 -0.86112070747E+01  0.20025300397E+02  0.22383356959E+02  0.51100000000E-03 0.  1.
<mgrwt>
<rscale>  0 0.20000237E+02</rscale>
<asrwt>0</asrwt>
<pdfrwt beam="2">  1        3 0.36209353E-03 0.20000237E+02</pdfrwt>
<pdfrwt beam="1">  1       -3 0.65367642E-02 0.20000237E+02</pdfrwt>
<totfact> 0.16463874E+06</totfact>
</mgrwt>
</event>
<event>
 5    1  0.4189141E-007  0.2000075E+02  0.7818608E-02  0.1745313E+00
          3   -1    0    0  501    0  0.00000000000E+00  0.00000000000E+00  0.73986456738E+01  0.73992301496E+01  0.93000000000E-01 0. -1.
         -3   -1    0    0    0  501 -0.00000000000E+00 -0.00000000000E+00 -0.13515719311E+02  0.13516039268E+02  0.93000000000E-01 0.  1.
       1023    2    1    2    0    0  0.00000000000E+00  0.00000000000E+00 -0.61170736374E+01  0.20915269418E+02  0.20000747609E+02 0.  0.
        -11    1    3    3    0    0 -0.27004326454E+01  0.96288660994E+01 -0.30677213312E+01  0.10460320897E+02  0.51100000000E-03 0. -1.
         11    1    3    3    0    0  0.27004326454E+01 -0.96288660994E+01 -0.30493523062E+01  0.10454948521E+02  0.51100000000E-03 0.  1.
<mgrwt>
<rscale>  0 0.20000748E+02</rscale>
<asrwt>0</asrwt>
<pdfrwt beam="1">  1        3 0.11383228E-02 0.20000748E+02</pdfrwt>
<pdfrwt beam="2">  1       -3 0.20794110E-02 0.20000748E+02</pdfrwt>
<totfact> 0.17824699E+06</totfact>
</mgrwt>
</event>
<event>
 5    1  0.4133473E-007  0.2000035E+02  0.7818608E-02  0.1745321E+00
         -3   -1    0    0    0  501 -0.00000000000E+00  0.00000000000E+00  0.54657358368E+01  0.54665269814E+01  0.93000000000E-01 0. -1.
          3   -1    0    0  501    0  0.00000000000E+00 -0.00000000000E+00 -0.18294205152E+02  0.18294441536E+02  0.93000000000E-01 0.  1.
       1023    2    1    2    0    0  0.00000000000E+00  0.00000000000E+00 -0.12828469315E+02  0.23760968518E+02  0.20000349995E+02 0.  0.
        -11    1    3    3    0    0 -0.99590103748E+01  0.90641739270E+00 -0.64089765219E+01  0.11877645409E+02  0.51100000000E-03 0.  1.
         11    1    3    3    0    0  0.99590103748E+01 -0.90641739270E+00 -0.64194927928E+01  0.11883323109E+02  0.51100000000E-03 0. -1.
<mgrwt>
<rscale>  0 0.20000350E+02</rscale>
<asrwt>0</asrwt>
<pdfrwt beam="2">  1        3 0.28145721E-02 0.20000350E+02</pdfrwt>
<pdfrwt beam="1">  1       -3 0.84096148E-03 0.20000350E+02</pdfrwt>
<totfact> 0.17643116E+06</totfact>
</mgrwt>
</event>
<event>
 5    1  0.4133473E-007  0.2000053E+02  0.7818608E-02  0.1745318E+00
         -3   -1    0    0    0  501 -0.00000000000E+00  0.00000000000E+00  0.24826682837E+02  0.24826857024E+02  0.93000000000E-01 0. -1.
          3   -1    0    0  501    0  0.00000000000E+00 -0.00000000000E+00 -0.40274132450E+01  0.40284868681E+01  0.93000000000E-01 0.  1.
       1023    2    1    2    0    0  0.00000000000E+00  0.00000000000E+00  0.20799269592E+02  0.28855343892E+02  0.20000531382E+02 0.  0.
        -11    1    3    3    0    0 -0.91653902406E+00 -0.99579761486E+01  0.10490662543E+02  0.14493285811E+02  0.51100000000E-03 0. -1.
         11    1    3    3    0    0  0.91653902406E+00  0.99579761486E+01  0.10308607049E+02  0.14362058080E+02  0.51100000000E-03 0.  1.
<mgrwt>
<rscale>  0 0.20000531E+02</rscale>
<asrwt>0</asrwt>
<pdfrwt beam="2">  1        3 0.61969802E-03 0.20000531E+02</pdfrwt>
<pdfrwt beam="1">  1       -3 0.38195857E-02 0.20000531E+02</pdfrwt>
<totfact> 0.17334216E+06</totfact>
</mgrwt>
</event>
<event>
 5    1  0.4133473E-007  0.2000034E+02  0.7818608E-02  0.1745321E+00
          3   -1    0    0  501    0  0.00000000000E+00  0.00000000000E+00  0.14479266341E+02  0.14479565007E+02  0.93000000000E-01 0. -1.
         -3   -1    0    0    0  501 -0.00000000000E+00 -0.00000000000E+00 -0.69059807739E+01  0.69066069419E+01  0.93000000000E-01 0.  1.
       1023    2    1    2    0    0  0.00000000000E+00  0.00000000000E+00  0.75732855675E+01  0.21386171949E+02  0.20000342405E+02 0.  0.
        -11    1    3    3    0    0  0.79550095117E+01  0.60597356214E+01  0.37554369064E+01  0.10682035328E+02  0.51100000000E-03 0. -1.
         11    1    3    3    0    0 -0.79550095117E+01 -0.60597356214E+01  0.38178486611E+01  0.10704136621E+02  0.51100000000E-03 0.  1.
<mgrwt>
<rscale>  0 0.20000342E+02</rscale>
<asrwt>0</asrwt>
<pdfrwt beam="1">  1        3 0.22276506E-02 0.20000342E+02</pdfrwt>
<pdfrwt beam="2">  1       -3 0.10625297E-02 0.20000342E+02</pdfrwt>
<totfact> 0.17794326E+06</totfact>
</mgrwt>
</event>
<event>
 5    1  0.4133473E-007  0.2000023E+02  0.7818608E-02  0.1745323E+00
         -3   -1    0    0    0  501 -0.00000000000E+00  0.00000000000E+00  0.17934985000E+01  0.17959080904E+01  0.93000000000E-01 0.  1.
          3   -1    0    0  501    0  0.00000000000E+00 -0.00000000000E+00 -0.55718354923E+02  0.55718432536E+02  0.93000000000E-01 0. -1.
       1023    2    1    2    0    0  0.00000000000E+00  0.00000000000E+00 -0.53924856423E+02  0.57514340627E+02  0.20000230936E+02 0.  0.
        -11    1    3    3    0    0 -0.57148335192E+01 -0.82062539395E+01 -0.27018724279E+02  0.28809952929E+02  0.51100000000E-03 0. -1.
         11    1    3    3    0    0  0.57148335192E+01  0.82062539395E+01 -0.26906132144E+02  0.28704387698E+02  0.51100000000E-03 0.  1.
<mgrwt>
<rscale>  0 0.20000231E+02</rscale>
<asrwt>0</asrwt>
<pdfrwt beam="2">  1        3 0.85722446E-02 0.20000231E+02</pdfrwt>
<pdfrwt beam="1">  1       -3 0.27611421E-03 0.20000231E+02</pdfrwt>
<totfact> 0.15855080E+06</totfact>
</mgrwt>
</event>
<event>
 5    1  0.4133473E-007  0.2000064E+02  0.7818608E-02  0.1745315E+00
         -3   -1    0    0    0  501 -0.00000000000E+00  0.00000000000E+00  0.15540856455E+02  0.15541134719E+02  0.93000000000E-01 0. -1.
          3   -1    0    0  501    0  0.00000000000E+00 -0.00000000000E+00 -0.64343889353E+01  0.64350609920E+01  0.93000000000E-01 0.  1.
       1023    2    1    2    0    0  0.00000000000E+00  0.00000000000E+00  0.91064675193E+01  0.21976195711E+02  0.20000635671E+02 0.  0.
        -11    1    3    3    0    0  0.83821501274E+01  0.54539753783E+01  0.45441489190E+01  0.10984333291E+02  0.51100000000E-03 0.  1.
         11    1    3    3    0    0 -0.83821501274E+01 -0.54539753783E+01  0.45623186003E+01  0.10991862420E+02  0.51100000000E-03 0. -1.
<mgrwt>
<rscale>  0 0.20000636E+02</rscale>
<asrwt>0</asrwt>
<pdfrwt beam="2">  1        3 0.98997910E-03 0.20000636E+02</pdfrwt>
<pdfrwt beam="1">  1       -3 0.23909741E-02 0.20000636E+02</pdfrwt>
<totfact> 0.17756539E+06</totfact>
</mgrwt>
</event>
<event>
 5    1  0.4133473E-007  0.2000100E+02  0.7818608E-02  0.1745308E+00
          3   -1    0    0  501    0  0.00000000000E+00  0.00000000000E+00  0.13671312191E+01  0.13702907612E+01  0.93000000000E-01 0.  1.
         -3   -1    0    0    0  501 -0.00000000000E+00 -0.00000000000E+00 -0.73065588681E+02  0.73065647868E+02  0.93000000000E-01 0. -1.
       1023    2    1    2    0    0  0.00000000000E+00  0.00000000000E+00 -0.71698457462E+02  0.74435938629E+02  0.20001003903E+02 0.  0.
        -11    1    3    3    0    0  0.92167948340E+01  0.38808139979E+01 -0.35863509889E+02  0.37231725263E+02  0.51100000000E-03 0.  1.
         11    1    3    3    0    0 -0.92167948340E+01 -0.38808139979E+01 -0.35834947574E+02  0.37204213366E+02  0.51100000000E-03 0. -1.
<mgrwt>
<rscale>  0 0.20001004E+02</rscale>
<asrwt>0</asrwt>
<pdfrwt beam="1">  1        3 0.21057553E-03 0.20001004E+02</pdfrwt>
<pdfrwt beam="2">  1       -3 0.11241104E-01 0.20001004E+02</pdfrwt>
<totfact> 0.15132857E+06</totfact>
</mgrwt>
</event>
<event>
 4    1  0.4133473E-007  0.2007369E+02  0.7818608E-02  0.1743867E+00
         -3   -1    0    0    0  501 -0.00000000000E+00  0.00000000000E+00  0.33904764467E+02  0.33904892015E+02  0.93000000000E-01 0.  1.
          3   -1    0    0  501    0  0.00000000000E+00 -0.00000000000E+00 -0.29703513291E+01  0.29718068609E+01  0.93000000000E-01 0. -1.
        -11    1    1    2    0    0 -0.45917971276E+01  0.89248308504E+01  0.15407845662E+02  0.18388553907E+02  0.51100000000E-03 0.  1.
         11    1    1    2    0    0  0.45917971276E+01 -0.89248308504E+01  0.15526567475E+02  0.18488144969E+02  0.51100000000E-03 0. -1.
<mgrwt>
<rscale>  0 0.20073689E+02</rscale>
<asrwt>0</asrwt>
<pdfrwt beam="2">  1        3 0.45709889E-03 0.20073689E+02</pdfrwt>
<pdfrwt beam="1">  1       -3 0.52162396E-02 0.20073689E+02</pdfrwt>
<totfact> 0.16748197E+06</totfact>
</mgrwt>
</event>
<event>
 5    1  0.4133473E-007  0.2000903E+02  0.7818608E-02  0.1745149E+00
          3   -1    0    0  501    0  0.00000000000E+00  0.00000000000E+00  0.20405283088E+01  0.20426465135E+01  0.93000000000E-01 0. -1.
         -3   -1    0    0    0  501 -0.00000000000E+00 -0.00000000000E+00 -0.49023582290E+02  0.49023670502E+02  0.93000000000E-01 0.  1.
       1023    2    1    2    0    0  0.00000000000E+00  0.00000000000E+00 -0.46983053981E+02  0.51066317016E+02  0.20009032265E+02 0.  0.
        -11    1    3    3    0    0  0.13579768694E+01  0.99101545791E+01 -0.23013530412E+02  0.25093382539E+02  0.51100000000E-03 0. -1.
         11    1    3    3    0    0 -0.13579768694E+01 -0.99101545791E+01 -0.23969523569E+02  0.25972934477E+02  0.51100000000E-03 0.  1.
<mgrwt>
<rscale>  0 0.20009032E+02</rscale>
<asrwt>0</asrwt>
<pdfrwt beam="1">  1        3 0.31409719E-03 0.20009032E+02</pdfrwt>
<pdfrwt beam="2">  1       -3 0.75422584E-02 0.20009032E+02</pdfrwt>
<totfact> 0.16142871E+06</totfact>
</mgrwt>
</event>
<event>
 5    1  0.4133473E-007  0.2000536E+02  0.7818608E-02  0.1745221E+00
         -3   -1    0    0    0  501 -0.00000000000E+00  0.00000000000E+00  0.19030727000E+01  0.19053437227E+01  0.93000000000E-01 0.  1.
          3   -1    0    0  501    0  0.00000000000E+00 -0.00000000000E+00 -0.52541116348E+02  0.52541198655E+02  0.93000000000E-01 0. -1.
       1023    2    1    2    0    0  0.00000000000E+00  0.00000000000E+00 -0.50638043648E+02  0.54446542377E+02  0.20005362090E+02 0.  0.
        -11    1    3    3    0    0 -0.91510163912E+01  0.40333393664E+01 -0.25894434699E+02  0.27758434323E+02  0.51100000000E-03 0. -1.
         11    1    3    3    0    0  0.91510163912E+01 -0.40333393664E+01 -0.24743608949E+02  0.26688108054E+02  0.51100000000E-03 0.  1.
<mgrwt>
<rscale>  0 0.20005362E+02</rscale>
<asrwt>0</asrwt>
<pdfrwt beam="2">  1        3 0.80834286E-02 0.20005362E+02</pdfrwt>
<pdfrwt beam="1">  1       -3 0.29296148E-03 0.20005362E+02</pdfrwt>
<totfact> 0.15987264E+06</totfact>
</mgrwt>
</event>
<event>
 4    1  0.4133473E-007  0.2002333E+02  0.7818608E-02  0.1744864E+00
         -3   -1    0    0    0  501 -0.00000000000E+00  0.00000000000E+00  0.21776133396E+01  0.21795983246E+01  0.93000000000E-01 0.  1.
          3   -1    0    0  501    0  0.00000000000E+00 -0.00000000000E+00 -0.46006044021E+02  0.46006138019E+02  0.93000000000E-01 0. -1.
        -11    1    1    2    0    0 -0.71795230006E+01  0.69776713839E+01 -0.21905199505E+02  0.24084667614E+02  0.51100000000E-03 0. -1.
         11    1    1    2    0    0  0.71795230006E+01 -0.69776713839E+01 -0.21923231176E+02  0.24101068730E+02  0.51100000000E-03 0.  1.
<mgrwt>
<rscale>  0 0.20023333E+02</rscale>
<asrwt>0</asrwt>
<pdfrwt beam="2">  1        3 0.70780121E-02 0.20023333E+02</pdfrwt>
<pdfrwt beam="1">  1       -3 0.33517739E-03 0.20023333E+02</pdfrwt>
<totfact> 0.16254694E+06</totfact>
</mgrwt>
</event>
<event>
 5    1  0.4133473E-007  0.2000412E+02  0.7818608E-02  0.1745246E+00
         -3   -1    0    0    0  501 -0.00000000000E+00  0.00000000000E+00  0.43125668435E+01  0.43135694941E+01  0.93000000000E-01 0.  1.
          3   -1    0    0  501    0  0.00000000000E+00 -0.00000000000E+00 -0.23193813752E+02  0.23194000201E+02  0.93000000000E-01 0. -1.
       1023    2    1    2    0    0  0.00000000000E+00  0.00000000000E+00 -0.18881246908E+02  0.27507569695E+02  0.20004122219E+02 0.  0.
        -11    1    3    3    0    0  0.60849325201E+01  0.79365227455E+01 -0.92170737966E+01  0.13600339948E+02  0.51100000000E-03 0. -1.
         11    1    3    3    0    0 -0.60849325201E+01 -0.79365227455E+01 -0.96641731114E+01  0.13907229748E+02  0.51100000000E-03 0.  1.
<mgrwt>
<rscale>  0 0.20004122E+02</rscale>
<asrwt>0</asrwt>
<pdfrwt beam="2">  1        3 0.35683704E-02 0.20004122E+02</pdfrwt>
<pdfrwt beam="1">  1       -3 0.66356330E-03 0.20004122E+02</pdfrwt>
<totfact> 0.17406201E+06</totfact>
</mgrwt>
</event>
<event>
 5    1  0.4133473E-007  0.2000039E+02  0.7818608E-02  0.1745320E+00
          3   -1    0    0  501    0  0.00000000000E+00  0.00000000000E+00  0.57483458391E+01  0.57490980932E+01  0.93000000000E-01 0. -1.
         -3   -1    0    0    0  501 -0.00000000000E+00 -0.00000000000E+00 -0.17394980949E+02  0.17395229554E+02  0.93000000000E-01 0.  1.
       1023    2    1    2    0    0  0.00000000000E+00  0.00000000000E+00 -0.11646635110E+02  0.23144327647E+02  0.20000394817E+02 0.  0.
        -11    1    3    3    0    0 -0.22380011811E+01 -0.97464014054E+01 -0.57603774300E+01  0.11540491239E+02  0.51100000000E-03 0. -1.
         11    1    3    3    0    0  0.22380011811E+01  0.97464014054E+01 -0.58862576801E+01  0.11603836408E+02  0.51100000000E-03 0.  1.
<mgrwt>
<rscale>  0 0.20000395E+02</rscale>
<asrwt>0</asrwt>
<pdfrwt beam="1">  1        3 0.88443789E-03 0.20000395E+02</pdfrwt>
<pdfrwt beam="2">  1       -3 0.26762279E-02 0.20000395E+02</pdfrwt>
<totfact> 0.17682807E+06</totfact>
</mgrwt>
</event>
<event>
 5    1  0.4239551E-007  0.2000087E+02  0.7818608E-02  0.1745311E+00
         -3   -1    0    0    0  501 -0.00000000000E+00  0.00000000000E+00  0.13218055233E+02  0.13218382395E+02  0.93000000000E-01 0. -1.
          3   -1    0    0  501    0  0.00000000000E+00 -0.00000000000E+00 -0.75653583876E+01  0.75659299846E+01  0.93000000000E-01 0.  1.
       1023    2    1    2    0    0  0.00000000000E+00  0.00000000000E+00  0.56526968454E+01  0.20784312380E+02  0.20000866468E+02 0.  0.
        -11    1    3    3    0    0  0.95782762558E+01 -0.28749177878E+01  0.28142169382E+01  0.10388856797E+02  0.51100000000E-03 0. -1.
         11    1    3    3    0    0 -0.95782762558E+01  0.28749177878E+01  0.28384799071E+01  0.10395455582E+02  0.51100000000E-03 0.  1.
<mgrwt>
<rscale>  0 0.20000866E+02</rscale>
<asrwt>0</asrwt>
<pdfrwt beam="2">  1        3 0.11639704E-02 0.20000866E+02</pdfrwt>
<pdfrwt beam="1">  1       -3 0.20336161E-02 0.20000866E+02</pdfrwt>
<totfact> 0.17832997E+06</totfact>
</mgrwt>
</event>
<event>
 5    1  0.4133473E-007  0.2000055E+02  0.7818608E-02  0.1745317E+00
         -3   -1    0    0    0  501 -0.00000000000E+00  0.00000000000E+00  0.38827848623E+01  0.38838984650E+01  0.93000000000E-01 0.  1.
          3   -1    0    0  501    0  0.00000000000E+00 -0.00000000000E+00 -0.25751249194E+02  0.25751417127E+02  0.93000000000E-01 0. -1.
       1023    2    1    2    0    0  0.00000000000E+00  0.00000000000E+00 -0.21868464332E+02  0.29635315592E+02  0.20000554943E+02 0.  0.
        -11    1    3    3    0    0  0.64291329193E+01 -0.76597518140E+01 -0.10935919162E+02  0.14818902663E+02  0.51100000000E-03 0.  1.
         11    1    3    3    0    0 -0.64291329193E+01  0.76597518140E+01 -0.10932545169E+02  0.14816412929E+02  0.51100000000E-03 0. -1.
<mgrwt>
<rscale>  0 0.20000555E+02</rscale>
<asrwt>0</asrwt>
<pdfrwt beam="2">  1        3 0.39618291E-02 0.20000555E+02</pdfrwt>
<pdfrwt beam="1">  1       -3 0.59745011E-03 0.20000555E+02</pdfrwt>
<totfact> 0.17286680E+06</totfact>
</mgrwt>
</event>
<event>
 5    1  0.4232548E-007  0.2000081E+02  0.7818608E-02  0.1745312E+00
         -3   -1    0    0    0  501 -0.00000000000E+00  0.00000000000E+00  0.63761719191E+01  0.63768501113E+01  0.93000000000E-01 0. -1.
          3   -1    0    0  501    0  0.00000000000E+00 -0.00000000000E+00 -0.15683014953E+02  0.15683290695E+02  0.93000000000E-01 0.  1.
       1023    2    1    2    0    0  0.00000000000E+00  0.00000000000E+00 -0.93068430341E+01  0.22060140806E+02  0.20000812112E+02 0.  0.
        -11    1    3    3    0    0 -0.73195567165E+01  0.68141087212E+01 -0.46661334333E+01  0.11035433370E+02  0.51100000000E-03 0.  1.
         11    1    3    3    0    0  0.73195567165E+01 -0.68141087212E+01 -0.46407096009E+01  0.11024707436E+02  0.51100000000E-03 0. -1.
<mgrwt>
<rscale>  0 0.20000812E+02</rscale>
<asrwt>0</asrwt>
<pdfrwt beam="2">  1        3 0.24128449E-02 0.20000812E+02</pdfrwt>
<pdfrwt beam="1">  1       -3 0.98102291E-03 0.20000812E+02</pdfrwt>
<totfact> 0.17750042E+06</totfact>
</mgrwt>
</event>
<event>
 5    1  0.4182897E-007  0.2000115E+02  0.7818608E-02  0.1745305E+00
         -3   -1    0    0    0  501 -0.00000000000E+00  0.00000000000E+00  0.47449210286E+02  0.47449301425E+02  0.93000000000E-01 0. -1.
          3   -1    0    0  501    0  0.00000000000E+00 -0.00000000000E+00 -0.21066405443E+01  0.21086923396E+01  0.93000000000E-01 0.  1.
       1023    2    1    2    0    0  0.00000000000E+00  0.00000000000E+00  0.45342569742E+02  0.49557993765E+02  0.20001152848E+02 0.  0.
        -11    1    3    3    0    0  0.36856862959E+01  0.92964633505E+01  0.22807319105E+02  0.24903459987E+02  0.51100000000E-03 0.  1.
         11    1    3    3    0    0 -0.36856862959E+01 -0.92964633505E+01  0.22535250637E+02  0.24654533778E+02  0.51100000000E-03 0. -1.
<mgrwt>
<rscale>  0 0.20001153E+02</rscale>
<asrwt>0</asrwt>
<pdfrwt beam="2">  1        3 0.32426339E-03 0.20001153E+02</pdfrwt>
<pdfrwt beam="1">  1       -3 0.73000433E-02 0.20001153E+02</pdfrwt>
<totfact> 0.16229115E+06</totfact>
</mgrwt>
</event>
<event>
 5    1  0.4133473E-007  0.2000262E+02  0.7818608E-02  0.1745276E+00
         -3   -1    0    0    0  501 -0.00000000000E+00  0.00000000000E+00  0.31110032622E+01  0.31123930178E+01  0.93000000000E-01 0. -1.
          3   -1    0    0  501    0  0.00000000000E+00 -0.00000000000E+00 -0.32143752889E+02  0.32143887425E+02  0.93000000000E-01 0.  1.
       1023    2    1    2    0    0  0.00000000000E+00  0.00000000000E+00 -0.29032749627E+02  0.35256280443E+02  0.20002618823E+02 0.  0.
        -11    1    3    3    0    0  0.99103405276E+01 -0.13447837314E+01 -0.14611244144E+02  0.17706262970E+02  0.51100000000E-03 0.  1.
         11    1    3    3    0    0 -0.99103405276E+01  0.13447837314E+01 -0.14421505483E+02  0.17550017474E+02  0.51100000000E-03 0. -1.
<mgrwt>
<rscale>  0 0.20002619E+02</rscale>
<asrwt>0</asrwt>
<pdfrwt beam="2">  1        3 0.49453098E-02 0.20002619E+02</pdfrwt>
<pdfrwt beam="1">  1       -3 0.47873316E-03 0.20002619E+02</pdfrwt>
<totfact> 0.16963098E+06</totfact>
</mgrwt>
</event>
<event>
 5    1  0.4133473E-007  0.2000070E+02  0.7818608E-02  0.1745314E+00
          3   -1    0    0  501    0  0.00000000000E+00  0.00000000000E+00  0.10164215776E+03  0.10164220030E+03  0.93000000000E-01 0. -1.
         -3   -1    0    0    0  501 -0.00000000000E+00 -0.00000000000E+00 -0.98167165974E+00  0.98606706036E+00  0.93000000000E-01 0.  1.
       1023    2    1    2    0    0  0.00000000000E+00  0.00000000000E+00  0.10066048610E+03  0.10262826736E+03  0.20000695006E+02 0.  0.
        -11    1    3    3    0    0 -0.99640250497E+01 -0.85047052788E+00  0.50551220797E+02  0.51530874431E+02  0.51100000000E-03 0.  1.
         11    1    3    3    0    0  0.99640250497E+01  0.85047052788E+00  0.50109265301E+02  0.51097392934E+02  0.51100000000E-03 0. -1.
<mgrwt>
<rscale>  0 0.20000695E+02</rscale>
<asrwt>0</asrwt>
<pdfrwt beam="1">  1        3 0.15637604E-01 0.20000695E+02</pdfrwt>
<pdfrwt beam="2">  1       -3 0.15136771E-03 0.20000695E+02</pdfrwt>
<totfact> 0.14086647E+06</totfact>
</mgrwt>
</event>
<event>
 5    1  0.4133473E-007  0.2000072E+02  0.7818608E-02  0.1745314E+00
          3   -1    0    0  501    0  0.00000000000E+00  0.00000000000E+00  0.90660253701E+00  0.91136006063E+00  0.93000000000E-01 0. -1.
         -3   -1    0    0    0  501 -0.00000000000E+00 -0.00000000000E+00 -0.11001638096E+03  0.11001642027E+03  0.93000000000E-01 0.  1.
       1023    2    1    2    0    0  0.00000000000E+00  0.00000000000E+00 -0.10910977842E+03  0.11092778033E+03  0.20000717514E+02 0.  0.
        -11    1    3    3    0    0  0.97169928869E+01 -0.23624993811E+01 -0.54978035476E+02  0.55880101460E+02  0.51100000000E-03 0. -1.
         11    1    3    3    0    0 -0.97169928869E+01  0.23624993811E+01 -0.54131742948E+02  0.55047678870E+02  0.51100000000E-03 0.  1.
<mgrwt>
<rscale>  0 0.20000718E+02</rscale>
<asrwt>0</asrwt>
<pdfrwt beam="1">  1        3 0.13984639E-03 0.20000718E+02</pdfrwt>
<pdfrwt beam="2">  1       -3 0.16925955E-01 0.20000718E+02</pdfrwt>
<totfact> 0.13812281E+06</totfact>
</mgrwt>
</event>
<event>
 5    1  0.4133473E-007  0.2000818E+02  0.7818608E-02  0.1745166E+00
         -3   -1    0    0    0  501 -0.00000000000E+00  0.00000000000E+00  0.15883946775E+01  0.15911149083E+01  0.93000000000E-01 0. -1.
          3   -1    0    0  501    0  0.00000000000E+00 -0.00000000000E+00 -0.62951461619E+02  0.62951530314E+02  0.93000000000E-01 0.  1.
       1023    2    1    2    0    0  0.00000000000E+00  0.00000000000E+00 -0.61363066941E+02  0.64542645223E+02  0.20008175027E+02 0.  0.
        -11    1    3    3    0    0 -0.61979446411E+01 -0.78508945094E+01 -0.31246781698E+02  0.32808724893E+02  0.51100000000E-03 0. -1.
         11    1    3    3    0    0  0.61979446411E+01  0.78508945094E+01 -0.30116285243E+02  0.31733920330E+02  0.51100000000E-03 0.  1.
<mgrwt>
<rscale>  0 0.20008175E+02</rscale>
<asrwt>0</asrwt>
<pdfrwt beam="2">  1        3 0.96850529E-02 0.20008175E+02</pdfrwt>
<pdfrwt beam="1">  1       -3 0.24458299E-03 0.20008175E+02</pdfrwt>
<totfact> 0.15530538E+06</totfact>
</mgrwt>
</event>
<event>
 5    1  0.4133473E-007  0.2000047E+02  0.7818608E-02  0.1745319E+00
         -3   -1    0    0    0  501 -0.00000000000E+00  0.00000000000E+00  0.87274593972E+01  0.87279548881E+01  0.93000000000E-01 0. -1.
          3   -1    0    0  501    0  0.00000000000E+00 -0.00000000000E+00 -0.11457619979E+02  0.11457997407E+02  0.93000000000E-01 0.  1.
       1023    2    1    2    0    0  0.00000000000E+00  0.00000000000E+00 -0.27301605821E+01  0.20185952296E+02  0.20000472326E+02 0.  0.
        -11    1    3    3    0    0 -0.97716291622E+01  0.21258303120E+01 -0.13359673731E+01  0.10089038610E+02  0.51100000000E-03 0.  1.
         11    1    3    3    0    0  0.97716291622E+01 -0.21258303120E+01 -0.13941932089E+01  0.10096913685E+02  0.51100000000E-03 0. -1.
<mgrwt>
<rscale>  0 0.20000472E+02</rscale>
<asrwt>0</asrwt>
<pdfrwt beam="2">  1        3 0.17627779E-02 0.20000472E+02</pdfrwt>
<pdfrwt beam="1">  1       -3 0.13427532E-02 0.20000472E+02</pdfrwt>
<totfact> 0.17872440E+06</totfact>
</mgrwt>
</event>
<event>
 5    1  0.4133473E-007  0.2000361E+02  0.7818608E-02  0.1745256E+00
         -3   -1    0    0    0  501 -0.00000000000E+00  0.00000000000E+00  0.14930979617E+02  0.14931269247E+02  0.93000000000E-01 0.  1.
          3   -1    0    0  501    0  0.00000000000E+00 -0.00000000000E+00 -0.66992234011E+01  0.66998688925E+01  0.93000000000E-01 0. -1.
       1023    2    1    2    0    0  0.00000000000E+00  0.00000000000E+00  0.82317562162E+01  0.21631138140E+02  0.20003607845E+02 0.  0.
        -11    1    3    3    0    0 -0.49602494892E+01 -0.86843133150E+01  0.39847311834E+01  0.10765660946E+02  0.51100000000E-03 0. -1.
         11    1    3    3    0    0  0.49602494892E+01  0.86843133150E+01  0.42470250328E+01  0.10865477193E+02  0.51100000000E-03 0.  1.
<mgrwt>
<rscale>  0 0.20003608E+02</rscale>
<asrwt>0</asrwt>
<pdfrwt beam="2">  1        3 0.10307217E-02 0.20003608E+02</pdfrwt>
<pdfrwt beam="1">  1       -3 0.22971457E-02 0.20003608E+02</pdfrwt>
<totfact> 0.17772960E+06</totfact>
</mgrwt>
</event>
<event>
 5    1  0.4133473E-007  0.2000463E+02  0.7818608E-02  0.1745236E+00
         -3   -1    0    0    0  501 -0.00000000000E+00  0.00000000000E+00  0.34607624816E+02  0.34607749774E+02  0.93000000000E-01 0. -1.
          3   -1    0    0  501    0  0.00000000000E+00 -0.00000000000E+00 -0.28899970298E+01  0.28914930109E+01  0.93000000000E-01 0.  1.
       1023    2    1    2    0    0  0.00000000000E+00  0.00000000000E+00  0.31717627786E+02  0.37499242784E+02  0.20004631890E+02 0.  0.
        -11    1    3    3    0    0  0.43058397016E+00 -0.99928895763E+01  0.15754792638E+02  0.18661638083E+02  0.51100000000E-03 0.  1.
         11    1    3    3    0    0 -0.43058397016E+00  0.99928895763E+01  0.15962835148E+02  0.18837604701E+02  0.51100000000E-03 0. -1.
<mgrwt>
<rscale>  0 0.20004632E+02</rscale>
<asrwt>0</asrwt>
<pdfrwt beam="2">  1        3 0.44473963E-03 0.20004632E+02</pdfrwt>
<pdfrwt beam="1">  1       -3 0.53243745E-02 0.20004632E+02</pdfrwt>
<totfact> 0.16839089E+06</totfact>
</mgrwt>
</event>
<event>
 5    1  0.4133473E-007  0.2000055E+02  0.7818608E-02  0.1745317E+00
          3   -1    0    0  501    0  0.00000000000E+00  0.00000000000E+00  0.78427663223E+02  0.78427718363E+02  0.93000000000E-01 0. -1.
         -3   -1    0    0    0  501 -0.00000000000E+00 -0.00000000000E+00 -0.12733787694E+01  0.12767703357E+01  0.93000000000E-01 0.  1.
       1023    2    1    2    0    0  0.00000000000E+00  0.00000000000E+00  0.77154284454E+02  0.79704488699E+02  0.20000547722E+02 0.  0.
        -11    1    3    3    0    0  0.99732649179E+01  0.73368706275E+00  0.38440993405E+02  0.39720451710E+02  0.51100000000E-03 0.  1.
         11    1    3    3    0    0 -0.99732649179E+01 -0.73368706275E+00  0.38713291049E+02  0.39984036989E+02  0.51100000000E-03 0. -1.
<mgrwt>
<rscale>  0 0.20000548E+02</rscale>
<asrwt>0</asrwt>
<pdfrwt beam="1">  1        3 0.12066059E-01 0.20000548E+02</pdfrwt>
<pdfrwt beam="2">  1       -3 0.19616957E-03 0.20000548E+02</pdfrwt>
<totfact> 0.14922032E+06</totfact>
</mgrwt>
</event>
<event>
 5    1  0.4133473E-007  0.2000031E+02  0.7818608E-02  0.1745322E+00
          3   -1    0    0  501    0  0.00000000000E+00  0.00000000000E+00  0.58668416823E+02  0.58668490534E+02  0.93000000000E-01 0. -1.
         -3   -1    0    0    0  501 -0.00000000000E+00 -0.00000000000E+00 -0.17032038597E+01  0.17057410084E+01  0.93000000000E-01 0.  1.
       1023    2    1    2    0    0  0.00000000000E+00  0.00000000000E+00  0.56965212964E+02  0.60374231542E+02  0.20000308657E+02 0.  0.
        -11    1    3    3    0    0 -0.32595832707E+01  0.94539505239E+01  0.28579143531E+02  0.30278201876E+02  0.51100000000E-03 0.  1.
         11    1    3    3    0    0  0.32595832707E+01 -0.94539505239E+01  0.28386069432E+02  0.30096029666E+02  0.51100000000E-03 0. -1.
<mgrwt>
<rscale>  0 0.20000309E+02</rscale>
<asrwt>0</asrwt>
<pdfrwt beam="1">  1        3 0.90261108E-02 0.20000309E+02</pdfrwt>
<pdfrwt beam="2">  1       -3 0.26223221E-03 0.20000309E+02</pdfrwt>
<totfact> 0.15726426E+06</totfact>
</mgrwt>
</event>
<event>
 5    1  0.4288180E-007  0.2000118E+02  0.7818608E-02  0.1745305E+00
          3   -1    0    0  501    0  0.00000000000E+00  0.00000000000E+00  0.38872168012E+01  0.38883291347E+01  0.93000000000E-01 0.  1.
         -3   -1    0    0    0  501 -0.00000000000E+00 -0.00000000000E+00 -0.25723500115E+02  0.25723668230E+02  0.93000000000E-01 0. -1.
       1023    2    1    2    0    0  0.00000000000E+00  0.00000000000E+00 -0.21836283314E+02  0.29611997364E+02  0.20001177938E+02 0.  0.
        -11    1    3    3    0    0  0.90603233083E+01  0.42334761800E+01 -0.10919137114E+02  0.14806732745E+02  0.51100000000E-03 0.  1.
         11    1    3    3    0    0 -0.90603233083E+01 -0.42334761800E+01 -0.10917146200E+02  0.14805264619E+02  0.51100000000E-03 0. -1.
<mgrwt>
<rscale>  0 0.20001178E+02</rscale>
<asrwt>0</asrwt>
<pdfrwt beam="1">  1        3 0.59813187E-03 0.20001178E+02</pdfrwt>
<pdfrwt beam="2">  1       -3 0.39575600E-02 0.20001178E+02</pdfrwt>
<totfact> 0.17288538E+06</totfact>
</mgrwt>
</event>
<event>
 5    1  0.4133473E-007  0.2000006E+02  0.7818608E-02  0.1745327E+00
          3   -1    0    0  501    0  0.00000000000E+00  0.00000000000E+00  0.12218047002E+01  0.12253390247E+01  0.93000000000E-01 0. -1.
         -3   -1    0    0    0  501 -0.00000000000E+00 -0.00000000000E+00 -0.81724874902E+02  0.81724927817E+02  0.93000000000E-01 0.  1.
       1023    2    1    2    0    0  0.00000000000E+00  0.00000000000E+00 -0.80503070201E+02  0.82950266842E+02  0.20000061431E+02 0.  0.
        -11    1    3    3    0    0  0.15862714891E+01  0.98734166320E+01 -0.40247764332E+02  0.41471473898E+02  0.51100000000E-03 0.  1.
         11    1    3    3    0    0 -0.15862714891E+01 -0.98734166320E+01 -0.40255305869E+02  0.41478792944E+02  0.51100000000E-03 0. -1.
<mgrwt>
<rscale>  0 0.20000061E+02</rscale>
<asrwt>0</asrwt>
<pdfrwt beam="1">  1        3 0.18824596E-03 0.20000061E+02</pdfrwt>
<pdfrwt beam="2">  1       -3 0.12573329E-01 0.20000061E+02</pdfrwt>
<totfact> 0.14800620E+06</totfact>
</mgrwt>
</event>
<event>
 5    1  0.4133473E-007  0.2000189E+02  0.7818608E-02  0.1745291E+00
         -3   -1    0    0    0  501 -0.00000000000E+00  0.00000000000E+00  0.97517975623E+00  0.97960428590E+00  0.93000000000E-01 0. -1.
          3   -1    0    0  501    0  0.00000000000E+00 -0.00000000000E+00 -0.10232794233E+03  0.10232798460E+03  0.93000000000E-01 0.  1.
       1023    2    1    2    0    0  0.00000000000E+00  0.00000000000E+00 -0.10135276258E+03  0.10330758888E+03  0.20001885868E+02 0.  0.
        -11    1    3    3    0    0 -0.74761257675E+01 -0.66427634574E+01 -0.50727109248E+02  0.51703562506E+02  0.51100000000E-03 0. -1.
         11    1    3    3    0    0  0.74761257675E+01  0.66427634574E+01 -0.50625653330E+02  0.51604026376E+02  0.51100000000E-03 0.  1.
<mgrwt>
<rscale>  0 0.20001886E+02</rscale>
<asrwt>0</asrwt>
<pdfrwt beam="2">  1        3 0.15743095E-01 0.20001886E+02</pdfrwt>
<pdfrwt beam="1">  1       -3 0.15037133E-03 0.20001886E+02</pdfrwt>
<totfact> 0.14061718E+06</totfact>
</mgrwt>
</event>
<event>
 5    1  0.4133473E-007  0.2000264E+02  0.7818608E-02  0.1745276E+00
          3   -1    0    0  501    0  0.00000000000E+00  0.00000000000E+00  0.39059516041E+02  0.39059626757E+02  0.93000000000E-01 0. -1.
         -3   -1    0    0    0  501 -0.00000000000E+00 -0.00000000000E+00 -0.25599132133E+01  0.25616019714E+01  0.93000000000E-01 0.  1.
       1023    2    1    2    0    0  0.00000000000E+00  0.00000000000E+00  0.36499602828E+02  0.41621228728E+02  0.20002641682E+02 0.  0.
        -11    1    3    3    0    0 -0.13198993057E+00  0.99994503277E+01  0.18543996252E+02  0.21068607583E+02  0.51100000000E-03 0. -1.
         11    1    3    3    0    0  0.13198993057E+00 -0.99994503277E+01  0.17955606575E+02  0.20552621146E+02  0.51100000000E-03 0.  1.
<mgrwt>
<rscale>  0 0.20002642E+02</rscale>
<asrwt>0</asrwt>
<pdfrwt beam="1">  1        3 0.60092947E-02 0.20002642E+02</pdfrwt>
<pdfrwt beam="2">  1       -3 0.39397123E-03 0.20002642E+02</pdfrwt>
<totfact> 0.16622262E+06</totfact>
</mgrwt>
</event>
<event>
 5    1  0.4168925E-007  0.2000076E+02  0.7818608E-02  0.1745313E+00
          3   -1    0    0  501    0  0.00000000000E+00  0.00000000000E+00  0.30164465714E+01  0.30178798714E+01  0.93000000000E-01 0. -1.
         -3   -1    0    0    0  501 -0.00000000000E+00 -0.00000000000E+00 -0.33144744497E+02  0.33144874970E+02  0.93000000000E-01 0.  1.
       1023    2    1    2    0    0  0.00000000000E+00  0.00000000000E+00 -0.30128297925E+02  0.36162754841E+02  0.20000762531E+02 0.  0.
        -11    1    3    3    0    0  0.74427521667E+01 -0.66789569393E+01 -0.15186772594E+02  0.18183538921E+02  0.51100000000E-03 0. -1.
         11    1    3    3    0    0 -0.74427521667E+01  0.66789569393E+01 -0.14941525331E+02  0.17979215920E+02  0.51100000000E-03 0.  1.
<mgrwt>
<rscale>  0 0.20000763E+02</rscale>
<asrwt>0</asrwt>
<pdfrwt beam="1">  1        3 0.46418902E-03 0.20000763E+02</pdfrwt>
<pdfrwt beam="2">  1       -3 0.50993115E-02 0.20000763E+02</pdfrwt>
<totfact> 0.16918711E+06</totfact>
</mgrwt>
</event>
<event>
 5    1  0.4235232E-007  0.2000094E+02  0.7818608E-02  0.1745309E+00
          3   -1    0    0  501    0  0.00000000000E+00  0.00000000000E+00  0.37364562153E+02  0.37364677890E+02  0.93000000000E-01 0. -1.
         -3   -1    0    0    0  501 -0.00000000000E+00 -0.00000000000E+00 -0.26756561925E+01  0.26772719437E+01  0.93000000000E-01 0.  1.
       1023    2    1    2    0    0  0.00000000000E+00  0.00000000000E+00  0.34688905960E+02  0.40041949834E+02  0.20000938723E+02 0.  0.
        -11    1    3    3    0    0  0.97665225136E+01 -0.21503465977E+01  0.17386193337E+02  0.20057135177E+02  0.51100000000E-03 0. -1.
         11    1    3    3    0    0 -0.97665225136E+01  0.21503465977E+01  0.17302712623E+02  0.19984814657E+02  0.51100000000E-03 0.  1.
<mgrwt>
<rscale>  0 0.20000939E+02</rscale>
<asrwt>0</asrwt>
<pdfrwt beam="1">  1        3 0.57485271E-02 0.20000939E+02</pdfrwt>
<pdfrwt beam="2">  1       -3 0.41177263E-03 0.20000939E+02</pdfrwt>
<totfact> 0.16707922E+06</totfact>
</mgrwt>
</event>
<event>
 5    1  0.4408389E-007  0.2000101E+02  0.7818608E-02  0.1745308E+00
          3   -1    0    0  501    0  0.00000000000E+00  0.00000000000E+00  0.45225446840E+01  0.45235007924E+01  0.93000000000E-01 0.  1.
         -3   -1    0    0    0  501 -0.00000000000E+00 -0.00000000000E+00 -0.22110293530E+02  0.22110489117E+02  0.93000000000E-01 0. -1.
       1023    2    1    2    0    0  0.00000000000E+00  0.00000000000E+00 -0.17587748846E+02  0.26633989910E+02  0.20001012700E+02 0.  0.
        -11    1    3    3    0    0  0.96788565947E+01 -0.25149495592E+01 -0.87007484191E+01  0.13255499220E+02  0.51100000000E-03 0.  1.
         11    1    3    3    0    0 -0.96788565947E+01  0.25149495592E+01 -0.88870004274E+01  0.13378490689E+02  0.51100000000E-03 0. -1.
<mgrwt>
<rscale>  0 0.20001013E+02</rscale>
<asrwt>0</asrwt>
<pdfrwt beam="1">  1        3 0.69586471E-03 0.20001013E+02</pdfrwt>
<pdfrwt beam="2">  1       -3 0.34016722E-02 0.20001013E+02</pdfrwt>
<totfact> 0.17466069E+06</totfact>
</mgrwt>
</event>
<event>
 4    1  0.4133473E-007  0.2005424E+02  0.7818608E-02  0.1744252E+00
         -3   -1    0    0    0  501 -0.00000000000E+00  0.00000000000E+00  0.89036366258E+02  0.89036414828E+02  0.93000000000E-01 0. -1.
          3   -1    0    0  501    0  0.00000000000E+00 -0.00000000000E+00 -0.11272726071E+01  0.11311023520E+01  0.93000000000E-01 0.  1.
        -11    1    1    2    0    0  0.15444222330E+01 -0.98870547769E+01  0.41096694582E+02  0.42297486899E+02  0.51100000000E-03 0. -1.
         11    1    1    2    0    0 -0.15444222330E+01  0.98870547769E+01  0.46812399069E+02  0.47870030281E+02  0.51100000000E-03 0.  1.
<mgrwt>
<rscale>  0 0.20054237E+02</rscale>
<asrwt>0</asrwt>
<pdfrwt beam="2">  1        3 0.17372489E-03 0.20054237E+02</pdfrwt>
<pdfrwt beam="1">  1       -3 0.13698200E-01 0.20054237E+02</pdfrwt>
<totfact> 0.14446625E+06</totfact>
</mgrwt>
</event>
<event>
 5    1  0.4133473E-007  0.2000366E+02  0.7818608E-02  0.1745255E+00
         -3   -1    0    0    0  501 -0.00000000000E+00  0.00000000000E+00  0.10619191205E+01  0.10659836858E+01  0.93000000000E-01 0.  1.
          3   -1    0    0  501    0  0.00000000000E+00 -0.00000000000E+00 -0.94019600799E+02  0.94019646795E+02  0.93000000000E-01 0. -1.
       1023    2    1    2    0    0  0.00000000000E+00  0.00000000000E+00 -0.92957681679E+02  0.95085630481E+02  0.20003663186E+02 0.  0.
        -11    1    3    3    0    0  0.14861591668E+01 -0.98902248263E+01 -0.46986783778E+02  0.48039390777E+02  0.51100000000E-03 0.  1.
         11    1    3    3    0    0 -0.14861591668E+01  0.98902248263E+01 -0.45970897901E+02  0.47046239704E+02  0.51100000000E-03 0. -1.
<mgrwt>
<rscale>  0 0.20003663E+02</rscale>
<asrwt>0</asrwt>
<pdfrwt beam="2">  1        3 0.14464864E-01 0.20003663E+02</pdfrwt>
<pdfrwt beam="1">  1       -3 0.16368844E-03 0.20003663E+02</pdfrwt>
<totfact> 0.14344856E+06</totfact>
</mgrwt>
</event>
<event>
 5    1  0.4133473E-007  0.2000062E+02  0.7818608E-02  0.1745316E+00
         -3   -1    0    0    0  501 -0.00000000000E+00  0.00000000000E+00  0.10032687323E+01  0.10075699227E+01  0.93000000000E-01 0.  1.
          3   -1    0    0  501    0  0.00000000000E+00 -0.00000000000E+00 -0.99462831741E+02  0.99462875220E+02  0.93000000000E-01 0. -1.
       1023    2    1    2    0    0  0.00000000000E+00  0.00000000000E+00 -0.98459563009E+02  0.10047044514E+03  0.20000619971E+02 0.  0.
        -11    1    3    3    0    0 -0.26158072695E+01  0.96520952600E+01 -0.49086905319E+02  0.50095206005E+02  0.51100000000E-03 0. -1.
         11    1    3    3    0    0  0.26158072695E+01 -0.96520952600E+01 -0.49372657690E+02  0.50375239138E+02  0.51100000000E-03 0.  1.
<mgrwt>
<rscale>  0 0.20000620E+02</rscale>
<asrwt>0</asrwt>
<pdfrwt beam="2">  1        3 0.15302300E-01 0.20000620E+02</pdfrwt>
<pdfrwt beam="1">  1       -3 0.15468332E-03 0.20000620E+02</pdfrwt>
<totfact> 0.14160822E+06</totfact>
</mgrwt>
</event>
<event>
 5    1  0.4133473E-007  0.2000651E+02  0.7818608E-02  0.1745199E+00
          3   -1    0    0  501    0  0.00000000000E+00  0.00000000000E+00  0.28879483695E+02  0.28879633438E+02  0.93000000000E-01 0. -1.
         -3   -1    0    0    0  501 -0.00000000000E+00 -0.00000000000E+00 -0.34641389164E+01  0.34653870537E+01  0.93000000000E-01 0.  1.
       1023    2    1    2    0    0  0.00000000000E+00  0.00000000000E+00  0.25415344779E+02  0.32345020491E+02  0.20006513948E+02 0.  0.
        -11    1    3    3    0    0 -0.63469913298E+01 -0.77317362037E+01  0.12761443156E+02  0.16214761033E+02  0.51100000000E-03 0. -1.
         11    1    3    3    0    0  0.63469913298E+01  0.77317362037E+01  0.12653901623E+02  0.16130259459E+02  0.51100000000E-03 0.  1.
<mgrwt>
<rscale>  0 0.20006514E+02</rscale>
<asrwt>0</asrwt>
<pdfrwt beam="1">  1        3 0.44431050E-02 0.20006514E+02</pdfrwt>
<pdfrwt beam="2">  1       -3 0.53305198E-03 0.20006514E+02</pdfrwt>
<totfact> 0.17119192E+06</totfact>
</mgrwt>
</event>
<event>
 5    1  0.4133473E-007  0.2000342E+02  0.7818608E-02  0.1745260E+00
         -3   -1    0    0    0  501 -0.00000000000E+00  0.00000000000E+00  0.43365426426E+01  0.43375397510E+01  0.93000000000E-01 0. -1.
          3   -1    0    0  501    0  0.00000000000E+00 -0.00000000000E+00 -0.23063979729E+02  0.23064167229E+02  0.93000000000E-01 0.  1.
       1023    2    1    2    0    0  0.00000000000E+00  0.00000000000E+00 -0.18727437087E+02  0.27401706980E+02  0.20003415847E+02 0.  0.
        -11    1    3    3    0    0 -0.81556316488E+01  0.57895026444E+01 -0.94166428547E+01  0.13737024109E+02  0.51100000000E-03 0.  1.
         11    1    3    3    0    0  0.81556316488E+01 -0.57895026444E+01 -0.93107942319E+01  0.13664682870E+02  0.51100000000E-03 0. -1.
<mgrwt>
<rscale>  0 0.20003416E+02</rscale>
<asrwt>0</asrwt>
<pdfrwt beam="2">  1        3 0.35483956E-02 0.20003416E+02</pdfrwt>
<pdfrwt beam="1">  1       -3 0.66725154E-03 0.20003416E+02</pdfrwt>
<totfact> 0.17413873E+06</totfact>
</mgrwt>
</event>
<event>
 5    1  0.4212922E-007  0.2000162E+02  0.7818608E-02  0.1745296E+00
          3   -1    0    0  501    0  0.00000000000E+00  0.00000000000E+00  0.84742013138E+01  0.84747116120E+01  0.93000000000E-01 0. -1.
         -3   -1    0    0    0  501 -0.00000000000E+00 -0.00000000000E+00 -0.11801380038E+02  0.11801746473E+02  0.93000000000E-01 0.  1.
       1023    2    1    2    0    0  0.00000000000E+00  0.00000000000E+00 -0.33271787242E+01  0.20276458085E+02  0.20001615790E+02 0.  0.
        -11    1    3    3    0    0 -0.97186959129E+01  0.23583472717E+01 -0.16269515648E+01  0.10132217120E+02  0.51100000000E-03 0.  1.
         11    1    3    3    0    0  0.97186959129E+01 -0.23583472717E+01 -0.17002271594E+01  0.10144240965E+02  0.51100000000E-03 0. -1.
<mgrwt>
<rscale>  0 0.20001616E+02</rscale>
<asrwt>0</asrwt>
<pdfrwt beam="1">  1        3 0.13037907E-02 0.20001616E+02</pdfrwt>
<pdfrwt beam="2">  1       -3 0.18156644E-02 0.20001616E+02</pdfrwt>
<totfact> 0.17864564E+06</totfact>
</mgrwt>
</event>
<event>
 4    1  0.4133473E-007  0.2002370E+02  0.7818608E-02  0.1744857E+00
          3   -1    0    0  501    0  0.00000000000E+00  0.00000000000E+00  0.16839889494E+01  0.16865550040E+01  0.93000000000E-01 0.  1.
         -3   -1    0    0    0  501 -0.00000000000E+00 -0.00000000000E+00 -0.59475720837E+02  0.59475793547E+02  0.93000000000E-01 0. -1.
        -11    1    1    2    0    0 -0.29525799389E+01 -0.95594634169E+01 -0.27769083070E+02  0.29516487662E+02  0.51100000000E-03 0.  1.
         11    1    1    2    0    0  0.29525799389E+01  0.95594634169E+01 -0.30022648818E+02  0.31645860889E+02  0.51100000000E-03 0. -1.
<mgrwt>
<rscale>  0 0.20023701E+02</rscale>
<asrwt>0</asrwt>
<pdfrwt beam="1">  1        3 0.25927825E-03 0.20023701E+02</pdfrwt>
<pdfrwt beam="2">  1       -3 0.91503123E-02 0.20023701E+02</pdfrwt>
<totfact> 0.15654861E+06</totfact>
</mgrwt>
</event>
<event>
 5    1  0.4133473E-007  0.2000053E+02  0.7818608E-02  0.1745318E+00
         -3   -1    0    0    0  501 -0.00000000000E+00  0.00000000000E+00  0.31638692898E+01  0.31652358337E+01  0.93000000000E-01 0. -1.
          3   -1    0    0  501    0  0.00000000000E+00 -0.00000000000E+00 -0.31600281027E+02  0.31600417877E+02  0.93000000000E-01 0.  1.
       1023    2    1    2    0    0  0.00000000000E+00  0.00000000000E+00 -0.28436411737E+02  0.34765653710E+02  0.20000529129E+02 0.  0.
        -11    1    3    3    0    0 -0.62878562570E+01 -0.77760269793E+01 -0.14149568548E+02  0.17326685265E+02  0.51100000000E-03 0.  1.
         11    1    3    3    0    0  0.62878562570E+01  0.77760269793E+01 -0.14286843189E+02  0.17438968446E+02  0.51100000000E-03 0. -1.
<mgrwt>
<rscale>  0 0.20000529E+02</rscale>
<asrwt>0</asrwt>
<pdfrwt beam="2">  1        3 0.48616971E-02 0.20000529E+02</pdfrwt>
<pdfrwt beam="1">  1       -3 0.48686479E-03 0.20000529E+02</pdfrwt>
<totfact> 0.16994077E+06</totfact>
</mgrwt>
</event>
<event>
 5    1  0.4133473E-007  0.2000037E+02  0.7818608E-02  0.1745321E+00
          3   -1    0    0  501    0  0.00000000000E+00  0.00000000000E+00  0.11149327024E+01  0.11188046884E+01  0.93000000000E-01 0. -1.
         -3   -1    0    0    0  501 -0.00000000000E+00 -0.00000000000E+00 -0.89535468791E+02  0.89535517090E+02  0.93000000000E-01 0.  1.
       1023    2    1    2    0    0  0.00000000000E+00  0.00000000000E+00 -0.88420536088E+02  0.90654321778E+02  0.20000371370E+02 0.  0.
        -11    1    3    3    0    0  0.47525432309E+01 -0.87986640713E+01 -0.44317230203E+02  0.45431487426E+02  0.51100000000E-03 0.  1.
         11    1    3    3    0    0 -0.47525432309E+01  0.87986640713E+01 -0.44103305885E+02  0.45222834352E+02  0.51100000000E-03 0. -1.
<mgrwt>
<rscale>  0 0.20000371E+02</rscale>
<asrwt>0</asrwt>
<pdfrwt beam="1">  1        3 0.17182974E-03 0.20000371E+02</pdfrwt>
<pdfrwt beam="2">  1       -3 0.13774983E-01 0.20000371E+02</pdfrwt>
<totfact> 0.14512515E+06</totfact>
</mgrwt>
</event>
<event>
 5    1  0.4133473E-007  0.2000458E+02  0.7818608E-02  0.1745237E+00
         -3   -1    0    0    0  501 -0.00000000000E+00  0.00000000000E+00  0.78383880191E+02  0.78383935362E+02  0.93000000000E-01 0.  1.
          3   -1    0    0  501    0  0.00000000000E+00 -0.00000000000E+00 -0.12746070855E+01  0.12779953922E+01  0.93000000000E-01 0. -1.
       1023    2    1    2    0    0  0.00000000000E+00  0.00000000000E+00  0.77109273105E+02  0.79661930754E+02  0.20004579790E+02 0.  0.
        -11    1    3    3    0    0  0.35053354816E+01 -0.93676617248E+01  0.38263641138E+02  0.39549294512E+02  0.51100000000E-03 0.  1.
         11    1    3    3    0    0 -0.35053354816E+01  0.93676617248E+01  0.38845631968E+02  0.40112636242E+02  0.51100000000E-03 0. -1.
<mgrwt>
<rscale>  0 0.20004580E+02</rscale>
<asrwt>0</asrwt>
<pdfrwt beam="2">  1        3 0.19635830E-03 0.20004580E+02</pdfrwt>
<pdfrwt beam="1">  1       -3 0.12059322E-01 0.20004580E+02</pdfrwt>
<totfact> 0.14920144E+06</totfact>
</mgrwt>
</event>
<event>
 5    1  0.4133473E-007  0.2000049E+02  0.7818608E-02  0.1745318E+00
         -3   -1    0    0    0  501 -0.00000000000E+00  0.00000000000E+00  0.96269157460E+01  0.96273649448E+01  0.93000000000E-01 0.  1.
          3   -1    0    0  501    0  0.00000000000E+00 -0.00000000000E+00 -0.10387152669E+02  0.10387568992E+02  0.93000000000E-01 0. -1.
       1023    2    1    2    0    0  0.00000000000E+00  0.00000000000E+00 -0.76023692258E+00  0.20014933937E+02  0.20000490502E+02 0.  0.
        -11    1    3    3    0    0 -0.98063858294E+01 -0.19595108701E+01 -0.38447269637E+00  0.10007632357E+02  0.51100000000E-03 0.  1.
         11    1    3    3    0    0  0.98063858294E+01  0.19595108701E+01 -0.37576422621E+00  0.10007301579E+02  0.51100000000E-03 0. -1.
<mgrwt>
<rscale>  0 0.20000491E+02</rscale>
<asrwt>0</asrwt>
<pdfrwt beam="2">  1        3 0.15980901E-02 0.20000491E+02</pdfrwt>
<pdfrwt beam="1">  1       -3 0.14811305E-02 0.20000491E+02</pdfrwt>
<totfact> 0.17883678E+06</totfact>
</mgrwt>
</event>
<event>
 5    1  0.4133473E-007  0.2000416E+02  0.7818608E-02  0.1745245E+00
         -3   -1    0    0    0  501 -0.00000000000E+00  0.00000000000E+00  0.37366573144E+01  0.37378144530E+01  0.93000000000E-01 0. -1.
          3   -1    0    0  501    0  0.00000000000E+00 -0.00000000000E+00 -0.26767636623E+02  0.26767798180E+02  0.93000000000E-01 0.  1.
       1023    2    1    2    0    0  0.00000000000E+00  0.00000000000E+00 -0.23030979309E+02  0.30505612633E+02  0.20004159422E+02 0.  0.
        -11    1    3    3    0    0 -0.98381101913E+01  0.17948047974E+01 -0.11243285225E+02  0.15047298738E+02  0.51100000000E-03 0.  1.
         11    1    3    3    0    0  0.98381101913E+01 -0.17948047974E+01 -0.11787694084E+02  0.15458313895E+02  0.51100000000E-03 0. -1.
<mgrwt>
<rscale>  0 0.20004159E+02</rscale>
<asrwt>0</asrwt>
<pdfrwt beam="2">  1        3 0.41181993E-02 0.20004159E+02</pdfrwt>
<pdfrwt beam="1">  1       -3 0.57497181E-03 0.20004159E+02</pdfrwt>
<totfact> 0.17229270E+06</totfact>
</mgrwt>
</event>
<event>
 5    1  0.4133473E-007  0.2000036E+02  0.7818608E-02  0.1745321E+00
         -3   -1    0    0    0  501 -0.00000000000E+00  0.00000000000E+00  0.95915418367E+01  0.95919926921E+01  0.93000000000E-01 0. -1.
          3   -1    0    0  501    0  0.00000000000E+00 -0.00000000000E+00 -0.10425321719E+02  0.10425736519E+02  0.93000000000E-01 0.  1.
       1023    2    1    2    0    0  0.00000000000E+00  0.00000000000E+00 -0.83377988270E+00  0.20017729211E+02  0.20000357343E+02 0.  0.
        -11    1    3    3    0    0  0.45601622257E-01 -0.99999940018E+01 -0.45709520803E+00  0.10010539238E+02  0.51100000000E-03 0.  1.
         11    1    3    3    0    0 -0.45601622257E-01  0.99999940018E+01 -0.37668467466E+00  0.10007189973E+02  0.51100000000E-03 0. -1.
<mgrwt>
<rscale>  0 0.20000357E+02</rscale>
<asrwt>0</asrwt>
<pdfrwt beam="2">  1        3 0.16039622E-02 0.20000357E+02</pdfrwt>
<pdfrwt beam="1">  1       -3 0.14756884E-02 0.20000357E+02</pdfrwt>
<totfact> 0.17883750E+06</totfact>
</mgrwt>
</event>
<event>
 5    1  0.4133473E-007  0.2000119E+02  0.7818608E-02  0.1745304E+00
         -3   -1    0    0    0  501 -0.00000000000E+00  0.00000000000E+00  0.34105888429E+01  0.34118565701E+01  0.93000000000E-01 0.  1.
          3   -1    0    0  501    0  0.00000000000E+00 -0.00000000000E+00 -0.29317141994E+02  0.29317289502E+02  0.93000000000E-01 0. -1.
       1023    2    1    2    0    0  0.00000000000E+00  0.00000000000E+00 -0.25906553151E+02  0.32729146072E+02  0.20001187624E+02 0.  0.
        -11    1    3    3    0    0 -0.93592523289E+01 -0.35235443407E+01 -0.12903982760E+02  0.16325554820E+02  0.51100000000E-03 0.  1.
         11    1    3    3    0    0  0.93592523289E+01  0.35235443407E+01 -0.13002570392E+02  0.16403591251E+02  0.51100000000E-03 0. -1.
<mgrwt>
<rscale>  0 0.20001188E+02</rscale>
<asrwt>0</asrwt>
<pdfrwt beam="2">  1        3 0.45104383E-02 0.20001188E+02</pdfrwt>
<pdfrwt beam="1">  1       -3 0.52481486E-03 0.20001188E+02</pdfrwt>
<totfact> 0.17107160E+06</totfact>
</mgrwt>
</event>
<event>
 5    1  0.4133473E-007  0.2000098E+02  0.7818608E-02  0.1745309E+00
          3   -1    0    0  501    0  0.00000000000E+00  0.00000000000E+00  0.12445374062E+01  0.12480073539E+01  0.93000000000E-01 0. -1.
         -3   -1    0    0    0  501 -0.00000000000E+00 -0.00000000000E+00 -0.80243621495E+02  0.80243675387E+02  0.93000000000E-01 0.  1.
       1023    2    1    2    0    0  0.00000000000E+00  0.00000000000E+00 -0.78999084089E+02  0.81491682741E+02  0.20000976703E+02 0.  0.
        -11    1    3    3    0    0 -0.31596051792E+01 -0.94881120041E+01 -0.39698842466E+02  0.40939045759E+02  0.51100000000E-03 0.  1.
         11    1    3    3    0    0  0.31596051792E+01  0.94881120041E+01 -0.39300241623E+02  0.40552636982E+02  0.51100000000E-03 0. -1.
<mgrwt>
<rscale>  0 0.20000977E+02</rscale>
<asrwt>0</asrwt>
<pdfrwt beam="1">  1        3 0.19173842E-03 0.20000977E+02</pdfrwt>
<pdfrwt beam="2">  1       -3 0.12345440E-01 0.20000977E+02</pdfrwt>
<totfact> 0.14855067E+06</totfact>
</mgrwt>
</event>
<event>
 4    1  0.4133473E-007  0.2001354E+02  0.7818608E-02  0.1745059E+00
         -3   -1    0    0    0  501 -0.00000000000E+00  0.00000000000E+00  0.15293676893E+01  0.15321927193E+01  0.93000000000E-01 0. -1.
          3   -1    0    0  501    0  0.00000000000E+00 -0.00000000000E+00 -0.65411812881E+02  0.65411878993E+02  0.93000000000E-01 0.  1.
        -11    1    1    2    0    0 -0.10800655845E+00  0.10004046111E+02 -0.32633868507E+02  0.34133004234E+02  0.51100000000E-03 0. -1.
         11    1    1    2    0    0  0.10800655845E+00 -0.10004046111E+02 -0.31248576685E+02  0.32811067479E+02  0.51100000000E-03 0.  1.
<mgrwt>
<rscale>  0 0.20013544E+02</rscale>
<asrwt>0</asrwt>
<pdfrwt beam="2">  1        3 0.10063576E-01 0.20013544E+02</pdfrwt>
<pdfrwt beam="1">  1       -3 0.23550978E-03 0.20013544E+02</pdfrwt>
<totfact> 0.15418943E+06</totfact>
</mgrwt>
</event>
<event>
 5    1  0.4133473E-007  0.2000028E+02  0.7818608E-02  0.1745322E+00
          3   -1    0    0  501    0  0.00000000000E+00  0.00000000000E+00  0.75779091192E+01  0.75784797696E+01  0.93000000000E-01 0. -1.
         -3   -1    0    0    0  501 -0.00000000000E+00 -0.00000000000E+00 -0.13195393202E+02  0.13195720926E+02  0.93000000000E-01 0.  1.
       1023    2    1    2    0    0  0.00000000000E+00  0.00000000000E+00 -0.56174840825E+01  0.20774200695E+02  0.20000282176E+02 0.  0.
        -11    1    3    3    0    0  0.20336822444E+01  0.97910853136E+01 -0.28503732128E+01  0.10398357697E+02  0.51100000000E-03 0.  1.
         11    1    3    3    0    0 -0.20336822444E+01 -0.97910853136E+01 -0.27671108697E+01  0.10375842998E+02  0.51100000000E-03 0. -1.
<mgrwt>
<rscale>  0 0.20000282E+02</rscale>
<asrwt>0</asrwt>
<pdfrwt beam="1">  1        3 0.11659013E-02 0.20000282E+02</pdfrwt>
<pdfrwt beam="2">  1       -3 0.20301296E-02 0.20000282E+02</pdfrwt>
<totfact> 0.17834779E+06</totfact>
</mgrwt>
</event>
<event>
 5    1  0.4335169E-007  0.2000096E+02  0.7818608E-02  0.1745309E+00
         -3   -1    0    0    0  501 -0.00000000000E+00  0.00000000000E+00  0.28997355286E+02  0.28997504420E+02  0.93000000000E-01 0. -1.
          3   -1    0    0  501    0  0.00000000000E+00 -0.00000000000E+00 -0.34481355574E+01  0.34493894854E+01  0.93000000000E-01 0.  1.
       1023    2    1    2    0    0  0.00000000000E+00  0.00000000000E+00  0.25549219729E+02  0.32446893905E+02  0.20000957361E+02 0.  0.
        -11    1    3    3    0    0 -0.66517444413E+01 -0.74669822534E+01  0.12629097904E+02  0.16108868434E+02  0.51100000000E-03 0. -1.
         11    1    3    3    0    0  0.66517444413E+01  0.74669822534E+01  0.12920121825E+02  0.16338025472E+02  0.51100000000E-03 0.  1.
<mgrwt>
<rscale>  0 0.20000957E+02</rscale>
<asrwt>0</asrwt>
<pdfrwt beam="2">  1        3 0.53059031E-03 0.20000957E+02</pdfrwt>
<pdfrwt beam="1">  1       -3 0.44612396E-02 0.20000957E+02</pdfrwt>
<totfact> 0.17125470E+06</totfact>
</mgrwt>
</event>
<event>
 4    1  0.4133473E-007  0.2002174E+02  0.7818608E-02  0.1744896E+00
         -3   -1    0    0    0  501 -0.00000000000E+00  0.00000000000E+00  0.10905759956E+03  0.10905763921E+03  0.93000000000E-01 0. -1.
          3   -1    0    0  501    0  0.00000000000E+00 -0.00000000000E+00 -0.91654868572E+00  0.92125484710E+00  0.93000000000E-01 0.  1.
        -11    1    1    2    0    0 -0.19558749482E+01 -0.98179004929E+01  0.53901534988E+02  0.54823280559E+02  0.51100000000E-03 0. -1.
         11    1    1    2    0    0  0.19558749482E+01  0.98179004929E+01  0.54239515882E+02  0.55155613498E+02  0.51100000000E-03 0.  1.
<mgrwt>
<rscale>  0 0.20021745E+02</rscale>
<asrwt>0</asrwt>
<pdfrwt beam="2">  1        3 0.14137261E-03 0.20021745E+02</pdfrwt>
<pdfrwt beam="1">  1       -3 0.16778450E-01 0.20021745E+02</pdfrwt>
<totfact> 0.13812175E+06</totfact>
</mgrwt>
</event>
<event>
 4    1  0.4729614E-007  0.2032899E+02  0.7818608E-02  0.1738864E+00
          3   -1    0    0  501    0  0.00000000000E+00  0.00000000000E+00  0.19051839543E+01  0.19074524633E+01  0.93000000000E-01 0.  1.
         -3   -1    0    0    0  501 -0.00000000000E+00 -0.00000000000E+00 -0.54194824703E+02  0.54194904499E+02  0.93000000000E-01 0. -1.
        -11    1    1    2    0    0 -0.98926388756E+01 -0.18295026126E+01 -0.30149363379E+02  0.31783572741E+02  0.51100000000E-03 0.  1.
         11    1    1    2    0    0  0.98926388756E+01  0.18295026126E+01 -0.22140277370E+02  0.24318784221E+02  0.51100000000E-03 0. -1.
<mgrwt>
<rscale>  0 0.20328992E+02</rscale>
<asrwt>0</asrwt>
<pdfrwt beam="1">  1        3 0.29328590E-03 0.20328992E+02</pdfrwt>
<pdfrwt beam="2">  1       -3 0.83378448E-02 0.20328992E+02</pdfrwt>
<totfact> 0.15372939E+06</totfact>
</mgrwt>
</event>
<event>
 5    1  0.4133473E-007  0.2001099E+02  0.7818608E-02  0.1745110E+00
          3   -1    0    0  501    0  0.00000000000E+00  0.00000000000E+00  0.30025561297E+02  0.30025705324E+02  0.93000000000E-01 0. -1.
         -3   -1    0    0    0  501 -0.00000000000E+00 -0.00000000000E+00 -0.33333546635E+01  0.33346517529E+01  0.93000000000E-01 0.  1.
       1023    2    1    2    0    0  0.00000000000E+00  0.00000000000E+00  0.26692206633E+02  0.33360357076E+02  0.20010985216E+02 0.  0.
        -11    1    3    3    0    0  0.83340146781E+01 -0.55341159262E+01  0.13623275438E+02  0.16901948813E+02  0.51100000000E-03 0.  1.
         11    1    3    3    0    0 -0.83340146781E+01  0.55341159262E+01  0.13068931195E+02  0.16458408264E+02  0.51100000000E-03 0. -1.
<mgrwt>
<rscale>  0 0.20010985E+02</rscale>
<asrwt>0</asrwt>
<pdfrwt beam="1">  1        3 0.46194280E-02 0.20010985E+02</pdfrwt>
<pdfrwt beam="2">  1       -3 0.51293465E-03 0.20010985E+02</pdfrwt>
<totfact> 0.17053497E+06</totfact>
</mgrwt>
</event>
<event>
 5    1  0.4256577E-007  0.2000095E+02  0.7818608E-02  0.1745309E+00
         -3   -1    0    0    0  501 -0.00000000000E+00  0.00000000000E+00  0.26017858699E+02  0.26018024911E+02  0.93000000000E-01 0.  1.
          3   -1    0    0  501    0  0.00000000000E+00 -0.00000000000E+00 -0.38431379649E+01  0.38442630525E+01  0.93000000000E-01 0. -1.
       1023    2    1    2    0    0  0.00000000000E+00  0.00000000000E+00  0.22174720734E+02  0.29862287964E+02  0.20000950047E+02 0.  0.
        -11    1    3    3    0    0 -0.98918241694E+01 -0.14684316504E+01  0.11193182567E+02  0.15009723953E+02  0.51100000000E-03 0. -1.
         11    1    3    3    0    0  0.98918241694E+01  0.14684316504E+01  0.10981538167E+02  0.14852564010E+02  0.51100000000E-03 0.  1.
<mgrwt>
<rscale>  0 0.20000950E+02</rscale>
<asrwt>0</asrwt>
<pdfrwt beam="2">  1        3 0.59135132E-03 0.20000950E+02</pdfrwt>
<pdfrwt beam="1">  1       -3 0.40028469E-02 0.20000950E+02</pdfrwt>
<totfact> 0.17274336E+06</totfact>
</mgrwt>
</event>
<event>
 5    1  0.4133473E-007  0.2000582E+02  0.7818608E-02  0.1745212E+00
          3   -1    0    0  501    0  0.00000000000E+00  0.00000000000E+00  0.23265264775E+02  0.23265450652E+02  0.93000000000E-01 0. -1.
         -3   -1    0    0    0  501 -0.00000000000E+00 -0.00000000000E+00 -0.43000481031E+01  0.43010536719E+01  0.93000000000E-01 0.  1.
       1023    2    1    2    0    0  0.00000000000E+00  0.00000000000E+00  0.18965216672E+02  0.27566504324E+02  0.20005817085E+02 0.  0.
        -11    1    3    3    0    0  0.96930800049E+01 -0.24663898095E+01  0.92911790854E+01  0.13651552576E+02  0.51100000000E-03 0.  1.
         11    1    3    3    0    0 -0.96930800049E+01  0.24663898095E+01  0.96740375867E+01  0.13914951749E+02  0.51100000000E-03 0. -1.
<mgrwt>
<rscale>  0 0.20005817E+02</rscale>
<asrwt>0</asrwt>
<pdfrwt beam="1">  1        3 0.35793631E-02 0.20005817E+02</pdfrwt>
<pdfrwt beam="2">  1       -3 0.66163753E-03 0.20005817E+02</pdfrwt>
<totfact> 0.17399497E+06</totfact>
</mgrwt>
</event>
<event>
 5    1  0.4290451E-007  0.2000059E+02  0.7818608E-02  0.1745316E+00
         -3   -1    0    0    0  501 -0.00000000000E+00  0.00000000000E+00  0.99577882268E+01  0.99582225005E+01  0.93000000000E-01 0.  1.
          3   -1    0    0  501    0  0.00000000000E+00 -0.00000000000E+00 -0.10042118141E+02  0.10042548768E+02  0.93000000000E-01 0. -1.
       1023    2    1    2    0    0  0.00000000000E+00  0.00000000000E+00 -0.84329914203E-01  0.20000771269E+02  0.20000593486E+02 0.  0.
        -11    1    3    3    0    0 -0.59109798989E+01  0.80662284696E+01  0.48418509518E-02  0.10000187438E+02  0.51100000000E-03 0.  1.
         11    1    3    3    0    0  0.59109798989E+01 -0.80662284696E+01 -0.89171765155E-01  0.10000583831E+02  0.51100000000E-03 0. -1.
<mgrwt>
<rscale>  0 0.20000593E+02</rscale>
<asrwt>0</asrwt>
<pdfrwt beam="2">  1        3 0.15450078E-02 0.20000593E+02</pdfrwt>
<pdfrwt beam="1">  1       -3 0.15320339E-02 0.20000593E+02</pdfrwt>
<totfact> 0.17884431E+06</totfact>
</mgrwt>
</event>
<event>
 5    1  0.4133473E-007  0.2000624E+02  0.7818608E-02  0.1745204E+00
          3   -1    0    0  501    0  0.00000000000E+00  0.00000000000E+00  0.36911550087E+02  0.36911667246E+02  0.93000000000E-01 0. -1.
         -3   -1    0    0    0  501 -0.00000000000E+00 -0.00000000000E+00 -0.27099515837E+01  0.27115468991E+01  0.93000000000E-01 0.  1.
       1023    2    1    2    0    0  0.00000000000E+00  0.00000000000E+00  0.34201598504E+02  0.39623214145E+02  0.20006243000E+02 0.  0.
        -11    1    3    3    0    0  0.91808171870E+01  0.39711824520E+01  0.17237229611E+02  0.19929369765E+02  0.51100000000E-03 0. -1.
         11    1    3    3    0    0 -0.91808171870E+01 -0.39711824520E+01  0.16964368892E+02  0.19693844380E+02  0.51100000000E-03 0.  1.
<mgrwt>
<rscale>  0 0.20006243E+02</rscale>
<asrwt>0</asrwt>
<pdfrwt beam="1">  1        3 0.56788317E-02 0.20006243E+02</pdfrwt>
<pdfrwt beam="2">  1       -3 0.41704736E-03 0.20006243E+02</pdfrwt>
<totfact> 0.16720507E+06</totfact>
</mgrwt>
</event>
<event>
 5    1  0.4133473E-007  0.2000313E+02  0.7818608E-02  0.1745266E+00
         -3   -1    0    0    0  501 -0.00000000000E+00  0.00000000000E+00  0.26499046447E+01  0.26515360880E+01  0.93000000000E-01 0. -1.
          3   -1    0    0  501    0  0.00000000000E+00 -0.00000000000E+00 -0.37735717714E+02  0.37735832314E+02  0.93000000000E-01 0.  1.
       1023    2    1    2    0    0  0.00000000000E+00  0.00000000000E+00 -0.35085813070E+02  0.40387368402E+02  0.20003130947E+02 0.  0.
        -11    1    3    3    0    0  0.37232671110E+01  0.92818867420E+01 -0.17294208901E+02  0.19977632523E+02  0.51100000000E-03 0.  1.
         11    1    3    3    0    0 -0.37232671110E+01 -0.92818867420E+01 -0.17791604169E+02  0.20409735878E+02  0.51100000000E-03 0. -1.
<mgrwt>
<rscale>  0 0.20003131E+02</rscale>
<asrwt>0</asrwt>
<pdfrwt beam="2">  1        3 0.58056290E-02 0.20003131E+02</pdfrwt>
<pdfrwt beam="1">  1       -3 0.40781198E-03 0.20003131E+02</pdfrwt>
<totfact> 0.16685814E+06</totfact>
</mgrwt>
</event>
<event>
 5    1  0.4133473E-007  0.2000054E+02  0.7818608E-02  0.1745317E+00
          3   -1    0    0  501    0  0.00000000000E+00  0.00000000000E+00  0.13354409556E+01  0.13386752951E+01  0.93000000000E-01 0.  1.
         -3   -1    0    0    0  501 -0.00000000000E+00 -0.00000000000E+00 -0.74791849779E+02  0.74791907599E+02  0.93000000000E-01 0. -1.
       1023    2    1    2    0    0  0.00000000000E+00  0.00000000000E+00 -0.73456408823E+02  0.76130582894E+02  0.20000541358E+02 0.  0.
        -11    1    3    3    0    0  0.52926505563E+01  0.84846797761E+01 -0.36952511867E+02  0.38281719846E+02  0.51100000000E-03 0.  1.
         11    1    3    3    0    0 -0.52926505563E+01 -0.84846797761E+01 -0.36503896956E+02  0.37848863048E+02  0.51100000000E-03 0. -1.
<mgrwt>
<rscale>  0 0.20000541E+02</rscale>
<asrwt>0</asrwt>
<pdfrwt beam="1">  1        3 0.20570576E-03 0.20000541E+02</pdfrwt>
<pdfrwt beam="2">  1       -3 0.11506688E-01 0.20000541E+02</pdfrwt>
<totfact> 0.15065714E+06</totfact>
</mgrwt>
</event>
<event>
 5    1  0.4133473E-007  0.2000032E+02  0.7818608E-02  0.1745322E+00
          3   -1    0    0  501    0  0.00000000000E+00  0.00000000000E+00  0.32592760860E+01  0.32606026444E+01  0.93000000000E-01 0.  1.
         -3   -1    0    0    0  501 -0.00000000000E+00 -0.00000000000E+00 -0.30675000394E+02  0.30675141371E+02  0.93000000000E-01 0. -1.
       1023    2    1    2    0    0  0.00000000000E+00  0.00000000000E+00 -0.27415724308E+02  0.33935744016E+02  0.20000319562E+02 0.  0.
        -11    1    3    3    0    0 -0.16916491378E+01 -0.98559366906E+01 -0.13631403727E+02  0.16906103415E+02  0.51100000000E-03 0.  1.
         11    1    3    3    0    0  0.16916491378E+01  0.98559366906E+01 -0.13784320581E+02  0.17029640601E+02  0.51100000000E-03 0. -1.
<mgrwt>
<rscale>  0 0.20000320E+02</rscale>
<asrwt>0</asrwt>
<pdfrwt beam="1">  1        3 0.50154000E-03 0.20000320E+02</pdfrwt>
<pdfrwt beam="2">  1       -3 0.47193435E-02 0.20000320E+02</pdfrwt>
<totfact> 0.17042675E+06</totfact>
</mgrwt>
</event>
<event>
 5    1  0.4133473E-007  0.2000064E+02  0.7818608E-02  0.1745315E+00
          3   -1    0    0  501    0  0.00000000000E+00  0.00000000000E+00  0.12752817647E+01  0.12786682836E+01  0.93000000000E-01 0.  1.
         -3   -1    0    0    0  501 -0.00000000000E+00 -0.00000000000E+00 -0.78311648171E+02  0.78311703393E+02  0.93000000000E-01 0. -1.
       1023    2    1    2    0    0  0.00000000000E+00  0.00000000000E+00 -0.77036366406E+02  0.79590371676E+02  0.20000637852E+02 0.  0.
        -11    1    3    3    0    0 -0.35653811368E+01  0.93430741731E+01 -0.38369250509E+02  0.39651032301E+02  0.51100000000E-03 0. -1.
         11    1    3    3    0    0  0.35653811368E+01 -0.93430741731E+01 -0.38667115897E+02  0.39939339375E+02  0.51100000000E-03 0.  1.
<mgrwt>
<rscale>  0 0.20000638E+02</rscale>
<asrwt>0</asrwt>
<pdfrwt beam="1">  1        3 0.19646200E-03 0.20000638E+02</pdfrwt>
<pdfrwt beam="2">  1       -3 0.12048207E-01 0.20000638E+02</pdfrwt>
<totfact> 0.14929247E+06</totfact>
</mgrwt>
</event>
<event>
 5    1  0.4133473E-007  0.2000048E+02  0.7818608E-02  0.1745318E+00
         -3   -1    0    0    0  501 -0.00000000000E+00  0.00000000000E+00  0.51953581794E+01  0.51961904904E+01  0.93000000000E-01 0. -1.
          3   -1    0    0  501    0  0.00000000000E+00 -0.00000000000E+00 -0.19246396911E+02  0.19246621601E+02  0.93000000000E-01 0.  1.
       1023    2    1    2    0    0  0.00000000000E+00  0.00000000000E+00 -0.14051038732E+02  0.24442812092E+02  0.20000484332E+02 0.  0.
        -11    1    3    3    0    0 -0.10936937365E+01 -0.99400882209E+01 -0.69550671516E+01  0.12180906336E+02  0.51100000000E-03 0.  1.
         11    1    3    3    0    0  0.10936937365E+01  0.99400882209E+01 -0.70959715802E+01  0.12261905755E+02  0.51100000000E-03 0. -1.
<mgrwt>
<rscale>  0 0.20000484E+02</rscale>
<asrwt>0</asrwt>
<pdfrwt beam="2">  1        3 0.29610654E-02 0.20000484E+02</pdfrwt>
<pdfrwt beam="1">  1       -3 0.79936719E-03 0.20000484E+02</pdfrwt>
<totfact> 0.17600288E+06</totfact>
</mgrwt>
</event>
<event>
 5    1  0.4133473E-007  0.2000062E+02  0.7818608E-02  0.1745316E+00
         -3   -1    0    0    0  501 -0.00000000000E+00  0.00000000000E+00  0.10507399099E+01  0.10548475521E+01  0.93000000000E-01 0. -1.
          3   -1    0    0  501    0  0.00000000000E+00 -0.00000000000E+00 -0.94987082225E+02  0.94987127753E+02  0.93000000000E-01 0.  1.
       1023    2    1    2    0    0  0.00000000000E+00  0.00000000000E+00 -0.93936342316E+02  0.96041975305E+02  0.20000615311E+02 0.  0.
        -11    1    3    3    0    0 -0.89355128004E+01  0.44896399464E+01 -0.46599417314E+02  0.47660318401E+02  0.51100000000E-03 0. -1.
         11    1    3    3    0    0  0.89355128004E+01 -0.44896399464E+01 -0.47336925002E+02  0.48381656904E+02  0.51100000000E-03 0.  1.
<mgrwt>
<rscale>  0 0.20000615E+02</rscale>
<asrwt>0</asrwt>
<pdfrwt beam="2">  1        3 0.14613710E-01 0.20000615E+02</pdfrwt>
<pdfrwt beam="1">  1       -3 0.16197184E-03 0.20000615E+02</pdfrwt>
<totfact> 0.14315615E+06</totfact>
</mgrwt>
</event>
<event>
 4    1  0.4133473E-007  0.2004911E+02  0.7818608E-02  0.1744353E+00
         -3   -1    0    0    0  501 -0.00000000000E+00  0.00000000000E+00  0.49361482871E+01  0.49370242973E+01  0.93000000000E-01 0. -1.
          3   -1    0    0  501    0  0.00000000000E+00 -0.00000000000E+00 -0.20355529582E+02  0.20355742029E+02  0.93000000000E-01 0.  1.
        -11    1    1    2    0    0 -0.96258648453E+01  0.27524207335E+01 -0.70681837629E+01  0.12255297462E+02  0.51100000000E-03 0. -1.
         11    1    1    2    0    0  0.96258648453E+01 -0.27524207335E+01 -0.83511975321E+01  0.13037468865E+02  0.51100000000E-03 0.  1.
<mgrwt>
<rscale>  0 0.20049107E+02</rscale>
<asrwt>0</asrwt>
<pdfrwt beam="2">  1        3 0.31317036E-02 0.20049107E+02</pdfrwt>
<pdfrwt beam="1">  1       -3 0.75949116E-03 0.20049107E+02</pdfrwt>
<totfact> 0.17456104E+06</totfact>
</mgrwt>
</event>
<event>
 5    1  0.4133473E-007  0.2000022E+02  0.7818608E-02  0.1745324E+00
          3   -1    0    0  501    0  0.00000000000E+00  0.00000000000E+00  0.37236501114E+02  0.37236617250E+02  0.93000000000E-01 0. -1.
         -3   -1    0    0    0  501 -0.00000000000E+00 -0.00000000000E+00 -0.26846712132E+01  0.26862815420E+01  0.93000000000E-01 0.  1.
       1023    2    1    2    0    0  0.00000000000E+00  0.00000000000E+00  0.34551829901E+02  0.39922898792E+02  0.20000222460E+02 0.  0.
        -11    1    3    3    0    0  0.31401319404E+01  0.94942845270E+01  0.17238195722E+02  0.19928804764E+02  0.51100000000E-03 0.  1.
         11    1    3    3    0    0 -0.31401319404E+01 -0.94942845270E+01  0.17313634178E+02  0.19994094028E+02  0.51100000000E-03 0. -1.
<mgrwt>
<rscale>  0 0.20000222E+02</rscale>
<asrwt>0</asrwt>
<pdfrwt beam="1">  1        3 0.57288242E-02 0.20000222E+02</pdfrwt>
<pdfrwt beam="2">  1       -3 0.41315922E-03 0.20000222E+02</pdfrwt>
<totfact> 0.16715488E+06</totfact>
</mgrwt>
</event>
<event>
 5    1  0.4133473E-007  0.2000930E+02  0.7818608E-02  0.1745143E+00
          3   -1    0    0  501    0  0.00000000000E+00  0.00000000000E+00  0.26349097413E+01  0.26365504632E+01  0.93000000000E-01 0. -1.
         -3   -1    0    0    0  501 -0.00000000000E+00 -0.00000000000E+00 -0.37973746144E+02  0.37973860025E+02  0.93000000000E-01 0.  1.
       1023    2    1    2    0    0  0.00000000000E+00  0.00000000000E+00 -0.35338836402E+02  0.40610410488E+02  0.20009299881E+02 0.  0.
        -11    1    3    3    0    0  0.79594098052E+00 -0.99710494734E+01 -0.18063336665E+02  0.20647989766E+02  0.51100000000E-03 0. -1.
         11    1    3    3    0    0 -0.79594098052E+00  0.99710494734E+01 -0.17275499737E+02  0.19962420722E+02  0.51100000000E-03 0.  1.
<mgrwt>
<rscale>  0 0.20009300E+02</rscale>
<asrwt>0</asrwt>
<pdfrwt beam="1">  1        3 0.40550573E-03 0.20009300E+02</pdfrwt>
<pdfrwt beam="2">  1       -3 0.58422494E-02 0.20009300E+02</pdfrwt>
<totfact> 0.16665322E+06</totfact>
</mgrwt>
</event>
<event>
 5    1  0.4133473E-007  0.2000072E+02  0.7818608E-02  0.1745314E+00
          3   -1    0    0  501    0  0.00000000000E+00  0.00000000000E+00  0.54704539758E+02  0.54704618810E+02  0.93000000000E-01 0.  1.
         -3   -1    0    0    0  501 -0.00000000000E+00 -0.00000000000E+00 -0.18268698180E+01  0.18292354501E+01  0.93000000000E-01 0. -1.
       1023    2    1    2    0    0  0.00000000000E+00  0.00000000000E+00  0.52877669940E+02  0.56533854260E+02  0.20000717467E+02 0.  0.
        -11    1    3    3    0    0 -0.88122496639E+01  0.47275185934E+01  0.26565191810E+02  0.28385112161E+02  0.51100000000E-03 0.  1.
         11    1    3    3    0    0  0.88122496639E+01 -0.47275185934E+01  0.26312478129E+02  0.28148742099E+02  0.51100000000E-03 0. -1.
<mgrwt>
<rscale>  0 0.20000717E+02</rscale>
<asrwt>0</asrwt>
<pdfrwt beam="1">  1        3 0.84162714E-02 0.20000717E+02</pdfrwt>
<pdfrwt beam="2">  1       -3 0.28124494E-03 0.20000717E+02</pdfrwt>
<totfact> 0.15898940E+06</totfact>
</mgrwt>
</event>
<event>
 5    1  0.4133473E-007  0.2000061E+02  0.7818608E-02  0.1745316E+00
         -3   -1    0    0    0  501 -0.00000000000E+00  0.00000000000E+00  0.30965878817E+01  0.30979841040E+01  0.93000000000E-01 0.  1.
          3   -1    0    0  501    0  0.00000000000E+00 -0.00000000000E+00 -0.32286850427E+02  0.32286984367E+02  0.93000000000E-01 0. -1.
       1023    2    1    2    0    0  0.00000000000E+00  0.00000000000E+00 -0.29190262546E+02  0.35384968471E+02  0.20000614146E+02 0.  0.
        -11    1    3    3    0    0  0.52708386414E+01 -0.84984438331E+01 -0.14646824598E+02  0.17735127816E+02  0.51100000000E-03 0.  1.
         11    1    3    3    0    0 -0.52708386414E+01  0.84984438331E+01 -0.14543437948E+02  0.17649840656E+02  0.51100000000E-03 0. -1.
<mgrwt>
<rscale>  0 0.20000614E+02</rscale>
<asrwt>0</asrwt>
<pdfrwt beam="2">  1        3 0.49673252E-02 0.20000614E+02</pdfrwt>
<pdfrwt beam="1">  1       -3 0.47651586E-03 0.20000614E+02</pdfrwt>
<totfact> 0.16959651E+06</totfact>
</mgrwt>
</event>
<event>
 5    1  0.4133473E-007  0.2000582E+02  0.7818608E-02  0.1745212E+00
          3   -1    0    0  501    0  0.00000000000E+00  0.00000000000E+00  0.41114283919E+01  0.41124800816E+01  0.93000000000E-01 0.  1.
         -3   -1    0    0    0  501 -0.00000000000E+00 -0.00000000000E+00 -0.24332356484E+02  0.24332534210E+02  0.93000000000E-01 0. -1.
       1023    2    1    2    0    0  0.00000000000E+00  0.00000000000E+00 -0.20220928092E+02  0.28445014291E+02  0.20005821781E+02 0.  0.
        -11    1    3    3    0    0  0.41933906893E+01 -0.90813342758E+01 -0.10189223004E+02  0.14278495137E+02  0.51100000000E-03 0. -1.
         11    1    3    3    0    0 -0.41933906893E+01  0.90813342758E+01 -0.10031705088E+02  0.14166519154E+02  0.51100000000E-03 0.  1.
<mgrwt>
<rscale>  0 0.20005822E+02</rscale>
<asrwt>0</asrwt>
<pdfrwt beam="1">  1        3 0.63262203E-03 0.20005822E+02</pdfrwt>
<pdfrwt beam="2">  1       -3 0.37435339E-02 0.20005822E+02</pdfrwt>
<totfact> 0.17348622E+06</totfact>
</mgrwt>
</event>
<event>
 5    1  0.4133473E-007  0.2000075E+02  0.7818608E-02  0.1745313E+00
         -3   -1    0    0    0  501 -0.00000000000E+00  0.00000000000E+00  0.12052651870E+02  0.12053010665E+02  0.93000000000E-01 0.  1.
          3   -1    0    0  501    0  0.00000000000E+00 -0.00000000000E+00 -0.82968114490E+01  0.82973326570E+01  0.93000000000E-01 0. -1.
       1023    2    1    2    0    0  0.00000000000E+00  0.00000000000E+00  0.37558404207E+01  0.20350343322E+02  0.20000753387E+02 0.  0.
        -11    1    3    3    0    0  0.62420710486E+01 -0.78130697315E+01  0.18829202729E+01  0.10176094468E+02  0.51100000000E-03 0. -1.
         11    1    3    3    0    0 -0.62420710486E+01  0.78130697315E+01  0.18729201478E+01  0.10174248854E+02  0.51100000000E-03 0.  1.
<mgrwt>
<rscale>  0 0.20000753E+02</rscale>
<asrwt>0</asrwt>
<pdfrwt beam="2">  1        3 0.12765002E-02 0.20000753E+02</pdfrwt>
<pdfrwt beam="1">  1       -3 0.18543218E-02 0.20000753E+02</pdfrwt>
<totfact> 0.17861406E+06</totfact>
</mgrwt>
</event>
<event>
 5    1  0.4133473E-007  0.2000034E+02  0.7818608E-02  0.1745321E+00
          3   -1    0    0  501    0  0.00000000000E+00  0.00000000000E+00  0.19488129435E+02  0.19488351338E+02  0.93000000000E-01 0. -1.
         -3   -1    0    0    0  501 -0.00000000000E+00 -0.00000000000E+00 -0.51308314709E+01  0.51316742475E+01  0.93000000000E-01 0.  1.
       1023    2    1    2    0    0  0.00000000000E+00  0.00000000000E+00  0.14357297964E+02  0.24620025585E+02  0.20000341372E+02 0.  0.
        -11    1    3    3    0    0  0.96073646862E+01  0.27747190403E+01  0.72448423261E+01  0.12348613791E+02  0.51100000000E-03 0.  1.
         11    1    3    3    0    0 -0.96073646862E+01 -0.27747190403E+01  0.71124556377E+01  0.12271411794E+02  0.51100000000E-03 0. -1.
<mgrwt>
<rscale>  0 0.20000341E+02</rscale>
<asrwt>0</asrwt>
<pdfrwt beam="1">  1        3 0.29982557E-02 0.20000341E+02</pdfrwt>
<pdfrwt beam="2">  1       -3 0.78944058E-03 0.20000341E+02</pdfrwt>
<totfact> 0.17589529E+06</totfact>
</mgrwt>
</event>
<event>
 5    1  0.4133473E-007  0.2000035E+02  0.7818608E-02  0.1745321E+00
          3   -1    0    0  501    0  0.00000000000E+00  0.00000000000E+00  0.76259016740E+02  0.76259073448E+02  0.93000000000E-01 0. -1.
         -3   -1    0    0    0  501 -0.00000000000E+00 -0.00000000000E+00 -0.13096600870E+01  0.13129579367E+01  0.93000000000E-01 0.  1.
       1023    2    1    2    0    0  0.00000000000E+00  0.00000000000E+00  0.74949356653E+02  0.77572031385E+02  0.20000349759E+02 0.  0.
        -11    1    3    3    0    0 -0.86117267067E+01 -0.50832834533E+01  0.37306070582E+02  0.38623108498E+02  0.51100000000E-03 0. -1.
         11    1    3    3    0    0  0.86117267067E+01  0.50832834533E+01  0.37643286071E+02  0.38948922886E+02  0.51100000000E-03 0.  1.
<mgrwt>
<rscale>  0 0.20000350E+02</rscale>
<asrwt>0</asrwt>
<pdfrwt beam="1">  1        3 0.11732415E-01 0.20000350E+02</pdfrwt>
<pdfrwt beam="2">  1       -3 0.20174420E-03 0.20000350E+02</pdfrwt>
<totfact> 0.15005950E+06</totfact>
</mgrwt>
</event>
<event>
 5    1  0.4253897E-007  0.2000166E+02  0.7818608E-02  0.1745295E+00
         -3   -1    0    0    0  501 -0.00000000000E+00  0.00000000000E+00  0.77939261286E+01  0.77944809640E+01  0.93000000000E-01 0.  1.
          3   -1    0    0  501    0  0.00000000000E+00 -0.00000000000E+00 -0.12831456109E+02  0.12831793128E+02  0.93000000000E-01 0. -1.
       1023    2    1    2    0    0  0.00000000000E+00  0.00000000000E+00 -0.50375299802E+01  0.20626274092E+02  0.20001661796E+02 0.  0.
        -11    1    3    3    0    0 -0.97468483980E+01  0.22391880688E+01 -0.24774966802E+01  0.10303058136E+02  0.51100000000E-03 0.  1.
         11    1    3    3    0    0  0.97468483980E+01 -0.22391880688E+01 -0.25600332999E+01  0.10323215955E+02  0.51100000000E-03 0. -1.
<mgrwt>
<rscale>  0 0.20001662E+02</rscale>
<asrwt>0</asrwt>
<pdfrwt beam="2">  1        3 0.19741388E-02 0.20001662E+02</pdfrwt>
<pdfrwt beam="1">  1       -3 0.11991342E-02 0.20001662E+02</pdfrwt>
<totfact> 0.17841291E+06</totfact>
</mgrwt>
</event>
<event>
 5    1  0.4133473E-007  0.2000017E+02  0.7818608E-02  0.1745325E+00
          3   -1    0    0  501    0  0.00000000000E+00  0.00000000000E+00  0.10417653271E+01  0.10459082162E+01  0.93000000000E-01 0. -1.
         -3   -1    0    0    0  501 -0.00000000000E+00 -0.00000000000E+00 -0.95797884567E+02  0.95797929709E+02  0.93000000000E-01 0.  1.
       1023    2    1    2    0    0  0.00000000000E+00  0.00000000000E+00 -0.94756119240E+02  0.96843837925E+02  0.20000170266E+02 0.  0.
        -11    1    3    3    0    0  0.89111359442E+01  0.45379505651E+01 -0.47285771594E+02  0.48331620443E+02  0.51100000000E-03 0.  1.
         11    1    3    3    0    0 -0.89111359442E+01 -0.45379505651E+01 -0.47470347646E+02  0.48512217482E+02  0.51100000000E-03 0. -1.
<mgrwt>
<rscale>  0 0.20000170E+02</rscale>
<asrwt>0</asrwt>
<pdfrwt beam="1">  1        3 0.16059382E-03 0.20000170E+02</pdfrwt>
<pdfrwt beam="2">  1       -3 0.14738451E-01 0.20000170E+02</pdfrwt>
<totfact> 0.14290847E+06</totfact>
</mgrwt>
</event>
<event>
 4    1  0.4133473E-007  0.2003060E+02  0.7818608E-02  0.1744720E+00
          3   -1    0    0  501    0  0.00000000000E+00  0.00000000000E+00  0.51256971915E+02  0.51257056284E+02  0.93000000000E-01 0.  1.
         -3   -1    0    0    0  501 -0.00000000000E+00 -0.00000000000E+00 -0.19557373431E+01  0.19579472811E+01  0.93000000000E-01 0. -1.
        -11    1    1    2    0    0 -0.37919724030E+01 -0.92639661099E+01  0.23785273647E+02  0.25805801005E+02  0.51100000000E-03 0.  1.
         11    1    1    2    0    0  0.37919724030E+01  0.92639661099E+01  0.25515960925E+02  0.27409202560E+02  0.51100000000E-03 0. -1.
<mgrwt>
<rscale>  0 0.20030598E+02</rscale>
<asrwt>0</asrwt>
<pdfrwt beam="1">  1        3 0.78858651E-02 0.20030598E+02</pdfrwt>
<pdfrwt beam="2">  1       -3 0.30105913E-03 0.20030598E+02</pdfrwt>
<totfact> 0.16001417E+06</totfact>
</mgrwt>
</event>
<event>
 5    1  0.4133473E-007  0.2000013E+02  0.7818608E-02  0.1745325E+00
          3   -1    0    0  501    0  0.00000000000E+00  0.00000000000E+00  0.14601051026E+02  0.14601347200E+02  0.93000000000E-01 0.  1.
         -3   -1    0    0    0  501 -0.00000000000E+00 -0.00000000000E+00 -0.68482295717E+01  0.68488610196E+01  0.93000000000E-01 0. -1.
       1023    2    1    2    0    0  0.00000000000E+00  0.00000000000E+00  0.77528214541E+01  0.21450208220E+02  0.20000129804E+02 0.  0.
        -11    1    3    3    0    0  0.56244888072E+00  0.99842099884E+01  0.38524301398E+01  0.10716436725E+02  0.51100000000E-03 0. -1.
         11    1    3    3    0    0 -0.56244888072E+00 -0.99842099884E+01  0.39003913143E+01  0.10733771495E+02  0.51100000000E-03 0.  1.
<mgrwt>
<rscale>  0 0.20000130E+02</rscale>
<asrwt>0</asrwt>
<pdfrwt beam="1">  1        3 0.22463869E-02 0.20000130E+02</pdfrwt>
<pdfrwt beam="2">  1       -3 0.10536451E-02 0.20000130E+02</pdfrwt>
<totfact> 0.17790590E+06</totfact>
</mgrwt>
</event>
<event>
 5    1  0.4133473E-007  0.2000425E+02  0.7818608E-02  0.1745244E+00
          3   -1    0    0  501    0  0.00000000000E+00  0.00000000000E+00  0.42332373293E+02  0.42332475449E+02  0.93000000000E-01 0. -1.
         -3   -1    0    0    0  501 -0.00000000000E+00 -0.00000000000E+00 -0.23622421122E+01  0.23640720794E+01  0.93000000000E-01 0.  1.
       1023    2    1    2    0    0  0.00000000000E+00  0.00000000000E+00  0.39970131181E+02  0.44696547528E+02  0.20004248907E+02 0.  0.
        -11    1    3    3    0    0 -0.88586256515E+01 -0.46423338014E+01  0.20267530212E+02  0.22600869291E+02  0.51100000000E-03 0. -1.
         11    1    3    3    0    0  0.88586256515E+01  0.46423338014E+01  0.19702600969E+02  0.22095678237E+02  0.51100000000E-03 0.  1.
<mgrwt>
<rscale>  0 0.20004249E+02</rscale>
<asrwt>0</asrwt>
<pdfrwt beam="1">  1        3 0.65128208E-02 0.20004249E+02</pdfrwt>
<pdfrwt beam="2">  1       -3 0.36357052E-03 0.20004249E+02</pdfrwt>
<totfact> 0.16461745E+06</totfact>
</mgrwt>
</event>
<event>
 5    1  0.4133473E-007  0.2000002E+02  0.7818608E-02  0.1745328E+00
         -3   -1    0    0    0  501 -0.00000000000E+00  0.00000000000E+00  0.11006480804E+01  0.11045701412E+01  0.93000000000E-01 0.  1.
          3   -1    0    0  501    0  0.00000000000E+00 -0.00000000000E+00 -0.90690252594E+02  0.90690300278E+02  0.93000000000E-01 0. -1.
       1023    2    1    2    0    0  0.00000000000E+00  0.00000000000E+00 -0.89589604513E+02  0.91794870419E+02  0.20000024960E+02 0.  0.
        -11    1    3    3    0    0 -0.15545339601E+01  0.98784436287E+01 -0.44817743500E+02  0.45919825316E+02  0.51100000000E-03 0.  1.
         11    1    3    3    0    0  0.15545339601E+01 -0.98784436287E+01 -0.44771861013E+02  0.45875045103E+02  0.51100000000E-03 0. -1.
<mgrwt>
<rscale>  0 0.20000025E+02</rscale>
<asrwt>0</asrwt>
<pdfrwt beam="2">  1        3 0.13952646E-01 0.20000025E+02</pdfrwt>
<pdfrwt beam="1">  1       -3 0.16963591E-03 0.20000025E+02</pdfrwt>
<totfact> 0.14468663E+06</totfact>
</mgrwt>
</event>
<event>
 5    1  0.4216092E-007  0.2000076E+02  0.7818608E-02  0.1745313E+00
         -3   -1    0    0    0  501 -0.00000000000E+00  0.00000000000E+00  0.10924794588E+02  0.10925190424E+02  0.93000000000E-01 0.  1.
          3   -1    0    0  501    0  0.00000000000E+00 -0.00000000000E+00 -0.91533900927E+01  0.91538625284E+01  0.93000000000E-01 0. -1.
       1023    2    1    2    0    0  0.00000000000E+00  0.00000000000E+00  0.17714044954E+01  0.20079052952E+02  0.20000762325E+02 0.  0.
        -11    1    3    3    0    0 -0.76823227400E+01  0.64021350367E+01  0.93286935716E+00  0.10043687630E+02  0.51100000000E-03 0.  1.
         11    1    3    3    0    0  0.76823227400E+01 -0.64021350367E+01  0.83853513823E+00  0.10035365322E+02  0.51100000000E-03 0. -1.
<mgrwt>
<rscale>  0 0.20000762E+02</rscale>
<asrwt>0</asrwt>
<pdfrwt beam="2">  1        3 0.14082807E-02 0.20000762E+02</pdfrwt>
<pdfrwt beam="1">  1       -3 0.16808044E-02 0.20000762E+02</pdfrwt>
<totfact> 0.17879099E+06</totfact>
</mgrwt>
</event>
<event>
 5    1  0.4133473E-007  0.2000374E+02  0.7818608E-02  0.1745254E+00
          3   -1    0    0  501    0  0.00000000000E+00  0.00000000000E+00  0.55458881464E+01  0.55466678585E+01  0.93000000000E-01 0. -1.
         -3   -1    0    0    0  501 -0.00000000000E+00 -0.00000000000E+00 -0.18035954796E+02  0.18036194566E+02  0.93000000000E-01 0.  1.
       1023    2    1    2    0    0  0.00000000000E+00  0.00000000000E+00 -0.12490066650E+02  0.23582862424E+02  0.20003740530E+02 0.  0.
        -11    1    3    3    0    0  0.88270241526E+01 -0.47032824480E+01 -0.62288961407E+01  0.11782884561E+02  0.51100000000E-03 0. -1.
         11    1    3    3    0    0 -0.88270241526E+01  0.47032824480E+01 -0.62611705092E+01  0.11799977864E+02  0.51100000000E-03 0.  1.
<mgrwt>
<rscale>  0 0.20003741E+02</rscale>
<asrwt>0</asrwt>
<pdfrwt beam="1">  1        3 0.85329199E-03 0.20003741E+02</pdfrwt>
<pdfrwt beam="2">  1       -3 0.27748407E-02 0.20003741E+02</pdfrwt>
<totfact> 0.17648886E+06</totfact>
</mgrwt>
</event>
<event>
 5    1  0.4133473E-007  0.2000318E+02  0.7818608E-02  0.1745265E+00
         -3   -1    0    0    0  501 -0.00000000000E+00  0.00000000000E+00  0.56096280628E+02  0.56096357718E+02  0.93000000000E-01 0.  1.
          3   -1    0    0  501    0  0.00000000000E+00 -0.00000000000E+00 -0.17819251261E+01  0.17843503454E+01  0.93000000000E-01 0. -1.
       1023    2    1    2    0    0  0.00000000000E+00  0.00000000000E+00  0.54314355502E+02  0.57880708064E+02  0.20003178557E+02 0.  0.
        -11    1    3    3    0    0  0.79876888210E+01 -0.60184396907E+01  0.26915104144E+02  0.28713195927E+02  0.51100000000E-03 0.  1.
         11    1    3    3    0    0 -0.79876888210E+01  0.60184396907E+01  0.27399251358E+02  0.29167512137E+02  0.51100000000E-03 0. -1.
<mgrwt>
<rscale>  0 0.20003179E+02</rscale>
<asrwt>0</asrwt>
<pdfrwt beam="2">  1        3 0.27433483E-03 0.20003179E+02</pdfrwt>
<pdfrwt beam="1">  1       -3 0.86303891E-02 0.20003179E+02</pdfrwt>
<totfact> 0.15836186E+06</totfact>
</mgrwt>
</event>
<event>
 5    1  0.4133473E-007  0.2000208E+02  0.7818608E-02  0.1745287E+00
         -3   -1    0    0    0  501 -0.00000000000E+00  0.00000000000E+00  0.71399143667E+02  0.71399204235E+02  0.93000000000E-01 0. -1.
          3   -1    0    0  501    0  0.00000000000E+00 -0.00000000000E+00 -0.13992638315E+01  0.14023509797E+01  0.93000000000E-01 0.  1.
       1023    2    1    2    0    0  0.00000000000E+00  0.00000000000E+00  0.69999879835E+02  0.72801555214E+02  0.20002081509E+02 0.  0.
        -11    1    3    3    0    0  0.57909039250E+01 -0.81538726395E+01  0.34910147778E+02  0.36314441004E+02  0.51100000000E-03 0. -1.
         11    1    3    3    0    0 -0.57909039250E+01  0.81538726395E+01  0.35089732057E+02  0.36487114211E+02  0.51100000000E-03 0.  1.
<mgrwt>
<rscale>  0 0.20002082E+02</rscale>
<asrwt>0</asrwt>
<pdfrwt beam="2">  1        3 0.21551349E-03 0.20002082E+02</pdfrwt>
<pdfrwt beam="1">  1       -3 0.10984726E-01 0.20002082E+02</pdfrwt>
<totfact> 0.15197301E+06</totfact>
</mgrwt>
</event>
<event>
 4    1  0.4133473E-007  0.2001418E+02  0.7818608E-02  0.1745046E+00
          3   -1    0    0  501    0  0.00000000000E+00  0.00000000000E+00  0.53804845919E+01  0.53812882699E+01  0.93000000000E-01 0. -1.
         -3   -1    0    0    0  501 -0.00000000000E+00 -0.00000000000E+00 -0.18609746754E+02  0.18609979131E+02  0.93000000000E-01 0.  1.
        -11    1    1    2    0    0 -0.12762200670E+01  0.99213025407E+01 -0.62736787722E+01  0.11807625814E+02  0.51100000000E-03 0.  1.
         11    1    1    2    0    0  0.12762200670E+01 -0.99213025407E+01 -0.69555833903E+01  0.12183641587E+02  0.51100000000E-03 0. -1.
<mgrwt>
<rscale>  0 0.20014183E+02</rscale>
<asrwt>0</asrwt>
<pdfrwt beam="1">  1        3 0.82784657E-03 0.20014183E+02</pdfrwt>
<pdfrwt beam="2">  1       -3 0.28631176E-02 0.20014183E+02</pdfrwt>
<totfact> 0.17603575E+06</totfact>
</mgrwt>
</event>
<event>
 4    1  0.4133473E-007  0.2001347E+02  0.7818608E-02  0.1745060E+00
         -3   -1    0    0    0  501 -0.00000000000E+00  0.00000000000E+00  0.41479490630E+02  0.41479594886E+02  0.93000000000E-01 0.  1.
          3   -1    0    0  501    0  0.00000000000E+00 -0.00000000000E+00 -0.24130743498E+01  0.24148657970E+01  0.93000000000E-01 0. -1.
        -11    1    1    2    0    0  0.70149542544E+01  0.71361225003E+01  0.19597960227E+02  0.22004860210E+02  0.51100000000E-03 0. -1.
         11    1    1    2    0    0 -0.70149542544E+01 -0.71361225003E+01  0.19468456053E+02  0.21889600474E+02  0.51100000000E-03 0.  1.
<mgrwt>
<rscale>  0 0.20013465E+02</rscale>
<asrwt>0</asrwt>
<pdfrwt beam="2">  1        3 0.37138803E-03 0.20013465E+02</pdfrwt>
<pdfrwt beam="1">  1       -3 0.63816059E-02 0.20013465E+02</pdfrwt>
<totfact> 0.16488508E+06</totfact>
</mgrwt>
</event>
<event>
 5    1  0.4133473E-007  0.2000024E+02  0.7818608E-02  0.1745323E+00
         -3   -1    0    0    0  501 -0.00000000000E+00  0.00000000000E+00  0.26027623033E+01  0.26044232773E+01  0.93000000000E-01 0.  1.
          3   -1    0    0  501    0  0.00000000000E+00 -0.00000000000E+00 -0.38407666949E+02  0.38407779543E+02  0.93000000000E-01 0. -1.
       1023    2    1    2    0    0  0.00000000000E+00  0.00000000000E+00 -0.35804904645E+02  0.41012202821E+02  0.20000239587E+02 0.  0.
        -11    1    3    3    0    0  0.90191033935E+01 -0.43193783932E+01 -0.17833219734E+02  0.20445659248E+02  0.51100000000E-03 0.  1.
         11    1    3    3    0    0 -0.90191033935E+01  0.43193783932E+01 -0.17971684911E+02  0.20566543573E+02  0.51100000000E-03 0. -1.
<mgrwt>
<rscale>  0 0.20000240E+02</rscale>
<asrwt>0</asrwt>
<pdfrwt beam="2">  1        3 0.59090078E-02 0.20000240E+02</pdfrwt>
<pdfrwt beam="1">  1       -3 0.40056143E-03 0.20000240E+02</pdfrwt>
<totfact> 0.16658268E+06</totfact>
</mgrwt>
</event>
<event>
 4    1  0.4133473E-007  0.2001612E+02  0.7818608E-02  0.1745008E+00
         -3   -1    0    0    0  501 -0.00000000000E+00  0.00000000000E+00  0.27757420746E+01  0.27772995993E+01  0.93000000000E-01 0. -1.
          3   -1    0    0  501    0  0.00000000000E+00 -0.00000000000E+00 -0.36072775583E+02  0.36072895465E+02  0.93000000000E-01 0.  1.
        -11    1    1    2    0    0  0.99553363789E+01 -0.10259512237E+01 -0.16653042000E+02  0.19428975950E+02  0.51100000000E-03 0.  1.
         11    1    1    2    0    0 -0.99553363789E+01  0.10259512237E+01 -0.16643991508E+02  0.19421219115E+02  0.51100000000E-03 0. -1.
<mgrwt>
<rscale>  0 0.20016124E+02</rscale>
<asrwt>0</asrwt>
<pdfrwt beam="2">  1        3 0.55497865E-02 0.20016124E+02</pdfrwt>
<pdfrwt beam="1">  1       -3 0.42716630E-03 0.20016124E+02</pdfrwt>
<totfact> 0.16743773E+06</totfact>
</mgrwt>
</event>
<event>
 5    1  0.4133473E-007  0.2000058E+02  0.7818608E-02  0.1745317E+00
         -3   -1    0    0    0  501 -0.00000000000E+00  0.00000000000E+00  0.52949129338E+02  0.52949211011E+02  0.93000000000E-01 0.  1.
          3   -1    0    0  501    0  0.00000000000E+00 -0.00000000000E+00 -0.18874866910E+01  0.18897764441E+01  0.93000000000E-01 0. -1.
       1023    2    1    2    0    0  0.00000000000E+00  0.00000000000E+00  0.51061642647E+02  0.54838987455E+02  0.20000579873E+02 0.  0.
        -11    1    3    3    0    0 -0.51124230608E+01 -0.85947034922E+01  0.25533397367E+02  0.27421892331E+02  0.51100000000E-03 0. -1.
         11    1    3    3    0    0  0.51124230608E+01  0.85947034922E+01  0.25528245280E+02  0.27417095124E+02  0.51100000000E-03 0.  1.
<mgrwt>
<rscale>  0 0.20000580E+02</rscale>
<asrwt>0</asrwt>
<pdfrwt beam="2">  1        3 0.29056503E-03 0.20000580E+02</pdfrwt>
<pdfrwt beam="1">  1       -3 0.81462012E-02 0.20000580E+02</pdfrwt>
<totfact> 0.15979924E+06</totfact>
</mgrwt>
</event>
<event>
 5    1  0.4133473E-007  0.2000086E+02  0.7818608E-02  0.1745311E+00
          3   -1    0    0  501    0  0.00000000000E+00  0.00000000000E+00  0.13597110118E+01  0.13628877561E+01  0.93000000000E-01 0.  1.
         -3   -1    0    0    0  501 -0.00000000000E+00 -0.00000000000E+00 -0.73462321430E+02  0.73462380297E+02  0.93000000000E-01 0. -1.
       1023    2    1    2    0    0  0.00000000000E+00  0.00000000000E+00 -0.72102610418E+02  0.74825268053E+02  0.20000857733E+02 0.  0.
        -11    1    3    3    0    0  0.71228371371E+01  0.70189508131E+01 -0.36387959990E+02  0.37737038992E+02  0.51100000000E-03 0.  1.
         11    1    3    3    0    0 -0.71228371371E+01 -0.70189508131E+01 -0.35714650428E+02  0.37088229061E+02  0.51100000000E-03 0. -1.
<mgrwt>
<rscale>  0 0.20000858E+02</rscale>
<asrwt>0</asrwt>
<pdfrwt beam="1">  1        3 0.20943526E-03 0.20000858E+02</pdfrwt>
<pdfrwt beam="2">  1       -3 0.11302141E-01 0.20000858E+02</pdfrwt>
<totfact> 0.15117430E+06</totfact>
</mgrwt>
</event>
<event>
 5    1  0.4133473E-007  0.2000796E+02  0.7818608E-02  0.1745170E+00
          3   -1    0    0  501    0  0.00000000000E+00  0.00000000000E+00  0.14400200582E+01  0.14430200165E+01  0.93000000000E-01 0. -1.
         -3   -1    0    0    0  501 -0.00000000000E+00 -0.00000000000E+00 -0.69423425883E+02  0.69423488174E+02  0.93000000000E-01 0.  1.
       1023    2    1    2    0    0  0.00000000000E+00  0.00000000000E+00 -0.67983405824E+02  0.70866508191E+02  0.20007961307E+02 0.  0.
        -11    1    3    3    0    0 -0.97340901046E+01  0.23075731172E+01 -0.33824638758E+02  0.35272986707E+02  0.51100000000E-03 0. -1.
         11    1    3    3    0    0  0.97340901046E+01 -0.23075731172E+01 -0.34158767066E+02  0.35593521483E+02  0.51100000000E-03 0.  1.
<mgrwt>
<rscale>  0 0.20007961E+02</rscale>
<asrwt>0</asrwt>
<pdfrwt beam="1">  1        3 0.22177716E-03 0.20007961E+02</pdfrwt>
<pdfrwt beam="2">  1       -3 0.10680760E-01 0.20007961E+02</pdfrwt>
<totfact> 0.15267010E+06</totfact>
</mgrwt>
</event>
<event>
 5    1  0.4133473E-007  0.2000047E+02  0.7818608E-02  0.1745319E+00
         -3   -1    0    0    0  501 -0.00000000000E+00  0.00000000000E+00  0.19759130763E+02  0.19759349623E+02  0.93000000000E-01 0.  1.
          3   -1    0    0  501    0  0.00000000000E+00 -0.00000000000E+00 -0.50605153455E+01  0.50613698306E+01  0.93000000000E-01 0. -1.
       1023    2    1    2    0    0  0.00000000000E+00  0.00000000000E+00  0.14698615418E+02  0.24820719453E+02  0.20000470469E+02 0.  0.
        -11    1    3    3    0    0 -0.78909975756E+01  0.61429268274E+01  0.73043609889E+01  0.12383742668E+02  0.51100000000E-03 0.  1.
         11    1    3    3    0    0  0.78909975756E+01 -0.61429268274E+01  0.73942544287E+01  0.12436976785E+02  0.51100000000E-03 0. -1.
<mgrwt>
<rscale>  0 0.20000470E+02</rscale>
<asrwt>0</asrwt>
<pdfrwt beam="2">  1        3 0.77862338E-03 0.20000470E+02</pdfrwt>
<pdfrwt beam="1">  1       -3 0.30399489E-02 0.20000470E+02</pdfrwt>
<totfact> 0.17578026E+06</totfact>
</mgrwt>
</event>
<event>
 4    1  0.4133473E-007  0.2047463E+02  0.7818608E-02  0.1736051E+00
         -3   -1    0    0    0  501 -0.00000000000E+00  0.00000000000E+00  0.17267010257E+02  0.17267260704E+02  0.93000000000E-01 0. -1.
          3   -1    0    0  501    0  0.00000000000E+00 -0.00000000000E+00 -0.60688792700E+01  0.60695917980E+01  0.93000000000E-01 0.  1.
        -11    1    1    2    0    0  0.95583301391E+01  0.36659131622E+01  0.56505729314E+01  0.11693141968E+02  0.51100000000E-03 0.  1.
         11    1    1    2    0    0 -0.95583301391E+01 -0.36659131622E+01  0.55475580553E+01  0.11643710534E+02  0.51100000000E-03 0. -1.
<mgrwt>
<rscale>  0 0.20474632E+02</rscale>
<asrwt>0</asrwt>
<pdfrwt beam="2">  1        3 0.93374782E-03 0.20474632E+02</pdfrwt>
<pdfrwt beam="1">  1       -3 0.26565372E-02 0.20474632E+02</pdfrwt>
<totfact> 0.16797300E+06</totfact>
</mgrwt>
</event>
<event>
 5    1  0.4339020E-007  0.2000120E+02  0.7818608E-02  0.1745304E+00
         -3   -1    0    0    0  501 -0.00000000000E+00  0.00000000000E+00  0.15757944381E+02  0.15758218811E+02  0.93000000000E-01 0.  1.
          3   -1    0    0  501    0  0.00000000000E+00 -0.00000000000E+00 -0.63460939684E+01  0.63467753747E+01  0.93000000000E-01 0. -1.
       1023    2    1    2    0    0  0.00000000000E+00  0.00000000000E+00  0.94118504121E+01  0.22104994186E+02  0.20001195959E+02 0.  0.
        -11    1    3    3    0    0  0.99963963623E+01  0.28648481027E+00  0.47546775038E+01  0.11073254815E+02  0.51100000000E-03 0. -1.
         11    1    3    3    0    0 -0.99963963623E+01 -0.28648481027E+00  0.46571729083E+01  0.11031739370E+02  0.51100000000E-03 0.  1.
<mgrwt>
<rscale>  0 0.20001196E+02</rscale>
<asrwt>0</asrwt>
<pdfrwt beam="2">  1        3 0.97639568E-03 0.20001196E+02</pdfrwt>
<pdfrwt beam="1">  1       -3 0.24243726E-02 0.20001196E+02</pdfrwt>
<totfact> 0.17747243E+06</totfact>
</mgrwt>
</event>
<event>
 5    1  0.4133473E-007  0.2000053E+02  0.7818608E-02  0.1745317E+00
         -3   -1    0    0    0  501 -0.00000000000E+00  0.00000000000E+00  0.30252452251E+01  0.30266743584E+01  0.93000000000E-01 0. -1.
          3   -1    0    0  501    0  0.00000000000E+00 -0.00000000000E+00 -0.33047630206E+02  0.33047761063E+02  0.93000000000E-01 0.  1.
       1023    2    1    2    0    0  0.00000000000E+00  0.00000000000E+00 -0.30022384981E+02  0.36074435421E+02  0.20000532268E+02 0.  0.
        -11    1    3    3    0    0  0.49195442724E+01 -0.87063322484E+01 -0.15112990960E+02  0.18121937896E+02  0.51100000000E-03 0. -1.
         11    1    3    3    0    0 -0.49195442724E+01  0.87063322484E+01 -0.14909394021E+02  0.17952497525E+02  0.51100000000E-03 0.  1.
<mgrwt>
<rscale>  0 0.20000532E+02</rscale>
<asrwt>0</asrwt>
<pdfrwt beam="2">  1        3 0.50843706E-02 0.20000532E+02</pdfrwt>
<pdfrwt beam="1">  1       -3 0.46554236E-03 0.20000532E+02</pdfrwt>
<totfact> 0.16921906E+06</totfact>
</mgrwt>
</event>
<event>
 4    1  0.4133473E-007  0.2024824E+02  0.7818608E-02  0.1740436E+00
          3   -1    0    0  501    0  0.00000000000E+00  0.00000000000E+00  0.72272106112E+01  0.72278089501E+01  0.93000000000E-01 0. -1.
         -3   -1    0    0    0  501 -0.00000000000E+00 -0.00000000000E+00 -0.14180875494E+02  0.14181180443E+02  0.93000000000E-01 0.  1.
        -11    1    1    2    0    0 -0.36994207084E+01  0.94230056110E+01 -0.36229359784E+01  0.10751949297E+02  0.51100000000E-03 0.  1.
         11    1    1    2    0    0  0.36994207084E+01 -0.94230056110E+01 -0.33307289042E+01  0.10657040096E+02  0.51100000000E-03 0. -1.
<mgrwt>
<rscale>  0 0.20248244E+02</rscale>
<asrwt>0</asrwt>
<pdfrwt beam="1">  1        3 0.11119480E-02 0.20248244E+02</pdfrwt>
<pdfrwt beam="2">  1       -3 0.21817426E-02 0.20248244E+02</pdfrwt>
<totfact> 0.17326832E+06</totfact>
</mgrwt>
</event>
<event>
 5    1  0.4133473E-007  0.2000060E+02  0.7818608E-02  0.1745316E+00
         -3   -1    0    0    0  501 -0.00000000000E+00  0.00000000000E+00  0.74805604380E+02  0.74805662189E+02  0.93000000000E-01 0.  1.
          3   -1    0    0  501    0  0.00000000000E+00 -0.00000000000E+00 -0.13352026391E+01  0.13384375546E+01  0.93000000000E-01 0. -1.
       1023    2    1    2    0    0  0.00000000000E+00  0.00000000000E+00  0.73470401741E+02  0.76144099744E+02  0.20000599839E+02 0.  0.
        -11    1    3    3    0    0  0.67536871135E+01 -0.73748057957E+01  0.36441583900E+02  0.37788742868E+02  0.51100000000E-03 0.  1.
         11    1    3    3    0    0 -0.67536871135E+01  0.73748057957E+01  0.37028817841E+02  0.38355356876E+02  0.51100000000E-03 0. -1.
<mgrwt>
<rscale>  0 0.20000600E+02</rscale>
<asrwt>0</asrwt>
<pdfrwt beam="2">  1        3 0.20566909E-03 0.20000600E+02</pdfrwt>
<pdfrwt beam="1">  1       -3 0.11508807E-01 0.20000600E+02</pdfrwt>
<totfact> 0.15065080E+06</totfact>
</mgrwt>
</event>
<event>
 5    1  0.4133473E-007  0.2000045E+02  0.7818608E-02  0.1745319E+00
         -3   -1    0    0    0  501 -0.00000000000E+00  0.00000000000E+00  0.36566532545E+02  0.36566650808E+02  0.93000000000E-01 0.  1.
          3   -1    0    0  501    0  0.00000000000E+00 -0.00000000000E+00 -0.27339502941E+01  0.27355316139E+01  0.93000000000E-01 0. -1.
       1023    2    1    2    0    0  0.00000000000E+00  0.00000000000E+00  0.33832582251E+02  0.39302182422E+02  0.20000448030E+02 0.  0.
        -11    1    3    3    0    0 -0.90886064583E+01  0.41715249778E+01  0.16897432998E+02  0.19634857529E+02  0.51100000000E-03 0.  1.
         11    1    3    3    0    0  0.90886064583E+01 -0.41715249778E+01  0.16935149253E+02  0.19667324893E+02  0.51100000000E-03 0. -1.
<mgrwt>
<rscale>  0 0.20000448E+02</rscale>
<asrwt>0</asrwt>
<pdfrwt beam="2">  1        3 0.42073848E-03 0.20000448E+02</pdfrwt>
<pdfrwt beam="1">  1       -3 0.56257511E-02 0.20000448E+02</pdfrwt>
<totfact> 0.16750148E+06</totfact>
</mgrwt>
</event>
<event>
 5    1  0.4133473E-007  0.2000558E+02  0.7818608E-02  0.1745217E+00
         -3   -1    0    0    0  501 -0.00000000000E+00  0.00000000000E+00  0.46168058314E+02  0.46168151983E+02  0.93000000000E-01 0. -1.
          3   -1    0    0  501    0  0.00000000000E+00 -0.00000000000E+00 -0.21661155700E+01  0.21681110817E+01  0.93000000000E-01 0.  1.
       1023    2    1    2    0    0  0.00000000000E+00  0.00000000000E+00  0.44001942744E+02  0.48336263065E+02  0.20005583265E+02 0.  0.
        -11    1    3    3    0    0  0.99799625854E+01  0.67242289695E+00  0.22154437546E+02  0.24307836371E+02  0.51100000000E-03 0. -1.
         11    1    3    3    0    0 -0.99799625854E+01 -0.67242289695E+00  0.21847505198E+02  0.24028426694E+02  0.51100000000E-03 0.  1.
<mgrwt>
<rscale>  0 0.20005583E+02</rscale>
<asrwt>0</asrwt>
<pdfrwt beam="2">  1        3 0.33340925E-03 0.20005583E+02</pdfrwt>
<pdfrwt beam="1">  1       -3 0.71029389E-02 0.20005583E+02</pdfrwt>
<totfact> 0.16280845E+06</totfact>
</mgrwt>
</event>
<event>
 5    1  0.4133473E-007  0.2001027E+02  0.7818608E-02  0.1745124E+00
         -3   -1    0    0    0  501 -0.00000000000E+00  0.00000000000E+00  0.24038193396E+01  0.24056176790E+01  0.93000000000E-01 0.  1.
          3   -1    0    0  501    0  0.00000000000E+00 -0.00000000000E+00 -0.41625759122E+02  0.41625863012E+02  0.93000000000E-01 0. -1.
       1023    2    1    2    0    0  0.00000000000E+00  0.00000000000E+00 -0.39221939782E+02  0.44031480691E+02  0.20010265654E+02 0.  0.
        -11    1    3    3    0    0 -0.37746674754E+01  0.92635688800E+01 -0.19166176925E+02  0.21619531936E+02  0.51100000000E-03 0. -1.
         11    1    3    3    0    0  0.37746674754E+01 -0.92635688800E+01 -0.20055762857E+02  0.22411948755E+02  0.51100000000E-03 0.  1.
<mgrwt>
<rscale>  0 0.20010266E+02</rscale>
<asrwt>0</asrwt>
<pdfrwt beam="2">  1        3 0.64041087E-02 0.20010266E+02</pdfrwt>
<pdfrwt beam="1">  1       -3 0.36996472E-03 0.20010266E+02</pdfrwt>
<totfact> 0.16484824E+06</totfact>
</mgrwt>
</event>
<event>
 5    1  0.4133473E-007  0.2000042E+02  0.7818608E-02  0.1745320E+00
          3   -1    0    0  501    0  0.00000000000E+00  0.00000000000E+00  0.24790912926E+01  0.24808350685E+01  0.93000000000E-01 0. -1.
         -3   -1    0    0    0  501 -0.00000000000E+00 -0.00000000000E+00 -0.40323071804E+02  0.40323179050E+02  0.93000000000E-01 0.  1.
       1023    2    1    2    0    0  0.00000000000E+00  0.00000000000E+00 -0.37843980511E+02  0.42804014118E+02  0.20000419089E+02 0.  0.
        -11    1    3    3    0    0 -0.41477934738E+01  0.90993954543E+01 -0.18989746884E+02  0.21461912200E+02  0.51100000000E-03 0. -1.
         11    1    3    3    0    0  0.41477934738E+01 -0.90993954543E+01 -0.18854233627E+02  0.21342101918E+02  0.51100000000E-03 0.  1.
<mgrwt>
<rscale>  0 0.20000419E+02</rscale>
<asrwt>0</asrwt>
<pdfrwt beam="1">  1        3 0.38154108E-03 0.20000419E+02</pdfrwt>
<pdfrwt beam="2">  1       -3 0.62036914E-02 0.20000419E+02</pdfrwt>
<totfact> 0.16567449E+06</totfact>
</mgrwt>
</event>
<event>
 5    1  0.4133473E-007  0.2000011E+02  0.7818608E-02  0.1745326E+00
          3   -1    0    0  501    0  0.00000000000E+00  0.00000000000E+00  0.47152527964E+02  0.47152619677E+02  0.93000000000E-01 0. -1.
         -3   -1    0    0    0  501 -0.00000000000E+00 -0.00000000000E+00 -0.21196877093E+01  0.21217268874E+01  0.93000000000E-01 0.  1.
       1023    2    1    2    0    0  0.00000000000E+00  0.00000000000E+00  0.45032840255E+02  0.49274346565E+02  0.20000113198E+02 0.  0.
        -11    1    3    3    0    0 -0.82064511439E+00  0.99663076154E+01  0.22564813852E+02  0.24681401304E+02  0.51100000000E-03 0. -1.
         11    1    3    3    0    0  0.82064511439E+00 -0.99663076154E+01  0.22468026403E+02  0.24592945261E+02  0.51100000000E-03 0.  1.
<mgrwt>
<rscale>  0 0.20000113E+02</rscale>
<asrwt>0</asrwt>
<pdfrwt beam="1">  1        3 0.72543987E-02 0.20000113E+02</pdfrwt>
<pdfrwt beam="2">  1       -3 0.32626973E-03 0.20000113E+02</pdfrwt>
<totfact> 0.16242136E+06</totfact>
</mgrwt>
</event>
<event>
 5    1  0.4133473E-007  0.2000242E+02  0.7818608E-02  0.1745280E+00
          3   -1    0    0  501    0  0.00000000000E+00  0.00000000000E+00  0.30510971599E+01  0.30525141898E+01  0.93000000000E-01 0. -1.
         -3   -1    0    0    0  501 -0.00000000000E+00 -0.00000000000E+00 -0.32773931522E+02  0.32774063471E+02  0.93000000000E-01 0.  1.
       1023    2    1    2    0    0  0.00000000000E+00  0.00000000000E+00 -0.29722834362E+02  0.35826577661E+02  0.20002419463E+02 0.  0.
        -11    1    3    3    0    0 -0.94739593098E+01 -0.32040011386E+01 -0.14768909496E+02  0.17836541600E+02  0.51100000000E-03 0.  1.
         11    1    3    3    0    0  0.94739593098E+01  0.32040011386E+01 -0.14953924866E+02  0.17990036061E+02  0.51100000000E-03 0. -1.
<mgrwt>
<rscale>  0 0.20002419E+02</rscale>
<asrwt>0</asrwt>
<pdfrwt beam="1">  1        3 0.46951874E-03 0.20002419E+02</pdfrwt>
<pdfrwt beam="2">  1       -3 0.50422622E-02 0.20002419E+02</pdfrwt>
<totfact> 0.16934103E+06</totfact>
</mgrwt>
</event>
<event>
 5    1  0.4133473E-007  0.2000247E+02  0.7818608E-02  0.1745279E+00
         -3   -1    0    0    0  501 -0.00000000000E+00  0.00000000000E+00  0.10718052728E+03  0.10718056763E+03  0.93000000000E-01 0. -1.
          3   -1    0    0  501    0  0.00000000000E+00 -0.00000000000E+00 -0.93087845138E+00  0.93551252864E+00  0.93000000000E-01 0.  1.
       1023    2    1    2    0    0  0.00000000000E+00  0.00000000000E+00  0.10624964883E+03  0.10811608016E+03  0.20002472652E+02 0.  0.
        -11    1    3    3    0    0 -0.23939675366E+01 -0.97094501071E+01  0.52356119057E+02  0.53302605048E+02  0.51100000000E-03 0.  1.
         11    1    3    3    0    0  0.23939675366E+01  0.97094501071E+01  0.53893529775E+02  0.54813475112E+02  0.51100000000E-03 0. -1.
<mgrwt>
<rscale>  0 0.20002473E+02</rscale>
<asrwt>0</asrwt>
<pdfrwt beam="2">  1        3 0.14357168E-03 0.20002473E+02</pdfrwt>
<pdfrwt beam="1">  1       -3 0.16489666E-01 0.20002473E+02</pdfrwt>
<totfact> 0.13902205E+06</totfact>
</mgrwt>
</event>
<event>
 5    1  0.4133473E-007  0.2000178E+02  0.7818608E-02  0.1745293E+00
         -3   -1    0    0    0  501 -0.00000000000E+00  0.00000000000E+00  0.86704441993E+02  0.86704491869E+02  0.93000000000E-01 0.  1.
          3   -1    0    0  501    0  0.00000000000E+00 -0.00000000000E+00 -0.11516239651E+01  0.11553729947E+01  0.93000000000E-01 0. -1.
       1023    2    1    2    0    0  0.00000000000E+00  0.00000000000E+00  0.85552818028E+02  0.87859864864E+02  0.20001779456E+02 0.  0.
        -11    1    3    3    0    0 -0.58575159152E+01  0.81060001502E+01  0.42741279318E+02  0.43895725181E+02  0.51100000000E-03 0. -1.
         11    1    3    3    0    0  0.58575159152E+01 -0.81060001502E+01  0.42811538709E+02  0.43964139683E+02  0.51100000000E-03 0.  1.
<mgrwt>
<rscale>  0 0.20001779E+02</rscale>
<asrwt>0</asrwt>
<pdfrwt beam="2">  1        3 0.17746512E-03 0.20001779E+02</pdfrwt>
<pdfrwt beam="1">  1       -3 0.13339438E-01 0.20001779E+02</pdfrwt>
<totfact> 0.14613161E+06</totfact>
</mgrwt>
</event>
<event>
 5    1  0.4277172E-007  0.2000059E+02  0.7818608E-02  0.1745316E+00
         -3   -1    0    0    0  501 -0.00000000000E+00  0.00000000000E+00  0.70653030808E+01  0.70659151299E+01  0.93000000000E-01 0. -1.
          3   -1    0    0  501    0  0.00000000000E+00 -0.00000000000E+00 -0.14153130352E+02  0.14153435899E+02  0.93000000000E-01 0.  1.
       1023    2    1    2    0    0  0.00000000000E+00  0.00000000000E+00 -0.70878272709E+01  0.21219351029E+02  0.20000589058E+02 0.  0.
        -11    1    3    3    0    0 -0.91062872394E+01 -0.41329448517E+01 -0.35585366189E+01  0.10614559980E+02  0.51100000000E-03 0.  1.
         11    1    3    3    0    0  0.91062872394E+01  0.41329448517E+01 -0.35292906520E+01  0.10604791049E+02  0.51100000000E-03 0. -1.
<mgrwt>
<rscale>  0 0.20000589E+02</rscale>
<asrwt>0</asrwt>
<pdfrwt beam="2">  1        3 0.21774752E-02 0.20000589E+02</pdfrwt>
<pdfrwt beam="1">  1       -3 0.10870403E-02 0.20000589E+02</pdfrwt>
<totfact> 0.17804668E+06</totfact>
</mgrwt>
</event>
<event>
 5    1  0.4133473E-007  0.2000201E+02  0.7818608E-02  0.1745288E+00
          3   -1    0    0  501    0  0.00000000000E+00  0.00000000000E+00  0.10827901951E+01  0.10867767051E+01  0.93000000000E-01 0.  1.
         -3   -1    0    0    0  501 -0.00000000000E+00 -0.00000000000E+00 -0.92198816930E+02  0.92198863834E+02  0.93000000000E-01 0. -1.
       1023    2    1    2    0    0  0.00000000000E+00  0.00000000000E+00 -0.91116026735E+02  0.93285640539E+02  0.20002009970E+02 0.  0.
        -11    1    3    3    0    0 -0.69035356429E+01 -0.72360234299E+01 -0.45392398849E+02  0.46481057572E+02  0.51100000000E-03 0.  1.
         11    1    3    3    0    0  0.69035356429E+01  0.72360234299E+01 -0.45723627885E+02  0.46804582967E+02  0.51100000000E-03 0. -1.
<mgrwt>
<rscale>  0 0.20002010E+02</rscale>
<asrwt>0</asrwt>
<pdfrwt beam="1">  1        3 0.16689344E-03 0.20002010E+02</pdfrwt>
<pdfrwt beam="2">  1       -3 0.14184738E-01 0.20002010E+02</pdfrwt>
<totfact> 0.14414649E+06</totfact>
</mgrwt>
</event>
<event>
 5    1  0.4133473E-007  0.2000044E+02  0.7818608E-02  0.1745319E+00
         -3   -1    0    0    0  501 -0.00000000000E+00  0.00000000000E+00  0.11851708711E+02  0.11852073589E+02  0.93000000000E-01 0.  1.
          3   -1    0    0  501    0  0.00000000000E+00 -0.00000000000E+00 -0.84372188495E+01  0.84377313844E+01  0.93000000000E-01 0. -1.
       1023    2    1    2    0    0  0.00000000000E+00  0.00000000000E+00  0.34144898611E+01  0.20289804973E+02  0.20000436117E+02 0.  0.
        -11    1    3    3    0    0  0.98730701286E+01  0.15883588323E+01  0.17711113842E+01  0.10155650316E+02  0.51100000000E-03 0.  1.
         11    1    3    3    0    0 -0.98730701286E+01 -0.15883588323E+01  0.16433784769E+01  0.10134154658E+02  0.51100000000E-03 0. -1.
<mgrwt>
<rscale>  0 0.20000436E+02</rscale>
<asrwt>0</asrwt>
<pdfrwt beam="2">  1        3 0.12981012E-02 0.20000436E+02</pdfrwt>
<pdfrwt beam="1">  1       -3 0.18234073E-02 0.20000436E+02</pdfrwt>
<totfact> 0.17865964E+06</totfact>
</mgrwt>
</event>
<event>
 4    1  0.4133473E-007  0.2002969E+02  0.7818608E-02  0.1744738E+00
         -3   -1    0    0    0  501 -0.00000000000E+00  0.00000000000E+00  0.85784714388E+02  0.85784764799E+02  0.93000000000E-01 0. -1.
          3   -1    0    0  501    0  0.00000000000E+00 -0.00000000000E+00 -0.11672723895E+01  0.11709713196E+01  0.93000000000E-01 0.  1.
        -11    1    1    2    0    0  0.59181392305E+01 -0.80770686840E+01  0.41511429658E+02  0.42702016381E+02  0.51100000000E-03 0. -1.
         11    1    1    2    0    0 -0.59181392305E+01  0.80770686840E+01  0.43106012340E+02  0.44253719737E+02  0.51100000000E-03 0.  1.
<mgrwt>
<rscale>  0 0.20029692E+02</rscale>
<asrwt>0</asrwt>
<pdfrwt beam="2">  1        3 0.17986884E-03 0.20029692E+02</pdfrwt>
<pdfrwt beam="1">  1       -3 0.13197932E-01 0.20029692E+02</pdfrwt>
<totfact> 0.14603005E+06</totfact>
</mgrwt>
</event>
<event>
 5    1  0.4135179E-007  0.2000238E+02  0.7818608E-02  0.1745281E+00
         -3   -1    0    0    0  501 -0.00000000000E+00  0.00000000000E+00  0.65926451689E+01  0.65933010945E+01  0.93000000000E-01 0. -1.
          3   -1    0    0  501    0  0.00000000000E+00 -0.00000000000E+00 -0.15170477201E+02  0.15170762259E+02  0.93000000000E-01 0.  1.
       1023    2    1    2    0    0  0.00000000000E+00  0.00000000000E+00 -0.85778320323E+01  0.21764063353E+02  0.20002381140E+02 0.  0.
        -11    1    3    3    0    0 -0.24285004337E+01 -0.97016409849E+01 -0.43607651327E+01  0.10910349443E+02  0.51100000000E-03 0.  1.
         11    1    3    3    0    0  0.24285004337E+01  0.97016409849E+01 -0.42170668995E+01  0.10853713911E+02  0.51100000000E-03 0. -1.
<mgrwt>
<rscale>  0 0.20002381E+02</rscale>
<asrwt>0</asrwt>
<pdfrwt beam="2">  1        3 0.23339919E-02 0.20002381E+02</pdfrwt>
<pdfrwt beam="1">  1       -3 0.10143255E-02 0.20002381E+02</pdfrwt>
<totfact> 0.17766040E+06</totfact>
</mgrwt>
</event>
<event>
 5    1  0.4133473E-007  0.2000132E+02  0.7818608E-02  0.1745302E+00
          3   -1    0    0  501    0  0.00000000000E+00  0.00000000000E+00  0.11162341995E+03  0.11162345870E+03  0.93000000000E-01 0.  1.
         -3   -1    0    0    0  501 -0.00000000000E+00 -0.00000000000E+00 -0.89353529390E+00  0.89836202137E+00  0.93000000000E-01 0. -1.
       1023    2    1    2    0    0  0.00000000000E+00  0.00000000000E+00  0.11072988466E+03  0.11252182072E+03  0.20001319474E+02 0.  0.
        -11    1    3    3    0    0 -0.56133890497E+01 -0.82764055621E+01  0.55728193916E+02  0.56618377079E+02  0.51100000000E-03 0. -1.
         11    1    3    3    0    0  0.56133890497E+01  0.82764055621E+01  0.55001690745E+02  0.55903443639E+02  0.51100000000E-03 0.  1.
<mgrwt>
<rscale>  0 0.20001319E+02</rscale>
<asrwt>0</asrwt>
<pdfrwt beam="1">  1        3 0.17173208E-01 0.20001319E+02</pdfrwt>
<pdfrwt beam="2">  1       -3 0.13784123E-03 0.20001319E+02</pdfrwt>
<totfact> 0.13756810E+06</totfact>
</mgrwt>
</event>
<event>
 5    1  0.4133473E-007  0.2000317E+02  0.7818608E-02  0.1745265E+00
          3   -1    0    0  501    0  0.00000000000E+00  0.00000000000E+00  0.19742943023E+02  0.19743162062E+02  0.93000000000E-01 0.  1.
         -3   -1    0    0    0  501 -0.00000000000E+00 -0.00000000000E+00 -0.50660317530E+01  0.50668853079E+01  0.93000000000E-01 0. -1.
       1023    2    1    2    0    0  0.00000000000E+00  0.00000000000E+00  0.14676911270E+02  0.24810047370E+02  0.20003167901E+02 0.  0.
        -11    1    3    3    0    0 -0.88920582264E+01 -0.45782751139E+01  0.72779630632E+01  0.12369238017E+02  0.51100000000E-03 0. -1.
         11    1    3    3    0    0  0.88920582264E+01  0.45782751139E+01  0.73989482068E+01  0.12440809353E+02  0.51100000000E-03 0.  1.
<mgrwt>
<rscale>  0 0.20003168E+02</rscale>
<asrwt>0</asrwt>
<pdfrwt beam="1">  1        3 0.30374583E-02 0.20003168E+02</pdfrwt>
<pdfrwt beam="2">  1       -3 0.77947201E-03 0.20003168E+02</pdfrwt>
<totfact> 0.17572383E+06</totfact>
</mgrwt>
</event>
<event>
 5    1  0.4284118E-007  0.2000078E+02  0.7818608E-02  0.1745313E+00
          3   -1    0    0  501    0  0.00000000000E+00  0.00000000000E+00  0.16130181496E+02  0.16130449593E+02  0.93000000000E-01 0. -1.
         -3   -1    0    0    0  501 -0.00000000000E+00 -0.00000000000E+00 -0.61993748976E+01  0.62000724287E+01  0.93000000000E-01 0.  1.
       1023    2    1    2    0    0  0.00000000000E+00  0.00000000000E+00  0.99308065981E+01  0.22330522022E+02  0.20000782337E+02 0.  0.
        -11    1    3    3    0    0  0.31820631638E+01 -0.94806216968E+01  0.49537187810E+01  0.11160064684E+02  0.51100000000E-03 0. -1.
         11    1    3    3    0    0 -0.31820631638E+01  0.94806216968E+01  0.49770878171E+01  0.11170457338E+02  0.51100000000E-03 0.  1.
<mgrwt>
<rscale>  0 0.20000782E+02</rscale>
<asrwt>0</asrwt>
<pdfrwt beam="1">  1        3 0.24816407E-02 0.20000782E+02</pdfrwt>
<pdfrwt beam="2">  1       -3 0.95382426E-03 0.20000782E+02</pdfrwt>
<totfact> 0.17732821E+06</totfact>
</mgrwt>
</event>
<event>
 5    1  0.4174410E-007  0.2000077E+02  0.7818608E-02  0.1745313E+00
          3   -1    0    0  501    0  0.00000000000E+00  0.00000000000E+00  0.32852522039E+01  0.32865682776E+01  0.93000000000E-01 0. -1.
         -3   -1    0    0    0  501 -0.00000000000E+00 -0.00000000000E+00 -0.30433934419E+02  0.30434076514E+02  0.93000000000E-01 0.  1.
       1023    2    1    2    0    0  0.00000000000E+00  0.00000000000E+00 -0.27148682215E+02  0.33720644791E+02  0.20000773463E+02 0.  0.
        -11    1    3    3    0    0 -0.52357983831E+01  0.85199870201E+01 -0.13468098646E+02  0.16774785987E+02  0.51100000000E-03 0. -1.
         11    1    3    3    0    0  0.52357983831E+01 -0.85199870201E+01 -0.13680583570E+02  0.16945858804E+02  0.51100000000E-03 0.  1.
<mgrwt>
<rscale>  0 0.20000773E+02</rscale>
<asrwt>0</asrwt>
<pdfrwt beam="1">  1        3 0.50553560E-03 0.20000773E+02</pdfrwt>
<pdfrwt beam="2">  1       -3 0.46822557E-02 0.20000773E+02</pdfrwt>
<totfact> 0.17053891E+06</totfact>
</mgrwt>
</event>
<event>
 5    1  0.4133473E-007  0.2000046E+02  0.7818608E-02  0.1745319E+00
          3   -1    0    0  501    0  0.00000000000E+00  0.00000000000E+00  0.88051202535E+01  0.88056113745E+01  0.93000000000E-01 0. -1.
         -3   -1    0    0    0  501 -0.00000000000E+00 -0.00000000000E+00 -0.11356553297E+02  0.11356934084E+02  0.93000000000E-01 0.  1.
       1023    2    1    2    0    0  0.00000000000E+00  0.00000000000E+00 -0.25514330439E+01  0.20162545459E+02  0.20000460715E+02 0.  0.
        -11    1    3    3    0    0  0.77387005474E+01  0.63336647294E+01 -0.13186275866E+01  0.10086702833E+02  0.51100000000E-03 0.  1.
         11    1    3    3    0    0 -0.77387005474E+01 -0.63336647294E+01 -0.12328054574E+01  0.10075842626E+02  0.51100000000E-03 0. -1.
<mgrwt>
<rscale>  0 0.20000461E+02</rscale>
<asrwt>0</asrwt>
<pdfrwt beam="1">  1        3 0.13547010E-02 0.20000461E+02</pdfrwt>
<pdfrwt beam="2">  1       -3 0.17472291E-02 0.20000461E+02</pdfrwt>
<totfact> 0.17874237E+06</totfact>
</mgrwt>
</event>
<event>
 5    1  0.4133473E-007  0.2000896E+02  0.7818608E-02  0.1745150E+00
         -3   -1    0    0    0  501 -0.00000000000E+00  0.00000000000E+00  0.38177341318E+02  0.38177454592E+02  0.93000000000E-01 0.  1.
          3   -1    0    0  501    0  0.00000000000E+00 -0.00000000000E+00 -0.26207600336E+01  0.26224096083E+01  0.93000000000E-01 0. -1.
       1023    2    1    2    0    0  0.00000000000E+00  0.00000000000E+00  0.35556581285E+02  0.40799864201E+02  0.20008959146E+02 0.  0.
        -11    1    3    3    0    0 -0.37416289181E+01 -0.92783013316E+01  0.17667564506E+02  0.20303435630E+02  0.51100000000E-03 0. -1.
         11    1    3    3    0    0  0.37416289181E+01  0.92783013316E+01  0.17889016779E+02  0.20496428570E+02  0.51100000000E-03 0.  1.
<mgrwt>
<rscale>  0 0.20008959E+02</rscale>
<asrwt>0</asrwt>
<pdfrwt beam="2">  1        3 0.40332951E-03 0.20008959E+02</pdfrwt>
<pdfrwt beam="1">  1       -3 0.58735720E-02 0.20008959E+02</pdfrwt>
<totfact> 0.16656026E+06</totfact>
</mgrwt>
</event>
<event>
 5    1  0.4133473E-007  0.2000242E+02  0.7818608E-02  0.1745280E+00
         -3   -1    0    0    0  501 -0.00000000000E+00  0.00000000000E+00  0.81837963324E+02  0.81838016166E+02  0.93000000000E-01 0.  1.
          3   -1    0    0  501    0  0.00000000000E+00 -0.00000000000E+00 -0.12204004245E+01  0.12239388041E+01  0.93000000000E-01 0. -1.
       1023    2    1    2    0    0  0.00000000000E+00  0.00000000000E+00  0.80617562899E+02  0.83061954970E+02  0.20002422744E+02 0.  0.
        -11    1    3    3    0    0  0.38036863986E+01 -0.92495050795E+01  0.40530633152E+02  0.41746300416E+02  0.51100000000E-03 0.  1.
         11    1    3    3    0    0 -0.38036863986E+01  0.92495050795E+01  0.40086929747E+02  0.41315654554E+02  0.51100000000E-03 0. -1.
<mgrwt>
<rscale>  0 0.20002423E+02</rscale>
<asrwt>0</asrwt>
<pdfrwt beam="2">  1        3 0.18803013E-03 0.20002423E+02</pdfrwt>
<pdfrwt beam="1">  1       -3 0.12590734E-01 0.20002423E+02</pdfrwt>
<totfact> 0.14792608E+06</totfact>
</mgrwt>
</event>
<event>
 5    1  0.4133473E-007  0.2000173E+02  0.7818608E-02  0.1745294E+00
         -3   -1    0    0    0  501 -0.00000000000E+00  0.00000000000E+00  0.82149132512E+02  0.82149185154E+02  0.93000000000E-01 0.  1.
          3   -1    0    0  501    0  0.00000000000E+00 -0.00000000000E+00 -0.12156798354E+01  0.12192319148E+01  0.93000000000E-01 0. -1.
       1023    2    1    2    0    0  0.00000000000E+00  0.00000000000E+00  0.80933452676E+02  0.83368417068E+02  0.20001729985E+02 0.  0.
        -11    1    3    3    0    0 -0.48423740560E+01  0.87495880085E+01  0.40949637502E+02  0.42153015178E+02  0.51100000000E-03 0.  1.
         11    1    3    3    0    0  0.48423740560E+01 -0.87495880085E+01  0.39983815175E+02  0.41215401890E+02  0.51100000000E-03 0. -1.
<mgrwt>
<rscale>  0 0.20001730E+02</rscale>
<asrwt>0</asrwt>
<pdfrwt beam="2">  1        3 0.18730491E-03 0.20001730E+02</pdfrwt>
<pdfrwt beam="1">  1       -3 0.12638608E-01 0.20001730E+02</pdfrwt>
<totfact> 0.14782035E+06</totfact>
</mgrwt>
</event>
<event>
 4    1  0.4133473E-007  0.2001250E+02  0.7818608E-02  0.1745080E+00
         -3   -1    0    0    0  501 -0.00000000000E+00  0.00000000000E+00  0.16821394886E+02  0.16821651967E+02  0.93000000000E-01 0.  1.
          3   -1    0    0  501    0  0.00000000000E+00 -0.00000000000E+00 -0.59515749614E+01  0.59523015315E+01  0.93000000000E-01 0. -1.
        -11    1    1    2    0    0  0.21102834767E+01 -0.97803341016E+01  0.52875794062E+01  0.11316657092E+02  0.51100000000E-03 0.  1.
         11    1    1    2    0    0 -0.21102834767E+01  0.97803341016E+01  0.55822405180E+01  0.11457296407E+02  0.51100000000E-03 0. -1.
<mgrwt>
<rscale>  0 0.20012495E+02</rscale>
<asrwt>0</asrwt>
<pdfrwt beam="2">  1        3 0.91570260E-03 0.20012495E+02</pdfrwt>
<pdfrwt beam="1">  1       -3 0.25879825E-02 0.20012495E+02</pdfrwt>
<totfact> 0.17683164E+06</totfact>
</mgrwt>
</event>
<event>
 5    1  0.4144809E-007  0.2000149E+02  0.7818608E-02  0.1745298E+00
         -3   -1    0    0    0  501 -0.00000000000E+00  0.00000000000E+00  0.10992612796E+02  0.10993006189E+02  0.93000000000E-01 0.  1.
          3   -1    0    0  501    0  0.00000000000E+00 -0.00000000000E+00 -0.90975808301E+01  0.90980561639E+01  0.93000000000E-01 0. -1.
       1023    2    1    2    0    0  0.00000000000E+00  0.00000000000E+00  0.18950319655E+01  0.20091062353E+02  0.20001490953E+02 0.  0.
        -11    1    3    3    0    0 -0.88981177274E+01  0.45640504077E+01  0.85849288773E+00  0.10037134328E+02  0.51100000000E-03 0. -1.
         11    1    3    3    0    0  0.88981177274E+01 -0.45640504077E+01  0.10365390778E+01  0.10053928025E+02  0.51100000000E-03 0.  1.
<mgrwt>
<rscale>  0 0.20001491E+02</rscale>
<asrwt>0</asrwt>
<pdfrwt beam="2">  1        3 0.13996947E-02 0.20001491E+02</pdfrwt>
<pdfrwt beam="1">  1       -3 0.16912380E-02 0.20001491E+02</pdfrwt>
<totfact> 0.17876920E+06</totfact>
</mgrwt>
</event>
<event>
 5    1  0.4133473E-007  0.2000031E+02  0.7818608E-02  0.1745322E+00
         -3   -1    0    0    0  501 -0.00000000000E+00  0.00000000000E+00  0.40397669696E+01  0.40408373103E+01  0.93000000000E-01 0. -1.
          3   -1    0    0  501    0  0.00000000000E+00 -0.00000000000E+00 -0.24750222784E+02  0.24750397509E+02  0.93000000000E-01 0.  1.
       1023    2    1    2    0    0  0.00000000000E+00  0.00000000000E+00 -0.20710455814E+02  0.28791234819E+02  0.20000305557E+02 0.  0.
        -11    1    3    3    0    0  0.92610632401E+01 -0.37728466874E+01 -0.10408914652E+02  0.14434236002E+02  0.51100000000E-03 0.  1.
         11    1    3    3    0    0 -0.92610632401E+01  0.37728466874E+01 -0.10301541163E+02  0.14356998818E+02  0.51100000000E-03 0. -1.
<mgrwt>
<rscale>  0 0.20000306E+02</rscale>
<asrwt>0</asrwt>
<pdfrwt beam="2">  1        3 0.38078223E-02 0.20000306E+02</pdfrwt>
<pdfrwt beam="1">  1       -3 0.62159840E-03 0.20000306E+02</pdfrwt>
<totfact> 0.17336837E+06</totfact>
</mgrwt>
</event>
<event>
 5    1  0.4335180E-007  0.2000104E+02  0.7818608E-02  0.1745307E+00
         -3   -1    0    0    0  501 -0.00000000000E+00  0.00000000000E+00  0.12358196758E+02  0.12358546683E+02  0.93000000000E-01 0.  1.
          3   -1    0    0  501    0  0.00000000000E+00 -0.00000000000E+00 -0.80919034610E+01  0.80924378664E+01  0.93000000000E-01 0. -1.
       1023    2    1    2    0    0  0.00000000000E+00  0.00000000000E+00  0.42662932971E+01  0.20450984549E+02  0.20001037736E+02 0.  0.
        -11    1    3    3    0    0  0.96774584006E+01 -0.25200036529E+01  0.20490910730E+01  0.10207957386E+02  0.51100000000E-03 0.  1.
         11    1    3    3    0    0 -0.96774584006E+01  0.25200036529E+01  0.22172022241E+01  0.10243027163E+02  0.51100000000E-03 0. -1.
<mgrwt>
<rscale>  0 0.20001038E+02</rscale>
<asrwt>0</asrwt>
<pdfrwt beam="2">  1        3 0.12449763E-02 0.20001038E+02</pdfrwt>
<pdfrwt beam="1">  1       -3 0.19013290E-02 0.20001038E+02</pdfrwt>
<totfact> 0.17854310E+06</totfact>
</mgrwt>
</event>
<event>
 5    1  0.4133473E-007  0.2000098E+02  0.7818608E-02  0.1745309E+00
         -3   -1    0    0    0  501 -0.00000000000E+00  0.00000000000E+00  0.12833660701E+01  0.12867313122E+01  0.93000000000E-01 0.  1.
          3   -1    0    0  501    0  0.00000000000E+00 -0.00000000000E+00 -0.77822306163E+02  0.77822361732E+02  0.93000000000E-01 0. -1.
       1023    2    1    2    0    0  0.00000000000E+00  0.00000000000E+00 -0.76538940093E+02  0.79109093044E+02  0.20000981269E+02 0.  0.
        -11    1    3    3    0    0 -0.94086394478E+01  0.33887089366E+01 -0.38518624831E+02  0.39795606587E+02  0.51100000000E-03 0.  1.
         11    1    3    3    0    0  0.94086394478E+01 -0.33887089366E+01 -0.38020315261E+02  0.39313486456E+02  0.51100000000E-03 0. -1.
<mgrwt>
<rscale>  0 0.20000981E+02</rscale>
<asrwt>0</asrwt>
<pdfrwt beam="2">  1        3 0.11972922E-01 0.20000981E+02</pdfrwt>
<pdfrwt beam="1">  1       -3 0.19770413E-03 0.20000981E+02</pdfrwt>
<totfact> 0.14944564E+06</totfact>
</mgrwt>
</event>
<event>
 5    1  0.4155608E-007  0.2000177E+02  0.7818608E-02  0.1745293E+00
          3   -1    0    0  501    0  0.00000000000E+00  0.00000000000E+00  0.30704709706E+02  0.30704850547E+02  0.93000000000E-01 0. -1.
         -3   -1    0    0    0  501 -0.00000000000E+00 -0.00000000000E+00 -0.32565951796E+01  0.32579228297E+01  0.93000000000E-01 0.  1.
       1023    2    1    2    0    0  0.00000000000E+00  0.00000000000E+00  0.27448114526E+02  0.33962773376E+02  0.20001774531E+02 0.  0.
        -11    1    3    3    0    0  0.49019585734E+01 -0.87165852774E+01  0.13891195558E+02  0.17116464911E+02  0.51100000000E-03 0. -1.
         11    1    3    3    0    0 -0.49019585734E+01  0.87165852774E+01  0.13556918968E+02  0.16846308465E+02  0.51100000000E-03 0.  1.
<mgrwt>
<rscale>  0 0.20001775E+02</rscale>
<asrwt>0</asrwt>
<pdfrwt beam="1">  1        3 0.47239146E-02 0.20001775E+02</pdfrwt>
<pdfrwt beam="2">  1       -3 0.50112759E-03 0.20001775E+02</pdfrwt>
<totfact> 0.17036558E+06</totfact>
</mgrwt>
</event>
<event>
 5    1  0.4133473E-007  0.2000044E+02  0.7818608E-02  0.1745319E+00
         -3   -1    0    0    0  501 -0.00000000000E+00  0.00000000000E+00  0.45077362601E+01  0.45086955088E+01  0.93000000000E-01 0. -1.
          3   -1    0    0  501    0  0.00000000000E+00 -0.00000000000E+00 -0.22181637610E+02  0.22181832568E+02  0.93000000000E-01 0.  1.
       1023    2    1    2    0    0  0.00000000000E+00  0.00000000000E+00 -0.17673901350E+02  0.26690528076E+02  0.20000437497E+02 0.  0.
        -11    1    3    3    0    0  0.31060559881E+01 -0.95055970518E+01 -0.88641575503E+01  0.13363279854E+02  0.51100000000E-03 0. -1.
         11    1    3    3    0    0 -0.31060559881E+01  0.95055970518E+01 -0.88097437996E+01  0.13327248223E+02  0.51100000000E-03 0.  1.
<mgrwt>
<rscale>  0 0.20000437E+02</rscale>
<asrwt>0</asrwt>
<pdfrwt beam="2">  1        3 0.34126484E-02 0.20000437E+02</pdfrwt>
<pdfrwt beam="1">  1       -3 0.69358668E-03 0.20000437E+02</pdfrwt>
<totfact> 0.17462331E+06</totfact>
</mgrwt>
</event>
<event>
 4    1  0.4133473E-007  0.2009363E+02  0.7818608E-02  0.1743473E+00
          3   -1    0    0  501    0  0.00000000000E+00  0.00000000000E+00  0.42740439076E+01  0.42750555931E+01  0.93000000000E-01 0.  1.
         -3   -1    0    0    0  501 -0.00000000000E+00 -0.00000000000E+00 -0.23612718986E+02  0.23612902128E+02  0.93000000000E-01 0. -1.
        -11    1    1    2    0    0 -0.80224634507E+01  0.60144054626E+01 -0.87855762022E+01  0.13331141825E+02  0.51100000000E-03 0.  1.
         11    1    1    2    0    0  0.80224634507E+01 -0.60144054626E+01 -0.10553098876E+02  0.14556815896E+02  0.51100000000E-03 0. -1.
<mgrwt>
<rscale>  0 0.20093627E+02</rscale>
<asrwt>0</asrwt>
<pdfrwt beam="1">  1        3 0.65763714E-03 0.20093627E+02</pdfrwt>
<pdfrwt beam="2">  1       -3 0.36328178E-02 0.20093627E+02</pdfrwt>
<totfact> 0.17218634E+06</totfact>
</mgrwt>
</event>
<event>
 5    1  0.4133473E-007  0.2000219E+02  0.7818608E-02  0.1745285E+00
         -3   -1    0    0    0  501 -0.00000000000E+00  0.00000000000E+00  0.98215808306E+02  0.98215852336E+02  0.93000000000E-01 0.  1.
          3   -1    0    0  501    0  0.00000000000E+00 -0.00000000000E+00 -0.10162211787E+01  0.10204677771E+01  0.93000000000E-01 0. -1.
       1023    2    1    2    0    0  0.00000000000E+00  0.00000000000E+00  0.97199587127E+02  0.99236320113E+02  0.20002187180E+02 0.  0.
        -11    1    3    3    0    0  0.34359028438E+01  0.93916971979E+01  0.49153773116E+02  0.50160769695E+02  0.51100000000E-03 0. -1.
         11    1    3    3    0    0 -0.34359028438E+01 -0.93916971979E+01  0.48045814011E+02  0.49075550418E+02  0.51100000000E-03 0.  1.
<mgrwt>
<rscale>  0 0.20002187E+02</rscale>
<asrwt>0</asrwt>
<pdfrwt beam="2">  1        3 0.15667180E-03 0.20002187E+02</pdfrwt>
<pdfrwt beam="1">  1       -3 0.15110451E-01 0.20002187E+02</pdfrwt>
<totfact> 0.14204029E+06</totfact>
</mgrwt>
</event>
<event>
 4    1  0.4133473E-007  0.2001807E+02  0.7818608E-02  0.1744969E+00
         -3   -1    0    0    0  501 -0.00000000000E+00  0.00000000000E+00  0.29572000775E+02  0.29572147011E+02  0.93000000000E-01 0. -1.
          3   -1    0    0  501    0  0.00000000000E+00 -0.00000000000E+00 -0.33868984625E+01  0.33881750538E+01  0.93000000000E-01 0.  1.
        -11    1    1    2    0    0  0.48411574250E+01 -0.87527303081E+01  0.12490456172E+02  0.16001830792E+02  0.51100000000E-03 0.  1.
         11    1    1    2    0    0 -0.48411574250E+01  0.87527303081E+01  0.13694646141E+02  0.16958491273E+02  0.51100000000E-03 0. -1.
<mgrwt>
<rscale>  0 0.20018073E+02</rscale>
<asrwt>0</asrwt>
<pdfrwt beam="2">  1        3 0.52117076E-03 0.20018073E+02</pdfrwt>
<pdfrwt beam="1">  1       -3 0.45496480E-02 0.20018073E+02</pdfrwt>
<totfact> 0.17064935E+06</totfact>
</mgrwt>
</event>
<event>
 5    1  0.4133473E-007  0.2000043E+02  0.7818608E-02  0.1745320E+00
         -3   -1    0    0    0  501 -0.00000000000E+00  0.00000000000E+00  0.86117787474E+00  0.86618492942E+00  0.93000000000E-01 0.  1.
          3   -1    0    0  501    0  0.00000000000E+00 -0.00000000000E+00 -0.11578335569E+03  0.11578339304E+03  0.93000000000E-01 0. -1.
       1023    2    1    2    0    0  0.00000000000E+00  0.00000000000E+00 -0.11492217782E+03  0.11664957797E+03  0.20000427161E+02 0.  0.
        -11    1    3    3    0    0 -0.82265586955E+01  0.56855973912E+01 -0.57201190293E+02  0.58068739067E+02  0.51100000000E-03 0. -1.
         11    1    3    3    0    0  0.82265586955E+01 -0.56855973912E+01 -0.57720987524E+02  0.58580838903E+02  0.51100000000E-03 0.  1.
<mgrwt>
<rscale>  0 0.20000427E+02</rscale>
<asrwt>0</asrwt>
<pdfrwt beam="2">  1        3 0.17813200E-01 0.20000427E+02</pdfrwt>
<pdfrwt beam="1">  1       -3 0.13287703E-03 0.20000427E+02</pdfrwt>
<totfact> 0.13625813E+06</totfact>
</mgrwt>
</event>
<event>
 5    1  0.4133473E-007  0.2000315E+02  0.7818608E-02  0.1745266E+00
         -3   -1    0    0    0  501 -0.00000000000E+00  0.00000000000E+00  0.15235296611E+01  0.15263654963E+01  0.93000000000E-01 0.  1.
          3   -1    0    0  501    0  0.00000000000E+00 -0.00000000000E+00 -0.65593789674E+02  0.65593855602E+02  0.93000000000E-01 0. -1.
       1023    2    1    2    0    0  0.00000000000E+00  0.00000000000E+00 -0.64070260012E+02  0.67120221098E+02  0.20003146308E+02 0.  0.
        -11    1    3    3    0    0  0.98447016329E+01 -0.17640505550E+01 -0.31907767678E+02  0.33438535600E+02  0.51100000000E-03 0.  1.
         11    1    3    3    0    0 -0.98447016329E+01  0.17640505550E+01 -0.32162492334E+02  0.33681685498E+02  0.51100000000E-03 0. -1.
<mgrwt>
<rscale>  0 0.20003146E+02</rscale>
<asrwt>0</asrwt>
<pdfrwt beam="2">  1        3 0.10091573E-01 0.20003146E+02</pdfrwt>
<pdfrwt beam="1">  1       -3 0.23461244E-03 0.20003146E+02</pdfrwt>
<totfact> 0.15428693E+06</totfact>
</mgrwt>
</event>
<event>
 5    1  0.4133473E-007  0.2000015E+02  0.7818608E-02  0.1745325E+00
          3   -1    0    0  501    0  0.00000000000E+00  0.00000000000E+00  0.32208447244E+01  0.32221871049E+01  0.93000000000E-01 0. -1.
         -3   -1    0    0    0  501 -0.00000000000E+00 -0.00000000000E+00 -0.31040344600E+02  0.31040483919E+02  0.93000000000E-01 0.  1.
       1023    2    1    2    0    0  0.00000000000E+00  0.00000000000E+00 -0.27819499876E+02  0.34262671023E+02  0.20000151308E+02 0.  0.
        -11    1    3    3    0    0 -0.62185218098E+01  0.78313884088E+01 -0.13859660214E+02  0.17090665271E+02  0.51100000000E-03 0.  1.
         11    1    3    3    0    0  0.62185218098E+01 -0.78313884088E+01 -0.13959839662E+02  0.17172005752E+02  0.51100000000E-03 0. -1.
<mgrwt>
<rscale>  0 0.20000151E+02</rscale>
<asrwt>0</asrwt>
<pdfrwt beam="1">  1        3 0.49562857E-03 0.20000151E+02</pdfrwt>
<pdfrwt beam="2">  1       -3 0.47755514E-02 0.20000151E+02</pdfrwt>
<totfact> 0.17024723E+06</totfact>
</mgrwt>
</event>
<event>
 5    1  0.4133473E-007  0.2000805E+02  0.7818608E-02  0.1745168E+00
         -3   -1    0    0    0  501 -0.00000000000E+00  0.00000000000E+00  0.56221951172E+01  0.56229642482E+01  0.93000000000E-01 0.  1.
          3   -1    0    0  501    0  0.00000000000E+00 -0.00000000000E+00 -0.17798853951E+02  0.17799096914E+02  0.93000000000E-01 0. -1.
       1023    2    1    2    0    0  0.00000000000E+00  0.00000000000E+00 -0.12176658834E+02  0.23422061162E+02  0.20008046600E+02 0.  0.
        -11    1    3    3    0    0 -0.18372162549E+01 -0.98338178683E+01 -0.60487265444E+01  0.11690441844E+02  0.51100000000E-03 0. -1.
         11    1    3    3    0    0  0.18372162549E+01  0.98338178683E+01 -0.61279322892E+01  0.11731619319E+02  0.51100000000E-03 0.  1.
<mgrwt>
<rscale>  0 0.20008047E+02</rscale>
<asrwt>0</asrwt>
<pdfrwt beam="2">  1        3 0.27383630E-02 0.20008047E+02</pdfrwt>
<pdfrwt beam="1">  1       -3 0.86503096E-03 0.20008047E+02</pdfrwt>
<totfact> 0.17649768E+06</totfact>
</mgrwt>
</event>
<event>
 5    1  0.4133473E-007  0.2000063E+02  0.7818608E-02  0.1745316E+00
          3   -1    0    0  501    0  0.00000000000E+00  0.00000000000E+00  0.85420225480E+01  0.85425287948E+01  0.93000000000E-01 0.  1.
         -3   -1    0    0    0  501 -0.00000000000E+00 -0.00000000000E+00 -0.11706531810E+02  0.11706901214E+02  0.93000000000E-01 0. -1.
       1023    2    1    2    0    0  0.00000000000E+00  0.00000000000E+00 -0.31645092623E+01  0.20249430008E+02  0.20000632410E+02 0.  0.
        -11    1    3    3    0    0 -0.99250765180E+01 -0.12242395024E+01 -0.15615629305E+01  0.10121481378E+02  0.51100000000E-03 0. -1.
         11    1    3    3    0    0  0.99250765180E+01  0.12242395024E+01 -0.16029463318E+01  0.10127948630E+02  0.51100000000E-03 0.  1.
<mgrwt>
<rscale>  0 0.20000632E+02</rscale>
<asrwt>0</asrwt>
<pdfrwt beam="1">  1        3 0.13142247E-02 0.20000632E+02</pdfrwt>
<pdfrwt beam="2">  1       -3 0.18010722E-02 0.20000632E+02</pdfrwt>
<totfact> 0.17868222E+06</totfact>
</mgrwt>
</event>
<event>
 4    1  0.4133473E-007  0.2018020E+02  0.7818608E-02  0.1741768E+00
         -3   -1    0    0    0  501 -0.00000000000E+00  0.00000000000E+00  0.39909890360E+01  0.39920724550E+01  0.93000000000E-01 0.  1.
          3   -1    0    0  501    0  0.00000000000E+00 -0.00000000000E+00 -0.25505368348E+02  0.25505537900E+02  0.93000000000E-01 0. -1.
        -11    1    1    2    0    0  0.81142974112E+01 -0.59868864570E+01 -0.11274999794E+02  0.15126475219E+02  0.51100000000E-03 0. -1.
         11    1    1    2    0    0 -0.81142974112E+01  0.59868864570E+01 -0.10239379518E+02  0.14371135136E+02  0.51100000000E-03 0.  1.
<mgrwt>
<rscale>  0 0.20180201E+02</rscale>
<asrwt>0</asrwt>
<pdfrwt beam="2">  1        3 0.39239991E-02 0.20180201E+02</pdfrwt>
<pdfrwt beam="1">  1       -3 0.61409471E-03 0.20180201E+02</pdfrwt>
<totfact> 0.16964916E+06</totfact>
</mgrwt>
</event>
<event>
 5    1  0.4133473E-007  0.2000071E+02  0.7818608E-02  0.1745314E+00
         -3   -1    0    0    0  501 -0.00000000000E+00  0.00000000000E+00  0.46869651053E+02  0.46869743319E+02  0.93000000000E-01 0. -1.
          3   -1    0    0  501    0  0.00000000000E+00 -0.00000000000E+00 -0.21326215402E+01  0.21346483630E+01  0.93000000000E-01 0.  1.
       1023    2    1    2    0    0  0.00000000000E+00  0.00000000000E+00  0.44737029513E+02  0.49004391682E+02  0.20000714851E+02 0.  0.
        -11    1    3    3    0    0  0.49028215297E+01  0.87160231430E+01  0.22419321273E+02  0.24548578065E+02  0.51100000000E-03 0.  1.
         11    1    3    3    0    0 -0.49028215297E+01 -0.87160231430E+01  0.22317708239E+02  0.24455813617E+02  0.51100000000E-03 0. -1.
<mgrwt>
<rscale>  0 0.20000715E+02</rscale>
<asrwt>0</asrwt>
<pdfrwt beam="2">  1        3 0.32825864E-03 0.20000715E+02</pdfrwt>
<pdfrwt beam="1">  1       -3 0.72108783E-02 0.20000715E+02</pdfrwt>
<totfact> 0.16256754E+06</totfact>
</mgrwt>
</event>
<event>
 4    1  0.4133473E-007  0.2001334E+02  0.7818608E-02  0.1745063E+00
         -3   -1    0    0    0  501 -0.00000000000E+00  0.00000000000E+00  0.11300500220E+01  0.11338703860E+01  0.93000000000E-01 0. -1.
          3   -1    0    0  501    0  0.00000000000E+00 -0.00000000000E+00 -0.88456369377E+02  0.88456418265E+02  0.93000000000E-01 0.  1.
        -11    1    1    2    0    0  0.60591588810E+01 -0.79636266468E+01 -0.43780421389E+02  0.44909442804E+02  0.51100000000E-03 0. -1.
         11    1    1    2    0    0 -0.60591588810E+01  0.79636266468E+01 -0.43545897965E+02  0.44680845847E+02  0.51100000000E-03 0.  1.
<mgrwt>
<rscale>  0 0.20013340E+02</rscale>
<asrwt>0</asrwt>
<pdfrwt beam="2">  1        3 0.13608964E-01 0.20013340E+02</pdfrwt>
<pdfrwt beam="1">  1       -3 0.17415155E-03 0.20013340E+02</pdfrwt>
<totfact> 0.14528346E+06</totfact>
</mgrwt>
</event>
<event>
 5    1  0.4272652E-007  0.2000134E+02  0.7818608E-02  0.1745301E+00
          3   -1    0    0  501    0  0.00000000000E+00  0.00000000000E+00  0.46497032484E+01  0.46506332148E+01  0.93000000000E-01 0. -1.
         -3   -1    0    0    0  501 -0.00000000000E+00 -0.00000000000E+00 -0.21506459581E+02  0.21506660659E+02  0.93000000000E-01 0.  1.
       1023    2    1    2    0    0  0.00000000000E+00  0.00000000000E+00 -0.16856756333E+02  0.26157293874E+02  0.20001344674E+02 0.  0.
        -11    1    3    3    0    0  0.94610422891E+01  0.32386989726E+01 -0.85772276220E+01  0.13174571195E+02  0.51100000000E-03 0. -1.
         11    1    3    3    0    0 -0.94610422891E+01 -0.32386989726E+01 -0.82795287107E+01  0.12982722679E+02  0.51100000000E-03 0.  1.
<mgrwt>
<rscale>  0 0.20001345E+02</rscale>
<asrwt>0</asrwt>
<pdfrwt beam="1">  1        3 0.71542597E-03 0.20001345E+02</pdfrwt>
<pdfrwt beam="2">  1       -3 0.33087730E-02 0.20001345E+02</pdfrwt>
<totfact> 0.17494364E+06</totfact>
</mgrwt>
</event>
<event>
 5    1  0.4181515E-007  0.2000078E+02  0.7818608E-02  0.1745312E+00
         -3   -1    0    0    0  501 -0.00000000000E+00  0.00000000000E+00  0.15630030122E+02  0.15630306798E+02  0.93000000000E-01 0. -1.
          3   -1    0    0  501    0  0.00000000000E+00 -0.00000000000E+00 -0.63977709693E+01  0.63984468722E+01  0.93000000000E-01 0.  1.
       1023    2    1    2    0    0  0.00000000000E+00  0.00000000000E+00  0.92322591522E+01  0.22028753670E+02  0.20000784465E+02 0.  0.
        -11    1    3    3    0    0  0.79823830264E+01  0.60238993413E+01  0.45663532898E+01  0.10993515574E+02  0.51100000000E-03 0.  1.
         11    1    3    3    0    0 -0.79823830264E+01 -0.60238993413E+01  0.46659058624E+01  0.11035238096E+02  0.51100000000E-03 0. -1.
<mgrwt>
<rscale>  0 0.20000784E+02</rscale>
<asrwt>0</asrwt>
<pdfrwt beam="2">  1        3 0.98434575E-03 0.20000784E+02</pdfrwt>
<pdfrwt beam="1">  1       -3 0.24046932E-02 0.20000784E+02</pdfrwt>
<totfact> 0.17752896E+06</totfact>
</mgrwt>
</event>
<event>
 5    1  0.4357811E-007  0.2000134E+02  0.7818608E-02  0.1745301E+00
          3   -1    0    0  501    0  0.00000000000E+00  0.00000000000E+00  0.61049036869E+01  0.61056120108E+01  0.93000000000E-01 0.  1.
         -3   -1    0    0    0  501 -0.00000000000E+00 -0.00000000000E+00 -0.16380684458E+02  0.16380948456E+02  0.93000000000E-01 0. -1.
       1023    2    1    2    0    0  0.00000000000E+00  0.00000000000E+00 -0.10275780771E+02  0.22486560467E+02  0.20001343234E+02 0.  0.
        -11    1    3    3    0    0  0.98194410261E+01 -0.18942645543E+01 -0.50688402173E+01  0.11211726079E+02  0.51100000000E-03 0.  1.
         11    1    3    3    0    0 -0.98194410261E+01  0.18942645543E+01 -0.52069405537E+01  0.11274834387E+02  0.51100000000E-03 0. -1.
<mgrwt>
<rscale>  0 0.20001343E+02</rscale>
<asrwt>0</asrwt>
<pdfrwt beam="1">  1        3 0.93929075E-03 0.20001343E+02</pdfrwt>
<pdfrwt beam="2">  1       -3 0.25201801E-02 0.20001343E+02</pdfrwt>
<totfact> 0.17722656E+06</totfact>
</mgrwt>
</event>
<event>
 5    1  0.4133473E-007  0.2000050E+02  0.7818608E-02  0.1745318E+00
         -3   -1    0    0    0  501 -0.00000000000E+00  0.00000000000E+00  0.48970536345E+01  0.48979366369E+01  0.93000000000E-01 0.  1.
          3   -1    0    0  501    0  0.00000000000E+00 -0.00000000000E+00 -0.20418641269E+02  0.20418853060E+02  0.93000000000E-01 0. -1.
       1023    2    1    2    0    0  0.00000000000E+00  0.00000000000E+00 -0.15521587635E+02  0.25316789697E+02  0.20000503940E+02 0.  0.
        -11    1    3    3    0    0  0.77040363139E+01 -0.63758989658E+01 -0.77255312814E+01  0.12636775577E+02  0.51100000000E-03 0. -1.
         11    1    3    3    0    0 -0.77040363139E+01  0.63758989658E+01 -0.77960563536E+01  0.12680014120E+02  0.51100000000E-03 0.  1.
<mgrwt>
<rscale>  0 0.20000504E+02</rscale>
<asrwt>0</asrwt>
<pdfrwt beam="2">  1        3 0.31414136E-02 0.20000504E+02</pdfrwt>
<pdfrwt beam="1">  1       -3 0.75347709E-03 0.20000504E+02</pdfrwt>
<totfact> 0.17546103E+06</totfact>
</mgrwt>
</event>
<event>
 5    1  0.4133473E-007  0.2000134E+02  0.7818608E-02  0.1745301E+00
         -3   -1    0    0    0  501 -0.00000000000E+00  0.00000000000E+00  0.36170569146E+02  0.36170688704E+02  0.93000000000E-01 0. -1.
          3   -1    0    0  501    0  0.00000000000E+00 -0.00000000000E+00 -0.27641442919E+01  0.27657083481E+01  0.93000000000E-01 0.  1.
       1023    2    1    2    0    0  0.00000000000E+00  0.00000000000E+00  0.33406424854E+02  0.38936397052E+02  0.20001344802E+02 0.  0.
        -11    1    3    3    0    0 -0.98642220326E+01  0.16460975920E+01  0.16762725770E+02  0.19519259440E+02  0.51100000000E-03 0. -1.
         11    1    3    3    0    0  0.98642220326E+01 -0.16460975920E+01  0.16643699084E+02  0.19417137612E+02  0.51100000000E-03 0.  1.
<mgrwt>
<rscale>  0 0.20001345E+02</rscale>
<asrwt>0</asrwt>
<pdfrwt beam="2">  1        3 0.42538249E-03 0.20001345E+02</pdfrwt>
<pdfrwt beam="1">  1       -3 0.55648323E-02 0.20001345E+02</pdfrwt>
<totfact> 0.16767974E+06</totfact>
</mgrwt>
</event>
<event>
 5    1  0.4133473E-007  0.2000256E+02  0.7818608E-02  0.1745277E+00
          3   -1    0    0  501    0  0.00000000000E+00  0.00000000000E+00  0.32977153877E+01  0.32990264895E+01  0.93000000000E-01 0. -1.
         -3   -1    0    0    0  501 -0.00000000000E+00 -0.00000000000E+00 -0.30324364179E+02  0.30324506787E+02  0.93000000000E-01 0.  1.
       1023    2    1    2    0    0  0.00000000000E+00  0.00000000000E+00 -0.27026648792E+02  0.33623533277E+02  0.20002555964E+02 0.  0.
        -11    1    3    3    0    0  0.65602328431E+01  0.75477954515E+01 -0.13749198020E+02  0.17001362227E+02  0.51100000000E-03 0. -1.
         11    1    3    3    0    0 -0.65602328431E+01 -0.75477954515E+01 -0.13277450772E+02  0.16622171049E+02  0.51100000000E-03 0.  1.
<mgrwt>
<rscale>  0 0.20002556E+02</rscale>
<asrwt>0</asrwt>
<pdfrwt beam="1">  1        3 0.50745267E-03 0.20002556E+02</pdfrwt>
<pdfrwt beam="2">  1       -3 0.46653984E-02 0.20002556E+02</pdfrwt>
<totfact> 0.17056070E+06</totfact>
</mgrwt>
</event>
<event>
 4    1  0.4133473E-007  0.2001807E+02  0.7818608E-02  0.1744969E+00
          3   -1    0    0  501    0  0.00000000000E+00  0.00000000000E+00  0.73409996648E+01  0.73415887299E+01  0.93000000000E-01 0. -1.
         -3   -1    0    0    0  501 -0.00000000000E+00 -0.00000000000E+00 -0.13645459248E+02  0.13645776163E+02  0.93000000000E-01 0.  1.
        -11    1    1    2    0    0  0.99804135212E+01 -0.74399136029E+00 -0.30090860947E+01  0.10450683068E+02  0.51100000000E-03 0. -1.
         11    1    1    2    0    0 -0.99804135212E+01  0.74399136029E+00 -0.32953734889E+01  0.10536681825E+02  0.51100000000E-03 0.  1.
<mgrwt>
<rscale>  0 0.20018074E+02</rscale>
<asrwt>0</asrwt>
<pdfrwt beam="1">  1        3 0.11294543E-02 0.20018074E+02</pdfrwt>
<pdfrwt beam="2">  1       -3 0.20993711E-02 0.20018074E+02</pdfrwt>
<totfact> 0.17786797E+06</totfact>
</mgrwt>
</event>
<event>
 5    1  0.4133473E-007  0.2000552E+02  0.7818608E-02  0.1745218E+00
          3   -1    0    0  501    0  0.00000000000E+00  0.00000000000E+00  0.45077093044E+02  0.45077188979E+02  0.93000000000E-01 0. -1.
         -3   -1    0    0    0  501 -0.00000000000E+00 -0.00000000000E+00 -0.22185736114E+01  0.22205219812E+01  0.93000000000E-01 0.  1.
       1023    2    1    2    0    0  0.00000000000E+00  0.00000000000E+00  0.42858519432E+02  0.47297710960E+02  0.20005518593E+02 0.  0.
        -11    1    3    3    0    0  0.98507542365E+01  0.17257797409E+01  0.21899252027E+02  0.24074736018E+02  0.51100000000E-03 0. -1.
         11    1    3    3    0    0 -0.98507542365E+01 -0.17257797409E+01  0.20959267406E+02  0.23222974943E+02  0.51100000000E-03 0.  1.
<mgrwt>
<rscale>  0 0.20005519E+02</rscale>
<asrwt>0</asrwt>
<pdfrwt beam="1">  1        3 0.69350938E-02 0.20005519E+02</pdfrwt>
<pdfrwt beam="2">  1       -3 0.34147631E-03 0.20005519E+02</pdfrwt>
<totfact> 0.16329506E+06</totfact>
</mgrwt>
</event>
<event>
 5    1  0.4133473E-007  0.2000143E+02  0.7818608E-02  0.1745300E+00
         -3   -1    0    0    0  501 -0.00000000000E+00  0.00000000000E+00  0.69831939864E+02  0.69832001792E+02  0.93000000000E-01 0.  1.
          3   -1    0    0  501    0  0.00000000000E+00 -0.00000000000E+00 -0.14306411993E+01  0.14336607831E+01  0.93000000000E-01 0. -1.
       1023    2    1    2    0    0  0.00000000000E+00  0.00000000000E+00  0.68401298665E+02  0.71265662575E+02  0.20001425028E+02 0.  0.
        -11    1    3    3    0    0 -0.99234016614E+01 -0.12401241411E+01  0.34376725896E+02  0.35801830847E+02  0.51100000000E-03 0.  1.
         11    1    3    3    0    0  0.99234016614E+01  0.12401241411E+01  0.34024572769E+02  0.35463831728E+02  0.51100000000E-03 0. -1.
<mgrwt>
<rscale>  0 0.20001425E+02</rscale>
<asrwt>0</asrwt>
<pdfrwt beam="2">  1        3 0.22033567E-03 0.20001425E+02</pdfrwt>
<pdfrwt beam="1">  1       -3 0.10743613E-01 0.20001425E+02</pdfrwt>
<totfact> 0.15261271E+06</totfact>
</mgrwt>
</event>
<event>
 5    1  0.4133473E-007  0.2000119E+02  0.7818608E-02  0.1745305E+00
         -3   -1    0    0    0  501 -0.00000000000E+00  0.00000000000E+00  0.10106035361E+01  0.10148736409E+01  0.93000000000E-01 0. -1.
          3   -1    0    0  501    0  0.00000000000E+00 -0.00000000000E+00 -0.98749579482E+02  0.98749623275E+02  0.93000000000E-01 0.  1.
       1023    2    1    2    0    0  0.00000000000E+00  0.00000000000E+00 -0.97738975946E+02  0.99764496916E+02  0.20001185611E+02 0.  0.
        -11    1    3    3    0    0  0.97728206369E+01 -0.21222225479E+01 -0.48880019173E+02  0.49892565843E+02  0.51100000000E-03 0. -1.
         11    1    3    3    0    0 -0.97728206369E+01  0.21222225479E+01 -0.48858956773E+02  0.49871931073E+02  0.51100000000E-03 0.  1.
<mgrwt>
<rscale>  0 0.20001186E+02</rscale>
<asrwt>0</asrwt>
<pdfrwt beam="2">  1        3 0.15192567E-01 0.20001186E+02</pdfrwt>
<pdfrwt beam="1">  1       -3 0.15580938E-03 0.20001186E+02</pdfrwt>
<totfact> 0.14184381E+06</totfact>
</mgrwt>
</event>
<event>
 5    1  0.4133473E-007  0.2000414E+02  0.7818608E-02  0.1745246E+00
          3   -1    0    0  501    0  0.00000000000E+00  0.00000000000E+00  0.32939890761E+02  0.32940022046E+02  0.93000000000E-01 0. -1.
         -3   -1    0    0    0  501 -0.00000000000E+00 -0.00000000000E+00 -0.30362402924E+01  0.30376642529E+01  0.93000000000E-01 0.  1.
       1023    2    1    2    0    0  0.00000000000E+00  0.00000000000E+00  0.29903650469E+02  0.35977686298E+02  0.20004139572E+02 0.  0.
        -11    1    3    3    0    0 -0.23370219020E+01 -0.97249001790E+01  0.15091657504E+02  0.18105067836E+02  0.51100000000E-03 0. -1.
         11    1    3    3    0    0  0.23370219020E+01  0.97249001790E+01  0.14811992964E+02  0.17872618462E+02  0.51100000000E-03 0.  1.
<mgrwt>
<rscale>  0 0.20004140E+02</rscale>
<asrwt>0</asrwt>
<pdfrwt beam="1">  1        3 0.50677950E-02 0.20004140E+02</pdfrwt>
<pdfrwt beam="2">  1       -3 0.46723354E-03 0.20004140E+02</pdfrwt>
<totfact> 0.16920644E+06</totfact>
</mgrwt>
</event>
<event>
 4    1  0.4133473E-007  0.2012427E+02  0.7818608E-02  0.1742868E+00
          3   -1    0    0  501    0  0.00000000000E+00  0.00000000000E+00  0.10866972762E+02  0.10867370704E+02  0.93000000000E-01 0. -1.
         -3   -1    0    0    0  501 -0.00000000000E+00 -0.00000000000E+00 -0.93161063448E+01  0.93165705293E+01  0.93000000000E-01 0.  1.
        -11    1    1    2    0    0 -0.96573016809E+01  0.27959251043E+01  0.36691597145E+00  0.10060581521E+02  0.51100000000E-03 0. -1.
         11    1    1    2    0    0  0.96573016809E+01 -0.27959251043E+01  0.11839504458E+01  0.10123359712E+02  0.51100000000E-03 0.  1.
<mgrwt>
<rscale>  0 0.20124271E+02</rscale>
<asrwt>0</asrwt>
<pdfrwt beam="1">  1        3 0.16719083E-02 0.20124271E+02</pdfrwt>
<pdfrwt beam="2">  1       -3 0.14333134E-02 0.20124271E+02</pdfrwt>
<totfact> 0.17636391E+06</totfact>
</mgrwt>
</event>
<event>
 5    1  0.4133473E-007  0.2000038E+02  0.7818608E-02  0.1745320E+00
         -3   -1    0    0    0  501 -0.00000000000E+00  0.00000000000E+00  0.84185974685E+01  0.84191111370E+01  0.93000000000E-01 0. -1.
          3   -1    0    0  501    0  0.00000000000E+00 -0.00000000000E+00 -0.11877861180E+02  0.11878225255E+02  0.93000000000E-01 0.  1.
       1023    2    1    2    0    0  0.00000000000E+00  0.00000000000E+00 -0.34592637112E+01  0.20297336392E+02  0.20000383976E+02 0.  0.
        -11    1    3    3    0    0 -0.97916831472E+01 -0.20306497806E+01 -0.16718465982E+01  0.10138819887E+02  0.51100000000E-03 0.  1.
         11    1    3    3    0    0  0.97916831472E+01  0.20306497806E+01 -0.17874171130E+01  0.10158516505E+02  0.51100000000E-03 0. -1.
<mgrwt>
<rscale>  0 0.20000384E+02</rscale>
<asrwt>0</asrwt>
<pdfrwt beam="2">  1        3 0.18274308E-02 0.20000384E+02</pdfrwt>
<pdfrwt beam="1">  1       -3 0.12952364E-02 0.20000384E+02</pdfrwt>
<totfact> 0.17865267E+06</totfact>
</mgrwt>
</event>
<event>
 5    1  0.4133473E-007  0.2000183E+02  0.7818608E-02  0.1745292E+00
          3   -1    0    0  501    0  0.00000000000E+00  0.00000000000E+00  0.22158748817E+02  0.22158943976E+02  0.93000000000E-01 0.  1.
         -3   -1    0    0    0  501 -0.00000000000E+00 -0.00000000000E+00 -0.45130212652E+01  0.45139793908E+01  0.93000000000E-01 0. -1.
       1023    2    1    2    0    0  0.00000000000E+00  0.00000000000E+00  0.17645727551E+02  0.26672923366E+02  0.20001828419E+02 0.  0.
        -11    1    3    3    0    0 -0.95206950940E+01 -0.30602095019E+01  0.89546568230E+01  0.13423650634E+02  0.51100000000E-03 0.  1.
         11    1    3    3    0    0  0.95206950940E+01  0.30602095019E+01  0.86910707284E+01  0.13249272732E+02  0.51100000000E-03 0. -1.
<mgrwt>
<rscale>  0 0.20001828E+02</rscale>
<asrwt>0</asrwt>
<pdfrwt beam="1">  1        3 0.34091270E-02 0.20001828E+02</pdfrwt>
<pdfrwt beam="2">  1       -3 0.69439969E-03 0.20001828E+02</pdfrwt>
<totfact> 0.17460783E+06</totfact>
</mgrwt>
</event>
<event>
 5    1  0.4133473E-007  0.2000031E+02  0.7818608E-02  0.1745322E+00
          3   -1    0    0  501    0  0.00000000000E+00  0.00000000000E+00  0.74956446086E+01  0.74962215214E+01  0.93000000000E-01 0.  1.
         -3   -1    0    0    0  501 -0.00000000000E+00 -0.00000000000E+00 -0.13340248476E+02  0.13340572641E+02  0.93000000000E-01 0. -1.
       1023    2    1    2    0    0  0.00000000000E+00  0.00000000000E+00 -0.58446038671E+01  0.20836794163E+02  0.20000314913E+02 0.  0.
        -11    1    3    3    0    0 -0.50760712908E+01 -0.86159327283E+01 -0.29728315791E+01  0.10432570363E+02  0.51100000000E-03 0. -1.
         11    1    3    3    0    0  0.50760712908E+01  0.86159327283E+01 -0.28717722880E+01  0.10404223799E+02  0.51100000000E-03 0.  1.
<mgrwt>
<rscale>  0 0.20000315E+02</rscale>
<asrwt>0</asrwt>
<pdfrwt beam="1">  1        3 0.11532454E-02 0.20000315E+02</pdfrwt>
<pdfrwt beam="2">  1       -3 0.20524152E-02 0.20000315E+02</pdfrwt>
<totfact> 0.17830637E+06</totfact>
</mgrwt>
</event>
<event>
 5    1  0.4194713E-007  0.2000076E+02  0.7818608E-02  0.1745313E+00
          3   -1    0    0  501    0  0.00000000000E+00  0.00000000000E+00  0.36316136703E+01  0.36328042681E+01  0.93000000000E-01 0. -1.
         -3   -1    0    0    0  501 -0.00000000000E+00 -0.00000000000E+00 -0.27532279019E+02  0.27532436088E+02  0.93000000000E-01 0.  1.
       1023    2    1    2    0    0  0.00000000000E+00  0.00000000000E+00 -0.23900665348E+02  0.31165240356E+02  0.20000760045E+02 0.  0.
        -11    1    3    3    0    0 -0.24616241454E+01  0.96923750646E+01 -0.12069741344E+02  0.15674194850E+02  0.51100000000E-03 0. -1.
         11    1    3    3    0    0  0.24616241454E+01 -0.96923750646E+01 -0.11830924004E+02  0.15491045506E+02  0.51100000000E-03 0.  1.
<mgrwt>
<rscale>  0 0.20000760E+02</rscale>
<asrwt>0</asrwt>
<pdfrwt beam="1">  1        3 0.55881348E-03 0.20000760E+02</pdfrwt>
<pdfrwt beam="2">  1       -3 0.42358388E-02 0.20000760E+02</pdfrwt>
<totfact> 0.17199210E+06</totfact>
</mgrwt>
</event>
<event>
 5    1  0.4133473E-007  0.2000080E+02  0.7818608E-02  0.1745312E+00
          3   -1    0    0  501    0  0.00000000000E+00  0.00000000000E+00  0.17049703071E+01  0.17075048311E+01  0.93000000000E-01 0.  1.
         -3   -1    0    0    0  501 -0.00000000000E+00 -0.00000000000E+00 -0.58610578936E+02  0.58610652720E+02  0.93000000000E-01 0. -1.
       1023    2    1    2    0    0  0.00000000000E+00  0.00000000000E+00 -0.56905608629E+02  0.60318157551E+02  0.20000795906E+02 0.  0.
        -11    1    3    3    0    0 -0.90502941506E+01  0.42535941146E+01 -0.28706414928E+02  0.30398341162E+02  0.51100000000E-03 0. -1.
         11    1    3    3    0    0  0.90502941506E+01 -0.42535941146E+01 -0.28199193701E+02  0.29919816389E+02  0.51100000000E-03 0.  1.
<mgrwt>
<rscale>  0 0.20000796E+02</rscale>
<asrwt>0</asrwt>
<pdfrwt beam="1">  1        3 0.26250381E-03 0.20000796E+02</pdfrwt>
<pdfrwt beam="2">  1       -3 0.90172112E-02 0.20000796E+02</pdfrwt>
<totfact> 0.15730872E+06</totfact>
</mgrwt>
</event>
<event>
 4    1  0.4133473E-007  0.2002065E+02  0.7818608E-02  0.1744918E+00
         -3   -1    0    0    0  501 -0.00000000000E+00  0.00000000000E+00  0.67016701827E+02  0.67016766356E+02  0.93000000000E-01 0.  1.
          3   -1    0    0  501    0  0.00000000000E+00 -0.00000000000E+00 -0.14937367727E+01  0.14966290610E+01  0.93000000000E-01 0. -1.
        -11    1    1    2    0    0  0.27748643855E+01  0.96135515175E+01  0.31755845312E+02  0.33294953925E+02  0.51100000000E-03 0.  1.
         11    1    1    2    0    0 -0.27748643855E+01 -0.96135515175E+01  0.33767119743E+02  0.35218441492E+02  0.51100000000E-03 0. -1.
<mgrwt>
<rscale>  0 0.20020649E+02</rscale>
<asrwt>0</asrwt>
<pdfrwt beam="2">  1        3 0.23003315E-03 0.20020649E+02</pdfrwt>
<pdfrwt beam="1">  1       -3 0.10310487E-01 0.20020649E+02</pdfrwt>
<totfact> 0.15343961E+06</totfact>
</mgrwt>
</event>
<event>
 5    1  0.4235664E-007  0.2000208E+02  0.7818608E-02  0.1745287E+00
         -3   -1    0    0    0  501 -0.00000000000E+00  0.00000000000E+00  0.37773713754E+02  0.37773828239E+02  0.93000000000E-01 0. -1.
          3   -1    0    0  501    0  0.00000000000E+00 -0.00000000000E+00 -0.26469591280E+01  0.26485923857E+01  0.93000000000E-01 0.  1.
       1023    2    1    2    0    0  0.00000000000E+00  0.00000000000E+00  0.35126754626E+02  0.40422420624E+02  0.20002079855E+02 0.  0.
        -11    1    3    3    0    0  0.56682792822E+01  0.82394398888E+01  0.17451957970E+02  0.20114387810E+02  0.51100000000E-03 0.  1.
         11    1    3    3    0    0 -0.56682792822E+01 -0.82394398888E+01  0.17674796656E+02  0.20308032815E+02  0.51100000000E-03 0. -1.
<mgrwt>
<rscale>  0 0.20002080E+02</rscale>
<asrwt>0</asrwt>
<pdfrwt beam="2">  1        3 0.40735893E-03 0.20002080E+02</pdfrwt>
<pdfrwt beam="1">  1       -3 0.58114750E-02 0.20002080E+02</pdfrwt>
<totfact> 0.16688110E+06</totfact>
</mgrwt>
</event>
<event>
 5    1  0.4133473E-007  0.2000564E+02  0.7818608E-02  0.1745216E+00
         -3   -1    0    0    0  501 -0.00000000000E+00  0.00000000000E+00  0.79258532424E+02  0.79258586986E+02  0.93000000000E-01 0.  1.
          3   -1    0    0  501    0  0.00000000000E+00 -0.00000000000E+00 -0.12606382007E+01  0.12640639513E+01  0.93000000000E-01 0. -1.
       1023    2    1    2    0    0  0.00000000000E+00  0.00000000000E+00  0.77997894223E+02  0.80522650937E+02  0.20005644471E+02 0.  0.
        -11    1    3    3    0    0  0.99833167947E+01  0.60876971421E+00  0.38440681054E+02  0.39720563628E+02  0.51100000000E-03 0.  1.
         11    1    3    3    0    0 -0.99833167947E+01 -0.60876971421E+00  0.39557213169E+02  0.40802087309E+02  0.51100000000E-03 0. -1.
<mgrwt>
<rscale>  0 0.20005644E+02</rscale>
<asrwt>0</asrwt>
<pdfrwt beam="2">  1        3 0.19421205E-03 0.20005644E+02</pdfrwt>
<pdfrwt beam="1">  1       -3 0.12193888E-01 0.20005644E+02</pdfrwt>
<totfact> 0.14885025E+06</totfact>
</mgrwt>
</event>
<event>
 5    1  0.4133473E-007  0.2000048E+02  0.7818608E-02  0.1745319E+00
          3   -1    0    0  501    0  0.00000000000E+00  0.00000000000E+00  0.21025068457E+02  0.21025274139E+02  0.93000000000E-01 0.  1.
         -3   -1    0    0    0  501 -0.00000000000E+00 -0.00000000000E+00 -0.47557716006E+01  0.47566808298E+01  0.93000000000E-01 0. -1.
       1023    2    1    2    0    0  0.00000000000E+00  0.00000000000E+00  0.16269296856E+02  0.25781954969E+02  0.20000479539E+02 0.  0.
        -11    1    3    3    0    0  0.82915835841E+01 -0.55904429998E+01  0.80866936805E+01  0.12860716396E+02  0.51100000000E-03 0.  1.
         11    1    3    3    0    0 -0.82915835841E+01  0.55904429998E+01  0.81826031757E+01  0.12921238573E+02  0.51100000000E-03 0. -1.
<mgrwt>
<rscale>  0 0.20000480E+02</rscale>
<asrwt>0</asrwt>
<pdfrwt beam="1">  1        3 0.32347118E-02 0.20000480E+02</pdfrwt>
<pdfrwt beam="2">  1       -3 0.73174291E-03 0.20000480E+02</pdfrwt>
<totfact> 0.17517577E+06</totfact>
</mgrwt>
</event>
<event>
 5    1  0.4133473E-007  0.2000073E+02  0.7818608E-02  0.1745314E+00
          3   -1    0    0  501    0  0.00000000000E+00  0.00000000000E+00  0.33922795713E+02  0.33922923193E+02  0.93000000000E-01 0. -1.
         -3   -1    0    0    0  501 -0.00000000000E+00 -0.00000000000E+00 -0.29472181384E+01  0.29486850892E+01  0.93000000000E-01 0.  1.
       1023    2    1    2    0    0  0.00000000000E+00  0.00000000000E+00  0.30975577575E+02  0.36871608283E+02  0.20000727268E+02 0.  0.
        -11    1    3    3    0    0  0.89914960273E+01  0.43772179002E+01  0.15459516237E+02  0.18412052571E+02  0.51100000000E-03 0. -1.
         11    1    3    3    0    0 -0.89914960273E+01 -0.43772179002E+01  0.15516061338E+02  0.18459555711E+02  0.51100000000E-03 0.  1.
<mgrwt>
<rscale>  0 0.20000727E+02</rscale>
<asrwt>0</asrwt>
<pdfrwt beam="1">  1        3 0.52190144E-02 0.20000727E+02</pdfrwt>
<pdfrwt beam="2">  1       -3 0.45354081E-03 0.20000727E+02</pdfrwt>
<totfact> 0.16878071E+06</totfact>
</mgrwt>
</event>
<event>
 5    1  0.4133473E-007  0.2000012E+02  0.7818608E-02  0.1745326E+00
          3   -1    0    0  501    0  0.00000000000E+00  0.00000000000E+00  0.20017397622E+01  0.20038989684E+01  0.93000000000E-01 0.  1.
         -3   -1    0    0    0  501 -0.00000000000E+00 -0.00000000000E+00 -0.49928027407E+02  0.49928114022E+02  0.93000000000E-01 0. -1.
       1023    2    1    2    0    0  0.00000000000E+00  0.00000000000E+00 -0.47926287645E+02  0.51932012990E+02  0.20000123144E+02 0.  0.
        -11    1    3    3    0    0  0.85100758510E+01 -0.52516460310E+01 -0.23944035052E+02  0.25948371661E+02  0.51100000000E-03 0.  1.
         11    1    3    3    0    0 -0.85100758510E+01  0.52516460310E+01 -0.23982252593E+02  0.25983641329E+02  0.51100000000E-03 0. -1.
<mgrwt>
<rscale>  0 0.20000123E+02</rscale>
<asrwt>0</asrwt>
<pdfrwt beam="1">  1        3 0.30813276E-03 0.20000123E+02</pdfrwt>
<pdfrwt beam="2">  1       -3 0.76814068E-02 0.20000123E+02</pdfrwt>
<totfact> 0.16117077E+06</totfact>
</mgrwt>
</event>
<event>
 4    1  0.4133473E-007  0.2006275E+02  0.7818608E-02  0.1744083E+00
         -3   -1    0    0    0  501 -0.00000000000E+00  0.00000000000E+00  0.23602696387E+01  0.23621011340E+01  0.93000000000E-01 0.  1.
          3   -1    0    0  501    0  0.00000000000E+00 -0.00000000000E+00 -0.42615913737E+02  0.42616015213E+02  0.93000000000E-01 0. -1.
        -11    1    1    2    0    0  0.74677644156E+01  0.66965300452E+01 -0.20424366801E+02  0.22754467243E+02  0.51100000000E-03 0. -1.
         11    1    1    2    0    0 -0.74677644156E+01 -0.66965300452E+01 -0.19831277298E+02  0.22223649105E+02  0.51100000000E-03 0.  1.
<mgrwt>
<rscale>  0 0.20062753E+02</rscale>
<asrwt>0</asrwt>
<pdfrwt beam="2">  1        3 0.65564425E-02 0.20062753E+02</pdfrwt>
<pdfrwt beam="1">  1       -3 0.36326713E-03 0.20062753E+02</pdfrwt>
<totfact> 0.16344605E+06</totfact>
</mgrwt>
</event>
<event>
 5    1  0.4133473E-007  0.2000106E+02  0.7818608E-02  0.1745307E+00
         -3   -1    0    0    0  501 -0.00000000000E+00  0.00000000000E+00  0.19227231685E+01  0.19249710083E+01  0.93000000000E-01 0.  1.
          3   -1    0    0  501    0  0.00000000000E+00 -0.00000000000E+00 -0.51982398528E+02  0.51982481719E+02  0.93000000000E-01 0. -1.
       1023    2    1    2    0    0  0.00000000000E+00  0.00000000000E+00 -0.50059675359E+02  0.53907452727E+02  0.20001059035E+02 0.  0.
        -11    1    3    3    0    0 -0.99106731644E+01 -0.13358942907E+01 -0.24848349656E+02  0.26785192495E+02  0.51100000000E-03 0. -1.
         11    1    3    3    0    0  0.99106731644E+01  0.13358942907E+01 -0.25211325703E+02  0.27122260232E+02  0.51100000000E-03 0.  1.
<mgrwt>
<rscale>  0 0.20001059E+02</rscale>
<asrwt>0</asrwt>
<pdfrwt beam="2">  1        3 0.79974703E-02 0.20001059E+02</pdfrwt>
<pdfrwt beam="1">  1       -3 0.29598291E-03 0.20001059E+02</pdfrwt>
<totfact> 0.16019788E+06</totfact>
</mgrwt>
</event>
<event>
 5    1  0.4133473E-007  0.2000067E+02  0.7818608E-02  0.1745315E+00
         -3   -1    0    0    0  501 -0.00000000000E+00  0.00000000000E+00  0.34376109087E+01  0.34388686744E+01  0.93000000000E-01 0. -1.
          3   -1    0    0  501    0  0.00000000000E+00 -0.00000000000E+00 -0.29085273985E+02  0.29085422668E+02  0.93000000000E-01 0.  1.
       1023    2    1    2    0    0  0.00000000000E+00  0.00000000000E+00 -0.25647663076E+02  0.32524291342E+02  0.20000672640E+02 0.  0.
        -11    1    3    3    0    0  0.66942010812E+01  0.74292329356E+01 -0.12872511167E+02  0.16300532940E+02  0.51100000000E-03 0.  1.
         11    1    3    3    0    0 -0.66942010812E+01 -0.74292329356E+01 -0.12775151909E+02  0.16223758402E+02  0.51100000000E-03 0. -1.
<mgrwt>
<rscale>  0 0.20000673E+02</rscale>
<asrwt>0</asrwt>
<pdfrwt beam="2">  1        3 0.44747656E-02 0.20000673E+02</pdfrwt>
<pdfrwt beam="1">  1       -3 0.52897142E-03 0.20000673E+02</pdfrwt>
<totfact> 0.17119744E+06</totfact>
</mgrwt>
</event>
<event>
 5    1  0.4133473E-007  0.2000031E+02  0.7818608E-02  0.1745322E+00
         -3   -1    0    0    0  501 -0.00000000000E+00  0.00000000000E+00  0.51946370983E+01  0.51954695247E+01  0.93000000000E-01 0.  1.
          3   -1    0    0  501    0  0.00000000000E+00 -0.00000000000E+00 -0.19248728952E+02  0.19248953615E+02  0.93000000000E-01 0. -1.
       1023    2    1    2    0    0  0.00000000000E+00  0.00000000000E+00 -0.14054091853E+02  0.24444423139E+02  0.20000308117E+02 0.  0.
        -11    1    3    3    0    0  0.99149090794E+01 -0.13018241647E+01 -0.69610840385E+01  0.12184287401E+02  0.51100000000E-03 0.  1.
         11    1    3    3    0    0 -0.99149090794E+01  0.13018241647E+01 -0.70930078149E+01  0.12260135739E+02  0.51100000000E-03 0. -1.
<mgrwt>
<rscale>  0 0.20000308E+02</rscale>
<asrwt>0</asrwt>
<pdfrwt beam="2">  1        3 0.29614242E-02 0.20000308E+02</pdfrwt>
<pdfrwt beam="1">  1       -3 0.79925626E-03 0.20000308E+02</pdfrwt>
<totfact> 0.17600522E+06</totfact>
</mgrwt>
</event>
<event>
 5    1  0.4133473E-007  0.2000074E+02  0.7818608E-02  0.1745313E+00
          3   -1    0    0  501    0  0.00000000000E+00  0.00000000000E+00  0.16287808032E+02  0.16288073535E+02  0.93000000000E-01 0. -1.
         -3   -1    0    0    0  501 -0.00000000000E+00 -0.00000000000E+00 -0.61393484708E+01  0.61400528211E+01  0.93000000000E-01 0.  1.
       1023    2    1    2    0    0  0.00000000000E+00  0.00000000000E+00  0.10148459561E+02  0.22428126356E+02  0.20000740496E+02 0.  0.
        -11    1    3    3    0    0  0.61823638951E+01  0.78603459648E+01  0.50436673915E+01  0.11200234062E+02  0.51100000000E-03 0. -1.
         11    1    3    3    0    0 -0.61823638951E+01 -0.78603459648E+01  0.51047921693E+01  0.11227892294E+02  0.51100000000E-03 0.  1.
<mgrwt>
<rscale>  0 0.20000740E+02</rscale>
<asrwt>0</asrwt>
<pdfrwt beam="1">  1        3 0.25058912E-02 0.20000740E+02</pdfrwt>
<pdfrwt beam="2">  1       -3 0.94458975E-03 0.20000740E+02</pdfrwt>
<totfact> 0.17726663E+06</totfact>
</mgrwt>
</event>
<event>
 5    1  0.4133473E-007  0.2000346E+02  0.7818608E-02  0.1745259E+00
          3   -1    0    0  501    0  0.00000000000E+00  0.00000000000E+00  0.66615178218E+02  0.66615243135E+02  0.93000000000E-01 0.  1.
         -3   -1    0    0    0  501 -0.00000000000E+00 -0.00000000000E+00 -0.15001734678E+01  0.15030533702E+01  0.93000000000E-01 0. -1.
       1023    2    1    2    0    0  0.00000000000E+00  0.00000000000E+00  0.65115004750E+02  0.68118296506E+02  0.20003461581E+02 0.  0.
        -11    1    3    3    0    0  0.40028159015E+01  0.91650707789E+01  0.32954058673E+02  0.34438220639E+02  0.51100000000E-03 0.  1.
         11    1    3    3    0    0 -0.40028159015E+01 -0.91650707789E+01  0.32160946077E+02  0.33680075866E+02  0.51100000000E-03 0. -1.
<mgrwt>
<rscale>  0 0.20003462E+02</rscale>
<asrwt>0</asrwt>
<pdfrwt beam="1">  1        3 0.10248716E-01 0.20003462E+02</pdfrwt>
<pdfrwt beam="2">  1       -3 0.23102243E-03 0.20003462E+02</pdfrwt>
<totfact> 0.15386030E+06</totfact>
</mgrwt>
</event>
<event>
 5    1  0.4219159E-007  0.2000068E+02  0.7818608E-02  0.1745315E+00
          3   -1    0    0  501    0  0.00000000000E+00  0.00000000000E+00  0.85818107900E+01  0.85823146898E+01  0.93000000000E-01 0. -1.
         -3   -1    0    0    0  501 -0.00000000000E+00 -0.00000000000E+00 -0.11652310301E+02  0.11652681424E+02  0.93000000000E-01 0.  1.
       1023    2    1    2    0    0  0.00000000000E+00  0.00000000000E+00 -0.30704995114E+01  0.20234996113E+02  0.20000677500E+02 0.  0.
        -11    1    3    3    0    0  0.95609287563E+01  0.29311113583E+01 -0.14712442522E+01  0.10107785731E+02  0.51100000000E-03 0.  1.
         11    1    3    3    0    0 -0.95609287563E+01 -0.29311113583E+01 -0.15992552592E+01  0.10127210382E+02  0.51100000000E-03 0. -1.
<mgrwt>
<rscale>  0 0.20000677E+02</rscale>
<asrwt>0</asrwt>
<pdfrwt beam="1">  1        3 0.13203459E-02 0.20000677E+02</pdfrwt>
<pdfrwt beam="2">  1       -3 0.17927305E-02 0.20000677E+02</pdfrwt>
<totfact> 0.17869078E+06</totfact>
</mgrwt>
</event>
<event>
 5    1  0.4133473E-007  0.2000059E+02  0.7818608E-02  0.1745316E+00
          3   -1    0    0  501    0  0.00000000000E+00  0.00000000000E+00  0.19776147783E+02  0.19776366454E+02  0.93000000000E-01 0. -1.
         -3   -1    0    0    0  501 -0.00000000000E+00 -0.00000000000E+00 -0.50562193525E+01  0.50570745635E+01  0.93000000000E-01 0.  1.
       1023    2    1    2    0    0  0.00000000000E+00  0.00000000000E+00  0.14719928431E+02  0.24833441018E+02  0.20000587486E+02 0.  0.
        -11    1    3    3    0    0  0.69710242565E+01  0.71700775871E+01  0.73924109587E+01  0.12435953194E+02  0.51100000000E-03 0. -1.
         11    1    3    3    0    0 -0.69710242565E+01 -0.71700775871E+01  0.73275174719E+01  0.12397487824E+02  0.51100000000E-03 0.  1.
<mgrwt>
<rscale>  0 0.20000587E+02</rscale>
<asrwt>0</asrwt>
<pdfrwt beam="1">  1        3 0.30425669E-02 0.20000587E+02</pdfrwt>
<pdfrwt beam="2">  1       -3 0.77796251E-03 0.20000587E+02</pdfrwt>
<totfact> 0.17575815E+06</totfact>
</mgrwt>
</event>
<event>
 5    1  0.4133473E-007  0.2000013E+02  0.7818608E-02  0.1745325E+00
          3   -1    0    0  501    0  0.00000000000E+00  0.00000000000E+00  0.23957006913E+02  0.23957187423E+02  0.93000000000E-01 0. -1.
         -3   -1    0    0    0  501 -0.00000000000E+00 -0.00000000000E+00 -0.41734851883E+01  0.41745212440E+01  0.93000000000E-01 0.  1.
       1023    2    1    2    0    0  0.00000000000E+00  0.00000000000E+00  0.19783521724E+02  0.28131708667E+02  0.20000132517E+02 0.  0.
        -11    1    3    3    0    0  0.52049605832E+01  0.85386614238E+01  0.98479232531E+01  0.14035025694E+02  0.51100000000E-03 0.  1.
         11    1    3    3    0    0 -0.52049605832E+01 -0.85386614238E+01  0.99355984711E+01  0.14096682972E+02  0.51100000000E-03 0. -1.
<mgrwt>
<rscale>  0 0.20000133E+02</rscale>
<asrwt>0</asrwt>
<pdfrwt beam="1">  1        3 0.36857869E-02 0.20000133E+02</pdfrwt>
<pdfrwt beam="2">  1       -3 0.64216823E-03 0.20000133E+02</pdfrwt>
<totfact> 0.17376335E+06</totfact>
</mgrwt>
</event>
<event>
 5    1  0.4146989E-007  0.2000040E+02  0.7818608E-02  0.1745320E+00
         -3   -1    0    0    0  501 -0.00000000000E+00  0.00000000000E+00  0.78136975482E+01  0.78142509798E+01  0.93000000000E-01 0.  1.
          3   -1    0    0  501    0  0.00000000000E+00 -0.00000000000E+00 -0.12797380103E+02  0.12797718019E+02  0.93000000000E-01 0. -1.
       1023    2    1    2    0    0  0.00000000000E+00  0.00000000000E+00 -0.49836825543E+01  0.20611968999E+02  0.20000404351E+02 0.  0.
        -11    1    3    3    0    0  0.75113528721E+01  0.66017585070E+01 -0.24710773809E+01  0.10300964083E+02  0.51100000000E-03 0. -1.
         11    1    3    3    0    0 -0.75113528721E+01 -0.66017585070E+01 -0.25126051734E+01  0.10311004916E+02  0.51100000000E-03 0.  1.
<mgrwt>
<rscale>  0 0.20000404E+02</rscale>
<asrwt>0</asrwt>
<pdfrwt beam="2">  1        3 0.19688963E-02 0.20000404E+02</pdfrwt>
<pdfrwt beam="1">  1       -3 0.12021759E-02 0.20000404E+02</pdfrwt>
<totfact> 0.17844640E+06</totfact>
</mgrwt>
</event>
<event>
 5    1  0.4295085E-007  0.2000099E+02  0.7818608E-02  0.1745308E+00
          3   -1    0    0  501    0  0.00000000000E+00  0.00000000000E+00  0.16589586102E+02  0.16589846776E+02  0.93000000000E-01 0.  1.
         -3   -1    0    0    0  501 -0.00000000000E+00 -0.00000000000E+00 -0.60278106152E+01  0.60285279972E+01  0.93000000000E-01 0. -1.
       1023    2    1    2    0    0  0.00000000000E+00  0.00000000000E+00  0.10561775487E+02  0.22618374773E+02  0.20000994373E+02 0.  0.
        -11    1    3    3    0    0 -0.51334908007E+01  0.85823198269E+01  0.53166900235E+01  0.11325905460E+02  0.51100000000E-03 0. -1.
         11    1    3    3    0    0  0.51334908007E+01 -0.85823198269E+01  0.52450854634E+01  0.11292469313E+02  0.51100000000E-03 0.  1.
<mgrwt>
<rscale>  0 0.20000994E+02</rscale>
<asrwt>0</asrwt>
<pdfrwt beam="1">  1        3 0.25523192E-02 0.20000994E+02</pdfrwt>
<pdfrwt beam="2">  1       -3 0.92743072E-03 0.20000994E+02</pdfrwt>
<totfact> 0.17714047E+06</totfact>
</mgrwt>
</event>
<event>
 4    1  0.4133473E-007  0.2002197E+02  0.7818608E-02  0.1744892E+00
          3   -1    0    0  501    0  0.00000000000E+00  0.00000000000E+00  0.13571111499E+02  0.13571430150E+02  0.93000000000E-01 0. -1.
         -3   -1    0    0    0  501 -0.00000000000E+00 -0.00000000000E+00 -0.73840913412E+01  0.73846769689E+01  0.93000000000E-01 0.  1.
        -11    1    1    2    0    0 -0.81601980405E+01 -0.57923982649E+01  0.33878638457E+01  0.10564957710E+02  0.51100000000E-03 0. -1.
         11    1    1    2    0    0  0.81601980405E+01  0.57923982649E+01  0.27991563122E+01  0.10391149409E+02  0.51100000000E-03 0.  1.
<mgrwt>
<rscale>  0 0.20021968E+02</rscale>
<asrwt>0</asrwt>
<pdfrwt beam="1">  1        3 0.20879328E-02 0.20021968E+02</pdfrwt>
<pdfrwt beam="2">  1       -3 0.11360836E-02 0.20021968E+02</pdfrwt>
<totfact> 0.17780830E+06</totfact>
</mgrwt>
</event>
<event>
 5    1  0.4133473E-007  0.2000012E+02  0.7818608E-02  0.1745326E+00
          3   -1    0    0  501    0  0.00000000000E+00  0.00000000000E+00  0.94244272625E+02  0.94244318511E+02  0.93000000000E-01 0.  1.
         -3   -1    0    0    0  501 -0.00000000000E+00 -0.00000000000E+00 -0.10590016399E+01  0.10630773599E+01  0.93000000000E-01 0. -1.
       1023    2    1    2    0    0  0.00000000000E+00  0.00000000000E+00  0.93185270985E+02  0.95307395871E+02  0.20000124478E+02 0.  0.
        -11    1    3    3    0    0 -0.80863243514E+01 -0.58832387425E+01  0.46641443526E+02  0.47701419204E+02  0.51100000000E-03 0.  1.
         11    1    3    3    0    0  0.80863243514E+01  0.58832387425E+01  0.46543827459E+02  0.47605976667E+02  0.51100000000E-03 0. -1.
<mgrwt>
<rscale>  0 0.20000124E+02</rscale>
<asrwt>0</asrwt>
<pdfrwt beam="1">  1        3 0.14499437E-01 0.20000124E+02</pdfrwt>
<pdfrwt beam="2">  1       -3 0.16324036E-03 0.20000124E+02</pdfrwt>
<totfact> 0.14342418E+06</totfact>
</mgrwt>
</event>
<event>
 5    1  0.4187930E-007  0.2000101E+02  0.7818608E-02  0.1745308E+00
         -3   -1    0    0    0  501 -0.00000000000E+00  0.00000000000E+00  0.46577610994E+02  0.46577703839E+02  0.93000000000E-01 0. -1.
          3   -1    0    0  501    0  0.00000000000E+00 -0.00000000000E+00 -0.21460682789E+01  0.21480824141E+01  0.93000000000E-01 0.  1.
       1023    2    1    2    0    0  0.00000000000E+00  0.00000000000E+00  0.44431542715E+02  0.48725786253E+02  0.20001006423E+02 0.  0.
        -11    1    3    3    0    0 -0.55876988559E+01  0.82936688755E+01  0.22343346045E+02  0.24479224552E+02  0.51100000000E-03 0. -1.
         11    1    3    3    0    0  0.55876988559E+01 -0.82936688755E+01  0.22088196670E+02  0.24246561701E+02  0.51100000000E-03 0.  1.
<mgrwt>
<rscale>  0 0.20001006E+02</rscale>
<asrwt>0</asrwt>
<pdfrwt beam="2">  1        3 0.33032647E-03 0.20001006E+02</pdfrwt>
<pdfrwt beam="1">  1       -3 0.71659474E-02 0.20001006E+02</pdfrwt>
<totfact> 0.16269819E+06</totfact>
</mgrwt>
</event>
<event>
 5    1  0.4133473E-007  0.2000371E+02  0.7818608E-02  0.1745254E+00
          3   -1    0    0  501    0  0.00000000000E+00  0.00000000000E+00  0.18843729216E+01  0.18866664537E+01  0.93000000000E-01 0. -1.
         -3   -1    0    0    0  501 -0.00000000000E+00 -0.00000000000E+00 -0.53053129235E+02  0.53053210748E+02  0.93000000000E-01 0.  1.
       1023    2    1    2    0    0  0.00000000000E+00  0.00000000000E+00 -0.51168756314E+02  0.54939877202E+02  0.20003711761E+02 0.  0.
        -11    1    3    3    0    0 -0.89205190561E+01  0.45208312996E+01 -0.26005808479E+02  0.27862441580E+02  0.51100000000E-03 0. -1.
         11    1    3    3    0    0  0.89205190561E+01 -0.45208312996E+01 -0.25162947834E+02  0.27077435622E+02  0.51100000000E-03 0.  1.
<mgrwt>
<rscale>  0 0.20003712E+02</rscale>
<asrwt>0</asrwt>
<pdfrwt beam="1">  1        3 0.29008626E-03 0.20003712E+02</pdfrwt>
<pdfrwt beam="2">  1       -3 0.81622014E-02 0.20003712E+02</pdfrwt>
<totfact> 0.15969876E+06</totfact>
</mgrwt>
</event>
<event>
 5    1  0.4133473E-007  0.2000073E+02  0.7818608E-02  0.1745313E+00
         -3   -1    0    0    0  501 -0.00000000000E+00  0.00000000000E+00  0.49047718326E+01  0.49056534458E+01  0.93000000000E-01 0.  1.
          3   -1    0    0  501    0  0.00000000000E+00 -0.00000000000E+00 -0.20386985008E+02  0.20387197127E+02  0.93000000000E-01 0. -1.
       1023    2    1    2    0    0  0.00000000000E+00  0.00000000000E+00 -0.15482213175E+02  0.25292850573E+02  0.20000734119E+02 0.  0.
        -11    1    3    3    0    0 -0.97689504601E+01  0.21382748155E+01 -0.78071663164E+01  0.12686861646E+02  0.51100000000E-03 0.  1.
         11    1    3    3    0    0  0.97689504601E+01 -0.21382748155E+01 -0.76750468586E+01  0.12605988927E+02  0.51100000000E-03 0. -1.
<mgrwt>
<rscale>  0 0.20000734E+02</rscale>
<asrwt>0</asrwt>
<pdfrwt beam="2">  1        3 0.31365433E-02 0.20000734E+02</pdfrwt>
<pdfrwt beam="1">  1       -3 0.75466443E-03 0.20000734E+02</pdfrwt>
<totfact> 0.17547143E+06</totfact>
</mgrwt>
</event>
<event>
 5    1  0.4154439E-007  0.2000205E+02  0.7818608E-02  0.1745287E+00
         -3   -1    0    0    0  501 -0.00000000000E+00  0.00000000000E+00  0.15782969677E+02  0.15783243673E+02  0.93000000000E-01 0.  1.
          3   -1    0    0  501    0  0.00000000000E+00 -0.00000000000E+00 -0.63365751203E+01  0.63372575500E+01  0.93000000000E-01 0. -1.
       1023    2    1    2    0    0  0.00000000000E+00  0.00000000000E+00  0.94463945571E+01  0.22120501223E+02  0.20002055000E+02 0.  0.
        -11    1    3    3    0    0  0.60737322959E+01 -0.79454582887E+01  0.47280650345E+01  0.11062329350E+02  0.51100000000E-03 0.  1.
         11    1    3    3    0    0 -0.60737322959E+01  0.79454582887E+01  0.47183295226E+01  0.11058171873E+02  0.51100000000E-03 0. -1.
<mgrwt>
<rscale>  0 0.20002055E+02</rscale>
<asrwt>0</asrwt>
<pdfrwt beam="2">  1        3 0.97493129E-03 0.20002055E+02</pdfrwt>
<pdfrwt beam="1">  1       -3 0.24282227E-02 0.20002055E+02</pdfrwt>
<totfact> 0.17744612E+06</totfact>
</mgrwt>
</event>
<event>
 5    1  0.4133473E-007  0.2000121E+02  0.7818608E-02  0.1745304E+00
         -3   -1    0    0    0  501 -0.00000000000E+00  0.00000000000E+00  0.14822489302E+01  0.14851635907E+01  0.93000000000E-01 0.  1.
          3   -1    0    0  501    0  0.00000000000E+00 -0.00000000000E+00 -0.67404009776E+02  0.67404073934E+02  0.93000000000E-01 0. -1.
       1023    2    1    2    0    0  0.00000000000E+00  0.00000000000E+00 -0.65921760846E+02  0.68889237525E+02  0.20001212306E+02 0.  0.
        -11    1    3    3    0    0 -0.91974989947E+01  0.39264945826E+01 -0.32864953271E+02  0.34352823774E+02  0.51100000000E-03 0. -1.
         11    1    3    3    0    0  0.91974989947E+01 -0.39264945826E+01 -0.33056807575E+02  0.34536413751E+02  0.51100000000E-03 0.  1.
<mgrwt>
<rscale>  0 0.20001212E+02</rscale>
<asrwt>0</asrwt>
<pdfrwt beam="2">  1        3 0.10370074E-01 0.20001212E+02</pdfrwt>
<pdfrwt beam="1">  1       -3 0.22826749E-03 0.20001212E+02</pdfrwt>
<totfact> 0.15357390E+06</totfact>
</mgrwt>
</event>
<event>
 5    1  0.4133473E-007  0.2000069E+02  0.7818608E-02  0.1745314E+00
         -3   -1    0    0    0  501 -0.00000000000E+00  0.00000000000E+00  0.10239088064E+01  0.10281236520E+01  0.93000000000E-01 0.  1.
          3   -1    0    0  501    0  0.00000000000E+00 -0.00000000000E+00 -0.97466822541E+02  0.97466866910E+02  0.93000000000E-01 0. -1.
       1023    2    1    2    0    0  0.00000000000E+00  0.00000000000E+00 -0.96442913734E+02  0.98494990562E+02  0.20000688892E+02 0.  0.
        -11    1    3    3    0    0 -0.45518156545E+01 -0.89043644233E+01 -0.48283209535E+02  0.49307961373E+02  0.51100000000E-03 0.  1.
         11    1    3    3    0    0  0.45518156545E+01  0.89043644233E+01 -0.48159704199E+02  0.49187029188E+02  0.51100000000E-03 0. -1.
<mgrwt>
<rscale>  0 0.20000689E+02</rscale>
<asrwt>0</asrwt>
<pdfrwt beam="2">  1        3 0.14995216E-01 0.20000689E+02</pdfrwt>
<pdfrwt beam="1">  1       -3 0.15785214E-03 0.20000689E+02</pdfrwt>
<totfact> 0.14229292E+06</totfact>
</mgrwt>
</event>
<event>
 5    1  0.4133473E-007  0.2000044E+02  0.7818608E-02  0.1745319E+00
          3   -1    0    0  501    0  0.00000000000E+00  0.00000000000E+00  0.18381122347E+01  0.18404634165E+01  0.93000000000E-01 0. -1.
         -3   -1    0    0    0  501 -0.00000000000E+00 -0.00000000000E+00 -0.54368858825E+02  0.54368938365E+02  0.93000000000E-01 0.  1.
       1023    2    1    2    0    0  0.00000000000E+00  0.00000000000E+00 -0.52530746590E+02  0.56209401781E+02  0.20000437778E+02 0.  0.
        -11    1    3    3    0    0  0.13874001970E+01  0.99033500129E+01 -0.26423276688E+02  0.28252270210E+02  0.51100000000E-03 0.  1.
         11    1    3    3    0    0 -0.13874001970E+01 -0.99033500129E+01 -0.26107469902E+02  0.27957131572E+02  0.51100000000E-03 0. -1.
<mgrwt>
<rscale>  0 0.20000438E+02</rscale>
<asrwt>0</asrwt>
<pdfrwt beam="1">  1        3 0.28297352E-03 0.20000438E+02</pdfrwt>
<pdfrwt beam="2">  1       -3 0.83646256E-02 0.20000438E+02</pdfrwt>
<totfact> 0.15916985E+06</totfact>
</mgrwt>
</event>
<event>
 5    1  0.4133473E-007  0.2000079E+02  0.7818608E-02  0.1745312E+00
          3   -1    0    0  501    0  0.00000000000E+00  0.00000000000E+00  0.36317905126E+02  0.36318024200E+02  0.93000000000E-01 0. -1.
         -3   -1    0    0    0  501 -0.00000000000E+00 -0.00000000000E+00 -0.27527713734E+01  0.27543418877E+01  0.93000000000E-01 0.  1.
       1023    2    1    2    0    0  0.00000000000E+00  0.00000000000E+00  0.33565133753E+02  0.39072366087E+02  0.20000789680E+02 0.  0.
        -11    1    3    3    0    0 -0.53027407901E+01  0.84785265966E+01  0.16668262967E+02  0.19437990218E+02  0.51100000000E-03 0.  1.
         11    1    3    3    0    0  0.53027407901E+01 -0.84785265966E+01  0.16896870786E+02  0.19634375869E+02  0.51100000000E-03 0. -1.
<mgrwt>
<rscale>  0 0.20000790E+02</rscale>
<asrwt>0</asrwt>
<pdfrwt beam="1">  1        3 0.55875000E-02 0.20000790E+02</pdfrwt>
<pdfrwt beam="2">  1       -3 0.42363326E-03 0.20000790E+02</pdfrwt>
<totfact> 0.16759543E+06</totfact>
</mgrwt>
</event>
<event>
 5    1  0.4133473E-007  0.2000034E+02  0.7818608E-02  0.1745321E+00
          3   -1    0    0  501    0  0.00000000000E+00  0.00000000000E+00  0.29939730437E+01  0.29954170972E+01  0.93000000000E-01 0.  1.
         -3   -1    0    0    0  501 -0.00000000000E+00 -0.00000000000E+00 -0.33392021289E+02  0.33392150795E+02  0.93000000000E-01 0. -1.
       1023    2    1    2    0    0  0.00000000000E+00  0.00000000000E+00 -0.30398048245E+02  0.36387567893E+02  0.20000343998E+02 0.  0.
        -11    1    3    3    0    0  0.89723666583E+01  0.44158782586E+01 -0.15216803688E+02  0.18208636933E+02  0.51100000000E-03 0. -1.
         11    1    3    3    0    0 -0.89723666583E+01 -0.44158782586E+01 -0.15181244557E+02  0.18178930959E+02  0.51100000000E-03 0.  1.
<mgrwt>
<rscale>  0 0.20000344E+02</rscale>
<asrwt>0</asrwt>
<pdfrwt beam="1">  1        3 0.46073230E-03 0.20000344E+02</pdfrwt>
<pdfrwt beam="2">  1       -3 0.51373548E-02 0.20000344E+02</pdfrwt>
<totfact> 0.16907197E+06</totfact>
</mgrwt>
</event>
<event>
 5    1  0.4207738E-007  0.2000202E+02  0.7818608E-02  0.1745288E+00
          3   -1    0    0  501    0  0.00000000000E+00  0.00000000000E+00  0.47723471118E+01  0.47732531837E+01  0.93000000000E-01 0. -1.
         -3   -1    0    0    0  501 -0.00000000000E+00 -0.00000000000E+00 -0.20955289497E+02  0.20955495864E+02  0.93000000000E-01 0.  1.
       1023    2    1    2    0    0  0.00000000000E+00  0.00000000000E+00 -0.16182942385E+02  0.25728749047E+02  0.20002022480E+02 0.  0.
        -11    1    3    3    0    0 -0.79549893589E+01 -0.60609944473E+01 -0.80244328080E+01  0.12822208528E+02  0.51100000000E-03 0.  1.
         11    1    3    3    0    0  0.79549893589E+01  0.60609944473E+01 -0.81585095769E+01  0.12906540519E+02  0.51100000000E-03 0. -1.
<mgrwt>
<rscale>  0 0.20002022E+02</rscale>
<asrwt>0</asrwt>
<pdfrwt beam="1">  1        3 0.73429283E-03 0.20002022E+02</pdfrwt>
<pdfrwt beam="2">  1       -3 0.32239762E-02 0.20002022E+02</pdfrwt>
<totfact> 0.17519229E+06</totfact>
</mgrwt>
</event>
<event>
 5    1  0.4133473E-007  0.2000053E+02  0.7818608E-02  0.1745318E+00
         -3   -1    0    0    0  501 -0.00000000000E+00  0.00000000000E+00  0.67961235343E+02  0.67961298975E+02  0.93000000000E-01 0. -1.
          3   -1    0    0  501    0  0.00000000000E+00 -0.00000000000E+00 -0.14699706233E+01  0.14729095808E+01  0.93000000000E-01 0.  1.
       1023    2    1    2    0    0  0.00000000000E+00  0.00000000000E+00  0.66491264720E+02  0.69434208556E+02  0.20000525836E+02 0.  0.
        -11    1    3    3    0    0  0.90740034954E+01  0.42032875433E+01  0.33212232007E+02  0.34685119587E+02  0.51100000000E-03 0.  1.
         11    1    3    3    0    0 -0.90740034954E+01 -0.42032875433E+01  0.33279032713E+02  0.34749088969E+02  0.51100000000E-03 0. -1.
<mgrwt>
<rscale>  0 0.20000526E+02</rscale>
<asrwt>0</asrwt>
<pdfrwt beam="2">  1        3 0.22638025E-03 0.20000526E+02</pdfrwt>
<pdfrwt beam="1">  1       -3 0.10455808E-01 0.20000526E+02</pdfrwt>
<totfact> 0.15338623E+06</totfact>
</mgrwt>
</event>
<event>
 5    1  0.4351877E-007  0.2000077E+02  0.7818608E-02  0.1745313E+00
          3   -1    0    0  501    0  0.00000000000E+00  0.00000000000E+00  0.15194720270E+02  0.15195004873E+02  0.93000000000E-01 0. -1.
         -3   -1    0    0    0  501 -0.00000000000E+00 -0.00000000000E+00 -0.65810668793E+01  0.65817239588E+01  0.93000000000E-01 0.  1.
       1023    2    1    2    0    0  0.00000000000E+00  0.00000000000E+00  0.86136533908E+01  0.21776728832E+02  0.20000772332E+02 0.  0.
        -11    1    3    3    0    0  0.34430761053E+01  0.93888282983E+01  0.42486670732E+01  0.10865359729E+02  0.51100000000E-03 0. -1.
         11    1    3    3    0    0 -0.34430761053E+01 -0.93888282983E+01  0.43649863176E+01  0.10911369103E+02  0.51100000000E-03 0.  1.
<mgrwt>
<rscale>  0 0.20000772E+02</rscale>
<asrwt>0</asrwt>
<pdfrwt beam="1">  1        3 0.23377217E-02 0.20000772E+02</pdfrwt>
<pdfrwt beam="2">  1       -3 0.10125443E-02 0.20000772E+02</pdfrwt>
<totfact> 0.17768304E+06</totfact>
</mgrwt>
</event>
<event>
 5    1  0.4133473E-007  0.2000680E+02  0.7818608E-02  0.1745193E+00
         -3   -1    0    0    0  501 -0.00000000000E+00  0.00000000000E+00  0.80004503090E+02  0.80004557143E+02  0.93000000000E-01 0.  1.
          3   -1    0    0  501    0  0.00000000000E+00 -0.00000000000E+00 -0.12489962039E+01  0.12524537985E+01  0.93000000000E-01 0. -1.
       1023    2    1    2    0    0  0.00000000000E+00  0.00000000000E+00  0.78755506886E+02  0.81257010942E+02  0.20006797902E+02 0.  0.
        -11    1    3    3    0    0  0.79961942290E+01  0.60101996335E+01  0.39053635619E+02  0.40314365642E+02  0.51100000000E-03 0. -1.
         11    1    3    3    0    0 -0.79961942290E+01 -0.60101996335E+01  0.39701871267E+02  0.40942645300E+02  0.51100000000E-03 0.  1.
<mgrwt>
<rscale>  0 0.20006798E+02</rscale>
<asrwt>0</asrwt>
<pdfrwt beam="2">  1        3 0.19242333E-03 0.20006798E+02</pdfrwt>
<pdfrwt beam="1">  1       -3 0.12308659E-01 0.20006798E+02</pdfrwt>
<totfact> 0.14854820E+06</totfact>
</mgrwt>
</event>
<event>
 5    1  0.4133473E-007  0.2000949E+02  0.7818608E-02  0.1745139E+00
          3   -1    0    0  501    0  0.00000000000E+00  0.00000000000E+00  0.12742836819E+02  0.12743176181E+02  0.93000000000E-01 0. -1.
         -3   -1    0    0    0  501 -0.00000000000E+00 -0.00000000000E+00 -0.78542738216E+01  0.78548243942E+01  0.93000000000E-01 0.  1.
       1023    2    1    2    0    0  0.00000000000E+00  0.00000000000E+00  0.48885629971E+01  0.20598000576E+02  0.20009487238E+02 0.  0.
        -11    1    3    3    0    0  0.69670305107E+01  0.71742392677E+01  0.21429759881E+01  0.10227490873E+02  0.51100000000E-03 0. -1.
         11    1    3    3    0    0 -0.69670305107E+01 -0.71742392677E+01  0.27455870090E+01  0.10370509703E+02  0.51100000000E-03 0.  1.
<mgrwt>
<rscale>  0 0.20009487E+02</rscale>
<asrwt>0</asrwt>
<pdfrwt beam="1">  1        3 0.19605048E-02 0.20009487E+02</pdfrwt>
<pdfrwt beam="2">  1       -3 0.12084183E-02 0.20009487E+02</pdfrwt>
<totfact> 0.17828101E+06</totfact>
</mgrwt>
</event>
<event>
 5    1  0.4133473E-007  0.2000389E+02  0.7818608E-02  0.1745251E+00
          3   -1    0    0  501    0  0.00000000000E+00  0.00000000000E+00  0.41214911861E+01  0.41225403087E+01  0.93000000000E-01 0. -1.
         -3   -1    0    0    0  501 -0.00000000000E+00 -0.00000000000E+00 -0.24268275823E+02  0.24268454018E+02  0.93000000000E-01 0.  1.
       1023    2    1    2    0    0  0.00000000000E+00  0.00000000000E+00 -0.20146784637E+02  0.28390994327E+02  0.20003890313E+02 0.  0.
        -11    1    3    3    0    0 -0.46871111681E+01  0.88355683693E+01 -0.10000646517E+02  0.14143875372E+02  0.51100000000E-03 0.  1.
         11    1    3    3    0    0  0.46871111681E+01 -0.88355683693E+01 -0.10146138120E+02  0.14247118955E+02  0.51100000000E-03 0. -1.
<mgrwt>
<rscale>  0 0.20003890E+02</rscale>
<asrwt>0</asrwt>
<pdfrwt beam="1">  1        3 0.63416999E-03 0.20003890E+02</pdfrwt>
<pdfrwt beam="2">  1       -3 0.37336752E-02 0.20003890E+02</pdfrwt>
<totfact> 0.17355432E+06</totfact>
</mgrwt>
</event>
<event>
 5    1  0.4133473E-007  0.2000053E+02  0.7818608E-02  0.1745318E+00
          3   -1    0    0  501    0  0.00000000000E+00  0.00000000000E+00  0.93751840890E+02  0.93751887017E+02  0.93000000000E-01 0. -1.
         -3   -1    0    0    0  501 -0.00000000000E+00 -0.00000000000E+00 -0.10646282710E+01  0.10686825326E+01  0.93000000000E-01 0.  1.
       1023    2    1    2    0    0  0.00000000000E+00  0.00000000000E+00  0.92687212619E+02  0.94820569550E+02  0.20000525659E+02 0.  0.
        -11    1    3    3    0    0 -0.36828440514E+01 -0.92972227181E+01  0.46626707191E+02  0.47687016203E+02  0.51100000000E-03 0. -1.
         11    1    3    3    0    0  0.36828440514E+01  0.92972227181E+01  0.46060505428E+02  0.47133553347E+02  0.51100000000E-03 0.  1.
<mgrwt>
<rscale>  0 0.20000526E+02</rscale>
<asrwt>0</asrwt>
<pdfrwt beam="1">  1        3 0.14423673E-01 0.20000526E+02</pdfrwt>
<pdfrwt beam="2">  1       -3 0.16410440E-03 0.20000526E+02</pdfrwt>
<totfact> 0.14359125E+06</totfact>
</mgrwt>
</event>
<event>
 5    1  0.4133473E-007  0.2000027E+02  0.7818608E-02  0.1745323E+00
         -3   -1    0    0    0  501 -0.00000000000E+00  0.00000000000E+00  0.34025793962E+01  0.34038501065E+01  0.93000000000E-01 0. -1.
          3   -1    0    0  501    0  0.00000000000E+00 -0.00000000000E+00 -0.29383442508E+02  0.29383589682E+02  0.93000000000E-01 0.  1.
       1023    2    1    2    0    0  0.00000000000E+00  0.00000000000E+00 -0.25980863112E+02  0.32787439789E+02  0.20000273995E+02 0.  0.
        -11    1    3    3    0    0  0.99080794007E+01 -0.13537344844E+01 -0.12973613872E+02  0.16380393512E+02  0.51100000000E-03 0.  1.
         11    1    3    3    0    0 -0.99080794007E+01  0.13537344844E+01 -0.13007249240E+02  0.16407046276E+02  0.51100000000E-03 0. -1.
<mgrwt>
<rscale>  0 0.20000274E+02</rscale>
<asrwt>0</asrwt>
<pdfrwt beam="2">  1        3 0.45206385E-02 0.20000274E+02</pdfrwt>
<pdfrwt beam="1">  1       -3 0.52358284E-03 0.20000274E+02</pdfrwt>
<totfact> 0.17105534E+06</totfact>
</mgrwt>
</event>
<event>
 5    1  0.4343087E-007  0.2000085E+02  0.7818608E-02  0.1745311E+00
         -3   -1    0    0    0  501 -0.00000000000E+00  0.00000000000E+00  0.10785085448E+02  0.10785486411E+02  0.93000000000E-01 0. -1.
          3   -1    0    0  501    0  0.00000000000E+00 -0.00000000000E+00 -0.92720443791E+01  0.92725107694E+01  0.93000000000E-01 0.  1.
       1023    2    1    2    0    0  0.00000000000E+00  0.00000000000E+00  0.15130410689E+01  0.20057997180E+02  0.20000848922E+02 0.  0.
        -11    1    3    3    0    0 -0.72061369145E+01 -0.69338861291E+01  0.79272158491E+00  0.10031729355E+02  0.51100000000E-03 0.  1.
         11    1    3    3    0    0  0.72061369145E+01  0.69338861291E+01  0.72031948396E+00  0.10026267825E+02  0.51100000000E-03 0. -1.
<mgrwt>
<rscale>  0 0.20000849E+02</rscale>
<asrwt>0</asrwt>
<pdfrwt beam="2">  1        3 0.14265351E-02 0.20000849E+02</pdfrwt>
<pdfrwt beam="1">  1       -3 0.16593106E-02 0.20000849E+02</pdfrwt>
<totfact> 0.17880289E+06</totfact>
</mgrwt>
</event>
<event>
 5    1  0.4294213E-007  0.2000101E+02  0.7818608E-02  0.1745308E+00
         -3   -1    0    0    0  501 -0.00000000000E+00  0.00000000000E+00  0.22639022167E+02  0.22639213186E+02  0.93000000000E-01 0.  1.
          3   -1    0    0  501    0  0.00000000000E+00 -0.00000000000E+00 -0.44168970237E+01  0.44178759962E+01  0.93000000000E-01 0. -1.
       1023    2    1    2    0    0  0.00000000000E+00  0.00000000000E+00  0.18222125144E+02  0.27057089183E+02  0.20001005732E+02 0.  0.
        -11    1    3    3    0    0  0.78595698336E+01  0.61828209051E+01  0.89761564862E+01  0.13437689453E+02  0.51100000000E-03 0.  1.
         11    1    3    3    0    0 -0.78595698336E+01 -0.61828209051E+01  0.92459686576E+01  0.13619399730E+02  0.51100000000E-03 0. -1.
<mgrwt>
<rscale>  0 0.20001006E+02</rscale>
<asrwt>0</asrwt>
<pdfrwt beam="2">  1        3 0.67961261E-03 0.20001006E+02</pdfrwt>
<pdfrwt beam="1">  1       -3 0.34830165E-02 0.20001006E+02</pdfrwt>
<totfact> 0.17440553E+06</totfact>
</mgrwt>
</event>
<event>
 5    1  0.4133473E-007  0.2000077E+02  0.7818608E-02  0.1745313E+00
         -3   -1    0    0    0  501 -0.00000000000E+00  0.00000000000E+00  0.91452258562E+00  0.91923911993E+00  0.93000000000E-01 0. -1.
          3   -1    0    0  501    0  0.00000000000E+00 -0.00000000000E+00 -0.10906912275E+03  0.10906916240E+03  0.93000000000E-01 0.  1.
       1023    2    1    2    0    0  0.00000000000E+00  0.00000000000E+00 -0.10815460016E+03  0.10998840152E+03  0.20000773285E+02 0.  0.
        -11    1    3    3    0    0  0.86202355467E+01  0.50689374733E+01 -0.53682858930E+02  0.54606335998E+02  0.51100000000E-03 0. -1.
         11    1    3    3    0    0 -0.86202355467E+01 -0.50689374733E+01 -0.54471741232E+02  0.55382065519E+02  0.51100000000E-03 0.  1.
<mgrwt>
<rscale>  0 0.20000773E+02</rscale>
<asrwt>0</asrwt>
<pdfrwt beam="2">  1        3 0.16780221E-01 0.20000773E+02</pdfrwt>
<pdfrwt beam="1">  1       -3 0.14106173E-03 0.20000773E+02</pdfrwt>
<totfact> 0.13840225E+06</totfact>
</mgrwt>
</event>
<event>
 5    1  0.4133473E-007  0.2000287E+02  0.7818608E-02  0.1745271E+00
          3   -1    0    0  501    0  0.00000000000E+00  0.00000000000E+00  0.68775423064E+01  0.68781710633E+01  0.93000000000E-01 0. -1.
         -3   -1    0    0    0  501 -0.00000000000E+00 -0.00000000000E+00 -0.14542802320E+02  0.14543099680E+02  0.93000000000E-01 0.  1.
       1023    2    1    2    0    0  0.00000000000E+00  0.00000000000E+00 -0.76652600135E+01  0.21421270744E+02  0.20002865525E+02 0.  0.
        -11    1    3    3    0    0  0.56212277262E+01  0.82721457363E+01 -0.38812451550E+01  0.10728031527E+02  0.51100000000E-03 0. -1.
         11    1    3    3    0    0 -0.56212277262E+01 -0.82721457363E+01 -0.37840148586E+01  0.10693239217E+02  0.51100000000E-03 0.  1.
<mgrwt>
<rscale>  0 0.20002866E+02</rscale>
<asrwt>0</asrwt>
<pdfrwt beam="1">  1        3 0.10581547E-02 0.20002866E+02</pdfrwt>
<pdfrwt beam="2">  1       -3 0.22374254E-02 0.20002866E+02</pdfrwt>
<totfact> 0.17787884E+06</totfact>
</mgrwt>
</event>
<event>
 5    1  0.4133473E-007  0.2000017E+02  0.7818608E-02  0.1745325E+00
         -3   -1    0    0    0  501 -0.00000000000E+00  0.00000000000E+00  0.35268374318E+01  0.35280633880E+01  0.93000000000E-01 0. -1.
          3   -1    0    0  501    0  0.00000000000E+00 -0.00000000000E+00 -0.28348253094E+02  0.28348405643E+02  0.93000000000E-01 0.  1.
       1023    2    1    2    0    0  0.00000000000E+00  0.00000000000E+00 -0.24821415663E+02  0.31876469031E+02  0.20000165059E+02 0.  0.
        -11    1    3    3    0    0  0.85505177167E+01  0.51854625405E+01 -0.12353789515E+02  0.15893913635E+02  0.51100000000E-03 0.  1.
         11    1    3    3    0    0 -0.85505177167E+01 -0.51854625405E+01 -0.12467626148E+02  0.15982555396E+02  0.51100000000E-03 0. -1.
<mgrwt>
<rscale>  0 0.20000165E+02</rscale>
<asrwt>0</asrwt>
<pdfrwt beam="2">  1        3 0.43613756E-02 0.20000165E+02</pdfrwt>
<pdfrwt beam="1">  1       -3 0.54269643E-03 0.20000165E+02</pdfrwt>
<totfact> 0.17157651E+06</totfact>
</mgrwt>
</event>
<event>
 5    1  0.4133473E-007  0.2000047E+02  0.7818608E-02  0.1745319E+00
          3   -1    0    0  501    0  0.00000000000E+00  0.00000000000E+00  0.14065883121E+02  0.14066190564E+02  0.93000000000E-01 0.  1.
         -3   -1    0    0    0  501 -0.00000000000E+00 -0.00000000000E+00 -0.71090440731E+01  0.71096523567E+01  0.93000000000E-01 0. -1.
       1023    2    1    2    0    0  0.00000000000E+00  0.00000000000E+00  0.69568390481E+01  0.21175842921E+02  0.20000467841E+02 0.  0.
        -11    1    3    3    0    0  0.84857454584E+01 -0.52911579538E+01  0.34559665186E+01  0.10580545039E+02  0.51100000000E-03 0.  1.
         11    1    3    3    0    0 -0.84857454584E+01  0.52911579538E+01  0.35008725295E+01  0.10595297882E+02  0.51100000000E-03 0. -1.
<mgrwt>
<rscale>  0 0.20000468E+02</rscale>
<asrwt>0</asrwt>
<pdfrwt beam="1">  1        3 0.21640525E-02 0.20000468E+02</pdfrwt>
<pdfrwt beam="2">  1       -3 0.10937695E-02 0.20000468E+02</pdfrwt>
<totfact> 0.17807727E+06</totfact>
</mgrwt>
</event>
<event>
 4    1  0.4133473E-007  0.2008978E+02  0.7818608E-02  0.1743549E+00
         -3   -1    0    0    0  501 -0.00000000000E+00  0.00000000000E+00  0.10669157481E+01  0.10709613501E+01  0.93000000000E-01 0. -1.
          3   -1    0    0  501    0  0.00000000000E+00 -0.00000000000E+00 -0.94388462675E+02  0.94388508491E+02  0.93000000000E-01 0.  1.
        -11    1    1    2    0    0 -0.50344462890E+00  0.10012662433E+02 -0.49639374078E+02  0.50641626401E+02  0.51100000000E-03 0.  1.
         11    1    1    2    0    0  0.50344462890E+00 -0.10012662433E+02 -0.43682172849E+02  0.44817843439E+02  0.51100000000E-03 0. -1.
<mgrwt>
<rscale>  0 0.20089780E+02</rscale>
<asrwt>0</asrwt>
<pdfrwt beam="2">  1        3 0.14521610E-01 0.20089780E+02</pdfrwt>
<pdfrwt beam="1">  1       -3 0.16445568E-03 0.20089780E+02</pdfrwt>
<totfact> 0.14199960E+06</totfact>
</mgrwt>
</event>
<event>
 5    1  0.4133473E-007  0.2000043E+02  0.7818608E-02  0.1745320E+00
         -3   -1    0    0    0  501 -0.00000000000E+00  0.00000000000E+00  0.14107174156E+02  0.14107480699E+02  0.93000000000E-01 0.  1.
          3   -1    0    0  501    0  0.00000000000E+00 -0.00000000000E+00 -0.70882062168E+01  0.70888162884E+01  0.93000000000E-01 0. -1.
       1023    2    1    2    0    0  0.00000000000E+00  0.00000000000E+00  0.70189679390E+01  0.21196296987E+02  0.20000427371E+02 0.  0.
        -11    1    3    3    0    0 -0.69415947790E+01  0.71984974102E+01  0.34956473963E+01  0.10593566634E+02  0.51100000000E-03 0. -1.
         11    1    3    3    0    0  0.69415947790E+01 -0.71984974102E+01  0.35233205427E+01  0.10602730353E+02  0.51100000000E-03 0.  1.
<mgrwt>
<rscale>  0 0.20000427E+02</rscale>
<asrwt>0</asrwt>
<pdfrwt beam="2">  1        3 0.10905638E-02 0.20000427E+02</pdfrwt>
<pdfrwt beam="1">  1       -3 0.21704050E-02 0.20000427E+02</pdfrwt>
<totfact> 0.17807086E+06</totfact>
</mgrwt>
</event>
<event>
 5    1  0.4302401E-007  0.2000205E+02  0.7818608E-02  0.1745287E+00
         -3   -1    0    0    0  501 -0.00000000000E+00  0.00000000000E+00  0.73296388294E+01  0.73302288074E+01  0.93000000000E-01 0.  1.
          3   -1    0    0  501    0  0.00000000000E+00 -0.00000000000E+00 -0.13644734883E+02  0.13645051815E+02  0.93000000000E-01 0. -1.
       1023    2    1    2    0    0  0.00000000000E+00  0.00000000000E+00 -0.63150960538E+01  0.20975280622E+02  0.20002048871E+02 0.  0.
        -11    1    3    3    0    0 -0.26081800256E+01 -0.96548797299E+01 -0.31214667901E+01  0.10476777216E+02  0.51100000000E-03 0.  1.
         11    1    3    3    0    0  0.26081800256E+01  0.96548797299E+01 -0.31936292637E+01  0.10498503407E+02  0.51100000000E-03 0. -1.
<mgrwt>
<rscale>  0 0.20002049E+02</rscale>
<asrwt>0</asrwt>
<pdfrwt beam="2">  1        3 0.20992597E-02 0.20002049E+02</pdfrwt>
<pdfrwt beam="1">  1       -3 0.11277065E-02 0.20002049E+02</pdfrwt>
<totfact> 0.17817751E+06</totfact>
</mgrwt>
</event>
<event>
 5    1  0.4312602E-007  0.2000119E+02  0.7818608E-02  0.1745304E+00
          3   -1    0    0  501    0  0.00000000000E+00  0.00000000000E+00  0.10992601267E+02  0.10992994661E+02  0.93000000000E-01 0. -1.
         -3   -1    0    0    0  501 -0.00000000000E+00 -0.00000000000E+00 -0.90973200321E+01  0.90977953794E+01  0.93000000000E-01 0.  1.
       1023    2    1    2    0    0  0.00000000000E+00  0.00000000000E+00  0.18952812347E+01  0.20090790040E+02  0.20001193801E+02 0.  0.
        -11    1    3    3    0    0 -0.80948265783E+01 -0.58720153715E+01  0.87551191186E+00  0.10038590699E+02  0.51100000000E-03 0. -1.
         11    1    3    3    0    0  0.80948265783E+01  0.58720153715E+01  0.10197693228E+01  0.10052199341E+02  0.51100000000E-03 0.  1.
<mgrwt>
<rscale>  0 0.20001194E+02</rscale>
<asrwt>0</asrwt>
<pdfrwt beam="1">  1        3 0.16912362E-02 0.20001194E+02</pdfrwt>
<pdfrwt beam="2">  1       -3 0.13996545E-02 0.20001194E+02</pdfrwt>
<totfact> 0.17877342E+06</totfact>
</mgrwt>
</event>
<event>
 5    1  0.4133473E-007  0.2000014E+02  0.7818608E-02  0.1745325E+00
          3   -1    0    0  501    0  0.00000000000E+00  0.00000000000E+00  0.24418229695E+01  0.24435933406E+01  0.93000000000E-01 0.  1.
         -3   -1    0    0    0  501 -0.00000000000E+00 -0.00000000000E+00 -0.40936930252E+02  0.40937035890E+02  0.93000000000E-01 0. -1.
       1023    2    1    2    0    0  0.00000000000E+00  0.00000000000E+00 -0.38495107283E+02  0.43380629231E+02  0.20000142693E+02 0.  0.
        -11    1    3    3    0    0 -0.34096555279E+01  0.94008335691E+01 -0.19251925750E+02  0.21694194338E+02  0.51100000000E-03 0. -1.
         11    1    3    3    0    0  0.34096555279E+01 -0.94008335691E+01 -0.19243181533E+02  0.21686434893E+02  0.51100000000E-03 0.  1.
<mgrwt>
<rscale>  0 0.20000143E+02</rscale>
<asrwt>0</asrwt>
<pdfrwt beam="1">  1        3 0.37580941E-03 0.20000143E+02</pdfrwt>
<pdfrwt beam="2">  1       -3 0.62981331E-02 0.20000143E+02</pdfrwt>
<totfact> 0.16538355E+06</totfact>
</mgrwt>
</event>
<event>
 5    1  0.4141566E-007  0.2000157E+02  0.7818608E-02  0.1745297E+00
          3   -1    0    0  501    0  0.00000000000E+00  0.00000000000E+00  0.46923717430E+02  0.46923809590E+02  0.93000000000E-01 0.  1.
         -3   -1    0    0    0  501 -0.00000000000E+00 -0.00000000000E+00 -0.21303436797E+01  0.21323726676E+01  0.93000000000E-01 0. -1.
       1023    2    1    2    0    0  0.00000000000E+00  0.00000000000E+00  0.44793373751E+02  0.49056182258E+02  0.20001567083E+02 0.  0.
        -11    1    3    3    0    0 -0.90051945556E+01  0.43492982725E+01  0.22210760780E+02  0.24358321353E+02  0.51100000000E-03 0. -1.
         11    1    3    3    0    0  0.90051945556E+01 -0.43492982725E+01  0.22582612971E+02  0.24697860905E+02  0.51100000000E-03 0.  1.
<mgrwt>
<rscale>  0 0.20001567E+02</rscale>
<asrwt>0</asrwt>
<pdfrwt beam="1">  1        3 0.72191959E-02 0.20001567E+02</pdfrwt>
<pdfrwt beam="2">  1       -3 0.32790838E-03 0.20001567E+02</pdfrwt>
<totfact> 0.16250206E+06</totfact>
</mgrwt>
</event>
<event>
 5    1  0.4412761E-007  0.2000103E+02  0.7818608E-02  0.1745308E+00
          3   -1    0    0  501    0  0.00000000000E+00  0.00000000000E+00  0.52320989833E+01  0.52329254505E+01  0.93000000000E-01 0. -1.
         -3   -1    0    0    0  501 -0.00000000000E+00 -0.00000000000E+00 -0.19112302219E+02  0.19112528486E+02  0.93000000000E-01 0.  1.
       1023    2    1    2    0    0  0.00000000000E+00  0.00000000000E+00 -0.13880203236E+02  0.24345453936E+02  0.20001027111E+02 0.  0.
        -11    1    3    3    0    0  0.99954015042E+01 -0.31183360933E+00 -0.68542069070E+01  0.12123755359E+02  0.51100000000E-03 0. -1.
         11    1    3    3    0    0 -0.99954015042E+01  0.31183360933E+00 -0.70259963290E+01  0.12221698577E+02  0.51100000000E-03 0.  1.
<mgrwt>
<rscale>  0 0.20001027E+02</rscale>
<asrwt>0</asrwt>
<pdfrwt beam="1">  1        3 0.80501929E-03 0.20001027E+02</pdfrwt>
<pdfrwt beam="2">  1       -3 0.29404351E-02 0.20001027E+02</pdfrwt>
<totfact> 0.17606473E+06</totfact>
</mgrwt>
</event>
<event>
 5    1  0.4181476E-007  0.2000077E+02  0.7818608E-02  0.1745313E+00
         -3   -1    0    0    0  501 -0.00000000000E+00  0.00000000000E+00  0.21192328334E+02  0.21192532393E+02  0.93000000000E-01 0.  1.
          3   -1    0    0  501    0  0.00000000000E+00 -0.00000000000E+00 -0.47183683242E+01  0.47192847596E+01  0.93000000000E-01 0. -1.
       1023    2    1    2    0    0  0.00000000000E+00  0.00000000000E+00  0.16473960010E+02  0.25911817152E+02  0.20000772728E+02 0.  0.
        -11    1    3    3    0    0  0.48694178443E+01  0.87344033129E+01  0.81309686785E+01  0.12888509739E+02  0.51100000000E-03 0.  1.
         11    1    3    3    0    0 -0.48694178443E+01 -0.87344033129E+01  0.83429913314E+01  0.13023307414E+02  0.51100000000E-03 0. -1.
<mgrwt>
<rscale>  0 0.20000773E+02</rscale>
<asrwt>0</asrwt>
<pdfrwt beam="2">  1        3 0.72598901E-03 0.20000773E+02</pdfrwt>
<pdfrwt beam="1">  1       -3 0.32604444E-02 0.20000773E+02</pdfrwt>
<totfact> 0.17510400E+06</totfact>
</mgrwt>
</event>
<event>
 5    1  0.4273134E-007  0.2000184E+02  0.7818608E-02  0.1745291E+00
         -3   -1    0    0    0  501 -0.00000000000E+00  0.00000000000E+00  0.50638404792E+01  0.50646944033E+01  0.93000000000E-01 0.  1.
          3   -1    0    0  501    0  0.00000000000E+00 -0.00000000000E+00 -0.19748868234E+02  0.19749087208E+02  0.93000000000E-01 0. -1.
       1023    2    1    2    0    0  0.00000000000E+00  0.00000000000E+00 -0.14685027755E+02  0.24813781611E+02  0.20001842857E+02 0.  0.
        -11    1    3    3    0    0  0.45331564312E+01 -0.89137613443E+01 -0.71968816910E+01  0.12320704317E+02  0.51100000000E-03 0. -1.
         11    1    3    3    0    0 -0.45331564312E+01  0.89137613443E+01 -0.74881460641E+01  0.12493077294E+02  0.51100000000E-03 0.  1.
<mgrwt>
<rscale>  0 0.20001843E+02</rscale>
<asrwt>0</asrwt>
<pdfrwt beam="2">  1        3 0.30383699E-02 0.20001843E+02</pdfrwt>
<pdfrwt beam="1">  1       -3 0.77913492E-03 0.20001843E+02</pdfrwt>
<totfact> 0.17574658E+06</totfact>
</mgrwt>
</event>
<event>
 5    1  0.4133473E-007  0.2000110E+02  0.7818608E-02  0.1745306E+00
          3   -1    0    0  501    0  0.00000000000E+00  0.00000000000E+00  0.76509326690E+02  0.76509383212E+02  0.93000000000E-01 0.  1.
         -3   -1    0    0    0  501 -0.00000000000E+00 -0.00000000000E+00 -0.13054631704E+01  0.13087715955E+01  0.93000000000E-01 0. -1.
       1023    2    1    2    0    0  0.00000000000E+00  0.00000000000E+00  0.75203863519E+02  0.77818154808E+02  0.20001103206E+02 0.  0.
        -11    1    3    3    0    0 -0.41341650032E+01  0.91059570463E+01  0.37463930076E+02  0.38775711870E+02  0.51100000000E-03 0. -1.
         11    1    3    3    0    0  0.41341650032E+01 -0.91059570463E+01  0.37739933443E+02  0.39042442938E+02  0.51100000000E-03 0.  1.
<mgrwt>
<rscale>  0 0.20001103E+02</rscale>
<asrwt>0</asrwt>
<pdfrwt beam="1">  1        3 0.11770932E-01 0.20001103E+02</pdfrwt>
<pdfrwt beam="2">  1       -3 0.20109920E-03 0.20001103E+02</pdfrwt>
<totfact> 0.14995028E+06</totfact>
</mgrwt>
</event>
<event>
 5    1  0.4133473E-007  0.2000121E+02  0.7818608E-02  0.1745304E+00
         -3   -1    0    0    0  501 -0.00000000000E+00  0.00000000000E+00  0.63661590837E+02  0.63661658766E+02  0.93000000000E-01 0.  1.
          3   -1    0    0  501    0  0.00000000000E+00 -0.00000000000E+00 -0.15695507337E+01  0.15723035666E+01  0.93000000000E-01 0. -1.
       1023    2    1    2    0    0  0.00000000000E+00  0.00000000000E+00  0.62092040103E+02  0.65233962333E+02  0.20001209900E+02 0.  0.
        -11    1    3    3    0    0 -0.88383328459E+01  0.46793112819E+01  0.31032360661E+02  0.32603979665E+02  0.51100000000E-03 0. -1.
         11    1    3    3    0    0  0.88383328459E+01 -0.46793112819E+01  0.31059679442E+02  0.32629982668E+02  0.51100000000E-03 0.  1.
<mgrwt>
<rscale>  0 0.20001210E+02</rscale>
<asrwt>0</asrwt>
<pdfrwt beam="2">  1        3 0.24168630E-03 0.20001210E+02</pdfrwt>
<pdfrwt beam="1">  1       -3 0.97943090E-02 0.20001210E+02</pdfrwt>
<totfact> 0.15515217E+06</totfact>
</mgrwt>
</event>
<event>
 5    1  0.4392284E-007  0.2000102E+02  0.7818608E-02  0.1745308E+00
         -3   -1    0    0    0  501 -0.00000000000E+00  0.00000000000E+00  0.25816520879E+02  0.25816688387E+02  0.93000000000E-01 0.  1.
          3   -1    0    0  501    0  0.00000000000E+00 -0.00000000000E+00 -0.38731457050E+01  0.38742620784E+01  0.93000000000E-01 0. -1.
       1023    2    1    2    0    0  0.00000000000E+00  0.00000000000E+00  0.21943375174E+02  0.29690950466E+02  0.20001020613E+02 0.  0.
        -11    1    3    3    0    0  0.44439705855E+00  0.99901794634E+01  0.11112764494E+02  0.14949739443E+02  0.51100000000E-03 0. -1.
         11    1    3    3    0    0 -0.44439705855E+00 -0.99901794634E+01  0.10830610680E+02  0.14741211023E+02  0.51100000000E-03 0.  1.
<mgrwt>
<rscale>  0 0.20001021E+02</rscale>
<asrwt>0</asrwt>
<pdfrwt beam="2">  1        3 0.59596732E-03 0.20001021E+02</pdfrwt>
<pdfrwt beam="1">  1       -3 0.39718713E-02 0.20001021E+02</pdfrwt>
<totfact> 0.17284213E+06</totfact>
</mgrwt>
</event>
<event>
 5    1  0.4133473E-007  0.2000133E+02  0.7818608E-02  0.1745302E+00
          3   -1    0    0  501    0  0.00000000000E+00  0.00000000000E+00  0.14700907324E+01  0.14730294503E+01  0.93000000000E-01 0. -1.
         -3   -1    0    0    0  501 -0.00000000000E+00 -0.00000000000E+00 -0.67961129942E+02  0.67961193574E+02  0.93000000000E-01 0.  1.
       1023    2    1    2    0    0  0.00000000000E+00  0.00000000000E+00 -0.66491039209E+02  0.69434223024E+02  0.20001325751E+02 0.  0.
        -11    1    3    3    0    0  0.97775384316E+01  0.20990573266E+01 -0.32955942154E+02  0.34439808695E+02  0.51100000000E-03 0.  1.
         11    1    3    3    0    0 -0.97775384316E+01 -0.20990573266E+01 -0.33535097055E+02  0.34994414329E+02  0.51100000000E-03 0. -1.
<mgrwt>
<rscale>  0 0.20001326E+02</rscale>
<asrwt>0</asrwt>
<pdfrwt beam="1">  1        3 0.22639881E-03 0.20001326E+02</pdfrwt>
<pdfrwt beam="2">  1       -3 0.10455787E-01 0.20001326E+02</pdfrwt>
<totfact> 0.15337306E+06</totfact>
</mgrwt>
</event>
<event>
 5    1  0.4133473E-007  0.2000194E+02  0.7818608E-02  0.1745289E+00
         -3   -1    0    0    0  501 -0.00000000000E+00  0.00000000000E+00  0.50328974685E+02  0.50329060609E+02  0.93000000000E-01 0.  1.
          3   -1    0    0  501    0  0.00000000000E+00 -0.00000000000E+00 -0.19861376753E+01  0.19883138246E+01  0.93000000000E-01 0. -1.
       1023    2    1    2    0    0  0.00000000000E+00  0.00000000000E+00  0.48342837009E+02  0.52317374434E+02  0.20001944344E+02 0.  0.
        -11    1    3    3    0    0 -0.73028499033E+01  0.68320836496E+01  0.23903903450E+02  0.25911495212E+02  0.51100000000E-03 0. -1.
         11    1    3    3    0    0  0.73028499033E+01 -0.68320836496E+01  0.24438933559E+02  0.26405879222E+02  0.51100000000E-03 0.  1.
<mgrwt>
<rscale>  0 0.20001944E+02</rscale>
<asrwt>0</asrwt>
<pdfrwt beam="2">  1        3 0.30573363E-03 0.20001944E+02</pdfrwt>
<pdfrwt beam="1">  1       -3 0.77430936E-02 0.20001944E+02</pdfrwt>
<totfact> 0.16095662E+06</totfact>
</mgrwt>
</event>
<event>
 5    1  0.4133473E-007  0.2000962E+02  0.7818608E-02  0.1745137E+00
          3   -1    0    0  501    0  0.00000000000E+00  0.00000000000E+00  0.23723702733E+01  0.23741924339E+01  0.93000000000E-01 0.  1.
         -3   -1    0    0    0  501 -0.00000000000E+00 -0.00000000000E+00 -0.42174414915E+02  0.42174517453E+02  0.93000000000E-01 0. -1.
       1023    2    1    2    0    0  0.00000000000E+00  0.00000000000E+00 -0.39802044641E+02  0.44548709887E+02  0.20009617561E+02 0.  0.
        -11    1    3    3    0    0 -0.93331680616E+01  0.36003011232E+01 -0.19542002544E+02  0.21953588726E+02  0.51100000000E-03 0.  1.
         11    1    3    3    0    0  0.93331680616E+01 -0.36003011232E+01 -0.20260042097E+02  0.22595121161E+02  0.51100000000E-03 0. -1.
<mgrwt>
<rscale>  0 0.20009618E+02</rscale>
<asrwt>0</asrwt>
<pdfrwt beam="1">  1        3 0.36512813E-03 0.20009618E+02</pdfrwt>
<pdfrwt beam="2">  1       -3 0.64885190E-02 0.20009618E+02</pdfrwt>
<totfact> 0.16462135E+06</totfact>
</mgrwt>
</event>
<event>
 4    1  0.4133473E-007  0.2002868E+02  0.7818608E-02  0.1744758E+00
          3   -1    0    0  501    0  0.00000000000E+00  0.00000000000E+00  0.70444578494E+02  0.70444639882E+02  0.93000000000E-01 0.  1.
         -3   -1    0    0    0  501 -0.00000000000E+00 -0.00000000000E+00 -0.14220492539E+01  0.14250870432E+01  0.93000000000E-01 0. -1.
        -11    1    1    2    0    0 -0.82781697784E+01  0.56107897063E+01  0.32619388455E+02  0.34117936038E+02  0.51100000000E-03 0. -1.
         11    1    1    2    0    0  0.82781697784E+01 -0.56107897063E+01  0.36403140785E+02  0.37751790888E+02  0.51100000000E-03 0.  1.
<mgrwt>
<rscale>  0 0.20028682E+02</rscale>
<asrwt>0</asrwt>
<pdfrwt beam="1">  1        3 0.10837864E-01 0.20028682E+02</pdfrwt>
<pdfrwt beam="2">  1       -3 0.21901524E-03 0.20028682E+02</pdfrwt>
<totfact> 0.15189078E+06</totfact>
</mgrwt>
</event>
<event>
 5    1  0.4159817E-007  0.2000223E+02  0.7818608E-02  0.1745284E+00
         -3   -1    0    0    0  501 -0.00000000000E+00  0.00000000000E+00  0.23592838695E+01  0.23611161295E+01  0.93000000000E-01 0. -1.
          3   -1    0    0  501    0  0.00000000000E+00 -0.00000000000E+00 -0.42376846048E+02  0.42376948097E+02  0.93000000000E-01 0.  1.
       1023    2    1    2    0    0  0.00000000000E+00  0.00000000000E+00 -0.40017562179E+02  0.44738064227E+02  0.20002227576E+02 0.  0.
        -11    1    3    3    0    0  0.88145857673E+01  0.47237329194E+01 -0.19766831425E+02  0.22152611579E+02  0.51100000000E-03 0. -1.
         11    1    3    3    0    0 -0.88145857673E+01 -0.47237329194E+01 -0.20250730754E+02  0.22585452647E+02  0.51100000000E-03 0.  1.
<mgrwt>
<rscale>  0 0.20002228E+02</rscale>
<asrwt>0</asrwt>
<pdfrwt beam="2">  1        3 0.65196630E-02 0.20002228E+02</pdfrwt>
<pdfrwt beam="1">  1       -3 0.36311557E-03 0.20002228E+02</pdfrwt>
<totfact> 0.16463220E+06</totfact>
</mgrwt>
</event>
<event>
 5    1  0.4133473E-007  0.2000012E+02  0.7818608E-02  0.1745326E+00
         -3   -1    0    0    0  501 -0.00000000000E+00  0.00000000000E+00  0.41415676036E+01  0.41426116419E+01  0.93000000000E-01 0. -1.
          3   -1    0    0  501    0  0.00000000000E+00 -0.00000000000E+00 -0.24141570278E+02  0.24141749408E+02  0.93000000000E-01 0.  1.
       1023    2    1    2    0    0  0.00000000000E+00  0.00000000000E+00 -0.20000002674E+02  0.28284361050E+02  0.20000124325E+02 0.  0.
        -11    1    3    3    0    0  0.38636330953E+01  0.92234861970E+01 -0.99579378197E+01  0.14112437217E+02  0.51100000000E-03 0.  1.
         11    1    3    3    0    0 -0.38636330953E+01 -0.92234861970E+01 -0.10042064854E+02  0.14171923833E+02  0.51100000000E-03 0. -1.
<mgrwt>
<rscale>  0 0.20000124E+02</rscale>
<asrwt>0</asrwt>
<pdfrwt beam="2">  1        3 0.37141817E-02 0.20000124E+02</pdfrwt>
<pdfrwt beam="1">  1       -3 0.63725835E-03 0.20000124E+02</pdfrwt>
<totfact> 0.17367255E+06</totfact>
</mgrwt>
</event>
<event>
 5    1  0.4152871E-007  0.2000083E+02  0.7818608E-02  0.1745312E+00
          3   -1    0    0  501    0  0.00000000000E+00  0.00000000000E+00  0.19199098619E+02  0.19199323863E+02  0.93000000000E-01 0.  1.
         -3   -1    0    0    0  501 -0.00000000000E+00 -0.00000000000E+00 -0.52083396355E+01  0.52091698723E+01  0.93000000000E-01 0. -1.
       1023    2    1    2    0    0  0.00000000000E+00  0.00000000000E+00  0.13990758983E+02  0.24408493735E+02  0.20000830720E+02 0.  0.
        -11    1    3    3    0    0 -0.58879687065E+01 -0.80832873837E+01  0.70251898888E+01  0.12221333955E+02  0.51100000000E-03 0.  1.
         11    1    3    3    0    0  0.58879687065E+01  0.80832873837E+01  0.69655690946E+01  0.12187159779E+02  0.51100000000E-03 0. -1.
<mgrwt>
<rscale>  0 0.20000831E+02</rscale>
<asrwt>0</asrwt>
<pdfrwt beam="1">  1        3 0.29537887E-02 0.20000831E+02</pdfrwt>
<pdfrwt beam="2">  1       -3 0.80136421E-03 0.20000831E+02</pdfrwt>
<totfact> 0.17601771E+06</totfact>
</mgrwt>
</event>
<event>
 5    1  0.4133473E-007  0.2000022E+02  0.7818608E-02  0.1745324E+00
         -3   -1    0    0    0  501 -0.00000000000E+00  0.00000000000E+00  0.14224511989E+01  0.14254881316E+01  0.93000000000E-01 0. -1.
          3   -1    0    0  501    0  0.00000000000E+00 -0.00000000000E+00 -0.70224726943E+02  0.70224788524E+02  0.93000000000E-01 0.  1.
       1023    2    1    2    0    0  0.00000000000E+00  0.00000000000E+00 -0.68802275744E+02  0.71650276656E+02  0.20000224930E+02 0.  0.
        -11    1    3    3    0    0  0.96674368299E+01  0.25579088379E+01 -0.34386556356E+02  0.35811136407E+02  0.51100000000E-03 0.  1.
         11    1    3    3    0    0 -0.96674368299E+01 -0.25579088379E+01 -0.34415719389E+02  0.35839140249E+02  0.51100000000E-03 0. -1.
<mgrwt>
<rscale>  0 0.20000225E+02</rscale>
<asrwt>0</asrwt>
<pdfrwt beam="2">  1        3 0.10804040E-01 0.20000225E+02</pdfrwt>
<pdfrwt beam="1">  1       -3 0.21907705E-03 0.20000225E+02</pdfrwt>
<totfact> 0.15244538E+06</totfact>
</mgrwt>
</event>
<event>
 5    1  0.4255655E-007  0.2000208E+02  0.7818608E-02  0.1745287E+00
         -3   -1    0    0    0  501 -0.00000000000E+00  0.00000000000E+00  0.14445782749E+02  0.14446082107E+02  0.93000000000E-01 0. -1.
          3   -1    0    0  501    0  0.00000000000E+00 -0.00000000000E+00 -0.69231896131E+01  0.69238142248E+01  0.93000000000E-01 0.  1.
       1023    2    1    2    0    0  0.00000000000E+00  0.00000000000E+00  0.75225931359E+01  0.21369896331E+02  0.20002076435E+02 0.  0.
        -11    1    3    3    0    0 -0.81225864141E+01 -0.58347119239E+01  0.37376015356E+01  0.10676607082E+02  0.51100000000E-03 0. -1.
         11    1    3    3    0    0  0.81225864141E+01  0.58347119239E+01  0.37849916003E+01  0.10693289249E+02  0.51100000000E-03 0.  1.
<mgrwt>
<rscale>  0 0.20002076E+02</rscale>
<asrwt>0</asrwt>
<pdfrwt beam="2">  1        3 0.10651772E-02 0.20002076E+02</pdfrwt>
<pdfrwt beam="1">  1       -3 0.22224992E-02 0.20002076E+02</pdfrwt>
<totfact> 0.17792708E+06</totfact>
</mgrwt>
</event>
<event>
 5    1  0.4133473E-007  0.2000029E+02  0.7818608E-02  0.1745322E+00
         -3   -1    0    0    0  501 -0.00000000000E+00  0.00000000000E+00  0.85520755861E+02  0.85520806428E+02  0.93000000000E-01 0. -1.
          3   -1    0    0  501    0  0.00000000000E+00 -0.00000000000E+00 -0.11674407782E+01  0.11711391764E+01  0.93000000000E-01 0.  1.
       1023    2    1    2    0    0  0.00000000000E+00  0.00000000000E+00  0.84353315083E+02  0.86691945604E+02  0.20000291677E+02 0.  0.
        -11    1    3    3    0    0  0.23955984829E+01  0.97089156506E+01  0.42040873465E+02  0.43213851682E+02  0.51100000000E-03 0. -1.
         11    1    3    3    0    0 -0.23955984829E+01 -0.97089156506E+01  0.42312441618E+02  0.43478093923E+02  0.51100000000E-03 0.  1.
<mgrwt>
<rscale>  0 0.20000292E+02</rscale>
<asrwt>0</asrwt>
<pdfrwt beam="2">  1        3 0.17989455E-03 0.20000292E+02</pdfrwt>
<pdfrwt beam="1">  1       -3 0.13157335E-01 0.20000292E+02</pdfrwt>
<totfact> 0.14658988E+06</totfact>
</mgrwt>
</event>
<event>
 5    1  0.4133473E-007  0.2000503E+02  0.7818608E-02  0.1745228E+00
          3   -1    0    0  501    0  0.00000000000E+00  0.00000000000E+00  0.82424469084E+01  0.82429715539E+01  0.93000000000E-01 0.  1.
         -3   -1    0    0    0  501 -0.00000000000E+00 -0.00000000000E+00 -0.12137328684E+02  0.12137684976E+02  0.93000000000E-01 0. -1.
       1023    2    1    2    0    0  0.00000000000E+00  0.00000000000E+00 -0.38948817757E+01  0.20380656530E+02  0.20005025783E+02 0.  0.
        -11    1    3    3    0    0 -0.95521834815E+01 -0.29656010884E+01 -0.18393122382E+01  0.10169664146E+02  0.51100000000E-03 0. -1.
         11    1    3    3    0    0  0.95521834815E+01  0.29656010884E+01 -0.20555695375E+01  0.10210992384E+02  0.51100000000E-03 0.  1.
<mgrwt>
<rscale>  0 0.20005026E+02</rscale>
<asrwt>0</asrwt>
<pdfrwt beam="1">  1        3 0.12681365E-02 0.20005026E+02</pdfrwt>
<pdfrwt beam="2">  1       -3 0.18673491E-02 0.20005026E+02</pdfrwt>
<totfact> 0.17851213E+06</totfact>
</mgrwt>
</event>
<event>
 5    1  0.4133473E-007  0.2000031E+02  0.7818608E-02  0.1745322E+00
          3   -1    0    0  501    0  0.00000000000E+00  0.00000000000E+00  0.23068341177E+02  0.23068528641E+02  0.93000000000E-01 0.  1.
         -3   -1    0    0    0  501 -0.00000000000E+00 -0.00000000000E+00 -0.43343766229E+01  0.43353742294E+01  0.93000000000E-01 0. -1.
       1023    2    1    2    0    0  0.00000000000E+00  0.00000000000E+00  0.18733964554E+02  0.27403902870E+02  0.20000311613E+02 0.  0.
        -11    1    3    3    0    0  0.86105882862E+01  0.50853379371E+01  0.93874582333E+01  0.13715949290E+02  0.51100000000E-03 0. -1.
         11    1    3    3    0    0 -0.86105882862E+01 -0.50853379371E+01  0.93465063208E+01  0.13687953581E+02  0.51100000000E-03 0.  1.
<mgrwt>
<rscale>  0 0.20000312E+02</rscale>
<asrwt>0</asrwt>
<pdfrwt beam="1">  1        3 0.35490667E-02 0.20000312E+02</pdfrwt>
<pdfrwt beam="2">  1       -3 0.66691834E-03 0.20000312E+02</pdfrwt>
<totfact> 0.17419559E+06</totfact>
</mgrwt>
</event>
<event>
 5    1  0.4133473E-007  0.2000051E+02  0.7818608E-02  0.1745318E+00
          3   -1    0    0  501    0  0.00000000000E+00  0.00000000000E+00  0.12317304283E+01  0.12352363531E+01  0.93000000000E-01 0.  1.
         -3   -1    0    0    0  501 -0.00000000000E+00 -0.00000000000E+00 -0.81071815556E+02  0.81071868897E+02  0.93000000000E-01 0. -1.
       1023    2    1    2    0    0  0.00000000000E+00  0.00000000000E+00 -0.79840085127E+02  0.82307105251E+02  0.20000509532E+02 0.  0.
        -11    1    3    3    0    0 -0.18102405748E-01  0.10000068112E+02 -0.39679901241E+02  0.40920609144E+02  0.51100000000E-03 0.  1.
         11    1    3    3    0    0  0.18102405748E-01 -0.10000068112E+02 -0.40160183886E+02  0.41386496107E+02  0.51100000000E-03 0. -1.
<mgrwt>
<rscale>  0 0.20000510E+02</rscale>
<asrwt>0</asrwt>
<pdfrwt beam="1">  1        3 0.18977084E-03 0.20000510E+02</pdfrwt>
<pdfrwt beam="2">  1       -3 0.12472857E-01 0.20000510E+02</pdfrwt>
<totfact> 0.14824496E+06</totfact>
</mgrwt>
</event>
<event>
 5    1  0.4133473E-007  0.2000002E+02  0.7818608E-02  0.1745328E+00
          3   -1    0    0  501    0  0.00000000000E+00  0.00000000000E+00  0.99479568094E+02  0.99479611565E+02  0.93000000000E-01 0. -1.
         -3   -1    0    0    0  501 -0.00000000000E+00 -0.00000000000E+00 -0.10030387044E+01  0.10073408770E+01  0.93000000000E-01 0.  1.
       1023    2    1    2    0    0  0.00000000000E+00  0.00000000000E+00  0.98476529390E+02  0.10048695244E+03  0.20000019263E+02 0.  0.
        -11    1    3    3    0    0  0.49170961365E+01  0.87076022344E+01  0.49215087922E+02  0.50220763142E+02  0.51100000000E-03 0.  1.
         11    1    3    3    0    0 -0.49170961365E+01 -0.87076022344E+01  0.49261441467E+02  0.50266189301E+02  0.51100000000E-03 0. -1.
<mgrwt>
<rscale>  0 0.20000019E+02</rscale>
<asrwt>0</asrwt>
<pdfrwt beam="1">  1        3 0.15304886E-01 0.20000019E+02</pdfrwt>
<pdfrwt beam="2">  1       -3 0.15464790E-03 0.20000019E+02</pdfrwt>
<totfact> 0.14161163E+06</totfact>
</mgrwt>
</event>
<event>
 5    1  0.4133473E-007  0.2000089E+02  0.7818608E-02  0.1745310E+00
          3   -1    0    0  501    0  0.00000000000E+00  0.00000000000E+00  0.10008210163E+01  0.10051326811E+01  0.93000000000E-01 0.  1.
         -3   -1    0    0    0  501 -0.00000000000E+00 -0.00000000000E+00 -0.99707726656E+02  0.99707770028E+02  0.93000000000E-01 0. -1.
       1023    2    1    2    0    0  0.00000000000E+00  0.00000000000E+00 -0.98706905640E+02  0.10071290271E+03  0.20000888757E+02 0.  0.
        -11    1    3    3    0    0  0.98525864247E+01 -0.17110436107E+01 -0.49796970669E+02  0.50791135226E+02  0.51100000000E-03 0. -1.
         11    1    3    3    0    0 -0.98525864247E+01  0.17110436107E+01 -0.48909934971E+02  0.49921767483E+02  0.51100000000E-03 0.  1.
<mgrwt>
<rscale>  0 0.20000889E+02</rscale>
<asrwt>0</asrwt>
<pdfrwt beam="1">  1        3 0.15430755E-03 0.20000889E+02</pdfrwt>
<pdfrwt beam="2">  1       -3 0.15339977E-01 0.20000889E+02</pdfrwt>
<totfact> 0.14154881E+06</totfact>
</mgrwt>
</event>
<event>
 5    1  0.4133473E-007  0.2000106E+02  0.7818608E-02  0.1745307E+00
          3   -1    0    0  501    0  0.00000000000E+00  0.00000000000E+00  0.98396324783E+00  0.98834845731E+00  0.93000000000E-01 0. -1.
         -3   -1    0    0    0  501 -0.00000000000E+00 -0.00000000000E+00 -0.10141023703E+03  0.10141027968E+03  0.93000000000E-01 0.  1.
       1023    2    1    2    0    0  0.00000000000E+00  0.00000000000E+00 -0.10042627379E+03  0.10239862814E+03  0.20001064405E+02 0.  0.
        -11    1    3    3    0    0  0.13788290695E+01  0.99047696833E+01 -0.49850688458E+02  0.50843846944E+02  0.51100000000E-03 0. -1.
         11    1    3    3    0    0 -0.13788290695E+01 -0.99047696833E+01 -0.50575585329E+02  0.51554781192E+02  0.51100000000E-03 0.  1.
<mgrwt>
<rscale>  0 0.20001064E+02</rscale>
<asrwt>0</asrwt>
<pdfrwt beam="1">  1        3 0.15171965E-03 0.20001064E+02</pdfrwt>
<pdfrwt beam="2">  1       -3 0.15601907E-01 0.20001064E+02</pdfrwt>
<totfact> 0.14096749E+06</totfact>
</mgrwt>
</event>
<event>
 5    1  0.4133473E-007  0.2000011E+02  0.7818608E-02  0.1745326E+00
          3   -1    0    0  501    0  0.00000000000E+00  0.00000000000E+00  0.35769429740E+01  0.35781517631E+01  0.93000000000E-01 0. -1.
         -3   -1    0    0    0  501 -0.00000000000E+00 -0.00000000000E+00 -0.27951123315E+02  0.27951278031E+02  0.93000000000E-01 0.  1.
       1023    2    1    2    0    0  0.00000000000E+00  0.00000000000E+00 -0.24374180341E+02  0.31529429794E+02  0.20000106896E+02 0.  0.
        -11    1    3    3    0    0 -0.99986281247E+01 -0.16763598190E+00 -0.12218717946E+02  0.15789165104E+02  0.51100000000E-03 0. -1.
         11    1    3    3    0    0  0.99986281247E+01  0.16763598190E+00 -0.12155462395E+02  0.15740264690E+02  0.51100000000E-03 0.  1.
<mgrwt>
<rscale>  0 0.20000107E+02</rscale>
<asrwt>0</asrwt>
<pdfrwt beam="1">  1        3 0.55040382E-03 0.20000107E+02</pdfrwt>
<pdfrwt beam="2">  1       -3 0.43002776E-02 0.20000107E+02</pdfrwt>
<totfact> 0.17179461E+06</totfact>
</mgrwt>
</event>
<event>
 5    1  0.4133473E-007  0.2000053E+02  0.7818608E-02  0.1745318E+00
         -3   -1    0    0    0  501 -0.00000000000E+00  0.00000000000E+00  0.13432577337E+01  0.13464732969E+01  0.93000000000E-01 0.  1.
          3   -1    0    0  501    0  0.00000000000E+00 -0.00000000000E+00 -0.74357557227E+02  0.74357615385E+02  0.93000000000E-01 0. -1.
       1023    2    1    2    0    0  0.00000000000E+00  0.00000000000E+00 -0.73014299493E+02  0.75704088682E+02  0.20000527810E+02 0.  0.
        -11    1    3    3    0    0  0.96654360802E+01 -0.25658205896E+01 -0.36376687632E+02  0.37726217585E+02  0.51100000000E-03 0. -1.
         11    1    3    3    0    0 -0.96654360802E+01  0.25658205896E+01 -0.36637611861E+02  0.37977871097E+02  0.51100000000E-03 0.  1.
<mgrwt>
<rscale>  0 0.20000528E+02</rscale>
<asrwt>0</asrwt>
<pdfrwt beam="2">  1        3 0.11439873E-01 0.20000528E+02</pdfrwt>
<pdfrwt beam="1">  1       -3 0.20690692E-03 0.20000528E+02</pdfrwt>
<totfact> 0.15079847E+06</totfact>
</mgrwt>
</event>
<event>
 5    1  0.4198871E-007  0.2000114E+02  0.7818608E-02  0.1745305E+00
         -3   -1    0    0    0  501 -0.00000000000E+00  0.00000000000E+00  0.20895692300E+02  0.20895899256E+02  0.93000000000E-01 0.  1.
          3   -1    0    0  501    0  0.00000000000E+00 -0.00000000000E+00 -0.47855405582E+01  0.47864441326E+01  0.93000000000E-01 0. -1.
       1023    2    1    2    0    0  0.00000000000E+00  0.00000000000E+00  0.16110151742E+02  0.25682343388E+02  0.20001144286E+02 0.  0.
        -11    1    3    3    0    0 -0.95962451015E+01  0.28146301762E+01  0.81027734381E+01  0.12871091668E+02  0.51100000000E-03 0.  1.
         11    1    3    3    0    0  0.95962451015E+01 -0.28146301762E+01  0.80073783039E+01  0.12811251720E+02  0.51100000000E-03 0. -1.
<mgrwt>
<rscale>  0 0.20001144E+02</rscale>
<asrwt>0</asrwt>
<pdfrwt beam="2">  1        3 0.73632243E-03 0.20001144E+02</pdfrwt>
<pdfrwt beam="1">  1       -3 0.32148073E-02 0.20001144E+02</pdfrwt>
<totfact> 0.17523725E+06</totfact>
</mgrwt>
</event>
<event>
 5    1  0.4133473E-007  0.2000330E+02  0.7818608E-02  0.1745262E+00
         -3   -1    0    0    0  501 -0.00000000000E+00  0.00000000000E+00  0.16754846287E+01  0.16780636880E+01  0.93000000000E-01 0.  1.
          3   -1    0    0  501    0  0.00000000000E+00 -0.00000000000E+00 -0.59655395106E+02  0.59655467597E+02  0.93000000000E-01 0. -1.
       1023    2    1    2    0    0  0.00000000000E+00  0.00000000000E+00 -0.57979910477E+02  0.61333531285E+02  0.20003300752E+02 0.  0.
        -11    1    3    3    0    0 -0.97869197787E+01 -0.20585447613E+01 -0.29320258665E+02  0.30979008598E+02  0.51100000000E-03 0.  1.
         11    1    3    3    0    0  0.97869197787E+01  0.20585447613E+01 -0.28659651812E+02  0.30354522687E+02  0.51100000000E-03 0. -1.
<mgrwt>
<rscale>  0 0.20003301E+02</rscale>
<asrwt>0</asrwt>
<pdfrwt beam="2">  1        3 0.91779554E-02 0.20003301E+02</pdfrwt>
<pdfrwt beam="1">  1       -3 0.25797088E-03 0.20003301E+02</pdfrwt>
<totfact> 0.15678825E+06</totfact>
</mgrwt>
</event>
<event>
 5    1  0.4133473E-007  0.2000125E+02  0.7818608E-02  0.1745303E+00
         -3   -1    0    0    0  501 -0.00000000000E+00  0.00000000000E+00  0.25442278099E+01  0.25459269723E+01  0.93000000000E-01 0.  1.
          3   -1    0    0  501    0  0.00000000000E+00 -0.00000000000E+00 -0.39294684619E+02  0.39294794672E+02  0.93000000000E-01 0. -1.
       1023    2    1    2    0    0  0.00000000000E+00  0.00000000000E+00 -0.36750456809E+02  0.41840721644E+02  0.20001247762E+02 0.  0.
        -11    1    3    3    0    0  0.84466896344E+01  0.53540235366E+01 -0.18414023899E+02  0.20954436528E+02  0.51100000000E-03 0.  1.
         11    1    3    3    0    0 -0.84466896344E+01 -0.53540235366E+01 -0.18336432910E+02  0.20886285116E+02  0.51100000000E-03 0. -1.
<mgrwt>
<rscale>  0 0.20001248E+02</rscale>
<asrwt>0</asrwt>
<pdfrwt beam="2">  1        3 0.60454748E-02 0.20001248E+02</pdfrwt>
<pdfrwt beam="1">  1       -3 0.39155886E-03 0.20001248E+02</pdfrwt>
<totfact> 0.16613368E+06</totfact>
</mgrwt>
</event>
<event>
 5    1  0.4133473E-007  0.2000043E+02  0.7818608E-02  0.1745320E+00
         -3   -1    0    0    0  501 -0.00000000000E+00  0.00000000000E+00  0.22467841172E+01  0.22487080445E+01  0.93000000000E-01 0.  1.
          3   -1    0    0  501    0  0.00000000000E+00 -0.00000000000E+00 -0.44488929722E+02  0.44489026926E+02  0.93000000000E-01 0. -1.
       1023    2    1    2    0    0  0.00000000000E+00  0.00000000000E+00 -0.42242145605E+02  0.46737734971E+02  0.20000425117E+02 0.  0.
        -11    1    3    3    0    0  0.50344125056E+01 -0.86404210161E+01 -0.21014847148E+02  0.23272859419E+02  0.51100000000E-03 0. -1.
         11    1    3    3    0    0 -0.50344125056E+01  0.86404210161E+01 -0.21227298457E+02  0.23464875552E+02  0.51100000000E-03 0.  1.
<mgrwt>
<rscale>  0 0.20000425E+02</rscale>
<asrwt>0</asrwt>
<pdfrwt beam="2">  1        3 0.68446056E-02 0.20000425E+02</pdfrwt>
<pdfrwt beam="1">  1       -3 0.34581460E-03 0.20000425E+02</pdfrwt>
<totfact> 0.16366187E+06</totfact>
</mgrwt>
</event>
<event>
 5    1  0.4320850E-007  0.2000125E+02  0.7818608E-02  0.1745303E+00
          3   -1    0    0  501    0  0.00000000000E+00  0.00000000000E+00  0.26235135880E+02  0.26235300715E+02  0.93000000000E-01 0. -1.
         -3   -1    0    0    0  501 -0.00000000000E+00 -0.00000000000E+00 -0.38114164302E+01  0.38125508789E+01  0.93000000000E-01 0.  1.
       1023    2    1    2    0    0  0.00000000000E+00  0.00000000000E+00  0.22423719449E+02  0.30047851594E+02  0.20001254748E+02 0.  0.
        -11    1    3    3    0    0  0.28429822832E+01  0.95879213525E+01  0.11148772386E+02  0.14976845800E+02  0.51100000000E-03 0.  1.
         11    1    3    3    0    0 -0.28429822832E+01 -0.95879213525E+01  0.11274947063E+02  0.15071005795E+02  0.51100000000E-03 0. -1.
<mgrwt>
<rscale>  0 0.20001255E+02</rscale>
<asrwt>0</asrwt>
<pdfrwt beam="1">  1        3 0.40362748E-02 0.20001255E+02</pdfrwt>
<pdfrwt beam="2">  1       -3 0.58647169E-03 0.20001255E+02</pdfrwt>
<totfact> 0.17261271E+06</totfact>
</mgrwt>
</event>
<event>
 4    1  0.4133473E-007  0.2005727E+02  0.7818608E-02  0.1744192E+00
          3   -1    0    0  501    0  0.00000000000E+00  0.00000000000E+00  0.35703539287E+01  0.35715649477E+01  0.93000000000E-01 0.  1.
         -3   -1    0    0    0  501 -0.00000000000E+00 -0.00000000000E+00 -0.28163006503E+02  0.28163160055E+02  0.93000000000E-01 0. -1.
        -11    1    1    2    0    0 -0.85999850202E+01  0.51274914874E+01 -0.13195042640E+02  0.16563817852E+02  0.51100000000E-03 0. -1.
         11    1    1    2    0    0  0.85999850202E+01 -0.51274914874E+01 -0.11397609934E+02  0.15170907151E+02  0.51100000000E-03 0.  1.
<mgrwt>
<rscale>  0 0.20057273E+02</rscale>
<asrwt>0</asrwt>
<pdfrwt beam="1">  1        3 0.54939021E-03 0.20057273E+02</pdfrwt>
<pdfrwt beam="2">  1       -3 0.43328750E-02 0.20057273E+02</pdfrwt>
<totfact> 0.17062573E+06</totfact>
</mgrwt>
</event>
<event>
 5    1  0.4207049E-007  0.2000230E+02  0.7818608E-02  0.1745282E+00
         -3   -1    0    0    0  501 -0.00000000000E+00  0.00000000000E+00  0.95258792195E+01  0.95263331825E+01  0.93000000000E-01 0. -1.
          3   -1    0    0  501    0  0.00000000000E+00 -0.00000000000E+00 -0.10499227650E+02  0.10499639529E+02  0.93000000000E-01 0.  1.
       1023    2    1    2    0    0  0.00000000000E+00  0.00000000000E+00 -0.97334843062E+00  0.20025972712E+02  0.20002304265E+02 0.  0.
        -11    1    3    3    0    0 -0.92806739140E+01 -0.37244735801E+01 -0.62978378143E+00  0.10019942097E+02  0.51100000000E-03 0. -1.
         11    1    3    3    0    0  0.92806739140E+01  0.37244735801E+01 -0.34356464920E+00  0.10006030615E+02  0.51100000000E-03 0.  1.
<mgrwt>
<rscale>  0 0.20002304E+02</rscale>
<asrwt>0</asrwt>
<pdfrwt beam="2">  1        3 0.16153324E-02 0.20002304E+02</pdfrwt>
<pdfrwt beam="1">  1       -3 0.14655865E-02 0.20002304E+02</pdfrwt>
<totfact> 0.17879456E+06</totfact>
</mgrwt>
</event>
<event>
 5    1  0.4133473E-007  0.2000015E+02  0.7818608E-02  0.1745325E+00
         -3   -1    0    0    0  501 -0.00000000000E+00  0.00000000000E+00  0.52508810677E+02  0.52508893034E+02  0.93000000000E-01 0.  1.
          3   -1    0    0  501    0  0.00000000000E+00 -0.00000000000E+00 -0.19032518369E+01  0.19055226461E+01  0.93000000000E-01 0. -1.
       1023    2    1    2    0    0  0.00000000000E+00  0.00000000000E+00  0.50605558840E+02  0.54414415681E+02  0.20000151208E+02 0.  0.
        -11    1    3    3    0    0  0.46718700069E+01 -0.88416628581E+01  0.25335013633E+02  0.27237185748E+02  0.51100000000E-03 0. -1.
         11    1    3    3    0    0 -0.46718700069E+01  0.88416628581E+01  0.25270545207E+02  0.27177229932E+02  0.51100000000E-03 0.  1.
<mgrwt>
<rscale>  0 0.20000151E+02</rscale>
<asrwt>0</asrwt>
<pdfrwt beam="2">  1        3 0.29298899E-03 0.20000151E+02</pdfrwt>
<pdfrwt beam="1">  1       -3 0.80784597E-02 0.20000151E+02</pdfrwt>
<totfact> 0.16000376E+06</totfact>
</mgrwt>
</event>
<event>
 5    1  0.4133473E-007  0.2000156E+02  0.7818608E-02  0.1745297E+00
         -3   -1    0    0    0  501 -0.00000000000E+00  0.00000000000E+00  0.31604020497E+01  0.31617700921E+01  0.93000000000E-01 0.  1.
          3   -1    0    0  501    0  0.00000000000E+00 -0.00000000000E+00 -0.31638192964E+02  0.31638329650E+02  0.93000000000E-01 0. -1.
       1023    2    1    2    0    0  0.00000000000E+00  0.00000000000E+00 -0.28477790914E+02  0.34800099742E+02  0.20001559106E+02 0.  0.
        -11    1    3    3    0    0 -0.99269748006E+01 -0.12111421890E+01 -0.14130278031E+02  0.17311165518E+02  0.51100000000E-03 0.  1.
         11    1    3    3    0    0  0.99269748006E+01  0.12111421890E+01 -0.14347512883E+02  0.17488934224E+02  0.51100000000E-03 0. -1.
<mgrwt>
<rscale>  0 0.20001559E+02</rscale>
<asrwt>0</asrwt>
<pdfrwt beam="2">  1        3 0.48675298E-02 0.20001559E+02</pdfrwt>
<pdfrwt beam="1">  1       -3 0.48633147E-03 0.20001559E+02</pdfrwt>
<totfact> 0.16990283E+06</totfact>
</mgrwt>
</event>
<event>
 5    1  0.4133473E-007  0.2000037E+02  0.7818608E-02  0.1745321E+00
         -3   -1    0    0    0  501 -0.00000000000E+00  0.00000000000E+00  0.36652590573E+01  0.36664387295E+01  0.93000000000E-01 0. -1.
          3   -1    0    0  501    0  0.00000000000E+00 -0.00000000000E+00 -0.27278560090E+02  0.27278718620E+02  0.93000000000E-01 0.  1.
       1023    2    1    2    0    0  0.00000000000E+00  0.00000000000E+00 -0.23613301033E+02  0.30945157350E+02  0.20000369441E+02 0.  0.
        -11    1    3    3    0    0 -0.60456219967E+01  0.79656629267E+01 -0.11881862283E+02  0.15529970469E+02  0.51100000000E-03 0. -1.
         11    1    3    3    0    0  0.60456219967E+01 -0.79656629267E+01 -0.11731438749E+02  0.15415186881E+02  0.51100000000E-03 0.  1.
<mgrwt>
<rscale>  0 0.20000369E+02</rscale>
<asrwt>0</asrwt>
<pdfrwt beam="2">  1        3 0.41968044E-02 0.20000369E+02</pdfrwt>
<pdfrwt beam="1">  1       -3 0.56398897E-03 0.20000369E+02</pdfrwt>
<totfact> 0.17210862E+06</totfact>
</mgrwt>
</event>
<event>
 4    1  0.4241380E-007  0.2105240E+02  0.7818608E-02  0.1725175E+00
         -3   -1    0    0    0  501 -0.00000000000E+00  0.00000000000E+00  0.19014026210E+02  0.19014253646E+02  0.93000000000E-01 0.  1.
          3   -1    0    0  501    0  0.00000000000E+00 -0.00000000000E+00 -0.58266902736E+01  0.58274324144E+01  0.93000000000E-01 0. -1.
        -11    1    1    2    0    0 -0.91046324138E+01 -0.50568471524E+01  0.47906132407E+01  0.11463682218E+02  0.51100000000E-03 0. -1.
         11    1    1    2    0    0  0.91046324138E+01  0.50568471524E+01  0.83967226954E+01  0.13378003842E+02  0.51100000000E-03 0.  1.
<mgrwt>
<rscale>  0 0.21052400E+02</rscale>
<asrwt>0</asrwt>
<pdfrwt beam="2">  1        3 0.89648847E-03 0.21052400E+02</pdfrwt>
<pdfrwt beam="1">  1       -3 0.29253094E-02 0.21052400E+02</pdfrwt>
<totfact> 0.15725957E+06</totfact>
</mgrwt>
</event>
<event>
 5    1  0.4140166E-007  0.2000162E+02  0.7818608E-02  0.1745296E+00
         -3   -1    0    0    0  501 -0.00000000000E+00  0.00000000000E+00  0.48959269736E+01  0.48968101791E+01  0.93000000000E-01 0. -1.
          3   -1    0    0  501    0  0.00000000000E+00 -0.00000000000E+00 -0.20425616860E+02  0.20425828578E+02  0.93000000000E-01 0.  1.
       1023    2    1    2    0    0  0.00000000000E+00  0.00000000000E+00 -0.15529689886E+02  0.25322638757E+02  0.20001619076E+02 0.  0.
        -11    1    3    3    0    0  0.26544527234E+01  0.96417471158E+01 -0.76605649272E+01  0.12597367263E+02  0.51100000000E-03 0. -1.
         11    1    3    3    0    0 -0.26544527234E+01 -0.96417471158E+01 -0.78691249588E+01  0.12725271494E+02  0.51100000000E-03 0.  1.
<mgrwt>
<rscale>  0 0.20001619E+02</rscale>
<asrwt>0</asrwt>
<pdfrwt beam="2">  1        3 0.31424868E-02 0.20001619E+02</pdfrwt>
<pdfrwt beam="1">  1       -3 0.75330377E-03 0.20001619E+02</pdfrwt>
<totfact> 0.17543636E+06</totfact>
</mgrwt>
</event>
<event>
 5    1  0.4133473E-007  0.2000037E+02  0.7818608E-02  0.1745321E+00
          3   -1    0    0  501    0  0.00000000000E+00  0.00000000000E+00  0.29290244675E+02  0.29290392317E+02  0.93000000000E-01 0. -1.
         -3   -1    0    0    0  501 -0.00000000000E+00 -0.00000000000E+00 -0.34134416589E+01  0.34147083271E+01  0.93000000000E-01 0.  1.
       1023    2    1    2    0    0  0.00000000000E+00  0.00000000000E+00  0.25876803016E+02  0.32705100644E+02  0.20000366843E+02 0.  0.
        -11    1    3    3    0    0 -0.88569227004E+01 -0.46430504798E+01  0.12896052009E+02  0.16319042715E+02  0.51100000000E-03 0. -1.
         11    1    3    3    0    0  0.88569227004E+01  0.46430504798E+01  0.12980751007E+02  0.16386057929E+02  0.51100000000E-03 0.  1.
<mgrwt>
<rscale>  0 0.20000367E+02</rscale>
<asrwt>0</asrwt>
<pdfrwt beam="1">  1        3 0.45063002E-02 0.20000367E+02</pdfrwt>
<pdfrwt beam="2">  1       -3 0.52525367E-03 0.20000367E+02</pdfrwt>
<totfact> 0.17110035E+06</totfact>
</mgrwt>
</event>
<event>
 5    1  0.4133473E-007  0.2000048E+02  0.7818608E-02  0.1745319E+00
          3   -1    0    0  501    0  0.00000000000E+00  0.00000000000E+00  0.27027040979E+02  0.27027200985E+02  0.93000000000E-01 0. -1.
         -3   -1    0    0    0  501 -0.00000000000E+00 -0.00000000000E+00 -0.36994209557E+01  0.37005897378E+01  0.93000000000E-01 0.  1.
       1023    2    1    2    0    0  0.00000000000E+00  0.00000000000E+00  0.23327620023E+02  0.30727790723E+02  0.20000481663E+02 0.  0.
        -11    1    3    3    0    0  0.99626200153E+01 -0.86647313954E+00  0.11687767001E+02  0.15382082791E+02  0.51100000000E-03 0.  1.
         11    1    3    3    0    0 -0.99626200153E+01  0.86647313954E+00  0.11639853023E+02  0.15345707932E+02  0.51100000000E-03 0. -1.
<mgrwt>
<rscale>  0 0.20000482E+02</rscale>
<asrwt>0</asrwt>
<pdfrwt beam="1">  1        3 0.41581086E-02 0.20000482E+02</pdfrwt>
<pdfrwt beam="2">  1       -3 0.56924389E-03 0.20000482E+02</pdfrwt>
<totfact> 0.17223216E+06</totfact>
</mgrwt>
</event>
<event>
 5    1  0.4243384E-007  0.2000130E+02  0.7818608E-02  0.1745302E+00
         -3   -1    0    0    0  501 -0.00000000000E+00  0.00000000000E+00  0.27478581147E+01  0.27494314355E+01  0.93000000000E-01 0. -1.
          3   -1    0    0  501    0  0.00000000000E+00 -0.00000000000E+00 -0.36384649435E+02  0.36384768290E+02  0.93000000000E-01 0.  1.
       1023    2    1    2    0    0  0.00000000000E+00  0.00000000000E+00 -0.33636791321E+02  0.39134199726E+02  0.20001296404E+02 0.  0.
        -11    1    3    3    0    0  0.22823417170E+01 -0.97363948949E+01 -0.16976078969E+02  0.19702632481E+02  0.51100000000E-03 0.  1.
         11    1    3    3    0    0 -0.22823417170E+01  0.97363948949E+01 -0.16660712351E+02  0.19431567244E+02  0.51100000000E-03 0. -1.
<mgrwt>
<rscale>  0 0.20001296E+02</rscale>
<asrwt>0</asrwt>
<pdfrwt beam="2">  1        3 0.55977682E-02 0.20001296E+02</pdfrwt>
<pdfrwt beam="1">  1       -3 0.42287760E-03 0.20001296E+02</pdfrwt>
<totfact> 0.16755341E+06</totfact>
</mgrwt>
</event>
<event>
 4    1  0.4133473E-007  0.2001641E+02  0.7818608E-02  0.1745002E+00
         -3   -1    0    0    0  501 -0.00000000000E+00  0.00000000000E+00  0.18177388702E+02  0.18177626606E+02  0.93000000000E-01 0.  1.
          3   -1    0    0  501    0  0.00000000000E+00 -0.00000000000E+00 -0.55097051396E+01  0.55104899715E+01  0.93000000000E-01 0. -1.
        -11    1    1    2    0    0  0.50920618874E+01  0.86093775822E+01  0.67328684911E+01  0.12057445625E+02  0.51100000000E-03 0. -1.
         11    1    1    2    0    0 -0.50920618874E+01 -0.86093775822E+01  0.59348150716E+01  0.11630670953E+02  0.51100000000E-03 0.  1.
<mgrwt>
<rscale>  0 0.20016410E+02</rscale>
<asrwt>0</asrwt>
<pdfrwt beam="2">  1        3 0.84772559E-03 0.20016410E+02</pdfrwt>
<pdfrwt beam="1">  1       -3 0.27966001E-02 0.20016410E+02</pdfrwt>
<totfact> 0.17618255E+06</totfact>
</mgrwt>
</event>
<event>
 5    1  0.4133473E-007  0.2000357E+02  0.7818608E-02  0.1745257E+00
         -3   -1    0    0    0  501 -0.00000000000E+00  0.00000000000E+00  0.11819252361E+02  0.11819618242E+02  0.93000000000E-01 0.  1.
          3   -1    0    0  501    0  0.00000000000E+00 -0.00000000000E+00 -0.84630390207E+01  0.84635499919E+01  0.93000000000E-01 0. -1.
       1023    2    1    2    0    0  0.00000000000E+00  0.00000000000E+00  0.33562133405E+01  0.20283168234E+02  0.20003568322E+02 0.  0.
        -11    1    3    3    0    0 -0.97872381866E+01 -0.20590721598E+01  0.17558375449E+01  0.10154446082E+02  0.51100000000E-03 0. -1.
         11    1    3    3    0    0  0.97872381866E+01  0.20590721598E+01  0.16003757956E+01  0.10128722152E+02  0.51100000000E-03 0.  1.
<mgrwt>
<rscale>  0 0.20003568E+02</rscale>
<asrwt>0</asrwt>
<pdfrwt beam="2">  1        3 0.13020735E-02 0.20003568E+02</pdfrwt>
<pdfrwt beam="1">  1       -3 0.18184140E-02 0.20003568E+02</pdfrwt>
<totfact> 0.17860369E+06</totfact>
</mgrwt>
</event>
<event>
 5    1  0.4133473E-007  0.2000550E+02  0.7818608E-02  0.1745219E+00
         -3   -1    0    0    0  501 -0.00000000000E+00  0.00000000000E+00  0.13572682895E+01  0.13604507377E+01  0.93000000000E-01 0. -1.
          3   -1    0    0  501    0  0.00000000000E+00 -0.00000000000E+00 -0.73628357311E+02  0.73628416045E+02  0.93000000000E-01 0.  1.
       1023    2    1    2    0    0  0.00000000000E+00  0.00000000000E+00 -0.72271089022E+02  0.74988866783E+02  0.20005495071E+02 0.  0.
        -11    1    3    3    0    0 -0.18528585173E+01  0.98273111406E+01 -0.35333094582E+02  0.36721066188E+02  0.51100000000E-03 0.  1.
         11    1    3    3    0    0  0.18528585173E+01 -0.98273111406E+01 -0.36937994440E+02  0.38267800596E+02  0.51100000000E-03 0. -1.
<mgrwt>
<rscale>  0 0.20005495E+02</rscale>
<asrwt>0</asrwt>
<pdfrwt beam="2">  1        3 0.11327686E-01 0.20005495E+02</pdfrwt>
<pdfrwt beam="1">  1       -3 0.20905989E-03 0.20005495E+02</pdfrwt>
<totfact> 0.15100437E+06</totfact>
</mgrwt>
</event>
<event>
 5    1  0.4133473E-007  0.2000073E+02  0.7818608E-02  0.1745314E+00
          3   -1    0    0  501    0  0.00000000000E+00  0.00000000000E+00  0.20044145993E+02  0.20044361741E+02  0.93000000000E-01 0.  1.
         -3   -1    0    0    0  501 -0.00000000000E+00 -0.00000000000E+00 -0.49886739084E+01  0.49895406968E+01  0.93000000000E-01 0. -1.
       1023    2    1    2    0    0  0.00000000000E+00  0.00000000000E+00  0.15055472085E+02  0.25033902437E+02  0.20000725776E+02 0.  0.
        -11    1    3    3    0    0  0.99938797095E+01  0.35967163107E+00  0.75480072473E+01  0.12529142389E+02  0.51100000000E-03 0.  1.
         11    1    3    3    0    0 -0.99938797095E+01 -0.35967163107E+00  0.75074648372E+01  0.12504760049E+02  0.51100000000E-03 0. -1.
<mgrwt>
<rscale>  0 0.20000726E+02</rscale>
<asrwt>0</asrwt>
<pdfrwt beam="1">  1        3 0.30837981E-02 0.20000726E+02</pdfrwt>
<pdfrwt beam="2">  1       -3 0.76757155E-03 0.20000726E+02</pdfrwt>
<totfact> 0.17563142E+06</totfact>
</mgrwt>
</event>
<event>
 5    1  0.4133473E-007  0.2000040E+02  0.7818608E-02  0.1745320E+00
         -3   -1    0    0    0  501 -0.00000000000E+00  0.00000000000E+00  0.51030260233E+01  0.51038733913E+01  0.93000000000E-01 0.  1.
          3   -1    0    0  501    0  0.00000000000E+00 -0.00000000000E+00 -0.19594412394E+02  0.19594633093E+02  0.93000000000E-01 0. -1.
       1023    2    1    2    0    0  0.00000000000E+00  0.00000000000E+00 -0.14491386370E+02  0.24698506484E+02  0.20000398587E+02 0.  0.
        -11    1    3    3    0    0 -0.91490678313E+01 -0.40371419343E+01 -0.72522818888E+01  0.12353119041E+02  0.51100000000E-03 0. -1.
         11    1    3    3    0    0  0.91490678313E+01  0.40371419343E+01 -0.72391044814E+01  0.12345387444E+02  0.51100000000E-03 0.  1.
<mgrwt>
<rscale>  0 0.20000399E+02</rscale>
<asrwt>0</asrwt>
<pdfrwt beam="2">  1        3 0.30146071E-02 0.20000399E+02</pdfrwt>
<pdfrwt beam="1">  1       -3 0.78516310E-03 0.20000399E+02</pdfrwt>
<totfact> 0.17584545E+06</totfact>
</mgrwt>
</event>
<event>
 5    1  0.4133473E-007  0.2000179E+02  0.7818608E-02  0.1745293E+00
         -3   -1    0    0    0  501 -0.00000000000E+00  0.00000000000E+00  0.16775570367E+01  0.16801329148E+01  0.93000000000E-01 0.  1.
          3   -1    0    0  501    0  0.00000000000E+00 -0.00000000000E+00 -0.59572800282E+02  0.59572872874E+02  0.93000000000E-01 0. -1.
       1023    2    1    2    0    0  0.00000000000E+00  0.00000000000E+00 -0.57895243246E+02  0.61253005789E+02  0.20001788113E+02 0.  0.
        -11    1    3    3    0    0  0.13049213835E+01 -0.99151228265E+01 -0.29172684047E+02  0.30839227864E+02  0.51100000000E-03 0. -1.
         11    1    3    3    0    0 -0.13049213835E+01  0.99151228265E+01 -0.28722559199E+02  0.30413777925E+02  0.51100000000E-03 0.  1.
<mgrwt>
<rscale>  0 0.20001788E+02</rscale>
<asrwt>0</asrwt>
<pdfrwt beam="2">  1        3 0.91652483E-02 0.20001788E+02</pdfrwt>
<pdfrwt beam="1">  1       -3 0.25828947E-03 0.20001788E+02</pdfrwt>
<totfact> 0.15684933E+06</totfact>
</mgrwt>
</event>
<event>
 4    1  0.4133473E-007  0.2002178E+02  0.7818608E-02  0.1744895E+00
         -3   -1    0    0    0  501 -0.00000000000E+00  0.00000000000E+00  0.10424895145E+01  0.10466295371E+01  0.93000000000E-01 0.  1.
          3   -1    0    0  501    0  0.00000000000E+00 -0.00000000000E+00 -0.95938583164E+02  0.95938628239E+02  0.93000000000E-01 0. -1.
        -11    1    1    2    0    0  0.80268093770E+01  0.59819382965E+01 -0.47778511972E+02  0.48815975470E+02  0.51100000000E-03 0.  1.
         11    1    1    2    0    0 -0.80268093770E+01 -0.59819382965E+01 -0.47117581677E+02  0.48169282306E+02  0.51100000000E-03 0. -1.
<mgrwt>
<rscale>  0 0.20021779E+02</rscale>
<asrwt>0</asrwt>
<pdfrwt beam="2">  1        3 0.14760097E-01 0.20021779E+02</pdfrwt>
<pdfrwt beam="1">  1       -3 0.16070501E-03 0.20021779E+02</pdfrwt>
<totfact> 0.14249931E+06</totfact>
</mgrwt>
</event>
<event>
 5    1  0.4143405E-007  0.2000110E+02  0.7818608E-02  0.1745306E+00
          3   -1    0    0  501    0  0.00000000000E+00  0.00000000000E+00  0.44147242515E+02  0.44147340471E+02  0.93000000000E-01 0. -1.
         -3   -1    0    0    0  501 -0.00000000000E+00 -0.00000000000E+00 -0.22643411359E+01  0.22662501582E+01  0.93000000000E-01 0.  1.
       1023    2    1    2    0    0  0.00000000000E+00  0.00000000000E+00  0.41882901379E+02  0.46413590629E+02  0.20001099149E+02 0.  0.
        -11    1    3    3    0    0  0.90593640520E+01  0.42353774144E+01  0.20992957769E+02  0.23253274501E+02  0.51100000000E-03 0.  1.
         11    1    3    3    0    0 -0.90593640520E+01 -0.42353774144E+01  0.20889943610E+02  0.23160316128E+02  0.51100000000E-03 0. -1.
<mgrwt>
<rscale>  0 0.20001099E+02</rscale>
<asrwt>0</asrwt>
<pdfrwt beam="1">  1        3 0.67920371E-02 0.20001099E+02</pdfrwt>
<pdfrwt beam="2">  1       -3 0.34851460E-03 0.20001099E+02</pdfrwt>
<totfact> 0.16381125E+06</totfact>
</mgrwt>
</event>
<event>
 5    1  0.4133473E-007  0.2000051E+02  0.7818608E-02  0.1745318E+00
         -3   -1    0    0    0  501 -0.00000000000E+00  0.00000000000E+00  0.56652397304E+02  0.56652473638E+02  0.93000000000E-01 0. -1.
          3   -1    0    0  501    0  0.00000000000E+00 -0.00000000000E+00 -0.17639371171E+01  0.17663870338E+01  0.93000000000E-01 0.  1.
       1023    2    1    2    0    0  0.00000000000E+00  0.00000000000E+00  0.54888460187E+02  0.58418860672E+02  0.20000505506E+02 0.  0.
        -11    1    3    3    0    0 -0.92931639177E+01 -0.36931529694E+01  0.27598246148E+02  0.29354138808E+02  0.51100000000E-03 0. -1.
         11    1    3    3    0    0  0.92931639177E+01  0.36931529694E+01  0.27290214039E+02  0.29064721863E+02  0.51100000000E-03 0.  1.
<mgrwt>
<rscale>  0 0.20000506E+02</rscale>
<asrwt>0</asrwt>
<pdfrwt beam="2">  1        3 0.27156927E-03 0.20000506E+02</pdfrwt>
<pdfrwt beam="1">  1       -3 0.87159477E-02 0.20000506E+02</pdfrwt>
<totfact> 0.15816427E+06</totfact>
</mgrwt>
</event>
<event>
 5    1  0.4184136E-007  0.2000077E+02  0.7818608E-02  0.1745313E+00
         -3   -1    0    0    0  501 -0.00000000000E+00  0.00000000000E+00  0.75113098136E+01  0.75118855234E+01  0.93000000000E-01 0. -1.
          3   -1    0    0  501    0  0.00000000000E+00 -0.00000000000E+00 -0.13313037016E+02  0.13313361844E+02  0.93000000000E-01 0.  1.
       1023    2    1    2    0    0  0.00000000000E+00  0.00000000000E+00 -0.58017272023E+01  0.20825247367E+02  0.20000772220E+02 0.  0.
        -11    1    3    3    0    0 -0.82735353299E+01  0.56172381605E+01 -0.29576142895E+01  0.10428433917E+02  0.51100000000E-03 0. -1.
         11    1    3    3    0    0  0.82735353299E+01 -0.56172381605E+01 -0.28441129129E+01  0.10396813451E+02  0.51100000000E-03 0.  1.
<mgrwt>
<rscale>  0 0.20000772E+02</rscale>
<asrwt>0</asrwt>
<pdfrwt beam="2">  1        3 0.20482288E-02 0.20000772E+02</pdfrwt>
<pdfrwt beam="1">  1       -3 0.11556554E-02 0.20000772E+02</pdfrwt>
<totfact> 0.17830003E+06</totfact>
</mgrwt>
</event>
<event>
 5    1  0.4133473E-007  0.2000037E+02  0.7818608E-02  0.1745321E+00
          3   -1    0    0  501    0  0.00000000000E+00  0.00000000000E+00  0.66432208872E+02  0.66432273968E+02  0.93000000000E-01 0.  1.
         -3   -1    0    0    0  501 -0.00000000000E+00 -0.00000000000E+00 -0.15038474323E+01  0.15067203124E+01  0.93000000000E-01 0. -1.
       1023    2    1    2    0    0  0.00000000000E+00  0.00000000000E+00  0.64928361439E+02  0.67938994281E+02  0.20000370613E+02 0.  0.
        -11    1    3    3    0    0 -0.37282588735E+01  0.92791878994E+01  0.32537320243E+02  0.34039395576E+02  0.51100000000E-03 0. -1.
         11    1    3    3    0    0  0.37282588735E+01 -0.92791878994E+01  0.32391041196E+02  0.33899598705E+02  0.51100000000E-03 0.  1.
<mgrwt>
<rscale>  0 0.20000371E+02</rscale>
<asrwt>0</asrwt>
<pdfrwt beam="1">  1        3 0.10220564E-01 0.20000371E+02</pdfrwt>
<pdfrwt beam="2">  1       -3 0.23158719E-03 0.20000371E+02</pdfrwt>
<totfact> 0.15398689E+06</totfact>
</mgrwt>
</event>
<event>
 5    1  0.4133473E-007  0.2000776E+02  0.7818608E-02  0.1745174E+00
         -3   -1    0    0    0  501 -0.00000000000E+00  0.00000000000E+00  0.12736150103E+02  0.12736489644E+02  0.93000000000E-01 0. -1.
          3   -1    0    0  501    0  0.00000000000E+00 -0.00000000000E+00 -0.78570428775E+01  0.78575932561E+01  0.93000000000E-01 0.  1.
       1023    2    1    2    0    0  0.00000000000E+00  0.00000000000E+00  0.48791072255E+01  0.20594082900E+02  0.20007762573E+02 0.  0.
        -11    1    3    3    0    0  0.79902668366E+01 -0.60189411971E+01  0.23623675872E+01  0.10278754697E+02  0.51100000000E-03 0.  1.
         11    1    3    3    0    0 -0.79902668366E+01  0.60189411971E+01  0.25167396382E+01  0.10315328202E+02  0.51100000000E-03 0. -1.
<mgrwt>
<rscale>  0 0.20007763E+02</rscale>
<asrwt>0</asrwt>
<pdfrwt beam="2">  1        3 0.12088443E-02 0.20007763E+02</pdfrwt>
<pdfrwt beam="1">  1       -3 0.19594761E-02 0.20007763E+02</pdfrwt>
<totfact> 0.17832096E+06</totfact>
</mgrwt>
</event>
<event>
 5    1  0.4133473E-007  0.2000087E+02  0.7818608E-02  0.1745311E+00
         -3   -1    0    0    0  501 -0.00000000000E+00  0.00000000000E+00  0.47664386096E+02  0.47664476824E+02  0.93000000000E-01 0. -1.
          3   -1    0    0  501    0  0.00000000000E+00 -0.00000000000E+00 -0.20970618317E+01  0.20991229898E+01  0.93000000000E-01 0.  1.
       1023    2    1    2    0    0  0.00000000000E+00  0.00000000000E+00  0.45567324264E+02  0.49763599814E+02  0.20000870627E+02 0.  0.
        -11    1    3    3    0    0  0.23401536238E+01  0.97227767198E+01  0.22784318325E+02  0.24882400766E+02  0.51100000000E-03 0.  1.
         11    1    3    3    0    0 -0.23401536238E+01 -0.97227767198E+01  0.22783005940E+02  0.24881199048E+02  0.51100000000E-03 0. -1.
<mgrwt>
<rscale>  0 0.20000871E+02</rscale>
<asrwt>0</asrwt>
<pdfrwt beam="2">  1        3 0.32279045E-03 0.20000871E+02</pdfrwt>
<pdfrwt beam="1">  1       -3 0.73331474E-02 0.20000871E+02</pdfrwt>
<totfact> 0.16219659E+06</totfact>
</mgrwt>
</event>
<event>
 5    1  0.4133473E-007  0.2000113E+02  0.7818608E-02  0.1745306E+00
          3   -1    0    0  501    0  0.00000000000E+00  0.00000000000E+00  0.36612728456E+02  0.36612846570E+02  0.93000000000E-01 0.  1.
         -3   -1    0    0    0  501 -0.00000000000E+00 -0.00000000000E+00 -0.27306837960E+01  0.27322670063E+01  0.93000000000E-01 0. -1.
       1023    2    1    2    0    0  0.00000000000E+00  0.00000000000E+00  0.33882044660E+02  0.39345113576E+02  0.20001125269E+02 0.  0.
        -11    1    3    3    0    0 -0.89752536864E+01 -0.44100055519E+01  0.16765901784E+02  0.19521751730E+02  0.51100000000E-03 0.  1.
         11    1    3    3    0    0  0.89752536864E+01  0.44100055519E+01  0.17116142876E+02  0.19823361847E+02  0.51100000000E-03 0. -1.
<mgrwt>
<rscale>  0 0.20001125E+02</rscale>
<asrwt>0</asrwt>
<pdfrwt beam="1">  1        3 0.56328582E-02 0.20001125E+02</pdfrwt>
<pdfrwt beam="2">  1       -3 0.42023608E-03 0.20001125E+02</pdfrwt>
<totfact> 0.16744444E+06</totfact>
</mgrwt>
</event>
<event>
 4    1  0.4133473E-007  0.2012618E+02  0.7818608E-02  0.1742830E+00
          3   -1    0    0  501    0  0.00000000000E+00  0.00000000000E+00  0.24351640258E+01  0.24369392345E+01  0.93000000000E-01 0. -1.
         -3   -1    0    0    0  501 -0.00000000000E+00 -0.00000000000E+00 -0.41567792986E+02  0.41567897021E+02  0.93000000000E-01 0.  1.
        -11    1    1    2    0    0  0.93909878394E+01 -0.36117651869E+01 -0.19946533320E+02  0.22340539209E+02  0.51100000000E-03 0.  1.
         11    1    1    2    0    0 -0.93909878394E+01  0.36117651869E+01 -0.19186095640E+02  0.21664297047E+02  0.51100000000E-03 0. -1.
<mgrwt>
<rscale>  0 0.20126176E+02</rscale>
<asrwt>0</asrwt>
<pdfrwt beam="1">  1        3 0.37478521E-03 0.20126176E+02</pdfrwt>
<pdfrwt beam="2">  1       -3 0.63951891E-02 0.20126176E+02</pdfrwt>
<totfact> 0.16285044E+06</totfact>
</mgrwt>
</event>
<event>
 5    1  0.4170120E-007  0.2000226E+02  0.7818608E-02  0.1745283E+00
          3   -1    0    0  501    0  0.00000000000E+00  0.00000000000E+00  0.20975261259E+02  0.20975467429E+02  0.93000000000E-01 0.  1.
         -3   -1    0    0    0  501 -0.00000000000E+00 -0.00000000000E+00 -0.47679142720E+01  0.47688211861E+01  0.93000000000E-01 0. -1.
       1023    2    1    2    0    0  0.00000000000E+00  0.00000000000E+00  0.16207346987E+02  0.25744288615E+02  0.20002257372E+02 0.  0.
        -11    1    3    3    0    0  0.85523731882E+01 -0.51823773900E+01  0.79108184390E+01  0.12750732183E+02  0.51100000000E-03 0.  1.
         11    1    3    3    0    0 -0.85523731882E+01  0.51823773900E+01  0.82965285479E+01  0.12993556433E+02  0.51100000000E-03 0. -1.
<mgrwt>
<rscale>  0 0.20002257E+02</rscale>
<asrwt>0</asrwt>
<pdfrwt beam="1">  1        3 0.32270488E-02 0.20002257E+02</pdfrwt>
<pdfrwt beam="2">  1       -3 0.73361091E-03 0.20002257E+02</pdfrwt>
<totfact> 0.17516532E+06</totfact>
</mgrwt>
</event>
<event>
 5    1  0.4133473E-007  0.2000438E+02  0.7818608E-02  0.1745241E+00
         -3   -1    0    0    0  501 -0.00000000000E+00  0.00000000000E+00  0.26279722738E+01  0.26296173242E+01  0.93000000000E-01 0.  1.
          3   -1    0    0  501    0  0.00000000000E+00 -0.00000000000E+00 -0.38055211406E+02  0.38055325043E+02  0.93000000000E-01 0. -1.
       1023    2    1    2    0    0  0.00000000000E+00  0.00000000000E+00 -0.35427239132E+02  0.40684942367E+02  0.20004381093E+02 0.  0.
        -11    1    3    3    0    0 -0.52831161325E+01 -0.84916300937E+01 -0.17393867726E+02  0.20064040780E+02  0.51100000000E-03 0. -1.
         11    1    3    3    0    0  0.52831161325E+01  0.84916300937E+01 -0.18033371406E+02  0.20620901587E+02  0.51100000000E-03 0.  1.
<mgrwt>
<rscale>  0 0.20004381E+02</rscale>
<asrwt>0</asrwt>
<pdfrwt beam="2">  1        3 0.58547828E-02 0.20004381E+02</pdfrwt>
<pdfrwt beam="1">  1       -3 0.40443874E-03 0.20004381E+02</pdfrwt>
<totfact> 0.16667967E+06</totfact>
</mgrwt>
</event>
<event>
 5    1  0.4133473E-007  0.2000036E+02  0.7818608E-02  0.1745321E+00
         -3   -1    0    0    0  501 -0.00000000000E+00  0.00000000000E+00  0.99443719887E+02  0.99443763374E+02  0.93000000000E-01 0. -1.
          3   -1    0    0  501    0  0.00000000000E+00 -0.00000000000E+00 -0.10034362058E+01  0.10077366815E+01  0.93000000000E-01 0.  1.
       1023    2    1    2    0    0  0.00000000000E+00  0.00000000000E+00  0.98440283681E+02  0.10045150006E+03  0.20000360300E+02 0.  0.
        -11    1    3    3    0    0  0.73187820884E+01  0.68146097767E+01  0.49276319274E+02  0.50280802689E+02  0.51100000000E-03 0.  1.
         11    1    3    3    0    0 -0.73187820884E+01 -0.68146097767E+01  0.49163964408E+02  0.50170697366E+02  0.51100000000E-03 0. -1.
<mgrwt>
<rscale>  0 0.20000360E+02</rscale>
<asrwt>0</asrwt>
<pdfrwt beam="2">  1        3 0.15470895E-03 0.20000360E+02</pdfrwt>
<pdfrwt beam="1">  1       -3 0.15299368E-01 0.20000360E+02</pdfrwt>
<totfact> 0.14164704E+06</totfact>
</mgrwt>
</event>
<event>
 5    1  0.4133473E-007  0.2000003E+02  0.7818608E-02  0.1745328E+00
          3   -1    0    0  501    0  0.00000000000E+00  0.00000000000E+00  0.42723359897E+02  0.42723461118E+02  0.93000000000E-01 0.  1.
         -3   -1    0    0    0  501 -0.00000000000E+00 -0.00000000000E+00 -0.23396181735E+01  0.23414658224E+01  0.93000000000E-01 0. -1.
       1023    2    1    2    0    0  0.00000000000E+00  0.00000000000E+00  0.40383741723E+02  0.45064926940E+02  0.20000026114E+02 0.  0.
        -11    1    3    3    0    0 -0.47365129515E+01  0.88071388955E+01  0.20199140537E+02  0.22538977997E+02  0.51100000000E-03 0.  1.
         11    1    3    3    0    0  0.47365129515E+01 -0.88071388955E+01  0.20184601186E+02  0.22525948943E+02  0.51100000000E-03 0. -1.
<mgrwt>
<rscale>  0 0.20000026E+02</rscale>
<asrwt>0</asrwt>
<pdfrwt beam="1">  1        3 0.65729741E-02 0.20000026E+02</pdfrwt>
<pdfrwt beam="2">  1       -3 0.36009119E-03 0.20000026E+02</pdfrwt>
<totfact> 0.16450607E+06</totfact>
</mgrwt>
</event>
<event>
 5    1  0.4154949E-007  0.2000130E+02  0.7818608E-02  0.1745302E+00
          3   -1    0    0  501    0  0.00000000000E+00  0.00000000000E+00  0.23638884580E+02  0.23639067520E+02  0.93000000000E-01 0.  1.
         -3   -1    0    0    0  501 -0.00000000000E+00 -0.00000000000E+00 -0.42301561798E+01  0.42311783590E+01  0.93000000000E-01 0. -1.
       1023    2    1    2    0    0  0.00000000000E+00  0.00000000000E+00  0.19408728401E+02  0.27870245879E+02  0.20001296638E+02 0.  0.
        -11    1    3    3    0    0 -0.17655624424E+01  0.98433866826E+01  0.97867344328E+01  0.13992485242E+02  0.51100000000E-03 0.  1.
         11    1    3    3    0    0  0.17655624424E+01 -0.98433866826E+01  0.96219939677E+01  0.13877760637E+02  0.51100000000E-03 0. -1.
<mgrwt>
<rscale>  0 0.20001297E+02</rscale>
<asrwt>0</asrwt>
<pdfrwt beam="1">  1        3 0.36368442E-02 0.20001297E+02</pdfrwt>
<pdfrwt beam="2">  1       -3 0.65088596E-03 0.20001297E+02</pdfrwt>
<totfact> 0.17389773E+06</totfact>
</mgrwt>
</event>
<event>
 5    1  0.4133473E-007  0.2000735E+02  0.7818608E-02  0.1745182E+00
         -3   -1    0    0    0  501 -0.00000000000E+00  0.00000000000E+00  0.45292149214E+01  0.45301696220E+01  0.93000000000E-01 0.  1.
          3   -1    0    0  501    0  0.00000000000E+00 -0.00000000000E+00 -0.22091735112E+02  0.22091930863E+02  0.93000000000E-01 0. -1.
       1023    2    1    2    0    0  0.00000000000E+00  0.00000000000E+00 -0.17562520190E+02  0.26622100485E+02  0.20007351619E+02 0.  0.
        -11    1    3    3    0    0 -0.11641763907E+01 -0.99356623071E+01 -0.87427575268E+01  0.13285650213E+02  0.51100000000E-03 0. -1.
         11    1    3    3    0    0  0.11641763907E+01  0.99356623071E+01 -0.88197626635E+01  0.13336450272E+02  0.51100000000E-03 0.  1.
<mgrwt>
<rscale>  0 0.20007352E+02</rscale>
<asrwt>0</asrwt>
<pdfrwt beam="2">  1        3 0.33988169E-02 0.20007352E+02</pdfrwt>
<pdfrwt beam="1">  1       -3 0.69689080E-03 0.20007352E+02</pdfrwt>
<totfact> 0.17453485E+06</totfact>
</mgrwt>
</event>
<event>
 5    1  0.4133473E-007  0.2000030E+02  0.7818608E-02  0.1745322E+00
         -3   -1    0    0    0  501 -0.00000000000E+00  0.00000000000E+00  0.29137648409E+02  0.29137796825E+02  0.93000000000E-01 0. -1.
          3   -1    0    0  501    0  0.00000000000E+00 -0.00000000000E+00 -0.34313009758E+01  0.34325610535E+01  0.93000000000E-01 0.  1.
       1023    2    1    2    0    0  0.00000000000E+00  0.00000000000E+00  0.25706347434E+02  0.32570357879E+02  0.20000297847E+02 0.  0.
        -11    1    3    3    0    0 -0.65630458041E+01 -0.75451509030E+01  0.12836418750E+02  0.16271954982E+02  0.51100000000E-03 0. -1.
         11    1    3    3    0    0  0.65630458041E+01  0.75451509030E+01  0.12869928684E+02  0.16298402896E+02  0.51100000000E-03 0.  1.
<mgrwt>
<rscale>  0 0.20000298E+02</rscale>
<asrwt>0</asrwt>
<pdfrwt beam="2">  1        3 0.52800083E-03 0.20000298E+02</pdfrwt>
<pdfrwt beam="1">  1       -3 0.44828233E-02 0.20000298E+02</pdfrwt>
<totfact> 0.17119670E+06</totfact>
</mgrwt>
</event>
<event>
 5    1  0.4133473E-007  0.2000059E+02  0.7818608E-02  0.1745316E+00
         -3   -1    0    0    0  501 -0.00000000000E+00  0.00000000000E+00  0.10607733731E+03  0.10607737807E+03  0.93000000000E-01 0. -1.
          3   -1    0    0  501    0  0.00000000000E+00 -0.00000000000E+00 -0.94042975775E+00  0.94501699946E+00  0.93000000000E-01 0.  1.
       1023    2    1    2    0    0  0.00000000000E+00  0.00000000000E+00  0.10513690755E+03  0.10702239507E+03  0.20000592949E+02 0.  0.
        -11    1    3    3    0    0 -0.10433915083E+01 -0.99455929587E+01  0.52303909366E+02  0.53251313790E+02  0.51100000000E-03 0.  1.
         11    1    3    3    0    0  0.10433915083E+01  0.99455929587E+01  0.52832998183E+02  0.53771081284E+02  0.51100000000E-03 0. -1.
<mgrwt>
<rscale>  0 0.20000593E+02</rscale>
<asrwt>0</asrwt>
<pdfrwt beam="2">  1        3 0.14503742E-03 0.20000593E+02</pdfrwt>
<pdfrwt beam="1">  1       -3 0.16319956E-01 0.20000593E+02</pdfrwt>
<totfact> 0.13941374E+06</totfact>
</mgrwt>
</event>
<event>
 5    1  0.4133473E-007  0.2000512E+02  0.7818608E-02  0.1745226E+00
         -3   -1    0    0    0  501 -0.00000000000E+00  0.00000000000E+00  0.77850244269E+01  0.77855798967E+01  0.93000000000E-01 0. -1.
          3   -1    0    0  501    0  0.00000000000E+00 -0.00000000000E+00 -0.12850573258E+02  0.12850909775E+02  0.93000000000E-01 0.  1.
       1023    2    1    2    0    0  0.00000000000E+00  0.00000000000E+00 -0.50655488310E+01  0.20636489672E+02  0.20005122370E+02 0.  0.
        -11    1    3    3    0    0  0.61010699818E+01  0.79260160575E+01 -0.26155858328E+01  0.10338572192E+02  0.51100000000E-03 0. -1.
         11    1    3    3    0    0 -0.61010699818E+01 -0.79260160575E+01 -0.24499629982E+01  0.10297917480E+02  0.51100000000E-03 0.  1.
<mgrwt>
<rscale>  0 0.20005122E+02</rscale>
<asrwt>0</asrwt>
<pdfrwt beam="2">  1        3 0.19770799E-02 0.20005122E+02</pdfrwt>
<pdfrwt beam="1">  1       -3 0.11977647E-02 0.20005122E+02</pdfrwt>
<totfact> 0.17833977E+06</totfact>
</mgrwt>
</event>
<event>
 5    1  0.4133473E-007  0.2000090E+02  0.7818608E-02  0.1745310E+00
          3   -1    0    0  501    0  0.00000000000E+00  0.00000000000E+00  0.24995723197E+01  0.25013018173E+01  0.93000000000E-01 0. -1.
         -3   -1    0    0    0  501 -0.00000000000E+00 -0.00000000000E+00 -0.39994815057E+02  0.39994923183E+02  0.93000000000E-01 0.  1.
       1023    2    1    2    0    0  0.00000000000E+00  0.00000000000E+00 -0.37495242737E+02  0.42496225001E+02  0.20000897764E+02 0.  0.
        -11    1    3    3    0    0 -0.18461330020E+01  0.98285296498E+01 -0.18806787990E+02  0.21300316357E+02  0.51100000000E-03 0. -1.
         11    1    3    3    0    0  0.18461330020E+01 -0.98285296498E+01 -0.18688454748E+02  0.21195908644E+02  0.51100000000E-03 0.  1.
<mgrwt>
<rscale>  0 0.20000898E+02</rscale>
<asrwt>0</asrwt>
<pdfrwt beam="1">  1        3 0.38469097E-03 0.20000898E+02</pdfrwt>
<pdfrwt beam="2">  1       -3 0.61531893E-02 0.20000898E+02</pdfrwt>
<totfact> 0.16582453E+06</totfact>
</mgrwt>
</event>
<event>
 5    1  0.4133473E-007  0.2000006E+02  0.7818608E-02  0.1745327E+00
         -3   -1    0    0    0  501 -0.00000000000E+00  0.00000000000E+00  0.10210280695E+01  0.10252547580E+01  0.93000000000E-01 0.  1.
          3   -1    0    0  501    0  0.00000000000E+00 -0.00000000000E+00 -0.97734572541E+02  0.97734616789E+02  0.93000000000E-01 0. -1.
       1023    2    1    2    0    0  0.00000000000E+00  0.00000000000E+00 -0.96713544472E+02  0.98759871547E+02  0.20000063590E+02 0.  0.
        -11    1    3    3    0    0  0.28329859696E+01 -0.95903286067E+01 -0.48458374161E+02  0.49479432483E+02  0.51100000000E-03 0. -1.
         11    1    3    3    0    0 -0.28329859696E+01  0.95903286067E+01 -0.48255170311E+02  0.49280439063E+02  0.51100000000E-03 0.  1.
<mgrwt>
<rscale>  0 0.20000064E+02</rscale>
<asrwt>0</asrwt>
<pdfrwt beam="2">  1        3 0.15036409E-01 0.20000064E+02</pdfrwt>
<pdfrwt beam="1">  1       -3 0.15740985E-03 0.20000064E+02</pdfrwt>
<totfact> 0.14221007E+06</totfact>
</mgrwt>
</event>
<event>
 5    1  0.4133473E-007  0.2000884E+02  0.7818608E-02  0.1745152E+00
         -3   -1    0    0    0  501 -0.00000000000E+00  0.00000000000E+00  0.19735418099E+01  0.19757318329E+01  0.93000000000E-01 0.  1.
          3   -1    0    0  501    0  0.00000000000E+00 -0.00000000000E+00 -0.50684781144E+02  0.50684866465E+02  0.93000000000E-01 0. -1.
       1023    2    1    2    0    0  0.00000000000E+00  0.00000000000E+00 -0.48711239334E+02  0.52660598298E+02  0.20008842437E+02 0.  0.
        -11    1    3    3    0    0  0.74434293084E+01 -0.66839307185E+01 -0.24603545632E+02  0.26559631542E+02  0.51100000000E-03 0.  1.
         11    1    3    3    0    0 -0.74434293084E+01  0.66839307185E+01 -0.24107693702E+02  0.26100966756E+02  0.51100000000E-03 0. -1.
<mgrwt>
<rscale>  0 0.20008842E+02</rscale>
<asrwt>0</asrwt>
<pdfrwt beam="2">  1        3 0.77978327E-02 0.20008842E+02</pdfrwt>
<pdfrwt beam="1">  1       -3 0.30379688E-03 0.20008842E+02</pdfrwt>
<totfact> 0.16064913E+06</totfact>
</mgrwt>
</event>
<event>
 5    1  0.4133473E-007  0.2000941E+02  0.7818608E-02  0.1745141E+00
          3   -1    0    0  501    0  0.00000000000E+00  0.00000000000E+00  0.13084130763E+01  0.13117140611E+01  0.93000000000E-01 0.  1.
         -3   -1    0    0    0  501 -0.00000000000E+00 -0.00000000000E+00 -0.76400654816E+02  0.76400711419E+02  0.93000000000E-01 0. -1.
       1023    2    1    2    0    0  0.00000000000E+00  0.00000000000E+00 -0.75092241740E+02  0.77712425480E+02  0.20009405401E+02 0.  0.
        -11    1    3    3    0    0 -0.38752652779E+01 -0.92206939532E+01 -0.36633652963E+02  0.37974509972E+02  0.51100000000E-03 0.  1.
         11    1    3    3    0    0  0.38752652779E+01  0.92206939532E+01 -0.38458588777E+02  0.39737915508E+02  0.51100000000E-03 0. -1.
<mgrwt>
<rscale>  0 0.20009405E+02</rscale>
<asrwt>0</asrwt>
<pdfrwt beam="1">  1        3 0.20155266E-03 0.20009405E+02</pdfrwt>
<pdfrwt beam="2">  1       -3 0.11754202E-01 0.20009405E+02</pdfrwt>
<totfact> 0.14988745E+06</totfact>
</mgrwt>
</event>
<event>
 5    1  0.4133473E-007  0.2001234E+02  0.7818608E-02  0.1745083E+00
         -3   -1    0    0    0  501 -0.00000000000E+00  0.00000000000E+00  0.46925586867E+02  0.46925679024E+02  0.93000000000E-01 0. -1.
          3   -1    0    0  501    0  0.00000000000E+00 -0.00000000000E+00 -0.21325562588E+01  0.21345831436E+01  0.93000000000E-01 0.  1.
       1023    2    1    2    0    0  0.00000000000E+00  0.00000000000E+00  0.44793030608E+02  0.49060262167E+02  0.20012339514E+02 0.  0.
        -11    1    3    3    0    0  0.87014147663E+01 -0.49340811302E+01  0.23015039220E+02  0.25094856168E+02  0.51100000000E-03 0. -1.
         11    1    3    3    0    0 -0.87014147663E+01  0.49340811302E+01  0.21777991389E+02  0.23965406000E+02  0.51100000000E-03 0.  1.
<mgrwt>
<rscale>  0 0.20012340E+02</rscale>
<asrwt>0</asrwt>
<pdfrwt beam="2">  1        3 0.32824857E-03 0.20012340E+02</pdfrwt>
<pdfrwt beam="1">  1       -3 0.72194844E-02 0.20012340E+02</pdfrwt>
<totfact> 0.16233756E+06</totfact>
</mgrwt>
</event>
<event>
 5    1  0.4133473E-007  0.2000016E+02  0.7818608E-02  0.1745325E+00
         -3   -1    0    0    0  501 -0.00000000000E+00  0.00000000000E+00  0.46445601585E+02  0.46445694694E+02  0.93000000000E-01 0.  1.
          3   -1    0    0  501    0  0.00000000000E+00 -0.00000000000E+00 -0.21519906323E+01  0.21539992297E+01  0.93000000000E-01 0. -1.
       1023    2    1    2    0    0  0.00000000000E+00  0.00000000000E+00  0.44293610953E+02  0.48599693924E+02  0.20000156955E+02 0.  0.
        -11    1    3    3    0    0  0.72566253982E+01 -0.68805947099E+01  0.22099839630E+02  0.24257042435E+02  0.51100000000E-03 0.  1.
         11    1    3    3    0    0 -0.72566253982E+01  0.68805947099E+01  0.22193771322E+02  0.24342651489E+02  0.51100000000E-03 0. -1.
<mgrwt>
<rscale>  0 0.20000157E+02</rscale>
<asrwt>0</asrwt>
<pdfrwt beam="2">  1        3 0.33123718E-03 0.20000157E+02</pdfrwt>
<pdfrwt beam="1">  1       -3 0.71456382E-02 0.20000157E+02</pdfrwt>
<totfact> 0.16277458E+06</totfact>
</mgrwt>
</event>
<event>
 4    1  0.4133473E-007  0.2013040E+02  0.7818608E-02  0.1742747E+00
         -3   -1    0    0    0  501 -0.00000000000E+00  0.00000000000E+00  0.40905607249E+02  0.40905712967E+02  0.93000000000E-01 0.  1.
          3   -1    0    0  501    0  0.00000000000E+00 -0.00000000000E+00 -0.24756516705E+01  0.24773978675E+01  0.93000000000E-01 0. -1.
        -11    1    1    2    0    0  0.97118961351E+01  0.25510423764E+01  0.20707239591E+02  0.23013442061E+02  0.51100000000E-03 0. -1.
         11    1    1    2    0    0 -0.97118961351E+01 -0.25510423764E+01  0.17722715987E+02  0.20369668774E+02  0.51100000000E-03 0.  1.
<mgrwt>
<rscale>  0 0.20130395E+02</rscale>
<asrwt>0</asrwt>
<pdfrwt beam="2">  1        3 0.38101198E-03 0.20130395E+02</pdfrwt>
<pdfrwt beam="1">  1       -3 0.62933121E-02 0.20130395E+02</pdfrwt>
<totfact> 0.16308980E+06</totfact>
</mgrwt>
</event>
<event>
 5    1  0.4133473E-007  0.2000026E+02  0.7818608E-02  0.1745323E+00
          3   -1    0    0  501    0  0.00000000000E+00  0.00000000000E+00  0.16360122546E+01  0.16386534403E+01  0.93000000000E-01 0.  1.
         -3   -1    0    0    0  501 -0.00000000000E+00 -0.00000000000E+00 -0.61073821142E+02  0.61073891949E+02  0.93000000000E-01 0. -1.
       1023    2    1    2    0    0  0.00000000000E+00  0.00000000000E+00 -0.59437808887E+02  0.62712545390E+02  0.20000255597E+02 0.  0.
        -11    1    3    3    0    0  0.92804453326E+01  0.37247539001E+01 -0.29862545157E+02  0.31492412748E+02  0.51100000000E-03 0. -1.
         11    1    3    3    0    0 -0.92804453326E+01 -0.37247539001E+01 -0.29575263730E+02  0.31220132641E+02  0.51100000000E-03 0.  1.
<mgrwt>
<rscale>  0 0.20000256E+02</rscale>
<asrwt>0</asrwt>
<pdfrwt beam="1">  1        3 0.25190285E-03 0.20000256E+02</pdfrwt>
<pdfrwt beam="2">  1       -3 0.93961793E-02 0.20000256E+02</pdfrwt>
<totfact> 0.15626102E+06</totfact>
</mgrwt>
</event>
<event>
 5    1  0.4133473E-007  0.2000237E+02  0.7818608E-02  0.1745281E+00
          3   -1    0    0  501    0  0.00000000000E+00  0.00000000000E+00  0.18634846154E+01  0.18658038246E+01  0.93000000000E-01 0. -1.
         -3   -1    0    0    0  501 -0.00000000000E+00 -0.00000000000E+00 -0.53639881816E+02  0.53639962437E+02  0.93000000000E-01 0.  1.
       1023    2    1    2    0    0  0.00000000000E+00  0.00000000000E+00 -0.51776397200E+02  0.55505766261E+02  0.20002369390E+02 0.  0.
        -11    1    3    3    0    0 -0.92692796087E+01 -0.37552850146E+01 -0.26011833460E+02  0.27868211105E+02  0.51100000000E-03 0. -1.
         11    1    3    3    0    0  0.92692796087E+01  0.37552850146E+01 -0.25764563740E+02  0.27637555156E+02  0.51100000000E-03 0.  1.
<mgrwt>
<rscale>  0 0.20002369E+02</rscale>
<asrwt>0</asrwt>
<pdfrwt beam="1">  1        3 0.28687458E-03 0.20002369E+02</pdfrwt>
<pdfrwt beam="2">  1       -3 0.82524730E-02 0.20002369E+02</pdfrwt>
<totfact> 0.15946032E+06</totfact>
</mgrwt>
</event>
<event>
 5    1  0.4133473E-007  0.2000069E+02  0.7818608E-02  0.1745314E+00
         -3   -1    0    0    0  501 -0.00000000000E+00  0.00000000000E+00  0.47299306151E+01  0.47308448108E+01  0.93000000000E-01 0.  1.
          3   -1    0    0  501    0  0.00000000000E+00 -0.00000000000E+00 -0.21140358319E+02  0.21140562880E+02  0.93000000000E-01 0. -1.
       1023    2    1    2    0    0  0.00000000000E+00  0.00000000000E+00 -0.16410427704E+02  0.25871407691E+02  0.20000689949E+02 0.  0.
        -11    1    3    3    0    0  0.98279541100E+01 -0.18486237209E+01 -0.82419760072E+01  0.12959022356E+02  0.51100000000E-03 0. -1.
         11    1    3    3    0    0 -0.98279541100E+01  0.18486237209E+01 -0.81684516971E+01  0.12912385335E+02  0.51100000000E-03 0.  1.
<mgrwt>
<rscale>  0 0.20000690E+02</rscale>
<asrwt>0</asrwt>
<pdfrwt beam="2">  1        3 0.32524488E-02 0.20000690E+02</pdfrwt>
<pdfrwt beam="1">  1       -3 0.72776770E-03 0.20000690E+02</pdfrwt>
<totfact> 0.17511706E+06</totfact>
</mgrwt>
</event>
<event>
 5    1  0.4133473E-007  0.2000033E+02  0.7818608E-02  0.1745321E+00
          3   -1    0    0  501    0  0.00000000000E+00  0.00000000000E+00  0.54884463091E+01  0.54892341805E+01  0.93000000000E-01 0. -1.
         -3   -1    0    0    0  501 -0.00000000000E+00 -0.00000000000E+00 -0.18218483166E+02  0.18218720533E+02  0.93000000000E-01 0.  1.
       1023    2    1    2    0    0  0.00000000000E+00  0.00000000000E+00 -0.12730036857E+02  0.23707954714E+02  0.20000331956E+02 0.  0.
        -11    1    3    3    0    0  0.66890626538E+01  0.74336884942E+01 -0.63720818671E+01  0.11857770085E+02  0.51100000000E-03 0. -1.
         11    1    3    3    0    0 -0.66890626538E+01 -0.74336884942E+01 -0.63579549898E+01  0.11850184628E+02  0.51100000000E-03 0.  1.
<mgrwt>
<rscale>  0 0.20000332E+02</rscale>
<asrwt>0</asrwt>
<pdfrwt beam="1">  1        3 0.84445523E-03 0.20000332E+02</pdfrwt>
<pdfrwt beam="2">  1       -3 0.28029224E-02 0.20000332E+02</pdfrwt>
<totfact> 0.17647533E+06</totfact>
</mgrwt>
</event>
<event>
 5    1  0.4267178E-007  0.2000107E+02  0.7818608E-02  0.1745307E+00
         -3   -1    0    0    0  501 -0.00000000000E+00  0.00000000000E+00  0.56588778968E+01  0.56596420427E+01  0.93000000000E-01 0.  1.
          3   -1    0    0  501    0  0.00000000000E+00 -0.00000000000E+00 -0.17671159296E+02  0.17671404015E+02  0.93000000000E-01 0. -1.
       1023    2    1    2    0    0  0.00000000000E+00  0.00000000000E+00 -0.12012281399E+02  0.23331046058E+02  0.20001070115E+02 0.  0.
        -11    1    3    3    0    0  0.88243045491E+01 -0.47045362224E+01 -0.61209634254E+01  0.11724640948E+02  0.51100000000E-03 0. -1.
         11    1    3    3    0    0 -0.88243045491E+01  0.47045362224E+01 -0.58913179738E+01  0.11606405110E+02  0.51100000000E-03 0.  1.
<mgrwt>
<rscale>  0 0.20001070E+02</rscale>
<asrwt>0</asrwt>
<pdfrwt beam="2">  1        3 0.27187175E-02 0.20001070E+02</pdfrwt>
<pdfrwt beam="1">  1       -3 0.87067421E-03 0.20001070E+02</pdfrwt>
<totfact> 0.17668761E+06</totfact>
</mgrwt>
</event>
<event>
 5    1  0.4133473E-007  0.2000569E+02  0.7818608E-02  0.1745215E+00
         -3   -1    0    0    0  501 -0.00000000000E+00  0.00000000000E+00  0.26758109406E+01  0.26774265984E+01  0.93000000000E-01 0.  1.
          3   -1    0    0  501    0  0.00000000000E+00 -0.00000000000E+00 -0.37380168763E+02  0.37380284452E+02  0.93000000000E-01 0. -1.
       1023    2    1    2    0    0  0.00000000000E+00  0.00000000000E+00 -0.34704357822E+02  0.40057711051E+02  0.20005693259E+02 0.  0.
        -11    1    3    3    0    0 -0.68452467028E+00  0.99791327552E+01 -0.17497617378E+02  0.20154857448E+02  0.51100000000E-03 0. -1.
         11    1    3    3    0    0  0.68452467028E+00 -0.99791327552E+01 -0.17206740444E+02  0.19902853603E+02  0.51100000000E-03 0.  1.
<mgrwt>
<rscale>  0 0.20005693E+02</rscale>
<asrwt>0</asrwt>
<pdfrwt beam="2">  1        3 0.57509280E-02 0.20005693E+02</pdfrwt>
<pdfrwt beam="1">  1       -3 0.41179643E-03 0.20005693E+02</pdfrwt>
<totfact> 0.16698558E+06</totfact>
</mgrwt>
</event>
<event>
 5    1  0.4133473E-007  0.2000071E+02  0.7818608E-02  0.1745314E+00
         -3   -1    0    0    0  501 -0.00000000000E+00  0.00000000000E+00  0.13804128269E+01  0.13835420386E+01  0.93000000000E-01 0.  1.
          3   -1    0    0  501    0  0.00000000000E+00 -0.00000000000E+00 -0.72362032109E+02  0.72362091871E+02  0.93000000000E-01 0. -1.
       1023    2    1    2    0    0  0.00000000000E+00  0.00000000000E+00 -0.70981619282E+02  0.73745633909E+02  0.20000706108E+02 0.  0.
        -11    1    3    3    0    0 -0.97881301746E+01  0.20486213028E+01 -0.35298532991E+02  0.36687746908E+02  0.51100000000E-03 0.  1.
         11    1    3    3    0    0  0.97881301746E+01 -0.20486213028E+01 -0.35683086290E+02  0.37057887002E+02  0.51100000000E-03 0. -1.
<mgrwt>
<rscale>  0 0.20000706E+02</rscale>
<asrwt>0</asrwt>
<pdfrwt beam="2">  1        3 0.11132863E-01 0.20000706E+02</pdfrwt>
<pdfrwt beam="1">  1       -3 0.21261657E-03 0.20000706E+02</pdfrwt>
<totfact> 0.15158318E+06</totfact>
</mgrwt>
</event>
<event>
 5    1  0.4133473E-007  0.2000057E+02  0.7818608E-02  0.1745317E+00
         -3   -1    0    0    0  501 -0.00000000000E+00  0.00000000000E+00  0.45619829409E+02  0.45619924203E+02  0.93000000000E-01 0.  1.
          3   -1    0    0  501    0  0.00000000000E+00 -0.00000000000E+00 -0.21910709400E+01  0.21930437442E+01  0.93000000000E-01 0. -1.
       1023    2    1    2    0    0  0.00000000000E+00  0.00000000000E+00  0.43428758469E+02  0.47812967947E+02  0.20000571036E+02 0.  0.
        -11    1    3    3    0    0 -0.79671252188E+01  0.60440564301E+01  0.21721055961E+02  0.23912548478E+02  0.51100000000E-03 0. -1.
         11    1    3    3    0    0  0.79671252188E+01 -0.60440564301E+01  0.21707702508E+02  0.23900419469E+02  0.51100000000E-03 0.  1.
<mgrwt>
<rscale>  0 0.20000571E+02</rscale>
<asrwt>0</asrwt>
<pdfrwt beam="2">  1        3 0.33724693E-03 0.20000571E+02</pdfrwt>
<pdfrwt beam="1">  1       -3 0.70185934E-02 0.20000571E+02</pdfrwt>
<totfact> 0.16315285E+06</totfact>
</mgrwt>
</event>
<event>
 5    1  0.4133473E-007  0.2000025E+02  0.7818608E-02  0.1745323E+00
          3   -1    0    0  501    0  0.00000000000E+00  0.00000000000E+00  0.41009439287E+01  0.41019983064E+01  0.93000000000E-01 0.  1.
         -3   -1    0    0    0  501 -0.00000000000E+00 -0.00000000000E+00 -0.24380964710E+02  0.24381142082E+02  0.93000000000E-01 0. -1.
       1023    2    1    2    0    0  0.00000000000E+00  0.00000000000E+00 -0.20280020782E+02  0.28483140388E+02  0.20000251085E+02 0.  0.
        -11    1    3    3    0    0  0.96924923402E+01  0.24612184945E+01 -0.10172057036E+02  0.14264387433E+02  0.51100000000E-03 0.  1.
         11    1    3    3    0    0 -0.96924923402E+01 -0.24612184945E+01 -0.10107963746E+02  0.14218752955E+02  0.51100000000E-03 0. -1.
<mgrwt>
<rscale>  0 0.20000251E+02</rscale>
<asrwt>0</asrwt>
<pdfrwt beam="1">  1        3 0.63100922E-03 0.20000251E+02</pdfrwt>
<pdfrwt beam="2">  1       -3 0.37510123E-02 0.20000251E+02</pdfrwt>
<totfact> 0.17356761E+06</totfact>
</mgrwt>
</event>
<event>
 5    1  0.4133473E-007  0.2000067E+02  0.7818608E-02  0.1745315E+00
          3   -1    0    0  501    0  0.00000000000E+00  0.00000000000E+00  0.15158218710E+01  0.15186720991E+01  0.93000000000E-01 0.  1.
         -3   -1    0    0    0  501 -0.00000000000E+00 -0.00000000000E+00 -0.65910383589E+02  0.65910449201E+02  0.93000000000E-01 0. -1.
       1023    2    1    2    0    0  0.00000000000E+00  0.00000000000E+00 -0.64394561718E+02  0.67429121300E+02  0.20000670499E+02 0.  0.
        -11    1    3    3    0    0 -0.73169773940E+01 -0.68167363977E+01 -0.32283335750E+02  0.33796742753E+02  0.51100000000E-03 0. -1.
         11    1    3    3    0    0  0.73169773940E+01  0.68167363977E+01 -0.32111225969E+02  0.33632378548E+02  0.51100000000E-03 0.  1.
<mgrwt>
<rscale>  0 0.20000670E+02</rscale>
<asrwt>0</asrwt>
<pdfrwt beam="1">  1        3 0.23342771E-03 0.20000670E+02</pdfrwt>
<pdfrwt beam="2">  1       -3 0.10140281E-01 0.20000670E+02</pdfrwt>
<totfact> 0.15422572E+06</totfact>
</mgrwt>
</event>
<event>
 5    1  0.4133473E-007  0.2000045E+02  0.7818608E-02  0.1745319E+00
         -3   -1    0    0    0  501 -0.00000000000E+00  0.00000000000E+00  0.36786216004E+02  0.36786333561E+02  0.93000000000E-01 0. -1.
          3   -1    0    0  501    0  0.00000000000E+00 -0.00000000000E+00 -0.27176146153E+01  0.27192054349E+01  0.93000000000E-01 0.  1.
       1023    2    1    2    0    0  0.00000000000E+00  0.00000000000E+00  0.34068601389E+02  0.39505538996E+02  0.20000450265E+02 0.  0.
        -11    1    3    3    0    0  0.64575013998E+01  0.76356697220E+01  0.17116362247E+02  0.19823537355E+02  0.51100000000E-03 0. -1.
         11    1    3    3    0    0 -0.64575013998E+01 -0.76356697220E+01  0.16952239142E+02  0.19682001641E+02  0.51100000000E-03 0.  1.
<mgrwt>
<rscale>  0 0.20000450E+02</rscale>
<asrwt>0</asrwt>
<pdfrwt beam="2">  1        3 0.41822597E-03 0.20000450E+02</pdfrwt>
<pdfrwt beam="1">  1       -3 0.56595493E-02 0.20000450E+02</pdfrwt>
<totfact> 0.16739366E+06</totfact>
</mgrwt>
</event>
<event>
 5    1  0.4360382E-007  0.2000108E+02  0.7818608E-02  0.1745307E+00
         -3   -1    0    0    0  501 -0.00000000000E+00  0.00000000000E+00  0.65728035939E+01  0.65734614994E+01  0.93000000000E-01 0.  1.
          3   -1    0    0  501    0  0.00000000000E+00 -0.00000000000E+00 -0.15214288157E+02  0.15214572394E+02  0.93000000000E-01 0. -1.
       1023    2    1    2    0    0  0.00000000000E+00  0.00000000000E+00 -0.86414845633E+01  0.21788033893E+02  0.20001079108E+02 0.  0.
        -11    1    3    3    0    0  0.91905827639E+01 -0.39413799132E+01 -0.44269403499E+01  0.10936136808E+02  0.51100000000E-03 0. -1.
         11    1    3    3    0    0 -0.91905827639E+01  0.39413799132E+01 -0.42145442134E+01  0.10851897085E+02  0.51100000000E-03 0.  1.
<mgrwt>
<rscale>  0 0.20001079E+02</rscale>
<asrwt>0</asrwt>
<pdfrwt beam="2">  1        3 0.23407322E-02 0.20001079E+02</pdfrwt>
<pdfrwt beam="1">  1       -3 0.10112730E-02 0.20001079E+02</pdfrwt>
<totfact> 0.17766990E+06</totfact>
</mgrwt>
</event>
<event>
 5    1  0.4133473E-007  0.2001209E+02  0.7818608E-02  0.1745088E+00
         -3   -1    0    0    0  501 -0.00000000000E+00  0.00000000000E+00  0.21216076705E+01  0.21236450051E+01  0.93000000000E-01 0.  1.
          3   -1    0    0  501    0  0.00000000000E+00 -0.00000000000E+00 -0.47166327319E+02  0.47166419005E+02  0.93000000000E-01 0. -1.
       1023    2    1    2    0    0  0.00000000000E+00  0.00000000000E+00 -0.45044719649E+02  0.49290064011E+02  0.20012087395E+02 0.  0.
        -11    1    3    3    0    0  0.50711618385E+01 -0.86254519174E+01 -0.22710051375E+02  0.24816557716E+02  0.51100000000E-03 0. -1.
         11    1    3    3    0    0 -0.50711618385E+01  0.86254519174E+01 -0.22334668274E+02  0.24473506294E+02  0.51100000000E-03 0.  1.
<mgrwt>
<rscale>  0 0.20012087E+02</rscale>
<asrwt>0</asrwt>
<pdfrwt beam="2">  1        3 0.72565210E-02 0.20012087E+02</pdfrwt>
<pdfrwt beam="1">  1       -3 0.32656499E-03 0.20012087E+02</pdfrwt>
<totfact> 0.16220500E+06</totfact>
</mgrwt>
</event>
<event>
 4    1  0.4133473E-007  0.2013550E+02  0.7818608E-02  0.1742647E+00
         -3   -1    0    0    0  501 -0.00000000000E+00  0.00000000000E+00  0.93271313852E+02  0.93271360217E+02  0.93000000000E-01 0.  1.
          3   -1    0    0  501    0  0.00000000000E+00 -0.00000000000E+00 -0.10846807609E+01  0.10886603479E+01  0.93000000000E-01 0. -1.
        -11    1    1    2    0    0 -0.30631521756E+01 -0.95258659415E+01  0.40886477096E+02  0.42093099586E+02  0.51100000000E-03 0. -1.
         11    1    1    2    0    0  0.30631521756E+01  0.95258659415E+01  0.51300155995E+02  0.52266920979E+02  0.51100000000E-03 0.  1.
<mgrwt>
<rscale>  0 0.20135495E+02</rscale>
<asrwt>0</asrwt>
<pdfrwt beam="2">  1        3 0.16718360E-03 0.20135495E+02</pdfrwt>
<pdfrwt beam="1">  1       -3 0.14349747E-01 0.20135495E+02</pdfrwt>
<totfact> 0.14172187E+06</totfact>
</mgrwt>
</event>
<event>
 5    1  0.4133473E-007  0.2000053E+02  0.7818608E-02  0.1745318E+00
         -3   -1    0    0    0  501 -0.00000000000E+00  0.00000000000E+00  0.16545525157E+01  0.16571641521E+01  0.93000000000E-01 0.  1.
          3   -1    0    0  501    0  0.00000000000E+00 -0.00000000000E+00 -0.60392198013E+02  0.60392269620E+02  0.93000000000E-01 0. -1.
       1023    2    1    2    0    0  0.00000000000E+00  0.00000000000E+00 -0.58737645497E+02  0.62049433772E+02  0.20000530814E+02 0.  0.
        -11    1    3    3    0    0 -0.99363858796E+01 -0.11274094144E+01 -0.29213963512E+02  0.30878123010E+02  0.51100000000E-03 0.  1.
         11    1    3    3    0    0  0.99363858796E+01  0.11274094144E+01 -0.29523681986E+02  0.31171310762E+02  0.51100000000E-03 0. -1.
<mgrwt>
<rscale>  0 0.20000531E+02</rscale>
<asrwt>0</asrwt>
<pdfrwt beam="2">  1        3 0.92913121E-02 0.20000531E+02</pdfrwt>
<pdfrwt beam="1">  1       -3 0.25475299E-03 0.20000531E+02</pdfrwt>
<totfact> 0.15651925E+06</totfact>
</mgrwt>
</event>
<event>
 5    1  0.4133473E-007  0.2000224E+02  0.7818608E-02  0.1745284E+00
          3   -1    0    0  501    0  0.00000000000E+00  0.00000000000E+00  0.17461799764E+01  0.17486547715E+01  0.93000000000E-01 0. -1.
         -3   -1    0    0    0  501 -0.00000000000E+00 -0.00000000000E+00 -0.57237615712E+02  0.57237691265E+02  0.93000000000E-01 0.  1.
       1023    2    1    2    0    0  0.00000000000E+00  0.00000000000E+00 -0.55491435735E+02  0.58986346036E+02  0.20002239344E+02 0.  0.
        -11    1    3    3    0    0  0.91639622831E+01 -0.40032398597E+01 -0.28144216863E+02  0.29868061155E+02  0.51100000000E-03 0.  1.
         11    1    3    3    0    0 -0.91639622831E+01  0.40032398597E+01 -0.27347218872E+02  0.29118284881E+02  0.51100000000E-03 0. -1.
<mgrwt>
<rscale>  0 0.20002239E+02</rscale>
<asrwt>0</asrwt>
<pdfrwt beam="1">  1        3 0.26883930E-03 0.20002239E+02</pdfrwt>
<pdfrwt beam="2">  1       -3 0.88059818E-02 0.20002239E+02</pdfrwt>
<totfact> 0.15787965E+06</totfact>
</mgrwt>
</event>
<event>
 5    1  0.4133473E-007  0.2000058E+02  0.7818608E-02  0.1745317E+00
          3   -1    0    0  501    0  0.00000000000E+00  0.00000000000E+00  0.39674610951E+02  0.39674719950E+02  0.93000000000E-01 0.  1.
         -3   -1    0    0    0  501 -0.00000000000E+00 -0.00000000000E+00 -0.25196789062E+01  0.25213946122E+01  0.93000000000E-01 0. -1.
       1023    2    1    2    0    0  0.00000000000E+00  0.00000000000E+00  0.37154932045E+02  0.42196114562E+02  0.20000577714E+02 0.  0.
        -11    1    3    3    0    0 -0.99708530313E+01  0.76672001489E+00  0.18583131404E+02  0.21103045818E+02  0.51100000000E-03 0.  1.
         11    1    3    3    0    0  0.99708530313E+01 -0.76672001489E+00  0.18571800641E+02  0.21093068744E+02  0.51100000000E-03 0. -1.
<mgrwt>
<rscale>  0 0.20000578E+02</rscale>
<asrwt>0</asrwt>
<pdfrwt beam="1">  1        3 0.61039263E-02 0.20000578E+02</pdfrwt>
<pdfrwt beam="2">  1       -3 0.38778329E-03 0.20000578E+02</pdfrwt>
<totfact> 0.16596180E+06</totfact>
</mgrwt>
</event>
<event>
 5    1  0.4183996E-007  0.2000120E+02  0.7818608E-02  0.1745304E+00
         -3   -1    0    0    0  501 -0.00000000000E+00  0.00000000000E+00  0.21043000699E+02  0.21043206206E+02  0.93000000000E-01 0.  1.
          3   -1    0    0  501    0  0.00000000000E+00 -0.00000000000E+00 -0.47520595718E+01  0.47529695112E+01  0.93000000000E-01 0. -1.
       1023    2    1    2    0    0  0.00000000000E+00  0.00000000000E+00  0.16290941128E+02  0.25796175717E+02  0.20001197935E+02 0.  0.
        -11    1    3    3    0    0  0.64460822354E+01 -0.76456318848E+01  0.80607366834E+01  0.12844576258E+02  0.51100000000E-03 0.  1.
         11    1    3    3    0    0 -0.64460822354E+01  0.76456318848E+01  0.82302044442E+01  0.12951599460E+02  0.51100000000E-03 0. -1.
<mgrwt>
<rscale>  0 0.20001198E+02</rscale>
<asrwt>0</asrwt>
<pdfrwt beam="2">  1        3 0.73117189E-03 0.20001198E+02</pdfrwt>
<pdfrwt beam="1">  1       -3 0.32374705E-02 0.20001198E+02</pdfrwt>
<totfact> 0.17516662E+06</totfact>
</mgrwt>
</event>
<event>
 5    1  0.4133473E-007  0.2000067E+02  0.7818608E-02  0.1745315E+00
         -3   -1    0    0    0  501 -0.00000000000E+00  0.00000000000E+00  0.96576184908E+00  0.97022932811E+00  0.93000000000E-01 0.  1.
          3   -1    0    0  501    0  0.00000000000E+00 -0.00000000000E+00 -0.10330872483E+03  0.10330876669E+03  0.93000000000E-01 0. -1.
       1023    2    1    2    0    0  0.00000000000E+00  0.00000000000E+00 -0.10234296298E+03  0.10427899601E+03  0.20000673459E+02 0.  0.
        -11    1    3    3    0    0  0.14445057119E+01 -0.98954558903E+01 -0.51121906025E+02  0.52090842957E+02  0.51100000000E-03 0. -1.
         11    1    3    3    0    0 -0.14445057119E+01  0.98954558903E+01 -0.51221056951E+02  0.52188153057E+02  0.51100000000E-03 0.  1.
<mgrwt>
<rscale>  0 0.20000673E+02</rscale>
<asrwt>0</asrwt>
<pdfrwt beam="2">  1        3 0.15893988E-01 0.20000673E+02</pdfrwt>
<pdfrwt beam="1">  1       -3 0.14892570E-03 0.20000673E+02</pdfrwt>
<totfact> 0.14030612E+06</totfact>
</mgrwt>
</event>
<event>
 5    1  0.4257247E-007  0.2000085E+02  0.7818608E-02  0.1745311E+00
         -3   -1    0    0    0  501 -0.00000000000E+00  0.00000000000E+00  0.10875763832E+02  0.10876161452E+02  0.93000000000E-01 0.  1.
          3   -1    0    0  501    0  0.00000000000E+00 -0.00000000000E+00 -0.91947345039E+01  0.91952048154E+01  0.93000000000E-01 0. -1.
       1023    2    1    2    0    0  0.00000000000E+00  0.00000000000E+00  0.16810293284E+01  0.20071366268E+02  0.20000847088E+02 0.  0.
        -11    1    3    3    0    0 -0.35762544289E+01 -0.93390266733E+01  0.80222447054E+00  0.10032476230E+02  0.51100000000E-03 0.  1.
         11    1    3    3    0    0  0.35762544289E+01  0.93390266733E+01  0.87880485785E+00  0.10038890037E+02  0.51100000000E-03 0. -1.
<mgrwt>
<rscale>  0 0.20000847E+02</rscale>
<asrwt>0</asrwt>
<pdfrwt beam="2">  1        3 0.14146413E-02 0.20000847E+02</pdfrwt>
<pdfrwt beam="1">  1       -3 0.16732612E-02 0.20000847E+02</pdfrwt>
<totfact> 0.17879431E+06</totfact>
</mgrwt>
</event>
<event>
 5    1  0.4264915E-007  0.2000064E+02  0.7818608E-02  0.1745315E+00
          3   -1    0    0  501    0  0.00000000000E+00  0.00000000000E+00  0.49185141445E+01  0.49193932948E+01  0.93000000000E-01 0. -1.
         -3   -1    0    0    0  501 -0.00000000000E+00 -0.00000000000E+00 -0.20329850090E+02  0.20330062806E+02  0.93000000000E-01 0.  1.
       1023    2    1    2    0    0  0.00000000000E+00  0.00000000000E+00 -0.15411335946E+02  0.25249456101E+02  0.20000643933E+02 0.  0.
        -11    1    3    3    0    0 -0.15357691632E+01 -0.98814142407E+01 -0.77993337887E+01  0.12681898207E+02  0.51100000000E-03 0.  1.
         11    1    3    3    0    0  0.15357691632E+01  0.98814142407E+01 -0.76120021573E+01  0.12567557894E+02  0.51100000000E-03 0. -1.
<mgrwt>
<rscale>  0 0.20000644E+02</rscale>
<asrwt>0</asrwt>
<pdfrwt beam="1">  1        3 0.75677849E-03 0.20000644E+02</pdfrwt>
<pdfrwt beam="2">  1       -3 0.31277532E-02 0.20000644E+02</pdfrwt>
<totfact> 0.17551238E+06</totfact>
</mgrwt>
</event>
<event>
 5    1  0.4133473E-007  0.2000062E+02  0.7818608E-02  0.1745316E+00
          3   -1    0    0  501    0  0.00000000000E+00  0.00000000000E+00  0.29863712374E+02  0.29863857182E+02  0.93000000000E-01 0. -1.
         -3   -1    0    0    0  501 -0.00000000000E+00 -0.00000000000E+00 -0.33479539980E+01  0.33492454333E+01  0.93000000000E-01 0.  1.
       1023    2    1    2    0    0  0.00000000000E+00  0.00000000000E+00  0.26515758376E+02  0.33213102615E+02  0.20000618567E+02 0.  0.
        -11    1    3    3    0    0  0.99984231374E+01 -0.18258202040E+00  0.13367831630E+02  0.16694332098E+02  0.51100000000E-03 0.  1.
         11    1    3    3    0    0 -0.99984231374E+01  0.18258202040E+00  0.13147926746E+02  0.16518770518E+02  0.51100000000E-03 0. -1.
<mgrwt>
<rscale>  0 0.20000619E+02</rscale>
<asrwt>0</asrwt>
<pdfrwt beam="1">  1        3 0.45945277E-02 0.20000619E+02</pdfrwt>
<pdfrwt beam="2">  1       -3 0.51518033E-03 0.20000619E+02</pdfrwt>
<totfact> 0.17080819E+06</totfact>
</mgrwt>
</event>
<event>
 5    1  0.4133473E-007  0.2000179E+02  0.7818608E-02  0.1745292E+00
         -3   -1    0    0    0  501 -0.00000000000E+00  0.00000000000E+00  0.19281398086E+01  0.19303813410E+01  0.93000000000E-01 0.  1.
          3   -1    0    0  501    0  0.00000000000E+00 -0.00000000000E+00 -0.51840351035E+02  0.51840434455E+02  0.93000000000E-01 0. -1.
       1023    2    1    2    0    0  0.00000000000E+00  0.00000000000E+00 -0.49912211227E+02  0.53770815796E+02  0.20001794965E+02 0.  0.
        -11    1    3    3    0    0 -0.16519691856E+01 -0.98634593741E+01 -0.24866251355E+02  0.26802001600E+02  0.51100000000E-03 0. -1.
         11    1    3    3    0    0  0.16519691856E+01  0.98634593741E+01 -0.25045959871E+02  0.26968814196E+02  0.51100000000E-03 0.  1.
<mgrwt>
<rscale>  0 0.20001795E+02</rscale>
<asrwt>0</asrwt>
<pdfrwt beam="2">  1        3 0.79756164E-02 0.20001795E+02</pdfrwt>
<pdfrwt beam="1">  1       -3 0.29681578E-03 0.20001795E+02</pdfrwt>
<totfact> 0.16024909E+06</totfact>
</mgrwt>
</event>
<event>
 5    1  0.4133473E-007  0.2000512E+02  0.7818608E-02  0.1745226E+00
         -3   -1    0    0    0  501 -0.00000000000E+00  0.00000000000E+00  0.16846754737E+02  0.16847011431E+02  0.93000000000E-01 0. -1.
          3   -1    0    0  501    0  0.00000000000E+00 -0.00000000000E+00 -0.59382349141E+01  0.59389631162E+01  0.93000000000E-01 0.  1.
       1023    2    1    2    0    0  0.00000000000E+00  0.00000000000E+00  0.10908519822E+02  0.22785974547E+02  0.20005120128E+02 0.  0.
        -11    1    3    3    0    0  0.75221624675E+01  0.65925820693E+01  0.53650018168E+01  0.11350256001E+02  0.51100000000E-03 0. -1.
         11    1    3    3    0    0 -0.75221624675E+01 -0.65925820693E+01  0.55435180057E+01  0.11435718546E+02  0.51100000000E-03 0.  1.
<mgrwt>
<rscale>  0 0.20005120E+02</rscale>
<asrwt>0</asrwt>
<pdfrwt beam="2">  1        3 0.91365037E-03 0.20005120E+02</pdfrwt>
<pdfrwt beam="1">  1       -3 0.25918842E-02 0.20005120E+02</pdfrwt>
<totfact> 0.17696448E+06</totfact>
</mgrwt>
</event>
<event>
 5    1  0.4133473E-007  0.2000015E+02  0.7818608E-02  0.1745325E+00
         -3   -1    0    0    0  501 -0.00000000000E+00  0.00000000000E+00  0.44653674601E+01  0.44663358084E+01  0.93000000000E-01 0. -1.
          3   -1    0    0  501    0  0.00000000000E+00 -0.00000000000E+00 -0.22391427137E+02  0.22391620268E+02  0.93000000000E-01 0.  1.
       1023    2    1    2    0    0  0.00000000000E+00  0.00000000000E+00 -0.17926059677E+02  0.26857956077E+02  0.20000154726E+02 0.  0.
        -11    1    3    3    0    0  0.66160345838E+01  0.74985866957E+01 -0.90017404084E+01  0.13454815000E+02  0.51100000000E-03 0.  1.
         11    1    3    3    0    0 -0.66160345838E+01 -0.74985866957E+01 -0.89243192686E+01  0.13403141076E+02  0.51100000000E-03 0. -1.
<mgrwt>
<rscale>  0 0.20000155E+02</rscale>
<asrwt>0</asrwt>
<pdfrwt beam="2">  1        3 0.34449242E-02 0.20000155E+02</pdfrwt>
<pdfrwt beam="1">  1       -3 0.68706896E-03 0.20000155E+02</pdfrwt>
<totfact> 0.17452734E+06</totfact>
</mgrwt>
</event>
<event>
 5    1  0.4133473E-007  0.2000315E+02  0.7818608E-02  0.1745265E+00
          3   -1    0    0  501    0  0.00000000000E+00  0.00000000000E+00  0.11460806228E+02  0.11461183551E+02  0.93000000000E-01 0. -1.
         -3   -1    0    0    0  501 -0.00000000000E+00 -0.00000000000E+00 -0.87273712904E+01  0.87278667864E+01  0.93000000000E-01 0.  1.
       1023    2    1    2    0    0  0.00000000000E+00  0.00000000000E+00  0.27334349372E+01  0.20189050337E+02  0.20003151926E+02 0.  0.
        -11    1    3    3    0    0  0.61491121890E+01  0.78879404988E+01  0.13852031196E+01  0.10097027977E+02  0.51100000000E-03 0. -1.
         11    1    3    3    0    0 -0.61491121890E+01 -0.78879404988E+01  0.13482318177E+01  0.10092022360E+02  0.51100000000E-03 0.  1.
<mgrwt>
<rscale>  0 0.20003152E+02</rscale>
<asrwt>0</asrwt>
<pdfrwt beam="1">  1        3 0.17632681E-02 0.20003152E+02</pdfrwt>
<pdfrwt beam="2">  1       -3 0.13427396E-02 0.20003152E+02</pdfrwt>
<totfact> 0.17867078E+06</totfact>
</mgrwt>
</event>
<event>
 5    1  0.4133473E-007  0.2000028E+02  0.7818608E-02  0.1745323E+00
          3   -1    0    0  501    0  0.00000000000E+00  0.00000000000E+00  0.46443693315E+01  0.46453003657E+01  0.93000000000E-01 0. -1.
         -3   -1    0    0    0  501 -0.00000000000E+00 -0.00000000000E+00 -0.21528861041E+02  0.21529061910E+02  0.93000000000E-01 0.  1.
       1023    2    1    2    0    0  0.00000000000E+00  0.00000000000E+00 -0.16884491710E+02  0.26174362276E+02  0.20000279504E+02 0.  0.
        -11    1    3    3    0    0 -0.99119232993E+01 -0.13252853104E+01 -0.84602924764E+01  0.13098822607E+02  0.51100000000E-03 0.  1.
         11    1    3    3    0    0  0.99119232993E+01  0.13252853104E+01 -0.84241992332E+01  0.13075539669E+02  0.51100000000E-03 0. -1.
<mgrwt>
<rscale>  0 0.20000280E+02</rscale>
<asrwt>0</asrwt>
<pdfrwt beam="1">  1        3 0.71460544E-03 0.20000280E+02</pdfrwt>
<pdfrwt beam="2">  1       -3 0.33122195E-02 0.20000280E+02</pdfrwt>
<totfact> 0.17495331E+06</totfact>
</mgrwt>
</event>
<event>
 4    1  0.4133473E-007  0.2006385E+02  0.7818608E-02  0.1744061E+00
         -3   -1    0    0    0  501 -0.00000000000E+00  0.00000000000E+00  0.35476368750E+02  0.35476490647E+02  0.93000000000E-01 0. -1.
          3   -1    0    0  501    0  0.00000000000E+00 -0.00000000000E+00 -0.28359167314E+01  0.28374412254E+01  0.93000000000E-01 0.  1.
        -11    1    1    2    0    0 -0.35928005228E+01 -0.93565810145E+01  0.15497228923E+02  0.18455837245E+02  0.51100000000E-03 0. -1.
         11    1    1    2    0    0  0.35928005228E+01  0.93565810145E+01  0.17143223095E+02  0.19858094627E+02  0.51100000000E-03 0.  1.
<mgrwt>
<rscale>  0 0.20063855E+02</rscale>
<asrwt>0</asrwt>
<pdfrwt beam="2">  1        3 0.43642153E-03 0.20063855E+02</pdfrwt>
<pdfrwt beam="1">  1       -3 0.54580295E-02 0.20063855E+02</pdfrwt>
<totfact> 0.16688862E+06</totfact>
</mgrwt>
</event>
<event>
 5    1  0.4133473E-007  0.2000072E+02  0.7818608E-02  0.1745314E+00
         -3   -1    0    0    0  501 -0.00000000000E+00  0.00000000000E+00  0.41626502233E+01  0.41636889751E+01  0.93000000000E-01 0.  1.
          3   -1    0    0  501    0  0.00000000000E+00 -0.00000000000E+00 -0.24020772197E+02  0.24020952228E+02  0.93000000000E-01 0. -1.
       1023    2    1    2    0    0  0.00000000000E+00  0.00000000000E+00 -0.19858121974E+02  0.28184641203E+02  0.20000724773E+02 0.  0.
        -11    1    3    3    0    0 -0.65484584467E+01 -0.75581036206E+01 -0.99247798304E+01  0.14089304217E+02  0.51100000000E-03 0.  1.
         11    1    3    3    0    0  0.65484584467E+01  0.75581036206E+01 -0.99333421436E+01  0.14095336987E+02  0.51100000000E-03 0. -1.
<mgrwt>
<rscale>  0 0.20000725E+02</rscale>
<asrwt>0</asrwt>
<pdfrwt beam="2">  1        3 0.36955971E-02 0.20000725E+02</pdfrwt>
<pdfrwt beam="1">  1       -3 0.64050150E-03 0.20000725E+02</pdfrwt>
<totfact> 0.17372072E+06</totfact>
</mgrwt>
</event>
<event>
 5    1  0.4133473E-007  0.2000024E+02  0.7818608E-02  0.1745323E+00
          3   -1    0    0  501    0  0.00000000000E+00  0.00000000000E+00  0.36404294349E+02  0.36404413140E+02  0.93000000000E-01 0.  1.
         -3   -1    0    0    0  501 -0.00000000000E+00 -0.00000000000E+00 -0.27460839317E+01  0.27476582684E+01  0.93000000000E-01 0. -1.
       1023    2    1    2    0    0  0.00000000000E+00  0.00000000000E+00  0.33658210418E+02  0.39152071408E+02  0.20000239175E+02 0.  0.
        -11    1    3    3    0    0 -0.39795542066E+01 -0.91741112207E+01  0.16760642227E+02  0.19517179522E+02  0.51100000000E-03 0. -1.
         11    1    3    3    0    0  0.39795542066E+01  0.91741112207E+01  0.16897568191E+02  0.19634891887E+02  0.51100000000E-03 0.  1.
<mgrwt>
<rscale>  0 0.20000239E+02</rscale>
<asrwt>0</asrwt>
<pdfrwt beam="1">  1        3 0.56007908E-02 0.20000239E+02</pdfrwt>
<pdfrwt beam="2">  1       -3 0.42260470E-03 0.20000239E+02</pdfrwt>
<totfact> 0.16756295E+06</totfact>
</mgrwt>
</event>
<event>
 5    1  0.4133473E-007  0.2000432E+02  0.7818608E-02  0.1745242E+00
          3   -1    0    0  501    0  0.00000000000E+00  0.00000000000E+00  0.69852017426E+02  0.69852079336E+02  0.93000000000E-01 0. -1.
         -3   -1    0    0    0  501 -0.00000000000E+00 -0.00000000000E+00 -0.14306443928E+01  0.14336639699E+01  0.93000000000E-01 0.  1.
       1023    2    1    2    0    0  0.00000000000E+00  0.00000000000E+00  0.68421373034E+02  0.71285743306E+02  0.20004322304E+02 0.  0.
        -11    1    3    3    0    0 -0.78054980703E+01 -0.62541320134E+01  0.34414153047E+02  0.35838162587E+02  0.51100000000E-03 0. -1.
         11    1    3    3    0    0  0.78054980703E+01  0.62541320134E+01  0.34007219986E+02  0.35447580719E+02  0.51100000000E-03 0.  1.
<mgrwt>
<rscale>  0 0.20004322E+02</rscale>
<asrwt>0</asrwt>
<pdfrwt beam="1">  1        3 0.10746704E-01 0.20004322E+02</pdfrwt>
<pdfrwt beam="2">  1       -3 0.22033611E-03 0.20004322E+02</pdfrwt>
<totfact> 0.15252815E+06</totfact>
</mgrwt>
</event>
<event>
 5    1  0.4133473E-007  0.2000051E+02  0.7818608E-02  0.1745318E+00
          3   -1    0    0  501    0  0.00000000000E+00  0.00000000000E+00  0.14436755566E+01  0.14466679345E+01  0.93000000000E-01 0. -1.
         -3   -1    0    0    0  501 -0.00000000000E+00 -0.00000000000E+00 -0.69196454777E+02  0.69196517273E+02  0.93000000000E-01 0.  1.
       1023    2    1    2    0    0  0.00000000000E+00  0.00000000000E+00 -0.67752779220E+02  0.70643185207E+02  0.20000513098E+02 0.  0.
        -11    1    3    3    0    0 -0.98286046441E+01 -0.18444495872E+01 -0.33732168181E+02  0.35183272076E+02  0.51100000000E-03 0. -1.
         11    1    3    3    0    0  0.98286046441E+01  0.18444495872E+01 -0.34020611039E+02  0.35459913131E+02  0.51100000000E-03 0.  1.
<mgrwt>
<rscale>  0 0.20000513E+02</rscale>
<asrwt>0</asrwt>
<pdfrwt beam="1">  1        3 0.22233898E-03 0.20000513E+02</pdfrwt>
<pdfrwt beam="2">  1       -3 0.10645841E-01 0.20000513E+02</pdfrwt>
<totfact> 0.15288449E+06</totfact>
</mgrwt>
</event>
<event>
 5    1  0.4133473E-007  0.2000071E+02  0.7818608E-02  0.1745314E+00
          3   -1    0    0  501    0  0.00000000000E+00  0.00000000000E+00  0.89676228186E+00  0.90157173323E+00  0.93000000000E-01 0. -1.
         -3   -1    0    0    0  501 -0.00000000000E+00 -0.00000000000E+00 -0.11121713348E+03  0.11121717237E+03  0.93000000000E-01 0.  1.
       1023    2    1    2    0    0  0.00000000000E+00  0.00000000000E+00 -0.11032037120E+03  0.11211874410E+03  0.20000711900E+02 0.  0.
        -11    1    3    3    0    0 -0.52916909317E+01 -0.84854290909E+01 -0.54873300193E+02  0.55777088254E+02  0.51100000000E-03 0.  1.
         11    1    3    3    0    0  0.52916909317E+01  0.84854290909E+01 -0.55447071010E+02  0.56341655847E+02  0.51100000000E-03 0. -1.
<mgrwt>
<rscale>  0 0.20000712E+02</rscale>
<asrwt>0</asrwt>
<pdfrwt beam="1">  1        3 0.13833646E-03 0.20000712E+02</pdfrwt>
<pdfrwt beam="2">  1       -3 0.17110690E-01 0.20000712E+02</pdfrwt>
<totfact> 0.13773496E+06</totfact>
</mgrwt>
</event>
<event>
 5    1  0.4133473E-007  0.2000047E+02  0.7818608E-02  0.1745319E+00
          3   -1    0    0  501    0  0.00000000000E+00  0.00000000000E+00  0.44949797027E+01  0.44959416730E+01  0.93000000000E-01 0. -1.
         -3   -1    0    0    0  501 -0.00000000000E+00 -0.00000000000E+00 -0.22244650228E+02  0.22244844634E+02  0.93000000000E-01 0.  1.
       1023    2    1    2    0    0  0.00000000000E+00  0.00000000000E+00 -0.17749670526E+02  0.26740786307E+02  0.20000471208E+02 0.  0.
        -11    1    3    3    0    0 -0.66557298986E+01  0.74636324988E+01 -0.88578540780E+01  0.13359121591E+02  0.51100000000E-03 0. -1.
         11    1    3    3    0    0  0.66557298986E+01 -0.74636324988E+01 -0.88918164478E+01  0.13381664716E+02  0.51100000000E-03 0.  1.
<mgrwt>
<rscale>  0 0.20000471E+02</rscale>
<asrwt>0</asrwt>
<pdfrwt beam="1">  1        3 0.69162430E-03 0.20000471E+02</pdfrwt>
<pdfrwt beam="2">  1       -3 0.34223428E-02 0.20000471E+02</pdfrwt>
<totfact> 0.17460630E+06</totfact>
</mgrwt>
</event>
<event>
 5    1  0.4177856E-007  0.2000053E+02  0.7818608E-02  0.1745317E+00
          3   -1    0    0  501    0  0.00000000000E+00  0.00000000000E+00  0.38551927939E+01  0.38563143645E+01  0.93000000000E-01 0.  1.
         -3   -1    0    0    0  501 -0.00000000000E+00 -0.00000000000E+00 -0.25935445985E+02  0.25935612726E+02  0.93000000000E-01 0. -1.
       1023    2    1    2    0    0  0.00000000000E+00  0.00000000000E+00 -0.22080253191E+02  0.29791927090E+02  0.20000533462E+02 0.  0.
        -11    1    3    3    0    0  0.99996429983E+01  0.10423043312E+00 -0.10980351910E+02  0.14851661604E+02  0.51100000000E-03 0. -1.
         11    1    3    3    0    0 -0.99996429983E+01 -0.10423043312E+00 -0.11099901281E+02  0.14940265486E+02  0.51100000000E-03 0.  1.
<mgrwt>
<rscale>  0 0.20000533E+02</rscale>
<asrwt>0</asrwt>
<pdfrwt beam="1">  1        3 0.59320570E-03 0.20000533E+02</pdfrwt>
<pdfrwt beam="2">  1       -3 0.39901676E-02 0.20000533E+02</pdfrwt>
<totfact> 0.17279218E+06</totfact>
</mgrwt>
</event>
<event>
 5    1  0.4255873E-007  0.2000181E+02  0.7818608E-02  0.1745292E+00
          3   -1    0    0  501    0  0.00000000000E+00  0.00000000000E+00  0.95699648254E+01  0.95704166973E+01  0.93000000000E-01 0. -1.
         -3   -1    0    0    0  501 -0.00000000000E+00 -0.00000000000E+00 -0.10450345260E+02  0.10450759066E+02  0.93000000000E-01 0.  1.
       1023    2    1    2    0    0  0.00000000000E+00  0.00000000000E+00 -0.88038043469E+00  0.20021175763E+02  0.20001810149E+02 0.  0.
        -11    1    3    3    0    0 -0.22031542665E+01  0.97550523219E+01 -0.49652546180E+00  0.10013065081E+02  0.51100000000E-03 0.  1.
         11    1    3    3    0    0  0.22031542665E+01 -0.97550523219E+01 -0.38385497288E+00  0.10008110682E+02  0.51100000000E-03 0. -1.
<mgrwt>
<rscale>  0 0.20001810E+02</rscale>
<asrwt>0</asrwt>
<pdfrwt beam="1">  1        3 0.14723689E-02 0.20001810E+02</pdfrwt>
<pdfrwt beam="2">  1       -3 0.16078120E-02 0.20001810E+02</pdfrwt>
<totfact> 0.17880802E+06</totfact>
</mgrwt>
</event>
<event>
 5    1  0.4133473E-007  0.2000073E+02  0.7818608E-02  0.1745314E+00
         -3   -1    0    0    0  501 -0.00000000000E+00  0.00000000000E+00  0.11699717489E+03  0.11699721185E+03  0.93000000000E-01 0. -1.
          3   -1    0    0  501    0  0.00000000000E+00 -0.00000000000E+00 -0.85221727196E+00  0.85727666399E+00  0.93000000000E-01 0.  1.
       1023    2    1    2    0    0  0.00000000000E+00  0.00000000000E+00  0.11614495761E+03  0.11785448851E+03  0.20000732071E+02 0.  0.
        -11    1    3    3    0    0 -0.30332159188E+01 -0.95291075070E+01  0.57748022048E+02  0.58607493884E+02  0.51100000000E-03 0.  1.
         11    1    3    3    0    0  0.30332159188E+01  0.95291075070E+01  0.58396935566E+02  0.59246994628E+02  0.51100000000E-03 0. -1.
<mgrwt>
<rscale>  0 0.20000732E+02</rscale>
<asrwt>0</asrwt>
<pdfrwt beam="2">  1        3 0.13150233E-03 0.20000732E+02</pdfrwt>
<pdfrwt beam="1">  1       -3 0.17999964E-01 0.20000732E+02</pdfrwt>
<totfact> 0.13589901E+06</totfact>
</mgrwt>
</event>
<event>
 4    1  0.4133473E-007  0.2001638E+02  0.7818608E-02  0.1745003E+00
         -3   -1    0    0    0  501 -0.00000000000E+00  0.00000000000E+00  0.10674279300E+02  0.10674684425E+02  0.93000000000E-01 0. -1.
          3   -1    0    0  501    0  0.00000000000E+00 -0.00000000000E+00 -0.93828483907E+01  0.93833092735E+01  0.93000000000E-01 0.  1.
        -11    1    1    2    0    0 -0.20629805743E+01 -0.97869407890E+01  0.99819990066E+00  0.10051691507E+02  0.51100000000E-03 0.  1.
         11    1    1    2    0    0  0.20629805743E+01  0.97869407890E+01  0.29323100885E+00  0.10006302191E+02  0.51100000000E-03 0. -1.
<mgrwt>
<rscale>  0 0.20016376E+02</rscale>
<asrwt>0</asrwt>
<pdfrwt beam="2">  1        3 0.14435818E-02 0.20016376E+02</pdfrwt>
<pdfrwt beam="1">  1       -3 0.16422634E-02 0.20016376E+02</pdfrwt>
<totfact> 0.17850390E+06</totfact>
</mgrwt>
</event>
<event>
 5    1  0.4148987E-007  0.2000066E+02  0.7818608E-02  0.1745315E+00
         -3   -1    0    0    0  501 -0.00000000000E+00  0.00000000000E+00  0.21054299636E+02  0.21054505032E+02  0.93000000000E-01 0.  1.
          3   -1    0    0  501    0  0.00000000000E+00 -0.00000000000E+00 -0.47492526408E+01  0.47501631179E+01  0.93000000000E-01 0. -1.
       1023    2    1    2    0    0  0.00000000000E+00  0.00000000000E+00  0.16305046995E+02  0.25804668150E+02  0.20000658510E+02 0.  0.
        -11    1    3    3    0    0 -0.30214849436E+01 -0.95329321427E+01  0.81789155489E+01  0.12919010269E+02  0.51100000000E-03 0. -1.
         11    1    3    3    0    0  0.30214849436E+01  0.95329321427E+01  0.81261314461E+01  0.12885657882E+02  0.51100000000E-03 0.  1.
<mgrwt>
<rscale>  0 0.20000659E+02</rscale>
<asrwt>0</asrwt>
<pdfrwt beam="2">  1        3 0.73074008E-03 0.20000659E+02</pdfrwt>
<pdfrwt beam="1">  1       -3 0.32392089E-02 0.20000659E+02</pdfrwt>
<totfact> 0.17517160E+06</totfact>
</mgrwt>
</event>
<event>
 5    1  0.4585404E-007  0.2000255E+02  0.7818608E-02  0.1745277E+00
          3   -1    0    0  501    0  0.00000000000E+00  0.00000000000E+00  0.36155619326E+01  0.36167578145E+01  0.93000000000E-01 0. -1.
         -3   -1    0    0    0  501 -0.00000000000E+00 -0.00000000000E+00 -0.27659409323E+02  0.27659565671E+02  0.93000000000E-01 0.  1.
       1023    2    1    2    0    0  0.00000000000E+00  0.00000000000E+00 -0.24043847391E+02  0.31276323486E+02  0.20002545174E+02 0.  0.
        -11    1    3    3    0    0 -0.10000809508E+02 -0.48970646619E-01 -0.12151469655E+02  0.15737750918E+02  0.51100000000E-03 0. -1.
         11    1    3    3    0    0  0.10000809508E+02  0.48970646619E-01 -0.11892377736E+02  0.15538572567E+02  0.51100000000E-03 0.  1.
<mgrwt>
<rscale>  0 0.20002545E+02</rscale>
<asrwt>0</asrwt>
<pdfrwt beam="1">  1        3 0.55634433E-03 0.20002545E+02</pdfrwt>
<pdfrwt beam="2">  1       -3 0.42553976E-02 0.20002545E+02</pdfrwt>
<totfact> 0.17189509E+06</totfact>
</mgrwt>
</event>
<event>
 5    1  0.4133473E-007  0.2000151E+02  0.7818608E-02  0.1745298E+00
         -3   -1    0    0    0  501 -0.00000000000E+00  0.00000000000E+00  0.37016789319E+01  0.37028470013E+01  0.93000000000E-01 0.  1.
          3   -1    0    0  501    0  0.00000000000E+00 -0.00000000000E+00 -0.27013335888E+02  0.27013495975E+02  0.93000000000E-01 0. -1.
       1023    2    1    2    0    0  0.00000000000E+00  0.00000000000E+00 -0.23311656956E+02  0.30716342976E+02  0.20001509338E+02 0.  0.
        -11    1    3    3    0    0 -0.90770431261E+01 -0.41978512922E+01 -0.11687536381E+02  0.15382235673E+02  0.51100000000E-03 0. -1.
         11    1    3    3    0    0  0.90770431261E+01  0.41978512922E+01 -0.11624120575E+02  0.15334107303E+02  0.51100000000E-03 0.  1.
<mgrwt>
<rscale>  0 0.20001509E+02</rscale>
<asrwt>0</asrwt>
<pdfrwt beam="2">  1        3 0.41559999E-02 0.20001509E+02</pdfrwt>
<pdfrwt beam="1">  1       -3 0.56959125E-03 0.20001509E+02</pdfrwt>
<totfact> 0.17221974E+06</totfact>
</mgrwt>
</event>
<event>
 5    1  0.4133473E-007  0.2000024E+02  0.7818608E-02  0.1745323E+00
         -3   -1    0    0    0  501 -0.00000000000E+00  0.00000000000E+00  0.29496903870E+01  0.29511561089E+01  0.93000000000E-01 0.  1.
          3   -1    0    0  501    0  0.00000000000E+00 -0.00000000000E+00 -0.33892728636E+02  0.33892856229E+02  0.93000000000E-01 0. -1.
       1023    2    1    2    0    0  0.00000000000E+00  0.00000000000E+00 -0.30943038249E+02  0.36844012338E+02  0.20000240726E+02 0.  0.
        -11    1    3    3    0    0 -0.90682008869E+01  0.42152791359E+01 -0.15544314274E+02  0.18483142374E+02  0.51100000000E-03 0.  1.
         11    1    3    3    0    0  0.90682008869E+01 -0.42152791359E+01 -0.15398723975E+02  0.18360869964E+02  0.51100000000E-03 0. -1.
<mgrwt>
<rscale>  0 0.20000241E+02</rscale>
<asrwt>0</asrwt>
<pdfrwt beam="2">  1        3 0.52143882E-02 0.20000241E+02</pdfrwt>
<pdfrwt beam="1">  1       -3 0.45392111E-03 0.20000241E+02</pdfrwt>
<totfact> 0.16880453E+06</totfact>
</mgrwt>
</event>
<event>
 5    1  0.4133473E-007  0.2000250E+02  0.7818608E-02  0.1745278E+00
         -3   -1    0    0    0  501 -0.00000000000E+00  0.00000000000E+00  0.11601382088E+02  0.11601754839E+02  0.93000000000E-01 0.  1.
          3   -1    0    0  501    0  0.00000000000E+00 -0.00000000000E+00 -0.86210598130E+01  0.86215614189E+01  0.93000000000E-01 0. -1.
       1023    2    1    2    0    0  0.00000000000E+00  0.00000000000E+00  0.29803222748E+01  0.20223316258E+02  0.20002504833E+02 0.  0.
        -11    1    3    3    0    0 -0.41507505618E+01  0.90990359943E+01  0.15530034552E+01  0.10120919239E+02  0.51100000000E-03 0.  1.
         11    1    3    3    0    0  0.41507505618E+01 -0.90990359943E+01  0.14273188195E+01  0.10102397019E+02  0.51100000000E-03 0. -1.
<mgrwt>
<rscale>  0 0.20002505E+02</rscale>
<asrwt>0</asrwt>
<pdfrwt beam="2">  1        3 0.13263842E-02 0.20002505E+02</pdfrwt>
<pdfrwt beam="1">  1       -3 0.17848953E-02 0.20002505E+02</pdfrwt>
<totfact> 0.17866324E+06</totfact>
</mgrwt>
</event>
<event>
 4    1  0.4133473E-007  0.2012566E+02  0.7818608E-02  0.1742841E+00
         -3   -1    0    0    0  501 -0.00000000000E+00  0.00000000000E+00  0.94708501174E+01  0.94713067180E+01  0.93000000000E-01 0.  1.
          3   -1    0    0  501    0  0.00000000000E+00 -0.00000000000E+00 -0.10690897045E+02  0.10691301540E+02  0.93000000000E-01 0. -1.
        -11    1    1    2    0    0 -0.38003445195E+01  0.92602291228E+01 -0.16444412077E+01  0.10143897132E+02  0.51100000000E-03 0. -1.
         11    1    1    2    0    0  0.38003445195E+01 -0.92602291228E+01  0.42439428002E+00  0.10018711127E+02  0.51100000000E-03 0.  1.
<mgrwt>
<rscale>  0 0.20125662E+02</rscale>
<asrwt>0</asrwt>
<pdfrwt beam="2">  1        3 0.16448196E-02 0.20125662E+02</pdfrwt>
<pdfrwt beam="1">  1       -3 0.14571201E-02 0.20125662E+02</pdfrwt>
<totfact> 0.17635140E+06</totfact>
</mgrwt>
</event>
<event>
 5    1  0.4133473E-007  0.2000186E+02  0.7818608E-02  0.1745291E+00
          3   -1    0    0  501    0  0.00000000000E+00  0.00000000000E+00  0.11876220875E+03  0.11876224517E+03  0.93000000000E-01 0. -1.
         -3   -1    0    0    0  501 -0.00000000000E+00 -0.00000000000E+00 -0.83957153424E+00  0.84470667164E+00  0.93000000000E-01 0.  1.
       1023    2    1    2    0    0  0.00000000000E+00  0.00000000000E+00  0.11792263722E+03  0.11960695184E+03  0.20001863895E+02 0.  0.
        -11    1    3    3    0    0  0.56903026098E+01  0.82242831258E+01  0.59058264156E+02  0.59899056271E+02  0.51100000000E-03 0. -1.
         11    1    3    3    0    0 -0.56903026098E+01 -0.82242831258E+01  0.58864373063E+02  0.59707895567E+02  0.51100000000E-03 0.  1.
<mgrwt>
<rscale>  0 0.20001864E+02</rscale>
<asrwt>0</asrwt>
<pdfrwt beam="1">  1        3 0.18271498E-01 0.20001864E+02</pdfrwt>
<pdfrwt beam="2">  1       -3 0.12956273E-03 0.20001864E+02</pdfrwt>
<totfact> 0.13530607E+06</totfact>
</mgrwt>
</event>
<event>
 5    1  0.4133473E-007  0.2000148E+02  0.7818608E-02  0.1745299E+00
         -3   -1    0    0    0  501 -0.00000000000E+00  0.00000000000E+00  0.56106209638E+02  0.56106286715E+02  0.93000000000E-01 0.  1.
          3   -1    0    0  501    0  0.00000000000E+00 -0.00000000000E+00 -0.17813066798E+01  0.17837327399E+01  0.93000000000E-01 0. -1.
       1023    2    1    2    0    0  0.00000000000E+00  0.00000000000E+00  0.54324902958E+02  0.57890019455E+02  0.20001481722E+02 0.  0.
        -11    1    3    3    0    0 -0.91578122270E+01 -0.40184347248E+01  0.27273611872E+02  0.29049324385E+02  0.51100000000E-03 0. -1.
         11    1    3    3    0    0  0.91578122270E+01  0.40184347248E+01  0.27051291086E+02  0.28840695070E+02  0.51100000000E-03 0.  1.
<mgrwt>
<rscale>  0 0.20001482E+02</rscale>
<asrwt>0</asrwt>
<pdfrwt beam="2">  1        3 0.27423969E-03 0.20001482E+02</pdfrwt>
<pdfrwt beam="1">  1       -3 0.86319182E-02 0.20001482E+02</pdfrwt>
<totfact> 0.15838651E+06</totfact>
</mgrwt>
</event>
<event>
 5    1  0.4133473E-007  0.2000027E+02  0.7818608E-02  0.1745323E+00
          3   -1    0    0  501    0  0.00000000000E+00  0.00000000000E+00  0.10049255266E+01  0.10092196559E+01  0.93000000000E-01 0.  1.
         -3   -1    0    0    0  501 -0.00000000000E+00 -0.00000000000E+00 -0.99296117079E+02  0.99296160630E+02  0.93000000000E-01 0. -1.
       1023    2    1    2    0    0  0.00000000000E+00  0.00000000000E+00 -0.98291191552E+02  0.10030538029E+03  0.20000274439E+02 0.  0.
        -11    1    3    3    0    0 -0.96198002501E+00  0.99536553949E+01 -0.48916710559E+02  0.49928401071E+02  0.51100000000E-03 0. -1.
         11    1    3    3    0    0  0.96198002501E+00 -0.99536553949E+01 -0.49374480993E+02  0.50376979215E+02  0.51100000000E-03 0.  1.
<mgrwt>
<rscale>  0 0.20000274E+02</rscale>
<asrwt>0</asrwt>
<pdfrwt beam="1">  1        3 0.15493767E-03 0.20000274E+02</pdfrwt>
<pdfrwt beam="2">  1       -3 0.15276652E-01 0.20000274E+02</pdfrwt>
<totfact> 0.14169885E+06</totfact>
</mgrwt>
</event>
<event>
 5    1  0.4133473E-007  0.2000145E+02  0.7818608E-02  0.1745299E+00
          3   -1    0    0  501    0  0.00000000000E+00  0.00000000000E+00  0.11258212833E+03  0.11258216675E+03  0.93000000000E-01 0.  1.
         -3   -1    0    0    0  501 -0.00000000000E+00 -0.00000000000E+00 -0.88589690622E+00  0.89076502426E+00  0.93000000000E-01 0. -1.
       1023    2    1    2    0    0  0.00000000000E+00  0.00000000000E+00  0.11169623143E+03  0.11347293177E+03  0.20001453181E+02 0.  0.
        -11    1    3    3    0    0 -0.94479821294E+01  0.32770544322E+01  0.56445289633E+02  0.57324289565E+02  0.51100000000E-03 0. -1.
         11    1    3    3    0    0  0.94479821294E+01 -0.32770544322E+01  0.55250941795E+02  0.56148642206E+02  0.51100000000E-03 0.  1.
<mgrwt>
<rscale>  0 0.20001453E+02</rscale>
<asrwt>0</asrwt>
<pdfrwt beam="1">  1        3 0.17320705E-01 0.20001453E+02</pdfrwt>
<pdfrwt beam="2">  1       -3 0.13666926E-03 0.20001453E+02</pdfrwt>
<totfact> 0.13725881E+06</totfact>
</mgrwt>
</event>
<event>
 5    1  0.4133473E-007  0.2000355E+02  0.7818608E-02  0.1745258E+00
          3   -1    0    0  501    0  0.00000000000E+00  0.00000000000E+00  0.84851050320E+02  0.84851101286E+02  0.93000000000E-01 0.  1.
         -3   -1    0    0    0  501 -0.00000000000E+00 -0.00000000000E+00 -0.11770682497E+01  0.11807364924E+01  0.93000000000E-01 0. -1.
       1023    2    1    2    0    0  0.00000000000E+00  0.00000000000E+00  0.83673982070E+02  0.86031837778E+02  0.20003545585E+02 0.  0.
        -11    1    3    3    0    0  0.44067980556E+01 -0.89773271598E+01  0.41182096051E+02  0.42378972468E+02  0.51100000000E-03 0. -1.
         11    1    3    3    0    0 -0.44067980556E+01  0.89773271598E+01  0.42491886019E+02  0.43652865310E+02  0.51100000000E-03 0.  1.
<mgrwt>
<rscale>  0 0.20003546E+02</rscale>
<asrwt>0</asrwt>
<pdfrwt beam="1">  1        3 0.13054292E-01 0.20003546E+02</pdfrwt>
<pdfrwt beam="2">  1       -3 0.18137354E-03 0.20003546E+02</pdfrwt>
<totfact> 0.14675670E+06</totfact>
</mgrwt>
</event>
<event>
 5    1  0.4133473E-007  0.2000020E+02  0.7818608E-02  0.1745324E+00
         -3   -1    0    0    0  501 -0.00000000000E+00  0.00000000000E+00  0.76316371737E+01  0.76322038070E+01  0.93000000000E-01 0. -1.
          3   -1    0    0  501    0  0.00000000000E+00 -0.00000000000E+00 -0.13102387152E+02  0.13102717202E+02  0.93000000000E-01 0.  1.
       1023    2    1    2    0    0  0.00000000000E+00  0.00000000000E+00 -0.54707499779E+01  0.20734921009E+02  0.20000196097E+02 0.  0.
        -11    1    3    3    0    0 -0.92815344037E+01  0.37222411963E+01 -0.27347998029E+01  0.10367308746E+02  0.51100000000E-03 0. -1.
         11    1    3    3    0    0  0.92815344037E+01 -0.37222411963E+01 -0.27359501751E+01  0.10367612263E+02  0.51100000000E-03 0.  1.
<mgrwt>
<rscale>  0 0.20000196E+02</rscale>
<asrwt>0</asrwt>
<pdfrwt beam="2">  1        3 0.20158208E-02 0.20000196E+02</pdfrwt>
<pdfrwt beam="1">  1       -3 0.11741670E-02 0.20000196E+02</pdfrwt>
<totfact> 0.17837027E+06</totfact>
</mgrwt>
</event>
<event>
 5    1  0.4133473E-007  0.2000018E+02  0.7818608E-02  0.1745324E+00
         -3   -1    0    0    0  501 -0.00000000000E+00  0.00000000000E+00  0.42569759759E+02  0.42569861345E+02  0.93000000000E-01 0.  1.
          3   -1    0    0  501    0  0.00000000000E+00 -0.00000000000E+00 -0.23481038616E+01  0.23499448387E+01  0.93000000000E-01 0. -1.
       1023    2    1    2    0    0  0.00000000000E+00  0.00000000000E+00  0.40221655898E+02  0.44919806184E+02  0.20000184611E+02 0.  0.
        -11    1    3    3    0    0  0.83945887481E+01 -0.54342636502E+01  0.20197935164E+02  0.22537899787E+02  0.51100000000E-03 0. -1.
         11    1    3    3    0    0 -0.83945887481E+01  0.54342636502E+01  0.20023720734E+02  0.22381906397E+02  0.51100000000E-03 0.  1.
<mgrwt>
<rscale>  0 0.20000185E+02</rscale>
<asrwt>0</asrwt>
<pdfrwt beam="2">  1        3 0.36139618E-03 0.20000185E+02</pdfrwt>
<pdfrwt beam="1">  1       -3 0.65493432E-02 0.20000185E+02</pdfrwt>
<totfact> 0.16460068E+06</totfact>
</mgrwt>
</event>
<event>
 5    1  0.4133473E-007  0.2000051E+02  0.7818608E-02  0.1745318E+00
          3   -1    0    0  501    0  0.00000000000E+00  0.00000000000E+00  0.13783308394E+01  0.13814647671E+01  0.93000000000E-01 0.  1.
         -3   -1    0    0    0  501 -0.00000000000E+00 -0.00000000000E+00 -0.72469634703E+02  0.72469694376E+02  0.93000000000E-01 0. -1.
       1023    2    1    2    0    0  0.00000000000E+00  0.00000000000E+00 -0.71091303864E+02  0.73851159144E+02  0.20000505538E+02 0.  0.
        -11    1    3    3    0    0  0.53751861421E-01  0.99999335608E+01 -0.35327368188E+02  0.36715453202E+02  0.51100000000E-03 0. -1.
         11    1    3    3    0    0 -0.53751861421E-01 -0.99999335608E+01 -0.35763935676E+02  0.37135705941E+02  0.51100000000E-03 0.  1.
<mgrwt>
<rscale>  0 0.20000506E+02</rscale>
<asrwt>0</asrwt>
<pdfrwt beam="1">  1        3 0.21229662E-03 0.20000506E+02</pdfrwt>
<pdfrwt beam="2">  1       -3 0.11149417E-01 0.20000506E+02</pdfrwt>
<totfact> 0.15157272E+06</totfact>
</mgrwt>
</event>
<event>
 5    1  0.4133473E-007  0.2000045E+02  0.7818608E-02  0.1745319E+00
          3   -1    0    0  501    0  0.00000000000E+00  0.00000000000E+00  0.21625460800E+02  0.21625660772E+02  0.93000000000E-01 0. -1.
         -3   -1    0    0    0  501 -0.00000000000E+00 -0.00000000000E+00 -0.46236962843E+01  0.46246314804E+01  0.93000000000E-01 0.  1.
       1023    2    1    2    0    0  0.00000000000E+00  0.00000000000E+00  0.17001764516E+02  0.26250292252E+02  0.20000446162E+02 0.  0.
        -11    1    3    3    0    0 -0.14293595775E+01 -0.98974140724E+01  0.84341222294E+01  0.13081907054E+02  0.51100000000E-03 0. -1.
         11    1    3    3    0    0  0.14293595775E+01  0.98974140724E+01  0.85676422865E+01  0.13168385198E+02  0.51100000000E-03 0.  1.
<mgrwt>
<rscale>  0 0.20000446E+02</rscale>
<asrwt>0</asrwt>
<pdfrwt beam="1">  1        3 0.33270813E-02 0.20000446E+02</pdfrwt>
<pdfrwt beam="2">  1       -3 0.71142522E-03 0.20000446E+02</pdfrwt>
<totfact> 0.17489043E+06</totfact>
</mgrwt>
</event>
<event>
 5    1  0.4133473E-007  0.2000196E+02  0.7818608E-02  0.1745289E+00
          3   -1    0    0  501    0  0.00000000000E+00  0.00000000000E+00  0.21027854154E+01  0.21048409687E+01  0.93000000000E-01 0. -1.
         -3   -1    0    0    0  501 -0.00000000000E+00 -0.00000000000E+00 -0.47539933041E+02  0.47540024007E+02  0.93000000000E-01 0.  1.
       1023    2    1    2    0    0  0.00000000000E+00  0.00000000000E+00 -0.45437147626E+02  0.49644864976E+02  0.20001955756E+02 0.  0.
        -11    1    3    3    0    0  0.91398859592E+01 -0.40595576864E+01 -0.22606627687E+02  0.24719974506E+02  0.51100000000E-03 0. -1.
         11    1    3    3    0    0 -0.91398859592E+01  0.40595576864E+01 -0.22830519939E+02  0.24924890469E+02  0.51100000000E-03 0.  1.
<mgrwt>
<rscale>  0 0.20001956E+02</rscale>
<asrwt>0</asrwt>
<pdfrwt beam="1">  1        3 0.32367060E-03 0.20001956E+02</pdfrwt>
<pdfrwt beam="2">  1       -3 0.73140001E-02 0.20001956E+02</pdfrwt>
<totfact> 0.16223511E+06</totfact>
</mgrwt>
</event>
<event>
 5    1  0.4133473E-007  0.2000103E+02  0.7818608E-02  0.1745308E+00
          3   -1    0    0  501    0  0.00000000000E+00  0.00000000000E+00  0.11749679407E+03  0.11749683087E+03  0.93000000000E-01 0.  1.
         -3   -1    0    0    0  501 -0.00000000000E+00 -0.00000000000E+00 -0.84859777368E+00  0.85367861722E+00  0.93000000000E-01 0. -1.
       1023    2    1    2    0    0  0.00000000000E+00  0.00000000000E+00  0.11664819629E+03  0.11835050949E+03  0.20001034922E+02 0.  0.
        -11    1    3    3    0    0 -0.99320870673E+01  0.11673640556E+01  0.58533877632E+02  0.59382016833E+02  0.51100000000E-03 0.  1.
         11    1    3    3    0    0  0.99320870673E+01 -0.11673640556E+01  0.58114318662E+02  0.58968492656E+02  0.51100000000E-03 0. -1.
<mgrwt>
<rscale>  0 0.20001035E+02</rscale>
<asrwt>0</asrwt>
<pdfrwt beam="1">  1        3 0.18076829E-01 0.20001035E+02</pdfrwt>
<pdfrwt beam="2">  1       -3 0.13094713E-03 0.20001035E+02</pdfrwt>
<totfact> 0.13571199E+06</totfact>
</mgrwt>
</event>
<event>
 5    1  0.4133473E-007  0.2000033E+02  0.7818608E-02  0.1745321E+00
          3   -1    0    0  501    0  0.00000000000E+00  0.00000000000E+00  0.10022503289E+03  0.10022507604E+03  0.93000000000E-01 0.  1.
         -3   -1    0    0    0  501 -0.00000000000E+00 -0.00000000000E+00 -0.99557756798E+00  0.99991184304E+00  0.93000000000E-01 0. -1.
       1023    2    1    2    0    0  0.00000000000E+00  0.00000000000E+00  0.99229455325E+02  0.10122498788E+03  0.20000334197E+02 0.  0.
        -11    1    3    3    0    0  0.68131564328E+01  0.73200580025E+01  0.49774134458E+02  0.50768758219E+02  0.51100000000E-03 0.  1.
         11    1    3    3    0    0 -0.68131564328E+01 -0.73200580025E+01  0.49455320866E+02  0.50456229665E+02  0.51100000000E-03 0. -1.
<mgrwt>
<rscale>  0 0.20000334E+02</rscale>
<asrwt>0</asrwt>
<pdfrwt beam="1">  1        3 0.15419568E-01 0.20000334E+02</pdfrwt>
<pdfrwt beam="2">  1       -3 0.15350255E-03 0.20000334E+02</pdfrwt>
<totfact> 0.14135259E+06</totfact>
</mgrwt>
</event>
<event>
 5    1  0.4133473E-007  0.2000373E+02  0.7818608E-02  0.1745254E+00
          3   -1    0    0  501    0  0.00000000000E+00  0.00000000000E+00  0.16405345482E+01  0.16431684648E+01  0.93000000000E-01 0.  1.
         -3   -1    0    0    0  501 -0.00000000000E+00 -0.00000000000E+00 -0.60926923995E+02  0.60926994973E+02  0.93000000000E-01 0. -1.
       1023    2    1    2    0    0  0.00000000000E+00  0.00000000000E+00 -0.59286389447E+02  0.62570163438E+02  0.20003734128E+02 0.  0.
        -11    1    3    3    0    0 -0.62957691283E+00  0.99815234042E+01 -0.29327786672E+02  0.30986226745E+02  0.51100000000E-03 0.  1.
         11    1    3    3    0    0  0.62957691283E+00 -0.99815234042E+01 -0.29958602775E+02  0.31583936693E+02  0.51100000000E-03 0. -1.
<mgrwt>
<rscale>  0 0.20003734E+02</rscale>
<asrwt>0</asrwt>
<pdfrwt beam="1">  1        3 0.25259805E-03 0.20003734E+02</pdfrwt>
<pdfrwt beam="2">  1       -3 0.93735793E-02 0.20003734E+02</pdfrwt>
<totfact> 0.15626496E+06</totfact>
</mgrwt>
</event>
<event>
 5    1  0.4299882E-007  0.2000218E+02  0.7818608E-02  0.1745285E+00
          3   -1    0    0  501    0  0.00000000000E+00  0.00000000000E+00  0.67810166485E+01  0.67816543547E+01  0.93000000000E-01 0. -1.
         -3   -1    0    0    0  501 -0.00000000000E+00 -0.00000000000E+00 -0.14748782292E+02  0.14749075500E+02  0.93000000000E-01 0.  1.
       1023    2    1    2    0    0  0.00000000000E+00  0.00000000000E+00 -0.79677656436E+01  0.21530729855E+02  0.20002175850E+02 0.  0.
        -11    1    3    3    0    0  0.16966236865E+01  0.98560368293E+01 -0.39386539247E+01  0.10748627304E+02  0.51100000000E-03 0. -1.
         11    1    3    3    0    0 -0.16966236865E+01 -0.98560368293E+01 -0.40291117190E+01  0.10782102551E+02  0.51100000000E-03 0.  1.
<mgrwt>
<rscale>  0 0.20002176E+02</rscale>
<asrwt>0</asrwt>
<pdfrwt beam="1">  1        3 0.10433049E-02 0.20002176E+02</pdfrwt>
<pdfrwt beam="2">  1       -3 0.22691150E-02 0.20002176E+02</pdfrwt>
<totfact> 0.17782156E+06</totfact>
</mgrwt>
</event>
<event>
 5    1  0.4133473E-007  0.2000026E+02  0.7818608E-02  0.1745323E+00
         -3   -1    0    0    0  501 -0.00000000000E+00  0.00000000000E+00  0.22463403663E+02  0.22463596176E+02  0.93000000000E-01 0. -1.
          3   -1    0    0  501    0  0.00000000000E+00 -0.00000000000E+00 -0.44511018696E+01  0.44520733207E+01  0.93000000000E-01 0.  1.
       1023    2    1    2    0    0  0.00000000000E+00  0.00000000000E+00  0.18012301794E+02  0.26915669496E+02  0.20000256212E+02 0.  0.
        -11    1    3    3    0    0  0.82630726674E+01  0.56324231738E+01  0.90075976347E+01  0.13458802923E+02  0.51100000000E-03 0. -1.
         11    1    3    3    0    0 -0.82630726674E+01 -0.56324231738E+01  0.90047041591E+01  0.13456866573E+02  0.51100000000E-03 0.  1.
<mgrwt>
<rscale>  0 0.20000256E+02</rscale>
<asrwt>0</asrwt>
<pdfrwt beam="2">  1        3 0.68487445E-03 0.20000256E+02</pdfrwt>
<pdfrwt beam="1">  1       -3 0.34559977E-02 0.20000256E+02</pdfrwt>
<totfact> 0.17450479E+06</totfact>
</mgrwt>
</event>
<event>
 5    1  0.4133473E-007  0.2000096E+02  0.7818608E-02  0.1745309E+00
          3   -1    0    0  501    0  0.00000000000E+00  0.00000000000E+00  0.11856059803E+03  0.11856063451E+03  0.93000000000E-01 0. -1.
         -3   -1    0    0    0  501 -0.00000000000E+00 -0.00000000000E+00 -0.84093117964E+00  0.84605806473E+00  0.93000000000E-01 0.  1.
       1023    2    1    2    0    0  0.00000000000E+00  0.00000000000E+00  0.11771966685E+03  0.11940669257E+03  0.20000956654E+02 0.  0.
        -11    1    3    3    0    0 -0.80777469643E+01  0.58956321705E+01  0.59057098506E+02  0.59897824325E+02  0.51100000000E-03 0. -1.
         11    1    3    3    0    0  0.80777469643E+01 -0.58956321705E+01  0.58662568347E+02  0.59508868247E+02  0.51100000000E-03 0.  1.
<mgrwt>
<rscale>  0 0.20000957E+02</rscale>
<asrwt>0</asrwt>
<pdfrwt beam="1">  1        3 0.18240477E-01 0.20000957E+02</pdfrwt>
<pdfrwt beam="2">  1       -3 0.12977130E-03 0.20000957E+02</pdfrwt>
<totfact> 0.13538187E+06</totfact>
</mgrwt>
</event>
<event>
 4    1  0.4133473E-007  0.2004340E+02  0.7818608E-02  0.1744466E+00
         -3   -1    0    0    0  501 -0.00000000000E+00  0.00000000000E+00  0.86242465995E+01  0.86247480200E+01  0.93000000000E-01 0.  1.
          3   -1    0    0  501    0  0.00000000000E+00 -0.00000000000E+00 -0.11644573326E+02  0.11644944695E+02  0.93000000000E-01 0. -1.
        -11    1    1    2    0    0 -0.95883828911E+01  0.29078342900E+01 -0.13030826007E+01  0.10103989868E+02  0.51100000000E-03 0. -1.
         11    1    1    2    0    0  0.95883828911E+01 -0.29078342900E+01 -0.17172441259E+01  0.10165702847E+02  0.51100000000E-03 0.  1.
<mgrwt>
<rscale>  0 0.20043405E+02</rscale>
<asrwt>0</asrwt>
<pdfrwt beam="2">  1        3 0.17915400E-02 0.20043405E+02</pdfrwt>
<pdfrwt beam="1">  1       -3 0.13268743E-02 0.20043405E+02</pdfrwt>
<totfact> 0.17784556E+06</totfact>
</mgrwt>
</event>
<event>
 5    1  0.4140402E-007  0.2000088E+02  0.7818608E-02  0.1745310E+00
          3   -1    0    0  501    0  0.00000000000E+00  0.00000000000E+00  0.34878325153E+02  0.34878449141E+02  0.93000000000E-01 0.  1.
         -3   -1    0    0    0  501 -0.00000000000E+00 -0.00000000000E+00 -0.28664806629E+01  0.28679889105E+01  0.93000000000E-01 0. -1.
       1023    2    1    2    0    0  0.00000000000E+00  0.00000000000E+00  0.32011844490E+02  0.37746438052E+02  0.20000884928E+02 0.  0.
        -11    1    3    3    0    0 -0.73519656636E+01 -0.67785744088E+01  0.16178675017E+02  0.19019726489E+02  0.51100000000E-03 0. -1.
         11    1    3    3    0    0  0.73519656636E+01  0.67785744088E+01  0.15833169473E+02  0.18726711563E+02  0.51100000000E-03 0.  1.
<mgrwt>
<rscale>  0 0.20000885E+02</rscale>
<asrwt>0</asrwt>
<pdfrwt beam="1">  1        3 0.53660217E-02 0.20000885E+02</pdfrwt>
<pdfrwt beam="2">  1       -3 0.44112258E-03 0.20000885E+02</pdfrwt>
<totfact> 0.16830400E+06</totfact>
</mgrwt>
</event>
<event>
 5    1  0.4232343E-007  0.2000060E+02  0.7818608E-02  0.1745316E+00
         -3   -1    0    0    0  501 -0.00000000000E+00  0.00000000000E+00  0.58692392382E+01  0.58699759995E+01  0.93000000000E-01 0.  1.
          3   -1    0    0  501    0  0.00000000000E+00 -0.00000000000E+00 -0.17037066053E+02  0.17037319880E+02  0.93000000000E-01 0. -1.
       1023    2    1    2    0    0  0.00000000000E+00  0.00000000000E+00 -0.11167826815E+02  0.22907295880E+02  0.20000596210E+02 0.  0.
        -11    1    3    3    0    0  0.95740671586E+01  0.28883163430E+01 -0.56168836643E+01  0.11469721689E+02  0.51100000000E-03 0.  1.
         11    1    3    3    0    0 -0.95740671586E+01 -0.28883163430E+01 -0.55509431506E+01  0.11437574191E+02  0.51100000000E-03 0. -1.
<mgrwt>
<rscale>  0 0.20000596E+02</rscale>
<asrwt>0</asrwt>
<pdfrwt beam="2">  1        3 0.26211633E-02 0.20000596E+02</pdfrwt>
<pdfrwt beam="1">  1       -3 0.90303609E-03 0.20000596E+02</pdfrwt>
<totfact> 0.17696448E+06</totfact>
</mgrwt>
</event>
<event>
 5    1  0.4133473E-007  0.2000054E+02  0.7818608E-02  0.1745317E+00
         -3   -1    0    0    0  501 -0.00000000000E+00  0.00000000000E+00  0.77061572138E+02  0.77061628256E+02  0.93000000000E-01 0. -1.
          3   -1    0    0  501    0  0.00000000000E+00 -0.00000000000E+00 -0.12960102800E+01  0.12993427746E+01  0.93000000000E-01 0.  1.
       1023    2    1    2    0    0  0.00000000000E+00  0.00000000000E+00  0.75765561858E+02  0.78360971030E+02  0.20000535421E+02 0.  0.
        -11    1    3    3    0    0  0.95782803155E+01 -0.28742882495E+01  0.37807696039E+02  0.39107887527E+02  0.51100000000E-03 0.  1.
         11    1    3    3    0    0 -0.95782803155E+01  0.28742882495E+01  0.37957865819E+02  0.39253083504E+02  0.51100000000E-03 0. -1.
<mgrwt>
<rscale>  0 0.20000535E+02</rscale>
<asrwt>0</asrwt>
<pdfrwt beam="2">  1        3 0.19964682E-03 0.20000535E+02</pdfrwt>
<pdfrwt beam="1">  1       -3 0.11855889E-01 0.20000535E+02</pdfrwt>
<totfact> 0.14977501E+06</totfact>
</mgrwt>
</event>
<event>
 5    1  0.4133473E-007  0.2000044E+02  0.7818608E-02  0.1745319E+00
         -3   -1    0    0    0  501 -0.00000000000E+00  0.00000000000E+00  0.40366527933E+01  0.40377239596E+01  0.93000000000E-01 0. -1.
          3   -1    0    0  501    0  0.00000000000E+00 -0.00000000000E+00 -0.24769642455E+02  0.24769817044E+02  0.93000000000E-01 0.  1.
       1023    2    1    2    0    0  0.00000000000E+00  0.00000000000E+00 -0.20732989662E+02  0.28807541003E+02  0.20000438953E+02 0.  0.
        -11    1    3    3    0    0 -0.99965079131E+01 -0.26439101453E+00 -0.10461122934E+02  0.14471875012E+02  0.51100000000E-03 0. -1.
         11    1    3    3    0    0  0.99965079131E+01  0.26439101453E+00 -0.10271866728E+02  0.14335665991E+02  0.51100000000E-03 0.  1.
<mgrwt>
<rscale>  0 0.20000439E+02</rscale>
<asrwt>0</asrwt>
<pdfrwt beam="2">  1        3 0.38108099E-02 0.20000439E+02</pdfrwt>
<pdfrwt beam="1">  1       -3 0.62111935E-03 0.20000439E+02</pdfrwt>
<totfact> 0.17335624E+06</totfact>
</mgrwt>
</event>
<event>
 5    1  0.4241153E-007  0.2000061E+02  0.7818608E-02  0.1745316E+00
          3   -1    0    0  501    0  0.00000000000E+00  0.00000000000E+00  0.11293957679E+02  0.11294340577E+02  0.93000000000E-01 0.  1.
         -3   -1    0    0    0  501 -0.00000000000E+00 -0.00000000000E+00 -0.88540518633E+01  0.88545402703E+01  0.93000000000E-01 0. -1.
       1023    2    1    2    0    0  0.00000000000E+00  0.00000000000E+00  0.24399058159E+01  0.20148880847E+02  0.20000606466E+02 0.  0.
        -11    1    3    3    0    0 -0.37261101351E+01 -0.92799201215E+01  0.12929489436E+01  0.10083279795E+02  0.51100000000E-03 0. -1.
         11    1    3    3    0    0  0.37261101351E+01  0.92799201215E+01  0.11469568723E+01  0.10065601051E+02  0.51100000000E-03 0.  1.
<mgrwt>
<rscale>  0 0.20000606E+02</rscale>
<asrwt>0</asrwt>
<pdfrwt beam="1">  1        3 0.17375990E-02 0.20000606E+02</pdfrwt>
<pdfrwt beam="2">  1       -3 0.13622288E-02 0.20000606E+02</pdfrwt>
<totfact> 0.17874636E+06</totfact>
</mgrwt>
</event>
<event>
 5    1  0.4133473E-007  0.2000166E+02  0.7818608E-02  0.1745295E+00
         -3   -1    0    0    0  501 -0.00000000000E+00  0.00000000000E+00  0.28950053302E+01  0.28964987246E+01  0.93000000000E-01 0. -1.
          3   -1    0    0  501    0  0.00000000000E+00 -0.00000000000E+00 -0.34537530751E+02  0.34537655963E+02  0.93000000000E-01 0.  1.
       1023    2    1    2    0    0  0.00000000000E+00  0.00000000000E+00 -0.31642525421E+02  0.37434154687E+02  0.20001662984E+02 0.  0.
        -11    1    3    3    0    0 -0.99088306687E+01  0.13516508952E+01 -0.15950181383E+02  0.18826050350E+02  0.51100000000E-03 0. -1.
         11    1    3    3    0    0  0.99088306687E+01 -0.13516508952E+01 -0.15692344038E+02  0.18608104337E+02  0.51100000000E-03 0.  1.
<mgrwt>
<rscale>  0 0.20001663E+02</rscale>
<asrwt>0</asrwt>
<pdfrwt beam="2">  1        3 0.53135905E-02 0.20001663E+02</pdfrwt>
<pdfrwt beam="1">  1       -3 0.44550997E-03 0.20001663E+02</pdfrwt>
<totfact> 0.16845858E+06</totfact>
</mgrwt>
</event>
<event>
 5    1  0.4133473E-007  0.2000088E+02  0.7818608E-02  0.1745311E+00
          3   -1    0    0  501    0  0.00000000000E+00  0.00000000000E+00  0.26068924747E+02  0.26069090633E+02  0.93000000000E-01 0. -1.
         -3   -1    0    0    0  501 -0.00000000000E+00 -0.00000000000E+00 -0.38355791639E+01  0.38367064681E+01  0.93000000000E-01 0.  1.
       1023    2    1    2    0    0  0.00000000000E+00  0.00000000000E+00  0.22233345583E+02  0.29905797101E+02  0.20000876093E+02 0.  0.
        -11    1    3    3    0    0 -0.97795209446E+01  0.20891687697E+01  0.11223503426E+02  0.15032321360E+02  0.51100000000E-03 0. -1.
         11    1    3    3    0    0  0.97795209446E+01 -0.20891687697E+01  0.11009842156E+02  0.14873475741E+02  0.51100000000E-03 0.  1.
<mgrwt>
<rscale>  0 0.20000876E+02</rscale>
<asrwt>0</asrwt>
<pdfrwt beam="1">  1        3 0.40107031E-02 0.20000876E+02</pdfrwt>
<pdfrwt beam="2">  1       -3 0.59018861E-03 0.20000876E+02</pdfrwt>
<totfact> 0.17270263E+06</totfact>
</mgrwt>
</event>
<event>
 5    1  0.4133473E-007  0.2000075E+02  0.7818608E-02  0.1745313E+00
         -3   -1    0    0    0  501 -0.00000000000E+00  0.00000000000E+00  0.52836251581E+01  0.52844435669E+01  0.93000000000E-01 0.  1.
          3   -1    0    0  501    0  0.00000000000E+00 -0.00000000000E+00 -0.18925422528E+02  0.18925651029E+02  0.93000000000E-01 0. -1.
       1023    2    1    2    0    0  0.00000000000E+00  0.00000000000E+00 -0.13641797370E+02  0.24210094596E+02  0.20000751107E+02 0.  0.
        -11    1    3    3    0    0 -0.28458301276E+01  0.95869052703E+01 -0.68172321364E+01  0.12102981287E+02  0.51100000000E-03 0. -1.
         11    1    3    3    0    0  0.28458301276E+01 -0.95869052703E+01 -0.68245652335E+01  0.12107113308E+02  0.51100000000E-03 0.  1.
<mgrwt>
<rscale>  0 0.20000751E+02</rscale>
<asrwt>0</asrwt>
<pdfrwt beam="2">  1        3 0.29116840E-02 0.20000751E+02</pdfrwt>
<pdfrwt beam="1">  1       -3 0.81294595E-03 0.20000751E+02</pdfrwt>
<totfact> 0.17614302E+06</totfact>
</mgrwt>
</event>
<event>
 5    1  0.4164867E-007  0.2000098E+02  0.7818608E-02  0.1745309E+00
          3   -1    0    0  501    0  0.00000000000E+00  0.00000000000E+00  0.36399127290E+02  0.36399246098E+02  0.93000000000E-01 0. -1.
         -3   -1    0    0    0  501 -0.00000000000E+00 -0.00000000000E+00 -0.27466775027E+01  0.27482514994E+01  0.93000000000E-01 0.  1.
       1023    2    1    2    0    0  0.00000000000E+00  0.00000000000E+00  0.33652449787E+02  0.39147497597E+02  0.20000979762E+02 0.  0.
        -11    1    3    3    0    0 -0.50290672182E+01  0.86434447108E+01  0.16639061110E+02  0.19412856782E+02  0.51100000000E-03 0. -1.
         11    1    3    3    0    0  0.50290672182E+01 -0.86434447108E+01  0.17013388678E+02  0.19734640815E+02  0.51100000000E-03 0.  1.
<mgrwt>
<rscale>  0 0.20000980E+02</rscale>
<asrwt>0</asrwt>
<pdfrwt beam="1">  1        3 0.55999955E-02 0.20000980E+02</pdfrwt>
<pdfrwt beam="2">  1       -3 0.42269602E-03 0.20000980E+02</pdfrwt>
<totfact> 0.16755204E+06</totfact>
</mgrwt>
</event>
<event>
 4    1  0.4133473E-007  0.2004824E+02  0.7818608E-02  0.1744371E+00
         -3   -1    0    0    0  501 -0.00000000000E+00  0.00000000000E+00  0.26139654557E+01  0.26156193154E+01  0.93000000000E-01 0.  1.
          3   -1    0    0  501    0  0.00000000000E+00 -0.00000000000E+00 -0.38426947487E+02  0.38427060025E+02  0.93000000000E-01 0. -1.
        -11    1    1    2    0    0 -0.79739703917E+01 -0.60521344006E+01 -0.16841896763E+02  0.19592397031E+02  0.51100000000E-03 0. -1.
         11    1    1    2    0    0  0.79739703917E+01  0.60521344006E+01 -0.18971085269E+02  0.21450282310E+02  0.51100000000E-03 0.  1.
<mgrwt>
<rscale>  0 0.20048238E+02</rscale>
<asrwt>0</asrwt>
<pdfrwt beam="2">  1        3 0.59119735E-02 0.20048238E+02</pdfrwt>
<pdfrwt beam="1">  1       -3 0.40228444E-03 0.20048238E+02</pdfrwt>
<totfact> 0.16571069E+06</totfact>
</mgrwt>
</event>
<event>
 5    1  0.4133473E-007  0.2000030E+02  0.7818608E-02  0.1745322E+00
          3   -1    0    0  501    0  0.00000000000E+00  0.00000000000E+00  0.90489472241E+00  0.90966117793E+00  0.93000000000E-01 0. -1.
         -3   -1    0    0    0  501 -0.00000000000E+00 -0.00000000000E+00 -0.11021832825E+03  0.11021836749E+03  0.93000000000E-01 0.  1.
       1023    2    1    2    0    0  0.00000000000E+00  0.00000000000E+00 -0.10931343353E+03  0.11112802867E+03  0.20000300125E+02 0.  0.
        -11    1    3    3    0    0 -0.11983482488E+01  0.99279931619E+01 -0.54899818486E+02  0.55803146477E+02  0.51100000000E-03 0. -1.
         11    1    3    3    0    0  0.11983482488E+01 -0.99279931619E+01 -0.54413615043E+02  0.55324882188E+02  0.51100000000E-03 0.  1.
<mgrwt>
<rscale>  0 0.20000300E+02</rscale>
<asrwt>0</asrwt>
<pdfrwt beam="1">  1        3 0.13958433E-03 0.20000300E+02</pdfrwt>
<pdfrwt beam="2">  1       -3 0.16957025E-01 0.20000300E+02</pdfrwt>
<totfact> 0.13806360E+06</totfact>
</mgrwt>
</event>
<event>
 5    1  0.4310660E-007  0.2000184E+02  0.7818608E-02  0.1745292E+00
          3   -1    0    0  501    0  0.00000000000E+00  0.00000000000E+00  0.11643412180E+02  0.11643783586E+02  0.93000000000E-01 0.  1.
         -3   -1    0    0    0  501 -0.00000000000E+00 -0.00000000000E+00 -0.85893651221E+01  0.85898685788E+01  0.93000000000E-01 0. -1.
       1023    2    1    2    0    0  0.00000000000E+00  0.00000000000E+00  0.30540470579E+01  0.20233652165E+02  0.20001836828E+02 0.  0.
        -11    1    3    3    0    0 -0.34876747666E+01  0.93729969962E+01  0.14888919381E+01  0.10111070538E+02  0.51100000000E-03 0.  1.
         11    1    3    3    0    0  0.34876747666E+01 -0.93729969962E+01  0.15651551198E+01  0.10122581626E+02  0.51100000000E-03 0. -1.
<mgrwt>
<rscale>  0 0.20001837E+02</rscale>
<asrwt>0</asrwt>
<pdfrwt beam="1">  1        3 0.17913615E-02 0.20001837E+02</pdfrwt>
<pdfrwt beam="2">  1       -3 0.13215081E-02 0.20001837E+02</pdfrwt>
<totfact> 0.17866664E+06</totfact>
</mgrwt>
</event>
<event>
 5    1  0.4133473E-007  0.2000454E+02  0.7818608E-02  0.1745238E+00
         -3   -1    0    0    0  501 -0.00000000000E+00  0.00000000000E+00  0.14679372144E+01  0.14708802349E+01  0.93000000000E-01 0.  1.
          3   -1    0    0  501    0  0.00000000000E+00 -0.00000000000E+00 -0.68082492724E+02  0.68082556242E+02  0.93000000000E-01 0. -1.
       1023    2    1    2    0    0  0.00000000000E+00  0.00000000000E+00 -0.66614555509E+02  0.69553436477E+02  0.20004537487E+02 0.  0.
        -11    1    3    3    0    0  0.63415831440E+01 -0.77340849210E+01 -0.32901309150E+02  0.34387903257E+02  0.51100000000E-03 0. -1.
         11    1    3    3    0    0 -0.63415831440E+01  0.77340849210E+01 -0.33713246359E+02  0.35165533220E+02  0.51100000000E-03 0.  1.
<mgrwt>
<rscale>  0 0.20004537E+02</rscale>
<asrwt>0</asrwt>
<pdfrwt beam="2">  1        3 0.10474458E-01 0.20004537E+02</pdfrwt>
<pdfrwt beam="1">  1       -3 0.22606782E-03 0.20004537E+02</pdfrwt>
<totfact> 0.15324182E+06</totfact>
</mgrwt>
</event>
<event>
 5    1  0.4133473E-007  0.2000606E+02  0.7818608E-02  0.1745208E+00
         -3   -1    0    0    0  501 -0.00000000000E+00  0.00000000000E+00  0.34176918271E+01  0.34189569206E+01  0.93000000000E-01 0. -1.
          3   -1    0    0  501    0  0.00000000000E+00 -0.00000000000E+00 -0.29270499761E+02  0.29270647503E+02  0.93000000000E-01 0.  1.
       1023    2    1    2    0    0  0.00000000000E+00  0.00000000000E+00 -0.25852807934E+02  0.32689604424E+02  0.20006063064E+02 0.  0.
        -11    1    3    3    0    0  0.74818075362E+01  0.66363832947E+01 -0.12593085769E+02  0.16081195126E+02  0.51100000000E-03 0.  1.
         11    1    3    3    0    0 -0.74818075362E+01 -0.66363832947E+01 -0.13259722165E+02  0.16608409297E+02  0.51100000000E-03 0. -1.
<mgrwt>
<rscale>  0 0.20006063E+02</rscale>
<asrwt>0</asrwt>
<pdfrwt beam="2">  1        3 0.45032623E-02 0.20006063E+02</pdfrwt>
<pdfrwt beam="1">  1       -3 0.52590744E-03 0.20006063E+02</pdfrwt>
<totfact> 0.17100437E+06</totfact>
</mgrwt>
</event>
<event>
 5    1  0.4133473E-007  0.2000070E+02  0.7818608E-02  0.1745314E+00
         -3   -1    0    0    0  501 -0.00000000000E+00  0.00000000000E+00  0.31460331553E+01  0.31474074433E+01  0.93000000000E-01 0.  1.
          3   -1    0    0  501    0  0.00000000000E+00 -0.00000000000E+00 -0.31779900441E+02  0.31780036518E+02  0.93000000000E-01 0. -1.
       1023    2    1    2    0    0  0.00000000000E+00  0.00000000000E+00 -0.28633867286E+02  0.34927443961E+02  0.20000699635E+02 0.  0.
        -11    1    3    3    0    0  0.72253739796E+01  0.69138101008E+01 -0.14341441629E+02  0.17483813872E+02  0.51100000000E-03 0. -1.
         11    1    3    3    0    0 -0.72253739796E+01 -0.69138101008E+01 -0.14292425657E+02  0.17443630089E+02  0.51100000000E-03 0.  1.
<mgrwt>
<rscale>  0 0.20000700E+02</rscale>
<asrwt>0</asrwt>
<pdfrwt beam="2">  1        3 0.48893314E-02 0.20000700E+02</pdfrwt>
<pdfrwt beam="1">  1       -3 0.48412131E-03 0.20000700E+02</pdfrwt>
<totfact> 0.16984791E+06</totfact>
</mgrwt>
</event>
<event>
 5    1  0.4150941E-007  0.2000193E+02  0.7818608E-02  0.1745290E+00
          3   -1    0    0  501    0  0.00000000000E+00  0.00000000000E+00  0.31338883550E+01  0.31352679664E+01  0.93000000000E-01 0.  1.
         -3   -1    0    0    0  501 -0.00000000000E+00 -0.00000000000E+00 -0.31906937920E+02  0.31907073455E+02  0.93000000000E-01 0. -1.
       1023    2    1    2    0    0  0.00000000000E+00  0.00000000000E+00 -0.28773049565E+02  0.35042341421E+02  0.20001932681E+02 0.  0.
        -11    1    3    3    0    0  0.95284822841E+01  0.30370246104E+01 -0.14278040243E+02  0.17432094727E+02  0.51100000000E-03 0.  1.
         11    1    3    3    0    0 -0.95284822841E+01 -0.30370246104E+01 -0.14495009322E+02  0.17610246694E+02  0.51100000000E-03 0. -1.
<mgrwt>
<rscale>  0 0.20001933E+02</rscale>
<asrwt>0</asrwt>
<pdfrwt beam="1">  1        3 0.48225324E-03 0.20001933E+02</pdfrwt>
<pdfrwt beam="2">  1       -3 0.49088760E-02 0.20001933E+02</pdfrwt>
<totfact> 0.16978176E+06</totfact>
</mgrwt>
</event>
<event>
 5    1  0.4133473E-007  0.2000249E+02  0.7818608E-02  0.1745279E+00
          3   -1    0    0  501    0  0.00000000000E+00  0.00000000000E+00  0.88842167729E+02  0.88842216405E+02  0.93000000000E-01 0.  1.
         -3   -1    0    0    0  501 -0.00000000000E+00 -0.00000000000E+00 -0.11239019079E+01  0.11277430996E+01  0.93000000000E-01 0. -1.
       1023    2    1    2    0    0  0.00000000000E+00  0.00000000000E+00  0.87718265821E+02  0.89969959504E+02  0.20002486211E+02 0.  0.
        -11    1    3    3    0    0 -0.65493967903E+01 -0.75583798164E+01  0.43705962933E+02  0.44835643186E+02  0.51100000000E-03 0.  1.
         11    1    3    3    0    0  0.65493967903E+01  0.75583798164E+01  0.44012302888E+02  0.45134316318E+02  0.51100000000E-03 0. -1.
<mgrwt>
<rscale>  0 0.20002486E+02</rscale>
<asrwt>0</asrwt>
<pdfrwt beam="1">  1        3 0.13668330E-01 0.20002486E+02</pdfrwt>
<pdfrwt beam="2">  1       -3 0.17320715E-03 0.20002486E+02</pdfrwt>
<totfact> 0.14531348E+06</totfact>
</mgrwt>
</event>
<event>
 5    1  0.4133473E-007  0.2000034E+02  0.7818608E-02  0.1745321E+00
         -3   -1    0    0    0  501 -0.00000000000E+00  0.00000000000E+00  0.51159998497E+02  0.51160083026E+02  0.93000000000E-01 0.  1.
          3   -1    0    0  501    0  0.00000000000E+00 -0.00000000000E+00 -0.19535255787E+01  0.19557380158E+01  0.93000000000E-01 0. -1.
       1023    2    1    2    0    0  0.00000000000E+00  0.00000000000E+00  0.49206472918E+02  0.53115821041E+02  0.20000336694E+02 0.  0.
        -11    1    3    3    0    0 -0.78893632840E+01 -0.61450168679E+01  0.24627193077E+02  0.26580103920E+02  0.51100000000E-03 0.  1.
         11    1    3    3    0    0  0.78893632840E+01  0.61450168679E+01  0.24579279841E+02  0.26535717121E+02  0.51100000000E-03 0. -1.
<mgrwt>
<rscale>  0 0.20000337E+02</rscale>
<asrwt>0</asrwt>
<pdfrwt beam="2">  1        3 0.30071908E-03 0.20000337E+02</pdfrwt>
<pdfrwt beam="1">  1       -3 0.78709459E-02 0.20000337E+02</pdfrwt>
<totfact> 0.16060783E+06</totfact>
</mgrwt>
</event>
<event>
 5    1  0.4290440E-007  0.2000159E+02  0.7818608E-02  0.1745297E+00
          3   -1    0    0  501    0  0.00000000000E+00  0.00000000000E+00  0.61461629822E+01  0.61468665517E+01  0.93000000000E-01 0. -1.
         -3   -1    0    0    0  501 -0.00000000000E+00 -0.00000000000E+00 -0.16271126934E+02  0.16271392709E+02  0.93000000000E-01 0.  1.
       1023    2    1    2    0    0  0.00000000000E+00  0.00000000000E+00 -0.10124963952E+02  0.22418259261E+02  0.20001586269E+02 0.  0.
        -11    1    3    3    0    0 -0.46307702861E+01  0.88639075039E+01 -0.50013649494E+01  0.11181526788E+02  0.51100000000E-03 0. -1.
         11    1    3    3    0    0  0.46307702861E+01 -0.88639075039E+01 -0.51235990022E+01  0.11236732473E+02  0.51100000000E-03 0.  1.
<mgrwt>
<rscale>  0 0.20001586E+02</rscale>
<asrwt>0</asrwt>
<pdfrwt beam="1">  1        3 0.94563810E-03 0.20001586E+02</pdfrwt>
<pdfrwt beam="2">  1       -3 0.25033249E-02 0.20001586E+02</pdfrwt>
<totfact> 0.17726540E+06</totfact>
</mgrwt>
</event>
<event>
 5    1  0.4133473E-007  0.2000102E+02  0.7818608E-02  0.1745308E+00
         -3   -1    0    0    0  501 -0.00000000000E+00  0.00000000000E+00  0.53122244072E+02  0.53122325478E+02  0.93000000000E-01 0.  1.
          3   -1    0    0  501    0  0.00000000000E+00 -0.00000000000E+00 -0.18814110946E+01  0.18837082330E+01  0.93000000000E-01 0. -1.
       1023    2    1    2    0    0  0.00000000000E+00  0.00000000000E+00  0.51240832977E+02  0.55006033711E+02  0.20001019485E+02 0.  0.
        -11    1    3    3    0    0 -0.99983187458E+01 -0.18444435975E+00  0.25348200703E+02  0.27249434427E+02  0.51100000000E-03 0. -1.
         11    1    3    3    0    0  0.99983187458E+01  0.18444435975E+00  0.25892632275E+02  0.27756599284E+02  0.51100000000E-03 0.  1.
<mgrwt>
<rscale>  0 0.20001019E+02</rscale>
<asrwt>0</asrwt>
<pdfrwt beam="2">  1        3 0.28963082E-03 0.20001019E+02</pdfrwt>
<pdfrwt beam="1">  1       -3 0.81728361E-02 0.20001019E+02</pdfrwt>
<totfact> 0.15971431E+06</totfact>
</mgrwt>
</event>
<event>
 5    1  0.4133473E-007  0.2000042E+02  0.7818608E-02  0.1745320E+00
          3   -1    0    0  501    0  0.00000000000E+00  0.00000000000E+00  0.22576319072E+01  0.22595465980E+01  0.93000000000E-01 0.  1.
         -3   -1    0    0    0  501 -0.00000000000E+00 -0.00000000000E+00 -0.44275336728E+02  0.44275434401E+02  0.93000000000E-01 0. -1.
       1023    2    1    2    0    0  0.00000000000E+00  0.00000000000E+00 -0.42017704821E+02  0.46534980999E+02  0.20000423449E+02 0.  0.
        -11    1    3    3    0    0  0.74829591689E+01 -0.66336913141E+01 -0.21150301647E+02  0.23395208877E+02  0.51100000000E-03 0. -1.
         11    1    3    3    0    0 -0.74829591689E+01  0.66336913141E+01 -0.20867403173E+02  0.23139772122E+02  0.51100000000E-03 0.  1.
<mgrwt>
<rscale>  0 0.20000423E+02</rscale>
<asrwt>0</asrwt>
<pdfrwt beam="1">  1        3 0.34748282E-03 0.20000423E+02</pdfrwt>
<pdfrwt beam="2">  1       -3 0.68117444E-02 0.20000423E+02</pdfrwt>
<totfact> 0.16378739E+06</totfact>
</mgrwt>
</event>
<event>
 5    1  0.4133473E-007  0.2000229E+02  0.7818608E-02  0.1745283E+00
         -3   -1    0    0    0  501 -0.00000000000E+00  0.00000000000E+00  0.46407113549E+01  0.46416431228E+01  0.93000000000E-01 0. -1.
          3   -1    0    0  501    0  0.00000000000E+00 -0.00000000000E+00 -0.21550161849E+02  0.21550362520E+02  0.93000000000E-01 0.  1.
       1023    2    1    2    0    0  0.00000000000E+00  0.00000000000E+00 -0.16909450494E+02  0.26192005642E+02  0.20002290958E+02 0.  0.
        -11    1    3    3    0    0 -0.77701169484E+01  0.62965849640E+01 -0.84091566097E+01  0.13066583897E+02  0.51100000000E-03 0. -1.
         11    1    3    3    0    0  0.77701169484E+01 -0.62965849640E+01 -0.85002938846E+01  0.13125421745E+02  0.51100000000E-03 0.  1.
<mgrwt>
<rscale>  0 0.20002291E+02</rscale>
<asrwt>0</asrwt>
<pdfrwt beam="2">  1        3 0.33154966E-02 0.20002291E+02</pdfrwt>
<pdfrwt beam="1">  1       -3 0.71404272E-03 0.20002291E+02</pdfrwt>
<totfact> 0.17489120E+06</totfact>
</mgrwt>
</event>
<event>
 4    1  0.4133473E-007  0.2003790E+02  0.7818608E-02  0.1744575E+00
          3   -1    0    0  501    0  0.00000000000E+00  0.00000000000E+00  0.93687393815E+01  0.93692009584E+01  0.93000000000E-01 0. -1.
         -3   -1    0    0    0  501 -0.00000000000E+00 -0.00000000000E+00 -0.10713360695E+02  0.10713764342E+02  0.93000000000E-01 0.  1.
        -11    1    1    2    0    0  0.21483405211E+01  0.97785664155E+01 -0.10521667067E+01  0.10066915276E+02  0.51100000000E-03 0. -1.
         11    1    1    2    0    0 -0.21483405211E+01 -0.97785664155E+01 -0.29245460688E+00  0.10016050025E+02  0.51100000000E-03 0.  1.
<mgrwt>
<rscale>  0 0.20037901E+02</rscale>
<asrwt>0</asrwt>
<pdfrwt beam="1">  1        3 0.14414111E-02 0.20037901E+02</pdfrwt>
<pdfrwt beam="2">  1       -3 0.16482759E-02 0.20037901E+02</pdfrwt>
<totfact> 0.17807455E+06</totfact>
</mgrwt>
</event>
<event>
 4    1  0.4133473E-007  0.2001784E+02  0.7818608E-02  0.1744974E+00
         -3   -1    0    0    0  501 -0.00000000000E+00  0.00000000000E+00  0.18508652762E+01  0.18532002781E+01  0.93000000000E-01 0.  1.
          3   -1    0    0  501    0  0.00000000000E+00 -0.00000000000E+00 -0.54088712212E+02  0.54088792164E+02  0.93000000000E-01 0. -1.
        -11    1    1    2    0    0  0.12798179769E+01  0.99257834925E+01 -0.26507707616E+02  0.28334037398E+02  0.51100000000E-03 0. -1.
         11    1    1    2    0    0 -0.12798179769E+01 -0.99257834925E+01 -0.25730139320E+02  0.27607955043E+02  0.51100000000E-03 0.  1.
<mgrwt>
<rscale>  0 0.20017839E+02</rscale>
<asrwt>0</asrwt>
<pdfrwt beam="2">  1        3 0.83215249E-02 0.20017839E+02</pdfrwt>
<pdfrwt beam="1">  1       -3 0.28493431E-03 0.20017839E+02</pdfrwt>
<totfact> 0.15896836E+06</totfact>
</mgrwt>
</event>
<event>
 5    1  0.4133473E-007  0.2000010E+02  0.7818608E-02  0.1745326E+00
         -3   -1    0    0    0  501 -0.00000000000E+00  0.00000000000E+00  0.29116946308E+01  0.29131794697E+01  0.93000000000E-01 0.  1.
          3   -1    0    0  501    0  0.00000000000E+00 -0.00000000000E+00 -0.34334303861E+02  0.34334429814E+02  0.93000000000E-01 0. -1.
       1023    2    1    2    0    0  0.00000000000E+00  0.00000000000E+00 -0.31422609230E+02  0.37247609283E+02  0.20000100662E+02 0.  0.
        -11    1    3    3    0    0  0.29713916190E+01  0.95483943981E+01 -0.15714321045E+02  0.18626349344E+02  0.51100000000E-03 0.  1.
         11    1    3    3    0    0 -0.29713916190E+01 -0.95483943981E+01 -0.15708288185E+02  0.18621259939E+02  0.51100000000E-03 0. -1.
<mgrwt>
<rscale>  0 0.20000101E+02</rscale>
<asrwt>0</asrwt>
<pdfrwt beam="2">  1        3 0.52823242E-02 0.20000101E+02</pdfrwt>
<pdfrwt beam="1">  1       -3 0.44807695E-03 0.20000101E+02</pdfrwt>
<totfact> 0.16858789E+06</totfact>
</mgrwt>
</event>
<event>
 5    1  0.4133473E-007  0.2000026E+02  0.7818608E-02  0.1745323E+00
          3   -1    0    0  501    0  0.00000000000E+00  0.00000000000E+00  0.53127804225E+02  0.53127885623E+02  0.93000000000E-01 0. -1.
         -3   -1    0    0    0  501 -0.00000000000E+00 -0.00000000000E+00 -0.18810709349E+01  0.18833684881E+01  0.93000000000E-01 0.  1.
       1023    2    1    2    0    0  0.00000000000E+00  0.00000000000E+00  0.51246733290E+02  0.55011254111E+02  0.20000260147E+02 0.  0.
        -11    1    3    3    0    0 -0.36113764181E+01 -0.93252128580E+01  0.25708887691E+02  0.27585295739E+02  0.51100000000E-03 0.  1.
         11    1    3    3    0    0  0.36113764181E+01  0.93252128580E+01  0.25537845599E+02  0.27425958372E+02  0.51100000000E-03 0. -1.
<mgrwt>
<rscale>  0 0.20000260E+02</rscale>
<asrwt>0</asrwt>
<pdfrwt beam="1">  1        3 0.81736909E-02 0.20000260E+02</pdfrwt>
<pdfrwt beam="2">  1       -3 0.28957854E-03 0.20000260E+02</pdfrwt>
<totfact> 0.15969812E+06</totfact>
</mgrwt>
</event>
<event>
 5    1  0.4133473E-007  0.2000043E+02  0.7818608E-02  0.1745320E+00
         -3   -1    0    0    0  501 -0.00000000000E+00  0.00000000000E+00  0.11638854589E+02  0.11639226140E+02  0.93000000000E-01 0. -1.
          3   -1    0    0  501    0  0.00000000000E+00 -0.00000000000E+00 -0.85915175593E+01  0.85920208898E+01  0.93000000000E-01 0.  1.
       1023    2    1    2    0    0  0.00000000000E+00  0.00000000000E+00  0.30473370294E+01  0.20231247030E+02  0.20000427331E+02 0.  0.
        -11    1    3    3    0    0 -0.10554297233E+01 -0.99443208360E+01  0.15527104966E+01  0.10119997971E+02  0.51100000000E-03 0.  1.
         11    1    3    3    0    0  0.10554297233E+01  0.99443208360E+01  0.14946265328E+01  0.10111249058E+02  0.51100000000E-03 0. -1.
<mgrwt>
<rscale>  0 0.20000427E+02</rscale>
<asrwt>0</asrwt>
<pdfrwt beam="2">  1        3 0.13218392E-02 0.20000427E+02</pdfrwt>
<pdfrwt beam="1">  1       -3 0.17906603E-02 0.20000427E+02</pdfrwt>
<totfact> 0.17869805E+06</totfact>
</mgrwt>
</event>
<event>
 5    1  0.4133473E-007  0.2000024E+02  0.7818608E-02  0.1745323E+00
          3   -1    0    0  501    0  0.00000000000E+00  0.00000000000E+00  0.20633124531E+02  0.20633334120E+02  0.93000000000E-01 0. -1.
         -3   -1    0    0    0  501 -0.00000000000E+00 -0.00000000000E+00 -0.48460124031E+01  0.48469047042E+01  0.93000000000E-01 0.  1.
       1023    2    1    2    0    0  0.00000000000E+00  0.00000000000E+00  0.15787112128E+02  0.25480238824E+02  0.20000241529E+02 0.  0.
        -11    1    3    3    0    0  0.40662322093E+00 -0.99918349147E+01  0.79159013084E+01  0.12753964136E+02  0.51100000000E-03 0. -1.
         11    1    3    3    0    0 -0.40662322093E+00  0.99918349147E+01  0.78712108193E+01  0.12726274688E+02  0.51100000000E-03 0.  1.
<mgrwt>
<rscale>  0 0.20000242E+02</rscale>
<asrwt>0</asrwt>
<pdfrwt beam="1">  1        3 0.31744116E-02 0.20000242E+02</pdfrwt>
<pdfrwt beam="2">  1       -3 0.74562514E-03 0.20000242E+02</pdfrwt>
<totfact> 0.17536539E+06</totfact>
</mgrwt>
</event>
<event>
 5    1  0.4133473E-007  0.2001113E+02  0.7818608E-02  0.1745107E+00
          3   -1    0    0  501    0  0.00000000000E+00  0.00000000000E+00  0.11633108710E+02  0.11633480445E+02  0.93000000000E-01 0.  1.
         -3   -1    0    0    0  501 -0.00000000000E+00 -0.00000000000E+00 -0.86049627599E+01  0.86054653041E+01  0.93000000000E-01 0. -1.
       1023    2    1    2    0    0  0.00000000000E+00  0.00000000000E+00  0.30281459499E+01  0.20238945749E+02  0.20011128332E+02 0.  0.
        -11    1    3    3    0    0  0.59153566541E+01 -0.80688865601E+01  0.13990266874E+01  0.10102259678E+02  0.51100000000E-03 0.  1.
         11    1    3    3    0    0 -0.59153566541E+01  0.80688865601E+01  0.16291192625E+01  0.10136686071E+02  0.51100000000E-03 0. -1.
<mgrwt>
<rscale>  0 0.20011128E+02</rscale>
<asrwt>0</asrwt>
<pdfrwt beam="1">  1        3 0.17897763E-02 0.20011128E+02</pdfrwt>
<pdfrwt beam="2">  1       -3 0.13239077E-02 0.20011128E+02</pdfrwt>
<totfact> 0.17848448E+06</totfact>
</mgrwt>
</event>
<event>
 5    1  0.4133473E-007  0.2000049E+02  0.7818608E-02  0.1745318E+00
          3   -1    0    0  501    0  0.00000000000E+00  0.00000000000E+00  0.47050668533E+02  0.47050760445E+02  0.93000000000E-01 0.  1.
         -3   -1    0    0    0  501 -0.00000000000E+00 -0.00000000000E+00 -0.21243621696E+01  0.21263968650E+01  0.93000000000E-01 0. -1.
       1023    2    1    2    0    0  0.00000000000E+00  0.00000000000E+00  0.44926306364E+02  0.49177157310E+02  0.20000494933E+02 0.  0.
        -11    1    3    3    0    0 -0.17681067897E+01 -0.98424639873E+01  0.22630823885E+02  0.24741755979E+02  0.51100000000E-03 0. -1.
         11    1    3    3    0    0  0.17681067897E+01  0.98424639873E+01  0.22295482479E+02  0.24435401330E+02  0.51100000000E-03 0.  1.
<mgrwt>
<rscale>  0 0.20000495E+02</rscale>
<asrwt>0</asrwt>
<pdfrwt beam="1">  1        3 0.72387276E-02 0.20000495E+02</pdfrwt>
<pdfrwt beam="2">  1       -3 0.32698855E-03 0.20000495E+02</pdfrwt>
<totfact> 0.16246193E+06</totfact>
</mgrwt>
</event>
<event>
 4    1  0.4133473E-007  0.2001729E+02  0.7818608E-02  0.1744984E+00
         -3   -1    0    0    0  501 -0.00000000000E+00  0.00000000000E+00  0.10076511955E+01  0.10119337586E+01  0.93000000000E-01 0.  1.
          3   -1    0    0  501    0  0.00000000000E+00 -0.00000000000E+00 -0.99197230662E+02  0.99197274257E+02  0.93000000000E-01 0. -1.
        -11    1    1    2    0    0 -0.54086749305E+00  0.99906924315E+01 -0.50385660230E+02  0.51369458144E+02  0.51100000000E-03 0. -1.
         11    1    1    2    0    0  0.54086749305E+00 -0.99906924315E+01 -0.47803919236E+02  0.48839749871E+02  0.51100000000E-03 0.  1.
<mgrwt>
<rscale>  0 0.20017289E+02</rscale>
<asrwt>0</asrwt>
<pdfrwt beam="2">  1        3 0.15261437E-01 0.20017289E+02</pdfrwt>
<pdfrwt beam="1">  1       -3 0.15535612E-03 0.20017289E+02</pdfrwt>
<totfact> 0.14144529E+06</totfact>
</mgrwt>
</event>
<event>
 5    1  0.4302438E-007  0.2000089E+02  0.7818608E-02  0.1745310E+00
         -3   -1    0    0    0  501 -0.00000000000E+00  0.00000000000E+00  0.37682070922E+01  0.37693545455E+01  0.93000000000E-01 0.  1.
          3   -1    0    0  501    0  0.00000000000E+00 -0.00000000000E+00 -0.26534919010E+02  0.26535081983E+02  0.93000000000E-01 0. -1.
       1023    2    1    2    0    0  0.00000000000E+00  0.00000000000E+00 -0.22766711917E+02  0.30304436529E+02  0.20000892525E+02 0.  0.
        -11    1    3    3    0    0  0.60313299905E+01  0.79765598207E+01 -0.11505296773E+02  0.15243828329E+02  0.51100000000E-03 0. -1.
         11    1    3    3    0    0 -0.60313299905E+01 -0.79765598207E+01 -0.11261415144E+02  0.15060608200E+02  0.51100000000E-03 0.  1.
<mgrwt>
<rscale>  0 0.20000893E+02</rscale>
<asrwt>0</asrwt>
<pdfrwt beam="2">  1        3 0.40823959E-02 0.20000893E+02</pdfrwt>
<pdfrwt beam="1">  1       -3 0.57982499E-03 0.20000893E+02</pdfrwt>
<totfact> 0.17247006E+06</totfact>
</mgrwt>
</event>
<event>
 5    1  0.4213510E-007  0.2000105E+02  0.7818608E-02  0.1745307E+00
         -3   -1    0    0    0  501 -0.00000000000E+00  0.00000000000E+00  0.41706156946E+01  0.41716524630E+01  0.93000000000E-01 0.  1.
          3   -1    0    0  501    0  0.00000000000E+00 -0.00000000000E+00 -0.23975681270E+02  0.23975861639E+02  0.93000000000E-01 0. -1.
       1023    2    1    2    0    0  0.00000000000E+00  0.00000000000E+00 -0.19805065575E+02  0.28147514102E+02  0.20001048165E+02 0.  0.
        -11    1    3    3    0    0 -0.63518005884E+01 -0.77242856315E+01 -0.98703663643E+01  0.14051124213E+02  0.51100000000E-03 0. -1.
         11    1    3    3    0    0  0.63518005884E+01  0.77242856315E+01 -0.99346992109E+01  0.14096389889E+02  0.51100000000E-03 0.  1.
<mgrwt>
<rscale>  0 0.20001048E+02</rscale>
<asrwt>0</asrwt>
<pdfrwt beam="2">  1        3 0.36886599E-02 0.20001048E+02</pdfrwt>
<pdfrwt beam="1">  1       -3 0.64172682E-03 0.20001048E+02</pdfrwt>
<totfact> 0.17373681E+06</totfact>
</mgrwt>
</event>
<event>
 5    1  0.4449851E-007  0.2000109E+02  0.7818608E-02  0.1745306E+00
          3   -1    0    0  501    0  0.00000000000E+00  0.00000000000E+00  0.90569219800E+01  0.90573994475E+01  0.93000000000E-01 0.  1.
         -3   -1    0    0    0  501 -0.00000000000E+00 -0.00000000000E+00 -0.11041518497E+02  0.11041910148E+02  0.93000000000E-01 0. -1.
       1023    2    1    2    0    0  0.00000000000E+00  0.00000000000E+00 -0.19845965170E+01  0.20099309596E+02  0.20001090542E+02 0.  0.
        -11    1    3    3    0    0  0.51514488558E+01 -0.85716524813E+01 -0.10083103258E+01  0.10051235822E+02  0.51100000000E-03 0. -1.
         11    1    3    3    0    0 -0.51514488558E+01  0.85716524813E+01 -0.97628619113E+00  0.10048073774E+02  0.51100000000E-03 0.  1.
<mgrwt>
<rscale>  0 0.20001091E+02</rscale>
<asrwt>0</asrwt>
<pdfrwt beam="1">  1        3 0.13934395E-02 0.20001091E+02</pdfrwt>
<pdfrwt beam="2">  1       -3 0.16987620E-02 0.20001091E+02</pdfrwt>
<totfact> 0.17877159E+06</totfact>
</mgrwt>
</event>
<event>
 4    1  0.4133473E-007  0.2001827E+02  0.7818608E-02  0.1744965E+00
          3   -1    0    0  501    0  0.00000000000E+00  0.00000000000E+00  0.23468100188E+02  0.23468284459E+02  0.93000000000E-01 0. -1.
         -3   -1    0    0    0  501 -0.00000000000E+00 -0.00000000000E+00 -0.42681835922E+01  0.42691966664E+01  0.93000000000E-01 0.  1.
        -11    1    1    2    0    0  0.82178880131E+01  0.56982240281E+01  0.10186718462E+02  0.14274896628E+02  0.51100000000E-03 0. -1.
         11    1    1    2    0    0 -0.82178880131E+01 -0.56982240281E+01  0.90131981341E+01  0.13462584497E+02  0.51100000000E-03 0.  1.
<mgrwt>
<rscale>  0 0.20018268E+02</rscale>
<asrwt>0</asrwt>
<pdfrwt beam="1">  1        3 0.36105692E-02 0.20018268E+02</pdfrwt>
<pdfrwt beam="2">  1       -3 0.65673571E-03 0.20018268E+02</pdfrwt>
<totfact> 0.17365992E+06</totfact>
</mgrwt>
</event>
<event>
 5    1  0.4133473E-007  0.2000019E+02  0.7818608E-02  0.1745324E+00
         -3   -1    0    0    0  501 -0.00000000000E+00  0.00000000000E+00  0.92441674153E+02  0.92441720934E+02  0.93000000000E-01 0. -1.
          3   -1    0    0  501    0  0.00000000000E+00 -0.00000000000E+00 -0.10797376911E+01  0.10837354297E+01  0.93000000000E-01 0.  1.
       1023    2    1    2    0    0  0.00000000000E+00  0.00000000000E+00  0.91361936462E+02  0.93525456363E+02  0.20000188847E+02 0.  0.
        -11    1    3    3    0    0 -0.90003718918E+01  0.43581504647E+01  0.45874823624E+02  0.46952099127E+02  0.51100000000E-03 0. -1.
         11    1    3    3    0    0  0.90003718918E+01 -0.43581504647E+01  0.45487112838E+02  0.46573357236E+02  0.51100000000E-03 0.  1.
<mgrwt>
<rscale>  0 0.20000189E+02</rscale>
<asrwt>0</asrwt>
<pdfrwt beam="2">  1        3 0.16642448E-03 0.20000189E+02</pdfrwt>
<pdfrwt beam="1">  1       -3 0.14222118E-01 0.20000189E+02</pdfrwt>
<totfact> 0.14408847E+06</totfact>
</mgrwt>
</event>
<event>
 5    1  0.4133473E-007  0.2000044E+02  0.7818608E-02  0.1745319E+00
         -3   -1    0    0    0  501 -0.00000000000E+00  0.00000000000E+00  0.49915486235E+01  0.49924149127E+01  0.93000000000E-01 0.  1.
          3   -1    0    0  501    0  0.00000000000E+00 -0.00000000000E+00 -0.20032026809E+02  0.20032242687E+02  0.93000000000E-01 0. -1.
       1023    2    1    2    0    0  0.00000000000E+00  0.00000000000E+00 -0.15040478185E+02  0.25024657599E+02  0.20000437593E+02 0.  0.
        -11    1    3    3    0    0  0.60578014016E+01  0.79565943817E+01 -0.75141419628E+01  0.12508664264E+02  0.51100000000E-03 0.  1.
         11    1    3    3    0    0 -0.60578014016E+01 -0.79565943817E+01 -0.75263362223E+01  0.12515993335E+02  0.51100000000E-03 0. -1.
<mgrwt>
<rscale>  0 0.20000438E+02</rscale>
<asrwt>0</asrwt>
<pdfrwt beam="2">  1        3 0.30819335E-02 0.20000438E+02</pdfrwt>
<pdfrwt beam="1">  1       -3 0.76801381E-03 0.20000438E+02</pdfrwt>
<totfact> 0.17564259E+06</totfact>
</mgrwt>
</event>
<event>
 5    1  0.4133473E-007  0.2000162E+02  0.7818608E-02  0.1745296E+00
         -3   -1    0    0    0  501 -0.00000000000E+00  0.00000000000E+00  0.36976619764E+01  0.36988313143E+01  0.93000000000E-01 0.  1.
          3   -1    0    0  501    0  0.00000000000E+00 -0.00000000000E+00 -0.27042972722E+02  0.27043132634E+02  0.93000000000E-01 0. -1.
       1023    2    1    2    0    0  0.00000000000E+00  0.00000000000E+00 -0.23345310746E+02  0.30741963948E+02  0.20001620274E+02 0.  0.
        -11    1    3    3    0    0 -0.56246728677E-01 -0.10000526351E+02 -0.11595620267E+02  0.15312481857E+02  0.51100000000E-03 0.  1.
         11    1    3    3    0    0  0.56246728677E-01  0.10000526351E+02 -0.11749690479E+02  0.15429482091E+02  0.51100000000E-03 0. -1.
<mgrwt>
<rscale>  0 0.20001620E+02</rscale>
<asrwt>0</asrwt>
<pdfrwt beam="2">  1        3 0.41605595E-02 0.20001620E+02</pdfrwt>
<pdfrwt beam="1">  1       -3 0.56897334E-03 0.20001620E+02</pdfrwt>
<totfact> 0.17220287E+06</totfact>
</mgrwt>
</event>
<event>
 5    1  0.4133473E-007  0.2000041E+02  0.7818608E-02  0.1745320E+00
         -3   -1    0    0    0  501 -0.00000000000E+00  0.00000000000E+00  0.64208128114E+02  0.64208195465E+02  0.93000000000E-01 0.  1.
          3   -1    0    0  501    0  0.00000000000E+00 -0.00000000000E+00 -0.15560420974E+01  0.15588187864E+01  0.93000000000E-01 0. -1.
       1023    2    1    2    0    0  0.00000000000E+00  0.00000000000E+00  0.62652086017E+02  0.65767014252E+02  0.20000407029E+02 0.  0.
        -11    1    3    3    0    0  0.35512949796E+01 -0.93482825030E+01  0.31472668231E+02  0.33023187727E+02  0.51100000000E-03 0.  1.
         11    1    3    3    0    0 -0.35512949796E+01  0.93482825030E+01  0.31179417785E+02  0.32743826525E+02  0.51100000000E-03 0. -1.
<mgrwt>
<rscale>  0 0.20000407E+02</rscale>
<asrwt>0</asrwt>
<pdfrwt beam="2">  1        3 0.23960985E-03 0.20000407E+02</pdfrwt>
<pdfrwt beam="1">  1       -3 0.98783930E-02 0.20000407E+02</pdfrwt>
<totfact> 0.15493703E+06</totfact>
</mgrwt>
</event>
<event>
 4    1  0.4133473E-007  0.2002915E+02  0.7818608E-02  0.1744749E+00
          3   -1    0    0  501    0  0.00000000000E+00  0.00000000000E+00  0.91288236901E+00  0.91760733413E+00  0.93000000000E-01 0. -1.
         -3   -1    0    0    0  501 -0.00000000000E+00 -0.00000000000E+00 -0.10957434474E+03  0.10957438421E+03  0.93000000000E-01 0.  1.
        -11    1    1    2    0    0 -0.35821861622E+01 -0.93519835696E+01 -0.54366841969E+02  0.55281508304E+02  0.51100000000E-03 0.  1.
         11    1    1    2    0    0  0.35821861622E+01  0.93519835696E+01 -0.54294620404E+02  0.55210483238E+02  0.51100000000E-03 0. -1.
<mgrwt>
<rscale>  0 0.20029149E+02</rscale>
<asrwt>0</asrwt>
<pdfrwt beam="1">  1        3 0.14081002E-03 0.20029149E+02</pdfrwt>
<pdfrwt beam="2">  1       -3 0.16857948E-01 0.20029149E+02</pdfrwt>
<totfact> 0.13784445E+06</totfact>
</mgrwt>
</event>
<event>
 5    1  0.4133473E-007  0.2000780E+02  0.7818608E-02  0.1745173E+00
         -3   -1    0    0    0  501 -0.00000000000E+00  0.00000000000E+00  0.88680275456E+01  0.88685151829E+01  0.93000000000E-01 0.  1.
          3   -1    0    0  501    0  0.00000000000E+00 -0.00000000000E+00 -0.11284273327E+02  0.11284656553E+02  0.93000000000E-01 0. -1.
       1023    2    1    2    0    0  0.00000000000E+00  0.00000000000E+00 -0.24162457817E+01  0.20153171736E+02  0.20007800663E+02 0.  0.
        -11    1    3    3    0    0  0.40453688766E+01  0.91491261800E+01 -0.11268997191E+01  0.10066847691E+02  0.51100000000E-03 0.  1.
         11    1    3    3    0    0 -0.40453688766E+01 -0.91491261800E+01 -0.12893460627E+01  0.10086324045E+02  0.51100000000E-03 0. -1.
<mgrwt>
<rscale>  0 0.20007801E+02</rscale>
<asrwt>0</asrwt>
<pdfrwt beam="2">  1        3 0.17361090E-02 0.20007801E+02</pdfrwt>
<pdfrwt beam="1">  1       -3 0.13643789E-02 0.20007801E+02</pdfrwt>
<totfact> 0.17860510E+06</totfact>
</mgrwt>
</event>
<event>
 5    1  0.4133473E-007  0.2000045E+02  0.7818608E-02  0.1745319E+00
          3   -1    0    0  501    0  0.00000000000E+00  0.00000000000E+00  0.47579489693E+01  0.47588577825E+01  0.93000000000E-01 0. -1.
         -3   -1    0    0    0  501 -0.00000000000E+00 -0.00000000000E+00 -0.21015388839E+02  0.21015594616E+02  0.93000000000E-01 0.  1.
       1023    2    1    2    0    0  0.00000000000E+00  0.00000000000E+00 -0.16257439870E+02  0.25774452398E+02  0.20000451128E+02 0.  0.
        -11    1    3    3    0    0  0.38336874875E+01 -0.92361458255E+01 -0.80887578232E+01  0.12862019781E+02  0.51100000000E-03 0.  1.
         11    1    3    3    0    0 -0.38336874875E+01  0.92361458255E+01 -0.81686820467E+01  0.12912432618E+02  0.51100000000E-03 0. -1.
<mgrwt>
<rscale>  0 0.20000451E+02</rscale>
<asrwt>0</asrwt>
<pdfrwt beam="1">  1        3 0.73207790E-03 0.20000451E+02</pdfrwt>
<pdfrwt beam="2">  1       -3 0.32332224E-02 0.20000451E+02</pdfrwt>
<totfact> 0.17519398E+06</totfact>
</mgrwt>
</event>
<event>
 5    1  0.4133473E-007  0.2000967E+02  0.7818608E-02  0.1745136E+00
          3   -1    0    0  501    0  0.00000000000E+00  0.00000000000E+00  0.10065659632E+03  0.10065663928E+03  0.93000000000E-01 0.  1.
         -3   -1    0    0    0  501 -0.00000000000E+00 -0.00000000000E+00 -0.99222015144E+00  0.99656902868E+00  0.93000000000E-01 0. -1.
       1023    2    1    2    0    0  0.00000000000E+00  0.00000000000E+00  0.99664376164E+02  0.10165320831E+03  0.20009669736E+02 0.  0.
        -11    1    3    3    0    0  0.94481975627E+01 -0.32905488349E+01  0.49953652632E+02  0.50945692265E+02  0.51100000000E-03 0.  1.
         11    1    3    3    0    0 -0.94481975627E+01  0.32905488349E+01  0.49710723532E+02  0.50707516042E+02  0.51100000000E-03 0. -1.
<mgrwt>
<rscale>  0 0.20009670E+02</rscale>
<asrwt>0</asrwt>
<pdfrwt beam="1">  1        3 0.15485975E-01 0.20009670E+02</pdfrwt>
<pdfrwt beam="2">  1       -3 0.15298702E-03 0.20009670E+02</pdfrwt>
<totfact> 0.14106412E+06</totfact>
</mgrwt>
</event>
<event>
 5    1  0.4133473E-007  0.2000054E+02  0.7818608E-02  0.1745317E+00
         -3   -1    0    0    0  501 -0.00000000000E+00  0.00000000000E+00  0.94253641254E+00  0.94711345095E+00  0.93000000000E-01 0. -1.
          3   -1    0    0  501    0  0.00000000000E+00 -0.00000000000E+00 -0.10584081158E+03  0.10584085244E+03  0.93000000000E-01 0.  1.
       1023    2    1    2    0    0  0.00000000000E+00  0.00000000000E+00 -0.10489827517E+03  0.10678796589E+03  0.20000538135E+02 0.  0.
        -11    1    3    3    0    0  0.64644547418E+01  0.76297698971E+01 -0.52165735744E+02  0.53115596107E+02  0.51100000000E-03 0.  1.
         11    1    3    3    0    0 -0.64644547418E+01 -0.76297698971E+01 -0.52732539422E+02  0.53672369781E+02  0.51100000000E-03 0. -1.
<mgrwt>
<rscale>  0 0.20000538E+02</rscale>
<asrwt>0</asrwt>
<pdfrwt beam="2">  1        3 0.16283548E-01 0.20000538E+02</pdfrwt>
<pdfrwt beam="1">  1       -3 0.14536091E-03 0.20000538E+02</pdfrwt>
<totfact> 0.13946507E+06</totfact>
</mgrwt>
</event>
<event>
 5    1  0.4133473E-007  0.2000090E+02  0.7818608E-02  0.1745310E+00
          3   -1    0    0  501    0  0.00000000000E+00  0.00000000000E+00  0.13931311652E+01  0.13962318731E+01  0.93000000000E-01 0.  1.
         -3   -1    0    0    0  501 -0.00000000000E+00 -0.00000000000E+00 -0.71704281654E+02  0.71704341964E+02  0.93000000000E-01 0. -1.
       1023    2    1    2    0    0  0.00000000000E+00  0.00000000000E+00 -0.70311150489E+02  0.73100573837E+02  0.20000900287E+02 0.  0.
        -11    1    3    3    0    0  0.82483127075E+01 -0.56543108102E+01 -0.35359382756E+02  0.36746317399E+02  0.51100000000E-03 0.  1.
         11    1    3    3    0    0 -0.82483127075E+01  0.56543108102E+01 -0.34951767733E+02  0.36354256438E+02  0.51100000000E-03 0. -1.
<mgrwt>
<rscale>  0 0.20000900E+02</rscale>
<asrwt>0</asrwt>
<pdfrwt beam="1">  1        3 0.21457108E-03 0.20000900E+02</pdfrwt>
<pdfrwt beam="2">  1       -3 0.11031668E-01 0.20000900E+02</pdfrwt>
<totfact> 0.15187063E+06</totfact>
</mgrwt>
</event>
<event>
 5    1  0.4133473E-007  0.2000004E+02  0.7818608E-02  0.1745327E+00
          3   -1    0    0  501    0  0.00000000000E+00  0.00000000000E+00  0.13056422641E+02  0.13056753853E+02  0.93000000000E-01 0. -1.
         -3   -1    0    0    0  501 -0.00000000000E+00 -0.00000000000E+00 -0.76583864582E+01  0.76589511125E+01  0.93000000000E-01 0.  1.
       1023    2    1    2    0    0  0.00000000000E+00  0.00000000000E+00  0.53980361827E+01  0.20715704966E+02  0.20000040940E+02 0.  0.
        -11    1    3    3    0    0 -0.90389303695E+01 -0.42775980239E+01  0.26810164074E+01  0.10353161658E+02  0.51100000000E-03 0. -1.
         11    1    3    3    0    0  0.90389303695E+01  0.42775980239E+01  0.27170197753E+01  0.10362543308E+02  0.51100000000E-03 0.  1.
<mgrwt>
<rscale>  0 0.20000041E+02</rscale>
<asrwt>0</asrwt>
<pdfrwt beam="1">  1        3 0.20087493E-02 0.20000041E+02</pdfrwt>
<pdfrwt beam="2">  1       -3 0.11782822E-02 0.20000041E+02</pdfrwt>
<totfact> 0.17838585E+06</totfact>
</mgrwt>
</event>
<event>
 5    1  0.4133473E-007  0.2000214E+02  0.7818608E-02  0.1745285E+00
         -3   -1    0    0    0  501 -0.00000000000E+00  0.00000000000E+00  0.62773499505E+02  0.62773568395E+02  0.93000000000E-01 0.  1.
          3   -1    0    0  501    0  0.00000000000E+00 -0.00000000000E+00 -0.15919433683E+01  0.15946575456E+01  0.93000000000E-01 0. -1.
       1023    2    1    2    0    0  0.00000000000E+00  0.00000000000E+00  0.61181556137E+02  0.64368225941E+02  0.20002142373E+02 0.  0.
        -11    1    3    3    0    0 -0.11326538244E+01  0.99356887870E+01  0.30128806094E+02  0.31745011785E+02  0.51100000000E-03 0. -1.
         11    1    3    3    0    0  0.11326538244E+01 -0.99356887870E+01  0.31052750043E+02  0.32623214156E+02  0.51100000000E-03 0.  1.
<mgrwt>
<rscale>  0 0.20002142E+02</rscale>
<asrwt>0</asrwt>
<pdfrwt beam="2">  1        3 0.24512848E-03 0.20002142E+02</pdfrwt>
<pdfrwt beam="1">  1       -3 0.96576744E-02 0.20002142E+02</pdfrwt>
<totfact> 0.15550957E+06</totfact>
</mgrwt>
</event>
<event>
 5    1  0.4133473E-007  0.2000697E+02  0.7818608E-02  0.1745190E+00
         -3   -1    0    0    0  501 -0.00000000000E+00  0.00000000000E+00  0.98336463217E+02  0.98336507193E+02  0.93000000000E-01 0. -1.
          3   -1    0    0  501    0  0.00000000000E+00 -0.00000000000E+00 -0.10154566094E+01  0.10197063919E+01  0.93000000000E-01 0.  1.
       1023    2    1    2    0    0  0.00000000000E+00  0.00000000000E+00  0.97321006608E+02  0.99356213585E+02  0.20006970059E+02 0.  0.
        -11    1    3    3    0    0  0.99841747031E+01  0.60367762248E+00  0.47931634059E+02  0.48964167664E+02  0.51100000000E-03 0. -1.
         11    1    3    3    0    0 -0.99841747031E+01 -0.60367762248E+00  0.49389372548E+02  0.50392045922E+02  0.51100000000E-03 0.  1.
<mgrwt>
<rscale>  0 0.20006970E+02</rscale>
<asrwt>0</asrwt>
<pdfrwt beam="2">  1        3 0.15655429E-03 0.20006970E+02</pdfrwt>
<pdfrwt beam="1">  1       -3 0.15129026E-01 0.20006970E+02</pdfrwt>
<totfact> 0.14192573E+06</totfact>
</mgrwt>
</event>
<event>
 5    1  0.4133473E-007  0.2000053E+02  0.7818608E-02  0.1745318E+00
          3   -1    0    0  501    0  0.00000000000E+00  0.00000000000E+00  0.30702521443E+02  0.30702662294E+02  0.93000000000E-01 0.  1.
         -3   -1    0    0    0  501 -0.00000000000E+00 -0.00000000000E+00 -0.32564221209E+01  0.32577498415E+01  0.93000000000E-01 0. -1.
       1023    2    1    2    0    0  0.00000000000E+00  0.00000000000E+00  0.27446099322E+02  0.33960412136E+02  0.20000530604E+02 0.  0.
        -11    1    3    3    0    0  0.99555334033E+01  0.94273347822E+00  0.13616819712E+02  0.16894353231E+02  0.51100000000E-03 0.  1.
         11    1    3    3    0    0 -0.99555334033E+01 -0.94273347822E+00  0.13829279610E+02  0.17066058905E+02  0.51100000000E-03 0. -1.
<mgrwt>
<rscale>  0 0.20000531E+02</rscale>
<asrwt>0</asrwt>
<pdfrwt beam="1">  1        3 0.47235778E-02 0.20000531E+02</pdfrwt>
<pdfrwt beam="2">  1       -3 0.50110098E-03 0.20000531E+02</pdfrwt>
<totfact> 0.17038969E+06</totfact>
</mgrwt>
</event>
<event>
 5    1  0.4133473E-007  0.2000028E+02  0.7818608E-02  0.1745322E+00
          3   -1    0    0  501    0  0.00000000000E+00  0.00000000000E+00  0.87587226745E+01  0.87592163969E+01  0.93000000000E-01 0.  1.
         -3   -1    0    0    0  501 -0.00000000000E+00 -0.00000000000E+00 -0.11416509446E+02  0.11416888234E+02  0.93000000000E-01 0. -1.
       1023    2    1    2    0    0  0.00000000000E+00  0.00000000000E+00 -0.26577867720E+01  0.20176104631E+02  0.20000284187E+02 0.  0.
        -11    1    3    3    0    0  0.34306710353E+01  0.93932266423E+01 -0.13035504741E+01  0.10084713908E+02  0.51100000000E-03 0. -1.
         11    1    3    3    0    0 -0.34306710353E+01 -0.93932266423E+01 -0.13542362979E+01  0.10091390723E+02  0.51100000000E-03 0.  1.
<mgrwt>
<rscale>  0 0.20000284E+02</rscale>
<asrwt>0</asrwt>
<pdfrwt beam="1">  1        3 0.13475629E-02 0.20000284E+02</pdfrwt>
<pdfrwt beam="2">  1       -3 0.17564532E-02 0.20000284E+02</pdfrwt>
<totfact> 0.17873688E+06</totfact>
</mgrwt>
</event>
<event>
 5    1  0.4133473E-007  0.2000051E+02  0.7818608E-02  0.1745318E+00
          3   -1    0    0  501    0  0.00000000000E+00  0.00000000000E+00  0.66919334955E+02  0.66919399578E+02  0.93000000000E-01 0. -1.
         -3   -1    0    0    0  501 -0.00000000000E+00 -0.00000000000E+00 -0.14929002390E+01  0.14957941448E+01  0.93000000000E-01 0.  1.
       1023    2    1    2    0    0  0.00000000000E+00  0.00000000000E+00  0.65426434716E+02  0.68415193722E+02  0.20000509304E+02 0.  0.
        -11    1    3    3    0    0  0.54273355904E+01 -0.83991525202E+01  0.32514990228E+02  0.34018029403E+02  0.51100000000E-03 0.  1.
         11    1    3    3    0    0 -0.54273355904E+01  0.83991525202E+01  0.32911444488E+02  0.34397164320E+02  0.51100000000E-03 0. -1.
<mgrwt>
<rscale>  0 0.20000509E+02</rscale>
<asrwt>0</asrwt>
<pdfrwt beam="1">  1        3 0.10295509E-01 0.20000509E+02</pdfrwt>
<pdfrwt beam="2">  1       -3 0.22990456E-03 0.20000509E+02</pdfrwt>
<totfact> 0.15378426E+06</totfact>
</mgrwt>
</event>
<event>
 5    1  0.4133473E-007  0.2000072E+02  0.7818608E-02  0.1745314E+00
          3   -1    0    0  501    0  0.00000000000E+00  0.00000000000E+00  0.80154563445E+02  0.80154617397E+02  0.93000000000E-01 0.  1.
         -3   -1    0    0    0  501 -0.00000000000E+00 -0.00000000000E+00 -0.12458915876E+01  0.12493577743E+01  0.93000000000E-01 0. -1.
       1023    2    1    2    0    0  0.00000000000E+00  0.00000000000E+00  0.78908671858E+02  0.81403975172E+02  0.20000716972E+02 0.  0.
        -11    1    3    3    0    0 -0.66975270541E+01 -0.74259667741E+01  0.39751154549E+02  0.40989707725E+02  0.51100000000E-03 0. -1.
         11    1    3    3    0    0  0.66975270541E+01  0.74259667741E+01  0.39157517309E+02  0.40414267446E+02  0.51100000000E-03 0.  1.
<mgrwt>
<rscale>  0 0.20000717E+02</rscale>
<asrwt>0</asrwt>
<pdfrwt beam="1">  1        3 0.12331741E-01 0.20000717E+02</pdfrwt>
<pdfrwt beam="2">  1       -3 0.19194642E-03 0.20000717E+02</pdfrwt>
<totfact> 0.14855942E+06</totfact>
</mgrwt>
</event>
<event>
 5    1  0.4133473E-007  0.2000155E+02  0.7818608E-02  0.1745297E+00
          3   -1    0    0  501    0  0.00000000000E+00  0.00000000000E+00  0.36111344482E+02  0.36111464236E+02  0.93000000000E-01 0.  1.
         -3   -1    0    0    0  501 -0.00000000000E+00 -0.00000000000E+00 -0.27687379924E+01  0.27702994551E+01  0.93000000000E-01 0. -1.
       1023    2    1    2    0    0  0.00000000000E+00  0.00000000000E+00  0.33342606490E+02  0.38881763692E+02  0.20001553446E+02 0.  0.
        -11    1    3    3    0    0 -0.27038124058E+01  0.96283367496E+01  0.16655665662E+02  0.19427472017E+02  0.51100000000E-03 0. -1.
         11    1    3    3    0    0  0.27038124058E+01 -0.96283367496E+01  0.16686940828E+02  0.19454291674E+02  0.51100000000E-03 0.  1.
<mgrwt>
<rscale>  0 0.20001553E+02</rscale>
<asrwt>0</asrwt>
<pdfrwt beam="1">  1        3 0.55557206E-02 0.20001553E+02</pdfrwt>
<pdfrwt beam="2">  1       -3 0.42608903E-03 0.20001553E+02</pdfrwt>
<totfact> 0.16768320E+06</totfact>
</mgrwt>
</event>
<event>
 5    1  0.4133473E-007  0.2000010E+02  0.7818608E-02  0.1745326E+00
         -3   -1    0    0    0  501 -0.00000000000E+00  0.00000000000E+00  0.97881866665E+00  0.98322682133E+00  0.93000000000E-01 0.  1.
          3   -1    0    0  501    0  0.00000000000E+00 -0.00000000000E+00 -0.10193099686E+03  0.10193103929E+03  0.93000000000E-01 0. -1.
       1023    2    1    2    0    0  0.00000000000E+00  0.00000000000E+00 -0.10095217820E+03  0.10291426611E+03  0.20000097160E+02 0.  0.
        -11    1    3    3    0    0  0.27008276950E+01  0.96284173967E+01 -0.50430199048E+02  0.51412117911E+02  0.51100000000E-03 0.  1.
         11    1    3    3    0    0 -0.27008276950E+01 -0.96284173967E+01 -0.50521979149E+02  0.51502148200E+02  0.51100000000E-03 0. -1.
<mgrwt>
<rscale>  0 0.20000097E+02</rscale>
<asrwt>0</asrwt>
<pdfrwt beam="2">  1        3 0.15682026E-01 0.20000097E+02</pdfrwt>
<pdfrwt beam="1">  1       -3 0.15092992E-03 0.20000097E+02</pdfrwt>
<totfact> 0.14077803E+06</totfact>
</mgrwt>
</event>
<event>
 5    1  0.4145908E-007  0.2000162E+02  0.7818608E-02  0.1745296E+00
         -3   -1    0    0    0  501 -0.00000000000E+00  0.00000000000E+00  0.25723291440E+01  0.25740097562E+01  0.93000000000E-01 0. -1.
          3   -1    0    0  501    0  0.00000000000E+00 -0.00000000000E+00 -0.38867135546E+02  0.38867246809E+02  0.93000000000E-01 0.  1.
       1023    2    1    2    0    0  0.00000000000E+00  0.00000000000E+00 -0.36294806402E+02  0.41441256565E+02  0.20001619284E+02 0.  0.
        -11    1    3    3    0    0  0.76889789553E+01 -0.63946905550E+01 -0.18020889206E+02  0.20609825635E+02  0.51100000000E-03 0.  1.
         11    1    3    3    0    0 -0.76889789553E+01  0.63946905550E+01 -0.18273917196E+02  0.20831430931E+02  0.51100000000E-03 0. -1.
<mgrwt>
<rscale>  0 0.20001619E+02</rscale>
<asrwt>0</asrwt>
<pdfrwt beam="2">  1        3 0.59796967E-02 0.20001619E+02</pdfrwt>
<pdfrwt beam="1">  1       -3 0.39588081E-03 0.20001619E+02</pdfrwt>
<totfact> 0.16633440E+06</totfact>
</mgrwt>
</event>
<event>
 5    1  0.4133473E-007  0.2000167E+02  0.7818608E-02  0.1745295E+00
          3   -1    0    0  501    0  0.00000000000E+00  0.00000000000E+00  0.15967184298E+01  0.15994245040E+01  0.93000000000E-01 0. -1.
         -3   -1    0    0    0  501 -0.00000000000E+00 -0.00000000000E+00 -0.62583105649E+02  0.62583174749E+02  0.93000000000E-01 0.  1.
       1023    2    1    2    0    0  0.00000000000E+00  0.00000000000E+00 -0.60986387219E+02  0.64182599253E+02  0.20001665452E+02 0.  0.
        -11    1    3    3    0    0  0.47829855358E+01  0.87828383797E+01 -0.30615564893E+02  0.32207576975E+02  0.51100000000E-03 0. -1.
         11    1    3    3    0    0 -0.47829855358E+01 -0.87828383797E+01 -0.30370822326E+02  0.31975022278E+02  0.51100000000E-03 0.  1.
<mgrwt>
<rscale>  0 0.20001665E+02</rscale>
<asrwt>0</asrwt>
<pdfrwt beam="1">  1        3 0.24586251E-03 0.20001665E+02</pdfrwt>
<pdfrwt beam="2">  1       -3 0.96283817E-02 0.20001665E+02</pdfrwt>
<totfact> 0.15559781E+06</totfact>
</mgrwt>
</event>
<event>
 5    1  0.4300236E-007  0.2000120E+02  0.7818608E-02  0.1745304E+00
         -3   -1    0    0    0  501 -0.00000000000E+00  0.00000000000E+00  0.17333180147E+02  0.17333429637E+02  0.93000000000E-01 0. -1.
          3   -1    0    0  501    0  0.00000000000E+00 -0.00000000000E+00 -0.57693106218E+01  0.57700601427E+01  0.93000000000E-01 0.  1.
       1023    2    1    2    0    0  0.00000000000E+00  0.00000000000E+00  0.11563869525E+02  0.23103489780E+02  0.20001204005E+02 0.  0.
        -11    1    3    3    0    0  0.96377582711E+01 -0.26684896950E+01  0.57017534868E+01  0.11511612173E+02  0.51100000000E-03 0. -1.
         11    1    3    3    0    0 -0.96377582711E+01  0.26684896950E+01  0.58621160381E+01  0.11591877607E+02  0.51100000000E-03 0.  1.
<mgrwt>
<rscale>  0 0.20001204E+02</rscale>
<asrwt>0</asrwt>
<pdfrwt beam="2">  1        3 0.88766309E-03 0.20001204E+02</pdfrwt>
<pdfrwt beam="1">  1       -3 0.26667200E-02 0.20001204E+02</pdfrwt>
<totfact> 0.17683842E+06</totfact>
</mgrwt>
</event>
<event>
 5    1  0.4133473E-007  0.2000290E+02  0.7818608E-02  0.1745270E+00
         -3   -1    0    0    0  501 -0.00000000000E+00  0.00000000000E+00  0.20155081104E+02  0.20155295664E+02  0.93000000000E-01 0. -1.
          3   -1    0    0  501    0  0.00000000000E+00 -0.00000000000E+00 -0.49622920929E+01  0.49631634887E+01  0.93000000000E-01 0.  1.
       1023    2    1    2    0    0  0.00000000000E+00  0.00000000000E+00  0.15192789011E+02  0.25118459153E+02  0.20002903596E+02 0.  0.
        -11    1    3    3    0    0 -0.30489779303E+01  0.95238777669E+01  0.73843130706E+01  0.12430953058E+02  0.51100000000E-03 0. -1.
         11    1    3    3    0    0  0.30489779303E+01 -0.95238777669E+01  0.78084759403E+01  0.12687506095E+02  0.51100000000E-03 0.  1.
<mgrwt>
<rscale>  0 0.20002904E+02</rscale>
<asrwt>0</asrwt>
<pdfrwt beam="2">  1        3 0.76351308E-03 0.20002904E+02</pdfrwt>
<pdfrwt beam="1">  1       -3 0.31008653E-02 0.20002904E+02</pdfrwt>
<totfact> 0.17555037E+06</totfact>
</mgrwt>
</event>
<event>
 5    1  0.4133473E-007  0.2000295E+02  0.7818608E-02  0.1745269E+00
         -3   -1    0    0    0  501 -0.00000000000E+00  0.00000000000E+00  0.11589862956E+01  0.11627115865E+01  0.93000000000E-01 0. -1.
          3   -1    0    0  501    0  0.00000000000E+00 -0.00000000000E+00 -0.86165496450E+02  0.86165546638E+02  0.93000000000E-01 0.  1.
       1023    2    1    2    0    0  0.00000000000E+00  0.00000000000E+00 -0.85006510154E+02  0.87328258225E+02  0.20002947681E+02 0.  0.
        -11    1    3    3    0    0 -0.94917073130E+01  0.31516180129E+01 -0.42788701340E+02  0.43941986373E+02  0.51100000000E-03 0. -1.
         11    1    3    3    0    0  0.94917073130E+01 -0.31516180129E+01 -0.42217808815E+02  0.43386271852E+02  0.51100000000E-03 0.  1.
<mgrwt>
<rscale>  0 0.20002948E+02</rscale>
<asrwt>0</asrwt>
<pdfrwt beam="2">  1        3 0.13256516E-01 0.20002948E+02</pdfrwt>
<pdfrwt beam="1">  1       -3 0.17859607E-03 0.20002948E+02</pdfrwt>
<totfact> 0.14628178E+06</totfact>
</mgrwt>
</event>
<event>
 5    1  0.4133473E-007  0.2000035E+02  0.7818608E-02  0.1745321E+00
         -3   -1    0    0    0  501 -0.00000000000E+00  0.00000000000E+00  0.15288338630E+01  0.15316598776E+01  0.93000000000E-01 0. -1.
          3   -1    0    0  501    0  0.00000000000E+00 -0.00000000000E+00 -0.65348363027E+02  0.65348429203E+02  0.93000000000E-01 0.  1.
       1023    2    1    2    0    0  0.00000000000E+00  0.00000000000E+00 -0.63819529164E+02  0.66880089081E+02  0.20000350315E+02 0.  0.
        -11    1    3    3    0    0 -0.36713713693E+01 -0.93018002597E+01 -0.32017972069E+02  0.33543300248E+02  0.51100000000E-03 0. -1.
         11    1    3    3    0    0  0.36713713693E+01  0.93018002597E+01 -0.31801557095E+02  0.33336788833E+02  0.51100000000E-03 0.  1.
<mgrwt>
<rscale>  0 0.20000350E+02</rscale>
<asrwt>0</asrwt>
<pdfrwt beam="2">  1        3 0.10053815E-01 0.20000350E+02</pdfrwt>
<pdfrwt beam="1">  1       -3 0.23542774E-03 0.20000350E+02</pdfrwt>
<totfact> 0.15443513E+06</totfact>
</mgrwt>
</event>
<event>
 4    1  0.4133473E-007  0.2002538E+02  0.7818608E-02  0.1744824E+00
          3   -1    0    0  501    0  0.00000000000E+00  0.00000000000E+00  0.12765638708E+02  0.12765977465E+02  0.93000000000E-01 0.  1.
         -3   -1    0    0    0  501 -0.00000000000E+00 -0.00000000000E+00 -0.78527063175E+01  0.78532570001E+01  0.93000000000E-01 0. -1.
        -11    1    1    2    0    0 -0.99254261676E+01  0.13052685864E+01  0.26522911938E+01  0.10356276335E+02  0.51100000000E-03 0.  1.
         11    1    1    2    0    0  0.99254261676E+01 -0.13052685864E+01  0.22606411971E+01  0.10262958130E+02  0.51100000000E-03 0. -1.
<mgrwt>
<rscale>  0 0.20025382E+02</rscale>
<asrwt>0</asrwt>
<pdfrwt beam="1">  1        3 0.19640128E-02 0.20025382E+02</pdfrwt>
<pdfrwt beam="2">  1       -3 0.12081771E-02 0.20025382E+02</pdfrwt>
<totfact> 0.17796241E+06</totfact>
</mgrwt>
</event>
<event>
 5    1  0.4133473E-007  0.2000257E+02  0.7818608E-02  0.1745277E+00
          3   -1    0    0  501    0  0.00000000000E+00  0.00000000000E+00  0.26537621792E+01  0.26553912525E+01  0.93000000000E-01 0.  1.
         -3   -1    0    0    0  501 -0.00000000000E+00 -0.00000000000E+00 -0.37678787978E+02  0.37678902751E+02  0.93000000000E-01 0. -1.
       1023    2    1    2    0    0  0.00000000000E+00  0.00000000000E+00 -0.35025025799E+02  0.40334294003E+02  0.20002570848E+02 0.  0.
        -11    1    3    3    0    0  0.72037592942E+01  0.69361524986E+01 -0.17807152994E+02  0.20423003145E+02  0.51100000000E-03 0.  1.
         11    1    3    3    0    0 -0.72037592942E+01 -0.69361524986E+01 -0.17217872805E+02  0.19911290858E+02  0.51100000000E-03 0. -1.
<mgrwt>
<rscale>  0 0.20002571E+02</rscale>
<asrwt>0</asrwt>
<pdfrwt beam="1">  1        3 0.40840527E-03 0.20002571E+02</pdfrwt>
<pdfrwt beam="2">  1       -3 0.57968704E-02 0.20002571E+02</pdfrwt>
<totfact> 0.16691855E+06</totfact>
</mgrwt>
</event>
<event>
 5    1  0.4188199E-007  0.2000105E+02  0.7818608E-02  0.1745307E+00
          3   -1    0    0  501    0  0.00000000000E+00  0.00000000000E+00  0.23953282869E+01  0.23971329964E+01  0.93000000000E-01 0.  1.
         -3   -1    0    0    0  501 -0.00000000000E+00 -0.00000000000E+00 -0.41734749918E+02  0.41734853536E+02  0.93000000000E-01 0. -1.
       1023    2    1    2    0    0  0.00000000000E+00  0.00000000000E+00 -0.39339421631E+02  0.44131986533E+02  0.20001053499E+02 0.  0.
        -11    1    3    3    0    0 -0.59707119246E+01  0.80223803981E+01 -0.19781064326E+02  0.22165254212E+02  0.51100000000E-03 0.  1.
         11    1    3    3    0    0  0.59707119246E+01 -0.80223803981E+01 -0.19558357305E+02  0.21966732321E+02  0.51100000000E-03 0. -1.
<mgrwt>
<rscale>  0 0.20001053E+02</rscale>
<asrwt>0</asrwt>
<pdfrwt beam="1">  1        3 0.36865887E-03 0.20001053E+02</pdfrwt>
<pdfrwt beam="2">  1       -3 0.64208770E-02 0.20001053E+02</pdfrwt>
<totfact> 0.16498423E+06</totfact>
</mgrwt>
</event>
<event>
 5    1  0.4133473E-007  0.2000004E+02  0.7818608E-02  0.1745327E+00
         -3   -1    0    0    0  501 -0.00000000000E+00  0.00000000000E+00  0.61049840132E+01  0.61056923278E+01  0.93000000000E-01 0.  1.
          3   -1    0    0  501    0  0.00000000000E+00 -0.00000000000E+00 -0.16378333427E+02  0.16378597463E+02  0.93000000000E-01 0. -1.
       1023    2    1    2    0    0  0.00000000000E+00  0.00000000000E+00 -0.10273349414E+02  0.22484289791E+02  0.20000039480E+02 0.  0.
        -11    1    3    3    0    0 -0.99209841543E+01  0.12547774036E+01 -0.51381053197E+01  0.11242798560E+02  0.51100000000E-03 0.  1.
         11    1    3    3    0    0  0.99209841543E+01 -0.12547774036E+01 -0.51352440942E+01  0.11241491231E+02  0.51100000000E-03 0. -1.
<mgrwt>
<rscale>  0 0.20000039E+02</rscale>
<asrwt>0</asrwt>
<pdfrwt beam="2">  1        3 0.25198184E-02 0.20000039E+02</pdfrwt>
<pdfrwt beam="1">  1       -3 0.93930312E-03 0.20000039E+02</pdfrwt>
<totfact> 0.17724416E+06</totfact>
</mgrwt>
</event>
<event>
 5    1  0.4133473E-007  0.2000021E+02  0.7818608E-02  0.1745324E+00
         -3   -1    0    0    0  501 -0.00000000000E+00  0.00000000000E+00  0.10220621478E+03  0.10220625709E+03  0.93000000000E-01 0. -1.
          3   -1    0    0  501    0  0.00000000000E+00 -0.00000000000E+00 -0.97618169421E+00  0.98060170309E+00  0.93000000000E-01 0.  1.
       1023    2    1    2    0    0  0.00000000000E+00  0.00000000000E+00  0.10123003309E+03  0.10318685879E+03  0.20000205733E+02 0.  0.
        -11    1    3    3    0    0 -0.81605229759E+01  0.57799407938E+01  0.50689112299E+02  0.51666120009E+02  0.51100000000E-03 0.  1.
         11    1    3    3    0    0  0.81605229759E+01 -0.57799407938E+01  0.50540920787E+02  0.51520738786E+02  0.51100000000E-03 0. -1.
<mgrwt>
<rscale>  0 0.20000206E+02</rscale>
<asrwt>0</asrwt>
<pdfrwt beam="2">  1        3 0.15052505E-03 0.20000206E+02</pdfrwt>
<pdfrwt beam="1">  1       -3 0.15724377E-01 0.20000206E+02</pdfrwt>
<totfact> 0.14071168E+06</totfact>
</mgrwt>
</event>
<event>
 5    1  0.4133473E-007  0.2000059E+02  0.7818608E-02  0.1745316E+00
         -3   -1    0    0    0  501 -0.00000000000E+00  0.00000000000E+00  0.44309215928E+01  0.44318974674E+01  0.93000000000E-01 0. -1.
          3   -1    0    0  501    0  0.00000000000E+00 -0.00000000000E+00 -0.22566446227E+02  0.22566637860E+02  0.93000000000E-01 0.  1.
       1023    2    1    2    0    0  0.00000000000E+00  0.00000000000E+00 -0.18135524634E+02  0.26998535328E+02  0.20000591393E+02 0.  0.
        -11    1    3    3    0    0  0.63753380911E+01 -0.77045301145E+01 -0.91144008403E+01  0.13530595811E+02  0.51100000000E-03 0. -1.
         11    1    3    3    0    0 -0.63753380911E+01  0.77045301145E+01 -0.90211237939E+01  0.13467939517E+02  0.51100000000E-03 0.  1.
<mgrwt>
<rscale>  0 0.20000591E+02</rscale>
<asrwt>0</asrwt>
<pdfrwt beam="2">  1        3 0.34718507E-02 0.20000591E+02</pdfrwt>
<pdfrwt beam="1">  1       -3 0.68177007E-03 0.20000591E+02</pdfrwt>
<totfact> 0.17443427E+06</totfact>
</mgrwt>
</event>
<event>
 5    1  0.4304311E-007  0.2000237E+02  0.7818608E-02  0.1745281E+00
         -3   -1    0    0    0  501 -0.00000000000E+00  0.00000000000E+00  0.87949054181E+01  0.87953971095E+01  0.93000000000E-01 0. -1.
          3   -1    0    0  501    0  0.00000000000E+00 -0.00000000000E+00 -0.11371912525E+02  0.11372292798E+02  0.93000000000E-01 0.  1.
       1023    2    1    2    0    0  0.00000000000E+00  0.00000000000E+00 -0.25770071069E+01  0.20167689907E+02  0.20002368624E+02 0.  0.
        -11    1    3    3    0    0 -0.74421218088E+01 -0.66807301025E+01 -0.12081222521E+01  0.10073573912E+02  0.51100000000E-03 0. -1.
         11    1    3    3    0    0  0.74421218088E+01  0.66807301025E+01 -0.13688848548E+01  0.10094115995E+02  0.51100000000E-03 0.  1.
<mgrwt>
<rscale>  0 0.20002369E+02</rscale>
<asrwt>0</asrwt>
<pdfrwt beam="2">  1        3 0.17495921E-02 0.20002369E+02</pdfrwt>
<pdfrwt beam="1">  1       -3 0.13531294E-02 0.20002369E+02</pdfrwt>
<totfact> 0.17869998E+06</totfact>
</mgrwt>
</event>
<event>
 5    1  0.4133473E-007  0.2000066E+02  0.7818608E-02  0.1745315E+00
          3   -1    0    0  501    0  0.00000000000E+00  0.00000000000E+00  0.29453289731E+02  0.29453436557E+02  0.93000000000E-01 0. -1.
         -3   -1    0    0    0  501 -0.00000000000E+00 -0.00000000000E+00 -0.33946390519E+01  0.33959127333E+01  0.93000000000E-01 0.  1.
       1023    2    1    2    0    0  0.00000000000E+00  0.00000000000E+00  0.26058650679E+02  0.32849349290E+02  0.20000661828E+02 0.  0.
        -11    1    3    3    0    0 -0.72947453917E+01 -0.68405132018E+01  0.13072371938E+02  0.16458822544E+02  0.51100000000E-03 0. -1.
         11    1    3    3    0    0  0.72947453917E+01  0.68405132018E+01  0.12986278741E+02  0.16390526746E+02  0.51100000000E-03 0.  1.
<mgrwt>
<rscale>  0 0.20000662E+02</rscale>
<asrwt>0</asrwt>
<pdfrwt beam="1">  1        3 0.45313848E-02 0.20000662E+02</pdfrwt>
<pdfrwt beam="2">  1       -3 0.52236141E-03 0.20000662E+02</pdfrwt>
<totfact> 0.17101311E+06</totfact>
</mgrwt>
</event>
<event>
 5    1  0.4133473E-007  0.2001119E+02  0.7818608E-02  0.1745106E+00
          3   -1    0    0  501    0  0.00000000000E+00  0.00000000000E+00  0.21686633003E+01  0.21706564698E+01  0.93000000000E-01 0. -1.
         -3   -1    0    0    0  501 -0.00000000000E+00 -0.00000000000E+00 -0.46139744040E+02  0.46139837766E+02  0.93000000000E-01 0.  1.
       1023    2    1    2    0    0  0.00000000000E+00  0.00000000000E+00 -0.43971080739E+02  0.48310494235E+02  0.20011194664E+02 0.  0.
        -11    1    3    3    0    0  0.56121452723E+01 -0.82814915811E+01 -0.21548979666E+02  0.23757899786E+02  0.51100000000E-03 0. -1.
         11    1    3    3    0    0 -0.56121452723E+01  0.82814915811E+01 -0.22422101074E+02  0.24552594449E+02  0.51100000000E-03 0.  1.
<mgrwt>
<rscale>  0 0.20011195E+02</rscale>
<asrwt>0</asrwt>
<pdfrwt beam="1">  1        3 0.33380107E-03 0.20011195E+02</pdfrwt>
<pdfrwt beam="2">  1       -3 0.70985820E-02 0.20011195E+02</pdfrwt>
<totfact> 0.16272297E+06</totfact>
</mgrwt>
</event>
<event>
 5    1  0.4137264E-007  0.2000078E+02  0.7818608E-02  0.1745312E+00
          3   -1    0    0  501    0  0.00000000000E+00  0.00000000000E+00  0.27905327336E+01  0.27920820077E+01  0.93000000000E-01 0.  1.
         -3   -1    0    0    0  501 -0.00000000000E+00 -0.00000000000E+00 -0.35826703869E+02  0.35826824575E+02  0.93000000000E-01 0. -1.
       1023    2    1    2    0    0  0.00000000000E+00  0.00000000000E+00 -0.33036171136E+02  0.38618906583E+02  0.20000783543E+02 0.  0.
        -11    1    3    3    0    0 -0.70549575986E+01 -0.70875732472E+01 -0.16598026183E+02  0.19377837719E+02  0.51100000000E-03 0.  1.
         11    1    3    3    0    0  0.70549575986E+01  0.70875732472E+01 -0.16438144953E+02  0.19241068864E+02  0.51100000000E-03 0. -1.
<mgrwt>
<rscale>  0 0.20000784E+02</rscale>
<asrwt>0</asrwt>
<pdfrwt beam="1">  1        3 0.42944122E-03 0.20000784E+02</pdfrwt>
<pdfrwt beam="2">  1       -3 0.55119287E-02 0.20000784E+02</pdfrwt>
<totfact> 0.16785917E+06</totfact>
</mgrwt>
</event>
<event>
 5    1  0.4133473E-007  0.2000763E+02  0.7818608E-02  0.1745176E+00
          3   -1    0    0  501    0  0.00000000000E+00  0.00000000000E+00  0.85675977227E+00  0.86179249670E+00  0.93000000000E-01 0. -1.
         -3   -1    0    0    0  501 -0.00000000000E+00 -0.00000000000E+00 -0.11646080178E+03  0.11646083892E+03  0.93000000000E-01 0.  1.
       1023    2    1    2    0    0  0.00000000000E+00  0.00000000000E+00 -0.11560404201E+03  0.11732263141E+03  0.20007631352E+02 0.  0.
        -11    1    3    3    0    0 -0.14661230228E+01 -0.98937741518E+01 -0.56628595439E+02  0.57505078952E+02  0.51100000000E-03 0.  1.
         11    1    3    3    0    0  0.14661230228E+01  0.98937741518E+01 -0.58975446573E+02  0.59817552461E+02  0.51100000000E-03 0. -1.
<mgrwt>
<rscale>  0 0.20007631E+02</rscale>
<asrwt>0</asrwt>
<pdfrwt beam="1">  1        3 0.13219928E-03 0.20007631E+02</pdfrwt>
<pdfrwt beam="2">  1       -3 0.17917424E-01 0.20007631E+02</pdfrwt>
<totfact> 0.13596637E+06</totfact>
</mgrwt>
</event>
<event>
 5    1  0.4133473E-007  0.2000174E+02  0.7818608E-02  0.1745294E+00
          3   -1    0    0  501    0  0.00000000000E+00  0.00000000000E+00  0.11977526533E+01  0.12013577396E+01  0.93000000000E-01 0. -1.
         -3   -1    0    0    0  501 -0.00000000000E+00 -0.00000000000E+00 -0.83375098572E+02  0.83375150440E+02  0.93000000000E-01 0.  1.
       1023    2    1    2    0    0  0.00000000000E+00  0.00000000000E+00 -0.82177345919E+02  0.84576508179E+02  0.20001738764E+02 0.  0.
        -11    1    3    3    0    0 -0.58772839958E+01 -0.80906044510E+01 -0.41640654144E+02  0.42824577352E+02  0.51100000000E-03 0.  1.
         11    1    3    3    0    0  0.58772839958E+01  0.80906044510E+01 -0.40536691775E+02  0.41751930828E+02  0.51100000000E-03 0. -1.
<mgrwt>
<rscale>  0 0.20001739E+02</rscale>
<asrwt>0</asrwt>
<pdfrwt beam="1">  1        3 0.18455101E-03 0.20001739E+02</pdfrwt>
<pdfrwt beam="2">  1       -3 0.12827215E-01 0.20001739E+02</pdfrwt>
<totfact> 0.14736222E+06</totfact>
</mgrwt>
</event>
<event>
 5    1  0.4133473E-007  0.2000158E+02  0.7818608E-02  0.1745297E+00
         -3   -1    0    0    0  501 -0.00000000000E+00  0.00000000000E+00  0.98262047794E+02  0.98262091804E+02  0.93000000000E-01 0.  1.
          3   -1    0    0  501    0  0.00000000000E+00 -0.00000000000E+00 -0.10156789170E+01  0.10199277732E+01  0.93000000000E-01 0. -1.
       1023    2    1    2    0    0  0.00000000000E+00  0.00000000000E+00  0.97246368877E+02  0.99282019577E+02  0.20001578726E+02 0.  0.
        -11    1    3    3    0    0 -0.24695167589E+01  0.96908932169E+01  0.48931704439E+02  0.49943203982E+02  0.51100000000E-03 0.  1.
         11    1    3    3    0    0  0.24695167589E+01 -0.96908932169E+01  0.48314664438E+02  0.49338815596E+02  0.51100000000E-03 0. -1.
<mgrwt>
<rscale>  0 0.20001579E+02</rscale>
<asrwt>0</asrwt>
<pdfrwt beam="2">  1        3 0.15658855E-03 0.20001579E+02</pdfrwt>
<pdfrwt beam="1">  1       -3 0.15117565E-01 0.20001579E+02</pdfrwt>
<totfact> 0.14203368E+06</totfact>
</mgrwt>
</event>
<event>
 5    1  0.4133473E-007  0.2000153E+02  0.7818608E-02  0.1745298E+00
          3   -1    0    0  501    0  0.00000000000E+00  0.00000000000E+00  0.10973145889E+01  0.11012485219E+01  0.93000000000E-01 0.  1.
         -3   -1    0    0    0  501 -0.00000000000E+00 -0.00000000000E+00 -0.90978463586E+02  0.90978511119E+02  0.93000000000E-01 0. -1.
       1023    2    1    2    0    0  0.00000000000E+00  0.00000000000E+00 -0.89881148997E+02  0.92079759641E+02  0.20001529705E+02 0.  0.
        -11    1    3    3    0    0  0.76142205505E+01 -0.64829677570E+01 -0.45402588776E+02  0.46490862472E+02  0.51100000000E-03 0. -1.
         11    1    3    3    0    0 -0.76142205505E+01  0.64829677570E+01 -0.44478560221E+02  0.45588897169E+02  0.51100000000E-03 0.  1.
<mgrwt>
<rscale>  0 0.20001530E+02</rscale>
<asrwt>0</asrwt>
<pdfrwt beam="1">  1        3 0.16912397E-03 0.20001530E+02</pdfrwt>
<pdfrwt beam="2">  1       -3 0.13996987E-01 0.20001530E+02</pdfrwt>
<totfact> 0.14458895E+06</totfact>
</mgrwt>
</event>
<event>
 5    1  0.4169724E-007  0.2000084E+02  0.7818608E-02  0.1745311E+00
          3   -1    0    0  501    0  0.00000000000E+00  0.00000000000E+00  0.28984609928E+01  0.28999526077E+01  0.93000000000E-01 0.  1.
         -3   -1    0    0    0  501 -0.00000000000E+00 -0.00000000000E+00 -0.34493544145E+02  0.34493669516E+02  0.93000000000E-01 0. -1.
       1023    2    1    2    0    0  0.00000000000E+00  0.00000000000E+00 -0.31595083152E+02  0.37393622124E+02  0.20000842386E+02 0.  0.
        -11    1    3    3    0    0 -0.70912891697E+01 -0.70513854482E+01 -0.15801698958E+02  0.18700323769E+02  0.51100000000E-03 0.  1.
         11    1    3    3    0    0  0.70912891697E+01  0.70513854482E+01 -0.15793384194E+02  0.18693298355E+02  0.51100000000E-03 0. -1.
<mgrwt>
<rscale>  0 0.20000842E+02</rscale>
<asrwt>0</asrwt>
<pdfrwt beam="1">  1        3 0.44604148E-03 0.20000842E+02</pdfrwt>
<pdfrwt beam="2">  1       -3 0.53068232E-02 0.20000842E+02</pdfrwt>
<totfact> 0.16851657E+06</totfact>
</mgrwt>
</event>
<event>
 5    1  0.4133473E-007  0.2000028E+02  0.7818608E-02  0.1745322E+00
          3   -1    0    0  501    0  0.00000000000E+00  0.00000000000E+00  0.64619872007E+01  0.64626563874E+01  0.93000000000E-01 0. -1.
         -3   -1    0    0    0  501 -0.00000000000E+00 -0.00000000000E+00 -0.15473945601E+02  0.15474225068E+02  0.93000000000E-01 0.  1.
       1023    2    1    2    0    0  0.00000000000E+00  0.00000000000E+00 -0.90119584001E+01  0.21936881455E+02  0.20000284343E+02 0.  0.
        -11    1    3    3    0    0  0.53873471004E+01 -0.84249204686E+01 -0.44982621784E+01  0.10965270474E+02  0.51100000000E-03 0. -1.
         11    1    3    3    0    0 -0.53873471004E+01  0.84249204686E+01 -0.45136962217E+01  0.10971610981E+02  0.51100000000E-03 0.  1.
<mgrwt>
<rscale>  0 0.20000284E+02</rscale>
<asrwt>0</asrwt>
<pdfrwt beam="1">  1        3 0.99422485E-03 0.20000284E+02</pdfrwt>
<pdfrwt beam="2">  1       -3 0.23806800E-02 0.20000284E+02</pdfrwt>
<totfact> 0.17759724E+06</totfact>
</mgrwt>
</event>
<event>
 5    1  0.4133473E-007  0.2000106E+02  0.7818608E-02  0.1745307E+00
          3   -1    0    0  501    0  0.00000000000E+00  0.00000000000E+00  0.11192852317E+01  0.11231422126E+01  0.93000000000E-01 0. -1.
         -3   -1    0    0    0  501 -0.00000000000E+00 -0.00000000000E+00 -0.89194591560E+02  0.89194640044E+02  0.93000000000E-01 0.  1.
       1023    2    1    2    0    0  0.00000000000E+00  0.00000000000E+00 -0.88075306329E+02  0.90317782257E+02  0.20001055145E+02 0.  0.
        -11    1    3    3    0    0 -0.84197918052E+01 -0.53956310607E+01 -0.44351251346E+02  0.45464703065E+02  0.51100000000E-03 0. -1.
         11    1    3    3    0    0  0.84197918052E+01  0.53956310607E+01 -0.43724054983E+02  0.44853079192E+02  0.51100000000E-03 0.  1.
<mgrwt>
<rscale>  0 0.20001055E+02</rscale>
<asrwt>0</asrwt>
<pdfrwt beam="1">  1        3 0.17249822E-03 0.20001055E+02</pdfrwt>
<pdfrwt beam="2">  1       -3 0.13722540E-01 0.20001055E+02</pdfrwt>
<totfact> 0.14523747E+06</totfact>
</mgrwt>
</event>
<event>
 5    1  0.4133473E-007  0.2000071E+02  0.7818608E-02  0.1745314E+00
          3   -1    0    0  501    0  0.00000000000E+00  0.00000000000E+00  0.25747416320E+02  0.25747584278E+02  0.93000000000E-01 0. -1.
         -3   -1    0    0    0  501 -0.00000000000E+00 -0.00000000000E+00 -0.38834241867E+01  0.38845376062E+01  0.93000000000E-01 0.  1.
       1023    2    1    2    0    0  0.00000000000E+00  0.00000000000E+00  0.21863992133E+02  0.29632121884E+02  0.20000712371E+02 0.  0.
        -11    1    3    3    0    0 -0.88625387800E+01 -0.46326537912E+01  0.10884015678E+02  0.14780658724E+02  0.51100000000E-03 0.  1.
         11    1    3    3    0    0  0.88625387800E+01  0.46326537912E+01  0.10979976455E+02  0.14851463160E+02  0.51100000000E-03 0. -1.
<mgrwt>
<rscale>  0 0.20000712E+02</rscale>
<asrwt>0</asrwt>
<pdfrwt beam="1">  1        3 0.39612397E-02 0.20000712E+02</pdfrwt>
<pdfrwt beam="2">  1       -3 0.59754842E-03 0.20000712E+02</pdfrwt>
<totfact> 0.17286574E+06</totfact>
</mgrwt>
</event>
<event>
 5    1  0.4133473E-007  0.2000182E+02  0.7818608E-02  0.1745292E+00
         -3   -1    0    0    0  501 -0.00000000000E+00  0.00000000000E+00  0.12243628225E+01  0.12278897838E+01  0.93000000000E-01 0. -1.
          3   -1    0    0  501    0  0.00000000000E+00 -0.00000000000E+00 -0.81568983104E+02  0.81569036120E+02  0.93000000000E-01 0.  1.
       1023    2    1    2    0    0  0.00000000000E+00  0.00000000000E+00 -0.80344620282E+02  0.82796925904E+02  0.20001823192E+02 0.  0.
        -11    1    3    3    0    0 -0.13590361062E+01  0.99081407573E+01 -0.40173520066E+02  0.41399637041E+02  0.51100000000E-03 0.  1.
         11    1    3    3    0    0  0.13590361062E+01 -0.99081407573E+01 -0.40171100216E+02  0.41397288863E+02  0.51100000000E-03 0. -1.
<mgrwt>
<rscale>  0 0.20001823E+02</rscale>
<asrwt>0</asrwt>
<pdfrwt beam="2">  1        3 0.12549345E-01 0.20001823E+02</pdfrwt>
<pdfrwt beam="1">  1       -3 0.18863896E-03 0.20001823E+02</pdfrwt>
<totfact> 0.14800758E+06</totfact>
</mgrwt>
</event>
<event>
 5    1  0.4178944E-007  0.2000133E+02  0.7818608E-02  0.1745302E+00
          3   -1    0    0  501    0  0.00000000000E+00  0.00000000000E+00  0.23639511316E+01  0.23657797769E+01  0.93000000000E-01 0.  1.
         -3   -1    0    0    0  501 -0.00000000000E+00 -0.00000000000E+00 -0.42289435446E+02  0.42289537705E+02  0.93000000000E-01 0. -1.
       1023    2    1    2    0    0  0.00000000000E+00  0.00000000000E+00 -0.39925484314E+02  0.44655317482E+02  0.20001326999E+02 0.  0.
        -11    1    3    3    0    0  0.64913064421E+01 -0.76075014927E+01 -0.19859657125E+02  0.22235492341E+02  0.51100000000E-03 0. -1.
         11    1    3    3    0    0 -0.64913064421E+01  0.76075014927E+01 -0.20065827189E+02  0.22419825141E+02  0.51100000000E-03 0.  1.
<mgrwt>
<rscale>  0 0.20001327E+02</rscale>
<asrwt>0</asrwt>
<pdfrwt beam="1">  1        3 0.36383335E-03 0.20001327E+02</pdfrwt>
<pdfrwt beam="2">  1       -3 0.65062149E-02 0.20001327E+02</pdfrwt>
<totfact> 0.16471408E+06</totfact>
</mgrwt>
</event>
<event>
 5    1  0.4138356E-007  0.2000312E+02  0.7818608E-02  0.1745266E+00
         -3   -1    0    0    0  501 -0.00000000000E+00  0.00000000000E+00  0.12546523540E+02  0.12546868212E+02  0.93000000000E-01 0. -1.
          3   -1    0    0  501    0  0.00000000000E+00 -0.00000000000E+00 -0.79720991167E+01  0.79726415526E+01  0.93000000000E-01 0.  1.
       1023    2    1    2    0    0  0.00000000000E+00  0.00000000000E+00  0.45744244229E+01  0.20519509765E+02  0.20003122811E+02 0.  0.
        -11    1    3    3    0    0  0.99394079296E+01  0.11056727943E+01  0.24205207078E+01  0.10289473411E+02  0.51100000000E-03 0.  1.
         11    1    3    3    0    0 -0.99394079296E+01 -0.11056727943E+01  0.21539037151E+01  0.10230036353E+02  0.51100000000E-03 0. -1.
<mgrwt>
<rscale>  0 0.20003123E+02</rscale>
<asrwt>0</asrwt>
<pdfrwt beam="2">  1        3 0.12265450E-02 0.20003123E+02</pdfrwt>
<pdfrwt beam="1">  1       -3 0.19303026E-02 0.20003123E+02</pdfrwt>
<totfact> 0.17845849E+06</totfact>
</mgrwt>
</event>
<event>
 5    1  0.4133473E-007  0.2000028E+02  0.7818608E-02  0.1745323E+00
          3   -1    0    0  501    0  0.00000000000E+00  0.00000000000E+00  0.91085493762E+00  0.91559036550E+00  0.93000000000E-01 0.  1.
         -3   -1    0    0    0  501 -0.00000000000E+00 -0.00000000000E+00 -0.10950058426E+03  0.10950062376E+03  0.93000000000E-01 0. -1.
       1023    2    1    2    0    0  0.00000000000E+00  0.00000000000E+00 -0.10858972933E+03  0.11041621412E+03  0.20000275647E+02 0.  0.
        -11    1    3    3    0    0  0.37508126308E+01  0.92700676949E+01 -0.54281605331E+02  0.55195067062E+02  0.51100000000E-03 0. -1.
         11    1    3    3    0    0 -0.37508126308E+01 -0.92700676949E+01 -0.54308123995E+02  0.55221147060E+02  0.51100000000E-03 0.  1.
<mgrwt>
<rscale>  0 0.20000276E+02</rscale>
<asrwt>0</asrwt>
<pdfrwt beam="1">  1        3 0.14049892E-03 0.20000276E+02</pdfrwt>
<pdfrwt beam="2">  1       -3 0.16846601E-01 0.20000276E+02</pdfrwt>
<totfact> 0.13829673E+06</totfact>
</mgrwt>
</event>
<event>
 5    1  0.4133473E-007  0.2000233E+02  0.7818608E-02  0.1745282E+00
          3   -1    0    0  501    0  0.00000000000E+00  0.00000000000E+00  0.29085311036E+02  0.29085459719E+02  0.93000000000E-01 0.  1.
         -3   -1    0    0    0  501 -0.00000000000E+00 -0.00000000000E+00 -0.34381762306E+01  0.34394337895E+01  0.93000000000E-01 0. -1.
       1023    2    1    2    0    0  0.00000000000E+00  0.00000000000E+00  0.25647134806E+02  0.32524893509E+02  0.20002329215E+02 0.  0.
        -11    1    3    3    0    0  0.90916721729E+01  0.41661643338E+01  0.12967774638E+02  0.16376159729E+02  0.51100000000E-03 0.  1.
         11    1    3    3    0    0 -0.90916721729E+01 -0.41661643338E+01  0.12679360168E+02  0.16148733780E+02  0.51100000000E-03 0. -1.
<mgrwt>
<rscale>  0 0.20002329E+02</rscale>
<asrwt>0</asrwt>
<pdfrwt beam="1">  1        3 0.44747715E-02 0.20002329E+02</pdfrwt>
<pdfrwt beam="2">  1       -3 0.52905836E-03 0.20002329E+02</pdfrwt>
<totfact> 0.17116660E+06</totfact>
</mgrwt>
</event>
<event>
 5    1  0.4133473E-007  0.2000142E+02  0.7818608E-02  0.1745300E+00
         -3   -1    0    0    0  501 -0.00000000000E+00  0.00000000000E+00  0.34719804498E+02  0.34719929052E+02  0.93000000000E-01 0.  1.
          3   -1    0    0  501    0  0.00000000000E+00 -0.00000000000E+00 -0.28797293107E+01  0.28812306230E+01  0.93000000000E-01 0. -1.
       1023    2    1    2    0    0  0.00000000000E+00  0.00000000000E+00  0.31840075187E+02  0.37601159675E+02  0.20001420474E+02 0.  0.
        -11    1    3    3    0    0  0.84544782083E+01  0.53408098906E+01  0.15716233302E+02  0.18628001544E+02  0.51100000000E-03 0.  1.
         11    1    3    3    0    0 -0.84544782083E+01 -0.53408098906E+01  0.16123841885E+02  0.18973158131E+02  0.51100000000E-03 0. -1.
<mgrwt>
<rscale>  0 0.20001420E+02</rscale>
<asrwt>0</asrwt>
<pdfrwt beam="2">  1        3 0.44316033E-03 0.20001420E+02</pdfrwt>
<pdfrwt beam="1">  1       -3 0.53416337E-02 0.20001420E+02</pdfrwt>
<totfact> 0.16839400E+06</totfact>
</mgrwt>
</event>
<event>
 5    1  0.4294352E-007  0.2000159E+02  0.7818608E-02  0.1745296E+00
         -3   -1    0    0    0  501 -0.00000000000E+00  0.00000000000E+00  0.16258988501E+02  0.16259254475E+02  0.93000000000E-01 0. -1.
          3   -1    0    0  501    0  0.00000000000E+00 -0.00000000000E+00 -0.61507556829E+01  0.61514587271E+01  0.93000000000E-01 0.  1.
       1023    2    1    2    0    0  0.00000000000E+00  0.00000000000E+00  0.10108232818E+02  0.22410713202E+02  0.20001592325E+02 0.  0.
        -11    1    3    3    0    0 -0.52986263669E+01  0.84816451895E+01  0.50018367891E+01  0.11181776157E+02  0.51100000000E-03 0. -1.
         11    1    3    3    0    0  0.52986263669E+01 -0.84816451895E+01  0.51063960291E+01  0.11228937045E+02  0.51100000000E-03 0.  1.
<mgrwt>
<rscale>  0 0.20001592E+02</rscale>
<asrwt>0</asrwt>
<pdfrwt beam="2">  1        3 0.94634466E-03 0.20001592E+02</pdfrwt>
<pdfrwt beam="1">  1       -3 0.25014574E-02 0.20001592E+02</pdfrwt>
<totfact> 0.17727009E+06</totfact>
</mgrwt>
</event>
<event>
 4    1  0.4133473E-007  0.2001864E+02  0.7818608E-02  0.1744958E+00
         -3   -1    0    0    0  501 -0.00000000000E+00  0.00000000000E+00  0.69515531493E+02  0.69515593702E+02  0.93000000000E-01 0.  1.
          3   -1    0    0  501    0  0.00000000000E+00 -0.00000000000E+00 -0.14396469692E+01  0.14426477033E+01  0.93000000000E-01 0. -1.
        -11    1    1    2    0    0  0.87673921542E+01  0.48276828024E+01  0.33636825974E+02  0.35094297945E+02  0.51100000000E-03 0.  1.
         11    1    1    2    0    0 -0.87673921542E+01 -0.48276828024E+01  0.34439058550E+02  0.35863943460E+02  0.51100000000E-03 0. -1.
<mgrwt>
<rscale>  0 0.20018641E+02</rscale>
<asrwt>0</asrwt>
<pdfrwt beam="2">  1        3 0.22171982E-03 0.20018641E+02</pdfrwt>
<pdfrwt beam="1">  1       -3 0.10694930E-01 0.20018641E+02</pdfrwt>
<totfact> 0.15245744E+06</totfact>
</mgrwt>
</event>
<event>
 5    1  0.4166634E-007  0.2000063E+02  0.7818608E-02  0.1745316E+00
         -3   -1    0    0    0  501 -0.00000000000E+00  0.00000000000E+00  0.19172730012E+02  0.19172955566E+02  0.93000000000E-01 0.  1.
          3   -1    0    0  501    0  0.00000000000E+00 -0.00000000000E+00 -0.52153990079E+01  0.52162281211E+01  0.93000000000E-01 0. -1.
       1023    2    1    2    0    0  0.00000000000E+00  0.00000000000E+00  0.13957331004E+02  0.24389183687E+02  0.20000629794E+02 0.  0.
        -11    1    3    3    0    0  0.91967847478E+01 -0.39269659206E+01  0.68979003078E+01  0.12148371906E+02  0.51100000000E-03 0.  1.
         11    1    3    3    0    0 -0.91967847478E+01  0.39269659206E+01  0.70594306966E+01  0.12240811781E+02  0.51100000000E-03 0. -1.
<mgrwt>
<rscale>  0 0.20000630E+02</rscale>
<asrwt>0</asrwt>
<pdfrwt beam="2">  1        3 0.80245021E-03 0.20000630E+02</pdfrwt>
<pdfrwt beam="1">  1       -3 0.29497319E-02 0.20000630E+02</pdfrwt>
<totfact> 0.17604504E+06</totfact>
</mgrwt>
</event>
<event>
 5    1  0.4205695E-007  0.2000063E+02  0.7818608E-02  0.1745316E+00
          3   -1    0    0  501    0  0.00000000000E+00  0.00000000000E+00  0.15072184682E+02  0.15072471598E+02  0.93000000000E-01 0.  1.
         -3   -1    0    0    0  501 -0.00000000000E+00 -0.00000000000E+00 -0.66344782938E+01  0.66351300839E+01  0.93000000000E-01 0. -1.
       1023    2    1    2    0    0  0.00000000000E+00  0.00000000000E+00  0.84377063878E+01  0.21707601682E+02  0.20000627033E+02 0.  0.
        -11    1    3    3    0    0  0.46626861769E+01  0.88464414490E+01  0.43036316345E+01  0.10886754071E+02  0.51100000000E-03 0. -1.
         11    1    3    3    0    0 -0.46626861769E+01 -0.88464414490E+01  0.41340747533E+01  0.10820847611E+02  0.51100000000E-03 0.  1.
<mgrwt>
<rscale>  0 0.20000627E+02</rscale>
<asrwt>0</asrwt>
<pdfrwt beam="1">  1        3 0.23188698E-02 0.20000627E+02</pdfrwt>
<pdfrwt beam="2">  1       -3 0.10207612E-02 0.20000627E+02</pdfrwt>
<totfact> 0.17773030E+06</totfact>
</mgrwt>
</event>
<event>
 5    1  0.4133473E-007  0.2000365E+02  0.7818608E-02  0.1745255E+00
         -3   -1    0    0    0  501 -0.00000000000E+00  0.00000000000E+00  0.10093417520E+03  0.10093421804E+03  0.93000000000E-01 0. -1.
          3   -1    0    0  501    0  0.00000000000E+00 -0.00000000000E+00 -0.98888183488E+00  0.99324532888E+00  0.93000000000E-01 0.  1.
       1023    2    1    2    0    0  0.00000000000E+00  0.00000000000E+00  0.99945293364E+02  0.10192746337E+03  0.20003652765E+02 0.  0.
        -11    1    3    3    0    0  0.99775357777E+01 -0.69191688326E+00  0.50385394977E+02  0.51368453319E+02  0.51100000000E-03 0.  1.
         11    1    3    3    0    0 -0.99775357777E+01  0.69191688326E+00  0.49559898387E+02  0.50559010053E+02  0.51100000000E-03 0. -1.
<mgrwt>
<rscale>  0 0.20003653E+02</rscale>
<asrwt>0</asrwt>
<pdfrwt beam="2">  1        3 0.15247466E-03 0.20003653E+02</pdfrwt>
<pdfrwt beam="1">  1       -3 0.15528669E-01 0.20003653E+02</pdfrwt>
<totfact> 0.14108949E+06</totfact>
</mgrwt>
</event>
<event>
 5    1  0.4189836E-007  0.2000131E+02  0.7818608E-02  0.1745302E+00
          3   -1    0    0  501    0  0.00000000000E+00  0.00000000000E+00  0.61469790489E+01  0.61476825250E+01  0.93000000000E-01 0.  1.
         -3   -1    0    0    0  501 -0.00000000000E+00 -0.00000000000E+00 -0.16268515213E+02  0.16268781031E+02  0.93000000000E-01 0. -1.
       1023    2    1    2    0    0  0.00000000000E+00  0.00000000000E+00 -0.10121536164E+02  0.22416463556E+02  0.20001308558E+02 0.  0.
        -11    1    3    3    0    0 -0.86644245821E+01 -0.49938405724E+01 -0.51155445487E+01  0.11232964582E+02  0.51100000000E-03 0. -1.
         11    1    3    3    0    0  0.86644245821E+01  0.49938405724E+01 -0.50059916157E+01  0.11183498975E+02  0.51100000000E-03 0.  1.
<mgrwt>
<rscale>  0 0.20001309E+02</rscale>
<asrwt>0</asrwt>
<pdfrwt beam="1">  1        3 0.94576365E-03 0.20001309E+02</pdfrwt>
<pdfrwt beam="2">  1       -3 0.25029230E-02 0.20001309E+02</pdfrwt>
<totfact> 0.17727185E+06</totfact>
</mgrwt>
</event>
<event>
 5    1  0.4281662E-007  0.2000087E+02  0.7818608E-02  0.1745311E+00
         -3   -1    0    0    0  501 -0.00000000000E+00  0.00000000000E+00  0.13184019391E+02  0.13184347397E+02  0.93000000000E-01 0. -1.
          3   -1    0    0  501    0  0.00000000000E+00 -0.00000000000E+00 -0.75848924988E+01  0.75854626239E+01  0.93000000000E-01 0.  1.
       1023    2    1    2    0    0  0.00000000000E+00  0.00000000000E+00  0.55991268919E+01  0.20769810021E+02  0.20000869640E+02 0.  0.
        -11    1    3    3    0    0 -0.30652208084E+01 -0.95189535674E+01  0.28529268928E+01  0.10399290732E+02  0.51100000000E-03 0.  1.
         11    1    3    3    0    0  0.30652208084E+01  0.95189535674E+01  0.27461999991E+01  0.10370519289E+02  0.51100000000E-03 0. -1.
<mgrwt>
<rscale>  0 0.20000870E+02</rscale>
<asrwt>0</asrwt>
<pdfrwt beam="2">  1        3 0.11669756E-02 0.20000870E+02</pdfrwt>
<pdfrwt beam="1">  1       -3 0.20283798E-02 0.20000870E+02</pdfrwt>
<totfact> 0.17833936E+06</totfact>
</mgrwt>
</event>
<event>
 5    1  0.4189350E-007  0.2000386E+02  0.7818608E-02  0.1745251E+00
          3   -1    0    0  501    0  0.00000000000E+00  0.00000000000E+00  0.13350530511E+02  0.13350854427E+02  0.93000000000E-01 0. -1.
         -3   -1    0    0    0  501 -0.00000000000E+00 -0.00000000000E+00 -0.74925249659E+01  0.74931021190E+01  0.93000000000E-01 0.  1.
       1023    2    1    2    0    0  0.00000000000E+00  0.00000000000E+00  0.58580055451E+01  0.20843956546E+02  0.20003857016E+02 0.  0.
        -11    1    3    3    0    0  0.74825234437E+01 -0.66344388983E+01  0.27350764402E+01  0.10367477030E+02  0.51100000000E-03 0. -1.
         11    1    3    3    0    0 -0.74825234437E+01  0.66344388983E+01  0.31229291049E+01  0.10476479515E+02  0.51100000000E-03 0.  1.
<mgrwt>
<rscale>  0 0.20003857E+02</rscale>
<asrwt>0</asrwt>
<pdfrwt beam="1">  1        3 0.20539971E-02 0.20003857E+02</pdfrwt>
<pdfrwt beam="2">  1       -3 0.11527655E-02 0.20003857E+02</pdfrwt>
<totfact> 0.17822857E+06</totfact>
</mgrwt>
</event>
<event>
 5    1  0.4363799E-007  0.2000146E+02  0.7818608E-02  0.1745299E+00
          3   -1    0    0  501    0  0.00000000000E+00  0.00000000000E+00  0.34879684441E+01  0.34892080573E+01  0.93000000000E-01 0. -1.
         -3   -1    0    0    0  501 -0.00000000000E+00 -0.00000000000E+00 -0.28667762518E+02  0.28667913366E+02  0.93000000000E-01 0.  1.
       1023    2    1    2    0    0  0.00000000000E+00  0.00000000000E+00 -0.25179794074E+02  0.32157121424E+02  0.20001460663E+02 0.  0.
        -11    1    3    3    0    0  0.22421698676E+01  0.97456533731E+01 -0.12433016674E+02  0.15955719641E+02  0.51100000000E-03 0.  1.
         11    1    3    3    0    0 -0.22421698676E+01 -0.97456533731E+01 -0.12746777400E+02  0.16201401783E+02  0.51100000000E-03 0. -1.
<mgrwt>
<rscale>  0 0.20001461E+02</rscale>
<asrwt>0</asrwt>
<pdfrwt beam="1">  1        3 0.53671751E-03 0.20001461E+02</pdfrwt>
<pdfrwt beam="2">  1       -3 0.44105318E-02 0.20001461E+02</pdfrwt>
<totfact> 0.17141042E+06</totfact>
</mgrwt>
</event>
<event>
 5    1  0.4133473E-007  0.2000475E+02  0.7818608E-02  0.1745234E+00
         -3   -1    0    0    0  501 -0.00000000000E+00  0.00000000000E+00  0.20280615578E+02  0.20280828810E+02  0.93000000000E-01 0.  1.
          3   -1    0    0  501    0  0.00000000000E+00 -0.00000000000E+00 -0.49324814224E+01  0.49333580837E+01  0.93000000000E-01 0. -1.
       1023    2    1    2    0    0  0.00000000000E+00  0.00000000000E+00  0.15348134155E+02  0.25214186894E+02  0.20004749402E+02 0.  0.
        -11    1    3    3    0    0 -0.80700923720E+01  0.59056446365E+01  0.74082731186E+01  0.12445301938E+02  0.51100000000E-03 0. -1.
         11    1    3    3    0    0  0.80700923720E+01 -0.59056446365E+01  0.79398610368E+01  0.12768884956E+02  0.51100000000E-03 0.  1.
<mgrwt>
<rscale>  0 0.20004749E+02</rscale>
<asrwt>0</asrwt>
<pdfrwt beam="2">  1        3 0.75892715E-03 0.20004749E+02</pdfrwt>
<pdfrwt beam="1">  1       -3 0.31201785E-02 0.20004749E+02</pdfrwt>
<totfact> 0.17545654E+06</totfact>
</mgrwt>
</event>
<event>
 5    1  0.4133473E-007  0.2000062E+02  0.7818608E-02  0.1745316E+00
          3   -1    0    0  501    0  0.00000000000E+00  0.00000000000E+00  0.11168040521E+03  0.11168044393E+03  0.93000000000E-01 0.  1.
         -3   -1    0    0    0  501 -0.00000000000E+00 -0.00000000000E+00 -0.89301440212E+00  0.89784392987E+00  0.93000000000E-01 0. -1.
       1023    2    1    2    0    0  0.00000000000E+00  0.00000000000E+00  0.11078739081E+03  0.11257828786E+03  0.20000623388E+02 0.  0.
        -11    1    3    3    0    0  0.87068392173E+01 -0.49187029950E+01  0.55728849144E+02  0.56618966040E+02  0.51100000000E-03 0. -1.
         11    1    3    3    0    0 -0.87068392173E+01  0.49187029950E+01  0.55058541661E+02  0.55959321819E+02  0.51100000000E-03 0.  1.
<mgrwt>
<rscale>  0 0.20000623E+02</rscale>
<asrwt>0</asrwt>
<pdfrwt beam="1">  1        3 0.17181973E-01 0.20000623E+02</pdfrwt>
<pdfrwt beam="2">  1       -3 0.13776133E-03 0.20000623E+02</pdfrwt>
<totfact> 0.13756010E+06</totfact>
</mgrwt>
</event>
<event>
 5    1  0.4333326E-007  0.2000116E+02  0.7818608E-02  0.1745305E+00
          3   -1    0    0  501    0  0.00000000000E+00  0.00000000000E+00  0.58018718430E+01  0.58026171581E+01  0.93000000000E-01 0. -1.
         -3   -1    0    0    0  501 -0.00000000000E+00 -0.00000000000E+00 -0.17235835010E+02  0.17236085910E+02  0.93000000000E-01 0.  1.
       1023    2    1    2    0    0  0.00000000000E+00  0.00000000000E+00 -0.11433963167E+02  0.23038703068E+02  0.20001158100E+02 0.  0.
        -11    1    3    3    0    0  0.99691087286E+01  0.78922948702E+00 -0.58029410205E+01  0.11562012661E+02  0.51100000000E-03 0. -1.
         11    1    3    3    0    0 -0.99691087286E+01 -0.78922948702E+00 -0.56310221467E+01  0.11476690407E+02  0.51100000000E-03 0.  1.
<mgrwt>
<rscale>  0 0.20001158E+02</rscale>
<asrwt>0</asrwt>
<pdfrwt beam="1">  1        3 0.89267231E-03 0.20001158E+02</pdfrwt>
<pdfrwt beam="2">  1       -3 0.26517435E-02 0.20001158E+02</pdfrwt>
<totfact> 0.17688017E+06</totfact>
</mgrwt>
</event>
<event>
 5    1  0.4133473E-007  0.2000401E+02  0.7818608E-02  0.1745248E+00
         -3   -1    0    0    0  501 -0.00000000000E+00  0.00000000000E+00  0.37795651564E+02  0.37795765982E+02  0.93000000000E-01 0. -1.
          3   -1    0    0  501    0  0.00000000000E+00 -0.00000000000E+00 -0.26459314568E+01  0.26475653484E+01  0.93000000000E-01 0.  1.
       1023    2    1    2    0    0  0.00000000000E+00  0.00000000000E+00  0.35149720108E+02  0.40443331330E+02  0.20004005236E+02 0.  0.
        -11    1    3    3    0    0 -0.52634855144E+01 -0.85049852858E+01  0.17638845944E+02  0.20277276468E+02  0.51100000000E-03 0. -1.
         11    1    3    3    0    0  0.52634855144E+01  0.85049852858E+01  0.17510874164E+02  0.20166054862E+02  0.51100000000E-03 0.  1.
<mgrwt>
<rscale>  0 0.20004005E+02</rscale>
<asrwt>0</asrwt>
<pdfrwt beam="2">  1        3 0.40720088E-03 0.20004005E+02</pdfrwt>
<pdfrwt beam="1">  1       -3 0.58148499E-02 0.20004005E+02</pdfrwt>
<totfact> 0.16683561E+06</totfact>
</mgrwt>
</event>
<event>
 5    1  0.4133473E-007  0.2000014E+02  0.7818608E-02  0.1745325E+00
          3   -1    0    0  501    0  0.00000000000E+00  0.00000000000E+00  0.34964092185E+02  0.34964215869E+02  0.93000000000E-01 0.  1.
         -3   -1    0    0    0  501 -0.00000000000E+00 -0.00000000000E+00 -0.28592310575E+01  0.28607431273E+01  0.93000000000E-01 0. -1.
       1023    2    1    2    0    0  0.00000000000E+00  0.00000000000E+00  0.32104861127E+02  0.37824958996E+02  0.20000135376E+02 0.  0.
        -11    1    3    3    0    0  0.74570921804E+01  0.66627817392E+01  0.16011464146E+02  0.18877708247E+02  0.51100000000E-03 0.  1.
         11    1    3    3    0    0 -0.74570921804E+01 -0.66627817392E+01  0.16093396981E+02  0.18947250749E+02  0.51100000000E-03 0. -1.
<mgrwt>
<rscale>  0 0.20000135E+02</rscale>
<asrwt>0</asrwt>
<pdfrwt beam="1">  1        3 0.53792171E-02 0.20000135E+02</pdfrwt>
<pdfrwt beam="2">  1       -3 0.44000752E-03 0.20000135E+02</pdfrwt>
<totfact> 0.16827523E+06</totfact>
</mgrwt>
</event>
<event>
 4    1  0.4133473E-007  0.2027461E+02  0.7818608E-02  0.1739922E+00
          3   -1    0    0  501    0  0.00000000000E+00  0.00000000000E+00  0.11218530806E+02  0.11218916278E+02  0.93000000000E-01 0. -1.
         -3   -1    0    0    0  501 -0.00000000000E+00 -0.00000000000E+00 -0.91595065297E+01  0.91599786499E+01  0.93000000000E-01 0.  1.
        -11    1    1    2    0    0 -0.95483616624E+01  0.32355274203E+01 -0.36649192900E-01  0.10081725624E+02  0.51100000000E-03 0.  1.
         11    1    1    2    0    0  0.95483616624E+01 -0.32355274203E+01  0.20956734692E+01  0.10297169304E+02  0.51100000000E-03 0. -1.
<mgrwt>
<rscale>  0 0.20274609E+02</rscale>
<asrwt>0</asrwt>
<pdfrwt beam="1">  1        3 0.17259938E-02 0.20274609E+02</pdfrwt>
<pdfrwt beam="2">  1       -3 0.14092208E-02 0.20274609E+02</pdfrwt>
<totfact> 0.17342589E+06</totfact>
</mgrwt>
</event>
<event>
 5    1  0.4207376E-007  0.2000199E+02  0.7818608E-02  0.1745288E+00
          3   -1    0    0  501    0  0.00000000000E+00  0.00000000000E+00  0.40809841394E+01  0.40820436728E+01  0.93000000000E-01 0. -1.
         -3   -1    0    0    0  501 -0.00000000000E+00 -0.00000000000E+00 -0.24504446185E+02  0.24504622662E+02  0.93000000000E-01 0.  1.
       1023    2    1    2    0    0  0.00000000000E+00  0.00000000000E+00 -0.20423462045E+02  0.28586666335E+02  0.20001992157E+02 0.  0.
        -11    1    3    3    0    0  0.71496163614E+00 -0.99753443065E+01 -0.10262424479E+02  0.14329550608E+02  0.51100000000E-03 0. -1.
         11    1    3    3    0    0 -0.71496163614E+00  0.99753443065E+01 -0.10161037567E+02  0.14257115728E+02  0.51100000000E-03 0.  1.
<mgrwt>
<rscale>  0 0.20001992E+02</rscale>
<asrwt>0</asrwt>
<pdfrwt beam="1">  1        3 0.62793881E-03 0.20001992E+02</pdfrwt>
<pdfrwt beam="2">  1       -3 0.37700098E-02 0.20001992E+02</pdfrwt>
<totfact> 0.17347376E+06</totfact>
</mgrwt>
</event>
<event>
 5    1  0.4133473E-007  0.2000140E+02  0.7818608E-02  0.1745300E+00
          3   -1    0    0  501    0  0.00000000000E+00  0.00000000000E+00  0.42720483828E+02  0.42720585056E+02  0.93000000000E-01 0.  1.
         -3   -1    0    0    0  501 -0.00000000000E+00 -0.00000000000E+00 -0.23400985610E+01  0.23419458310E+01  0.93000000000E-01 0. -1.
       1023    2    1    2    0    0  0.00000000000E+00  0.00000000000E+00  0.40380385267E+02  0.45062530887E+02  0.20001404341E+02 0.  0.
        -11    1    3    3    0    0 -0.96771245647E+01 -0.25233324974E+01  0.20212370999E+02  0.22551139403E+02  0.51100000000E-03 0.  1.
         11    1    3    3    0    0  0.96771245647E+01  0.25233324974E+01  0.20168014268E+02  0.22511391483E+02  0.51100000000E-03 0. -1.
<mgrwt>
<rscale>  0 0.20001404E+02</rscale>
<asrwt>0</asrwt>
<pdfrwt beam="1">  1        3 0.65725322E-02 0.20001404E+02</pdfrwt>
<pdfrwt beam="2">  1       -3 0.36016504E-03 0.20001404E+02</pdfrwt>
<totfact> 0.16448292E+06</totfact>
</mgrwt>
</event>
<event>
 5    1  0.4133473E-007  0.2000078E+02  0.7818608E-02  0.1745313E+00
         -3   -1    0    0    0  501 -0.00000000000E+00  0.00000000000E+00  0.10941359594E+03  0.10941363546E+03  0.93000000000E-01 0.  1.
          3   -1    0    0  501    0  0.00000000000E+00 -0.00000000000E+00 -0.91162898079E+00  0.91636040869E+00  0.93000000000E-01 0. -1.
       1023    2    1    2    0    0  0.00000000000E+00  0.00000000000E+00  0.10850196696E+03  0.11032999587E+03  0.20000778868E+02 0.  0.
        -11    1    3    3    0    0 -0.51521023928E+00 -0.99871023721E+01  0.54187321614E+02  0.55102390868E+02  0.51100000000E-03 0.  1.
         11    1    3    3    0    0  0.51521023928E+00  0.99871023721E+01  0.54314645346E+02  0.55227605006E+02  0.51100000000E-03 0. -1.
<mgrwt>
<rscale>  0 0.20000779E+02</rscale>
<asrwt>0</asrwt>
<pdfrwt beam="2">  1        3 0.14061767E-03 0.20000779E+02</pdfrwt>
<pdfrwt beam="1">  1       -3 0.16833220E-01 0.20000779E+02</pdfrwt>
<totfact> 0.13831751E+06</totfact>
</mgrwt>
</event>
<event>
 5    1  0.4133473E-007  0.2000036E+02  0.7818608E-02  0.1745321E+00
         -3   -1    0    0    0  501 -0.00000000000E+00  0.00000000000E+00  0.30938749201E+02  0.30938888977E+02  0.93000000000E-01 0.  1.
          3   -1    0    0  501    0  0.00000000000E+00 -0.00000000000E+00 -0.32314940587E+01  0.32328320172E+01  0.93000000000E-01 0. -1.
       1023    2    1    2    0    0  0.00000000000E+00  0.00000000000E+00  0.27707255142E+02  0.34171720994E+02  0.20000363201E+02 0.  0.
        -11    1    3    3    0    0  0.19485352911E+01 -0.98084233597E+01  0.13923515567E+02  0.17142527369E+02  0.51100000000E-03 0.  1.
         11    1    3    3    0    0 -0.19485352911E+01  0.98084233597E+01  0.13783739575E+02  0.17029193625E+02  0.51100000000E-03 0. -1.
<mgrwt>
<rscale>  0 0.20000363E+02</rscale>
<asrwt>0</asrwt>
<pdfrwt beam="2">  1        3 0.49726663E-03 0.20000363E+02</pdfrwt>
<pdfrwt beam="1">  1       -3 0.47599210E-02 0.20000363E+02</pdfrwt>
<totfact> 0.17029409E+06</totfact>
</mgrwt>
</event>
<event>
 5    1  0.4133473E-007  0.2000014E+02  0.7818608E-02  0.1745325E+00
          3   -1    0    0  501    0  0.00000000000E+00  0.00000000000E+00  0.33310431187E+01  0.33323411078E+01  0.93000000000E-01 0. -1.
         -3   -1    0    0    0  501 -0.00000000000E+00 -0.00000000000E+00 -0.30013818896E+02  0.30013962979E+02  0.93000000000E-01 0.  1.
       1023    2    1    2    0    0  0.00000000000E+00  0.00000000000E+00 -0.26682775777E+02  0.33346304087E+02  0.20000136827E+02 0.  0.
        -11    1    3    3    0    0 -0.51333451593E+01 -0.85819647778E+01 -0.13348065462E+02  0.16678495250E+02  0.51100000000E-03 0.  1.
         11    1    3    3    0    0  0.51333451593E+01  0.85819647778E+01 -0.13334710316E+02  0.16667808837E+02  0.51100000000E-03 0. -1.
<mgrwt>
<rscale>  0 0.20000137E+02</rscale>
<asrwt>0</asrwt>
<pdfrwt beam="1">  1        3 0.51257912E-03 0.20000137E+02</pdfrwt>
<pdfrwt beam="2">  1       -3 0.46176214E-02 0.20000137E+02</pdfrwt>
<totfact> 0.17076094E+06</totfact>
</mgrwt>
</event>
<event>
 4    1  0.4133473E-007  0.2002330E+02  0.7818608E-02  0.1744865E+00
          3   -1    0    0  501    0  0.00000000000E+00  0.00000000000E+00  0.93555506838E+02  0.93555553062E+02  0.93000000000E-01 0.  1.
         -3   -1    0    0    0  501 -0.00000000000E+00 -0.00000000000E+00 -0.10693108652E+01  0.10733474398E+01  0.93000000000E-01 0. -1.
        -11    1    1    2    0    0 -0.87381861251E+01  0.48714719295E+01  0.48048601299E+02  0.49079071126E+02  0.51100000000E-03 0.  1.
         11    1    1    2    0    0  0.87381861251E+01 -0.48714719295E+01  0.44437594673E+02  0.45549829375E+02  0.51100000000E-03 0. -1.
<mgrwt>
<rscale>  0 0.20023296E+02</rscale>
<asrwt>0</asrwt>
<pdfrwt beam="1">  1        3 0.14393470E-01 0.20023296E+02</pdfrwt>
<pdfrwt beam="2">  1       -3 0.16482341E-03 0.20023296E+02</pdfrwt>
<totfact> 0.14330906E+06</totfact>
</mgrwt>
</event>
<event>
 5    1  0.4133473E-007  0.2000039E+02  0.7818608E-02  0.1745320E+00
          3   -1    0    0  501    0  0.00000000000E+00  0.00000000000E+00  0.10497109502E+03  0.10497113621E+03  0.93000000000E-01 0.  1.
         -3   -1    0    0    0  501 -0.00000000000E+00 -0.00000000000E+00 -0.95036952519E+00  0.95490901892E+00  0.93000000000E-01 0. -1.
       1023    2    1    2    0    0  0.00000000000E+00  0.00000000000E+00  0.10402072549E+03  0.10592604523E+03  0.20000393167E+02 0.  0.
        -11    1    3    3    0    0  0.15725035149E+01  0.98757731645E+01  0.51923571472E+02  0.52877792480E+02  0.51100000000E-03 0.  1.
         11    1    3    3    0    0 -0.15725035149E+01 -0.98757731645E+01  0.52097154018E+02  0.53048252751E+02  0.51100000000E-03 0. -1.
<mgrwt>
<rscale>  0 0.20000393E+02</rscale>
<asrwt>0</asrwt>
<pdfrwt beam="1">  1        3 0.16149748E-01 0.20000393E+02</pdfrwt>
<pdfrwt beam="2">  1       -3 0.14656309E-03 0.20000393E+02</pdfrwt>
<totfact> 0.13975561E+06</totfact>
</mgrwt>
</event>
<event>
 5    1  0.4133473E-007  0.2000048E+02  0.7818608E-02  0.1745319E+00
         -3   -1    0    0    0  501 -0.00000000000E+00  0.00000000000E+00  0.30264092550E+01  0.30278378389E+01  0.93000000000E-01 0. -1.
          3   -1    0    0  501    0  0.00000000000E+00 -0.00000000000E+00 -0.33034739256E+02  0.33034870163E+02  0.93000000000E-01 0.  1.
       1023    2    1    2    0    0  0.00000000000E+00  0.00000000000E+00 -0.30008330001E+02  0.36062708002E+02  0.20000475969E+02 0.  0.
        -11    1    3    3    0    0  0.22717240586E+01  0.97386241098E+01 -0.14901693827E+02  0.17946086173E+02  0.51100000000E-03 0. -1.
         11    1    3    3    0    0 -0.22717240586E+01 -0.97386241098E+01 -0.15106636174E+02  0.18116621829E+02  0.51100000000E-03 0.  1.
<mgrwt>
<rscale>  0 0.20000476E+02</rscale>
<asrwt>0</asrwt>
<pdfrwt beam="2">  1        3 0.50823873E-02 0.20000476E+02</pdfrwt>
<pdfrwt beam="1">  1       -3 0.46572141E-03 0.20000476E+02</pdfrwt>
<totfact> 0.16922651E+06</totfact>
</mgrwt>
</event>
<event>
 4    1  0.4133473E-007  0.2012735E+02  0.7818608E-02  0.1742807E+00
          3   -1    0    0  501    0  0.00000000000E+00  0.00000000000E+00  0.33331515586E+02  0.33331645327E+02  0.93000000000E-01 0.  1.
         -3   -1    0    0    0  501 -0.00000000000E+00 -0.00000000000E+00 -0.30376444461E+01  0.30390677487E+01  0.93000000000E-01 0. -1.
        -11    1    1    2    0    0 -0.79005142688E+01 -0.62276076920E+01  0.14647751298E+02  0.17769576292E+02  0.51100000000E-03 0.  1.
         11    1    1    2    0    0  0.79005142688E+01  0.62276076920E+01  0.15646119842E+02  0.18601136784E+02  0.51100000000E-03 0. -1.
<mgrwt>
<rscale>  0 0.20127348E+02</rscale>
<asrwt>0</asrwt>
<pdfrwt beam="1">  1        3 0.51280449E-02 0.20127348E+02</pdfrwt>
<pdfrwt beam="2">  1       -3 0.46744938E-03 0.20127348E+02</pdfrwt>
<totfact> 0.16677366E+06</totfact>
</mgrwt>
</event>
<event>
 5    1  0.4133473E-007  0.2000727E+02  0.7818608E-02  0.1745183E+00
          3   -1    0    0  501    0  0.00000000000E+00  0.00000000000E+00  0.59132435697E+01  0.59139748490E+01  0.93000000000E-01 0.  1.
         -3   -1    0    0    0  501 -0.00000000000E+00 -0.00000000000E+00 -0.16921588166E+02  0.16921843725E+02  0.93000000000E-01 0. -1.
       1023    2    1    2    0    0  0.00000000000E+00  0.00000000000E+00 -0.11008344596E+02  0.22835818574E+02  0.20007272658E+02 0.  0.
        -11    1    3    3    0    0  0.58787598184E+01  0.80917891774E+01 -0.57203431250E+01  0.11522117636E+02  0.51100000000E-03 0. -1.
         11    1    3    3    0    0 -0.58787598184E+01 -0.80917891774E+01 -0.52880014712E+01  0.11313700938E+02  0.51100000000E-03 0.  1.
<mgrwt>
<rscale>  0 0.20007273E+02</rscale>
<asrwt>0</asrwt>
<pdfrwt beam="1">  1        3 0.90980569E-03 0.20007273E+02</pdfrwt>
<pdfrwt beam="2">  1       -3 0.26033972E-02 0.20007273E+02</pdfrwt>
<totfact> 0.17689193E+06</totfact>
</mgrwt>
</event>
<event>
 5    1  0.4372391E-007  0.2000178E+02  0.7818608E-02  0.1745293E+00
         -3   -1    0    0    0  501 -0.00000000000E+00  0.00000000000E+00  0.17476969356E+02  0.17477216794E+02  0.93000000000E-01 0.  1.
          3   -1    0    0  501    0  0.00000000000E+00 -0.00000000000E+00 -0.57221691983E+01  0.57229248932E+01  0.93000000000E-01 0. -1.
       1023    2    1    2    0    0  0.00000000000E+00  0.00000000000E+00  0.11754800158E+02  0.23200141687E+02  0.20001781110E+02 0.  0.
        -11    1    3    3    0    0  0.37562413435E+01 -0.92686261580E+01  0.59146570707E+01  0.11618947819E+02  0.51100000000E-03 0. -1.
         11    1    3    3    0    0 -0.37562413435E+01  0.92686261580E+01  0.58401430869E+01  0.11581193869E+02  0.51100000000E-03 0.  1.
<mgrwt>
<rscale>  0 0.20001781E+02</rscale>
<asrwt>0</asrwt>
<pdfrwt beam="2">  1        3 0.88041091E-03 0.20001781E+02</pdfrwt>
<pdfrwt beam="1">  1       -3 0.26888416E-02 0.20001781E+02</pdfrwt>
<totfact> 0.17676651E+06</totfact>
</mgrwt>
</event>
<event>
 5    1  0.4278110E-007  0.2000113E+02  0.7818608E-02  0.1745306E+00
          3   -1    0    0  501    0  0.00000000000E+00  0.00000000000E+00  0.32138719030E+02  0.32138853587E+02  0.93000000000E-01 0.  1.
         -3   -1    0    0    0  501 -0.00000000000E+00 -0.00000000000E+00 -0.31110259706E+01  0.31124157161E+01  0.93000000000E-01 0. -1.
       1023    2    1    2    0    0  0.00000000000E+00  0.00000000000E+00  0.29027693059E+02  0.35251269303E+02  0.20001125547E+02 0.  0.
        -11    1    3    3    0    0 -0.73396902806E+01  0.67920598664E+01  0.14354981341E+02  0.17494816953E+02  0.51100000000E-03 0. -1.
         11    1    3    3    0    0  0.73396902806E+01 -0.67920598664E+01  0.14672711718E+02  0.17756452350E+02  0.51100000000E-03 0.  1.
<mgrwt>
<rscale>  0 0.20001126E+02</rscale>
<asrwt>0</asrwt>
<pdfrwt beam="1">  1        3 0.49445360E-02 0.20001126E+02</pdfrwt>
<pdfrwt beam="2">  1       -3 0.47873659E-03 0.20001126E+02</pdfrwt>
<totfact> 0.16966098E+06</totfact>
</mgrwt>
</event>
<event>
 5    1  0.4133473E-007  0.2000023E+02  0.7818608E-02  0.1745324E+00
         -3   -1    0    0    0  501 -0.00000000000E+00  0.00000000000E+00  0.65432431942E+02  0.65432498033E+02  0.93000000000E-01 0.  1.
          3   -1    0    0  501    0  0.00000000000E+00 -0.00000000000E+00 -0.15268469648E+01  0.15296766501E+01  0.93000000000E-01 0. -1.
       1023    2    1    2    0    0  0.00000000000E+00  0.00000000000E+00  0.63905584977E+02  0.66962174683E+02  0.20000226174E+02 0.  0.
        -11    1    3    3    0    0 -0.39734467996E+01 -0.91767484337E+01  0.32072117782E+02  0.33594965852E+02  0.51100000000E-03 0.  1.
         11    1    3    3    0    0  0.39734467996E+01  0.91767484337E+01  0.31833467195E+02  0.33367208832E+02  0.51100000000E-03 0. -1.
<mgrwt>
<rscale>  0 0.20000226E+02</rscale>
<asrwt>0</asrwt>
<pdfrwt beam="2">  1        3 0.23512233E-03 0.20000226E+02</pdfrwt>
<pdfrwt beam="1">  1       -3 0.10066749E-01 0.20000226E+02</pdfrwt>
<totfact> 0.15443085E+06</totfact>
</mgrwt>
</event>
<event>
 5    1  0.4133473E-007  0.2000160E+02  0.7818608E-02  0.1745296E+00
         -3   -1    0    0    0  501 -0.00000000000E+00  0.00000000000E+00  0.51038794590E+02  0.51038879319E+02  0.93000000000E-01 0. -1.
          3   -1    0    0  501    0  0.00000000000E+00 -0.00000000000E+00 -0.19584182646E+01  0.19606251807E+01  0.93000000000E-01 0.  1.
       1023    2    1    2    0    0  0.00000000000E+00  0.00000000000E+00  0.49080376325E+02  0.52999504500E+02  0.20001603361E+02 0.  0.
        -11    1    3    3    0    0 -0.25386256965E+00  0.99975649901E+01  0.24495686350E+02  0.26458541191E+02  0.51100000000E-03 0. -1.
         11    1    3    3    0    0  0.25386256965E+00 -0.99975649901E+01  0.24584689975E+02  0.26540963309E+02  0.51100000000E-03 0.  1.
<mgrwt>
<rscale>  0 0.20001603E+02</rscale>
<asrwt>0</asrwt>
<pdfrwt beam="2">  1        3 0.30147139E-03 0.20001603E+02</pdfrwt>
<pdfrwt beam="1">  1       -3 0.78522987E-02 0.20001603E+02</pdfrwt>
<totfact> 0.16064068E+06</totfact>
</mgrwt>
</event>
<event>
 5    1  0.4133473E-007  0.2001068E+02  0.7818608E-02  0.1745116E+00
          3   -1    0    0  501    0  0.00000000000E+00  0.00000000000E+00  0.93735009619E+02  0.93735055754E+02  0.93000000000E-01 0. -1.
         -3   -1    0    0    0  501 -0.00000000000E+00 -0.00000000000E+00 -0.10659056099E+01  0.10699550314E+01  0.93000000000E-01 0.  1.
       1023    2    1    2    0    0  0.00000000000E+00  0.00000000000E+00  0.92669104009E+02  0.94805010785E+02  0.20010677956E+02 0.  0.
        -11    1    3    3    0    0  0.57088566825E+01  0.82155060335E+01  0.45644342396E+02  0.46727845842E+02  0.51100000000E-03 0.  1.
         11    1    3    3    0    0 -0.57088566825E+01 -0.82155060335E+01  0.47024761612E+02  0.48077164943E+02  0.51100000000E-03 0. -1.
<mgrwt>
<rscale>  0 0.20010678E+02</rscale>
<asrwt>0</asrwt>
<pdfrwt beam="1">  1        3 0.14421083E-01 0.20010678E+02</pdfrwt>
<pdfrwt beam="2">  1       -3 0.16430056E-03 0.20010678E+02</pdfrwt>
<totfact> 0.14344044E+06</totfact>
</mgrwt>
</event>
<event>
 5    1  0.4133473E-007  0.2000294E+02  0.7818608E-02  0.1745270E+00
         -3   -1    0    0    0  501 -0.00000000000E+00  0.00000000000E+00  0.63471380579E+02  0.63471448712E+02  0.93000000000E-01 0.  1.
          3   -1    0    0  501    0  0.00000000000E+00 -0.00000000000E+00 -0.15745359339E+01  0.15772800661E+01  0.93000000000E-01 0. -1.
       1023    2    1    2    0    0  0.00000000000E+00  0.00000000000E+00  0.61896844645E+02  0.65048728779E+02  0.20002943249E+02 0.  0.
        -11    1    3    3    0    0  0.99942149463E+01 -0.34791172311E+00  0.30444007714E+02  0.32044390787E+02  0.51100000000E-03 0. -1.
         11    1    3    3    0    0 -0.99942149463E+01  0.34791172311E+00  0.31452836931E+02  0.33004337991E+02  0.51100000000E-03 0.  1.
<mgrwt>
<rscale>  0 0.20002943E+02</rscale>
<asrwt>0</asrwt>
<pdfrwt beam="2">  1        3 0.24245265E-03 0.20002943E+02</pdfrwt>
<pdfrwt beam="1">  1       -3 0.97650430E-02 0.20002943E+02</pdfrwt>
<totfact> 0.15520289E+06</totfact>
</mgrwt>
</event>
<event>
 5    1  0.4133473E-007  0.2000034E+02  0.7818608E-02  0.1745321E+00
          3   -1    0    0  501    0  0.00000000000E+00  0.00000000000E+00  0.10965330778E+02  0.10965725150E+02  0.93000000000E-01 0. -1.
         -3   -1    0    0    0  501 -0.00000000000E+00 -0.00000000000E+00 -0.91191658527E+01  0.91196400614E+01  0.93000000000E-01 0.  1.
       1023    2    1    2    0    0  0.00000000000E+00  0.00000000000E+00  0.18461649252E+01  0.20085365211E+02  0.20000339266E+02 0.  0.
        -11    1    3    3    0    0  0.96288202102E+01 -0.26997676817E+01  0.94481352480E+00  0.10044680036E+02  0.51100000000E-03 0. -1.
         11    1    3    3    0    0 -0.96288202102E+01  0.26997676817E+01  0.90135140039E+00  0.10040685175E+02  0.51100000000E-03 0.  1.
<mgrwt>
<rscale>  0 0.20000339E+02</rscale>
<asrwt>0</asrwt>
<pdfrwt beam="1">  1        3 0.16870408E-02 0.20000339E+02</pdfrwt>
<pdfrwt beam="2">  1       -3 0.14030154E-02 0.20000339E+02</pdfrwt>
<totfact> 0.17879343E+06</totfact>
</mgrwt>
</event>
<event>
 4    1  0.4133473E-007  0.2001650E+02  0.7818608E-02  0.1745000E+00
         -3   -1    0    0    0  501 -0.00000000000E+00  0.00000000000E+00  0.24252656817E+02  0.24252835127E+02  0.93000000000E-01 0.  1.
          3   -1    0    0  501    0  0.00000000000E+00 -0.00000000000E+00 -0.41293497830E+01  0.41303969095E+01  0.93000000000E-01 0. -1.
        -11    1    1    2    0    0  0.89612096737E+01 -0.44526822986E+01  0.97947282114E+01  0.14002369780E+02  0.51100000000E-03 0. -1.
         11    1    1    2    0    0 -0.89612096737E+01  0.44526822986E+01  0.10328578823E+02  0.14380862256E+02  0.51100000000E-03 0.  1.
<mgrwt>
<rscale>  0 0.20016503E+02</rscale>
<asrwt>0</asrwt>
<pdfrwt beam="2">  1        3 0.63537885E-03 0.20016503E+02</pdfrwt>
<pdfrwt beam="1">  1       -3 0.37312722E-02 0.20016503E+02</pdfrwt>
<totfact> 0.17332366E+06</totfact>
</mgrwt>
</event>
<event>
 5    1  0.4365182E-007  0.2000120E+02  0.7818608E-02  0.1745304E+00
          3   -1    0    0  501    0  0.00000000000E+00  0.00000000000E+00  0.15098319892E+02  0.15098606312E+02  0.93000000000E-01 0. -1.
         -3   -1    0    0    0  501 -0.00000000000E+00 -0.00000000000E+00 -0.66233714067E+01  0.66240242897E+01  0.93000000000E-01 0.  1.
       1023    2    1    2    0    0  0.00000000000E+00  0.00000000000E+00  0.84749484854E+01  0.21722630602E+02  0.20001198175E+02 0.  0.
        -11    1    3    3    0    0  0.93195214047E+01 -0.36270378066E+01  0.41770106472E+01  0.10837725807E+02  0.51100000000E-03 0. -1.
         11    1    3    3    0    0 -0.93195214047E+01  0.36270378066E+01  0.42979378382E+01  0.10884904795E+02  0.51100000000E-03 0.  1.
<mgrwt>
<rscale>  0 0.20001198E+02</rscale>
<asrwt>0</asrwt>
<pdfrwt beam="1">  1        3 0.23228907E-02 0.20001198E+02</pdfrwt>
<pdfrwt beam="2">  1       -3 0.10190525E-02 0.20001198E+02</pdfrwt>
<totfact> 0.17770969E+06</totfact>
</mgrwt>
</event>
<event>
 5    1  0.4133473E-007  0.2000088E+02  0.7818608E-02  0.1745311E+00
          3   -1    0    0  501    0  0.00000000000E+00  0.00000000000E+00  0.42481643371E+02  0.42481745167E+02  0.93000000000E-01 0.  1.
         -3   -1    0    0    0  501 -0.00000000000E+00 -0.00000000000E+00 -0.23531409190E+01  0.23549779584E+01  0.93000000000E-01 0. -1.
       1023    2    1    2    0    0  0.00000000000E+00  0.00000000000E+00  0.40128502452E+02  0.44836723126E+02  0.20000875772E+02 0.  0.
        -11    1    3    3    0    0  0.22540463028E+01 -0.97429702860E+01  0.20177739867E+02  0.22519932973E+02  0.51100000000E-03 0. -1.
         11    1    3    3    0    0 -0.22540463028E+01  0.97429702860E+01  0.19950762585E+02  0.22316790153E+02  0.51100000000E-03 0.  1.
<mgrwt>
<rscale>  0 0.20000876E+02</rscale>
<asrwt>0</asrwt>
<pdfrwt beam="1">  1        3 0.65357866E-02 0.20000876E+02</pdfrwt>
<pdfrwt beam="2">  1       -3 0.36217082E-03 0.20000876E+02</pdfrwt>
<totfact> 0.16460624E+06</totfact>
</mgrwt>
</event>
<event>
 5    1  0.4133473E-007  0.2000720E+02  0.7818608E-02  0.1745185E+00
         -3   -1    0    0    0  501 -0.00000000000E+00  0.00000000000E+00  0.81909197951E+02  0.81909250747E+02  0.93000000000E-01 0. -1.
          3   -1    0    0  501    0  0.00000000000E+00 -0.00000000000E+00 -0.12199201683E+01  0.12234599368E+01  0.93000000000E-01 0.  1.
       1023    2    1    2    0    0  0.00000000000E+00  0.00000000000E+00  0.80689277783E+02  0.83132710684E+02  0.20007199619E+02 0.  0.
        -11    1    3    3    0    0  0.68652825168E+01  0.72759461822E+01  0.40438659121E+02  0.41657612134E+02  0.51100000000E-03 0. -1.
         11    1    3    3    0    0 -0.68652825168E+01 -0.72759461822E+01  0.40250618661E+02  0.41475098550E+02  0.51100000000E-03 0.  1.
<mgrwt>
<rscale>  0 0.20007200E+02</rscale>
<asrwt>0</asrwt>
<pdfrwt beam="2">  1        3 0.18795631E-03 0.20007200E+02</pdfrwt>
<pdfrwt beam="1">  1       -3 0.12601696E-01 0.20007200E+02</pdfrwt>
<totfact> 0.14782329E+06</totfact>
</mgrwt>
</event>
<event>
 5    1  0.4133473E-007  0.2000031E+02  0.7818608E-02  0.1745322E+00
         -3   -1    0    0    0  501 -0.00000000000E+00  0.00000000000E+00  0.14290648067E+02  0.14290950675E+02  0.93000000000E-01 0.  1.
          3   -1    0    0  501    0  0.00000000000E+00 -0.00000000000E+00 -0.69971146432E+01  0.69977326563E+01  0.93000000000E-01 0. -1.
       1023    2    1    2    0    0  0.00000000000E+00  0.00000000000E+00  0.72935334241E+01  0.21288683331E+02  0.20000310201E+02 0.  0.
        -11    1    3    3    0    0  0.77960720183E+01  0.62628610685E+01  0.36142348811E+01  0.10633196214E+02  0.51100000000E-03 0.  1.
         11    1    3    3    0    0 -0.77960720183E+01 -0.62628610685E+01  0.36792985430E+01  0.10655487117E+02  0.51100000000E-03 0. -1.
<mgrwt>
<rscale>  0 0.20000310E+02</rscale>
<asrwt>0</asrwt>
<pdfrwt beam="2">  1        3 0.10765500E-02 0.20000310E+02</pdfrwt>
<pdfrwt beam="1">  1       -3 0.21986321E-02 0.20000310E+02</pdfrwt>
<totfact> 0.17801337E+06</totfact>
</mgrwt>
</event>
<event>
 5    1  0.4133473E-007  0.2000104E+02  0.7818608E-02  0.1745307E+00
         -3   -1    0    0    0  501 -0.00000000000E+00  0.00000000000E+00  0.73173819718E+02  0.73173878817E+02  0.93000000000E-01 0.  1.
          3   -1    0    0  501    0  0.00000000000E+00 -0.00000000000E+00 -0.13651096542E+01  0.13682738644E+01  0.93000000000E-01 0. -1.
       1023    2    1    2    0    0  0.00000000000E+00  0.00000000000E+00  0.71808710064E+02  0.74542152682E+02  0.20001042106E+02 0.  0.
        -11    1    3    3    0    0 -0.94985330968E+01 -0.31272041847E+01  0.35553073551E+02  0.36932676267E+02  0.51100000000E-03 0.  1.
         11    1    3    3    0    0  0.94985330968E+01  0.31272041847E+01  0.36255636513E+02  0.37609476415E+02  0.51100000000E-03 0. -1.
<mgrwt>
<rscale>  0 0.20001042E+02</rscale>
<asrwt>0</asrwt>
<pdfrwt beam="2">  1        3 0.21026479E-03 0.20001042E+02</pdfrwt>
<pdfrwt beam="1">  1       -3 0.11257760E-01 0.20001042E+02</pdfrwt>
<totfact> 0.15128516E+06</totfact>
</mgrwt>
</event>
<event>
 5    1  0.4134649E-007  0.2000222E+02  0.7818608E-02  0.1745284E+00
          3   -1    0    0  501    0  0.00000000000E+00  0.00000000000E+00  0.44223155471E+02  0.44223253259E+02  0.93000000000E-01 0.  1.
         -3   -1    0    0    0  501 -0.00000000000E+00 -0.00000000000E+00 -0.22607045343E+01  0.22626166249E+01  0.93000000000E-01 0. -1.
       1023    2    1    2    0    0  0.00000000000E+00  0.00000000000E+00  0.41962450937E+02  0.46485869884E+02  0.20002220133E+02 0.  0.
        -11    1    3    3    0    0  0.99737012052E+01 -0.73929668492E+00  0.20910467027E+02  0.23179061820E+02  0.51100000000E-03 0.  1.
         11    1    3    3    0    0 -0.99737012052E+01  0.73929668492E+00  0.21051983910E+02  0.23306808064E+02  0.51100000000E-03 0. -1.
<mgrwt>
<rscale>  0 0.20002220E+02</rscale>
<asrwt>0</asrwt>
<pdfrwt beam="1">  1        3 0.68037168E-02 0.20002220E+02</pdfrwt>
<pdfrwt beam="2">  1       -3 0.34795532E-03 0.20002220E+02</pdfrwt>
<totfact> 0.16375553E+06</totfact>
</mgrwt>
</event>
<event>
 5    1  0.4133473E-007  0.2000146E+02  0.7818608E-02  0.1745299E+00
         -3   -1    0    0    0  501 -0.00000000000E+00  0.00000000000E+00  0.78895902418E+02  0.78895957231E+02  0.93000000000E-01 0. -1.
          3   -1    0    0  501    0  0.00000000000E+00 -0.00000000000E+00 -0.12659164830E+01  0.12693279883E+01  0.93000000000E-01 0.  1.
       1023    2    1    2    0    0  0.00000000000E+00  0.00000000000E+00  0.77629985935E+02  0.80165285219E+02  0.20001455897E+02 0.  0.
        -11    1    3    3    0    0 -0.69674659478E+01  0.71739372818E+01  0.39055517295E+02  0.40315560138E+02  0.51100000000E-03 0. -1.
         11    1    3    3    0    0  0.69674659478E+01 -0.71739372818E+01  0.38574468641E+02  0.39849725081E+02  0.51100000000E-03 0.  1.
<mgrwt>
<rscale>  0 0.20001456E+02</rscale>
<asrwt>0</asrwt>
<pdfrwt beam="2">  1        3 0.19502298E-03 0.20001456E+02</pdfrwt>
<pdfrwt beam="1">  1       -3 0.12138100E-01 0.20001456E+02</pdfrwt>
<totfact> 0.14905577E+06</totfact>
</mgrwt>
</event>
<event>
 5    1  0.4290274E-007  0.2000067E+02  0.7818608E-02  0.1745315E+00
         -3   -1    0    0    0  501 -0.00000000000E+00  0.00000000000E+00  0.16437371475E+02  0.16437634563E+02  0.93000000000E-01 0. -1.
          3   -1    0    0  501    0  0.00000000000E+00 -0.00000000000E+00 -0.60834366220E+01  0.60841474451E+01  0.93000000000E-01 0.  1.
       1023    2    1    2    0    0  0.00000000000E+00  0.00000000000E+00  0.10353934853E+02  0.22521782008E+02  0.20000667435E+02 0.  0.
        -11    1    3    3    0    0  0.35640440317E+01 -0.93435006840E+01  0.52412541467E+01  0.11290445526E+02  0.51100000000E-03 0.  1.
         11    1    3    3    0    0 -0.35640440317E+01  0.93435006840E+01  0.51126807065E+01  0.11231336481E+02  0.51100000000E-03 0. -1.
<mgrwt>
<rscale>  0 0.20000667E+02</rscale>
<asrwt>0</asrwt>
<pdfrwt beam="2">  1        3 0.93598824E-03 0.20000667E+02</pdfrwt>
<pdfrwt beam="1">  1       -3 0.25289013E-02 0.20000667E+02</pdfrwt>
<totfact> 0.17721705E+06</totfact>
</mgrwt>
</event>
<event>
 5    1  0.4133473E-007  0.2000233E+02  0.7818608E-02  0.1745282E+00
         -3   -1    0    0    0  501 -0.00000000000E+00  0.00000000000E+00  0.38580721905E+02  0.38580833995E+02  0.93000000000E-01 0. -1.
          3   -1    0    0  501    0  0.00000000000E+00 -0.00000000000E+00 -0.25916217398E+01  0.25932898493E+01  0.93000000000E-01 0.  1.
       1023    2    1    2    0    0  0.00000000000E+00  0.00000000000E+00  0.35989100166E+02  0.41174123844E+02  0.20002328455E+02 0.  0.
        -11    1    3    3    0    0 -0.55024213020E+01  0.83511282558E+01  0.17844658781E+02  0.20456046309E+02  0.51100000000E-03 0. -1.
         11    1    3    3    0    0  0.55024213020E+01 -0.83511282558E+01  0.18144441385E+02  0.20718077535E+02  0.51100000000E-03 0.  1.
<mgrwt>
<rscale>  0 0.20002328E+02</rscale>
<asrwt>0</asrwt>
<pdfrwt beam="2">  1        3 0.39884798E-03 0.20002328E+02</pdfrwt>
<pdfrwt beam="1">  1       -3 0.59356325E-02 0.20002328E+02</pdfrwt>
<totfact> 0.16648364E+06</totfact>
</mgrwt>
</event>
<event>
 4    1  0.4133473E-007  0.2001549E+02  0.7818608E-02  0.1745020E+00
         -3   -1    0    0    0  501 -0.00000000000E+00  0.00000000000E+00  0.78481655585E+01  0.78487165596E+01  0.93000000000E-01 0. -1.
          3   -1    0    0  501    0  0.00000000000E+00 -0.00000000000E+00 -0.12760409742E+02  0.12760748637E+02  0.93000000000E-01 0.  1.
        -11    1    1    2    0    0  0.96111868541E+01  0.27891252397E+01 -0.24261801493E+01  0.10297595968E+02  0.51100000000E-03 0.  1.
         11    1    1    2    0    0 -0.96111868541E+01 -0.27891252397E+01 -0.24860640344E+01  0.10311869229E+02  0.51100000000E-03 0. -1.
<mgrwt>
<rscale>  0 0.20015492E+02</rscale>
<asrwt>0</asrwt>
<pdfrwt beam="2">  1        3 0.19632084E-02 0.20015492E+02</pdfrwt>
<pdfrwt beam="1">  1       -3 0.12074785E-02 0.20015492E+02</pdfrwt>
<totfact> 0.17815832E+06</totfact>
</mgrwt>
</event>
<event>
 5    1  0.4280038E-007  0.2000086E+02  0.7818608E-02  0.1745311E+00
         -3   -1    0    0    0  501 -0.00000000000E+00  0.00000000000E+00  0.26095882106E+02  0.26096047821E+02  0.93000000000E-01 0.  1.
          3   -1    0    0  501    0  0.00000000000E+00 -0.00000000000E+00 -0.38316079785E+01  0.38327364508E+01  0.93000000000E-01 0. -1.
       1023    2    1    2    0    0  0.00000000000E+00  0.00000000000E+00  0.22264274127E+02  0.29928784272E+02  0.20000855621E+02 0.  0.
        -11    1    3    3    0    0  0.33703110443E+01  0.94152369054E+01  0.11212351863E+02  0.15024064599E+02  0.51100000000E-03 0. -1.
         11    1    3    3    0    0 -0.33703110443E+01 -0.94152369054E+01  0.11051922264E+02  0.14904719672E+02  0.51100000000E-03 0.  1.
<mgrwt>
<rscale>  0 0.20000856E+02</rscale>
<asrwt>0</asrwt>
<pdfrwt beam="2">  1        3 0.58957769E-03 0.20000856E+02</pdfrwt>
<pdfrwt beam="1">  1       -3 0.40148508E-02 0.20000856E+02</pdfrwt>
<totfact> 0.17270633E+06</totfact>
</mgrwt>
</event>
<event>
 5    1  0.4133473E-007  0.2000661E+02  0.7818608E-02  0.1745197E+00
          3   -1    0    0  501    0  0.00000000000E+00  0.00000000000E+00  0.13322185387E+01  0.13354606826E+01  0.93000000000E-01 0.  1.
         -3   -1    0    0    0  501 -0.00000000000E+00 -0.00000000000E+00 -0.75017850351E+02  0.75017907997E+02  0.93000000000E-01 0. -1.
       1023    2    1    2    0    0  0.00000000000E+00  0.00000000000E+00 -0.73685631812E+02  0.76353368680E+02  0.20006613236E+02 0.  0.
        -11    1    3    3    0    0 -0.80020118209E+01  0.60028132503E+01 -0.36894434409E+02  0.38226499326E+02  0.51100000000E-03 0.  1.
         11    1    3    3    0    0  0.80020118209E+01 -0.60028132503E+01 -0.36791197403E+02  0.38126869353E+02  0.51100000000E-03 0. -1.
<mgrwt>
<rscale>  0 0.20006613E+02</rscale>
<asrwt>0</asrwt>
<pdfrwt beam="1">  1        3 0.20521059E-03 0.20006613E+02</pdfrwt>
<pdfrwt beam="2">  1       -3 0.11541458E-01 0.20006613E+02</pdfrwt>
<totfact> 0.15047033E+06</totfact>
</mgrwt>
</event>
<event>
 5    1  0.4133473E-007  0.2000036E+02  0.7818608E-02  0.1745321E+00
         -3   -1    0    0    0  501 -0.00000000000E+00  0.00000000000E+00  0.31234478225E+02  0.31234616677E+02  0.93000000000E-01 0. -1.
          3   -1    0    0  501    0  0.00000000000E+00 -0.00000000000E+00 -0.32008830766E+01  0.32022338250E+01  0.93000000000E-01 0.  1.
       1023    2    1    2    0    0  0.00000000000E+00  0.00000000000E+00  0.28033595148E+02  0.34436850502E+02  0.20000355386E+02 0.  0.
        -11    1    3    3    0    0  0.94405522381E+01  0.32984088296E+01  0.14025622251E+02  0.17225609051E+02  0.51100000000E-03 0.  1.
         11    1    3    3    0    0 -0.94405522381E+01 -0.32984088296E+01  0.14007972897E+02  0.17211241452E+02  0.51100000000E-03 0. -1.
<mgrwt>
<rscale>  0 0.20000355E+02</rscale>
<asrwt>0</asrwt>
<pdfrwt beam="2">  1        3 0.49255810E-03 0.20000355E+02</pdfrwt>
<pdfrwt beam="1">  1       -3 0.48054189E-02 0.20000355E+02</pdfrwt>
<totfact> 0.17014647E+06</totfact>
</mgrwt>
</event>
<event>
 5    1  0.4133473E-007  0.2000049E+02  0.7818608E-02  0.1745318E+00
         -3   -1    0    0    0  501 -0.00000000000E+00  0.00000000000E+00  0.91873717126E+00  0.92343217935E+00  0.93000000000E-01 0.  1.
          3   -1    0    0  501    0  0.00000000000E+00 -0.00000000000E+00 -0.10856826384E+03  0.10856830367E+03  0.93000000000E-01 0. -1.
       1023    2    1    2    0    0  0.00000000000E+00  0.00000000000E+00 -0.10764952666E+03  0.10949173585E+03  0.20000490687E+02 0.  0.
        -11    1    3    3    0    0  0.16505769031E+01 -0.98630382085E+01 -0.53653398323E+02  0.54577386147E+02  0.51100000000E-03 0. -1.
         11    1    3    3    0    0 -0.16505769031E+01  0.98630382085E+01 -0.53996128341E+02  0.54914349700E+02  0.51100000000E-03 0.  1.
<mgrwt>
<rscale>  0 0.20000491E+02</rscale>
<asrwt>0</asrwt>
<pdfrwt beam="2">  1        3 0.16703164E-01 0.20000491E+02</pdfrwt>
<pdfrwt beam="1">  1       -3 0.14170848E-03 0.20000491E+02</pdfrwt>
<totfact> 0.13856967E+06</totfact>
</mgrwt>
</event>
<event>
 5    1  0.4133473E-007  0.2000017E+02  0.7818608E-02  0.1745325E+00
         -3   -1    0    0    0  501 -0.00000000000E+00  0.00000000000E+00  0.10737024374E+02  0.10737427131E+02  0.93000000000E-01 0.  1.
          3   -1    0    0  501    0  0.00000000000E+00 -0.00000000000E+00 -0.93129184702E+01  0.93133828136E+01  0.93000000000E-01 0. -1.
       1023    2    1    2    0    0  0.00000000000E+00  0.00000000000E+00  0.14241059036E+01  0.20050809945E+02  0.20000172545E+02 0.  0.
        -11    1    3    3    0    0 -0.31806115351E+01 -0.94807788353E+01  0.72846922776E+00  0.10026570936E+02  0.51100000000E-03 0.  1.
         11    1    3    3    0    0  0.31806115351E+01  0.94807788353E+01  0.69563667580E+00  0.10024239009E+02  0.51100000000E-03 0. -1.
<mgrwt>
<rscale>  0 0.20000173E+02</rscale>
<asrwt>0</asrwt>
<pdfrwt beam="2">  1        3 0.14328234E-02 0.20000173E+02</pdfrwt>
<pdfrwt beam="1">  1       -3 0.16519166E-02 0.20000173E+02</pdfrwt>
<totfact> 0.17882056E+06</totfact>
</mgrwt>
</event>
<event>
 5    1  0.4133473E-007  0.2000006E+02  0.7818608E-02  0.1745327E+00
         -3   -1    0    0    0  501 -0.00000000000E+00  0.00000000000E+00  0.14892667557E+01  0.14921677082E+01  0.93000000000E-01 0. -1.
          3   -1    0    0  501    0  0.00000000000E+00 -0.00000000000E+00 -0.67079284536E+02  0.67079349004E+02  0.93000000000E-01 0.  1.
       1023    2    1    2    0    0  0.00000000000E+00  0.00000000000E+00 -0.65590017780E+02  0.68571516712E+02  0.20000061796E+02 0.  0.
        -11    1    3    3    0    0 -0.47127969033E+01 -0.88198701703E+01 -0.32820023078E+02  0.34309684924E+02  0.51100000000E-03 0.  1.
         11    1    3    3    0    0  0.47127969033E+01  0.88198701703E+01 -0.32769994702E+02  0.34261831789E+02  0.51100000000E-03 0. -1.
<mgrwt>
<rscale>  0 0.20000062E+02</rscale>
<asrwt>0</asrwt>
<pdfrwt beam="2">  1        3 0.10320116E-01 0.20000062E+02</pdfrwt>
<pdfrwt beam="1">  1       -3 0.22934612E-03 0.20000062E+02</pdfrwt>
<totfact> 0.15372603E+06</totfact>
</mgrwt>
</event>
<event>
 5    1  0.4133473E-007  0.2000040E+02  0.7818608E-02  0.1745320E+00
          3   -1    0    0  501    0  0.00000000000E+00  0.00000000000E+00  0.62524082951E+01  0.62530999104E+01  0.93000000000E-01 0.  1.
         -3   -1    0    0    0  501 -0.00000000000E+00 -0.00000000000E+00 -0.15992770148E+02  0.15993040549E+02  0.93000000000E-01 0. -1.
       1023    2    1    2    0    0  0.00000000000E+00  0.00000000000E+00 -0.97403618524E+01  0.22246140459E+02  0.20000402904E+02 0.  0.
        -11    1    3    3    0    0  0.97996540634E+01  0.19925890263E+01 -0.48923716334E+01  0.11132786320E+02  0.51100000000E-03 0.  1.
         11    1    3    3    0    0 -0.97996540634E+01 -0.19925890263E+01 -0.48479902190E+01  0.11113354139E+02  0.51100000000E-03 0. -1.
<mgrwt>
<rscale>  0 0.20000403E+02</rscale>
<asrwt>0</asrwt>
<pdfrwt beam="1">  1        3 0.96198297E-03 0.20000403E+02</pdfrwt>
<pdfrwt beam="2">  1       -3 0.24605002E-02 0.20000403E+02</pdfrwt>
<totfact> 0.17739763E+06</totfact>
</mgrwt>
</event>
<event>
 5    1  0.4133473E-007  0.2000189E+02  0.7818608E-02  0.1745290E+00
         -3   -1    0    0    0  501 -0.00000000000E+00  0.00000000000E+00  0.37727645017E+01  0.37739105693E+01  0.93000000000E-01 0. -1.
          3   -1    0    0  501    0  0.00000000000E+00 -0.00000000000E+00 -0.26505527929E+02  0.26505691083E+02  0.93000000000E-01 0.  1.
       1023    2    1    2    0    0  0.00000000000E+00  0.00000000000E+00 -0.22732763427E+02  0.30279601653E+02  0.20001893490E+02 0.  0.
        -11    1    3    3    0    0 -0.47016765991E+00 -0.99898550237E+01 -0.11405698161E+02  0.15169318107E+02  0.51100000000E-03 0. -1.
         11    1    3    3    0    0  0.47016765991E+00  0.99898550237E+01 -0.11327065267E+02  0.15110283546E+02  0.51100000000E-03 0.  1.
<mgrwt>
<rscale>  0 0.20001893E+02</rscale>
<asrwt>0</asrwt>
<pdfrwt beam="2">  1        3 0.40778741E-02 0.20001893E+02</pdfrwt>
<pdfrwt beam="1">  1       -3 0.58052603E-03 0.20001893E+02</pdfrwt>
<totfact> 0.17246593E+06</totfact>
</mgrwt>
</event>
<event>
 5    1  0.4133473E-007  0.2000810E+02  0.7818608E-02  0.1745167E+00
         -3   -1    0    0    0  501 -0.00000000000E+00  0.00000000000E+00  0.26560403621E+01  0.26576680389E+01  0.93000000000E-01 0. -1.
          3   -1    0    0  501    0  0.00000000000E+00 -0.00000000000E+00 -0.37667294434E+02  0.37667409241E+02  0.93000000000E-01 0.  1.
       1023    2    1    2    0    0  0.00000000000E+00  0.00000000000E+00 -0.35011254072E+02  0.40325077280E+02  0.20008097011E+02 0.  0.
        -11    1    3    3    0    0 -0.94369409762E+01 -0.33164259853E+01 -0.17833406487E+02  0.20447125067E+02  0.51100000000E-03 0.  1.
         11    1    3    3    0    0  0.94369409762E+01  0.33164259853E+01 -0.17177847584E+02  0.19877952213E+02  0.51100000000E-03 0. -1.
<mgrwt>
<rscale>  0 0.20008097E+02</rscale>
<asrwt>0</asrwt>
<pdfrwt beam="2">  1        3 0.57951020E-02 0.20008097E+02</pdfrwt>
<pdfrwt beam="1">  1       -3 0.40875566E-03 0.20008097E+02</pdfrwt>
<totfact> 0.16680184E+06</totfact>
</mgrwt>
</event>
<event>
 5    1  0.4133473E-007  0.2000043E+02  0.7818608E-02  0.1745319E+00
         -3   -1    0    0    0  501 -0.00000000000E+00  0.00000000000E+00  0.10264123531E+02  0.10264544844E+02  0.93000000000E-01 0.  1.
          3   -1    0    0  501    0  0.00000000000E+00 -0.00000000000E+00 -0.97422531558E+01  0.97426970369E+01  0.93000000000E-01 0. -1.
       1023    2    1    2    0    0  0.00000000000E+00  0.00000000000E+00  0.52187037511E+00  0.20007241881E+02  0.20000434470E+02 0.  0.
        -11    1    3    3    0    0 -0.71766462873E+01  0.69641880719E+01  0.27424591915E+00  0.10003968139E+02  0.51100000000E-03 0.  1.
         11    1    3    3    0    0  0.71766462873E+01 -0.69641880719E+01  0.24762445596E+00  0.10003273742E+02  0.51100000000E-03 0. -1.
<mgrwt>
<rscale>  0 0.20000434E+02</rscale>
<asrwt>0</asrwt>
<pdfrwt beam="2">  1        3 0.14988747E-02 0.20000434E+02</pdfrwt>
<pdfrwt beam="1">  1       -3 0.15791625E-02 0.20000434E+02</pdfrwt>
<totfact> 0.17884344E+06</totfact>
</mgrwt>
</event>
<event>
 5    1  0.4133473E-007  0.2000028E+02  0.7818608E-02  0.1745323E+00
         -3   -1    0    0    0  501 -0.00000000000E+00  0.00000000000E+00  0.44091350125E+02  0.44091448205E+02  0.93000000000E-01 0.  1.
          3   -1    0    0  501    0  0.00000000000E+00 -0.00000000000E+00 -0.22670272568E+01  0.22689340191E+01  0.93000000000E-01 0. -1.
       1023    2    1    2    0    0  0.00000000000E+00  0.00000000000E+00  0.41824322868E+02  0.46360382224E+02  0.20000276413E+02 0.  0.
        -11    1    3    3    0    0 -0.80160774611E+01 -0.59786605785E+01  0.20981069075E+02  0.23242356593E+02  0.51100000000E-03 0.  1.
         11    1    3    3    0    0  0.80160774611E+01  0.59786605785E+01  0.20843253792E+02  0.23118025631E+02  0.51100000000E-03 0. -1.
<mgrwt>
<rscale>  0 0.20000276E+02</rscale>
<asrwt>0</asrwt>
<pdfrwt beam="2">  1        3 0.34892763E-03 0.20000276E+02</pdfrwt>
<pdfrwt beam="1">  1       -3 0.67834391E-02 0.20000276E+02</pdfrwt>
<totfact> 0.16387688E+06</totfact>
</mgrwt>
</event>
<event>
 5    1  0.4154747E-007  0.2000190E+02  0.7818608E-02  0.1745290E+00
         -3   -1    0    0    0  501 -0.00000000000E+00  0.00000000000E+00  0.16229312100E+02  0.16229578561E+02  0.93000000000E-01 0.  1.
          3   -1    0    0  501    0  0.00000000000E+00 -0.00000000000E+00 -0.61621926455E+01  0.61628943850E+01  0.93000000000E-01 0. -1.
       1023    2    1    2    0    0  0.00000000000E+00  0.00000000000E+00  0.10067119455E+02  0.22392472946E+02  0.20001898672E+02 0.  0.
        -11    1    3    3    0    0  0.18809650058E+01  0.98220728266E+01  0.49344119438E+01  0.11151662004E+02  0.51100000000E-03 0. -1.
         11    1    3    3    0    0 -0.18809650058E+01 -0.98220728266E+01  0.51327075112E+01  0.11240810941E+02  0.51100000000E-03 0.  1.
<mgrwt>
<rscale>  0 0.20001899E+02</rscale>
<asrwt>0</asrwt>
<pdfrwt beam="2">  1        3 0.94810413E-03 0.20001899E+02</pdfrwt>
<pdfrwt beam="1">  1       -3 0.24968917E-02 0.20001899E+02</pdfrwt>
<totfact> 0.17727586E+06</totfact>
</mgrwt>
</event>
<event>
 5    1  0.4133473E-007  0.2000139E+02  0.7818608E-02  0.1745300E+00
          3   -1    0    0  501    0  0.00000000000E+00  0.00000000000E+00  0.37419233686E+02  0.37419349255E+02  0.93000000000E-01 0. -1.
         -3   -1    0    0    0  501 -0.00000000000E+00 -0.00000000000E+00 -0.26718657915E+01  0.26734838335E+01  0.93000000000E-01 0.  1.
       1023    2    1    2    0    0  0.00000000000E+00  0.00000000000E+00  0.34747367894E+02  0.40092833088E+02  0.20001392188E+02 0.  0.
        -11    1    3    3    0    0 -0.51531823372E+00  0.99874036319E+01  0.17397223954E+02  0.20066818028E+02  0.51100000000E-03 0. -1.
         11    1    3    3    0    0  0.51531823372E+00 -0.99874036319E+01  0.17350143940E+02  0.20026015060E+02  0.51100000000E-03 0.  1.
<mgrwt>
<rscale>  0 0.20001392E+02</rscale>
<asrwt>0</asrwt>
<pdfrwt beam="1">  1        3 0.57569386E-02 0.20001392E+02</pdfrwt>
<pdfrwt beam="2">  1       -3 0.41118962E-03 0.20001392E+02</pdfrwt>
<totfact> 0.16704427E+06</totfact>
</mgrwt>
</event>
<event>
 5    1  0.4295447E-007  0.2000095E+02  0.7818608E-02  0.1745309E+00
         -3   -1    0    0    0  501 -0.00000000000E+00  0.00000000000E+00  0.46131720766E+01  0.46141094058E+01  0.93000000000E-01 0.  1.
          3   -1    0    0  501    0  0.00000000000E+00 -0.00000000000E+00 -0.21675871212E+02  0.21676070719E+02  0.93000000000E-01 0. -1.
       1023    2    1    2    0    0  0.00000000000E+00  0.00000000000E+00 -0.17062699135E+02  0.26290180124E+02  0.20000946707E+02 0.  0.
        -11    1    3    3    0    0  0.99462445734E+01  0.10382762656E+01 -0.86109612145E+01  0.13196759148E+02  0.51100000000E-03 0.  1.
         11    1    3    3    0    0 -0.99462445734E+01 -0.10382762656E+01 -0.84517379209E+01  0.13093420976E+02  0.51100000000E-03 0. -1.
<mgrwt>
<rscale>  0 0.20000947E+02</rscale>
<asrwt>0</asrwt>
<pdfrwt beam="2">  1        3 0.33348368E-02 0.20000947E+02</pdfrwt>
<pdfrwt beam="1">  1       -3 0.70980624E-03 0.20000947E+02</pdfrwt>
<totfact> 0.17485673E+06</totfact>
</mgrwt>
</event>
<event>
 5    1  0.4356248E-007  0.2000173E+02  0.7818608E-02  0.1745294E+00
          3   -1    0    0  501    0  0.00000000000E+00  0.00000000000E+00  0.14211293751E+02  0.14211598048E+02  0.93000000000E-01 0. -1.
         -3   -1    0    0    0  501 -0.00000000000E+00 -0.00000000000E+00 -0.70371846843E+01  0.70377991788E+01  0.93000000000E-01 0.  1.
       1023    2    1    2    0    0  0.00000000000E+00  0.00000000000E+00  0.71741090672E+01  0.21249397227E+02  0.20001725966E+02 0.  0.
        -11    1    3    3    0    0  0.90602825359E+01  0.42326121795E+01  0.37106500261E+01  0.10666426270E+02  0.51100000000E-03 0.  1.
         11    1    3    3    0    0 -0.90602825359E+01 -0.42326121795E+01  0.34634590411E+01  0.10582970957E+02  0.51100000000E-03 0. -1.
<mgrwt>
<rscale>  0 0.20001726E+02</rscale>
<asrwt>0</asrwt>
<pdfrwt beam="1">  1        3 0.21864235E-02 0.20001726E+02</pdfrwt>
<pdfrwt beam="2">  1       -3 0.10827145E-02 0.20001726E+02</pdfrwt>
<totfact> 0.17800538E+06</totfact>
</mgrwt>
</event>
<event>
 4    1  0.4133473E-007  0.2008106E+02  0.7818608E-02  0.1743721E+00
         -3   -1    0    0    0  501 -0.00000000000E+00  0.00000000000E+00  0.25984649796E+02  0.25984816221E+02  0.93000000000E-01 0.  1.
          3   -1    0    0  501    0  0.00000000000E+00 -0.00000000000E+00 -0.38789470779E+01  0.38800617821E+01  0.93000000000E-01 0. -1.
        -11    1    1    2    0    0  0.69283318133E+01 -0.72382394444E+01  0.12014747193E+02  0.15644425280E+02  0.51100000000E-03 0. -1.
         11    1    1    2    0    0 -0.69283318133E+01  0.72382394444E+01  0.10090955525E+02  0.14220452723E+02  0.51100000000E-03 0.  1.
<mgrwt>
<rscale>  0 0.20081057E+02</rscale>
<asrwt>0</asrwt>
<pdfrwt beam="2">  1        3 0.59685963E-03 0.20081057E+02</pdfrwt>
<pdfrwt beam="1">  1       -3 0.39977371E-02 0.20081057E+02</pdfrwt>
<totfact> 0.17126202E+06</totfact>
</mgrwt>
</event>
<event>
 5    1  0.4133870E-007  0.2000079E+02  0.7818608E-02  0.1745312E+00
         -3   -1    0    0    0  501 -0.00000000000E+00  0.00000000000E+00  0.21039312422E+02  0.21039517965E+02  0.93000000000E-01 0.  1.
          3   -1    0    0  501    0  0.00000000000E+00 -0.00000000000E+00 -0.47526974340E+01  0.47536072512E+01  0.93000000000E-01 0. -1.
       1023    2    1    2    0    0  0.00000000000E+00  0.00000000000E+00  0.16286614988E+02  0.25793125216E+02  0.20000787001E+02 0.  0.
        -11    1    3    3    0    0 -0.38543731651E+00 -0.99926465155E+01  0.80407567703E+01  0.12831808758E+02  0.51100000000E-03 0.  1.
         11    1    3    3    0    0  0.38543731651E+00  0.99926465155E+01  0.82458582179E+01  0.12961316458E+02  0.51100000000E-03 0. -1.
<mgrwt>
<rscale>  0 0.20000787E+02</rscale>
<asrwt>0</asrwt>
<pdfrwt beam="2">  1        3 0.73127002E-03 0.20000787E+02</pdfrwt>
<pdfrwt beam="1">  1       -3 0.32369031E-02 0.20000787E+02</pdfrwt>
<totfact> 0.17517623E+06</totfact>
</mgrwt>
</event>
<event>
 4    1  0.4133473E-007  0.2003795E+02  0.7818608E-02  0.1744574E+00
         -3   -1    0    0    0  501 -0.00000000000E+00  0.00000000000E+00  0.19369498075E+02  0.19369721337E+02  0.93000000000E-01 0. -1.
          3   -1    0    0  501    0  0.00000000000E+00 -0.00000000000E+00 -0.51816971780E+01  0.51825316829E+01  0.93000000000E-01 0.  1.
        -11    1    1    2    0    0  0.84837411095E+01 -0.53216740879E+01  0.74527653159E+01  0.12483500688E+02  0.51100000000E-03 0.  1.
         11    1    1    2    0    0 -0.84837411095E+01  0.53216740879E+01  0.67350355807E+01  0.12068752332E+02  0.51100000000E-03 0. -1.
<mgrwt>
<rscale>  0 0.20037950E+02</rscale>
<asrwt>0</asrwt>
<pdfrwt beam="2">  1        3 0.79726558E-03 0.20037950E+02</pdfrwt>
<pdfrwt beam="1">  1       -3 0.29800040E-02 0.20037950E+02</pdfrwt>
<totfact> 0.17523868E+06</totfact>
</mgrwt>
</event>
<event>
 5    1  0.4133473E-007  0.2000017E+02  0.7818608E-02  0.1745325E+00
          3   -1    0    0  501    0  0.00000000000E+00  0.00000000000E+00  0.83330637263E+01  0.83335826669E+01  0.93000000000E-01 0.  1.
         -3   -1    0    0    0  501 -0.00000000000E+00 -0.00000000000E+00 -0.11999522774E+02  0.11999883158E+02  0.93000000000E-01 0. -1.
       1023    2    1    2    0    0  0.00000000000E+00  0.00000000000E+00 -0.36664590479E+01  0.20333465825E+02  0.20000172762E+02 0.  0.
        -11    1    3    3    0    0 -0.19246619860E+01  0.98131052291E+01 -0.18527687599E+01  0.10170256159E+02  0.51100000000E-03 0. -1.
         11    1    3    3    0    0  0.19246619860E+01 -0.98131052291E+01 -0.18136902880E+01  0.10163209666E+02  0.51100000000E-03 0.  1.
<mgrwt>
<rscale>  0 0.20000173E+02</rscale>
<asrwt>0</asrwt>
<pdfrwt beam="1">  1        3 0.12820775E-02 0.20000173E+02</pdfrwt>
<pdfrwt beam="2">  1       -3 0.18461481E-02 0.20000173E+02</pdfrwt>
<totfact> 0.17863624E+06</totfact>
</mgrwt>
</event>
<event>
 5    1  0.4133473E-007  0.2000302E+02  0.7818608E-02  0.1745268E+00
          3   -1    0    0  501    0  0.00000000000E+00  0.00000000000E+00  0.39636850924E+01  0.39647759724E+01  0.93000000000E-01 0.  1.
         -3   -1    0    0    0  501 -0.00000000000E+00 -0.00000000000E+00 -0.25232010232E+02  0.25232181621E+02  0.93000000000E-01 0. -1.
       1023    2    1    2    0    0  0.00000000000E+00  0.00000000000E+00 -0.21268325140E+02  0.29196957594E+02  0.20003016734E+02 0.  0.
        -11    1    3    3    0    0  0.99908071886E+01 -0.45326237134E+00 -0.10499636696E+02  0.14500484339E+02  0.51100000000E-03 0.  1.
         11    1    3    3    0    0 -0.99908071886E+01  0.45326237134E+00 -0.10768688444E+02  0.14696473255E+02  0.51100000000E-03 0. -1.
<mgrwt>
<rscale>  0 0.20003017E+02</rscale>
<asrwt>0</asrwt>
<pdfrwt beam="1">  1        3 0.60989482E-03 0.20003017E+02</pdfrwt>
<pdfrwt beam="2">  1       -3 0.38819447E-02 0.20003017E+02</pdfrwt>
<totfact> 0.17309459E+06</totfact>
</mgrwt>
</event>
<event>
 5    1  0.4133473E-007  0.2000926E+02  0.7818608E-02  0.1745144E+00
         -3   -1    0    0    0  501 -0.00000000000E+00  0.00000000000E+00  0.33480642242E+02  0.33480771406E+02  0.93000000000E-01 0. -1.
          3   -1    0    0  501    0  0.00000000000E+00 -0.00000000000E+00 -0.29887085856E+01  0.29901551815E+01  0.93000000000E-01 0.  1.
       1023    2    1    2    0    0  0.00000000000E+00  0.00000000000E+00  0.30491933656E+02  0.36470926587E+02  0.20009259558E+02 0.  0.
        -11    1    3    3    0    0 -0.44096267140E+01  0.89771300742E+01  0.14803441757E+02  0.17865485166E+02  0.51100000000E-03 0.  1.
         11    1    3    3    0    0  0.44096267140E+01 -0.89771300742E+01  0.15688491899E+02  0.18605441421E+02  0.51100000000E-03 0. -1.
<mgrwt>
<rscale>  0 0.20009260E+02</rscale>
<asrwt>0</asrwt>
<pdfrwt beam="2">  1        3 0.45992255E-03 0.20009260E+02</pdfrwt>
<pdfrwt beam="1">  1       -3 0.51509891E-02 0.20009260E+02</pdfrwt>
<totfact> 0.16886461E+06</totfact>
</mgrwt>
</event>
<event>
 5    1  0.4133473E-007  0.2000509E+02  0.7818608E-02  0.1745227E+00
          3   -1    0    0  501    0  0.00000000000E+00  0.00000000000E+00  0.26713754756E+02  0.26713916638E+02  0.93000000000E-01 0. -1.
         -3   -1    0    0    0  501 -0.00000000000E+00 -0.00000000000E+00 -0.37445452979E+01  0.37456999997E+01  0.93000000000E-01 0.  1.
       1023    2    1    2    0    0  0.00000000000E+00  0.00000000000E+00  0.22969209458E+02  0.30459616638E+02  0.20005090917E+02 0.  0.
        -11    1    3    3    0    0 -0.12650691375E+00 -0.99992377702E+01  0.11143613831E+02  0.14972671420E+02  0.51100000000E-03 0. -1.
         11    1    3    3    0    0  0.12650691375E+00  0.99992377702E+01  0.11825595627E+02  0.15486945218E+02  0.51100000000E-03 0.  1.
<mgrwt>
<rscale>  0 0.20005091E+02</rscale>
<asrwt>0</asrwt>
<pdfrwt beam="1">  1        3 0.41099098E-02 0.20005091E+02</pdfrwt>
<pdfrwt beam="2">  1       -3 0.57618515E-03 0.20005091E+02</pdfrwt>
<totfact> 0.17230211E+06</totfact>
</mgrwt>
</event>
<event>
 5    1  0.4133473E-007  0.2000668E+02  0.7818608E-02  0.1745195E+00
         -3   -1    0    0    0  501 -0.00000000000E+00  0.00000000000E+00  0.10098442476E+03  0.10098446758E+03  0.93000000000E-01 0. -1.
          3   -1    0    0  501    0  0.00000000000E+00 -0.00000000000E+00 -0.98868795311E+00  0.99305229904E+00  0.93000000000E-01 0.  1.
       1023    2    1    2    0    0  0.00000000000E+00  0.00000000000E+00  0.99995736802E+02  0.10197751988E+03  0.20006678430E+02 0.  0.
        -11    1    3    3    0    0  0.92954996155E+01 -0.36958070992E+01  0.50194752307E+02  0.51181817696E+02  0.51100000000E-03 0.  1.
         11    1    3    3    0    0 -0.92954996155E+01  0.36958070992E+01  0.49800984495E+02  0.50795702182E+02  0.51100000000E-03 0. -1.
<mgrwt>
<rscale>  0 0.20006678E+02</rscale>
<asrwt>0</asrwt>
<pdfrwt beam="2">  1        3 0.15244493E-03 0.20006678E+02</pdfrwt>
<pdfrwt beam="1">  1       -3 0.15536397E-01 0.20006678E+02</pdfrwt>
<totfact> 0.14102656E+06</totfact>
</mgrwt>
</event>
<event>
 5    1  0.4133473E-007  0.2000553E+02  0.7818608E-02  0.1745218E+00
         -3   -1    0    0    0  501 -0.00000000000E+00  0.00000000000E+00  0.55947817479E+02  0.55947894774E+02  0.93000000000E-01 0. -1.
          3   -1    0    0  501    0  0.00000000000E+00 -0.00000000000E+00 -0.17870802582E+01  0.17894984910E+01  0.93000000000E-01 0.  1.
       1023    2    1    2    0    0  0.00000000000E+00  0.00000000000E+00  0.54160737221E+02  0.57737393265E+02  0.20005527355E+02 0.  0.
        -11    1    3    3    0    0  0.55743951838E+01 -0.83055008538E+01  0.27058998446E+02  0.28848650285E+02  0.51100000000E-03 0. -1.
         11    1    3    3    0    0 -0.55743951838E+01  0.83055008538E+01  0.27101738774E+02  0.28888742980E+02  0.51100000000E-03 0.  1.
<mgrwt>
<rscale>  0 0.20005527E+02</rscale>
<asrwt>0</asrwt>
<pdfrwt beam="2">  1        3 0.27512741E-03 0.20005527E+02</pdfrwt>
<pdfrwt beam="1">  1       -3 0.86075479E-02 0.20005527E+02</pdfrwt>
<totfact> 0.15838679E+06</totfact>
</mgrwt>
</event>
<event>
 5    1  0.4133473E-007  0.2000008E+02  0.7818608E-02  0.1745327E+00
         -3   -1    0    0    0  501 -0.00000000000E+00  0.00000000000E+00  0.34810167989E+01  0.34822588868E+01  0.93000000000E-01 0.  1.
          3   -1    0    0  501    0  0.00000000000E+00 -0.00000000000E+00 -0.28721022165E+02  0.28721172734E+02  0.93000000000E-01 0. -1.
       1023    2    1    2    0    0  0.00000000000E+00  0.00000000000E+00 -0.25240005366E+02  0.32203431620E+02  0.20000078431E+02 0.  0.
        -11    1    3    3    0    0 -0.89941266314E+01  0.43710926116E+01 -0.12627126271E+02  0.16107299048E+02  0.51100000000E-03 0. -1.
         11    1    3    3    0    0  0.89941266314E+01 -0.43710926116E+01 -0.12612879095E+02  0.16096132573E+02  0.51100000000E-03 0.  1.
<mgrwt>
<rscale>  0 0.20000078E+02</rscale>
<asrwt>0</asrwt>
<pdfrwt beam="2">  1        3 0.44187258E-02 0.20000078E+02</pdfrwt>
<pdfrwt beam="1">  1       -3 0.53564819E-03 0.20000078E+02</pdfrwt>
<totfact> 0.17139117E+06</totfact>
</mgrwt>
</event>
<event>
 5    1  0.4324932E-007  0.2000078E+02  0.7818608E-02  0.1745313E+00
          3   -1    0    0  501    0  0.00000000000E+00  0.00000000000E+00  0.98560807253E+01  0.98565194802E+01  0.93000000000E-01 0.  1.
         -3   -1    0    0    0  501 -0.00000000000E+00 -0.00000000000E+00 -0.10145930294E+02  0.10146356515E+02  0.93000000000E-01 0. -1.
       1023    2    1    2    0    0  0.00000000000E+00  0.00000000000E+00 -0.28984956862E+00  0.20002875995E+02  0.20000775868E+02 0.  0.
        -11    1    3    3    0    0 -0.23969692003E+01 -0.97088065372E+01 -0.10786899981E+00  0.10000901045E+02  0.51100000000E-03 0. -1.
         11    1    3    3    0    0  0.23969692003E+01  0.97088065372E+01 -0.18198056881E+00  0.10001974951E+02  0.51100000000E-03 0.  1.
<mgrwt>
<rscale>  0 0.20000776E+02</rscale>
<asrwt>0</asrwt>
<pdfrwt beam="1">  1        3 0.15163866E-02 0.20000776E+02</pdfrwt>
<pdfrwt beam="2">  1       -3 0.15609789E-02 0.20000776E+02</pdfrwt>
<totfact> 0.17883959E+06</totfact>
</mgrwt>
</event>
<event>
 5    1  0.4133473E-007  0.2000161E+02  0.7818608E-02  0.1745296E+00
         -3   -1    0    0    0  501 -0.00000000000E+00  0.00000000000E+00  0.36195421791E+02  0.36195541267E+02  0.93000000000E-01 0.  1.
          3   -1    0    0  501    0  0.00000000000E+00 -0.00000000000E+00 -0.27623172364E+01  0.27638823265E+01  0.93000000000E-01 0. -1.
       1023    2    1    2    0    0  0.00000000000E+00  0.00000000000E+00  0.33433104555E+02  0.38959423594E+02  0.20001605101E+02 0.  0.
        -11    1    3    3    0    0 -0.39461693553E+01  0.91890062034E+01  0.16566130986E+02  0.19350627475E+02  0.51100000000E-03 0. -1.
         11    1    3    3    0    0  0.39461693553E+01 -0.91890062034E+01  0.16866973569E+02  0.19608796118E+02  0.51100000000E-03 0.  1.
<mgrwt>
<rscale>  0 0.20001605E+02</rscale>
<asrwt>0</asrwt>
<pdfrwt beam="2">  1        3 0.42510146E-03 0.20001605E+02</pdfrwt>
<pdfrwt beam="1">  1       -3 0.55686560E-02 0.20001605E+02</pdfrwt>
<totfact> 0.16766279E+06</totfact>
</mgrwt>
</event>
<event>
 5    1  0.4133473E-007  0.2000437E+02  0.7818608E-02  0.1745241E+00
          3   -1    0    0  501    0  0.00000000000E+00  0.00000000000E+00  0.54902161013E+02  0.54902239781E+02  0.93000000000E-01 0.  1.
         -3   -1    0    0    0  501 -0.00000000000E+00 -0.00000000000E+00 -0.18209519579E+01  0.18233252680E+01  0.93000000000E-01 0. -1.
       1023    2    1    2    0    0  0.00000000000E+00  0.00000000000E+00  0.53081209056E+02  0.56725565049E+02  0.20004373904E+02 0.  0.
        -11    1    3    3    0    0 -0.72775841340E+01  0.68611125850E+01  0.26327517816E+02  0.28163385651E+02  0.51100000000E-03 0.  1.
         11    1    3    3    0    0  0.72775841340E+01 -0.68611125850E+01  0.26753691239E+02  0.28562179397E+02  0.51100000000E-03 0. -1.
<mgrwt>
<rscale>  0 0.20004374E+02</rscale>
<asrwt>0</asrwt>
<pdfrwt beam="1">  1        3 0.84466749E-02 0.20004374E+02</pdfrwt>
<pdfrwt beam="2">  1       -3 0.28033508E-03 0.20004374E+02</pdfrwt>
<totfact> 0.15883937E+06</totfact>
</mgrwt>
</event>
<event>
 5    1  0.4133473E-007  0.2000394E+02  0.7818608E-02  0.1745250E+00
          3   -1    0    0  501    0  0.00000000000E+00  0.00000000000E+00  0.39737840205E+01  0.39748721290E+01  0.93000000000E-01 0.  1.
         -3   -1    0    0    0  501 -0.00000000000E+00 -0.00000000000E+00 -0.25170228089E+02  0.25170399899E+02  0.93000000000E-01 0. -1.
       1023    2    1    2    0    0  0.00000000000E+00  0.00000000000E+00 -0.21196444069E+02  0.29145272028E+02  0.20003940622E+02 0.  0.
        -11    1    3    3    0    0 -0.74660329602E+01 -0.66545577654E+01 -0.10774405545E+02  0.14700768767E+02  0.51100000000E-03 0.  1.
         11    1    3    3    0    0  0.74660329602E+01  0.66545577654E+01 -0.10422038524E+02  0.14444503261E+02  0.51100000000E-03 0. -1.
<mgrwt>
<rscale>  0 0.20003941E+02</rscale>
<asrwt>0</asrwt>
<pdfrwt beam="1">  1        3 0.61144832E-03 0.20003941E+02</pdfrwt>
<pdfrwt beam="2">  1       -3 0.38724396E-02 0.20003941E+02</pdfrwt>
<totfact> 0.17310778E+06</totfact>
</mgrwt>
</event>
<event>
 5    1  0.4133473E-007  0.2000557E+02  0.7818608E-02  0.1745217E+00
          3   -1    0    0  501    0  0.00000000000E+00  0.00000000000E+00  0.98756127846E+00  0.99193058160E+00  0.93000000000E-01 0. -1.
         -3   -1    0    0    0  501 -0.00000000000E+00 -0.00000000000E+00 -0.10108789475E+03  0.10108793753E+03  0.93000000000E-01 0.  1.
       1023    2    1    2    0    0  0.00000000000E+00  0.00000000000E+00 -0.10010033347E+03  0.10207986811E+03  0.20005567037E+02 0.  0.
        -11    1    3    3    0    0  0.94943374180E+01 -0.31401730737E+01 -0.51219846532E+02  0.52186931400E+02  0.51100000000E-03 0.  1.
         11    1    3    3    0    0 -0.94943374180E+01  0.31401730737E+01 -0.48880486937E+02  0.49892936708E+02  0.51100000000E-03 0. -1.
<mgrwt>
<rscale>  0 0.20005567E+02</rscale>
<asrwt>0</asrwt>
<pdfrwt beam="1">  1        3 0.15227197E-03 0.20005567E+02</pdfrwt>
<pdfrwt beam="2">  1       -3 0.15552315E-01 0.20005567E+02</pdfrwt>
<totfact> 0.14100835E+06</totfact>
</mgrwt>
</event>
<event>
 5    1  0.4133473E-007  0.2000055E+02  0.7818608E-02  0.1745317E+00
         -3   -1    0    0    0  501 -0.00000000000E+00  0.00000000000E+00  0.50484312744E+02  0.50484398404E+02  0.93000000000E-01 0. -1.
          3   -1    0    0  501    0  0.00000000000E+00 -0.00000000000E+00 -0.19797430225E+01  0.19819261931E+01  0.93000000000E-01 0.  1.
       1023    2    1    2    0    0  0.00000000000E+00  0.00000000000E+00  0.48504569722E+02  0.52466324598E+02  0.20000548315E+02 0.  0.
        -11    1    3    3    0    0  0.30064386517E+01  0.95375906987E+01  0.24342138451E+02  0.26316231006E+02  0.51100000000E-03 0.  1.
         11    1    3    3    0    0 -0.30064386517E+01 -0.95375906987E+01  0.24162431271E+02  0.26150093592E+02  0.51100000000E-03 0. -1.
<mgrwt>
<rscale>  0 0.20000548E+02</rscale>
<asrwt>0</asrwt>
<pdfrwt beam="2">  1        3 0.30475037E-03 0.20000548E+02</pdfrwt>
<pdfrwt beam="1">  1       -3 0.77669919E-02 0.20000548E+02</pdfrwt>
<totfact> 0.16091032E+06</totfact>
</mgrwt>
</event>
<event>
 5    1  0.4171989E-007  0.2000360E+02  0.7818608E-02  0.1745257E+00
         -3   -1    0    0    0  501 -0.00000000000E+00  0.00000000000E+00  0.77459319517E+01  0.77464902246E+01  0.93000000000E-01 0.  1.
          3   -1    0    0  501    0  0.00000000000E+00 -0.00000000000E+00 -0.12913453933E+02  0.12913788812E+02  0.93000000000E-01 0. -1.
       1023    2    1    2    0    0  0.00000000000E+00  0.00000000000E+00 -0.51675219815E+01  0.20660279037E+02  0.20003595838E+02 0.  0.
        -11    1    3    3    0    0  0.43693592306E+01 -0.89959698592E+01 -0.27191661351E+01  0.10364006876E+02  0.51100000000E-03 0. -1.
         11    1    3    3    0    0 -0.43693592306E+01  0.89959698592E+01 -0.24483558464E+01  0.10296272161E+02  0.51100000000E-03 0.  1.
<mgrwt>
<rscale>  0 0.20003596E+02</rscale>
<asrwt>0</asrwt>
<pdfrwt beam="2">  1        3 0.19867539E-02 0.20003596E+02</pdfrwt>
<pdfrwt beam="1">  1       -3 0.11917505E-02 0.20003596E+02</pdfrwt>
<totfact> 0.17835361E+06</totfact>
</mgrwt>
</event>
<event>
 5    1  0.4151567E-007  0.2000103E+02  0.7818608E-02  0.1745308E+00
          3   -1    0    0  501    0  0.00000000000E+00  0.00000000000E+00  0.45314517139E+02  0.45314612572E+02  0.93000000000E-01 0.  1.
         -3   -1    0    0    0  501 -0.00000000000E+00 -0.00000000000E+00 -0.22059488811E+01  0.22079083917E+01  0.93000000000E-01 0. -1.
       1023    2    1    2    0    0  0.00000000000E+00  0.00000000000E+00  0.43108568258E+02  0.47522520964E+02  0.20001033510E+02 0.  0.
        -11    1    3    3    0    0 -0.31917585082E+01 -0.94772576324E+01  0.21715441326E+02  0.23907449192E+02  0.51100000000E-03 0.  1.
         11    1    3    3    0    0  0.31917585082E+01  0.94772576324E+01  0.21393126932E+02  0.23615071772E+02  0.51100000000E-03 0. -1.
<mgrwt>
<rscale>  0 0.20001034E+02</rscale>
<asrwt>0</asrwt>
<pdfrwt beam="1">  1        3 0.69716224E-02 0.20001034E+02</pdfrwt>
<pdfrwt beam="2">  1       -3 0.33953482E-03 0.20001034E+02</pdfrwt>
<totfact> 0.16326275E+06</totfact>
</mgrwt>
</event>
<event>
 5    1  0.4133473E-007  0.2000005E+02  0.7818608E-02  0.1745327E+00
         -3   -1    0    0    0  501 -0.00000000000E+00  0.00000000000E+00  0.88283876134E+01  0.88288774401E+01  0.93000000000E-01 0. -1.
          3   -1    0    0  501    0  0.00000000000E+00 -0.00000000000E+00 -0.11326155254E+02  0.11326537063E+02  0.93000000000E-01 0.  1.
       1023    2    1    2    0    0  0.00000000000E+00  0.00000000000E+00 -0.24977676403E+01  0.20155414503E+02  0.20000047265E+02 0.  0.
        -11    1    3    3    0    0 -0.69326059687E+01  0.72068727995E+01 -0.12279542356E+01  0.10075113544E+02  0.51100000000E-03 0. -1.
         11    1    3    3    0    0  0.69326059687E+01 -0.72068727995E+01 -0.12698134048E+01  0.10080300958E+02  0.51100000000E-03 0.  1.
<mgrwt>
<rscale>  0 0.20000047E+02</rscale>
<asrwt>0</asrwt>
<pdfrwt beam="2">  1        3 0.17425525E-02 0.20000047E+02</pdfrwt>
<pdfrwt beam="1">  1       -3 0.13582805E-02 0.20000047E+02</pdfrwt>
<totfact> 0.17875279E+06</totfact>
</mgrwt>
</event>
<event>
 5    1  0.4133473E-007  0.2000116E+02  0.7818608E-02  0.1745305E+00
         -3   -1    0    0    0  501 -0.00000000000E+00  0.00000000000E+00  0.97297050037E+00  0.97740503098E+00  0.93000000000E-01 0. -1.
          3   -1    0    0  501    0  0.00000000000E+00 -0.00000000000E+00 -0.10255178929E+03  0.10255183146E+03  0.93000000000E-01 0.  1.
       1023    2    1    2    0    0  0.00000000000E+00  0.00000000000E+00 -0.10157881879E+03  0.10352923649E+03  0.20001159504E+02 0.  0.
        -11    1    3    3    0    0 -0.90518098731E+01  0.42512799872E+01 -0.50508195318E+02  0.51488702042E+02  0.51100000000E-03 0.  1.
         11    1    3    3    0    0  0.90518098731E+01 -0.42512799872E+01 -0.51070623477E+02  0.52040534452E+02  0.51100000000E-03 0. -1.
<mgrwt>
<rscale>  0 0.20001160E+02</rscale>
<asrwt>0</asrwt>
<pdfrwt beam="2">  1        3 0.15777534E-01 0.20001160E+02</pdfrwt>
<pdfrwt beam="1">  1       -3 0.15003221E-03 0.20001160E+02</pdfrwt>
<totfact> 0.14055284E+06</totfact>
</mgrwt>
</event>
<event>
 5    1  0.4133473E-007  0.2000308E+02  0.7818608E-02  0.1745267E+00
         -3   -1    0    0    0  501 -0.00000000000E+00  0.00000000000E+00  0.13948556384E+01  0.13979525214E+01  0.93000000000E-01 0.  1.
          3   -1    0    0  501    0  0.00000000000E+00 -0.00000000000E+00 -0.71631425224E+02  0.71631485596E+02  0.93000000000E-01 0. -1.
       1023    2    1    2    0    0  0.00000000000E+00  0.00000000000E+00 -0.70236569586E+02  0.73029438117E+02  0.20003077876E+02 0.  0.
        -11    1    3    3    0    0 -0.99925621399E+01 -0.40376013178E+00 -0.34649878508E+02  0.36064226060E+02  0.51100000000E-03 0. -1.
         11    1    3    3    0    0  0.99925621399E+01  0.40376013178E+00 -0.35586691077E+02  0.36965212058E+02  0.51100000000E-03 0.  1.
<mgrwt>
<rscale>  0 0.20003078E+02</rscale>
<asrwt>0</asrwt>
<pdfrwt beam="2">  1        3 0.11020459E-01 0.20003078E+02</pdfrwt>
<pdfrwt beam="1">  1       -3 0.21483610E-03 0.20003078E+02</pdfrwt>
<totfact> 0.15183511E+06</totfact>
</mgrwt>
</event>
<event>
 4    1  0.4133473E-007  0.2008274E+02  0.7818608E-02  0.1743688E+00
          3   -1    0    0  501    0  0.00000000000E+00  0.00000000000E+00  0.64145423503E+01  0.64152164861E+01  0.93000000000E-01 0.  1.
         -3   -1    0    0    0  501 -0.00000000000E+00 -0.00000000000E+00 -0.15717200000E+02  0.15717475142E+02  0.93000000000E-01 0. -1.
        -11    1    1    2    0    0  0.98453984107E+01  0.19279247013E+01 -0.51194008323E+01  0.11263082556E+02  0.51100000000E-03 0.  1.
         11    1    1    2    0    0 -0.98453984107E+01 -0.19279247013E+01 -0.41832568174E+01  0.10869609072E+02  0.51100000000E-03 0. -1.
<mgrwt>
<rscale>  0 0.20082744E+02</rscale>
<asrwt>0</asrwt>
<pdfrwt beam="1">  1        3 0.98692569E-03 0.20082744E+02</pdfrwt>
<pdfrwt beam="2">  1       -3 0.24181038E-02 0.20082744E+02</pdfrwt>
<totfact> 0.17590540E+06</totfact>
</mgrwt>
</event>
<event>
 5    1  0.4133473E-007  0.2000182E+02  0.7818608E-02  0.1745292E+00
          3   -1    0    0  501    0  0.00000000000E+00  0.00000000000E+00  0.25703823549E+02  0.25703991792E+02  0.93000000000E-01 0.  1.
         -3   -1    0    0    0  501 -0.00000000000E+00 -0.00000000000E+00 -0.38904433746E+01  0.38915547858E+01  0.93000000000E-01 0. -1.
       1023    2    1    2    0    0  0.00000000000E+00  0.00000000000E+00  0.21813380174E+02  0.29595546577E+02  0.20001820482E+02 0.  0.
        -11    1    3    3    0    0 -0.83277882218E+01 -0.55362427246E+01  0.10718564635E+02  0.14659115535E+02  0.51100000000E-03 0.  1.
         11    1    3    3    0    0  0.83277882218E+01  0.55362427246E+01  0.11094815539E+02  0.14936431043E+02  0.51100000000E-03 0. -1.
<mgrwt>
<rscale>  0 0.20001820E+02</rscale>
<asrwt>0</asrwt>
<pdfrwt beam="1">  1        3 0.39545327E-02 0.20001820E+02</pdfrwt>
<pdfrwt beam="2">  1       -3 0.59862821E-03 0.20001820E+02</pdfrwt>
<totfact> 0.17286657E+06</totfact>
</mgrwt>
</event>
<event>
 5    1  0.4484987E-007  0.2000126E+02  0.7818608E-02  0.1745303E+00
         -3   -1    0    0    0  501 -0.00000000000E+00  0.00000000000E+00  0.82461933116E+01  0.82467177188E+01  0.93000000000E-01 0. -1.
          3   -1    0    0  501    0  0.00000000000E+00 -0.00000000000E+00 -0.12127243201E+02  0.12127599790E+02  0.93000000000E-01 0.  1.
       1023    2    1    2    0    0  0.00000000000E+00  0.00000000000E+00 -0.38810498896E+01  0.20374317509E+02  0.20001256603E+02 0.  0.
        -11    1    3    3    0    0  0.97358781520E+01  0.22845191964E+01 -0.18602204569E+01  0.10171861765E+02  0.51100000000E-03 0. -1.
         11    1    3    3    0    0 -0.97358781520E+01 -0.22845191964E+01 -0.20208294326E+01  0.10202455744E+02  0.51100000000E-03 0.  1.
<mgrwt>
<rscale>  0 0.20001257E+02</rscale>
<asrwt>0</asrwt>
<pdfrwt beam="2">  1        3 0.18657975E-02 0.20001257E+02</pdfrwt>
<pdfrwt beam="1">  1       -3 0.12687129E-02 0.20001257E+02</pdfrwt>
<totfact> 0.17858534E+06</totfact>
</mgrwt>
</event>
<event>
 5    1  0.4133473E-007  0.2000073E+02  0.7818608E-02  0.1745314E+00
         -3   -1    0    0    0  501 -0.00000000000E+00  0.00000000000E+00  0.51351793929E+01  0.51360214561E+01  0.93000000000E-01 0. -1.
          3   -1    0    0  501    0  0.00000000000E+00 -0.00000000000E+00 -0.19472379229E+02  0.19472601312E+02  0.93000000000E-01 0.  1.
       1023    2    1    2    0    0  0.00000000000E+00  0.00000000000E+00 -0.14337199837E+02  0.24608622768E+02  0.20000725372E+02 0.  0.
        -11    1    3    3    0    0 -0.45354587113E+01  0.89126167261E+01 -0.72253973725E+01  0.12337402080E+02  0.51100000000E-03 0.  1.
         11    1    3    3    0    0  0.45354587113E+01 -0.89126167261E+01 -0.71118024641E+01  0.12271220688E+02  0.51100000000E-03 0. -1.
<mgrwt>
<rscale>  0 0.20000725E+02</rscale>
<asrwt>0</asrwt>
<pdfrwt beam="2">  1        3 0.29958325E-02 0.20000725E+02</pdfrwt>
<pdfrwt beam="1">  1       -3 0.79010946E-03 0.20000725E+02</pdfrwt>
<totfact> 0.17589511E+06</totfact>
</mgrwt>
</event>
<event>
 5    1  0.4133473E-007  0.2000540E+02  0.7818608E-02  0.1745221E+00
          3   -1    0    0  501    0  0.00000000000E+00  0.00000000000E+00  0.10664074548E+03  0.10664078603E+03  0.93000000000E-01 0.  1.
         -3   -1    0    0    0  501 -0.00000000000E+00 -0.00000000000E+00 -0.93588925009E+00  0.94049863819E+00  0.93000000000E-01 0. -1.
       1023    2    1    2    0    0  0.00000000000E+00  0.00000000000E+00  0.10570485623E+03  0.10758128467E+03  0.20005403788E+02 0.  0.
        -11    1    3    3    0    0  0.95505074254E+01  0.29735253063E+01  0.52850857793E+02  0.53789099403E+02  0.51100000000E-03 0.  1.
         11    1    3    3    0    0 -0.95505074254E+01 -0.29735253063E+01  0.52853998435E+02  0.53792185265E+02  0.51100000000E-03 0. -1.
<mgrwt>
<rscale>  0 0.20005404E+02</rscale>
<asrwt>0</asrwt>
<pdfrwt beam="1">  1        3 0.16406613E-01 0.20005404E+02</pdfrwt>
<pdfrwt beam="2">  1       -3 0.14434077E-03 0.20005404E+02</pdfrwt>
<totfact> 0.13912818E+06</totfact>
</mgrwt>
</event>
<event>
 5    1  0.4133473E-007  0.2000073E+02  0.7818608E-02  0.1745314E+00
         -3   -1    0    0    0  501 -0.00000000000E+00  0.00000000000E+00  0.12708978304E+01  0.12742959998E+01  0.93000000000E-01 0.  1.
          3   -1    0    0  501    0  0.00000000000E+00 -0.00000000000E+00 -0.78581785492E+02  0.78581840524E+02  0.93000000000E-01 0. -1.
       1023    2    1    2    0    0  0.00000000000E+00  0.00000000000E+00 -0.77310887662E+02  0.79856136524E+02  0.20000729723E+02 0.  0.
        -11    1    3    3    0    0 -0.21914288991E+01 -0.97571241653E+01 -0.38420435566E+02  0.39700550399E+02  0.51100000000E-03 0. -1.
         11    1    3    3    0    0  0.21914288991E+01  0.97571241653E+01 -0.38890452095E+02  0.40155586125E+02  0.51100000000E-03 0.  1.
<mgrwt>
<rscale>  0 0.20000730E+02</rscale>
<asrwt>0</asrwt>
<pdfrwt beam="2">  1        3 0.12089767E-01 0.20000730E+02</pdfrwt>
<pdfrwt beam="1">  1       -3 0.19578844E-03 0.20000730E+02</pdfrwt>
<totfact> 0.14915839E+06</totfact>
</mgrwt>
</event>
<event>
 4    1  0.4133473E-007  0.2001696E+02  0.7818608E-02  0.1744991E+00
         -3   -1    0    0    0  501 -0.00000000000E+00  0.00000000000E+00  0.92520276081E+01  0.92524950074E+01  0.93000000000E-01 0. -1.
          3   -1    0    0  501    0  0.00000000000E+00 -0.00000000000E+00 -0.10825837634E+02  0.10826237087E+02  0.93000000000E-01 0.  1.
        -11    1    1    2    0    0  0.99896788519E+01 -0.49619883177E+00 -0.11482305305E+01  0.10067687443E+02  0.51100000000E-03 0. -1.
         11    1    1    2    0    0 -0.99896788519E+01  0.49619883177E+00 -0.42557949511E+00  0.10011044651E+02  0.51100000000E-03 0.  1.
<mgrwt>
<rscale>  0 0.20016958E+02</rscale>
<asrwt>0</asrwt>
<pdfrwt beam="2">  1        3 0.16655802E-02 0.20016958E+02</pdfrwt>
<pdfrwt beam="1">  1       -3 0.14234555E-02 0.20016958E+02</pdfrwt>
<totfact> 0.17847800E+06</totfact>
</mgrwt>
</event>
<event>
 5    1  0.4133473E-007  0.2000196E+02  0.7818608E-02  0.1745289E+00
         -3   -1    0    0    0  501 -0.00000000000E+00  0.00000000000E+00  0.15774748953E+02  0.15775023091E+02  0.93000000000E-01 0.  1.
          3   -1    0    0  501    0  0.00000000000E+00 -0.00000000000E+00 -0.63398155521E+01  0.63404976330E+01  0.93000000000E-01 0. -1.
       1023    2    1    2    0    0  0.00000000000E+00  0.00000000000E+00  0.94349334011E+01  0.22115520725E+02  0.20001957120E+02 0.  0.
        -11    1    3    3    0    0 -0.95186591727E+01  0.30682943567E+01  0.46993259660E+01  0.11050021154E+02  0.51100000000E-03 0. -1.
         11    1    3    3    0    0  0.95186591727E+01 -0.30682943567E+01  0.47356074351E+01  0.11065499571E+02  0.51100000000E-03 0.  1.
<mgrwt>
<rscale>  0 0.20001957E+02</rscale>
<asrwt>0</asrwt>
<pdfrwt beam="2">  1        3 0.97542980E-03 0.20001957E+02</pdfrwt>
<pdfrwt beam="1">  1       -3 0.24269580E-02 0.20001957E+02</pdfrwt>
<totfact> 0.17745116E+06</totfact>
</mgrwt>
</event>
<event>
 5    1  0.4133473E-007  0.2000030E+02  0.7818608E-02  0.1745322E+00
          3   -1    0    0  501    0  0.00000000000E+00  0.00000000000E+00  0.18520277336E+02  0.18520510835E+02  0.93000000000E-01 0. -1.
         -3   -1    0    0    0  501 -0.00000000000E+00 -0.00000000000E+00 -0.53989812965E+01  0.53997822215E+01  0.93000000000E-01 0.  1.
       1023    2    1    2    0    0  0.00000000000E+00  0.00000000000E+00  0.13121296039E+02  0.23920293057E+02  0.20000300252E+02 0.  0.
        -11    1    3    3    0    0  0.52132125648E+01 -0.85336662037E+01  0.66135721561E+01  0.11989177664E+02  0.51100000000E-03 0. -1.
         11    1    3    3    0    0 -0.52132125648E+01  0.85336662037E+01  0.65077238831E+01  0.11931115393E+02  0.51100000000E-03 0.  1.
<mgrwt>
<rscale>  0 0.20000300E+02</rscale>
<asrwt>0</asrwt>
<pdfrwt beam="1">  1        3 0.28493531E-02 0.20000300E+02</pdfrwt>
<pdfrwt beam="2">  1       -3 0.83069206E-03 0.20000300E+02</pdfrwt>
<totfact> 0.17633240E+06</totfact>
</mgrwt>
</event>
<event>
 5    1  0.4133473E-007  0.2000011E+02  0.7818608E-02  0.1745326E+00
          3   -1    0    0  501    0  0.00000000000E+00  0.00000000000E+00  0.67571596528E+01  0.67577996103E+01  0.93000000000E-01 0.  1.
         -3   -1    0    0    0  501 -0.00000000000E+00 -0.00000000000E+00 -0.14797791301E+02  0.14798083537E+02  0.93000000000E-01 0. -1.
       1023    2    1    2    0    0  0.00000000000E+00  0.00000000000E+00 -0.80406316478E+01  0.21555883147E+02  0.20000108524E+02 0.  0.
        -11    1    3    3    0    0 -0.31769631143E+00  0.99949701426E+01 -0.40493538728E+01  0.10788773153E+02  0.51100000000E-03 0.  1.
         11    1    3    3    0    0  0.31769631143E+00 -0.99949701426E+01 -0.39912777749E+01  0.10767109995E+02  0.51100000000E-03 0. -1.
<mgrwt>
<rscale>  0 0.20000109E+02</rscale>
<asrwt>0</asrwt>
<pdfrwt beam="1">  1        3 0.10396347E-02 0.20000109E+02</pdfrwt>
<pdfrwt beam="2">  1       -3 0.22766550E-02 0.20000109E+02</pdfrwt>
<totfact> 0.17784498E+06</totfact>
</mgrwt>
</event>
<event>
 5    1  0.4234029E-007  0.2000099E+02  0.7818608E-02  0.1745308E+00
          3   -1    0    0  501    0  0.00000000000E+00  0.00000000000E+00  0.35575301432E+01  0.35587455261E+01  0.93000000000E-01 0. -1.
         -3   -1    0    0    0  501 -0.00000000000E+00 -0.00000000000E+00 -0.28106068648E+02  0.28106222512E+02  0.93000000000E-01 0.  1.
       1023    2    1    2    0    0  0.00000000000E+00  0.00000000000E+00 -0.24548538505E+02  0.31664968038E+02  0.20000986428E+02 0.  0.
        -11    1    3    3    0    0 -0.99678695549E+01  0.80667139748E+00 -0.12231727793E+02  0.15799503387E+02  0.51100000000E-03 0.  1.
         11    1    3    3    0    0  0.99678695549E+01 -0.80667139748E+00 -0.12316810712E+02  0.15865464651E+02  0.51100000000E-03 0. -1.
<mgrwt>
<rscale>  0 0.20000986E+02</rscale>
<asrwt>0</asrwt>
<pdfrwt beam="1">  1        3 0.54741767E-03 0.20000986E+02</pdfrwt>
<pdfrwt beam="2">  1       -3 0.43241157E-02 0.20000986E+02</pdfrwt>
<totfact> 0.17170059E+06</totfact>
</mgrwt>
</event>
<event>
 5    1  0.4703547E-007  0.2000194E+02  0.7818608E-02  0.1745290E+00
         -3   -1    0    0    0  501 -0.00000000000E+00  0.00000000000E+00  0.79145104075E+01  0.79150567901E+01  0.93000000000E-01 0.  1.
          3   -1    0    0  501    0  0.00000000000E+00 -0.00000000000E+00 -0.12636313460E+02  0.12636655683E+02  0.93000000000E-01 0. -1.
       1023    2    1    2    0    0  0.00000000000E+00  0.00000000000E+00 -0.47218030523E+01  0.20551712473E+02  0.20001936444E+02 0.  0.
        -11    1    3    3    0    0 -0.99838477064E+01  0.58450810689E+00 -0.23838852836E+01  0.10281136808E+02  0.51100000000E-03 0.  1.
         11    1    3    3    0    0  0.99838477064E+01 -0.58450810689E+00 -0.23379177687E+01  0.10270575666E+02  0.51100000000E-03 0. -1.
<mgrwt>
<rscale>  0 0.20001936E+02</rscale>
<asrwt>0</asrwt>
<pdfrwt beam="2">  1        3 0.19441166E-02 0.20001936E+02</pdfrwt>
<pdfrwt beam="1">  1       -3 0.12176853E-02 0.20001936E+02</pdfrwt>
<totfact> 0.17845625E+06</totfact>
</mgrwt>
</event>
<event>
 5    1  0.4185920E-007  0.2000244E+02  0.7818608E-02  0.1745280E+00
         -3   -1    0    0    0  501 -0.00000000000E+00  0.00000000000E+00  0.57138205639E+01  0.57145773629E+01  0.93000000000E-01 0. -1.
          3   -1    0    0  501    0  0.00000000000E+00 -0.00000000000E+00 -0.17503649188E+02  0.17503896249E+02  0.93000000000E-01 0.  1.
       1023    2    1    2    0    0  0.00000000000E+00  0.00000000000E+00 -0.11789828624E+02  0.23218473612E+02  0.20002436299E+02 0.  0.
        -11    1    3    3    0    0  0.78071859497E+01 -0.62500653249E+01 -0.57854359127E+01  0.11553646090E+02  0.51100000000E-03 0.  1.
         11    1    3    3    0    0 -0.78071859497E+01  0.62500653249E+01 -0.60043927115E+01  0.11664827522E+02  0.51100000000E-03 0. -1.
<mgrwt>
<rscale>  0 0.20002436E+02</rscale>
<asrwt>0</asrwt>
<pdfrwt beam="2">  1        3 0.26929463E-02 0.20002436E+02</pdfrwt>
<pdfrwt beam="1">  1       -3 0.87912654E-03 0.20002436E+02</pdfrwt>
<totfact> 0.17673260E+06</totfact>
</mgrwt>
</event>
<event>
 4    1  0.4133473E-007  0.2001712E+02  0.7818608E-02  0.1744988E+00
          3   -1    0    0  501    0  0.00000000000E+00  0.00000000000E+00  0.11316147577E+02  0.11316529723E+02  0.93000000000E-01 0.  1.
         -3   -1    0    0    0  501 -0.00000000000E+00 -0.00000000000E+00 -0.88512922323E+01  0.88517807916E+01  0.93000000000E-01 0. -1.
        -11    1    1    2    0    0 -0.44358533066E+01 -0.89714893902E+01  0.13160763591E+01  0.10094378321E+02  0.51100000000E-03 0.  1.
         11    1    1    2    0    0  0.44358533066E+01  0.89714893902E+01  0.11487789855E+01  0.10073932194E+02  0.51100000000E-03 0. -1.
<mgrwt>
<rscale>  0 0.20017124E+02</rscale>
<asrwt>0</asrwt>
<pdfrwt beam="1">  1        3 0.17410127E-02 0.20017124E+02</pdfrwt>
<pdfrwt beam="2">  1       -3 0.13618043E-02 0.20017124E+02</pdfrwt>
<totfact> 0.17841593E+06</totfact>
</mgrwt>
</event>
<event>
 5    1  0.4133473E-007  0.2000154E+02  0.7818608E-02  0.1745297E+00
          3   -1    0    0  501    0  0.00000000000E+00  0.00000000000E+00  0.35435268039E+02  0.35435390078E+02  0.93000000000E-01 0. -1.
         -3   -1    0    0    0  501 -0.00000000000E+00 -0.00000000000E+00 -0.28215886809E+01  0.28231209120E+01  0.93000000000E-01 0.  1.
       1023    2    1    2    0    0  0.00000000000E+00  0.00000000000E+00  0.32613679358E+02  0.38258510990E+02  0.20001539488E+02 0.  0.
        -11    1    3    3    0    0 -0.14760243311E+00 -0.99994235064E+01  0.16169728327E+02  0.19012374165E+02  0.51100000000E-03 0. -1.
         11    1    3    3    0    0  0.14760243311E+00  0.99994235064E+01  0.16443951030E+02  0.19246136825E+02  0.51100000000E-03 0.  1.
<mgrwt>
<rscale>  0 0.20001539E+02</rscale>
<asrwt>0</asrwt>
<pdfrwt beam="1">  1        3 0.54517072E-02 0.20001539E+02</pdfrwt>
<pdfrwt beam="2">  1       -3 0.43421780E-03 0.20001539E+02</pdfrwt>
<totfact> 0.16801676E+06</totfact>
</mgrwt>
</event>
<event>
 5    1  0.4133473E-007  0.2000191E+02  0.7818608E-02  0.1745290E+00
          3   -1    0    0  501    0  0.00000000000E+00  0.00000000000E+00  0.11572995122E+03  0.11572998859E+03  0.93000000000E-01 0.  1.
         -3   -1    0    0    0  501 -0.00000000000E+00 -0.00000000000E+00 -0.86170651933E+00  0.86671051999E+00  0.93000000000E-01 0. -1.
       1023    2    1    2    0    0  0.00000000000E+00  0.00000000000E+00  0.11486824470E+03  0.11659669911E+03  0.20001914960E+02 0.  0.
        -11    1    3    3    0    0  0.69042610623E+01  0.72351852773E+01  0.57147155711E+02  0.58015636969E+02  0.51100000000E-03 0.  1.
         11    1    3    3    0    0 -0.69042610623E+01 -0.72351852773E+01  0.57721088993E+02  0.58581062142E+02  0.51100000000E-03 0. -1.
<mgrwt>
<rscale>  0 0.20001915E+02</rscale>
<asrwt>0</asrwt>
<pdfrwt beam="1">  1        3 0.17804990E-01 0.20001915E+02</pdfrwt>
<pdfrwt beam="2">  1       -3 0.13295807E-03 0.20001915E+02</pdfrwt>
<totfact> 0.13625315E+06</totfact>
</mgrwt>
</event>
<event>
 4    1  0.4133473E-007  0.2001692E+02  0.7818608E-02  0.1744992E+00
         -3   -1    0    0    0  501 -0.00000000000E+00  0.00000000000E+00  0.31047800753E+01  0.31061726153E+01  0.93000000000E-01 0. -1.
          3   -1    0    0  501    0  0.00000000000E+00 -0.00000000000E+00 -0.32254231366E+02  0.32254365441E+02  0.93000000000E-01 0.  1.
        -11    1    1    2    0    0  0.49285614148E+01 -0.87084344888E+01 -0.14213833222E+02  0.17382767443E+02  0.51100000000E-03 0.  1.
         11    1    1    2    0    0 -0.49285614148E+01  0.87084344888E+01 -0.14935618069E+02  0.17977770613E+02  0.51100000000E-03 0. -1.
<mgrwt>
<rscale>  0 0.20016921E+02</rscale>
<asrwt>0</asrwt>
<pdfrwt beam="2">  1        3 0.49623066E-02 0.20016921E+02</pdfrwt>
<pdfrwt beam="1">  1       -3 0.47777593E-03 0.20016921E+02</pdfrwt>
<totfact> 0.16931298E+06</totfact>
</mgrwt>
</event>
<event>
 5    1  0.4133473E-007  0.2000019E+02  0.7818608E-02  0.1745324E+00
         -3   -1    0    0    0  501 -0.00000000000E+00  0.00000000000E+00  0.23546280767E+01  0.23564639568E+01  0.93000000000E-01 0. -1.
          3   -1    0    0  501    0  0.00000000000E+00 -0.00000000000E+00 -0.42451924828E+02  0.42452026696E+02  0.93000000000E-01 0.  1.
       1023    2    1    2    0    0  0.00000000000E+00  0.00000000000E+00 -0.40097296751E+02  0.44808490652E+02  0.20000190695E+02 0.  0.
        -11    1    3    3    0    0  0.55405683406E+01  0.83248059800E+01 -0.20138671141E+02  0.22484803040E+02  0.51100000000E-03 0.  1.
         11    1    3    3    0    0 -0.55405683406E+01 -0.83248059800E+01 -0.19958625610E+02  0.22323687613E+02  0.51100000000E-03 0. -1.
<mgrwt>
<rscale>  0 0.20000191E+02</rscale>
<asrwt>0</asrwt>
<pdfrwt beam="2">  1        3 0.65312138E-02 0.20000191E+02</pdfrwt>
<pdfrwt beam="1">  1       -3 0.36239956E-03 0.20000191E+02</pdfrwt>
<totfact> 0.16463262E+06</totfact>
</mgrwt>
</event>
<event>
 5    1  0.4133473E-007  0.2000033E+02  0.7818608E-02  0.1745322E+00
         -3   -1    0    0    0  501 -0.00000000000E+00  0.00000000000E+00  0.76919681805E+02  0.76919738026E+02  0.93000000000E-01 0. -1.
          3   -1    0    0  501    0  0.00000000000E+00 -0.00000000000E+00 -0.12983798074E+01  0.13017062357E+01  0.93000000000E-01 0.  1.
       1023    2    1    2    0    0  0.00000000000E+00  0.00000000000E+00  0.75621301998E+02  0.78221444262E+02  0.20000325662E+02 0.  0.
        -11    1    3    3    0    0  0.99893146154E+01  0.46268395182E+00  0.38016618885E+02  0.39309843483E+02  0.51100000000E-03 0.  1.
         11    1    3    3    0    0 -0.99893146154E+01 -0.46268395182E+00  0.37604683113E+02  0.38911600779E+02  0.51100000000E-03 0. -1.
<mgrwt>
<rscale>  0 0.20000326E+02</rscale>
<asrwt>0</asrwt>
<pdfrwt beam="2">  1        3 0.20001095E-03 0.20000326E+02</pdfrwt>
<pdfrwt beam="1">  1       -3 0.11834057E-01 0.20000326E+02</pdfrwt>
<totfact> 0.14983320E+06</totfact>
</mgrwt>
</event>
<event>
 5    1  0.4133473E-007  0.2000058E+02  0.7818608E-02  0.1745317E+00
          3   -1    0    0  501    0  0.00000000000E+00  0.00000000000E+00  0.27899810208E+02  0.27899965209E+02  0.93000000000E-01 0.  1.
         -3   -1    0    0    0  501 -0.00000000000E+00 -0.00000000000E+00 -0.35836937005E+01  0.35849002132E+01  0.93000000000E-01 0. -1.
       1023    2    1    2    0    0  0.00000000000E+00  0.00000000000E+00  0.24316116508E+02  0.31484865422E+02  0.20000580707E+02 0.  0.
        -11    1    3    3    0    0  0.99991377316E+01 -0.13610002021E+00  0.12052126278E+02  0.15660620252E+02  0.51100000000E-03 0. -1.
         11    1    3    3    0    0 -0.99991377316E+01  0.13610002021E+00  0.12263990230E+02  0.15824245171E+02  0.51100000000E-03 0.  1.
<mgrwt>
<rscale>  0 0.20000581E+02</rscale>
<asrwt>0</asrwt>
<pdfrwt beam="1">  1        3 0.42923833E-02 0.20000581E+02</pdfrwt>
<pdfrwt beam="2">  1       -3 0.55144221E-03 0.20000581E+02</pdfrwt>
<totfact> 0.17179361E+06</totfact>
</mgrwt>
</event>
<event>
 5    1  0.4133473E-007  0.2000329E+02  0.7818608E-02  0.1745263E+00
          3   -1    0    0  501    0  0.00000000000E+00  0.00000000000E+00  0.37135388772E+02  0.37135505224E+02  0.93000000000E-01 0.  1.
         -3   -1    0    0    0  501 -0.00000000000E+00 -0.00000000000E+00 -0.26928124939E+01  0.26944179570E+01  0.93000000000E-01 0. -1.
       1023    2    1    2    0    0  0.00000000000E+00  0.00000000000E+00  0.34442576278E+02  0.39829923181E+02  0.20003292727E+02 0.  0.
        -11    1    3    3    0    0 -0.97962037062E+01 -0.20116119095E+01  0.16934530886E+02  0.19666990774E+02  0.51100000000E-03 0.  1.
         11    1    3    3    0    0  0.97962037062E+01  0.20116119095E+01  0.17508045392E+02  0.20162932407E+02  0.51100000000E-03 0. -1.
<mgrwt>
<rscale>  0 0.20003293E+02</rscale>
<asrwt>0</asrwt>
<pdfrwt beam="1">  1        3 0.57132691E-02 0.20003293E+02</pdfrwt>
<pdfrwt beam="2">  1       -3 0.41441131E-03 0.20003293E+02</pdfrwt>
<totfact> 0.16714882E+06</totfact>
</mgrwt>
</event>
<event>
 5    1  0.4133473E-007  0.2000016E+02  0.7818608E-02  0.1745325E+00
          3   -1    0    0  501    0  0.00000000000E+00  0.00000000000E+00  0.10031050275E+02  0.10031481377E+02  0.93000000000E-01 0.  1.
         -3   -1    0    0    0  501 -0.00000000000E+00 -0.00000000000E+00 -0.99683393233E+01  0.99687731374E+01  0.93000000000E-01 0. -1.
       1023    2    1    2    0    0  0.00000000000E+00  0.00000000000E+00  0.62710951740E-01  0.20000254515E+02  0.20000156199E+02 0.  0.
        -11    1    3    3    0    0  0.99800072037E+01  0.63214411993E+00 -0.62181214554E-02  0.10000009445E+02  0.51100000000E-03 0.  1.
         11    1    3    3    0    0 -0.99800072037E+01 -0.63214411993E+00  0.68929073195E-01  0.10000245070E+02  0.51100000000E-03 0. -1.
<mgrwt>
<rscale>  0 0.20000156E+02</rscale>
<asrwt>0</asrwt>
<pdfrwt beam="1">  1        3 0.15433050E-02 0.20000156E+02</pdfrwt>
<pdfrwt beam="2">  1       -3 0.15336572E-02 0.20000156E+02</pdfrwt>
<totfact> 0.17885308E+06</totfact>
</mgrwt>
</event>
<event>
 5    1  0.4133473E-007  0.2000027E+02  0.7818608E-02  0.1745323E+00
          3   -1    0    0  501    0  0.00000000000E+00  0.00000000000E+00  0.66725512278E+02  0.66725577089E+02  0.93000000000E-01 0.  1.
         -3   -1    0    0    0  501 -0.00000000000E+00 -0.00000000000E+00 -0.14972087838E+01  0.15000943778E+01  0.93000000000E-01 0. -1.
       1023    2    1    2    0    0  0.00000000000E+00  0.00000000000E+00  0.65228303495E+02  0.68225671466E+02  0.20000266755E+02 0.  0.
        -11    1    3    3    0    0  0.95563767549E+01 -0.29457472695E+01  0.32511607406E+02  0.34014796487E+02  0.51100000000E-03 0.  1.
         11    1    3    3    0    0 -0.95563767549E+01  0.29457472695E+01  0.32716696089E+02  0.34210874980E+02  0.51100000000E-03 0. -1.
<mgrwt>
<rscale>  0 0.20000267E+02</rscale>
<asrwt>0</asrwt>
<pdfrwt beam="1">  1        3 0.10265691E-01 0.20000267E+02</pdfrwt>
<pdfrwt beam="2">  1       -3 0.23056675E-03 0.20000267E+02</pdfrwt>
<totfact> 0.15386791E+06</totfact>
</mgrwt>
</event>
<event>
 5    1  0.4133473E-007  0.2000952E+02  0.7818608E-02  0.1745139E+00
          3   -1    0    0  501    0  0.00000000000E+00  0.00000000000E+00  0.15249857911E+01  0.15278189235E+01  0.93000000000E-01 0.  1.
         -3   -1    0    0    0  501 -0.00000000000E+00 -0.00000000000E+00 -0.65573073738E+02  0.65573139687E+02  0.93000000000E-01 0. -1.
       1023    2    1    2    0    0  0.00000000000E+00  0.00000000000E+00 -0.64048087947E+02  0.67100958611E+02  0.20009524653E+02 0.  0.
        -11    1    3    3    0    0  0.96092083950E+01 -0.27708410661E+01 -0.31070679912E+02  0.32640490141E+02  0.51100000000E-03 0.  1.
         11    1    3    3    0    0 -0.96092083950E+01  0.27708410661E+01 -0.32977408035E+02  0.34460468470E+02  0.51100000000E-03 0. -1.
<mgrwt>
<rscale>  0 0.20009525E+02</rscale>
<asrwt>0</asrwt>
<pdfrwt beam="1">  1        3 0.23483626E-03 0.20009525E+02</pdfrwt>
<pdfrwt beam="2">  1       -3 0.10088386E-01 0.20009525E+02</pdfrwt>
<totfact> 0.15421797E+06</totfact>
</mgrwt>
</event>
<event>
 5    1  0.4133473E-007  0.2000134E+02  0.7818608E-02  0.1745301E+00
          3   -1    0    0  501    0  0.00000000000E+00  0.00000000000E+00  0.11178947191E+01  0.11217564811E+01  0.93000000000E-01 0.  1.
         -3   -1    0    0    0  501 -0.00000000000E+00 -0.00000000000E+00 -0.89307709449E+02  0.89307757872E+02  0.93000000000E-01 0. -1.
       1023    2    1    2    0    0  0.00000000000E+00  0.00000000000E+00 -0.88189814730E+02  0.90429514353E+02  0.20001341054E+02 0.  0.
        -11    1    3    3    0    0 -0.77015755329E+01  0.63792675688E+01 -0.43805753044E+02  0.44932764442E+02  0.51100000000E-03 0.  1.
         11    1    3    3    0    0  0.77015755329E+01 -0.63792675688E+01 -0.44384061686E+02  0.45496749911E+02  0.51100000000E-03 0. -1.
<mgrwt>
<rscale>  0 0.20001341E+02</rscale>
<asrwt>0</asrwt>
<pdfrwt beam="1">  1        3 0.17228466E-03 0.20001341E+02</pdfrwt>
<pdfrwt beam="2">  1       -3 0.13739943E-01 0.20001341E+02</pdfrwt>
<totfact> 0.14519216E+06</totfact>
</mgrwt>
</event>
<event>
 4    1  0.4133473E-007  0.2003342E+02  0.7818608E-02  0.1744664E+00
          3   -1    0    0  501    0  0.00000000000E+00  0.00000000000E+00  0.23763716918E+01  0.23781907866E+01  0.93000000000E-01 0. -1.
         -3   -1    0    0    0  501 -0.00000000000E+00 -0.00000000000E+00 -0.42203684965E+02  0.42203787433E+02  0.93000000000E-01 0.  1.
        -11    1    1    2    0    0 -0.67302328989E+01 -0.74005689491E+01 -0.21070038727E+02  0.23324043129E+02  0.51100000000E-03 0.  1.
         11    1    1    2    0    0  0.67302328989E+01  0.74005689491E+01 -0.18757274546E+02  0.21257935090E+02  0.51100000000E-03 0. -1.
<mgrwt>
<rscale>  0 0.20033420E+02</rscale>
<asrwt>0</asrwt>
<pdfrwt beam="1">  1        3 0.36574349E-03 0.20033420E+02</pdfrwt>
<pdfrwt beam="2">  1       -3 0.64930219E-02 0.20033420E+02</pdfrwt>
<totfact> 0.16418447E+06</totfact>
</mgrwt>
</event>
<event>
 5    1  0.4194261E-007  0.2000189E+02  0.7818608E-02  0.1745291E+00
         -3   -1    0    0    0  501 -0.00000000000E+00  0.00000000000E+00  0.36947907849E+02  0.36948024892E+02  0.93000000000E-01 0. -1.
          3   -1    0    0  501    0  0.00000000000E+00 -0.00000000000E+00 -0.27061038044E+01  0.27077013868E+01  0.93000000000E-01 0.  1.
       1023    2    1    2    0    0  0.00000000000E+00  0.00000000000E+00  0.34241804045E+02  0.39655726279E+02  0.20001886973E+02 0.  0.
        -11    1    3    3    0    0 -0.23102758159E+01  0.97295624294E+01  0.17380243467E+02  0.20051798489E+02  0.51100000000E-03 0. -1.
         11    1    3    3    0    0  0.23102758159E+01 -0.97295624294E+01  0.16861560578E+02  0.19603927790E+02  0.51100000000E-03 0.  1.
<mgrwt>
<rscale>  0 0.20001887E+02</rscale>
<asrwt>0</asrwt>
<pdfrwt beam="2">  1        3 0.41645555E-03 0.20001887E+02</pdfrwt>
<pdfrwt beam="1">  1       -3 0.56844255E-02 0.20001887E+02</pdfrwt>
<totfact> 0.16728836E+06</totfact>
</mgrwt>
</event>
<event>
 5    1  0.4133473E-007  0.2000205E+02  0.7818608E-02  0.1745287E+00
         -3   -1    0    0    0  501 -0.00000000000E+00  0.00000000000E+00  0.45223538639E+02  0.45223634264E+02  0.93000000000E-01 0.  1.
          3   -1    0    0  501    0  0.00000000000E+00 -0.00000000000E+00 -0.22106146912E+01  0.22125700696E+01  0.93000000000E-01 0. -1.
       1023    2    1    2    0    0  0.00000000000E+00  0.00000000000E+00  0.43012923948E+02  0.47436204333E+02  0.20002046271E+02 0.  0.
        -11    1    3    3    0    0 -0.68843281245E+01 -0.72543330630E+01  0.21586590777E+02  0.23790759205E+02  0.51100000000E-03 0. -1.
         11    1    3    3    0    0  0.68843281245E+01  0.72543330630E+01  0.21426333170E+02  0.23645445128E+02  0.51100000000E-03 0.  1.
<mgrwt>
<rscale>  0 0.20002046E+02</rscale>
<asrwt>0</asrwt>
<pdfrwt beam="2">  1        3 0.34025236E-03 0.20002046E+02</pdfrwt>
<pdfrwt beam="1">  1       -3 0.69576247E-02 0.20002046E+02</pdfrwt>
<totfact> 0.16331253E+06</totfact>
</mgrwt>
</event>
<event>
 5    1  0.4133473E-007  0.2000031E+02  0.7818608E-02  0.1745322E+00
         -3   -1    0    0    0  501 -0.00000000000E+00  0.00000000000E+00  0.89471986131E+01  0.89476819357E+01  0.93000000000E-01 0.  1.
          3   -1    0    0  501    0  0.00000000000E+00 -0.00000000000E+00 -0.11176048646E+02  0.11176435582E+02  0.93000000000E-01 0. -1.
       1023    2    1    2    0    0  0.00000000000E+00  0.00000000000E+00 -0.22288500325E+01  0.20124117518E+02  0.20000308333E+02 0.  0.
        -11    1    3    3    0    0  0.81378966339E+01 -0.58118365316E+01 -0.10976605695E+01  0.10060202010E+02  0.51100000000E-03 0.  1.
         11    1    3    3    0    0 -0.81378966339E+01  0.58118365316E+01 -0.11311894631E+01  0.10063915508E+02  0.51100000000E-03 0. -1.
<mgrwt>
<rscale>  0 0.20000308E+02</rscale>
<asrwt>0</asrwt>
<pdfrwt beam="2">  1        3 0.17194590E-02 0.20000308E+02</pdfrwt>
<pdfrwt beam="1">  1       -3 0.13765590E-02 0.20000308E+02</pdfrwt>
<totfact> 0.17876853E+06</totfact>
</mgrwt>
</event>
<event>
 5    1  0.4133473E-007  0.2000027E+02  0.7818608E-02  0.1745323E+00
         -3   -1    0    0    0  501 -0.00000000000E+00  0.00000000000E+00  0.69614309225E+02  0.69614371345E+02  0.93000000000E-01 0.  1.
          3   -1    0    0  501    0  0.00000000000E+00 -0.00000000000E+00 -0.14349566014E+01  0.14379671234E+01  0.93000000000E-01 0. -1.
       1023    2    1    2    0    0  0.00000000000E+00  0.00000000000E+00  0.68179352623E+02  0.71052338469E+02  0.20000266943E+02 0.  0.
        -11    1    3    3    0    0  0.98281258478E+01 -0.18466447412E+01  0.34170273696E+02  0.35603507682E+02  0.51100000000E-03 0.  1.
         11    1    3    3    0    0 -0.98281258478E+01  0.18466447412E+01  0.34009078927E+02  0.35448830787E+02  0.51100000000E-03 0. -1.
<mgrwt>
<rscale>  0 0.20000267E+02</rscale>
<asrwt>0</asrwt>
<pdfrwt beam="2">  1        3 0.22099888E-03 0.20000267E+02</pdfrwt>
<pdfrwt beam="1">  1       -3 0.10710131E-01 0.20000267E+02</pdfrwt>
<totfact> 0.15271958E+06</totfact>
</mgrwt>
</event>
<event>
 5    1  0.4133473E-007  0.2000052E+02  0.7818608E-02  0.1745318E+00
          3   -1    0    0  501    0  0.00000000000E+00  0.00000000000E+00  0.33864349100E+02  0.33864476800E+02  0.93000000000E-01 0.  1.
         -3   -1    0    0    0  501 -0.00000000000E+00 -0.00000000000E+00 -0.29522455908E+01  0.29537100448E+01  0.93000000000E-01 0. -1.
       1023    2    1    2    0    0  0.00000000000E+00  0.00000000000E+00  0.30912103509E+02  0.36818186845E+02  0.20000518473E+02 0.  0.
        -11    1    3    3    0    0 -0.99310440655E+01  0.11744428736E+01  0.15484105744E+02  0.18432647212E+02  0.51100000000E-03 0. -1.
         11    1    3    3    0    0  0.99310440655E+01 -0.11744428736E+01  0.15427997765E+02  0.18385539633E+02  0.51100000000E-03 0.  1.
<mgrwt>
<rscale>  0 0.20000518E+02</rscale>
<asrwt>0</asrwt>
<pdfrwt beam="1">  1        3 0.52100221E-02 0.20000518E+02</pdfrwt>
<pdfrwt beam="2">  1       -3 0.45431412E-03 0.20000518E+02</pdfrwt>
<totfact> 0.16881353E+06</totfact>
</mgrwt>
</event>
<event>
 5    1  0.4133473E-007  0.2000075E+02  0.7818608E-02  0.1745313E+00
          3   -1    0    0  501    0  0.00000000000E+00  0.00000000000E+00  0.94140610447E+00  0.94598861173E+00  0.93000000000E-01 0.  1.
         -3   -1    0    0    0  501 -0.00000000000E+00 -0.00000000000E+00 -0.10596955024E+03  0.10596959105E+03  0.93000000000E-01 0. -1.
       1023    2    1    2    0    0  0.00000000000E+00  0.00000000000E+00 -0.10502814414E+03  0.10691557966E+03  0.20000752826E+02 0.  0.
        -11    1    3    3    0    0  0.95832169345E+01  0.28574548546E+01 -0.52158156012E+02  0.53108156943E+02  0.51100000000E-03 0. -1.
         11    1    3    3    0    0 -0.95832169345E+01 -0.28574548546E+01 -0.52869988125E+02  0.53807422719E+02  0.51100000000E-03 0.  1.
<mgrwt>
<rscale>  0 0.20000753E+02</rscale>
<asrwt>0</asrwt>
<pdfrwt beam="1">  1        3 0.14518743E-03 0.20000753E+02</pdfrwt>
<pdfrwt beam="2">  1       -3 0.16303354E-01 0.20000753E+02</pdfrwt>
<totfact> 0.13944702E+06</totfact>
</mgrwt>
</event>
<event>
 5    1  0.4133473E-007  0.2000088E+02  0.7818608E-02  0.1745311E+00
         -3   -1    0    0    0  501 -0.00000000000E+00  0.00000000000E+00  0.95597324387E+02  0.95597369623E+02  0.93000000000E-01 0. -1.
          3   -1    0    0  501    0  0.00000000000E+00 -0.00000000000E+00 -0.10440335235E+01  0.10481674476E+01  0.93000000000E-01 0.  1.
       1023    2    1    2    0    0  0.00000000000E+00  0.00000000000E+00  0.94553290863E+02  0.96645537071E+02  0.20000875547E+02 0.  0.
        -11    1    3    3    0    0 -0.98677646087E+01 -0.16225447770E+01  0.47555295846E+02  0.48595386542E+02  0.51100000000E-03 0. -1.
         11    1    3    3    0    0  0.98677646087E+01  0.16225447770E+01  0.46997995017E+02  0.48050150529E+02  0.51100000000E-03 0.  1.
<mgrwt>
<rscale>  0 0.20000876E+02</rscale>
<asrwt>0</asrwt>
<pdfrwt beam="2">  1        3 0.16094197E-03 0.20000876E+02</pdfrwt>
<pdfrwt beam="1">  1       -3 0.14707607E-01 0.20000876E+02</pdfrwt>
<totfact> 0.14296753E+06</totfact>
</mgrwt>
</event>
<event>
 5    1  0.4193618E-007  0.2000089E+02  0.7818608E-02  0.1745310E+00
          3   -1    0    0  501    0  0.00000000000E+00  0.00000000000E+00  0.27610797730E+01  0.27626455641E+01  0.93000000000E-01 0. -1.
         -3   -1    0    0    0  501 -0.00000000000E+00 -0.00000000000E+00 -0.36209047664E+02  0.36209167096E+02  0.93000000000E-01 0.  1.
       1023    2    1    2    0    0  0.00000000000E+00  0.00000000000E+00 -0.33447967891E+02  0.38971812660E+02  0.20000890628E+02 0.  0.
        -11    1    3    3    0    0  0.93854346551E+01  0.34521779366E+01 -0.16586341094E+02  0.19367772905E+02  0.51100000000E-03 0.  1.
         11    1    3    3    0    0 -0.93854346551E+01 -0.34521779366E+01 -0.16861626798E+02  0.19604039755E+02  0.51100000000E-03 0. -1.
<mgrwt>
<rscale>  0 0.20000891E+02</rscale>
<asrwt>0</asrwt>
<pdfrwt beam="1">  1        3 0.42491116E-03 0.20000891E+02</pdfrwt>
<pdfrwt beam="2">  1       -3 0.55707520E-02 0.20000891E+02</pdfrwt>
<totfact> 0.16766907E+06</totfact>
</mgrwt>
</event>
<event>
 5    1  0.4133473E-007  0.2000180E+02  0.7818608E-02  0.1745292E+00
         -3   -1    0    0    0  501 -0.00000000000E+00  0.00000000000E+00  0.11412054470E+01  0.11449885904E+01  0.93000000000E-01 0.  1.
          3   -1    0    0  501    0  0.00000000000E+00 -0.00000000000E+00 -0.87493607235E+02  0.87493656661E+02  0.93000000000E-01 0. -1.
       1023    2    1    2    0    0  0.00000000000E+00  0.00000000000E+00 -0.86352401788E+02  0.88638645252E+02  0.20001803357E+02 0.  0.
        -11    1    3    3    0    0  0.85315886817E+01 -0.52178727730E+01 -0.43450541542E+02  0.44586587246E+02  0.51100000000E-03 0.  1.
         11    1    3    3    0    0 -0.85315886817E+01  0.52178727730E+01 -0.42901860246E+02  0.44052058006E+02  0.51100000000E-03 0. -1.
<mgrwt>
<rscale>  0 0.20001803E+02</rscale>
<asrwt>0</asrwt>
<pdfrwt beam="2">  1        3 0.13460845E-01 0.20001803E+02</pdfrwt>
<pdfrwt beam="1">  1       -3 0.17586495E-03 0.20001803E+02</pdfrwt>
<totfact> 0.14581391E+06</totfact>
</mgrwt>
</event>
<event>
 5    1  0.4133473E-007  0.2000274E+02  0.7818608E-02  0.1745274E+00
         -3   -1    0    0    0  501 -0.00000000000E+00  0.00000000000E+00  0.19346140001E+01  0.19368480399E+01  0.93000000000E-01 0.  1.
          3   -1    0    0  501    0  0.00000000000E+00 -0.00000000000E+00 -0.51671972559E+02  0.51672056251E+02  0.93000000000E-01 0. -1.
       1023    2    1    2    0    0  0.00000000000E+00  0.00000000000E+00 -0.49737358559E+02  0.53608904291E+02  0.20002744381E+02 0.  0.
        -11    1    3    3    0    0  0.86274661451E+01 -0.50580135586E+01 -0.24590516267E+02  0.26546377602E+02  0.51100000000E-03 0. -1.
         11    1    3    3    0    0 -0.86274661451E+01  0.50580135586E+01 -0.25146842292E+02  0.27062526689E+02  0.51100000000E-03 0.  1.
<mgrwt>
<rscale>  0 0.20002744E+02</rscale>
<asrwt>0</asrwt>
<pdfrwt beam="2">  1        3 0.79497115E-02 0.20002744E+02</pdfrwt>
<pdfrwt beam="1">  1       -3 0.29781125E-03 0.20002744E+02</pdfrwt>
<totfact> 0.16030853E+06</totfact>
</mgrwt>
</event>
<event>
 5    1  0.4133473E-007  0.2000016E+02  0.7818608E-02  0.1745325E+00
          3   -1    0    0  501    0  0.00000000000E+00  0.00000000000E+00  0.13005933530E+01  0.13039141344E+01  0.93000000000E-01 0. -1.
         -3   -1    0    0    0  501 -0.00000000000E+00 -0.00000000000E+00 -0.76787802369E+02  0.76787858687E+02  0.93000000000E-01 0.  1.
       1023    2    1    2    0    0  0.00000000000E+00  0.00000000000E+00 -0.75487209016E+02  0.78091772821E+02  0.20000156432E+02 0.  0.
        -11    1    3    3    0    0 -0.42896103520E+01  0.90333085984E+01 -0.37790272643E+02  0.39090998042E+02  0.51100000000E-03 0. -1.
         11    1    3    3    0    0  0.42896103520E+01 -0.90333085984E+01 -0.37696936373E+02  0.39000774779E+02  0.51100000000E-03 0.  1.
<mgrwt>
<rscale>  0 0.20000156E+02</rscale>
<asrwt>0</asrwt>
<pdfrwt beam="1">  1        3 0.20035112E-03 0.20000156E+02</pdfrwt>
<pdfrwt beam="2">  1       -3 0.11813764E-01 0.20000156E+02</pdfrwt>
<totfact> 0.14988693E+06</totfact>
</mgrwt>
</event>
<event>
 5    1  0.4174800E-007  0.2000156E+02  0.7818608E-02  0.1745297E+00
          3   -1    0    0  501    0  0.00000000000E+00  0.00000000000E+00  0.22306547961E+01  0.22325926228E+01  0.93000000000E-01 0.  1.
         -3   -1    0    0    0  501 -0.00000000000E+00 -0.00000000000E+00 -0.44815419359E+02  0.44815515855E+02  0.93000000000E-01 0. -1.
       1023    2    1    2    0    0  0.00000000000E+00  0.00000000000E+00 -0.42584764563E+02  0.47048108478E+02  0.20001558400E+02 0.  0.
        -11    1    3    3    0    0  0.12769228362E+01 -0.99184314966E+01 -0.21524872577E+02  0.23734488724E+02  0.51100000000E-03 0. -1.
         11    1    3    3    0    0 -0.12769228362E+01  0.99184314966E+01 -0.21059891986E+02  0.23313619753E+02  0.51100000000E-03 0.  1.
<mgrwt>
<rscale>  0 0.20001558E+02</rscale>
<asrwt>0</asrwt>
<pdfrwt beam="1">  1        3 0.34333418E-03 0.20001558E+02</pdfrwt>
<pdfrwt beam="2">  1       -3 0.68948357E-02 0.20001558E+02</pdfrwt>
<totfact> 0.16351286E+06</totfact>
</mgrwt>
</event>
<event>
 5    1  0.4133473E-007  0.2000013E+02  0.7818608E-02  0.1745326E+00
          3   -1    0    0  501    0  0.00000000000E+00  0.00000000000E+00  0.24094670707E+02  0.24094850186E+02  0.93000000000E-01 0. -1.
         -3   -1    0    0    0  501 -0.00000000000E+00 -0.00000000000E+00 -0.41496330037E+01  0.41506750132E+01  0.93000000000E-01 0.  1.
       1023    2    1    2    0    0  0.00000000000E+00  0.00000000000E+00  0.19945037704E+02  0.28245525200E+02  0.20000129119E+02 0.  0.
        -11    1    3    3    0    0 -0.56652231168E+01  0.82405246979E+01  0.99965969639E+01  0.14139764898E+02  0.51100000000E-03 0. -1.
         11    1    3    3    0    0  0.56652231168E+01 -0.82405246979E+01  0.99484407399E+01  0.14105760301E+02  0.51100000000E-03 0.  1.
<mgrwt>
<rscale>  0 0.20000129E+02</rscale>
<asrwt>0</asrwt>
<pdfrwt beam="1">  1        3 0.37069664E-02 0.20000129E+02</pdfrwt>
<pdfrwt beam="2">  1       -3 0.63849903E-03 0.20000129E+02</pdfrwt>
<totfact> 0.17369559E+06</totfact>
</mgrwt>
</event>
<event>
 5    1  0.4133473E-007  0.2000058E+02  0.7818608E-02  0.1745317E+00
         -3   -1    0    0    0  501 -0.00000000000E+00  0.00000000000E+00  0.21221785725E+01  0.21242153595E+01  0.93000000000E-01 0.  1.
          3   -1    0    0  501    0  0.00000000000E+00 -0.00000000000E+00 -0.47099413566E+02  0.47099505382E+02  0.93000000000E-01 0. -1.
       1023    2    1    2    0    0  0.00000000000E+00  0.00000000000E+00 -0.44977234993E+02  0.49223720742E+02  0.20000575392E+02 0.  0.
        -11    1    3    3    0    0 -0.73721674934E+01  0.67566412329E+01 -0.22657333030E+02  0.24766020969E+02  0.51100000000E-03 0. -1.
         11    1    3    3    0    0  0.73721674934E+01 -0.67566412329E+01 -0.22319901963E+02  0.24457699773E+02  0.51100000000E-03 0.  1.
<mgrwt>
<rscale>  0 0.20000575E+02</rscale>
<asrwt>0</asrwt>
<pdfrwt beam="2">  1        3 0.72462266E-02 0.20000575E+02</pdfrwt>
<pdfrwt beam="1">  1       -3 0.32665279E-03 0.20000575E+02</pdfrwt>
<totfact> 0.16243789E+06</totfact>
</mgrwt>
</event>
<event>
 5    1  0.4133473E-007  0.2000314E+02  0.7818608E-02  0.1745266E+00
          3   -1    0    0  501    0  0.00000000000E+00  0.00000000000E+00  0.28506902058E+01  0.28522068034E+01  0.93000000000E-01 0.  1.
         -3   -1    0    0    0  501 -0.00000000000E+00 -0.00000000000E+00 -0.35079336293E+02  0.35079459570E+02  0.93000000000E-01 0. -1.
       1023    2    1    2    0    0  0.00000000000E+00  0.00000000000E+00 -0.32228646087E+02  0.37931666373E+02  0.20003141885E+02 0.  0.
        -11    1    3    3    0    0  0.81698994932E+01  0.57692425581E+01 -0.16110707622E+02  0.18962761343E+02  0.51100000000E-03 0. -1.
         11    1    3    3    0    0 -0.81698994932E+01 -0.57692425581E+01 -0.16117938465E+02  0.18968905030E+02  0.51100000000E-03 0.  1.
<mgrwt>
<rscale>  0 0.20003142E+02</rscale>
<asrwt>0</asrwt>
<pdfrwt beam="1">  1        3 0.43869389E-03 0.20003142E+02</pdfrwt>
<pdfrwt beam="2">  1       -3 0.53969468E-02 0.20003142E+02</pdfrwt>
<totfact> 0.16818486E+06</totfact>
</mgrwt>
</event>
<event>
 5    1  0.4252172E-007  0.2000060E+02  0.7818608E-02  0.1745316E+00
          3   -1    0    0  501    0  0.00000000000E+00  0.00000000000E+00  0.11015050159E+02  0.11015442751E+02  0.93000000000E-01 0. -1.
         -3   -1    0    0    0  501 -0.00000000000E+00 -0.00000000000E+00 -0.90782401079E+01  0.90787164543E+01  0.93000000000E-01 0.  1.
       1023    2    1    2    0    0  0.00000000000E+00  0.00000000000E+00  0.19368100510E+01  0.20094159205E+02  0.20000600016E+02 0.  0.
        -11    1    3    3    0    0 -0.65027489679E+01  0.75973841194E+01  0.96516631176E+00  0.10046767434E+02  0.51100000000E-03 0. -1.
         11    1    3    3    0    0  0.65027489679E+01 -0.75973841194E+01  0.97164373920E+00  0.10047391772E+02  0.51100000000E-03 0.  1.
<mgrwt>
<rscale>  0 0.20000600E+02</rscale>
<asrwt>0</asrwt>
<pdfrwt beam="1">  1        3 0.16946899E-02 0.20000600E+02</pdfrwt>
<pdfrwt beam="2">  1       -3 0.13967192E-02 0.20000600E+02</pdfrwt>
<totfact> 0.17878265E+06</totfact>
</mgrwt>
</event>
<event>
 4    1  0.4133473E-007  0.2003380E+02  0.7818608E-02  0.1744657E+00
         -3   -1    0    0    0  501 -0.00000000000E+00  0.00000000000E+00  0.43737115868E+02  0.43737214742E+02  0.93000000000E-01 0.  1.
          3   -1    0    0  501    0  0.00000000000E+00 -0.00000000000E+00 -0.22930784212E+01  0.22949635391E+01  0.93000000000E-01 0. -1.
        -11    1    1    2    0    0 -0.49608668935E+01 -0.86869248797E+01  0.21905815580E+02  0.24081894042E+02  0.51100000000E-03 0. -1.
         11    1    1    2    0    0  0.49608668935E+01  0.86869248797E+01  0.19538221867E+02  0.21950284239E+02  0.51100000000E-03 0.  1.
<mgrwt>
<rscale>  0 0.20033801E+02</rscale>
<asrwt>0</asrwt>
<pdfrwt beam="2">  1        3 0.35293393E-03 0.20033801E+02</pdfrwt>
<pdfrwt beam="1">  1       -3 0.67289392E-02 0.20033801E+02</pdfrwt>
<totfact> 0.16345121E+06</totfact>
</mgrwt>
</event>
<event>
 4    1  0.4133473E-007  0.2001432E+02  0.7818608E-02  0.1745043E+00
          3   -1    0    0  501    0  0.00000000000E+00  0.00000000000E+00  0.88353534189E+00  0.88841640033E+00  0.93000000000E-01 0.  1.
         -3   -1    0    0    0  501 -0.00000000000E+00 -0.00000000000E+00 -0.11302672227E+03  0.11302676053E+03  0.93000000000E-01 0. -1.
        -11    1    1    2    0    0  0.92732421145E+01  0.37616663884E+01 -0.56005065792E+02  0.56892095655E+02  0.51100000000E-03 0.  1.
         11    1    1    2    0    0 -0.92732421145E+01 -0.37616663884E+01 -0.56138121134E+02  0.57023081274E+02  0.51100000000E-03 0. -1.
<mgrwt>
<rscale>  0 0.20014324E+02</rscale>
<asrwt>0</asrwt>
<pdfrwt beam="1">  1        3 0.13630701E-03 0.20014324E+02</pdfrwt>
<pdfrwt beam="2">  1       -3 0.17389093E-01 0.20014324E+02</pdfrwt>
<totfact> 0.13695418E+06</totfact>
</mgrwt>
</event>
<event>
 4    1  0.4133473E-007  0.2004982E+02  0.7818608E-02  0.1744339E+00
          3   -1    0    0  501    0  0.00000000000E+00  0.00000000000E+00  0.20638470426E+01  0.20659413388E+01  0.93000000000E-01 0. -1.
         -3   -1    0    0    0  501 -0.00000000000E+00 -0.00000000000E+00 -0.48668080313E+02  0.48668169169E+02  0.93000000000E-01 0.  1.
        -11    1    1    2    0    0 -0.90402968639E+00  0.99661225352E+01 -0.24816101304E+02  0.26757797971E+02  0.51100000000E-03 0.  1.
         11    1    1    2    0    0  0.90402968639E+00 -0.99661225352E+01 -0.21788131966E+02  0.23976312537E+02  0.51100000000E-03 0. -1.
<mgrwt>
<rscale>  0 0.20049823E+02</rscale>
<asrwt>0</asrwt>
<pdfrwt beam="1">  1        3 0.31768290E-03 0.20049823E+02</pdfrwt>
<pdfrwt beam="2">  1       -3 0.74875640E-02 0.20049823E+02</pdfrwt>
<totfact> 0.16088197E+06</totfact>
</mgrwt>
</event>
<event>
 5    1  0.4133473E-007  0.2000035E+02  0.7818608E-02  0.1745321E+00
          3   -1    0    0  501    0  0.00000000000E+00  0.00000000000E+00  0.37904096743E+02  0.37904210833E+02  0.93000000000E-01 0.  1.
         -3   -1    0    0    0  501 -0.00000000000E+00 -0.00000000000E+00 -0.26373932337E+01  0.26390324115E+01  0.93000000000E-01 0. -1.
       1023    2    1    2    0    0  0.00000000000E+00  0.00000000000E+00  0.35266703509E+02  0.40543243245E+02  0.20000354907E+02 0.  0.
        -11    1    3    3    0    0  0.49426836159E+01  0.86931928524E+01  0.17719963478E+02  0.20346961179E+02  0.51100000000E-03 0.  1.
         11    1    3    3    0    0 -0.49426836159E+01 -0.86931928524E+01  0.17546740031E+02  0.20196282066E+02  0.51100000000E-03 0. -1.
<mgrwt>
<rscale>  0 0.20000355E+02</rscale>
<asrwt>0</asrwt>
<pdfrwt beam="1">  1        3 0.58315345E-02 0.20000355E+02</pdfrwt>
<pdfrwt beam="2">  1       -3 0.40588767E-03 0.20000355E+02</pdfrwt>
<totfact> 0.16682608E+06</totfact>
</mgrwt>
</event>
<event>
 5    1  0.4133473E-007  0.2000157E+02  0.7818608E-02  0.1745297E+00
         -3   -1    0    0    0  501 -0.00000000000E+00  0.00000000000E+00  0.72538937885E+02  0.72538997502E+02  0.93000000000E-01 0. -1.
          3   -1    0    0  501    0  0.00000000000E+00 -0.00000000000E+00 -0.13771581209E+01  0.13802947112E+01  0.93000000000E-01 0.  1.
       1023    2    1    2    0    0  0.00000000000E+00  0.00000000000E+00  0.71161779764E+02  0.73919292213E+02  0.20001571488E+02 0.  0.
        -11    1    3    3    0    0 -0.96674248127E+01 -0.25594641067E+01  0.35300500088E+02  0.36689716076E+02  0.51100000000E-03 0.  1.
         11    1    3    3    0    0  0.96674248127E+01  0.25594641067E+01  0.35861279677E+02  0.37229576137E+02  0.51100000000E-03 0. -1.
<mgrwt>
<rscale>  0 0.20001571E+02</rscale>
<asrwt>0</asrwt>
<pdfrwt beam="2">  1        3 0.21211635E-03 0.20001571E+02</pdfrwt>
<pdfrwt beam="1">  1       -3 0.11160082E-01 0.20001571E+02</pdfrwt>
<totfact> 0.15152782E+06</totfact>
</mgrwt>
</event>
<event>
 5    1  0.4133473E-007  0.2000779E+02  0.7818608E-02  0.1745173E+00
         -3   -1    0    0    0  501 -0.00000000000E+00  0.00000000000E+00  0.29831844067E+01  0.29846336801E+01  0.93000000000E-01 0.  1.
          3   -1    0    0  501    0  0.00000000000E+00 -0.00000000000E+00 -0.33537680639E+02  0.33537809583E+02  0.93000000000E-01 0. -1.
       1023    2    1    2    0    0  0.00000000000E+00  0.00000000000E+00 -0.30554496232E+02  0.36522443263E+02  0.20007789031E+02 0.  0.
        -11    1    3    3    0    0  0.29142775346E+01 -0.95678283778E+01 -0.15649344678E+02  0.18572515784E+02  0.51100000000E-03 0.  1.
         11    1    3    3    0    0 -0.29142775346E+01  0.95678283778E+01 -0.14905151554E+02  0.17949927480E+02  0.51100000000E-03 0. -1.
<mgrwt>
<rscale>  0 0.20007789E+02</rscale>
<asrwt>0</asrwt>
<pdfrwt beam="2">  1        3 0.51597643E-02 0.20007789E+02</pdfrwt>
<pdfrwt beam="1">  1       -3 0.45907287E-03 0.20007789E+02</pdfrwt>
<totfact> 0.16884251E+06</totfact>
</mgrwt>
</event>
<event>
 4    1  0.4772404E-007  0.2194989E+02  0.7818608E-02  0.1709120E+00
         -3   -1    0    0    0  501 -0.00000000000E+00  0.00000000000E+00  0.63868262801E+02  0.63868330511E+02  0.93000000000E-01 0.  1.
          3   -1    0    0  501    0  0.00000000000E+00 -0.00000000000E+00 -0.18846891659E+01  0.18869823137E+01  0.93000000000E-01 0. -1.
        -11    1    1    2    0    0  0.10364563254E+02 -0.29190325909E+01  0.24633756072E+02  0.26884323707E+02  0.51100000000E-03 0.  1.
         11    1    1    2    0    0 -0.10364563254E+02  0.29190325909E+01  0.37349817563E+02  0.38870989118E+02  0.51100000000E-03 0. -1.
<mgrwt>
<rscale>  0 0.21949892E+02</rscale>
<asrwt>0</asrwt>
<pdfrwt beam="2">  1        3 0.29013388E-03 0.21949892E+02</pdfrwt>
<pdfrwt beam="1">  1       -3 0.98260649E-02 0.21949892E+02</pdfrwt>
<totfact> 0.12659759E+06</totfact>
</mgrwt>
</event>
<event>
 4    1  0.4133473E-007  0.2004892E+02  0.7818608E-02  0.1744357E+00
         -3   -1    0    0    0  501 -0.00000000000E+00  0.00000000000E+00  0.11655290037E+03  0.11655293747E+03  0.93000000000E-01 0. -1.
          3   -1    0    0  501    0  0.00000000000E+00 -0.00000000000E+00 -0.85963640790E+00  0.86465238899E+00  0.93000000000E-01 0.  1.
        -11    1    1    2    0    0 -0.10015966329E+02  0.35701349405E+00  0.56636005135E+02  0.57515946641E+02  0.51100000000E-03 0.  1.
         11    1    1    2    0    0  0.10015966329E+02 -0.35701349405E+00  0.59057258825E+02  0.59901643219E+02  0.51100000000E-03 0. -1.
<mgrwt>
<rscale>  0 0.20048917E+02</rscale>
<asrwt>0</asrwt>
<pdfrwt beam="2">  1        3 0.13264038E-03 0.20048917E+02</pdfrwt>
<pdfrwt beam="1">  1       -3 0.17931614E-01 0.20048917E+02</pdfrwt>
<totfact> 0.13533620E+06</totfact>
</mgrwt>
</event>
<event>
 5    1  0.4133473E-007  0.2000332E+02  0.7818608E-02  0.1745262E+00
          3   -1    0    0  501    0  0.00000000000E+00  0.00000000000E+00  0.93184111109E+01  0.93188751806E+01  0.93000000000E-01 0.  1.
         -3   -1    0    0    0  501 -0.00000000000E+00 -0.00000000000E+00 -0.10734069653E+02  0.10734472522E+02  0.93000000000E-01 0. -1.
       1023    2    1    2    0    0  0.00000000000E+00  0.00000000000E+00 -0.14156585423E+01  0.20053347702E+02  0.20003316349E+02 0.  0.
        -11    1    3    3    0    0  0.58667971276E+01  0.81002216461E+01 -0.72420192052E+00  0.10027829672E+02  0.51100000000E-03 0. -1.
         11    1    3    3    0    0 -0.58667971276E+01 -0.81002216461E+01 -0.69145662177E+00  0.10025518030E+02  0.51100000000E-03 0.  1.
<mgrwt>
<rscale>  0 0.20003316E+02</rscale>
<asrwt>0</asrwt>
<pdfrwt beam="1">  1        3 0.14336684E-02 0.20003316E+02</pdfrwt>
<pdfrwt beam="2">  1       -3 0.16514620E-02 0.20003316E+02</pdfrwt>
<totfact> 0.17875832E+06</totfact>
</mgrwt>
</event>
<event>
 5    1  0.4133473E-007  0.2000278E+02  0.7818608E-02  0.1745273E+00
          3   -1    0    0  501    0  0.00000000000E+00  0.00000000000E+00  0.84721812619E+00  0.85230719424E+00  0.93000000000E-01 0. -1.
         -3   -1    0    0    0  501 -0.00000000000E+00 -0.00000000000E+00 -0.11770748415E+03  0.11770752089E+03  0.93000000000E-01 0.  1.
       1023    2    1    2    0    0  0.00000000000E+00  0.00000000000E+00 -0.11686026602E+03  0.11855982808E+03  0.20002776309E+02 0.  0.
        -11    1    3    3    0    0 -0.19809750875E+01 -0.98027800585E+01 -0.58992607825E+02  0.59834325746E+02  0.51100000000E-03 0.  1.
         11    1    3    3    0    0  0.19809750875E+01  0.98027800585E+01 -0.57867658195E+02  0.58725502334E+02  0.51100000000E-03 0. -1.
<mgrwt>
<rscale>  0 0.20002776E+02</rscale>
<asrwt>0</asrwt>
<pdfrwt beam="1">  1        3 0.13073564E-03 0.20002776E+02</pdfrwt>
<pdfrwt beam="2">  1       -3 0.18109225E-01 0.20002776E+02</pdfrwt>
<totfact> 0.13564721E+06</totfact>
</mgrwt>
</event>
<event>
 5    1  0.4299287E-007  0.2000090E+02  0.7818608E-02  0.1745310E+00
          3   -1    0    0  501    0  0.00000000000E+00  0.00000000000E+00  0.33166264612E+01  0.33179300901E+01  0.93000000000E-01 0.  1.
         -3   -1    0    0    0  501 -0.00000000000E+00 -0.00000000000E+00 -0.30146538089E+02  0.30146681538E+02  0.93000000000E-01 0. -1.
       1023    2    1    2    0    0  0.00000000000E+00  0.00000000000E+00 -0.26829911628E+02  0.33464611629E+02  0.20000901816E+02 0.  0.
        -11    1    3    3    0    0  0.11479016995E+01  0.99339379753E+01 -0.13566615092E+02  0.16853897096E+02  0.51100000000E-03 0. -1.
         11    1    3    3    0    0 -0.11479016995E+01 -0.99339379753E+01 -0.13263296536E+02  0.16610714532E+02  0.51100000000E-03 0.  1.
<mgrwt>
<rscale>  0 0.20000902E+02</rscale>
<asrwt>0</asrwt>
<pdfrwt beam="1">  1        3 0.51036156E-03 0.20000902E+02</pdfrwt>
<pdfrwt beam="2">  1       -3 0.46380401E-02 0.20000902E+02</pdfrwt>
<totfact> 0.17068033E+06</totfact>
</mgrwt>
</event>
<event>
 5    1  0.4133473E-007  0.2000272E+02  0.7818608E-02  0.1745274E+00
         -3   -1    0    0    0  501 -0.00000000000E+00  0.00000000000E+00  0.21646342045E+01  0.21666310805E+01  0.93000000000E-01 0.  1.
          3   -1    0    0  501    0  0.00000000000E+00 -0.00000000000E+00 -0.46186381853E+02  0.46186475485E+02  0.93000000000E-01 0. -1.
       1023    2    1    2    0    0  0.00000000000E+00  0.00000000000E+00 -0.44021747649E+02  0.48353106565E+02  0.20002716027E+02 0.  0.
        -11    1    3    3    0    0  0.18934388960E+01  0.98204791256E+01 -0.22048380848E+02  0.24210700514E+02  0.51100000000E-03 0. -1.
         11    1    3    3    0    0 -0.18934388960E+01 -0.98204791256E+01 -0.21973366801E+02  0.24142406051E+02  0.51100000000E-03 0.  1.
<mgrwt>
<rscale>  0 0.20002716E+02</rscale>
<asrwt>0</asrwt>
<pdfrwt beam="2">  1        3 0.71057573E-02 0.20002716E+02</pdfrwt>
<pdfrwt beam="1">  1       -3 0.33318149E-03 0.20002716E+02</pdfrwt>
<totfact> 0.16282515E+06</totfact>
</mgrwt>
</event>
<event>
 4    1  0.4133473E-007  0.2001725E+02  0.7818608E-02  0.1744985E+00
         -3   -1    0    0    0  501 -0.00000000000E+00  0.00000000000E+00  0.13090030752E+02  0.13090361114E+02  0.93000000000E-01 0. -1.
          3   -1    0    0  501    0  0.00000000000E+00 -0.00000000000E+00 -0.76518724892E+01  0.76524376241E+01  0.93000000000E-01 0.  1.
        -11    1    1    2    0    0 -0.84315426615E+01 -0.53919675291E+01  0.26246282530E+01  0.10346637097E+02  0.51100000000E-03 0.  1.
         11    1    1    2    0    0  0.84315426615E+01  0.53919675291E+01  0.28135300099E+01  0.10396161641E+02  0.51100000000E-03 0. -1.
<mgrwt>
<rscale>  0 0.20017246E+02</rscale>
<asrwt>0</asrwt>
<pdfrwt beam="2">  1        3 0.11772800E-02 0.20017246E+02</pdfrwt>
<pdfrwt beam="1">  1       -3 0.20139197E-02 0.20017246E+02</pdfrwt>
<totfact> 0.17804273E+06</totfact>
</mgrwt>
</event>
<event>
 5    1  0.4133473E-007  0.2000071E+02  0.7818608E-02  0.1745314E+00
         -3   -1    0    0    0  501 -0.00000000000E+00  0.00000000000E+00  0.57478724029E+02  0.57478799266E+02  0.93000000000E-01 0. -1.
          3   -1    0    0  501    0  0.00000000000E+00 -0.00000000000E+00 -0.17385793336E+01  0.17410649325E+01  0.93000000000E-01 0.  1.
       1023    2    1    2    0    0  0.00000000000E+00  0.00000000000E+00  0.55740144696E+02  0.59219864198E+02  0.20000714611E+02 0.  0.
        -11    1    3    3    0    0  0.39833229337E+01  0.91727935908E+01  0.27905371119E+02  0.29643156738E+02  0.51100000000E-03 0. -1.
         11    1    3    3    0    0 -0.39833229337E+01 -0.91727935908E+01  0.27834773577E+02  0.29576707460E+02  0.51100000000E-03 0.  1.
<mgrwt>
<rscale>  0 0.20000715E+02</rscale>
<asrwt>0</asrwt>
<pdfrwt beam="2">  1        3 0.26767075E-03 0.20000715E+02</pdfrwt>
<pdfrwt beam="1">  1       -3 0.88430771E-02 0.20000715E+02</pdfrwt>
<totfact> 0.15780080E+06</totfact>
</mgrwt>
</event>
<event>
 5    1  0.4354946E-007  0.2000192E+02  0.7818608E-02  0.1745290E+00
         -3   -1    0    0    0  501 -0.00000000000E+00  0.00000000000E+00  0.69576762389E+01  0.69582977549E+01  0.93000000000E-01 0.  1.
          3   -1    0    0  501    0  0.00000000000E+00 -0.00000000000E+00 -0.14373966264E+02  0.14374267117E+02  0.93000000000E-01 0. -1.
       1023    2    1    2    0    0  0.00000000000E+00  0.00000000000E+00 -0.74162900247E+01  0.21332564872E+02  0.20001924064E+02 0.  0.
        -11    1    3    3    0    0 -0.11842580064E+01  0.99296481814E+01 -0.38546177664E+01  0.10717203853E+02  0.51100000000E-03 0.  1.
         11    1    3    3    0    0  0.11842580064E+01 -0.99296481814E+01 -0.35616722583E+01  0.10615361019E+02  0.51100000000E-03 0. -1.
<mgrwt>
<rscale>  0 0.20001924E+02</rscale>
<asrwt>0</asrwt>
<pdfrwt beam="2">  1        3 0.22114504E-02 0.20001924E+02</pdfrwt>
<pdfrwt beam="1">  1       -3 0.10704827E-02 0.20001924E+02</pdfrwt>
<totfact> 0.17794766E+06</totfact>
</mgrwt>
</event>
<event>
 5    1  0.4133473E-007  0.2000170E+02  0.7818608E-02  0.1745294E+00
         -3   -1    0    0    0  501 -0.00000000000E+00  0.00000000000E+00  0.89836530014E+02  0.89836578152E+02  0.93000000000E-01 0.  1.
          3   -1    0    0  501    0  0.00000000000E+00 -0.00000000000E+00 -0.11113311185E+01  0.11152156092E+01  0.93000000000E-01 0. -1.
       1023    2    1    2    0    0  0.00000000000E+00  0.00000000000E+00  0.88725198896E+02  0.90951793761E+02  0.20001696659E+02 0.  0.
        -11    1    3    3    0    0  0.82419831981E+01 -0.56644790604E+01  0.44448514138E+02  0.45559708289E+02  0.51100000000E-03 0.  1.
         11    1    3    3    0    0 -0.82419831981E+01  0.56644790604E+01  0.44276684758E+02  0.45392085472E+02  0.51100000000E-03 0. -1.
<mgrwt>
<rscale>  0 0.20001697E+02</rscale>
<asrwt>0</asrwt>
<pdfrwt beam="2">  1        3 0.17127653E-03 0.20001697E+02</pdfrwt>
<pdfrwt beam="1">  1       -3 0.13821307E-01 0.20001697E+02</pdfrwt>
<totfact> 0.14499601E+06</totfact>
</mgrwt>
</event>
<event>
 5    1  0.4133473E-007  0.2000084E+02  0.7818608E-02  0.1745311E+00
          3   -1    0    0  501    0  0.00000000000E+00  0.00000000000E+00  0.70631432347E+02  0.70631493573E+02  0.93000000000E-01 0.  1.
         -3   -1    0    0    0  501 -0.00000000000E+00 -0.00000000000E+00 -0.14143307027E+01  0.14173850347E+01  0.93000000000E-01 0. -1.
       1023    2    1    2    0    0  0.00000000000E+00  0.00000000000E+00  0.69217101644E+02  0.72048878608E+02  0.20000843698E+02 0.  0.
        -11    1    3    3    0    0 -0.89424405544E+01  0.44764396760E+01  0.34422007397E+02  0.35845227699E+02  0.51100000000E-03 0.  1.
         11    1    3    3    0    0  0.89424405544E+01 -0.44764396760E+01  0.34795094247E+02  0.36203650909E+02  0.51100000000E-03 0. -1.
<mgrwt>
<rscale>  0 0.20000844E+02</rscale>
<asrwt>0</asrwt>
<pdfrwt beam="1">  1        3 0.10866614E-01 0.20000844E+02</pdfrwt>
<pdfrwt beam="2">  1       -3 0.21782899E-03 0.20000844E+02</pdfrwt>
<totfact> 0.15227177E+06</totfact>
</mgrwt>
</event>
<event>
 5    1  0.4133473E-007  0.2000024E+02  0.7818608E-02  0.1745323E+00
         -3   -1    0    0    0  501 -0.00000000000E+00  0.00000000000E+00  0.29041837879E+01  0.29056724650E+01  0.93000000000E-01 0. -1.
          3   -1    0    0  501    0  0.00000000000E+00 -0.00000000000E+00 -0.34423533207E+02  0.34423658833E+02  0.93000000000E-01 0.  1.
       1023    2    1    2    0    0  0.00000000000E+00  0.00000000000E+00 -0.31519349419E+02  0.37329331298E+02  0.20000239682E+02 0.  0.
        -11    1    3    3    0    0  0.80377823768E+01 -0.59494600021E+01 -0.15795901171E+02  0.18695253781E+02  0.51100000000E-03 0. -1.
         11    1    3    3    0    0 -0.80377823768E+01  0.59494600021E+01 -0.15723448247E+02  0.18634077517E+02  0.51100000000E-03 0.  1.
<mgrwt>
<rscale>  0 0.20000240E+02</rscale>
<asrwt>0</asrwt>
<pdfrwt beam="2">  1        3 0.52960521E-02 0.20000240E+02</pdfrwt>
<pdfrwt beam="1">  1       -3 0.44692171E-03 0.20000240E+02</pdfrwt>
<totfact> 0.16854109E+06</totfact>
</mgrwt>
</event>
<event>
 5    1  0.4659968E-007  0.2000197E+02  0.7818608E-02  0.1745289E+00
         -3   -1    0    0    0  501 -0.00000000000E+00  0.00000000000E+00  0.20442857981E+02  0.20443069521E+02  0.93000000000E-01 0.  1.
          3   -1    0    0  501    0  0.00000000000E+00 -0.00000000000E+00 -0.48919704055E+01  0.48928543253E+01  0.93000000000E-01 0. -1.
       1023    2    1    2    0    0  0.00000000000E+00  0.00000000000E+00  0.15550887575E+02  0.25335923846E+02  0.20001973221E+02 0.  0.
        -11    1    3    3    0    0 -0.99992648803E+01  0.14355123518E+00  0.79243938828E+01  0.12759385713E+02  0.51100000000E-03 0. -1.
         11    1    3    3    0    0  0.99992648803E+01 -0.14355123518E+00  0.76264936925E+01  0.12576538133E+02  0.51100000000E-03 0.  1.
<mgrwt>
<rscale>  0 0.20001973E+02</rscale>
<asrwt>0</asrwt>
<pdfrwt beam="2">  1        3 0.75269509E-03 0.20001973E+02</pdfrwt>
<pdfrwt beam="1">  1       -3 0.31451394E-02 0.20001973E+02</pdfrwt>
<totfact> 0.17543409E+06</totfact>
</mgrwt>
</event>
<event>
 5    1  0.4133473E-007  0.2000135E+02  0.7818608E-02  0.1745301E+00
         -3   -1    0    0    0  501 -0.00000000000E+00  0.00000000000E+00  0.30412495989E+01  0.30426712151E+01  0.93000000000E-01 0.  1.
          3   -1    0    0  501    0  0.00000000000E+00 -0.00000000000E+00 -0.32876495373E+02  0.32876626910E+02  0.93000000000E-01 0. -1.
       1023    2    1    2    0    0  0.00000000000E+00  0.00000000000E+00 -0.29835245774E+02  0.35919298125E+02  0.20001352140E+02 0.  0.
        -11    1    3    3    0    0  0.51876163750E+01 -0.85499760409E+01 -0.14902852968E+02  0.17947380890E+02  0.51100000000E-03 0. -1.
         11    1    3    3    0    0 -0.51876163750E+01  0.85499760409E+01 -0.14932392806E+02  0.17971917236E+02  0.51100000000E-03 0.  1.
<mgrwt>
<rscale>  0 0.20001352E+02</rscale>
<asrwt>0</asrwt>
<pdfrwt beam="2">  1        3 0.50580416E-02 0.20001352E+02</pdfrwt>
<pdfrwt beam="1">  1       -3 0.46800405E-03 0.20001352E+02</pdfrwt>
<totfact> 0.16928917E+06</totfact>
</mgrwt>
</event>
<event>
 5    1  0.4133473E-007  0.2000460E+02  0.7818608E-02  0.1745237E+00
         -3   -1    0    0    0  501 -0.00000000000E+00  0.00000000000E+00  0.95120471385E+01  0.95125017616E+01  0.93000000000E-01 0.  1.
          3   -1    0    0  501    0  0.00000000000E+00 -0.00000000000E+00 -0.10516904575E+02  0.10517315762E+02  0.93000000000E-01 0. -1.
       1023    2    1    2    0    0  0.00000000000E+00  0.00000000000E+00 -0.10048574364E+01  0.20029817524E+02  0.20004595761E+02 0.  0.
        -11    1    3    3    0    0  0.94566091828E+01 -0.32528933823E+01 -0.69551904753E+00  0.10024595732E+02  0.51100000000E-03 0. -1.
         11    1    3    3    0    0 -0.94566091828E+01  0.32528933823E+01 -0.30933838890E+00  0.10005221791E+02  0.51100000000E-03 0.  1.
<mgrwt>
<rscale>  0 0.20004596E+02</rscale>
<asrwt>0</asrwt>
<pdfrwt beam="2">  1        3 0.16180519E-02 0.20004596E+02</pdfrwt>
<pdfrwt beam="1">  1       -3 0.14634585E-02 0.20004596E+02</pdfrwt>
<totfact> 0.17874790E+06</totfact>
</mgrwt>
</event>
<event>
 5    1  0.4266661E-007  0.2000493E+02  0.7818608E-02  0.1745230E+00
          3   -1    0    0  501    0  0.00000000000E+00  0.00000000000E+00  0.13948112672E+02  0.13948422710E+02  0.93000000000E-01 0.  1.
         -3   -1    0    0    0  501 -0.00000000000E+00 -0.00000000000E+00 -0.71722749391E+01  0.71728778605E+01  0.93000000000E-01 0. -1.
       1023    2    1    2    0    0  0.00000000000E+00  0.00000000000E+00  0.67758377325E+01  0.21121300571E+02  0.20004933412E+02 0.  0.
        -11    1    3    3    0    0 -0.99810900304E+01 -0.64650643665E+00  0.34892495766E+01  0.10593157775E+02  0.51100000000E-03 0.  1.
         11    1    3    3    0    0  0.99810900304E+01  0.64650643665E+00  0.32865881559E+01  0.10528142796E+02  0.51100000000E-03 0. -1.
<mgrwt>
<rscale>  0 0.20004933E+02</rscale>
<asrwt>0</asrwt>
<pdfrwt beam="1">  1        3 0.21459337E-02 0.20004933E+02</pdfrwt>
<pdfrwt beam="2">  1       -3 0.11034972E-02 0.20004933E+02</pdfrwt>
<totfact> 0.17802709E+06</totfact>
</mgrwt>
</event>
<event>
 5    1  0.4133473E-007  0.2000016E+02  0.7818608E-02  0.1745325E+00
          3   -1    0    0  501    0  0.00000000000E+00  0.00000000000E+00  0.73581198199E+02  0.73581256970E+02  0.93000000000E-01 0. -1.
         -3   -1    0    0    0  501 -0.00000000000E+00 -0.00000000000E+00 -0.13574142384E+01  0.13605963452E+01  0.93000000000E-01 0.  1.
       1023    2    1    2    0    0  0.00000000000E+00  0.00000000000E+00  0.72223783960E+02  0.74941853316E+02  0.20000160221E+02 0.  0.
        -11    1    3    3    0    0 -0.50142074657E+01  0.86521014767E+01  0.36031049240E+02  0.37393016007E+02  0.51100000000E-03 0. -1.
         11    1    3    3    0    0  0.50142074657E+01 -0.86521014767E+01  0.36192734720E+02  0.37548837309E+02  0.51100000000E-03 0.  1.
<mgrwt>
<rscale>  0 0.20000160E+02</rscale>
<asrwt>0</asrwt>
<pdfrwt beam="1">  1        3 0.11320432E-01 0.20000160E+02</pdfrwt>
<pdfrwt beam="2">  1       -3 0.20908229E-03 0.20000160E+02</pdfrwt>
<totfact> 0.15110975E+06</totfact>
</mgrwt>
</event>
<event>
 5    1  0.4355890E-007  0.2000174E+02  0.7818608E-02  0.1745294E+00
          3   -1    0    0  501    0  0.00000000000E+00  0.00000000000E+00  0.43413211697E+01  0.43423171808E+01  0.93000000000E-01 0. -1.
         -3   -1    0    0    0  501 -0.00000000000E+00 -0.00000000000E+00 -0.23034734871E+02  0.23034922608E+02  0.93000000000E-01 0.  1.
       1023    2    1    2    0    0  0.00000000000E+00  0.00000000000E+00 -0.18693413701E+02  0.27377239789E+02  0.20001738491E+02 0.  0.
        -11    1    3    3    0    0  0.33116781385E+01 -0.94361089539E+01 -0.94837256437E+01  0.13782177500E+02  0.51100000000E-03 0. -1.
         11    1    3    3    0    0 -0.33116781385E+01  0.94361089539E+01 -0.92096880576E+01  0.13595062290E+02  0.51100000000E-03 0.  1.
<mgrwt>
<rscale>  0 0.20001738E+02</rscale>
<asrwt>0</asrwt>
<pdfrwt beam="1">  1        3 0.66798663E-03 0.20001738E+02</pdfrwt>
<pdfrwt beam="2">  1       -3 0.35438964E-02 0.20001738E+02</pdfrwt>
<totfact> 0.17419949E+06</totfact>
</mgrwt>
</event>
<event>
 5    1  0.4133473E-007  0.2000029E+02  0.7818608E-02  0.1745322E+00
          3   -1    0    0  501    0  0.00000000000E+00  0.00000000000E+00  0.10928091746E+02  0.10928487462E+02  0.93000000000E-01 0.  1.
         -3   -1    0    0    0  501 -0.00000000000E+00 -0.00000000000E+00 -0.91502005154E+01  0.91506731158E+01  0.93000000000E-01 0. -1.
       1023    2    1    2    0    0  0.00000000000E+00  0.00000000000E+00  0.17778912308E+01  0.20079160578E+02  0.20000294805E+02 0.  0.
        -11    1    3    3    0    0 -0.93852987537E+01  0.34524045966E+01  0.88473187498E+00  0.10039207187E+02  0.51100000000E-03 0. -1.
         11    1    3    3    0    0  0.93852987537E+01 -0.34524045966E+01  0.89315935581E+00  0.10039953391E+02  0.51100000000E-03 0.  1.
<mgrwt>
<rscale>  0 0.20000295E+02</rscale>
<asrwt>0</asrwt>
<pdfrwt beam="1">  1        3 0.16813117E-02 0.20000295E+02</pdfrwt>
<pdfrwt beam="2">  1       -3 0.14077900E-02 0.20000295E+02</pdfrwt>
<totfact> 0.17879835E+06</totfact>
</mgrwt>
</event>
<event>
 5    1  0.4133473E-007  0.2000233E+02  0.7818608E-02  0.1745282E+00
          3   -1    0    0  501    0  0.00000000000E+00  0.00000000000E+00  0.40608031994E+02  0.40608138487E+02  0.93000000000E-01 0. -1.
         -3   -1    0    0    0  501 -0.00000000000E+00 -0.00000000000E+00 -0.24621543122E+01  0.24639100749E+01  0.93000000000E-01 0.  1.
       1023    2    1    2    0    0  0.00000000000E+00  0.00000000000E+00  0.38145877682E+02  0.43072048562E+02  0.20002334445E+02 0.  0.
        -11    1    3    3    0    0 -0.99370292981E+01 -0.11275405111E+01  0.19258760394E+02  0.21700593334E+02  0.51100000000E-03 0.  1.
         11    1    3    3    0    0  0.99370292981E+01  0.11275405111E+01  0.18887117288E+02  0.21371455228E+02  0.51100000000E-03 0. -1.
<mgrwt>
<rscale>  0 0.20002334E+02</rscale>
<asrwt>0</asrwt>
<pdfrwt beam="1">  1        3 0.62475326E-02 0.20002334E+02</pdfrwt>
<pdfrwt beam="2">  1       -3 0.37893623E-03 0.20002334E+02</pdfrwt>
<totfact> 0.16547916E+06</totfact>
</mgrwt>
</event>
<event>
 5    1  0.4133473E-007  0.2000638E+02  0.7818608E-02  0.1745201E+00
          3   -1    0    0  501    0  0.00000000000E+00  0.00000000000E+00  0.16682293020E+02  0.16682552245E+02  0.93000000000E-01 0.  1.
         -3   -1    0    0    0  501 -0.00000000000E+00 -0.00000000000E+00 -0.59975379641E+01  0.59982589666E+01  0.93000000000E-01 0. -1.
       1023    2    1    2    0    0  0.00000000000E+00  0.00000000000E+00  0.10684755056E+02  0.22680811211E+02  0.20006379148E+02 0.  0.
        -11    1    3    3    0    0  0.50601785090E+01  0.86289206198E+01  0.53297644639E+01  0.11334463689E+02  0.51100000000E-03 0. -1.
         11    1    3    3    0    0 -0.50601785090E+01 -0.86289206198E+01  0.53549905916E+01  0.11346347523E+02  0.51100000000E-03 0.  1.
<mgrwt>
<rscale>  0 0.20006379E+02</rscale>
<asrwt>0</asrwt>
<pdfrwt beam="1">  1        3 0.25665820E-02 0.20006379E+02</pdfrwt>
<pdfrwt beam="2">  1       -3 0.92277357E-03 0.20006379E+02</pdfrwt>
<totfact> 0.17699808E+06</totfact>
</mgrwt>
</event>
<event>
 5    1  0.4238272E-007  0.2000177E+02  0.7818608E-02  0.1745293E+00
         -3   -1    0    0    0  501 -0.00000000000E+00  0.00000000000E+00  0.20361791317E+02  0.20362003699E+02  0.93000000000E-01 0.  1.
          3   -1    0    0  501    0  0.00000000000E+00 -0.00000000000E+00 -0.49113527045E+01  0.49122331366E+01  0.93000000000E-01 0. -1.
       1023    2    1    2    0    0  0.00000000000E+00  0.00000000000E+00  0.15450438612E+02  0.25274236835E+02  0.20001774779E+02 0.  0.
        -11    1    3    3    0    0 -0.97602694795E+01 -0.21783355932E+01  0.78499388619E+01  0.12713360951E+02  0.51100000000E-03 0.  1.
         11    1    3    3    0    0  0.97602694795E+01  0.21783355932E+01  0.76004997504E+01  0.12560875885E+02  0.51100000000E-03 0. -1.
<mgrwt>
<rscale>  0 0.20001775E+02</rscale>
<asrwt>0</asrwt>
<pdfrwt beam="2">  1        3 0.75567681E-03 0.20001775E+02</pdfrwt>
<pdfrwt beam="1">  1       -3 0.31326673E-02 0.20001775E+02</pdfrwt>
<totfact> 0.17547577E+06</totfact>
</mgrwt>
</event>
<event>
 5    1  0.4133473E-007  0.2000189E+02  0.7818608E-02  0.1745291E+00
          3   -1    0    0  501    0  0.00000000000E+00  0.00000000000E+00  0.72702583017E+02  0.72702642499E+02  0.93000000000E-01 0. -1.
         -3   -1    0    0    0  501 -0.00000000000E+00 -0.00000000000E+00 -0.13740947677E+01  0.13772383347E+01  0.93000000000E-01 0.  1.
       1023    2    1    2    0    0  0.00000000000E+00  0.00000000000E+00  0.71328488249E+02  0.74079880834E+02  0.20001887621E+02 0.  0.
        -11    1    3    3    0    0 -0.67353146786E+01 -0.73922385744E+01  0.35308580812E+02  0.36697486756E+02  0.51100000000E-03 0.  1.
         11    1    3    3    0    0  0.67353146786E+01  0.73922385744E+01  0.36019907437E+02  0.37382394078E+02  0.51100000000E-03 0. -1.
<mgrwt>
<rscale>  0 0.20001888E+02</rscale>
<asrwt>0</asrwt>
<pdfrwt beam="1">  1        3 0.11185262E-01 0.20001888E+02</pdfrwt>
<pdfrwt beam="2">  1       -3 0.21164553E-03 0.20001888E+02</pdfrwt>
<totfact> 0.15142881E+06</totfact>
</mgrwt>
</event>
<event>
 5    1  0.4185482E-007  0.2000152E+02  0.7818608E-02  0.1745298E+00
         -3   -1    0    0    0  501 -0.00000000000E+00  0.00000000000E+00  0.39735285293E+02  0.39735394126E+02  0.93000000000E-01 0.  1.
          3   -1    0    0  501    0  0.00000000000E+00 -0.00000000000E+00 -0.25160649020E+01  0.25177830707E+01  0.93000000000E-01 0. -1.
       1023    2    1    2    0    0  0.00000000000E+00  0.00000000000E+00  0.37219220391E+02  0.42253177196E+02  0.20001515359E+02 0.  0.
        -11    1    3    3    0    0 -0.69048469692E+01 -0.72335417636E+01  0.18860595973E+02  0.21347672445E+02  0.51100000000E-03 0.  1.
         11    1    3    3    0    0  0.69048469692E+01  0.72335417636E+01  0.18358624418E+02  0.20905504751E+02  0.51100000000E-03 0. -1.
<mgrwt>
<rscale>  0 0.20001515E+02</rscale>
<asrwt>0</asrwt>
<pdfrwt beam="2">  1        3 0.38722746E-03 0.20001515E+02</pdfrwt>
<pdfrwt beam="1">  1       -3 0.61132611E-02 0.20001515E+02</pdfrwt>
<totfact> 0.16593887E+06</totfact>
</mgrwt>
</event>
<event>
 5    1  0.4247148E-007  0.2000095E+02  0.7818608E-02  0.1745309E+00
         -3   -1    0    0    0  501 -0.00000000000E+00  0.00000000000E+00  0.18239603450E+02  0.18239840543E+02  0.93000000000E-01 0.  1.
          3   -1    0    0  501    0  0.00000000000E+00 -0.00000000000E+00 -0.54824291335E+01  0.54832178694E+01  0.93000000000E-01 0. -1.
       1023    2    1    2    0    0  0.00000000000E+00  0.00000000000E+00  0.12757174317E+02  0.23723058412E+02  0.20000950074E+02 0.  0.
        -11    1    3    3    0    0 -0.91617799815E+01  0.40082939036E+01  0.64613445800E+01  0.11906032357E+02  0.51100000000E-03 0. -1.
         11    1    3    3    0    0  0.91617799815E+01 -0.40082939036E+01  0.62958297368E+01  0.11817026055E+02  0.51100000000E-03 0.  1.
<mgrwt>
<rscale>  0 0.20000950E+02</rscale>
<asrwt>0</asrwt>
<pdfrwt beam="2">  1        3 0.84352956E-03 0.20000950E+02</pdfrwt>
<pdfrwt beam="1">  1       -3 0.28061717E-02 0.20000950E+02</pdfrwt>
<totfact> 0.17645414E+06</totfact>
</mgrwt>
</event>
<event>
 5    1  0.4133473E-007  0.2000015E+02  0.7818608E-02  0.1745325E+00
          3   -1    0    0  501    0  0.00000000000E+00  0.00000000000E+00  0.24030410593E+02  0.24030590551E+02  0.93000000000E-01 0.  1.
         -3   -1    0    0    0  501 -0.00000000000E+00 -0.00000000000E+00 -0.41607429461E+01  0.41617821739E+01  0.93000000000E-01 0. -1.
       1023    2    1    2    0    0  0.00000000000E+00  0.00000000000E+00  0.19869667647E+02  0.28192372725E+02  0.20000154687E+02 0.  0.
        -11    1    3    3    0    0 -0.57394146835E+01  0.81890567338E+01  0.99292813890E+01  0.14092273069E+02  0.51100000000E-03 0. -1.
         11    1    3    3    0    0  0.57394146835E+01 -0.81890567338E+01  0.99403862575E+01  0.14100099656E+02  0.51100000000E-03 0.  1.
<mgrwt>
<rscale>  0 0.20000155E+02</rscale>
<asrwt>0</asrwt>
<pdfrwt beam="1">  1        3 0.36970800E-02 0.20000155E+02</pdfrwt>
<pdfrwt beam="2">  1       -3 0.64020809E-03 0.20000155E+02</pdfrwt>
<totfact> 0.17372677E+06</totfact>
</mgrwt>
</event>
<event>
 5    1  0.4133473E-007  0.2000039E+02  0.7818608E-02  0.1745320E+00
          3   -1    0    0  501    0  0.00000000000E+00  0.00000000000E+00  0.14043049373E+01  0.14073810276E+01  0.93000000000E-01 0. -1.
         -3   -1    0    0    0  501 -0.00000000000E+00 -0.00000000000E+00 -0.71131357883E+02  0.71131418679E+02  0.93000000000E-01 0.  1.
       1023    2    1    2    0    0  0.00000000000E+00  0.00000000000E+00 -0.69727052945E+02  0.72538799706E+02  0.20000388756E+02 0.  0.
        -11    1    3    3    0    0 -0.60178596440E+01 -0.79866680270E+01 -0.35040704355E+02  0.36439709972E+02  0.51100000000E-03 0.  1.
         11    1    3    3    0    0  0.60178596440E+01  0.79866680270E+01 -0.34686348590E+02  0.36099089734E+02  0.51100000000E-03 0. -1.
<mgrwt>
<rscale>  0 0.20000389E+02</rscale>
<asrwt>0</asrwt>
<pdfrwt beam="1">  1        3 0.21628827E-03 0.20000389E+02</pdfrwt>
<pdfrwt beam="2">  1       -3 0.10943524E-01 0.20000389E+02</pdfrwt>
<totfact> 0.15210780E+06</totfact>
</mgrwt>
</event>
<event>
 5    1  0.4358313E-007  0.2000102E+02  0.7818608E-02  0.1745308E+00
         -3   -1    0    0    0  501 -0.00000000000E+00  0.00000000000E+00  0.13903427660E+02  0.13903738695E+02  0.93000000000E-01 0. -1.
          3   -1    0    0  501    0  0.00000000000E+00 -0.00000000000E+00 -0.71925098698E+01  0.71931110951E+01  0.93000000000E-01 0.  1.
       1023    2    1    2    0    0  0.00000000000E+00  0.00000000000E+00  0.67109177901E+01  0.21096849790E+02  0.20001016311E+02 0.  0.
        -11    1    3    3    0    0  0.91383470012E+01  0.40617146172E+01  0.34156055600E+01  0.10567557577E+02  0.51100000000E-03 0. -1.
         11    1    3    3    0    0 -0.91383470012E+01 -0.40617146172E+01  0.32953122301E+01  0.10529292213E+02  0.51100000000E-03 0.  1.
<mgrwt>
<rscale>  0 0.20001016E+02</rscale>
<asrwt>0</asrwt>
<pdfrwt beam="2">  1        3 0.11066102E-02 0.20001016E+02</pdfrwt>
<pdfrwt beam="1">  1       -3 0.21390590E-02 0.20001016E+02</pdfrwt>
<totfact> 0.17812396E+06</totfact>
</mgrwt>
</event>
<event>
 5    1  0.4133473E-007  0.2000304E+02  0.7818608E-02  0.1745268E+00
          3   -1    0    0  501    0  0.00000000000E+00  0.00000000000E+00  0.41839634460E+01  0.41849969077E+01  0.93000000000E-01 0. -1.
         -3   -1    0    0    0  501 -0.00000000000E+00 -0.00000000000E+00 -0.23903973951E+02  0.23904154862E+02  0.93000000000E-01 0.  1.
       1023    2    1    2    0    0  0.00000000000E+00  0.00000000000E+00 -0.19720010505E+02  0.28089151770E+02  0.20003040589E+02 0.  0.
        -11    1    3    3    0    0 -0.64137047309E+01 -0.76741508522E+01 -0.97940167699E+01  0.13998248620E+02  0.51100000000E-03 0.  1.
         11    1    3    3    0    0  0.64137047309E+01  0.76741508522E+01 -0.99259937355E+01  0.14090903150E+02  0.51100000000E-03 0. -1.
<mgrwt>
<rscale>  0 0.20003041E+02</rscale>
<asrwt>0</asrwt>
<pdfrwt beam="1">  1        3 0.64378011E-03 0.20003041E+02</pdfrwt>
<pdfrwt beam="2">  1       -3 0.36776278E-02 0.20003041E+02</pdfrwt>
<totfact> 0.17374964E+06</totfact>
</mgrwt>
</event>
<event>
 5    1  0.4133473E-007  0.2000009E+02  0.7818608E-02  0.1745326E+00
         -3   -1    0    0    0  501 -0.00000000000E+00  0.00000000000E+00  0.55626486059E+01  0.55634259691E+01  0.93000000000E-01 0. -1.
          3   -1    0    0  501    0  0.00000000000E+00 -0.00000000000E+00 -0.17975056346E+02  0.17975296928E+02  0.93000000000E-01 0.  1.
       1023    2    1    2    0    0  0.00000000000E+00  0.00000000000E+00 -0.12412407740E+02  0.23538722897E+02  0.20000090243E+02 0.  0.
        -11    1    3    3    0    0 -0.89914974076E+01  0.43764737573E+01 -0.62283473221E+01  0.11781038104E+02  0.51100000000E-03 0. -1.
         11    1    3    3    0    0  0.89914974076E+01 -0.43764737573E+01 -0.61840604182E+01  0.11757684793E+02  0.51100000000E-03 0.  1.
<mgrwt>
<rscale>  0 0.20000090E+02</rscale>
<asrwt>0</asrwt>
<pdfrwt beam="2">  1        3 0.27654716E-02 0.20000090E+02</pdfrwt>
<pdfrwt beam="1">  1       -3 0.85587040E-03 0.20000090E+02</pdfrwt>
<totfact> 0.17657555E+06</totfact>
</mgrwt>
</event>
<event>
 5    1  0.4194887E-007  0.2000064E+02  0.7818608E-02  0.1745315E+00
          3   -1    0    0  501    0  0.00000000000E+00  0.00000000000E+00  0.15281777980E+02  0.15282060962E+02  0.93000000000E-01 0. -1.
         -3   -1    0    0    0  501 -0.00000000000E+00 -0.00000000000E+00 -0.65434884625E+01  0.65441493152E+01  0.93000000000E-01 0.  1.
       1023    2    1    2    0    0  0.00000000000E+00  0.00000000000E+00  0.87382895176E+01  0.21826210277E+02  0.20000643773E+02 0.  0.
        -11    1    3    3    0    0  0.91756376787E+01  0.39763000138E+01  0.43079071418E+01  0.10888588192E+02  0.51100000000E-03 0.  1.
         11    1    3    3    0    0 -0.91756376787E+01 -0.39763000138E+01  0.44303823758E+01  0.10937622085E+02  0.51100000000E-03 0. -1.
<mgrwt>
<rscale>  0 0.20000644E+02</rscale>
<asrwt>0</asrwt>
<pdfrwt beam="1">  1        3 0.23511153E-02 0.20000644E+02</pdfrwt>
<pdfrwt beam="2">  1       -3 0.10067631E-02 0.20000644E+02</pdfrwt>
<totfact> 0.17765369E+06</totfact>
</mgrwt>
</event>
<event>
 5    1  0.4133473E-007  0.2000270E+02  0.7818608E-02  0.1745274E+00
         -3   -1    0    0    0  501 -0.00000000000E+00  0.00000000000E+00  0.41235806157E+01  0.41246292069E+01  0.93000000000E-01 0.  1.
          3   -1    0    0  501    0  0.00000000000E+00 -0.00000000000E+00 -0.24253092896E+02  0.24253271203E+02  0.93000000000E-01 0. -1.
       1023    2    1    2    0    0  0.00000000000E+00  0.00000000000E+00 -0.20129512280E+02  0.28377900410E+02  0.20002698993E+02 0.  0.
        -11    1    3    3    0    0  0.59999494200E+01  0.80008715155E+01 -0.10230528726E+02  0.14306538936E+02  0.51100000000E-03 0.  1.
         11    1    3    3    0    0 -0.59999494200E+01 -0.80008715155E+01 -0.98989835547E+01  0.14071361474E+02  0.51100000000E-03 0. -1.
<mgrwt>
<rscale>  0 0.20002699E+02</rscale>
<asrwt>0</asrwt>
<pdfrwt beam="2">  1        3 0.37313393E-02 0.20002699E+02</pdfrwt>
<pdfrwt beam="1">  1       -3 0.63449141E-03 0.20002699E+02</pdfrwt>
<totfact> 0.17356882E+06</totfact>
</mgrwt>
</event>
<event>
 5    1  0.4394040E-007  0.2000177E+02  0.7818608E-02  0.1745293E+00
         -3   -1    0    0    0  501 -0.00000000000E+00  0.00000000000E+00  0.18165107268E+02  0.18165345333E+02  0.93000000000E-01 0. -1.
          3   -1    0    0  501    0  0.00000000000E+00 -0.00000000000E+00 -0.55053698994E+01  0.55061553491E+01  0.93000000000E-01 0.  1.
       1023    2    1    2    0    0  0.00000000000E+00  0.00000000000E+00  0.12659737369E+02  0.23671500682E+02  0.20001774779E+02 0.  0.
        -11    1    3    3    0    0  0.61069200355E+01  0.79195729014E+01  0.62584567558E+01  0.11797558582E+02  0.51100000000E-03 0.  1.
         11    1    3    3    0    0 -0.61069200355E+01 -0.79195729014E+01  0.64012806132E+01  0.11873942101E+02  0.51100000000E-03 0. -1.
<mgrwt>
<rscale>  0 0.20001775E+02</rscale>
<asrwt>0</asrwt>
<pdfrwt beam="2">  1        3 0.84705872E-03 0.20001775E+02</pdfrwt>
<pdfrwt beam="1">  1       -3 0.27947106E-02 0.20001775E+02</pdfrwt>
<totfact> 0.17647072E+06</totfact>
</mgrwt>
</event>
<event>
 5    1  0.4162920E-007  0.2000094E+02  0.7818608E-02  0.1745309E+00
         -3   -1    0    0    0  501 -0.00000000000E+00  0.00000000000E+00  0.19268916841E+01  0.19291346667E+01  0.93000000000E-01 0.  1.
          3   -1    0    0  501    0  0.00000000000E+00 -0.00000000000E+00 -0.51869440306E+02  0.51869523679E+02  0.93000000000E-01 0. -1.
       1023    2    1    2    0    0  0.00000000000E+00  0.00000000000E+00 -0.49942548622E+02  0.53798658346E+02  0.20000936901E+02 0.  0.
        -11    1    3    3    0    0 -0.13322189577E+01  0.99112860814E+01 -0.24887508105E+02  0.26821567051E+02  0.51100000000E-03 0. -1.
         11    1    3    3    0    0  0.13322189577E+01 -0.99112860814E+01 -0.25055040518E+02  0.26977091295E+02  0.51100000000E-03 0.  1.
<mgrwt>
<rscale>  0 0.20000937E+02</rscale>
<asrwt>0</asrwt>
<pdfrwt beam="2">  1        3 0.79800918E-02 0.20000937E+02</pdfrwt>
<pdfrwt beam="1">  1       -3 0.29662386E-03 0.20000937E+02</pdfrwt>
<totfact> 0.16025084E+06</totfact>
</mgrwt>
</event>
<event>
 4    1  0.4133473E-007  0.2001960E+02  0.7818608E-02  0.1744939E+00
          3   -1    0    0  501    0  0.00000000000E+00  0.00000000000E+00  0.10692426754E+01  0.10732795064E+01  0.93000000000E-01 0. -1.
         -3   -1    0    0    0  501 -0.00000000000E+00 -0.00000000000E+00 -0.93526940646E+02  0.93526986884E+02  0.93000000000E-01 0.  1.
        -11    1    1    2    0    0  0.21873558786E+01  0.97606158552E+01 -0.48009345689E+02  0.49040304051E+02  0.51100000000E-03 0.  1.
         11    1    1    2    0    0 -0.21873558786E+01 -0.97606158552E+01 -0.44448352281E+02  0.45559962339E+02  0.51100000000E-03 0. -1.
<mgrwt>
<rscale>  0 0.20019603E+02</rscale>
<asrwt>0</asrwt>
<pdfrwt beam="1">  1        3 0.16481303E-03 0.20019603E+02</pdfrwt>
<pdfrwt beam="2">  1       -3 0.14389068E-01 0.20019603E+02</pdfrwt>
<totfact> 0.14340473E+06</totfact>
</mgrwt>
</event>
<event>
 5    1  0.4133473E-007  0.2000019E+02  0.7818608E-02  0.1745324E+00
         -3   -1    0    0    0  501 -0.00000000000E+00  0.00000000000E+00  0.64716333200E+01  0.64723015094E+01  0.93000000000E-01 0.  1.
          3   -1    0    0  501    0  0.00000000000E+00 -0.00000000000E+00 -0.15450734661E+02  0.15451014548E+02  0.93000000000E-01 0. -1.
       1023    2    1    2    0    0  0.00000000000E+00  0.00000000000E+00 -0.89791013413E+01  0.21923316058E+02  0.20000188151E+02 0.  0.
        -11    1    3    3    0    0 -0.57450607393E+01  0.81851169627E+01 -0.44942863549E+01  0.10963597616E+02  0.51100000000E-03 0.  1.
         11    1    3    3    0    0  0.57450607393E+01 -0.81851169627E+01 -0.44848149864E+01  0.10959718441E+02  0.51100000000E-03 0. -1.
<mgrwt>
<rscale>  0 0.20000188E+02</rscale>
<asrwt>0</asrwt>
<pdfrwt beam="2">  1        3 0.23771090E-02 0.20000188E+02</pdfrwt>
<pdfrwt beam="1">  1       -3 0.99570883E-03 0.20000188E+02</pdfrwt>
<totfact> 0.17760005E+06</totfact>
</mgrwt>
</event>
<event>
 5    1  0.4186827E-007  0.2000068E+02  0.7818608E-02  0.1745315E+00
          3   -1    0    0  501    0  0.00000000000E+00  0.00000000000E+00  0.19115007593E+02  0.19115233827E+02  0.93000000000E-01 0. -1.
         -3   -1    0    0    0  501 -0.00000000000E+00 -0.00000000000E+00 -0.52311766020E+01  0.52320032149E+01  0.93000000000E-01 0.  1.
       1023    2    1    2    0    0  0.00000000000E+00  0.00000000000E+00  0.13883830991E+02  0.24347237042E+02  0.20000679704E+02 0.  0.
        -11    1    3    3    0    0  0.38124772548E+01  0.92449461558E+01  0.68776777631E+01  0.12136987432E+02  0.51100000000E-03 0.  1.
         11    1    3    3    0    0 -0.38124772548E+01 -0.92449461558E+01  0.70061532279E+01  0.12210249611E+02  0.51100000000E-03 0. -1.
<mgrwt>
<rscale>  0 0.20000680E+02</rscale>
<asrwt>0</asrwt>
<pdfrwt beam="1">  1        3 0.29408513E-02 0.20000680E+02</pdfrwt>
<pdfrwt beam="2">  1       -3 0.80487740E-03 0.20000680E+02</pdfrwt>
<totfact> 0.17605877E+06</totfact>
</mgrwt>
</event>
<event>
 5    1  0.4133473E-007  0.2000229E+02  0.7818608E-02  0.1745283E+00
          3   -1    0    0  501    0  0.00000000000E+00  0.00000000000E+00  0.42656598486E+02  0.42656699866E+02  0.93000000000E-01 0.  1.
         -3   -1    0    0    0  501 -0.00000000000E+00 -0.00000000000E+00 -0.23438130209E+01  0.23456573657E+01  0.93000000000E-01 0. -1.
       1023    2    1    2    0    0  0.00000000000E+00  0.00000000000E+00  0.40312785465E+02  0.45002357231E+02  0.20002286979E+02 0.  0.
        -11    1    3    3    0    0  0.90400522588E+01  0.42778717814E+01  0.20129865613E+02  0.22477415814E+02  0.51100000000E-03 0.  1.
         11    1    3    3    0    0 -0.90400522588E+01 -0.42778717814E+01  0.20182919853E+02  0.22524941417E+02  0.51100000000E-03 0. -1.
<mgrwt>
<rscale>  0 0.20002287E+02</rscale>
<asrwt>0</asrwt>
<pdfrwt beam="1">  1        3 0.65627037E-02 0.20002287E+02</pdfrwt>
<pdfrwt beam="2">  1       -3 0.36073627E-03 0.20002287E+02</pdfrwt>
<totfact> 0.16449767E+06</totfact>
</mgrwt>
</event>
<event>
 5    1  0.4133473E-007  0.2000985E+02  0.7818608E-02  0.1745132E+00
          3   -1    0    0  501    0  0.00000000000E+00  0.00000000000E+00  0.12130863802E+02  0.12131220284E+02  0.93000000000E-01 0.  1.
         -3   -1    0    0    0  501 -0.00000000000E+00 -0.00000000000E+00 -0.82508161772E+01  0.82513402905E+01  0.93000000000E-01 0. -1.
       1023    2    1    2    0    0  0.00000000000E+00  0.00000000000E+00  0.38800476246E+01  0.20382560575E+02  0.20009847726E+02 0.  0.
        -11    1    3    3    0    0 -0.44710629204E+01 -0.89501025474E+01  0.20025013612E+01  0.10203173585E+02  0.51100000000E-03 0. -1.
         11    1    3    3    0    0  0.44710629204E+01  0.89501025474E+01  0.18775462635E+01  0.10179386989E+02  0.51100000000E-03 0.  1.
<mgrwt>
<rscale>  0 0.20009848E+02</rscale>
<asrwt>0</asrwt>
<pdfrwt beam="1">  1        3 0.18663545E-02 0.20009848E+02</pdfrwt>
<pdfrwt beam="2">  1       -3 0.12694241E-02 0.20009848E+02</pdfrwt>
<totfact> 0.17841478E+06</totfact>
</mgrwt>
</event>
<event>
 5    1  0.4133473E-007  0.2000014E+02  0.7818608E-02  0.1745325E+00
          3   -1    0    0  501    0  0.00000000000E+00  0.00000000000E+00  0.19975858792E+01  0.19997495705E+01  0.93000000000E-01 0.  1.
         -3   -1    0    0    0  501 -0.00000000000E+00 -0.00000000000E+00 -0.50031828705E+02  0.50031915140E+02  0.93000000000E-01 0. -1.
       1023    2    1    2    0    0  0.00000000000E+00  0.00000000000E+00 -0.48034242826E+02  0.52031664710E+02  0.20000141217E+02 0.  0.
        -11    1    3    3    0    0 -0.27675736977E+01  0.96094347031E+01 -0.23947682349E+02  0.25951728066E+02  0.51100000000E-03 0.  1.
         11    1    3    3    0    0  0.27675736977E+01 -0.96094347031E+01 -0.24086560477E+02  0.26079936644E+02  0.51100000000E-03 0. -1.
<mgrwt>
<rscale>  0 0.20000141E+02</rscale>
<asrwt>0</asrwt>
<pdfrwt beam="1">  1        3 0.30749403E-03 0.20000141E+02</pdfrwt>
<pdfrwt beam="2">  1       -3 0.76973765E-02 0.20000141E+02</pdfrwt>
<totfact> 0.16112317E+06</totfact>
</mgrwt>
</event>
<event>
 5    1  0.4133473E-007  0.2000031E+02  0.7818608E-02  0.1745322E+00
         -3   -1    0    0    0  501 -0.00000000000E+00  0.00000000000E+00  0.37153897888E+02  0.37154014282E+02  0.93000000000E-01 0. -1.
          3   -1    0    0  501    0  0.00000000000E+00 -0.00000000000E+00 -0.26906677533E+01  0.26922744954E+01  0.93000000000E-01 0.  1.
       1023    2    1    2    0    0  0.00000000000E+00  0.00000000000E+00  0.34463230135E+02  0.39846288777E+02  0.20000312448E+02 0.  0.
        -11    1    3    3    0    0  0.17095122370E+01  0.98528173703E+01  0.17128438174E+02  0.19833906241E+02  0.51100000000E-03 0. -1.
         11    1    3    3    0    0 -0.17095122370E+01 -0.98528173703E+01  0.17334791960E+02  0.20012382537E+02  0.51100000000E-03 0.  1.
<mgrwt>
<rscale>  0 0.20000312E+02</rscale>
<asrwt>0</asrwt>
<pdfrwt beam="2">  1        3 0.41408143E-03 0.20000312E+02</pdfrwt>
<pdfrwt beam="1">  1       -3 0.57161169E-02 0.20000312E+02</pdfrwt>
<totfact> 0.16721600E+06</totfact>
</mgrwt>
</event>
<event>
 5    1  0.4133473E-007  0.2000072E+02  0.7818608E-02  0.1745314E+00
          3   -1    0    0  501    0  0.00000000000E+00  0.00000000000E+00  0.22040424381E+02  0.22040620588E+02  0.93000000000E-01 0.  1.
         -3   -1    0    0    0  501 -0.00000000000E+00 -0.00000000000E+00 -0.45367499553E+01  0.45377030706E+01  0.93000000000E-01 0. -1.
       1023    2    1    2    0    0  0.00000000000E+00  0.00000000000E+00  0.17503674426E+02  0.26578323658E+02  0.20000716739E+02 0.  0.
        -11    1    3    3    0    0  0.63378696684E+00  0.99800381959E+01  0.86645056837E+01  0.13231647944E+02  0.51100000000E-03 0. -1.
         11    1    3    3    0    0 -0.63378696684E+00 -0.99800381959E+01  0.88391687419E+01  0.13346675714E+02  0.51100000000E-03 0.  1.
<mgrwt>
<rscale>  0 0.20000717E+02</rscale>
<asrwt>0</asrwt>
<pdfrwt beam="1">  1        3 0.33909230E-02 0.20000717E+02</pdfrwt>
<pdfrwt beam="2">  1       -3 0.69804994E-03 0.20000717E+02</pdfrwt>
<totfact> 0.17468604E+06</totfact>
</mgrwt>
</event>
<event>
 5    1  0.4161644E-007  0.2000238E+02  0.7818608E-02  0.1745281E+00
         -3   -1    0    0    0  501 -0.00000000000E+00  0.00000000000E+00  0.39499874416E+01  0.39510821036E+01  0.93000000000E-01 0. -1.
          3   -1    0    0  501    0  0.00000000000E+00 -0.00000000000E+00 -0.25317873039E+02  0.25318043846E+02  0.93000000000E-01 0.  1.
       1023    2    1    2    0    0  0.00000000000E+00  0.00000000000E+00 -0.21367885597E+02  0.29269125950E+02  0.20002379833E+02 0.  0.
        -11    1    3    3    0    0  0.98769818574E+01  0.15680091711E+01 -0.10534888187E+02  0.14525745858E+02  0.51100000000E-03 0. -1.
         11    1    3    3    0    0 -0.98769818574E+01 -0.15680091711E+01 -0.10832997410E+02  0.14743380092E+02  0.51100000000E-03 0.  1.
<mgrwt>
<rscale>  0 0.20002380E+02</rscale>
<asrwt>0</asrwt>
<pdfrwt beam="2">  1        3 0.38951546E-02 0.20002380E+02</pdfrwt>
<pdfrwt beam="1">  1       -3 0.60778773E-03 0.20002380E+02</pdfrwt>
<totfact> 0.17304780E+06</totfact>
</mgrwt>
</event>
<event>
 5    1  0.4133473E-007  0.2000039E+02  0.7818608E-02  0.1745320E+00
          3   -1    0    0  501    0  0.00000000000E+00  0.00000000000E+00  0.16264875216E+02  0.16265141094E+02  0.93000000000E-01 0. -1.
         -3   -1    0    0    0  501 -0.00000000000E+00 -0.00000000000E+00 -0.61477923640E+01  0.61484957470E+01  0.93000000000E-01 0.  1.
       1023    2    1    2    0    0  0.00000000000E+00  0.00000000000E+00  0.10117082852E+02  0.22413636841E+02  0.20000393771E+02 0.  0.
        -11    1    3    3    0    0 -0.96329103097E+01  0.26851153731E+01  0.50962443385E+01  0.11223836787E+02  0.51100000000E-03 0. -1.
         11    1    3    3    0    0  0.96329103097E+01 -0.26851153731E+01  0.50208385138E+01  0.11189800054E+02  0.51100000000E-03 0.  1.
<mgrwt>
<rscale>  0 0.20000394E+02</rscale>
<asrwt>0</asrwt>
<pdfrwt beam="1">  1        3 0.25023630E-02 0.20000394E+02</pdfrwt>
<pdfrwt beam="2">  1       -3 0.94588878E-03 0.20000394E+02</pdfrwt>
<totfact> 0.17728250E+06</totfact>
</mgrwt>
</event>
<event>
 4    1  0.4133473E-007  0.2007278E+02  0.7818608E-02  0.1743885E+00
         -3   -1    0    0    0  501 -0.00000000000E+00  0.00000000000E+00  0.83221208523E+02  0.83221260487E+02  0.93000000000E-01 0.  1.
          3   -1    0    0  501    0  0.00000000000E+00 -0.00000000000E+00 -0.12085395751E+01  0.12121125792E+01  0.93000000000E-01 0. -1.
        -11    1    1    2    0    0  0.59283630758E+01 -0.80875521214E+01  0.42766818447E+02  0.43926697445E+02  0.51100000000E-03 0. -1.
         11    1    1    2    0    0 -0.59283630758E+01  0.80875521214E+01  0.39245850500E+02  0.40506675620E+02  0.51100000000E-03 0.  1.
<mgrwt>
<rscale>  0 0.20072783E+02</rscale>
<asrwt>0</asrwt>
<pdfrwt beam="2">  1        3 0.18620798E-03 0.20072783E+02</pdfrwt>
<pdfrwt beam="1">  1       -3 0.12803544E-01 0.20072783E+02</pdfrwt>
<totfact> 0.14629785E+06</totfact>
</mgrwt>
</event>
<event>
 5    1  0.4371656E-007  0.2000102E+02  0.7818608E-02  0.1745308E+00
         -3   -1    0    0    0  501 -0.00000000000E+00  0.00000000000E+00  0.13834322815E+02  0.13834635403E+02  0.93000000000E-01 0. -1.
          3   -1    0    0  501    0  0.00000000000E+00 -0.00000000000E+00 -0.72284401685E+01  0.72290384056E+01  0.93000000000E-01 0.  1.
       1023    2    1    2    0    0  0.00000000000E+00  0.00000000000E+00  0.66058826464E+01  0.21063673809E+02  0.20001016694E+02 0.  0.
        -11    1    3    3    0    0 -0.85428409199E+01 -0.51985626187E+01  0.32286030625E+01  0.10508523316E+02  0.51100000000E-03 0. -1.
         11    1    3    3    0    0  0.85428409199E+01  0.51985626187E+01  0.33772795839E+01  0.10555150493E+02  0.51100000000E-03 0.  1.
<mgrwt>
<rscale>  0 0.20001017E+02</rscale>
<asrwt>0</asrwt>
<pdfrwt beam="2">  1        3 0.11121378E-02 0.20001017E+02</pdfrwt>
<pdfrwt beam="1">  1       -3 0.21284274E-02 0.20001017E+02</pdfrwt>
<totfact> 0.17814546E+06</totfact>
</mgrwt>
</event>
<event>
 5    1  0.4296142E-007  0.2000097E+02  0.7818608E-02  0.1745309E+00
          3   -1    0    0  501    0  0.00000000000E+00  0.00000000000E+00  0.65961599253E+01  0.65968155014E+01  0.93000000000E-01 0.  1.
         -3   -1    0    0    0  501 -0.00000000000E+00 -0.00000000000E+00 -0.15160254043E+02  0.15160539292E+02  0.93000000000E-01 0. -1.
       1023    2    1    2    0    0  0.00000000000E+00  0.00000000000E+00 -0.85640941173E+01  0.21757354794E+02  0.20000969466E+02 0.  0.
        -11    1    3    3    0    0 -0.62001935005E+01  0.78464367451E+01 -0.42527447652E+01  0.10867143476E+02  0.51100000000E-03 0.  1.
         11    1    3    3    0    0  0.62001935005E+01 -0.78464367451E+01 -0.43113493520E+01  0.10890211317E+02  0.51100000000E-03 0. -1.
<mgrwt>
<rscale>  0 0.20000969E+02</rscale>
<asrwt>0</asrwt>
<pdfrwt beam="1">  1        3 0.10148662E-02 0.20000969E+02</pdfrwt>
<pdfrwt beam="2">  1       -3 0.23324191E-02 0.20000969E+02</pdfrwt>
<totfact> 0.17769910E+06</totfact>
</mgrwt>
</event>
<event>
 5    1  0.4133473E-007  0.2000009E+02  0.7818608E-02  0.1745326E+00
          3   -1    0    0  501    0  0.00000000000E+00  0.00000000000E+00  0.10440182617E+01  0.10481522460E+01  0.93000000000E-01 0. -1.
         -3   -1    0    0    0  501 -0.00000000000E+00 -0.00000000000E+00 -0.95591204993E+02  0.95591250233E+02  0.93000000000E-01 0.  1.
       1023    2    1    2    0    0  0.00000000000E+00  0.00000000000E+00 -0.94547186732E+02  0.96639402479E+02  0.20000089815E+02 0.  0.
        -11    1    3    3    0    0 -0.83964144738E+01  0.54314326328E+01 -0.47397862558E+02  0.48441280039E+02  0.51100000000E-03 0.  1.
         11    1    3    3    0    0  0.83964144738E+01 -0.54314326328E+01 -0.47149324174E+02  0.48198122440E+02  0.51100000000E-03 0. -1.
<mgrwt>
<rscale>  0 0.20000090E+02</rscale>
<asrwt>0</asrwt>
<pdfrwt beam="1">  1        3 0.16093975E-03 0.20000090E+02</pdfrwt>
<pdfrwt beam="2">  1       -3 0.14706654E-01 0.20000090E+02</pdfrwt>
<totfact> 0.14298178E+06</totfact>
</mgrwt>
</event>
<event>
 5    1  0.4133473E-007  0.2000045E+02  0.7818608E-02  0.1745319E+00
         -3   -1    0    0    0  501 -0.00000000000E+00  0.00000000000E+00  0.19278253988E+01  0.19300672963E+01  0.93000000000E-01 0. -1.
          3   -1    0    0  501    0  0.00000000000E+00 -0.00000000000E+00 -0.51841831414E+02  0.51841914831E+02  0.93000000000E-01 0.  1.
       1023    2    1    2    0    0  0.00000000000E+00  0.00000000000E+00 -0.49914006016E+02  0.53771982128E+02  0.20000451630E+02 0.  0.
        -11    1    3    3    0    0  0.99982477295E+01  0.18976610793E+00 -0.24796876721E+02  0.26737353351E+02  0.51100000000E-03 0. -1.
         11    1    3    3    0    0 -0.99982477295E+01 -0.18976610793E+00 -0.25117129295E+02  0.27034628777E+02  0.51100000000E-03 0.  1.
<mgrwt>
<rscale>  0 0.20000452E+02</rscale>
<asrwt>0</asrwt>
<pdfrwt beam="2">  1        3 0.79758442E-02 0.20000452E+02</pdfrwt>
<pdfrwt beam="1">  1       -3 0.29676743E-03 0.20000452E+02</pdfrwt>
<totfact> 0.16027167E+06</totfact>
</mgrwt>
</event>
<event>
 5    1  0.4133473E-007  0.2000151E+02  0.7818608E-02  0.1745298E+00
         -3   -1    0    0    0  501 -0.00000000000E+00  0.00000000000E+00  0.16534231360E+01  0.16560365536E+01  0.93000000000E-01 0. -1.
          3   -1    0    0  501    0  0.00000000000E+00 -0.00000000000E+00 -0.60439286873E+02  0.60439358425E+02  0.93000000000E-01 0.  1.
       1023    2    1    2    0    0  0.00000000000E+00  0.00000000000E+00 -0.58785863737E+02  0.62095394978E+02  0.20001507496E+02 0.  0.
        -11    1    3    3    0    0 -0.73700511043E+01  0.67596894278E+01 -0.29589790573E+02  0.31234064111E+02  0.51100000000E-03 0.  1.
         11    1    3    3    0    0  0.73700511043E+01 -0.67596894278E+01 -0.29196073164E+02  0.30861330867E+02  0.51100000000E-03 0. -1.
<mgrwt>
<rscale>  0 0.20001507E+02</rscale>
<asrwt>0</asrwt>
<pdfrwt beam="2">  1        3 0.92985567E-02 0.20001507E+02</pdfrwt>
<pdfrwt beam="1">  1       -3 0.25457937E-03 0.20001507E+02</pdfrwt>
<totfact> 0.15648263E+06</totfact>
</mgrwt>
</event>
<event>
 5    1  0.4133473E-007  0.2000233E+02  0.7818608E-02  0.1745282E+00
         -3   -1    0    0    0  501 -0.00000000000E+00  0.00000000000E+00  0.68785588173E+02  0.68785651042E+02  0.93000000000E-01 0.  1.
          3   -1    0    0  501    0  0.00000000000E+00 -0.00000000000E+00 -0.14525809705E+01  0.14555550405E+01  0.93000000000E-01 0. -1.
       1023    2    1    2    0    0  0.00000000000E+00  0.00000000000E+00  0.67333007203E+02  0.70241206083E+02  0.20002329190E+02 0.  0.
        -11    1    3    3    0    0 -0.69944256821E+00  0.99760260781E+01  0.34066535662E+02  0.35504072562E+02  0.51100000000E-03 0.  1.
         11    1    3    3    0    0  0.69944256821E+00 -0.99760260781E+01  0.33266471540E+02  0.34737133520E+02  0.51100000000E-03 0. -1.
<mgrwt>
<rscale>  0 0.20002329E+02</rscale>
<asrwt>0</asrwt>
<pdfrwt beam="2">  1        3 0.22370757E-03 0.20002329E+02</pdfrwt>
<pdfrwt beam="1">  1       -3 0.10582634E-01 0.20002329E+02</pdfrwt>
<totfact> 0.15302107E+06</totfact>
</mgrwt>
</event>
<event>
 4    1  0.4133473E-007  0.2026924E+02  0.7818608E-02  0.1740026E+00
         -3   -1    0    0    0  501 -0.00000000000E+00  0.00000000000E+00  0.14304769792E+02  0.14305072101E+02  0.93000000000E-01 0. -1.
          3   -1    0    0  501    0  0.00000000000E+00 -0.00000000000E+00 -0.71794766122E+01  0.71800789289E+01  0.93000000000E-01 0.  1.
        -11    1    1    2    0    0 -0.13073495530E+01 -0.99914375657E+01  0.24148745139E+01  0.10361930644E+02  0.51100000000E-03 0.  1.
         11    1    1    2    0    0  0.13073495530E+01  0.99914375657E+01  0.47104186661E+01  0.11123220386E+02  0.51100000000E-03 0. -1.
<mgrwt>
<rscale>  0 0.20269236E+02</rscale>
<asrwt>0</asrwt>
<pdfrwt beam="2">  1        3 0.11046044E-02 0.20269236E+02</pdfrwt>
<pdfrwt beam="1">  1       -3 0.22008034E-02 0.20269236E+02</pdfrwt>
<totfact> 0.17283174E+06</totfact>
</mgrwt>
</event>
<event>
 5    1  0.4166900E-007  0.2000136E+02  0.7818608E-02  0.1745301E+00
         -3   -1    0    0    0  501 -0.00000000000E+00  0.00000000000E+00  0.20823383952E+02  0.20823591626E+02  0.93000000000E-01 0.  1.
          3   -1    0    0  501    0  0.00000000000E+00 -0.00000000000E+00 -0.48022632639E+01  0.48031636924E+01  0.93000000000E-01 0. -1.
       1023    2    1    2    0    0  0.00000000000E+00  0.00000000000E+00  0.16021120688E+02  0.25626755319E+02  0.20001356955E+02 0.  0.
        -11    1    3    3    0    0 -0.49598059608E+01  0.86840626936E+01  0.80500453039E+01  0.12838062537E+02  0.51100000000E-03 0. -1.
         11    1    3    3    0    0  0.49598059608E+01 -0.86840626936E+01  0.79710753842E+01  0.12788692782E+02  0.51100000000E-03 0.  1.
<mgrwt>
<rscale>  0 0.20001357E+02</rscale>
<asrwt>0</asrwt>
<pdfrwt beam="2">  1        3 0.73889498E-03 0.20001357E+02</pdfrwt>
<pdfrwt beam="1">  1       -3 0.32036827E-02 0.20001357E+02</pdfrwt>
<totfact> 0.17526727E+06</totfact>
</mgrwt>
</event>
<event>
 5    1  0.4133473E-007  0.2000042E+02  0.7818608E-02  0.1745320E+00
         -3   -1    0    0    0  501 -0.00000000000E+00  0.00000000000E+00  0.18700422088E+01  0.18723532953E+01  0.93000000000E-01 0.  1.
          3   -1    0    0  501    0  0.00000000000E+00 -0.00000000000E+00 -0.53441587053E+02  0.53441667973E+02  0.93000000000E-01 0. -1.
       1023    2    1    2    0    0  0.00000000000E+00  0.00000000000E+00 -0.51571544844E+02  0.55314021268E+02  0.20000417777E+02 0.  0.
        -11    1    3    3    0    0 -0.27468869217E+01  0.96154099333E+01 -0.25928989152E+02  0.27790537502E+02  0.51100000000E-03 0.  1.
         11    1    3    3    0    0  0.27468869217E+01 -0.96154099333E+01 -0.25642555692E+02  0.27523483766E+02  0.51100000000E-03 0. -1.
<mgrwt>
<rscale>  0 0.20000418E+02</rscale>
<asrwt>0</asrwt>
<pdfrwt beam="2">  1        3 0.82219655E-02 0.20000418E+02</pdfrwt>
<pdfrwt beam="1">  1       -3 0.28788284E-03 0.20000418E+02</pdfrwt>
<totfact> 0.15955537E+06</totfact>
</mgrwt>
</event>
<event>
 5    1  0.4133473E-007  0.2000011E+02  0.7818608E-02  0.1745326E+00
         -3   -1    0    0    0  501 -0.00000000000E+00  0.00000000000E+00  0.15731112021E+02  0.15731386920E+02  0.93000000000E-01 0.  1.
          3   -1    0    0  501    0  0.00000000000E+00 -0.00000000000E+00 -0.63562260003E+01  0.63569063204E+01  0.93000000000E-01 0. -1.
       1023    2    1    2    0    0  0.00000000000E+00  0.00000000000E+00  0.93748860210E+01  0.22088293240E+02  0.20000105259E+02 0.  0.
        -11    1    3    3    0    0  0.95073860622E+01  0.31000988229E+01  0.46952431710E+01  0.11047457225E+02  0.51100000000E-03 0.  1.
         11    1    3    3    0    0 -0.95073860622E+01 -0.31000988229E+01  0.46796428500E+01  0.11040836015E+02  0.51100000000E-03 0. -1.
<mgrwt>
<rscale>  0 0.20000105E+02</rscale>
<asrwt>0</asrwt>
<pdfrwt beam="2">  1        3 0.97795442E-03 0.20000105E+02</pdfrwt>
<pdfrwt beam="1">  1       -3 0.24202445E-02 0.20000105E+02</pdfrwt>
<totfact> 0.17750394E+06</totfact>
</mgrwt>
</event>
<event>
 5    1  0.4133473E-007  0.2000018E+02  0.7818608E-02  0.1745324E+00
         -3   -1    0    0    0  501 -0.00000000000E+00  0.00000000000E+00  0.65915177504E+02  0.65915243111E+02  0.93000000000E-01 0. -1.
          3   -1    0    0  501    0  0.00000000000E+00 -0.00000000000E+00 -0.15156373582E+01  0.15184879326E+01  0.93000000000E-01 0.  1.
       1023    2    1    2    0    0  0.00000000000E+00  0.00000000000E+00  0.64399540146E+02  0.67433731043E+02  0.20000182786E+02 0.  0.
        -11    1    3    3    0    0  0.93271237105E+01 -0.36062218330E+01  0.32058522782E+02  0.33581973674E+02  0.51100000000E-03 0.  1.
         11    1    3    3    0    0 -0.93271237105E+01  0.36062218330E+01  0.32341017364E+02  0.33851757370E+02  0.51100000000E-03 0. -1.
<mgrwt>
<rscale>  0 0.20000183E+02</rscale>
<asrwt>0</asrwt>
<pdfrwt beam="2">  1        3 0.23339926E-03 0.20000183E+02</pdfrwt>
<pdfrwt beam="1">  1       -3 0.10141023E-01 0.20000183E+02</pdfrwt>
<totfact> 0.15423184E+06</totfact>
</mgrwt>
</event>
<event>
 5    1  0.4133473E-007  0.2000908E+02  0.7818608E-02  0.1745148E+00
         -3   -1    0    0    0  501 -0.00000000000E+00  0.00000000000E+00  0.21519206344E+01  0.21539292971E+01  0.93000000000E-01 0. -1.
          3   -1    0    0  501    0  0.00000000000E+00 -0.00000000000E+00 -0.46488551911E+02  0.46488644933E+02  0.93000000000E-01 0.  1.
       1023    2    1    2    0    0  0.00000000000E+00  0.00000000000E+00 -0.44336631276E+02  0.48642574231E+02  0.20009076812E+02 0.  0.
        -11    1    3    3    0    0 -0.88912904312E+01 -0.45832609310E+01 -0.21751041195E+02  0.23940950683E+02  0.51100000000E-03 0. -1.
         11    1    3    3    0    0  0.88912904312E+01  0.45832609310E+01 -0.22585590081E+02  0.24701623547E+02  0.51100000000E-03 0.  1.
<mgrwt>
<rscale>  0 0.20009077E+02</rscale>
<asrwt>0</asrwt>
<pdfrwt beam="2">  1        3 0.71522458E-02 0.20009077E+02</pdfrwt>
<pdfrwt beam="1">  1       -3 0.33122642E-03 0.20009077E+02</pdfrwt>
<totfact> 0.16257252E+06</totfact>
</mgrwt>
</event>
<event>
 5    1  0.4133473E-007  0.2000274E+02  0.7818608E-02  0.1745274E+00
          3   -1    0    0  501    0  0.00000000000E+00  0.00000000000E+00  0.18114727982E+02  0.18114966709E+02  0.93000000000E-01 0. -1.
         -3   -1    0    0    0  501 -0.00000000000E+00 -0.00000000000E+00 -0.55212145755E+01  0.55219977715E+01  0.93000000000E-01 0.  1.
       1023    2    1    2    0    0  0.00000000000E+00  0.00000000000E+00  0.12593513407E+02  0.23636964480E+02  0.20002737561E+02 0.  0.
        -11    1    3    3    0    0 -0.95226776924E+01 -0.30561808999E+01  0.62071891301E+01  0.11770761627E+02  0.51100000000E-03 0.  1.
         11    1    3    3    0    0  0.95226776924E+01  0.30561808999E+01  0.63863242765E+01  0.11866202853E+02  0.51100000000E-03 0. -1.
<mgrwt>
<rscale>  0 0.20002738E+02</rscale>
<asrwt>0</asrwt>
<pdfrwt beam="1">  1        3 0.27869598E-02 0.20002738E+02</pdfrwt>
<pdfrwt beam="2">  1       -3 0.84949624E-03 0.20002738E+02</pdfrwt>
<totfact> 0.17646355E+06</totfact>
</mgrwt>
</event>
<event>
 5    1  0.4133473E-007  0.2000389E+02  0.7818608E-02  0.1745251E+00
          3   -1    0    0  501    0  0.00000000000E+00  0.00000000000E+00  0.88535811851E+01  0.88540696181E+01  0.93000000000E-01 0.  1.
         -3   -1    0    0    0  501 -0.00000000000E+00 -0.00000000000E+00 -0.11298270897E+02  0.11298653649E+02  0.93000000000E-01 0. -1.
       1023    2    1    2    0    0  0.00000000000E+00  0.00000000000E+00 -0.24446897122E+01  0.20152723267E+02  0.20003893303E+02 0.  0.
        -11    1    3    3    0    0 -0.98802702830E+01 -0.15549075048E+01 -0.12608172512E+01  0.10081028649E+02  0.51100000000E-03 0. -1.
         11    1    3    3    0    0  0.98802702830E+01  0.15549075048E+01 -0.11838724610E+01  0.10071694618E+02  0.51100000000E-03 0.  1.
<mgrwt>
<rscale>  0 0.20003893E+02</rscale>
<asrwt>0</asrwt>
<pdfrwt beam="1">  1        3 0.13621564E-02 0.20003893E+02</pdfrwt>
<pdfrwt beam="2">  1       -3 0.17382625E-02 0.20003893E+02</pdfrwt>
<totfact> 0.17868272E+06</totfact>
</mgrwt>
</event>
<event>
 5    1  0.4207985E-007  0.2000055E+02  0.7818608E-02  0.1745317E+00
         -3   -1    0    0    0  501 -0.00000000000E+00  0.00000000000E+00  0.64698380163E+01  0.64705063911E+01  0.93000000000E-01 0.  1.
          3   -1    0    0  501    0  0.00000000000E+00 -0.00000000000E+00 -0.15455587539E+02  0.15455867338E+02  0.93000000000E-01 0. -1.
       1023    2    1    2    0    0  0.00000000000E+00  0.00000000000E+00 -0.89857495224E+01  0.21926373729E+02  0.20000554253E+02 0.  0.
        -11    1    3    3    0    0 -0.75040346273E+01  0.66101854311E+01 -0.45162651377E+01  0.10972772584E+02  0.51100000000E-03 0.  1.
         11    1    3    3    0    0  0.75040346273E+01 -0.66101854311E+01 -0.44694843846E+01  0.10953601145E+02  0.51100000000E-03 0. -1.
<mgrwt>
<rscale>  0 0.20000554E+02</rscale>
<asrwt>0</asrwt>
<pdfrwt beam="2">  1        3 0.23778556E-02 0.20000554E+02</pdfrwt>
<pdfrwt beam="1">  1       -3 0.99543264E-03 0.20000554E+02</pdfrwt>
<totfact> 0.17759109E+06</totfact>
</mgrwt>
</event>
<event>
 5    1  0.4133473E-007  0.2000480E+02  0.7818608E-02  0.1745233E+00
         -3   -1    0    0    0  501 -0.00000000000E+00  0.00000000000E+00  0.71858536399E+02  0.71858596580E+02  0.93000000000E-01 0. -1.
          3   -1    0    0  501    0  0.00000000000E+00 -0.00000000000E+00 -0.13906779952E+01  0.13937841606E+01  0.93000000000E-01 0.  1.
       1023    2    1    2    0    0  0.00000000000E+00  0.00000000000E+00  0.70467858404E+02  0.73252380741E+02  0.20004804826E+02 0.  0.
        -11    1    3    3    0    0  0.97311781196E+01 -0.23090330474E+01  0.35759392742E+02  0.37131679611E+02  0.51100000000E-03 0.  1.
         11    1    3    3    0    0 -0.97311781196E+01  0.23090330474E+01  0.34708465663E+02  0.36120701130E+02  0.51100000000E-03 0. -1.
<mgrwt>
<rscale>  0 0.20004805E+02</rscale>
<asrwt>0</asrwt>
<pdfrwt beam="2">  1        3 0.21419397E-03 0.20004805E+02</pdfrwt>
<pdfrwt beam="1">  1       -3 0.11055406E-01 0.20004805E+02</pdfrwt>
<totfact> 0.15174531E+06</totfact>
</mgrwt>
</event>
<event>
 5    1  0.4215015E-007  0.2000145E+02  0.7818608E-02  0.1745299E+00
         -3   -1    0    0    0  501 -0.00000000000E+00  0.00000000000E+00  0.19514470425E+02  0.19514692028E+02  0.93000000000E-01 0. -1.
          3   -1    0    0  501    0  0.00000000000E+00 -0.00000000000E+00 -0.51244746990E+01  0.51253185209E+01  0.93000000000E-01 0.  1.
       1023    2    1    2    0    0  0.00000000000E+00  0.00000000000E+00  0.14389995726E+02  0.24640010549E+02  0.20001453519E+02 0.  0.
        -11    1    3    3    0    0  0.77646727162E+01  0.63025055667E+01  0.72603779829E+01  0.12358187874E+02  0.51100000000E-03 0. -1.
         11    1    3    3    0    0 -0.77646727162E+01 -0.63025055667E+01  0.71296177429E+01  0.12281822675E+02  0.51100000000E-03 0.  1.
<mgrwt>
<rscale>  0 0.20001454E+02</rscale>
<asrwt>0</asrwt>
<pdfrwt beam="2">  1        3 0.78846268E-03 0.20001454E+02</pdfrwt>
<pdfrwt beam="1">  1       -3 0.30023082E-02 0.20001454E+02</pdfrwt>
<totfact> 0.17587361E+06</totfact>
</mgrwt>
</event>
<event>
 5    1  0.4133473E-007  0.2000287E+02  0.7818608E-02  0.1745271E+00
          3   -1    0    0  501    0  0.00000000000E+00  0.00000000000E+00  0.71979995079E+02  0.71980055158E+02  0.93000000000E-01 0.  1.
         -3   -1    0    0    0  501 -0.00000000000E+00 -0.00000000000E+00 -0.13880563253E+01  0.13911683443E+01  0.93000000000E-01 0. -1.
       1023    2    1    2    0    0  0.00000000000E+00  0.00000000000E+00  0.70591938753E+02  0.73371223502E+02  0.20002865326E+02 0.  0.
        -11    1    3    3    0    0  0.81834742386E+01  0.57496936487E+01  0.35371799536E+02  0.36758569482E+02  0.51100000000E-03 0. -1.
         11    1    3    3    0    0 -0.81834742386E+01 -0.57496936487E+01  0.35220139217E+02  0.36612654020E+02  0.51100000000E-03 0.  1.
<mgrwt>
<rscale>  0 0.20002865E+02</rscale>
<asrwt>0</asrwt>
<pdfrwt beam="1">  1        3 0.11074092E-01 0.20002865E+02</pdfrwt>
<pdfrwt beam="2">  1       -3 0.21379109E-03 0.20002865E+02</pdfrwt>
<totfact> 0.15169974E+06</totfact>
</mgrwt>
</event>
<event>
 5    1  0.4133473E-007  0.2000185E+02  0.7818608E-02  0.1745291E+00
          3   -1    0    0  501    0  0.00000000000E+00  0.00000000000E+00  0.93985510734E+00  0.94444514017E+00  0.93000000000E-01 0. -1.
         -3   -1    0    0    0  501 -0.00000000000E+00 -0.00000000000E+00 -0.10615523805E+03  0.10615527879E+03  0.93000000000E-01 0.  1.
       1023    2    1    2    0    0  0.00000000000E+00  0.00000000000E+00 -0.10521538294E+03  0.10709972393E+03  0.20001851355E+02 0.  0.
        -11    1    3    3    0    0 -0.60720161196E+01 -0.79458496084E+01 -0.52006451372E+02  0.52959200243E+02  0.51100000000E-03 0.  1.
         11    1    3    3    0    0  0.60720161196E+01  0.79458496084E+01 -0.53208931572E+02  0.54140523687E+02  0.51100000000E-03 0. -1.
<mgrwt>
<rscale>  0 0.20001851E+02</rscale>
<asrwt>0</asrwt>
<pdfrwt beam="1">  1        3 0.14494939E-03 0.20001851E+02</pdfrwt>
<pdfrwt beam="2">  1       -3 0.16331922E-01 0.20001851E+02</pdfrwt>
<totfact> 0.13936918E+06</totfact>
</mgrwt>
</event>
<event>
 5    1  0.4133473E-007  0.2000002E+02  0.7818608E-02  0.1745328E+00
          3   -1    0    0  501    0  0.00000000000E+00  0.00000000000E+00  0.56701822252E+02  0.56701898519E+02  0.93000000000E-01 0. -1.
         -3   -1    0    0    0  501 -0.00000000000E+00 -0.00000000000E+00 -0.17623115245E+01  0.17647636979E+01  0.93000000000E-01 0.  1.
       1023    2    1    2    0    0  0.00000000000E+00  0.00000000000E+00  0.54939510727E+02  0.58466662217E+02  0.20000018796E+02 0.  0.
        -11    1    3    3    0    0  0.28272030724E+01  0.95920336065E+01  0.27465855043E+02  0.29229666085E+02  0.51100000000E-03 0.  1.
         11    1    3    3    0    0 -0.28272030724E+01 -0.95920336065E+01  0.27473655685E+02  0.29236996133E+02  0.51100000000E-03 0. -1.
<mgrwt>
<rscale>  0 0.20000019E+02</rscale>
<asrwt>0</asrwt>
<pdfrwt beam="1">  1        3 0.87235520E-02 0.20000019E+02</pdfrwt>
<pdfrwt beam="2">  1       -3 0.27131934E-03 0.20000019E+02</pdfrwt>
<totfact> 0.15812357E+06</totfact>
</mgrwt>
</event>
<event>
 5    1  0.4246784E-007  0.2000093E+02  0.7818608E-02  0.1745310E+00
          3   -1    0    0  501    0  0.00000000000E+00  0.00000000000E+00  0.27527013676E+01  0.27542719218E+01  0.93000000000E-01 0.  1.
         -3   -1    0    0    0  501 -0.00000000000E+00 -0.00000000000E+00 -0.36319338978E+02  0.36319458047E+02  0.93000000000E-01 0. -1.
       1023    2    1    2    0    0  0.00000000000E+00  0.00000000000E+00 -0.33566637610E+02  0.39073729968E+02  0.20000930308E+02 0.  0.
        -11    1    3    3    0    0  0.70754891839E+01 -0.70670229065E+01 -0.16660644817E+02  0.19431480796E+02  0.51100000000E-03 0. -1.
         11    1    3    3    0    0 -0.70754891839E+01  0.70670229065E+01 -0.16905992793E+02  0.19642249172E+02  0.51100000000E-03 0.  1.
<mgrwt>
<rscale>  0 0.20000930E+02</rscale>
<asrwt>0</asrwt>
<pdfrwt beam="1">  1        3 0.42362251E-03 0.20000930E+02</pdfrwt>
<pdfrwt beam="2">  1       -3 0.55877203E-02 0.20000930E+02</pdfrwt>
<totfact> 0.16761414E+06</totfact>
</mgrwt>
</event>
<event>
 5    1  0.4133473E-007  0.2000443E+02  0.7818608E-02  0.1745240E+00
          3   -1    0    0  501    0  0.00000000000E+00  0.00000000000E+00  0.17427314255E+02  0.17427562398E+02  0.93000000000E-01 0.  1.
         -3   -1    0    0    0  501 -0.00000000000E+00 -0.00000000000E+00 -0.57399944020E+01  0.57407477505E+01  0.93000000000E-01 0. -1.
       1023    2    1    2    0    0  0.00000000000E+00  0.00000000000E+00  0.11687319853E+02  0.23168310149E+02  0.20004428255E+02 0.  0.
        -11    1    3    3    0    0 -0.12364670487E+01 -0.99254803968E+01  0.58244428569E+01  0.11574460969E+02  0.51100000000E-03 0. -1.
         11    1    3    3    0    0  0.12364670487E+01  0.99254803968E+01  0.58628769962E+01  0.11593849180E+02  0.51100000000E-03 0.  1.
<mgrwt>
<rscale>  0 0.20004428E+02</rscale>
<asrwt>0</asrwt>
<pdfrwt beam="1">  1        3 0.26812023E-02 0.20004428E+02</pdfrwt>
<pdfrwt beam="2">  1       -3 0.88315311E-03 0.20004428E+02</pdfrwt>
<totfact> 0.17672637E+06</totfact>
</mgrwt>
</event>
<event>
 5    1  0.4133473E-007  0.2000239E+02  0.7818608E-02  0.1745281E+00
          3   -1    0    0  501    0  0.00000000000E+00  0.00000000000E+00  0.20200369103E+01  0.20221765795E+01  0.93000000000E-01 0.  1.
         -3   -1    0    0    0  501 -0.00000000000E+00 -0.00000000000E+00 -0.49487472230E+02  0.49487559616E+02  0.93000000000E-01 0. -1.
       1023    2    1    2    0    0  0.00000000000E+00  0.00000000000E+00 -0.47467435320E+02  0.51509736196E+02  0.20002387534E+02 0.  0.
        -11    1    3    3    0    0 -0.99491662565E+01  0.10106696011E+01 -0.24064648407E+02  0.26059828577E+02  0.51100000000E-03 0.  1.
         11    1    3    3    0    0  0.99491662565E+01 -0.10106696011E+01 -0.23402786913E+02  0.25449907619E+02  0.51100000000E-03 0. -1.
<mgrwt>
<rscale>  0 0.20002388E+02</rscale>
<asrwt>0</asrwt>
<pdfrwt beam="1">  1        3 0.31094626E-03 0.20002388E+02</pdfrwt>
<pdfrwt beam="2">  1       -3 0.76136276E-02 0.20002388E+02</pdfrwt>
<totfact> 0.16133236E+06</totfact>
</mgrwt>
</event>
<event>
 5    1  0.4133473E-007  0.2000154E+02  0.7818608E-02  0.1745297E+00
         -3   -1    0    0    0  501 -0.00000000000E+00  0.00000000000E+00  0.25798514992E+01  0.25815272143E+01  0.93000000000E-01 0. -1.
          3   -1    0    0  501    0  0.00000000000E+00 -0.00000000000E+00 -0.38753576619E+02  0.38753688208E+02  0.93000000000E-01 0.  1.
       1023    2    1    2    0    0  0.00000000000E+00  0.00000000000E+00 -0.36173725120E+02  0.41335215423E+02  0.20001541066E+02 0.  0.
        -11    1    3    3    0    0  0.74436533320E+01 -0.66783129387E+01 -0.18266696747E+02  0.20824986169E+02  0.51100000000E-03 0.  1.
         11    1    3    3    0    0 -0.74436533320E+01  0.66783129387E+01 -0.17907028373E+02  0.20510229254E+02  0.51100000000E-03 0. -1.
<mgrwt>
<rscale>  0 0.20001541E+02</rscale>
<asrwt>0</asrwt>
<pdfrwt beam="2">  1        3 0.59622258E-02 0.20001541E+02</pdfrwt>
<pdfrwt beam="1">  1       -3 0.39703774E-03 0.20001541E+02</pdfrwt>
<totfact> 0.16639097E+06</totfact>
</mgrwt>
</event>
<event>
 5    1  0.4133473E-007  0.2000024E+02  0.7818608E-02  0.1745323E+00
          3   -1    0    0  501    0  0.00000000000E+00  0.00000000000E+00  0.30115556449E+02  0.30115700045E+02  0.93000000000E-01 0. -1.
         -3   -1    0    0    0  501 -0.00000000000E+00 -0.00000000000E+00 -0.33198192240E+01  0.33211215997E+01  0.93000000000E-01 0.  1.
       1023    2    1    2    0    0  0.00000000000E+00  0.00000000000E+00  0.26795737225E+02  0.33436821645E+02  0.20000237706E+02 0.  0.
        -11    1    3    3    0    0  0.99137496361E+01 -0.13108942197E+01  0.13333090940E+02  0.16666499026E+02  0.51100000000E-03 0.  1.
         11    1    3    3    0    0 -0.99137496361E+01  0.13108942197E+01  0.13462646284E+02  0.16770322619E+02  0.51100000000E-03 0. -1.
<mgrwt>
<rscale>  0 0.20000238E+02</rscale>
<asrwt>0</asrwt>
<pdfrwt beam="1">  1        3 0.46332736E-02 0.20000238E+02</pdfrwt>
<pdfrwt beam="2">  1       -3 0.51085266E-03 0.20000238E+02</pdfrwt>
<totfact> 0.17068906E+06</totfact>
</mgrwt>
</event>
<event>
 5    1  0.4133473E-007  0.2000229E+02  0.7818608E-02  0.1745283E+00
          3   -1    0    0  501    0  0.00000000000E+00  0.00000000000E+00  0.39501550890E+02  0.39501660366E+02  0.93000000000E-01 0.  1.
         -3   -1    0    0    0  501 -0.00000000000E+00 -0.00000000000E+00 -0.25311578346E+01  0.25328657651E+01  0.93000000000E-01 0. -1.
       1023    2    1    2    0    0  0.00000000000E+00  0.00000000000E+00  0.36970393055E+02  0.42034526131E+02  0.20002285480E+02 0.  0.
        -11    1    3    3    0    0 -0.99351416003E+01 -0.11409585118E+01  0.18734122023E+02  0.21236199123E+02  0.51100000000E-03 0.  1.
         11    1    3    3    0    0  0.99351416003E+01  0.11409585118E+01  0.18236271032E+02  0.20798327009E+02  0.51100000000E-03 0. -1.
<mgrwt>
<rscale>  0 0.20002285E+02</rscale>
<asrwt>0</asrwt>
<pdfrwt beam="1">  1        3 0.60773004E-02 0.20002285E+02</pdfrwt>
<pdfrwt beam="2">  1       -3 0.38954877E-03 0.20002285E+02</pdfrwt>
<totfact> 0.16601485E+06</totfact>
</mgrwt>
</event>
<event>
 5    1  0.4133473E-007  0.2000007E+02  0.7818608E-02  0.1745327E+00
         -3   -1    0    0    0  501 -0.00000000000E+00  0.00000000000E+00  0.25039207891E+01  0.25056472853E+01  0.93000000000E-01 0. -1.
          3   -1    0    0  501    0  0.00000000000E+00 -0.00000000000E+00 -0.39922084062E+02  0.39922192385E+02  0.93000000000E-01 0.  1.
       1023    2    1    2    0    0  0.00000000000E+00  0.00000000000E+00 -0.37418163273E+02  0.42427839671E+02  0.20000065910E+02 0.  0.
        -11    1    3    3    0    0  0.35366196540E+01 -0.93537658819E+01 -0.18694996035E+02  0.21201497394E+02  0.51100000000E-03 0.  1.
         11    1    3    3    0    0 -0.35366196540E+01  0.93537658819E+01 -0.18723167238E+02  0.21226342276E+02  0.51100000000E-03 0. -1.
<mgrwt>
<rscale>  0 0.20000066E+02</rscale>
<asrwt>0</asrwt>
<pdfrwt beam="2">  1        3 0.61419998E-02 0.20000066E+02</pdfrwt>
<pdfrwt beam="1">  1       -3 0.38535975E-03 0.20000066E+02</pdfrwt>
<totfact> 0.16585133E+06</totfact>
</mgrwt>
</event>
<event>
 5    1  0.4133473E-007  0.2000008E+02  0.7818608E-02  0.1745327E+00
         -3   -1    0    0    0  501 -0.00000000000E+00  0.00000000000E+00  0.82415641261E+01  0.82420888278E+01  0.93000000000E-01 0. -1.
          3   -1    0    0  501    0  0.00000000000E+00 -0.00000000000E+00 -0.12132622814E+02  0.12132979245E+02  0.93000000000E-01 0.  1.
       1023    2    1    2    0    0  0.00000000000E+00  0.00000000000E+00 -0.38910586881E+01  0.20375068073E+02  0.20000076531E+02 0.  0.
        -11    1    3    3    0    0  0.15717245336E+01  0.98757177066E+01 -0.19196198326E+01  0.10182586056E+02  0.51100000000E-03 0.  1.
         11    1    3    3    0    0 -0.15717245336E+01 -0.98757177066E+01 -0.19714388556E+01  0.10192482016E+02  0.51100000000E-03 0. -1.
<mgrwt>
<rscale>  0 0.20000077E+02</rscale>
<asrwt>0</asrwt>
<pdfrwt beam="2">  1        3 0.18666251E-02 0.20000077E+02</pdfrwt>
<pdfrwt beam="1">  1       -3 0.12680007E-02 0.20000077E+02</pdfrwt>
<totfact> 0.17860755E+06</totfact>
</mgrwt>
</event>
<event>
 5    1  0.4133473E-007  0.2000043E+02  0.7818608E-02  0.1745320E+00
          3   -1    0    0  501    0  0.00000000000E+00  0.00000000000E+00  0.15296342194E+02  0.15296624906E+02  0.93000000000E-01 0. -1.
         -3   -1    0    0    0  501 -0.00000000000E+00 -0.00000000000E+00 -0.65371176068E+01  0.65377791034E+01  0.93000000000E-01 0.  1.
       1023    2    1    2    0    0  0.00000000000E+00  0.00000000000E+00  0.87592245871E+01  0.21834404009E+02  0.20000429572E+02 0.  0.
        -11    1    3    3    0    0  0.86501459090E+01 -0.50178890507E+01  0.43711044565E+01  0.10913788948E+02  0.51100000000E-03 0.  1.
         11    1    3    3    0    0 -0.86501459090E+01  0.50178890507E+01  0.43881201306E+01  0.10920615061E+02  0.51100000000E-03 0. -1.
<mgrwt>
<rscale>  0 0.20000430E+02</rscale>
<asrwt>0</asrwt>
<pdfrwt beam="1">  1        3 0.23533560E-02 0.20000430E+02</pdfrwt>
<pdfrwt beam="2">  1       -3 0.10057830E-02 0.20000430E+02</pdfrwt>
<totfact> 0.17765252E+06</totfact>
</mgrwt>
</event>
<event>
 5    1  0.4133473E-007  0.2000498E+02  0.7818608E-02  0.1745229E+00
         -3   -1    0    0    0  501 -0.00000000000E+00  0.00000000000E+00  0.60507382239E+01  0.60514528878E+01  0.93000000000E-01 0. -1.
          3   -1    0    0  501    0  0.00000000000E+00 -0.00000000000E+00 -0.16533314915E+02  0.16533576475E+02  0.93000000000E-01 0.  1.
       1023    2    1    2    0    0  0.00000000000E+00  0.00000000000E+00 -0.10482576691E+02  0.22585029363E+02  0.20004977812E+02 0.  0.
        -11    1    3    3    0    0 -0.97046039958E+01 -0.24228195130E+01 -0.52189659530E+01  0.11282154005E+02  0.51100000000E-03 0. -1.
         11    1    3    3    0    0  0.97046039958E+01  0.24228195130E+01 -0.52636107378E+01  0.11302875358E+02  0.51100000000E-03 0.  1.
<mgrwt>
<rscale>  0 0.20004978E+02</rscale>
<asrwt>0</asrwt>
<pdfrwt beam="2">  1        3 0.25436620E-02 0.20004978E+02</pdfrwt>
<pdfrwt beam="1">  1       -3 0.93095790E-03 0.20004978E+02</pdfrwt>
<totfact> 0.17708574E+06</totfact>
</mgrwt>
</event>
<event>
 5    1  0.4400206E-007  0.2000117E+02  0.7818608E-02  0.1745305E+00
          3   -1    0    0  501    0  0.00000000000E+00  0.00000000000E+00  0.13742119373E+02  0.13742434059E+02  0.93000000000E-01 0.  1.
         -3   -1    0    0    0  501 -0.00000000000E+00 -0.00000000000E+00 -0.72770559474E+01  0.72776501882E+01  0.93000000000E-01 0. -1.
       1023    2    1    2    0    0  0.00000000000E+00  0.00000000000E+00  0.64650634255E+01  0.21020084247E+02  0.20001172382E+02 0.  0.
        -11    1    3    3    0    0  0.93546349334E+00 -0.99563866685E+01  0.33204376546E+01  0.10537079003E+02  0.51100000000E-03 0.  1.
         11    1    3    3    0    0 -0.93546349334E+00  0.99563866685E+01  0.31446257709E+01  0.10483005244E+02  0.51100000000E-03 0. -1.
<mgrwt>
<rscale>  0 0.20001172E+02</rscale>
<asrwt>0</asrwt>
<pdfrwt beam="1">  1        3 0.21142421E-02 0.20001172E+02</pdfrwt>
<pdfrwt beam="2">  1       -3 0.11196170E-02 0.20001172E+02</pdfrwt>
<totfact> 0.17816511E+06</totfact>
</mgrwt>
</event>
<event>
 5    1  0.4133473E-007  0.2000195E+02  0.7818608E-02  0.1745289E+00
         -3   -1    0    0    0  501 -0.00000000000E+00  0.00000000000E+00  0.88958805327E+00  0.89443608185E+00  0.93000000000E-01 0.  1.
          3   -1    0    0  501    0  0.00000000000E+00 -0.00000000000E+00 -0.11212306198E+03  0.11212310055E+03  0.93000000000E-01 0. -1.
       1023    2    1    2    0    0  0.00000000000E+00  0.00000000000E+00 -0.11123347393E+03  0.11301753663E+03  0.20001946514E+02 0.  0.
        -11    1    3    3    0    0  0.12631496583E+01  0.99204108423E+01 -0.56163608240E+02  0.57047006838E+02  0.51100000000E-03 0.  1.
         11    1    3    3    0    0 -0.12631496583E+01 -0.99204108423E+01 -0.55069865687E+02  0.55970529793E+02  0.51100000000E-03 0. -1.
<mgrwt>
<rscale>  0 0.20001947E+02</rscale>
<asrwt>0</asrwt>
<pdfrwt beam="2">  1        3 0.17250067E-01 0.20001947E+02</pdfrwt>
<pdfrwt beam="1">  1       -3 0.13723568E-03 0.20001947E+02</pdfrwt>
<totfact> 0.13739852E+06</totfact>
</mgrwt>
</event>
<event>
 5    1  0.4209252E-007  0.2000165E+02  0.7818608E-02  0.1745295E+00
         -3   -1    0    0    0  501 -0.00000000000E+00  0.00000000000E+00  0.17481729496E+02  0.17481976866E+02  0.93000000000E-01 0. -1.
          3   -1    0    0  501    0  0.00000000000E+00 -0.00000000000E+00 -0.57205334615E+01  0.57212893725E+01  0.93000000000E-01 0.  1.
       1023    2    1    2    0    0  0.00000000000E+00  0.00000000000E+00  0.11761196034E+02  0.23203266239E+02  0.20001645732E+02 0.  0.
        -11    1    3    3    0    0 -0.93901585553E+01 -0.34406253078E+01  0.59490079681E+01  0.11636308533E+02  0.51100000000E-03 0.  1.
         11    1    3    3    0    0  0.93901585553E+01  0.34406253078E+01  0.58121880661E+01  0.11566957706E+02  0.51100000000E-03 0. -1.
<mgrwt>
<rscale>  0 0.20001646E+02</rscale>
<asrwt>0</asrwt>
<pdfrwt beam="2">  1        3 0.88015925E-03 0.20001646E+02</pdfrwt>
<pdfrwt beam="1">  1       -3 0.26895740E-02 0.20001646E+02</pdfrwt>
<totfact> 0.17676712E+06</totfact>
</mgrwt>
</event>
<event>
 5    1  0.4133473E-007  0.2000036E+02  0.7818608E-02  0.1745321E+00
          3   -1    0    0  501    0  0.00000000000E+00  0.00000000000E+00  0.10977549506E+02  0.10977943439E+02  0.93000000000E-01 0. -1.
         -3   -1    0    0    0  501 -0.00000000000E+00 -0.00000000000E+00 -0.91090337382E+01  0.91095084743E+01  0.93000000000E-01 0.  1.
       1023    2    1    2    0    0  0.00000000000E+00  0.00000000000E+00  0.18685157675E+01  0.20087451913E+02  0.20000359327E+02 0.  0.
        -11    1    3    3    0    0 -0.84015215164E+01  0.54238378262E+01  0.93780642941E+00  0.10044056039E+02  0.51100000000E-03 0. -1.
         11    1    3    3    0    0  0.84015215164E+01 -0.54238378262E+01  0.93070933812E+00  0.10043395874E+02  0.51100000000E-03 0.  1.
<mgrwt>
<rscale>  0 0.20000359E+02</rscale>
<asrwt>0</asrwt>
<pdfrwt beam="1">  1        3 0.16889206E-02 0.20000359E+02</pdfrwt>
<pdfrwt beam="2">  1       -3 0.14014566E-02 0.20000359E+02</pdfrwt>
<totfact> 0.17879168E+06</totfact>
</mgrwt>
</event>
<event>
 5    1  0.4133473E-007  0.2000032E+02  0.7818608E-02  0.1745322E+00
         -3   -1    0    0    0  501 -0.00000000000E+00  0.00000000000E+00  0.33819545481E+02  0.33819673351E+02  0.93000000000E-01 0. -1.
          3   -1    0    0  501    0  0.00000000000E+00 -0.00000000000E+00 -0.29560999518E+01  0.29575624973E+01  0.93000000000E-01 0.  1.
       1023    2    1    2    0    0  0.00000000000E+00  0.00000000000E+00  0.30863445530E+02  0.36777235848E+02  0.20000320165E+02 0.  0.
        -11    1    3    3    0    0  0.75349183659E+00 -0.99715980973E+01  0.15526967321E+02  0.18468547128E+02  0.51100000000E-03 0.  1.
         11    1    3    3    0    0 -0.75349183659E+00  0.99715980973E+01  0.15336478209E+02  0.18308688721E+02  0.51100000000E-03 0. -1.
<mgrwt>
<rscale>  0 0.20000320E+02</rscale>
<asrwt>0</asrwt>
<pdfrwt beam="2">  1        3 0.45490695E-03 0.20000320E+02</pdfrwt>
<pdfrwt beam="1">  1       -3 0.52031293E-02 0.20000320E+02</pdfrwt>
<totfact> 0.16886029E+06</totfact>
</mgrwt>
</event>
<event>
 5    1  0.4133473E-007  0.2000141E+02  0.7818608E-02  0.1745300E+00
          3   -1    0    0  501    0  0.00000000000E+00  0.00000000000E+00  0.10345386821E+03  0.10345391001E+03  0.93000000000E-01 0. -1.
         -3   -1    0    0    0  501 -0.00000000000E+00 -0.00000000000E+00 -0.96447210680E+00  0.96894553242E+00  0.93000000000E-01 0.  1.
       1023    2    1    2    0    0  0.00000000000E+00  0.00000000000E+00  0.10248939610E+03  0.10442285554E+03  0.20001411107E+02 0.  0.
        -11    1    3    3    0    0  0.25478359268E+01  0.96705878427E+01  0.51499082996E+02  0.52461102608E+02  0.51100000000E-03 0. -1.
         11    1    3    3    0    0 -0.25478359268E+01 -0.96705878427E+01  0.50990313104E+02  0.51961752933E+02  0.51100000000E-03 0.  1.
<mgrwt>
<rscale>  0 0.20001411E+02</rscale>
<asrwt>0</asrwt>
<pdfrwt beam="1">  1        3 0.15916324E-01 0.20001411E+02</pdfrwt>
<pdfrwt beam="2">  1       -3 0.14872768E-03 0.20001411E+02</pdfrwt>
<totfact> 0.14024638E+06</totfact>
</mgrwt>
</event>
<event>
 5    1  0.4133473E-007  0.2000480E+02  0.7818608E-02  0.1745233E+00
         -3   -1    0    0    0  501 -0.00000000000E+00  0.00000000000E+00  0.33897014679E+02  0.33897142257E+02  0.93000000000E-01 0.  1.
          3   -1    0    0  501    0  0.00000000000E+00 -0.00000000000E+00 -0.29506620794E+01  0.29521273189E+01  0.93000000000E-01 0. -1.
       1023    2    1    2    0    0  0.00000000000E+00  0.00000000000E+00  0.30946352600E+02  0.36849269576E+02  0.20004797650E+02 0.  0.
        -11    1    3    3    0    0 -0.86415890364E+00 -0.99638851180E+01  0.15198691980E+02  0.18194120353E+02  0.51100000000E-03 0.  1.
         11    1    3    3    0    0  0.86415890364E+00  0.99638851180E+01  0.15747660620E+02  0.18655149223E+02  0.51100000000E-03 0. -1.
<mgrwt>
<rscale>  0 0.20004798E+02</rscale>
<asrwt>0</asrwt>
<pdfrwt beam="2">  1        3 0.45407057E-03 0.20004798E+02</pdfrwt>
<pdfrwt beam="1">  1       -3 0.52150475E-02 0.20004798E+02</pdfrwt>
<totfact> 0.16873993E+06</totfact>
</mgrwt>
</event>
<event>
 5    1  0.4332351E-007  0.2000087E+02  0.7818608E-02  0.1745311E+00
          3   -1    0    0  501    0  0.00000000000E+00  0.00000000000E+00  0.11528160173E+02  0.11528535292E+02  0.93000000000E-01 0. -1.
         -3   -1    0    0    0  501 -0.00000000000E+00 -0.00000000000E+00 -0.86744015780E+01  0.86749000995E+01  0.93000000000E-01 0.  1.
       1023    2    1    2    0    0  0.00000000000E+00  0.00000000000E+00  0.28537585948E+01  0.20203435391E+02  0.20000871568E+02 0.  0.
        -11    1    3    3    0    0  0.78249779378E+01 -0.62266104963E+01  0.15158486236E+01  0.10114284716E+02  0.51100000000E-03 0.  1.
         11    1    3    3    0    0 -0.78249779378E+01  0.62266104963E+01  0.13379099712E+01  0.10089150675E+02  0.51100000000E-03 0. -1.
<mgrwt>
<rscale>  0 0.20000872E+02</rscale>
<asrwt>0</asrwt>
<pdfrwt beam="1">  1        3 0.17736303E-02 0.20000872E+02</pdfrwt>
<pdfrwt beam="2">  1       -3 0.13345905E-02 0.20000872E+02</pdfrwt>
<totfact> 0.17870516E+06</totfact>
</mgrwt>
</event>
<event>
 5    1  0.4133473E-007  0.2000072E+02  0.7818608E-02  0.1745314E+00
         -3   -1    0    0    0  501 -0.00000000000E+00  0.00000000000E+00  0.20279516614E+01  0.20300829887E+01  0.93000000000E-01 0.  1.
          3   -1    0    0  501    0  0.00000000000E+00 -0.00000000000E+00 -0.49286329217E+02  0.49286416960E+02  0.93000000000E-01 0. -1.
       1023    2    1    2    0    0  0.00000000000E+00  0.00000000000E+00 -0.47258377556E+02  0.51316499948E+02  0.20000722930E+02 0.  0.
        -11    1    3    3    0    0 -0.47945198122E+01 -0.87759964004E+01 -0.23523521625E+02  0.25560939007E+02  0.51100000000E-03 0.  1.
         11    1    3    3    0    0  0.47945198122E+01  0.87759964004E+01 -0.23734855931E+02  0.25755560941E+02  0.51100000000E-03 0. -1.
<mgrwt>
<rscale>  0 0.20000723E+02</rscale>
<asrwt>0</asrwt>
<pdfrwt beam="2">  1        3 0.75826820E-02 0.20000723E+02</pdfrwt>
<pdfrwt beam="1">  1       -3 0.31216330E-03 0.20000723E+02</pdfrwt>
<totfact> 0.16142735E+06</totfact>
</mgrwt>
</event>
<event>
 5    1  0.4133473E-007  0.2000077E+02  0.7818608E-02  0.1745313E+00
          3   -1    0    0  501    0  0.00000000000E+00  0.00000000000E+00  0.58011809436E+02  0.58011883981E+02  0.93000000000E-01 0. -1.
         -3   -1    0    0    0  501 -0.00000000000E+00 -0.00000000000E+00 -0.17225894141E+01  0.17250980521E+01  0.93000000000E-01 0.  1.
       1023    2    1    2    0    0  0.00000000000E+00  0.00000000000E+00  0.56289220022E+02  0.59736982033E+02  0.20000768279E+02 0.  0.
        -11    1    3    3    0    0  0.71127403930E+01  0.70296936684E+01  0.28155669065E+02  0.29878911790E+02  0.51100000000E-03 0. -1.
         11    1    3    3    0    0 -0.71127403930E+01 -0.70296936684E+01  0.28133550956E+02  0.29858070243E+02  0.51100000000E-03 0.  1.
<mgrwt>
<rscale>  0 0.20000768E+02</rscale>
<asrwt>0</asrwt>
<pdfrwt beam="1">  1        3 0.89250910E-02 0.20000768E+02</pdfrwt>
<pdfrwt beam="2">  1       -3 0.26521250E-03 0.20000768E+02</pdfrwt>
<totfact> 0.15754093E+06</totfact>
</mgrwt>
</event>
<event>
 5    1  0.4133473E-007  0.2000019E+02  0.7818608E-02  0.1745324E+00
         -3   -1    0    0    0  501 -0.00000000000E+00  0.00000000000E+00  0.16558782108E+01  0.16584877596E+01  0.93000000000E-01 0.  1.
          3   -1    0    0  501    0  0.00000000000E+00 -0.00000000000E+00 -0.60341850430E+02  0.60341922097E+02  0.93000000000E-01 0. -1.
       1023    2    1    2    0    0  0.00000000000E+00  0.00000000000E+00 -0.58685972219E+02  0.62000409856E+02  0.20000187175E+02 0.  0.
        -11    1    3    3    0    0 -0.46091480150E+01 -0.88745473175E+01 -0.29361581199E+02  0.31017805955E+02  0.51100000000E-03 0.  1.
         11    1    3    3    0    0  0.46091480150E+01  0.88745473175E+01 -0.29324391020E+02  0.30982603901E+02  0.51100000000E-03 0. -1.
<mgrwt>
<rscale>  0 0.20000187E+02</rscale>
<asrwt>0</asrwt>
<pdfrwt beam="2">  1        3 0.92835662E-02 0.20000187E+02</pdfrwt>
<pdfrwt beam="1">  1       -3 0.25495679E-03 0.20000187E+02</pdfrwt>
<totfact> 0.15654658E+06</totfact>
</mgrwt>
</event>
<event>
 5    1  0.4133473E-007  0.2000011E+02  0.7818608E-02  0.1745326E+00
         -3   -1    0    0    0  501 -0.00000000000E+00  0.00000000000E+00  0.38437454025E+01  0.38448703124E+01  0.93000000000E-01 0.  1.
          3   -1    0    0  501    0  0.00000000000E+00 -0.00000000000E+00 -0.26011556711E+02  0.26011722963E+02  0.93000000000E-01 0. -1.
       1023    2    1    2    0    0  0.00000000000E+00  0.00000000000E+00 -0.22167811308E+02  0.29856593276E+02  0.20000107595E+02 0.  0.
        -11    1    3    3    0    0  0.98770069036E+01  0.15636925748E+01 -0.11122714813E+02  0.14957111517E+02  0.51100000000E-03 0. -1.
         11    1    3    3    0    0 -0.98770069036E+01 -0.15636925748E+01 -0.11045096495E+02  0.14899481759E+02  0.51100000000E-03 0.  1.
<mgrwt>
<rscale>  0 0.20000108E+02</rscale>
<asrwt>0</asrwt>
<pdfrwt beam="2">  1        3 0.40018772E-02 0.20000108E+02</pdfrwt>
<pdfrwt beam="1">  1       -3 0.59144478E-03 0.20000108E+02</pdfrwt>
<totfact> 0.17274565E+06</totfact>
</mgrwt>
</event>
<event>
 5    1  0.4324208E-007  0.2000094E+02  0.7818608E-02  0.1745309E+00
          3   -1    0    0  501    0  0.00000000000E+00  0.00000000000E+00  0.12786390833E+02  0.12786729040E+02  0.93000000000E-01 0. -1.
         -3   -1    0    0    0  501 -0.00000000000E+00 -0.00000000000E+00 -0.78208331570E+01  0.78213860836E+01  0.93000000000E-01 0.  1.
       1023    2    1    2    0    0  0.00000000000E+00  0.00000000000E+00  0.49655576761E+01  0.20608115123E+02  0.20000941125E+02 0.  0.
        -11    1    3    3    0    0  0.22866418310E+01 -0.97351491955E+01  0.25723102624E+01  0.10325630299E+02  0.51100000000E-03 0. -1.
         11    1    3    3    0    0 -0.22866418310E+01  0.97351491955E+01  0.23932474137E+01  0.10282484825E+02  0.51100000000E-03 0.  1.
<mgrwt>
<rscale>  0 0.20000941E+02</rscale>
<asrwt>0</asrwt>
<pdfrwt beam="1">  1        3 0.19672056E-02 0.20000941E+02</pdfrwt>
<pdfrwt beam="2">  1       -3 0.12032737E-02 0.20000941E+02</pdfrwt>
<totfact> 0.17843860E+06</totfact>
</mgrwt>
</event>
<event>
 5    1  0.4133473E-007  0.2000314E+02  0.7818608E-02  0.1745266E+00
          3   -1    0    0  501    0  0.00000000000E+00  0.00000000000E+00  0.41701180052E+02  0.41701283754E+02  0.93000000000E-01 0.  1.
         -3   -1    0    0    0  501 -0.00000000000E+00 -0.00000000000E+00 -0.23977589201E+01  0.23995618014E+01  0.93000000000E-01 0. -1.
       1023    2    1    2    0    0  0.00000000000E+00  0.00000000000E+00  0.39303421132E+02  0.44100845555E+02  0.20003141404E+02 0.  0.
        -11    1    3    3    0    0  0.48699678532E+01  0.87343069971E+01  0.19291388534E+02  0.21729297675E+02  0.51100000000E-03 0. -1.
         11    1    3    3    0    0 -0.48699678532E+01 -0.87343069971E+01  0.20012032598E+02  0.22371547881E+02  0.51100000000E-03 0.  1.
<mgrwt>
<rscale>  0 0.20003141E+02</rscale>
<asrwt>0</asrwt>
<pdfrwt beam="1">  1        3 0.64157130E-02 0.20003141E+02</pdfrwt>
<pdfrwt beam="2">  1       -3 0.36903264E-03 0.20003141E+02</pdfrwt>
<totfact> 0.16493914E+06</totfact>
</mgrwt>
</event>
<event>
 4    1  0.4133473E-007  0.2019044E+02  0.7818608E-02  0.1741567E+00
         -3   -1    0    0    0  501 -0.00000000000E+00  0.00000000000E+00  0.20127990616E+02  0.20128205465E+02  0.93000000000E-01 0.  1.
          3   -1    0    0  501    0  0.00000000000E+00 -0.00000000000E+00 -0.50626042210E+01  0.50634583536E+01  0.93000000000E-01 0. -1.
        -11    1    1    2    0    0 -0.26969386298E+01 -0.97027838685E+01  0.66539514038E+01  0.12070317407E+02  0.51100000000E-03 0. -1.
         11    1    1    2    0    0  0.26969386298E+01  0.97027838685E+01  0.84114349916E+01  0.13121346411E+02  0.51100000000E-03 0.  1.
<mgrwt>
<rscale>  0 0.20190445E+02</rscale>
<asrwt>0</asrwt>
<pdfrwt beam="2">  1        3 0.77894442E-03 0.20190445E+02</pdfrwt>
<pdfrwt beam="1">  1       -3 0.30966962E-02 0.20190445E+02</pdfrwt>
<totfact> 0.17201081E+06</totfact>
</mgrwt>
</event>
<event>
 5    1  0.4133473E-007  0.2000162E+02  0.7818608E-02  0.1745296E+00
         -3   -1    0    0    0  501 -0.00000000000E+00  0.00000000000E+00  0.10862451170E+01  0.10902189937E+01  0.93000000000E-01 0.  1.
          3   -1    0    0  501    0  0.00000000000E+00 -0.00000000000E+00 -0.91903086011E+02  0.91903133066E+02  0.93000000000E-01 0. -1.
       1023    2    1    2    0    0  0.00000000000E+00  0.00000000000E+00 -0.90816840894E+02  0.92993352060E+02  0.20001623367E+02 0.  0.
        -11    1    3    3    0    0  0.97094423513E+01 -0.23950843411E+01 -0.45784245812E+02  0.46863705195E+02  0.51100000000E-03 0. -1.
         11    1    3    3    0    0 -0.97094423513E+01  0.23950843411E+01 -0.45032595082E+02  0.46129646865E+02  0.51100000000E-03 0.  1.
<mgrwt>
<rscale>  0 0.20001623E+02</rscale>
<asrwt>0</asrwt>
<pdfrwt beam="2">  1        3 0.14139239E-01 0.20001623E+02</pdfrwt>
<pdfrwt beam="1">  1       -3 0.16742401E-03 0.20001623E+02</pdfrwt>
<totfact> 0.14422879E+06</totfact>
</mgrwt>
</event>
<event>
 5    1  0.4133473E-007  0.2000010E+02  0.7818608E-02  0.1745326E+00
         -3   -1    0    0    0  501 -0.00000000000E+00  0.00000000000E+00  0.21905343087E+01  0.21925075958E+01  0.93000000000E-01 0. -1.
          3   -1    0    0  501    0  0.00000000000E+00 -0.00000000000E+00 -0.45628843017E+02  0.45628937792E+02  0.93000000000E-01 0.  1.
       1023    2    1    2    0    0  0.00000000000E+00  0.00000000000E+00 -0.43438308708E+02  0.47821445388E+02  0.20000099389E+02 0.  0.
        -11    1    3    3    0    0 -0.98555393990E+01  0.16939052556E+01 -0.21730311879E+02  0.23920857561E+02  0.51100000000E-03 0.  1.
         11    1    3    3    0    0  0.98555393990E+01 -0.16939052556E+01 -0.21707996829E+02  0.23900587827E+02  0.51100000000E-03 0. -1.
<mgrwt>
<rscale>  0 0.20000099E+02</rscale>
<asrwt>0</asrwt>
<pdfrwt beam="2">  1        3 0.70199804E-02 0.20000099E+02</pdfrwt>
<pdfrwt beam="1">  1       -3 0.33716439E-03 0.20000099E+02</pdfrwt>
<totfact> 0.16313188E+06</totfact>
</mgrwt>
</event>
<event>
 5    1  0.4133473E-007  0.2000022E+02  0.7818608E-02  0.1745324E+00
          3   -1    0    0  501    0  0.00000000000E+00  0.00000000000E+00  0.95361848146E+00  0.95814258238E+00  0.93000000000E-01 0. -1.
         -3   -1    0    0    0  501 -0.00000000000E+00 -0.00000000000E+00 -0.10461334604E+03  0.10461338738E+03  0.93000000000E-01 0.  1.
       1023    2    1    2    0    0  0.00000000000E+00  0.00000000000E+00 -0.10365972756E+03  0.10557152996E+03  0.20000220515E+02 0.  0.
        -11    1    3    3    0    0  0.98561078180E+01 -0.16904605236E+01 -0.51613071510E+02  0.52572898617E+02  0.51100000000E-03 0. -1.
         11    1    3    3    0    0 -0.98561078180E+01  0.16904605236E+01 -0.52046656049E+02  0.52998631344E+02  0.51100000000E-03 0.  1.
<mgrwt>
<rscale>  0 0.20000221E+02</rscale>
<asrwt>0</asrwt>
<pdfrwt beam="1">  1        3 0.14706181E-03 0.20000221E+02</pdfrwt>
<pdfrwt beam="2">  1       -3 0.16094703E-01 0.20000221E+02</pdfrwt>
<totfact> 0.13990509E+06</totfact>
</mgrwt>
</event>
<event>
 5    1  0.4133473E-007  0.2000555E+02  0.7818608E-02  0.1745218E+00
          3   -1    0    0  501    0  0.00000000000E+00  0.00000000000E+00  0.60348834867E+02  0.60348906526E+02  0.93000000000E-01 0.  1.
         -3   -1    0    0    0  501 -0.00000000000E+00 -0.00000000000E+00 -0.16565765569E+01  0.16591850074E+01  0.93000000000E-01 0. -1.
       1023    2    1    2    0    0  0.00000000000E+00  0.00000000000E+00  0.58692258310E+02  0.62008091533E+02  0.20005554979E+02 0.  0.
        -11    1    3    3    0    0 -0.59162662550E+01 -0.80649475812E+01  0.29655639244E+02  0.31297005051E+02  0.51100000000E-03 0.  1.
         11    1    3    3    0    0  0.59162662550E+01  0.80649475812E+01  0.29036619066E+02  0.30711086482E+02  0.51100000000E-03 0. -1.
<mgrwt>
<rscale>  0 0.20005555E+02</rscale>
<asrwt>0</asrwt>
<pdfrwt beam="1">  1        3 0.92846409E-02 0.20005555E+02</pdfrwt>
<pdfrwt beam="2">  1       -3 0.25506413E-03 0.20005555E+02</pdfrwt>
<totfact> 0.15645300E+06</totfact>
</mgrwt>
</event>
<event>
 5    1  0.4133473E-007  0.2000035E+02  0.7818608E-02  0.1745321E+00
         -3   -1    0    0    0  501 -0.00000000000E+00  0.00000000000E+00  0.32711411163E+01  0.32724628650E+01  0.93000000000E-01 0. -1.
          3   -1    0    0  501    0  0.00000000000E+00 -0.00000000000E+00 -0.30563866396E+02  0.30564007886E+02  0.93000000000E-01 0.  1.
       1023    2    1    2    0    0  0.00000000000E+00  0.00000000000E+00 -0.27292725280E+02  0.33836470751E+02  0.20000347490E+02 0.  0.
        -11    1    3    3    0    0  0.14480341465E+01 -0.98946073274E+01 -0.13745265548E+02  0.16998011127E+02  0.51100000000E-03 0. -1.
         11    1    3    3    0    0 -0.14480341465E+01  0.98946073274E+01 -0.13547459732E+02  0.16838459624E+02  0.51100000000E-03 0.  1.
<mgrwt>
<rscale>  0 0.20000347E+02</rscale>
<asrwt>0</asrwt>
<pdfrwt beam="2">  1        3 0.47022457E-02 0.20000347E+02</pdfrwt>
<pdfrwt beam="1">  1       -3 0.50336506E-03 0.20000347E+02</pdfrwt>
<totfact> 0.17046249E+06</totfact>
</mgrwt>
</event>
<event>
 5    1  0.4133473E-007  0.2000014E+02  0.7818608E-02  0.1745325E+00
         -3   -1    0    0    0  501 -0.00000000000E+00  0.00000000000E+00  0.30874972696E+01  0.30888976011E+01  0.93000000000E-01 0.  1.
          3   -1    0    0  501    0  0.00000000000E+00 -0.00000000000E+00 -0.32380323480E+02  0.32380457033E+02  0.93000000000E-01 0. -1.
       1023    2    1    2    0    0  0.00000000000E+00  0.00000000000E+00 -0.29292826210E+02  0.35469354634E+02  0.20000136269E+02 0.  0.
        -11    1    3    3    0    0  0.99888529631E+01  0.47310851338E+00 -0.14679460631E+02  0.17761970044E+02  0.51100000000E-03 0. -1.
         11    1    3    3    0    0 -0.99888529631E+01 -0.47310851338E+00 -0.14613365579E+02  0.17707384589E+02  0.51100000000E-03 0.  1.
<mgrwt>
<rscale>  0 0.20000136E+02</rscale>
<asrwt>0</asrwt>
<pdfrwt beam="2">  1        3 0.49817060E-02 0.20000136E+02</pdfrwt>
<pdfrwt beam="1">  1       -3 0.47511759E-03 0.20000136E+02</pdfrwt>
<totfact> 0.16955870E+06</totfact>
</mgrwt>
</event>
<event>
 5    1  0.4133473E-007  0.2000039E+02  0.7818608E-02  0.1745320E+00
          3   -1    0    0  501    0  0.00000000000E+00  0.00000000000E+00  0.70485924175E+01  0.70492059176E+01  0.93000000000E-01 0. -1.
         -3   -1    0    0    0  501 -0.00000000000E+00 -0.00000000000E+00 -0.14186402121E+02  0.14186706952E+02  0.93000000000E-01 0.  1.
       1023    2    1    2    0    0  0.00000000000E+00  0.00000000000E+00 -0.71378097036E+01  0.21235912870E+02  0.20000391697E+02 0.  0.
        -11    1    3    3    0    0  0.10523881936E+01  0.99446593368E+01 -0.35817568266E+01  0.10622276237E+02  0.51100000000E-03 0. -1.
         11    1    3    3    0    0 -0.10523881936E+01 -0.99446593368E+01 -0.35560528770E+01  0.10613636632E+02  0.51100000000E-03 0.  1.
<mgrwt>
<rscale>  0 0.20000392E+02</rscale>
<asrwt>0</asrwt>
<pdfrwt beam="1">  1        3 0.10844695E-02 0.20000392E+02</pdfrwt>
<pdfrwt beam="2">  1       -3 0.21825940E-02 0.20000392E+02</pdfrwt>
<totfact> 0.17804592E+06</totfact>
</mgrwt>
</event>
<event>
 5    1  0.4142399E-007  0.2000097E+02  0.7818608E-02  0.1745309E+00
          3   -1    0    0  501    0  0.00000000000E+00  0.00000000000E+00  0.27836064377E+01  0.27851595645E+01  0.93000000000E-01 0. -1.
         -3   -1    0    0    0  501 -0.00000000000E+00 -0.00000000000E+00 -0.35916462879E+02  0.35916583283E+02  0.93000000000E-01 0.  1.
       1023    2    1    2    0    0  0.00000000000E+00  0.00000000000E+00 -0.33132856441E+02  0.38701742848E+02  0.20000968064E+02 0.  0.
        -11    1    3    3    0    0 -0.99970627986E+01  0.26132993802E+00 -0.16587860132E+02  0.19369219446E+02  0.51100000000E-03 0. -1.
         11    1    3    3    0    0  0.99970627986E+01 -0.26132993802E+00 -0.16544996310E+02  0.19332523402E+02  0.51100000000E-03 0.  1.
<mgrwt>
<rscale>  0 0.20000968E+02</rscale>
<asrwt>0</asrwt>
<pdfrwt beam="1">  1        3 0.42837590E-03 0.20000968E+02</pdfrwt>
<pdfrwt beam="2">  1       -3 0.55257381E-02 0.20000968E+02</pdfrwt>
<totfact> 0.16781161E+06</totfact>
</mgrwt>
</event>
<event>
 5    1  0.4133473E-007  0.2000198E+02  0.7818608E-02  0.1745289E+00
          3   -1    0    0  501    0  0.00000000000E+00  0.00000000000E+00  0.81219028067E+02  0.81219081312E+02  0.93000000000E-01 0.  1.
         -3   -1    0    0    0  501 -0.00000000000E+00 -0.00000000000E+00 -0.12296724778E+01  0.12331842533E+01  0.93000000000E-01 0. -1.
       1023    2    1    2    0    0  0.00000000000E+00  0.00000000000E+00  0.79989355589E+02  0.82452265565E+02  0.20001977134E+02 0.  0.
        -11    1    3    3    0    0 -0.29802729821E+01  0.95463361574E+01  0.40292247809E+02  0.41514814161E+02  0.51100000000E-03 0.  1.
         11    1    3    3    0    0  0.29802729821E+01 -0.95463361574E+01  0.39697107780E+02  0.40937451404E+02  0.51100000000E-03 0. -1.
<mgrwt>
<rscale>  0 0.20001977E+02</rscale>
<asrwt>0</asrwt>
<pdfrwt beam="1">  1        3 0.12495509E-01 0.20001977E+02</pdfrwt>
<pdfrwt beam="2">  1       -3 0.18945462E-03 0.20001977E+02</pdfrwt>
<totfact> 0.14813688E+06</totfact>
</mgrwt>
</event>
<event>
 5    1  0.4133473E-007  0.2000872E+02  0.7818608E-02  0.1745155E+00
          3   -1    0    0  501    0  0.00000000000E+00  0.00000000000E+00  0.55652827560E+01  0.55660597512E+01  0.93000000000E-01 0. -1.
         -3   -1    0    0    0  501 -0.00000000000E+00 -0.00000000000E+00 -0.17982049883E+02  0.17982290371E+02  0.93000000000E-01 0.  1.
       1023    2    1    2    0    0  0.00000000000E+00  0.00000000000E+00 -0.12416767127E+02  0.23548350122E+02  0.20008715291E+02 0.  0.
        -11    1    3    3    0    0 -0.79196977534E+01  0.61057427947E+01 -0.65524426521E+01  0.11955593358E+02  0.51100000000E-03 0.  1.
         11    1    3    3    0    0  0.79196977534E+01 -0.61057427947E+01 -0.58643244745E+01  0.11592756764E+02  0.51100000000E-03 0. -1.
<mgrwt>
<rscale>  0 0.20008715E+02</rscale>
<asrwt>0</asrwt>
<pdfrwt beam="1">  1        3 0.85627562E-03 0.20008715E+02</pdfrwt>
<pdfrwt beam="2">  1       -3 0.27665475E-02 0.20008715E+02</pdfrwt>
<totfact> 0.17641598E+06</totfact>
</mgrwt>
</event>
<event>
 5    1  0.4133473E-007  0.2000038E+02  0.7818608E-02  0.1745320E+00
          3   -1    0    0  501    0  0.00000000000E+00  0.00000000000E+00  0.14328429505E+01  0.14358579042E+01  0.93000000000E-01 0. -1.
         -3   -1    0    0    0  501 -0.00000000000E+00 -0.00000000000E+00 -0.69717597614E+02  0.69717659643E+02  0.93000000000E-01 0.  1.
       1023    2    1    2    0    0  0.00000000000E+00  0.00000000000E+00 -0.68284754663E+02  0.71153517547E+02  0.20000383493E+02 0.  0.
        -11    1    3    3    0    0 -0.88353976891E+01  0.46837864502E+01 -0.34290215798E+02  0.35718636698E+02  0.51100000000E-03 0. -1.
         11    1    3    3    0    0  0.88353976891E+01 -0.46837864502E+01 -0.33994538866E+02  0.35434880849E+02  0.51100000000E-03 0.  1.
<mgrwt>
<rscale>  0 0.20000383E+02</rscale>
<asrwt>0</asrwt>
<pdfrwt beam="1">  1        3 0.22067412E-03 0.20000383E+02</pdfrwt>
<pdfrwt beam="2">  1       -3 0.10726018E-01 0.20000383E+02</pdfrwt>
<totfact> 0.15267598E+06</totfact>
</mgrwt>
</event>
<event>
 5    1  0.4133473E-007  0.2000084E+02  0.7818608E-02  0.1745311E+00
         -3   -1    0    0    0  501 -0.00000000000E+00  0.00000000000E+00  0.30051470643E+01  0.30065857510E+01  0.93000000000E-01 0.  1.
          3   -1    0    0  501    0  0.00000000000E+00 -0.00000000000E+00 -0.33269577064E+02  0.33269707048E+02  0.93000000000E-01 0. -1.
       1023    2    1    2    0    0  0.00000000000E+00  0.00000000000E+00 -0.30264430000E+02  0.36276292799E+02  0.20000842382E+02 0.  0.
        -11    1    3    3    0    0  0.87479869781E+01  0.48452127120E+01 -0.15003180035E+02  0.18030495662E+02  0.51100000000E-03 0.  1.
         11    1    3    3    0    0 -0.87479869781E+01 -0.48452127120E+01 -0.15261249965E+02  0.18245797136E+02  0.51100000000E-03 0. -1.
<mgrwt>
<rscale>  0 0.20000842E+02</rscale>
<asrwt>0</asrwt>
<pdfrwt beam="2">  1        3 0.51185169E-02 0.20000842E+02</pdfrwt>
<pdfrwt beam="1">  1       -3 0.46245101E-03 0.20000842E+02</pdfrwt>
<totfact> 0.16910299E+06</totfact>
</mgrwt>
</event>
<event>
 5    1  0.4133473E-007  0.2000020E+02  0.7818608E-02  0.1745324E+00
          3   -1    0    0  501    0  0.00000000000E+00  0.00000000000E+00  0.11692502170E+02  0.11692872017E+02  0.93000000000E-01 0. -1.
         -3   -1    0    0    0  501 -0.00000000000E+00 -0.00000000000E+00 -0.85518984344E+01  0.85524040967E+01  0.93000000000E-01 0.  1.
       1023    2    1    2    0    0  0.00000000000E+00  0.00000000000E+00  0.31406037360E+01  0.20245276114E+02  0.20000195326E+02 0.  0.
        -11    1    3    3    0    0 -0.73322351655E+01  0.67999959630E+01  0.15888400319E+01  0.10125513840E+02  0.51100000000E-03 0. -1.
         11    1    3    3    0    0  0.73322351655E+01 -0.67999959630E+01  0.15517637042E+01  0.10119762274E+02  0.51100000000E-03 0.  1.
<mgrwt>
<rscale>  0 0.20000195E+02</rscale>
<asrwt>0</asrwt>
<pdfrwt beam="1">  1        3 0.17989138E-02 0.20000195E+02</pdfrwt>
<pdfrwt beam="2">  1       -3 0.13157440E-02 0.20000195E+02</pdfrwt>
<totfact> 0.17869057E+06</totfact>
</mgrwt>
</event>
<event>
 5    1  0.4133473E-007  0.2000328E+02  0.7818608E-02  0.1745263E+00
          3   -1    0    0  501    0  0.00000000000E+00  0.00000000000E+00  0.78625480775E+02  0.78625535776E+02  0.93000000000E-01 0. -1.
         -3   -1    0    0    0  501 -0.00000000000E+00 -0.00000000000E+00 -0.12705146543E+01  0.12739138459E+01  0.93000000000E-01 0.  1.
       1023    2    1    2    0    0  0.00000000000E+00  0.00000000000E+00  0.77354966120E+02  0.79899449622E+02  0.20003281391E+02 0.  0.
        -11    1    3    3    0    0 -0.98327771934E+01 -0.18301115937E+01  0.38680460230E+02  0.39952607170E+02  0.51100000000E-03 0.  1.
         11    1    3    3    0    0  0.98327771934E+01  0.18301115937E+01  0.38674505890E+02  0.39946842452E+02  0.51100000000E-03 0. -1.
<mgrwt>
<rscale>  0 0.20003281E+02</rscale>
<asrwt>0</asrwt>
<pdfrwt beam="1">  1        3 0.12096498E-01 0.20003281E+02</pdfrwt>
<pdfrwt beam="2">  1       -3 0.19572943E-03 0.20003281E+02</pdfrwt>
<totfact> 0.14910068E+06</totfact>
</mgrwt>
</event>
<event>
 5    1  0.4133473E-007  0.2000326E+02  0.7818608E-02  0.1745263E+00
         -3   -1    0    0    0  501 -0.00000000000E+00  0.00000000000E+00  0.54737140377E+02  0.54737219382E+02  0.93000000000E-01 0. -1.
          3   -1    0    0  501    0  0.00000000000E+00 -0.00000000000E+00 -0.18262460370E+01  0.18286124760E+01  0.93000000000E-01 0.  1.
       1023    2    1    2    0    0  0.00000000000E+00  0.00000000000E+00  0.52910894340E+02  0.56565831858E+02  0.20003264581E+02 0.  0.
        -11    1    3    3    0    0 -0.99105984622E+01 -0.13455955412E+01  0.26327131735E+02  0.28162891451E+02  0.51100000000E-03 0.  1.
         11    1    3    3    0    0  0.99105984622E+01  0.13455955412E+01  0.26583762605E+02  0.28402940407E+02  0.51100000000E-03 0. -1.
<mgrwt>
<rscale>  0 0.20003265E+02</rscale>
<asrwt>0</asrwt>
<pdfrwt beam="2">  1        3 0.28114901E-03 0.20003265E+02</pdfrwt>
<pdfrwt beam="1">  1       -3 0.84212875E-02 0.20003265E+02</pdfrwt>
<totfact> 0.15895837E+06</totfact>
</mgrwt>
</event>
<event>
 5    1  0.4133473E-007  0.2000687E+02  0.7818608E-02  0.1745192E+00
         -3   -1    0    0    0  501 -0.00000000000E+00  0.00000000000E+00  0.64593676359E+01  0.64600370940E+01  0.93000000000E-01 0. -1.
          3   -1    0    0  501    0  0.00000000000E+00 -0.00000000000E+00 -0.15490415782E+02  0.15490694952E+02  0.93000000000E-01 0.  1.
       1023    2    1    2    0    0  0.00000000000E+00  0.00000000000E+00 -0.90310481456E+01  0.21950732046E+02  0.20006868989E+02 0.  0.
        -11    1    3    3    0    0 -0.61307715802E+01  0.79043835534E+01 -0.45762347331E+01  0.11000343818E+02  0.51100000000E-03 0.  1.
         11    1    3    3    0    0  0.61307715802E+01 -0.79043835534E+01 -0.44548134125E+01  0.10950388227E+02  0.51100000000E-03 0. -1.
<mgrwt>
<rscale>  0 0.20006869E+02</rscale>
<asrwt>0</asrwt>
<pdfrwt beam="2">  1        3 0.23832139E-02 0.20006869E+02</pdfrwt>
<pdfrwt beam="1">  1       -3 0.99382184E-03 0.20006869E+02</pdfrwt>
<totfact> 0.17745474E+06</totfact>
</mgrwt>
</event>
<event>
 5    1  0.4499565E-007  0.2000157E+02  0.7818608E-02  0.1745297E+00
         -3   -1    0    0    0  501 -0.00000000000E+00  0.00000000000E+00  0.81067635278E+01  0.81072969538E+01  0.93000000000E-01 0.  1.
          3   -1    0    0  501    0  0.00000000000E+00 -0.00000000000E+00 -0.12336203362E+02  0.12336553911E+02  0.93000000000E-01 0. -1.
       1023    2    1    2    0    0  0.00000000000E+00  0.00000000000E+00 -0.42294398343E+01  0.20443850864E+02  0.20001571860E+02 0.  0.
        -11    1    3    3    0    0  0.32629492027E+01 -0.94531922324E+01 -0.21941431776E+01  0.10238356578E+02  0.51100000000E-03 0. -1.
         11    1    3    3    0    0 -0.32629492027E+01  0.94531922324E+01 -0.20352966567E+01  0.10205494286E+02  0.51100000000E-03 0.  1.
<mgrwt>
<rscale>  0 0.20001572E+02</rscale>
<asrwt>0</asrwt>
<pdfrwt beam="2">  1        3 0.18979454E-02 0.20001572E+02</pdfrwt>
<pdfrwt beam="1">  1       -3 0.12472624E-02 0.20001572E+02</pdfrwt>
<totfact> 0.17853374E+06</totfact>
</mgrwt>
</event>
<event>
 5    1  0.4165212E-007  0.2000178E+02  0.7818608E-02  0.1745293E+00
          3   -1    0    0  501    0  0.00000000000E+00  0.00000000000E+00  0.27675766323E+01  0.27691387498E+01  0.93000000000E-01 0.  1.
         -3   -1    0    0    0  501 -0.00000000000E+00 -0.00000000000E+00 -0.36127308625E+02  0.36127428326E+02  0.93000000000E-01 0. -1.
       1023    2    1    2    0    0  0.00000000000E+00  0.00000000000E+00 -0.33359731993E+02  0.38896567076E+02  0.20001780213E+02 0.  0.
        -11    1    3    3    0    0 -0.26310634957E+01  0.96485767292E+01 -0.16712093566E+02  0.19475923589E+02  0.51100000000E-03 0. -1.
         11    1    3    3    0    0  0.26310634957E+01 -0.96485767292E+01 -0.16647638427E+02  0.19420643487E+02  0.51100000000E-03 0.  1.
<mgrwt>
<rscale>  0 0.20001780E+02</rscale>
<asrwt>0</asrwt>
<pdfrwt beam="1">  1        3 0.42591041E-03 0.20001780E+02</pdfrwt>
<pdfrwt beam="2">  1       -3 0.55581765E-02 0.20001780E+02</pdfrwt>
<totfact> 0.16769310E+06</totfact>
</mgrwt>
</event>
<event>
 5    1  0.4133473E-007  0.2000014E+02  0.7818608E-02  0.1745325E+00
          3   -1    0    0  501    0  0.00000000000E+00  0.00000000000E+00  0.79492069488E+02  0.79492123890E+02  0.93000000000E-01 0. -1.
         -3   -1    0    0    0  501 -0.00000000000E+00 -0.00000000000E+00 -0.12562309760E+01  0.12596687125E+01  0.93000000000E-01 0.  1.
       1023    2    1    2    0    0  0.00000000000E+00  0.00000000000E+00  0.78235838512E+02  0.80751792602E+02  0.20000139519E+02 0.  0.
        -11    1    3    3    0    0  0.65411737198E+01 -0.75640093168E+01  0.39060200929E+02  0.40319976283E+02  0.51100000000E-03 0. -1.
         11    1    3    3    0    0 -0.65411737198E+01  0.75640093168E+01  0.39175637583E+02  0.40431816319E+02  0.51100000000E-03 0.  1.
<mgrwt>
<rscale>  0 0.20000140E+02</rscale>
<asrwt>0</asrwt>
<pdfrwt beam="1">  1        3 0.12229819E-01 0.20000140E+02</pdfrwt>
<pdfrwt beam="2">  1       -3 0.19353491E-03 0.20000140E+02</pdfrwt>
<totfact> 0.14882039E+06</totfact>
</mgrwt>
</event>
<event>
 5    1  0.4133473E-007  0.2000600E+02  0.7818608E-02  0.1745209E+00
         -3   -1    0    0    0  501 -0.00000000000E+00  0.00000000000E+00  0.58382457861E+01  0.58389864582E+01  0.93000000000E-01 0. -1.
          3   -1    0    0  501    0  0.00000000000E+00 -0.00000000000E+00 -0.17136754372E+02  0.17137006722E+02  0.93000000000E-01 0.  1.
       1023    2    1    2    0    0  0.00000000000E+00  0.00000000000E+00 -0.11298508586E+02  0.22975993180E+02  0.20005998260E+02 0.  0.
        -11    1    3    3    0    0  0.81225468946E+01 -0.58330531562E+01 -0.59298963165E+01  0.11626003086E+02  0.51100000000E-03 0. -1.
         11    1    3    3    0    0 -0.81225468946E+01  0.58330531562E+01 -0.53686122691E+01  0.11349990094E+02  0.51100000000E-03 0.  1.
<mgrwt>
<rscale>  0 0.20005998E+02</rscale>
<asrwt>0</asrwt>
<pdfrwt beam="2">  1        3 0.26365001E-02 0.20005998E+02</pdfrwt>
<pdfrwt beam="1">  1       -3 0.89826806E-03 0.20005998E+02</pdfrwt>
<totfact> 0.17681808E+06</totfact>
</mgrwt>
</event>
<event>
 5    1  0.4133473E-007  0.2000697E+02  0.7818608E-02  0.1745189E+00
          3   -1    0    0  501    0  0.00000000000E+00  0.00000000000E+00  0.53651189732E+02  0.53651270336E+02  0.93000000000E-01 0.  1.
         -3   -1    0    0    0  501 -0.00000000000E+00 -0.00000000000E+00 -0.18639499996E+01  0.18662686305E+01  0.93000000000E-01 0. -1.
       1023    2    1    2    0    0  0.00000000000E+00  0.00000000000E+00  0.51787239732E+02  0.55517538967E+02  0.20006972130E+02 0.  0.
        -11    1    3    3    0    0  0.25718140610E+01  0.96672275488E+01  0.25852729449E+02  0.27720626549E+02  0.51100000000E-03 0.  1.
         11    1    3    3    0    0 -0.25718140610E+01 -0.96672275488E+01  0.25934510284E+02  0.27796912418E+02  0.51100000000E-03 0. -1.
<mgrwt>
<rscale>  0 0.20006972E+02</rscale>
<asrwt>0</asrwt>
<pdfrwt beam="1">  1        3 0.82542137E-02 0.20006972E+02</pdfrwt>
<pdfrwt beam="2">  1       -3 0.28694609E-03 0.20006972E+02</pdfrwt>
<totfact> 0.15934922E+06</totfact>
</mgrwt>
</event>
<event>
 5    1  0.4361069E-007  0.2000112E+02  0.7818608E-02  0.1745306E+00
         -3   -1    0    0    0  501 -0.00000000000E+00  0.00000000000E+00  0.16848856166E+02  0.16849112828E+02  0.93000000000E-01 0. -1.
          3   -1    0    0  501    0  0.00000000000E+00 -0.00000000000E+00 -0.59351210881E+01  0.59358496721E+01  0.93000000000E-01 0.  1.
       1023    2    1    2    0    0  0.00000000000E+00  0.00000000000E+00  0.10913735078E+02  0.22784962500E+02  0.20001122538E+02 0.  0.
        -11    1    3    3    0    0 -0.52193548121E+01  0.85304314066E+01  0.54979540498E+01  0.11412161217E+02  0.51100000000E-03 0.  1.
         11    1    3    3    0    0  0.52193548121E+01 -0.85304314066E+01  0.54157810280E+01  0.11372801284E+02  0.51100000000E-03 0. -1.
<mgrwt>
<rscale>  0 0.20001123E+02</rscale>
<asrwt>0</asrwt>
<pdfrwt beam="2">  1        3 0.91317134E-03 0.20001123E+02</pdfrwt>
<pdfrwt beam="1">  1       -3 0.25922075E-02 0.20001123E+02</pdfrwt>
<totfact> 0.17704131E+06</totfact>
</mgrwt>
</event>
<event>
 5    1  0.4133473E-007  0.2000183E+02  0.7818608E-02  0.1745292E+00
         -3   -1    0    0    0  501 -0.00000000000E+00  0.00000000000E+00  0.11328765140E+01  0.11366873783E+01  0.93000000000E-01 0.  1.
          3   -1    0    0  501    0  0.00000000000E+00 -0.00000000000E+00 -0.88134947370E+02  0.88134996437E+02  0.93000000000E-01 0. -1.
       1023    2    1    2    0    0  0.00000000000E+00  0.00000000000E+00 -0.87002070856E+02  0.89271683815E+02  0.20001829865E+02 0.  0.
        -11    1    3    3    0    0  0.60806238694E+01 -0.79392459117E+01 -0.44003751166E+02  0.45125776771E+02  0.51100000000E-03 0. -1.
         11    1    3    3    0    0 -0.60806238694E+01  0.79392459117E+01 -0.42998319690E+02  0.44145907044E+02  0.51100000000E-03 0.  1.
<mgrwt>
<rscale>  0 0.20001830E+02</rscale>
<asrwt>0</asrwt>
<pdfrwt beam="2">  1        3 0.13559514E-01 0.20001830E+02</pdfrwt>
<pdfrwt beam="1">  1       -3 0.17458568E-03 0.20001830E+02</pdfrwt>
<totfact> 0.14558014E+06</totfact>
</mgrwt>
</event>
<event>
 5    1  0.4194730E-007  0.2000088E+02  0.7818608E-02  0.1745311E+00
          3   -1    0    0  501    0  0.00000000000E+00  0.00000000000E+00  0.25967602310E+01  0.25984250417E+01  0.93000000000E-01 0.  1.
         -3   -1    0    0    0  501 -0.00000000000E+00 -0.00000000000E+00 -0.38498863907E+02  0.38498976235E+02  0.93000000000E-01 0. -1.
       1023    2    1    2    0    0  0.00000000000E+00  0.00000000000E+00 -0.35902103676E+02  0.41097401277E+02  0.20000883564E+02 0.  0.
        -11    1    3    3    0    0  0.35880770741E+01 -0.93345878553E+01 -0.17945220864E+02  0.20543606783E+02  0.51100000000E-03 0. -1.
         11    1    3    3    0    0 -0.35880770741E+01  0.93345878553E+01 -0.17956882812E+02  0.20553794494E+02  0.51100000000E-03 0.  1.
<mgrwt>
<rscale>  0 0.20000884E+02</rscale>
<asrwt>0</asrwt>
<pdfrwt beam="1">  1        3 0.39963830E-03 0.20000884E+02</pdfrwt>
<pdfrwt beam="2">  1       -3 0.59230384E-02 0.20000884E+02</pdfrwt>
<totfact> 0.16654948E+06</totfact>
</mgrwt>
</event>
<event>
 5    1  0.4133473E-007  0.2000791E+02  0.7818608E-02  0.1745171E+00
         -3   -1    0    0    0  501 -0.00000000000E+00  0.00000000000E+00  0.96189857992E+01  0.96194353683E+01  0.93000000000E-01 0. -1.
          3   -1    0    0  501    0  0.00000000000E+00 -0.00000000000E+00 -0.10403433371E+02  0.10403849043E+02  0.93000000000E-01 0.  1.
       1023    2    1    2    0    0  0.00000000000E+00  0.00000000000E+00 -0.78444757199E+00  0.20023284411E+02  0.20007912450E+02 0.  0.
        -11    1    3    3    0    0  0.32382057615E+01 -0.94642031516E+01 -0.24371150251E+00  0.10005823974E+02  0.51100000000E-03 0. -1.
         11    1    3    3    0    0 -0.32382057615E+01  0.94642031516E+01 -0.54073606949E+00  0.10017460437E+02  0.51100000000E-03 0.  1.
<mgrwt>
<rscale>  0 0.20007912E+02</rscale>
<asrwt>0</asrwt>
<pdfrwt beam="2">  1        3 0.16005948E-02 0.20007912E+02</pdfrwt>
<pdfrwt beam="1">  1       -3 0.14799105E-02 0.20007912E+02</pdfrwt>
<totfact> 0.17868836E+06</totfact>
</mgrwt>
</event>
<event>
 5    1  0.4201425E-007  0.2000141E+02  0.7818608E-02  0.1745300E+00
         -3   -1    0    0    0  501 -0.00000000000E+00  0.00000000000E+00  0.17413788059E+02  0.17414036395E+02  0.93000000000E-01 0.  1.
          3   -1    0    0  501    0  0.00000000000E+00 -0.00000000000E+00 -0.57427224596E+01  0.57434754502E+01  0.93000000000E-01 0. -1.
       1023    2    1    2    0    0  0.00000000000E+00  0.00000000000E+00  0.11671065600E+02  0.23157511845E+02  0.20001414516E+02 0.  0.
        -11    1    3    3    0    0 -0.92479952758E+01 -0.38054083477E+01  0.59364409051E+01  0.11629612212E+02  0.51100000000E-03 0.  1.
         11    1    3    3    0    0  0.92479952758E+01  0.38054083477E+01  0.57346246945E+01  0.11527899634E+02  0.51100000000E-03 0. -1.
<mgrwt>
<rscale>  0 0.20001415E+02</rscale>
<asrwt>0</asrwt>
<pdfrwt beam="2">  1        3 0.88357280E-03 0.20001415E+02</pdfrwt>
<pdfrwt beam="1">  1       -3 0.26791213E-02 0.20001415E+02</pdfrwt>
<totfact> 0.17680035E+06</totfact>
</mgrwt>
</event>
<event>
 4    1  0.4133473E-007  0.2005948E+02  0.7818608E-02  0.1744148E+00
          3   -1    0    0  501    0  0.00000000000E+00  0.00000000000E+00  0.17057889058E+01  0.17083222152E+01  0.93000000000E-01 0.  1.
         -3   -1    0    0    0  501 -0.00000000000E+00 -0.00000000000E+00 -0.58926804265E+02  0.58926877652E+02  0.93000000000E-01 0. -1.
        -11    1    1    2    0    0 -0.70362946252E+01  0.71261420661E+01 -0.26942845261E+02  0.28743838536E+02  0.51100000000E-03 0.  1.
         11    1    1    2    0    0  0.70362946252E+01 -0.71261420661E+01 -0.30278170098E+02  0.31891361331E+02  0.51100000000E-03 0. -1.
<mgrwt>
<rscale>  0 0.20059483E+02</rscale>
<asrwt>0</asrwt>
<pdfrwt beam="1">  1        3 0.26262962E-03 0.20059483E+02</pdfrwt>
<pdfrwt beam="2">  1       -3 0.90658612E-02 0.20059483E+02</pdfrwt>
<totfact> 0.15618143E+06</totfact>
</mgrwt>
</event>
<event>
 5    1  0.4133473E-007  0.2000046E+02  0.7818608E-02  0.1745319E+00
         -3   -1    0    0    0  501 -0.00000000000E+00  0.00000000000E+00  0.59919476264E+02  0.59919548435E+02  0.93000000000E-01 0. -1.
          3   -1    0    0  501    0  0.00000000000E+00 -0.00000000000E+00 -0.16676146162E+01  0.16702058281E+01  0.93000000000E-01 0.  1.
       1023    2    1    2    0    0  0.00000000000E+00  0.00000000000E+00  0.58251861647E+02  0.61589754264E+02  0.20000461116E+02 0.  0.
        -11    1    3    3    0    0 -0.33000083164E+00 -0.99947534753E+01  0.29202196766E+02  0.30867009796E+02  0.51100000000E-03 0. -1.
         11    1    3    3    0    0  0.33000083164E+00  0.99947534753E+01  0.29049664882E+02  0.30722744467E+02  0.51100000000E-03 0.  1.
<mgrwt>
<rscale>  0 0.20000461E+02</rscale>
<asrwt>0</asrwt>
<pdfrwt beam="2">  1        3 0.25676096E-03 0.20000461E+02</pdfrwt>
<pdfrwt beam="1">  1       -3 0.92185862E-02 0.20000461E+02</pdfrwt>
<totfact> 0.15675079E+06</totfact>
</mgrwt>
</event>
<event>
 5    1  0.4133473E-007  0.2000095E+02  0.7818608E-02  0.1745309E+00
          3   -1    0    0  501    0  0.00000000000E+00  0.00000000000E+00  0.10333423904E+03  0.10333428089E+03  0.93000000000E-01 0. -1.
         -3   -1    0    0    0  501 -0.00000000000E+00 -0.00000000000E+00 -0.96554958452E+00  0.97001804116E+00  0.93000000000E-01 0.  1.
       1023    2    1    2    0    0  0.00000000000E+00  0.00000000000E+00  0.10236868945E+03  0.10430429893E+03  0.20000954842E+02 0.  0.
        -11    1    3    3    0    0 -0.30825876775E+01 -0.95133143515E+01  0.50852398741E+02  0.51826363511E+02  0.51100000000E-03 0. -1.
         11    1    3    3    0    0  0.30825876775E+01  0.95133143515E+01  0.51516290713E+02  0.52477935419E+02  0.51100000000E-03 0.  1.
<mgrwt>
<rscale>  0 0.20000955E+02</rscale>
<asrwt>0</asrwt>
<pdfrwt beam="1">  1        3 0.15897916E-01 0.20000955E+02</pdfrwt>
<pdfrwt beam="2">  1       -3 0.14889310E-03 0.20000955E+02</pdfrwt>
<totfact> 0.14029333E+06</totfact>
</mgrwt>
</event>
<event>
 5    1  0.4133473E-007  0.2000364E+02  0.7818608E-02  0.1745256E+00
         -3   -1    0    0    0  501 -0.00000000000E+00  0.00000000000E+00  0.21768824199E+01  0.21788680708E+01  0.93000000000E-01 0.  1.
          3   -1    0    0  501    0  0.00000000000E+00 -0.00000000000E+00 -0.45931017608E+02  0.45931111760E+02  0.93000000000E-01 0. -1.
       1023    2    1    2    0    0  0.00000000000E+00  0.00000000000E+00 -0.43754135189E+02  0.48109979831E+02  0.20003644999E+02 0.  0.
        -11    1    3    3    0    0 -0.41110545989E+01  0.91169695719E+01 -0.22186461261E+02  0.24336371291E+02  0.51100000000E-03 0. -1.
         11    1    3    3    0    0  0.41110545989E+01 -0.91169695719E+01 -0.21567673928E+02  0.23773608540E+02  0.51100000000E-03 0.  1.
<mgrwt>
<rscale>  0 0.20003645E+02</rscale>
<asrwt>0</asrwt>
<pdfrwt beam="2">  1        3 0.70664697E-02 0.20003645E+02</pdfrwt>
<pdfrwt beam="1">  1       -3 0.33506501E-03 0.20003645E+02</pdfrwt>
<totfact> 0.16292804E+06</totfact>
</mgrwt>
</event>
<event>
 5    1  0.4152891E-007  0.2000195E+02  0.7818608E-02  0.1745289E+00
         -3   -1    0    0    0  501 -0.00000000000E+00  0.00000000000E+00  0.94874588519E+01  0.94879146532E+01  0.93000000000E-01 0.  1.
          3   -1    0    0  501    0  0.00000000000E+00 -0.00000000000E+00 -0.10541376403E+02  0.10541786635E+02  0.93000000000E-01 0. -1.
       1023    2    1    2    0    0  0.00000000000E+00  0.00000000000E+00 -0.10539175508E+01  0.20029701288E+02  0.20001954692E+02 0.  0.
        -11    1    3    3    0    0 -0.99845251977E+01 -0.57314929686E+00 -0.54442066281E+00  0.10015769449E+02  0.51100000000E-03 0.  1.
         11    1    3    3    0    0  0.99845251977E+01  0.57314929686E+00 -0.50949688796E+00  0.10013931839E+02  0.51100000000E-03 0. -1.
<mgrwt>
<rscale>  0 0.20001955E+02</rscale>
<asrwt>0</asrwt>
<pdfrwt beam="2">  1        3 0.16218168E-02 0.20001955E+02</pdfrwt>
<pdfrwt beam="1">  1       -3 0.14596757E-02 0.20001955E+02</pdfrwt>
<totfact> 0.17879883E+06</totfact>
</mgrwt>
</event>
<event>
 5    1  0.4283431E-007  0.2000093E+02  0.7818608E-02  0.1745310E+00
          3   -1    0    0  501    0  0.00000000000E+00  0.00000000000E+00  0.89437282054E+01  0.89442117155E+01  0.93000000000E-01 0.  1.
         -3   -1    0    0    0  501 -0.00000000000E+00 -0.00000000000E+00 -0.11181082500E+02  0.11181469262E+02  0.93000000000E-01 0. -1.
       1023    2    1    2    0    0  0.00000000000E+00  0.00000000000E+00 -0.22373542943E+01  0.20125680978E+02  0.20000931993E+02 0.  0.
        -11    1    3    3    0    0 -0.98867508271E+01 -0.15013656175E+01 -0.10322387962E+01  0.10053231213E+02  0.51100000000E-03 0.  1.
         11    1    3    3    0    0  0.98867508271E+01  0.15013656175E+01 -0.12051154982E+01  0.10072449765E+02  0.51100000000E-03 0. -1.
<mgrwt>
<rscale>  0 0.20000932E+02</rscale>
<asrwt>0</asrwt>
<pdfrwt beam="1">  1        3 0.13760251E-02 0.20000932E+02</pdfrwt>
<pdfrwt beam="2">  1       -3 0.17202335E-02 0.20000932E+02</pdfrwt>
<totfact> 0.17875747E+06</totfact>
</mgrwt>
</event>
<event>
 5    1  0.4133473E-007  0.2000882E+02  0.7818608E-02  0.1745153E+00
          3   -1    0    0  501    0  0.00000000000E+00  0.00000000000E+00  0.37696813454E+01  0.37708283501E+01  0.93000000000E-01 0. -1.
         -3   -1    0    0    0  501 -0.00000000000E+00 -0.00000000000E+00 -0.26545584084E+02  0.26545746992E+02  0.93000000000E-01 0.  1.
       1023    2    1    2    0    0  0.00000000000E+00  0.00000000000E+00 -0.22775902738E+02  0.30316575342E+02  0.20008822927E+02 0.  0.
        -11    1    3    3    0    0  0.92606740970E+01 -0.37851869763E+01 -0.11353291285E+02  0.15132248625E+02  0.51100000000E-03 0. -1.
         11    1    3    3    0    0 -0.92606740970E+01  0.37851869763E+01 -0.11422611453E+02  0.15184326717E+02  0.51100000000E-03 0.  1.
<mgrwt>
<rscale>  0 0.20008823E+02</rscale>
<asrwt>0</asrwt>
<pdfrwt beam="1">  1        3 0.58005176E-03 0.20008823E+02</pdfrwt>
<pdfrwt beam="2">  1       -3 0.40840367E-02 0.20008823E+02</pdfrwt>
<totfact> 0.17233298E+06</totfact>
</mgrwt>
</event>
<event>
 5    1  0.4133473E-007  0.2000094E+02  0.7818608E-02  0.1745309E+00
         -3   -1    0    0    0  501 -0.00000000000E+00  0.00000000000E+00  0.10170060947E+03  0.10170065199E+03  0.93000000000E-01 0.  1.
          3   -1    0    0  501    0  0.00000000000E+00 -0.00000000000E+00 -0.98112917947E+00  0.98552699953E+00  0.93000000000E-01 0. -1.
       1023    2    1    2    0    0  0.00000000000E+00  0.00000000000E+00  0.10071948029E+03  0.10268617899E+03  0.20000941124E+02 0.  0.
        -11    1    3    3    0    0 -0.19687748087E+01 -0.98047433716E+01  0.50264465904E+02  0.51249639996E+02  0.51100000000E-03 0. -1.
         11    1    3    3    0    0  0.19687748087E+01  0.98047433716E+01  0.50455014385E+02  0.51436538994E+02  0.51100000000E-03 0.  1.
<mgrwt>
<rscale>  0 0.20000941E+02</rscale>
<asrwt>0</asrwt>
<pdfrwt beam="2">  1        3 0.15128456E-03 0.20000941E+02</pdfrwt>
<pdfrwt beam="1">  1       -3 0.15646585E-01 0.20000941E+02</pdfrwt>
<totfact> 0.14087117E+06</totfact>
</mgrwt>
</event>
<event>
 5    1  0.4133473E-007  0.2000908E+02  0.7818608E-02  0.1745148E+00
          3   -1    0    0  501    0  0.00000000000E+00  0.00000000000E+00  0.22972611218E+01  0.22991428102E+01  0.93000000000E-01 0. -1.
         -3   -1    0    0    0  501 -0.00000000000E+00 -0.00000000000E+00 -0.43549862691E+02  0.43549961991E+02  0.93000000000E-01 0.  1.
       1023    2    1    2    0    0  0.00000000000E+00  0.00000000000E+00 -0.41252601569E+02  0.45849104801E+02  0.20009079810E+02 0.  0.
        -11    1    3    3    0    0  0.40083811525E+01  0.91660926233E+01 -0.20442344213E+02  0.22759037999E+02  0.51100000000E-03 0. -1.
         11    1    3    3    0    0 -0.40083811525E+01 -0.91660926233E+01 -0.20810257356E+02  0.23090066802E+02  0.51100000000E-03 0.  1.
<mgrwt>
<rscale>  0 0.20009080E+02</rscale>
<asrwt>0</asrwt>
<pdfrwt beam="1">  1        3 0.35357721E-03 0.20009080E+02</pdfrwt>
<pdfrwt beam="2">  1       -3 0.67001306E-02 0.20009080E+02</pdfrwt>
<totfact> 0.16397698E+06</totfact>
</mgrwt>
</event>
<event>
 5    1  0.4133473E-007  0.2000037E+02  0.7818608E-02  0.1745321E+00
          3   -1    0    0  501    0  0.00000000000E+00  0.00000000000E+00  0.10337645915E+03  0.10337650098E+03  0.93000000000E-01 0.  1.
         -3   -1    0    0    0  501 -0.00000000000E+00 -0.00000000000E+00 -0.96509659903E+00  0.96956714335E+00  0.93000000000E-01 0. -1.
       1023    2    1    2    0    0  0.00000000000E+00  0.00000000000E+00  0.10241136255E+03  0.10434606812E+03  0.20000368841E+02 0.  0.
        -11    1    3    3    0    0 -0.99973664558E+01  0.23737816891E+00  0.51195598821E+02  0.52163138549E+02  0.51100000000E-03 0.  1.
         11    1    3    3    0    0  0.99973664558E+01 -0.23737816891E+00  0.51215763727E+02  0.52182929573E+02  0.51100000000E-03 0. -1.
<mgrwt>
<rscale>  0 0.20000369E+02</rscale>
<asrwt>0</asrwt>
<pdfrwt beam="1">  1        3 0.15904403E-01 0.20000369E+02</pdfrwt>
<pdfrwt beam="2">  1       -3 0.14882364E-03 0.20000369E+02</pdfrwt>
<totfact> 0.14028805E+06</totfact>
</mgrwt>
</event>
<event>
 5    1  0.4207055E-007  0.2000084E+02  0.7818608E-02  0.1745311E+00
         -3   -1    0    0    0  501 -0.00000000000E+00  0.00000000000E+00  0.10520856503E+02  0.10521267536E+02  0.93000000000E-01 0.  1.
          3   -1    0    0  501    0  0.00000000000E+00 -0.00000000000E+00 -0.95049037186E+01  0.95053586834E+01  0.93000000000E-01 0. -1.
       1023    2    1    2    0    0  0.00000000000E+00  0.00000000000E+00  0.10159527845E+01  0.20026626219E+02  0.20000839924E+02 0.  0.
        -11    1    3    3    0    0  0.87416906657E+01  0.48570784107E+01  0.51370847058E+00  0.10013603898E+02  0.51100000000E-03 0. -1.
         11    1    3    3    0    0 -0.87416906657E+01 -0.48570784107E+01  0.50224431392E+00  0.10013022321E+02  0.51100000000E-03 0.  1.
<mgrwt>
<rscale>  0 0.20000840E+02</rscale>
<asrwt>0</asrwt>
<pdfrwt beam="2">  1        3 0.14623595E-02 0.20000840E+02</pdfrwt>
<pdfrwt beam="1">  1       -3 0.16186599E-02 0.20000840E+02</pdfrwt>
<totfact> 0.17882324E+06</totfact>
</mgrwt>
</event>
<event>
 5    1  0.4133473E-007  0.2000523E+02  0.7818608E-02  0.1745224E+00
         -3   -1    0    0    0  501 -0.00000000000E+00  0.00000000000E+00  0.47187604953E+02  0.47187696598E+02  0.93000000000E-01 0. -1.
          3   -1    0    0  501    0  0.00000000000E+00 -0.00000000000E+00 -0.21191960695E+01  0.21212357203E+01  0.93000000000E-01 0.  1.
       1023    2    1    2    0    0  0.00000000000E+00  0.00000000000E+00  0.45068408883E+02  0.49308932318E+02  0.20005232492E+02 0.  0.
        -11    1    3    3    0    0 -0.11010566882E+01  0.99417873335E+01  0.22606917625E+02  0.24720926075E+02  0.51100000000E-03 0.  1.
         11    1    3    3    0    0  0.11010566882E+01 -0.99417873335E+01  0.22461491258E+02  0.24588006243E+02  0.51100000000E-03 0. -1.
<mgrwt>
<rscale>  0 0.20005232E+02</rscale>
<asrwt>0</asrwt>
<pdfrwt beam="2">  1        3 0.32619414E-03 0.20005232E+02</pdfrwt>
<pdfrwt beam="1">  1       -3 0.72597948E-02 0.20005232E+02</pdfrwt>
<totfact> 0.16234075E+06</totfact>
</mgrwt>
</event>
<event>
 5    1  0.4133473E-007  0.2000020E+02  0.7818608E-02  0.1745324E+00
         -3   -1    0    0    0  501 -0.00000000000E+00  0.00000000000E+00  0.32019657134E+02  0.32019792192E+02  0.93000000000E-01 0.  1.
          3   -1    0    0  501    0  0.00000000000E+00 -0.00000000000E+00 -0.31223095013E+01  0.31236942267E+01  0.93000000000E-01 0. -1.
       1023    2    1    2    0    0  0.00000000000E+00  0.00000000000E+00  0.28897347633E+02  0.35143486418E+02  0.20000198435E+02 0.  0.
        -11    1    3    3    0    0  0.16261310584E+01  0.98669447520E+01  0.14390843970E+02  0.17524191605E+02  0.51100000000E-03 0.  1.
         11    1    3    3    0    0 -0.16261310584E+01 -0.98669447520E+01  0.14506503662E+02  0.17619294814E+02  0.51100000000E-03 0. -1.
<mgrwt>
<rscale>  0 0.20000198E+02</rscale>
<asrwt>0</asrwt>
<pdfrwt beam="2">  1        3 0.48047221E-03 0.20000198E+02</pdfrwt>
<pdfrwt beam="1">  1       -3 0.49262181E-02 0.20000198E+02</pdfrwt>
<totfact> 0.16975751E+06</totfact>
</mgrwt>
</event>
<event>
 5    1  0.4133473E-007  0.2000017E+02  0.7818608E-02  0.1745325E+00
         -3   -1    0    0    0  501 -0.00000000000E+00  0.00000000000E+00  0.22740752021E+01  0.22759760598E+01  0.93000000000E-01 0.  1.
          3   -1    0    0  501    0  0.00000000000E+00 -0.00000000000E+00 -0.43954358952E+02  0.43954457338E+02  0.93000000000E-01 0. -1.
       1023    2    1    2    0    0  0.00000000000E+00  0.00000000000E+00 -0.41680283750E+02  0.46230433398E+02  0.20000172966E+02 0.  0.
        -11    1    3    3    0    0  0.93443208821E+01 -0.35616365526E+01 -0.20812623422E+02  0.23090406702E+02  0.51100000000E-03 0. -1.
         11    1    3    3    0    0 -0.93443208821E+01  0.35616365526E+01 -0.20867660328E+02  0.23140026696E+02  0.51100000000E-03 0.  1.
<mgrwt>
<rscale>  0 0.20000173E+02</rscale>
<asrwt>0</asrwt>
<pdfrwt beam="2">  1        3 0.67623623E-02 0.20000173E+02</pdfrwt>
<pdfrwt beam="1">  1       -3 0.35001154E-03 0.20000173E+02</pdfrwt>
<totfact> 0.16391886E+06</totfact>
</mgrwt>
</event>
<event>
 5    1  0.4133473E-007  0.2000143E+02  0.7818608E-02  0.1745300E+00
         -3   -1    0    0    0  501 -0.00000000000E+00  0.00000000000E+00  0.54618305426E+02  0.54618384602E+02  0.93000000000E-01 0. -1.
          3   -1    0    0  501    0  0.00000000000E+00 -0.00000000000E+00 -0.18298877283E+01  0.18322494640E+01  0.93000000000E-01 0.  1.
       1023    2    1    2    0    0  0.00000000000E+00  0.00000000000E+00  0.52788417697E+02  0.56450634066E+02  0.20001426037E+02 0.  0.
        -11    1    3    3    0    0 -0.75157761005E+01  0.65970877295E+01  0.26609219856E+02  0.28426379272E+02  0.51100000000E-03 0.  1.
         11    1    3    3    0    0  0.75157761005E+01 -0.65970877295E+01  0.26179197841E+02  0.28024254794E+02  0.51100000000E-03 0. -1.
<mgrwt>
<rscale>  0 0.20001426E+02</rscale>
<asrwt>0</asrwt>
<pdfrwt beam="2">  1        3 0.28170896E-03 0.20001426E+02</pdfrwt>
<pdfrwt beam="1">  1       -3 0.84030038E-02 0.20001426E+02</pdfrwt>
<totfact> 0.15904246E+06</totfact>
</mgrwt>
</event>
<event>
 4    1  0.4133473E-007  0.2001268E+02  0.7818608E-02  0.1745076E+00
         -3   -1    0    0    0  501 -0.00000000000E+00  0.00000000000E+00  0.95406773331E+00  0.95858971398E+00  0.93000000000E-01 0. -1.
          3   -1    0    0  501    0  0.00000000000E+00 -0.00000000000E+00 -0.10469466104E+03  0.10469470234E+03  0.93000000000E-01 0.  1.
        -11    1    1    2    0    0  0.80932901646E+01 -0.58815747234E+01 -0.52823336737E+02  0.53762432713E+02  0.51100000000E-03 0.  1.
         11    1    1    2    0    0 -0.80932901646E+01  0.58815747234E+01 -0.50917256568E+02  0.51890859345E+02  0.51100000000E-03 0. -1.
<mgrwt>
<rscale>  0 0.20012682E+02</rscale>
<asrwt>0</asrwt>
<pdfrwt beam="2">  1        3 0.16107213E-01 0.20012682E+02</pdfrwt>
<pdfrwt beam="1">  1       -3 0.14713076E-03 0.20012682E+02</pdfrwt>
<totfact> 0.13966292E+06</totfact>
</mgrwt>
</event>
<event>
 5    1  0.4133473E-007  0.2000116E+02  0.7818608E-02  0.1745305E+00
         -3   -1    0    0    0  501 -0.00000000000E+00  0.00000000000E+00  0.11171665503E+03  0.11171669374E+03  0.93000000000E-01 0.  1.
          3   -1    0    0  501    0  0.00000000000E+00 -0.00000000000E+00 -0.89277141681E+00  0.89760225193E+00  0.93000000000E-01 0. -1.
       1023    2    1    2    0    0  0.00000000000E+00  0.00000000000E+00  0.11082388362E+03  0.11261429600E+03  0.20001162030E+02 0.  0.
        -11    1    3    3    0    0 -0.99077628265E+01  0.13587563290E+01  0.55184109919E+02  0.56082938321E+02  0.51100000000E-03 0.  1.
         11    1    3    3    0    0  0.99077628265E+01 -0.13587563290E+01  0.55639773699E+02  0.56531357674E+02  0.51100000000E-03 0. -1.
<mgrwt>
<rscale>  0 0.20001162E+02</rscale>
<asrwt>0</asrwt>
<pdfrwt beam="2">  1        3 0.13772402E-03 0.20001162E+02</pdfrwt>
<pdfrwt beam="1">  1       -3 0.17187554E-01 0.20001162E+02</pdfrwt>
<totfact> 0.13756758E+06</totfact>
</mgrwt>
</event>
<event>
 5    1  0.4133473E-007  0.2000032E+02  0.7818608E-02  0.1745322E+00
          3   -1    0    0  501    0  0.00000000000E+00  0.00000000000E+00  0.10889290576E+02  0.10889687702E+02  0.93000000000E-01 0.  1.
         -3   -1    0    0    0  501 -0.00000000000E+00 -0.00000000000E+00 -0.91828296920E+01  0.91833006132E+01  0.93000000000E-01 0. -1.
       1023    2    1    2    0    0  0.00000000000E+00  0.00000000000E+00  0.17064608839E+01  0.20072988315E+02  0.20000321276E+02 0.  0.
        -11    1    3    3    0    0 -0.72503612510E+01 -0.68872944447E+01  0.82765274958E+00  0.10034319726E+02  0.51100000000E-03 0. -1.
         11    1    3    3    0    0  0.72503612510E+01  0.68872944447E+01  0.87880813432E+00  0.10038668589E+02  0.51100000000E-03 0.  1.
<mgrwt>
<rscale>  0 0.20000321E+02</rscale>
<asrwt>0</asrwt>
<pdfrwt beam="1">  1        3 0.16753422E-02 0.20000321E+02</pdfrwt>
<pdfrwt beam="2">  1       -3 0.14128098E-02 0.20000321E+02</pdfrwt>
<totfact> 0.17880188E+06</totfact>
</mgrwt>
</event>
<event>
 4    1  0.4133473E-007  0.2003457E+02  0.7818608E-02  0.1744642E+00
          3   -1    0    0  501    0  0.00000000000E+00  0.00000000000E+00  0.45493480987E+02  0.45493576045E+02  0.93000000000E-01 0.  1.
         -3   -1    0    0    0  501 -0.00000000000E+00 -0.00000000000E+00 -0.22046438112E+01  0.22066044807E+01  0.93000000000E-01 0. -1.
        -11    1    1    2    0    0  0.96591230035E+01 -0.26532332357E+01  0.21852600051E+02  0.24039018970E+02  0.51100000000E-03 0. -1.
         11    1    1    2    0    0 -0.96591230035E+01  0.26532332357E+01  0.21436237126E+02  0.23661161556E+02  0.51100000000E-03 0.  1.
<mgrwt>
<rscale>  0 0.20034565E+02</rscale>
<asrwt>0</asrwt>
<pdfrwt beam="1">  1        3 0.69991549E-02 0.20034565E+02</pdfrwt>
<pdfrwt beam="2">  1       -3 0.33933412E-03 0.20034565E+02</pdfrwt>
<totfact> 0.16258888E+06</totfact>
</mgrwt>
</event>
<event>
 5    1  0.4133473E-007  0.2000495E+02  0.7818608E-02  0.1745230E+00
          3   -1    0    0  501    0  0.00000000000E+00  0.00000000000E+00  0.39143588597E+02  0.39143699075E+02  0.93000000000E-01 0. -1.
         -3   -1    0    0    0  501 -0.00000000000E+00 -0.00000000000E+00 -0.25550015161E+01  0.25566935184E+01  0.93000000000E-01 0.  1.
       1023    2    1    2    0    0  0.00000000000E+00  0.00000000000E+00  0.36588587081E+02  0.41700392593E+02  0.20004950333E+02 0.  0.
        -11    1    3    3    0    0 -0.38865241738E+01 -0.92158142764E+01  0.18533841636E+02  0.21060379602E+02  0.51100000000E-03 0. -1.
         11    1    3    3    0    0  0.38865241738E+01  0.92158142764E+01  0.18054745445E+02  0.20640012991E+02  0.51100000000E-03 0.  1.
<mgrwt>
<rscale>  0 0.20004950E+02</rscale>
<asrwt>0</asrwt>
<pdfrwt beam="1">  1        3 0.60222291E-02 0.20004950E+02</pdfrwt>
<pdfrwt beam="2">  1       -3 0.39321581E-03 0.20004950E+02</pdfrwt>
<totfact> 0.16614033E+06</totfact>
</mgrwt>
</event>
<event>
 5    1  0.4133473E-007  0.2000844E+02  0.7818608E-02  0.1745160E+00
          3   -1    0    0  501    0  0.00000000000E+00  0.00000000000E+00  0.45532730656E+01  0.45542227229E+01  0.93000000000E-01 0.  1.
         -3   -1    0    0    0  501 -0.00000000000E+00 -0.00000000000E+00 -0.21977416291E+02  0.21977613060E+02  0.93000000000E-01 0. -1.
       1023    2    1    2    0    0  0.00000000000E+00  0.00000000000E+00 -0.17424143225E+02  0.26531835783E+02  0.20008436793E+02 0.  0.
        -11    1    3    3    0    0  0.93205926517E+01 -0.36291409510E+01 -0.84459582220E+01  0.13091154341E+02  0.51100000000E-03 0. -1.
         11    1    3    3    0    0 -0.93205926517E+01  0.36291409510E+01 -0.89781850031E+01  0.13440681442E+02  0.51100000000E-03 0.  1.
<mgrwt>
<rscale>  0 0.20008437E+02</rscale>
<asrwt>0</asrwt>
<pdfrwt beam="1">  1        3 0.70059175E-03 0.20008437E+02</pdfrwt>
<pdfrwt beam="2">  1       -3 0.33812291E-02 0.20008437E+02</pdfrwt>
<totfact> 0.17458298E+06</totfact>
</mgrwt>
</event>
<event>
 5    1  0.4133473E-007  0.2000034E+02  0.7818608E-02  0.1745321E+00
         -3   -1    0    0    0  501 -0.00000000000E+00  0.00000000000E+00  0.11358340043E+02  0.11358720770E+02  0.93000000000E-01 0. -1.
          3   -1    0    0  501    0  0.00000000000E+00 -0.00000000000E+00 -0.88036259722E+01  0.88041171766E+01  0.93000000000E-01 0.  1.
       1023    2    1    2    0    0  0.00000000000E+00  0.00000000000E+00  0.25547140712E+01  0.20162837947E+02  0.20000336750E+02 0.  0.
        -11    1    3    3    0    0 -0.99740244634E+01  0.72260342297E+00  0.12704047687E+01  0.10080538093E+02  0.51100000000E-03 0. -1.
         11    1    3    3    0    0  0.99740244634E+01 -0.72260342297E+00  0.12843093025E+01  0.10082299854E+02  0.51100000000E-03 0.  1.
<mgrwt>
<rscale>  0 0.20000337E+02</rscale>
<asrwt>0</asrwt>
<pdfrwt beam="2">  1        3 0.13544711E-02 0.20000337E+02</pdfrwt>
<pdfrwt beam="1">  1       -3 0.17475040E-02 0.20000337E+02</pdfrwt>
<totfact> 0.17874456E+06</totfact>
</mgrwt>
</event>
<event>
 5    1  0.4133473E-007  0.2000018E+02  0.7818608E-02  0.1745324E+00
         -3   -1    0    0    0  501 -0.00000000000E+00  0.00000000000E+00  0.85176246581E+00  0.85682454339E+00  0.93000000000E-01 0. -1.
          3   -1    0    0  501    0  0.00000000000E+00 -0.00000000000E+00 -0.11705283193E+03  0.11705286888E+03  0.93000000000E-01 0.  1.
       1023    2    1    2    0    0  0.00000000000E+00  0.00000000000E+00 -0.11620106946E+03  0.11790969342E+03  0.20000181433E+02 0.  0.
        -11    1    3    3    0    0  0.67968403579E+00 -0.99769353618E+01 -0.57955588874E+02  0.58812001255E+02  0.51100000000E-03 0. -1.
         11    1    3    3    0    0 -0.67968403579E+00  0.99769353618E+01 -0.58245480591E+02  0.59097692164E+02  0.51100000000E-03 0.  1.
<mgrwt>
<rscale>  0 0.20000181E+02</rscale>
<asrwt>0</asrwt>
<pdfrwt beam="2">  1        3 0.18008508E-01 0.20000181E+02</pdfrwt>
<pdfrwt beam="1">  1       -3 0.13143270E-03 0.20000181E+02</pdfrwt>
<totfact> 0.13586326E+06</totfact>
</mgrwt>
</event>
<event>
 5    1  0.4133473E-007  0.2000230E+02  0.7818608E-02  0.1745282E+00
         -3   -1    0    0    0  501 -0.00000000000E+00  0.00000000000E+00  0.35342619629E+02  0.35342741988E+02  0.93000000000E-01 0. -1.
          3   -1    0    0  501    0  0.00000000000E+00 -0.00000000000E+00 -0.28292048628E+01  0.28307329715E+01  0.93000000000E-01 0.  1.
       1023    2    1    2    0    0  0.00000000000E+00  0.00000000000E+00  0.32513414766E+02  0.38173474960E+02  0.20002301136E+02 0.  0.
        -11    1    3    3    0    0  0.99927231223E+01 -0.40668322790E+00  0.16150350180E+02  0.18996150080E+02  0.51100000000E-03 0. -1.
         11    1    3    3    0    0 -0.99927231223E+01  0.40668322790E+00  0.16363064586E+02  0.19177324880E+02  0.51100000000E-03 0.  1.
<mgrwt>
<rscale>  0 0.20002301E+02</rscale>
<asrwt>0</asrwt>
<pdfrwt beam="2">  1        3 0.43538925E-03 0.20002301E+02</pdfrwt>
<pdfrwt beam="1">  1       -3 0.54374530E-02 0.20002301E+02</pdfrwt>
<totfact> 0.16807019E+06</totfact>
</mgrwt>
</event>
<event>
 5    1  0.4133473E-007  0.2000266E+02  0.7818608E-02  0.1745275E+00
          3   -1    0    0  501    0  0.00000000000E+00  0.00000000000E+00  0.21055325732E+01  0.21075854471E+01  0.93000000000E-01 0.  1.
         -3   -1    0    0    0  501 -0.00000000000E+00 -0.00000000000E+00 -0.47481315348E+02  0.47481406426E+02  0.93000000000E-01 0. -1.
       1023    2    1    2    0    0  0.00000000000E+00  0.00000000000E+00 -0.45375782775E+02  0.49588991873E+02  0.20002661137E+02 0.  0.
        -11    1    3    3    0    0 -0.45827530471E+01  0.88895277418E+01 -0.22599060159E+02  0.24713212039E+02  0.51100000000E-03 0. -1.
         11    1    3    3    0    0  0.45827530471E+01 -0.88895277418E+01 -0.22776722616E+02  0.24875779834E+02  0.51100000000E-03 0.  1.
<mgrwt>
<rscale>  0 0.20002661E+02</rscale>
<asrwt>0</asrwt>
<pdfrwt beam="1">  1        3 0.32409304E-03 0.20002661E+02</pdfrwt>
<pdfrwt beam="2">  1       -3 0.73049819E-02 0.20002661E+02</pdfrwt>
<totfact> 0.16224986E+06</totfact>
</mgrwt>
</event>
<event>
 5    1  0.4133473E-007  0.2000123E+02  0.7818608E-02  0.1745304E+00
          3   -1    0    0  501    0  0.00000000000E+00  0.00000000000E+00  0.29401290572E+02  0.29401437657E+02  0.93000000000E-01 0. -1.
         -3   -1    0    0    0  501 -0.00000000000E+00 -0.00000000000E+00 -0.34008380557E+01  0.34021094164E+01  0.93000000000E-01 0.  1.
       1023    2    1    2    0    0  0.00000000000E+00  0.00000000000E+00  0.26000452517E+02  0.32803547074E+02  0.20001229201E+02 0.  0.
        -11    1    3    3    0    0  0.49636394902E+01 -0.86817933067E+01  0.13053120102E+02  0.16443697780E+02  0.51100000000E-03 0.  1.
         11    1    3    3    0    0 -0.49636394902E+01  0.86817933067E+01  0.12947332414E+02  0.16359849294E+02  0.51100000000E-03 0. -1.
<mgrwt>
<rscale>  0 0.20001229E+02</rscale>
<asrwt>0</asrwt>
<pdfrwt beam="1">  1        3 0.45233847E-02 0.20001229E+02</pdfrwt>
<pdfrwt beam="2">  1       -3 0.52331495E-03 0.20001229E+02</pdfrwt>
<totfact> 0.17102864E+06</totfact>
</mgrwt>
</event>
<event>
 5    1  0.4211044E-007  0.2000057E+02  0.7818608E-02  0.1745317E+00
         -3   -1    0    0    0  501 -0.00000000000E+00  0.00000000000E+00  0.10257779953E+02  0.10258201526E+02  0.93000000000E-01 0.  1.
          3   -1    0    0  501    0  0.00000000000E+00 -0.00000000000E+00 -0.97484067080E+01  0.97488503089E+01  0.93000000000E-01 0. -1.
       1023    2    1    2    0    0  0.00000000000E+00  0.00000000000E+00  0.50937324458E+00  0.20007051835E+02  0.20000566543E+02 0.  0.
        -11    1    3    3    0    0 -0.40000557417E+01  0.91651327658E+01  0.18009235582E+00  0.10001626771E+02  0.51100000000E-03 0. -1.
         11    1    3    3    0    0  0.40000557417E+01 -0.91651327658E+01  0.32928088876E+00  0.10005425064E+02  0.51100000000E-03 0.  1.
<mgrwt>
<rscale>  0 0.20000567E+02</rscale>
<asrwt>0</asrwt>
<pdfrwt beam="2">  1        3 0.14998214E-02 0.20000567E+02</pdfrwt>
<pdfrwt beam="1">  1       -3 0.15781865E-02 0.20000567E+02</pdfrwt>
<totfact> 0.17884101E+06</totfact>
</mgrwt>
</event>
<event>
 5    1  0.4237420E-007  0.2000102E+02  0.7818608E-02  0.1745308E+00
          3   -1    0    0  501    0  0.00000000000E+00  0.00000000000E+00  0.49876394734E+02  0.49876481438E+02  0.93000000000E-01 0.  1.
         -3   -1    0    0    0  501 -0.00000000000E+00 -0.00000000000E+00 -0.20039944068E+01  0.20061511864E+01  0.93000000000E-01 0. -1.
       1023    2    1    2    0    0  0.00000000000E+00  0.00000000000E+00  0.47872400327E+02  0.51882632625E+02  0.20001021348E+02 0.  0.
        -11    1    3    3    0    0  0.82498959324E+01  0.56523150990E+01  0.24007928263E+02  0.26007500237E+02  0.51100000000E-03 0. -1.
         11    1    3    3    0    0 -0.82498959324E+01 -0.56523150990E+01  0.23864472065E+02  0.25875132387E+02  0.51100000000E-03 0.  1.
<mgrwt>
<rscale>  0 0.20001021E+02</rscale>
<asrwt>0</asrwt>
<pdfrwt beam="1">  1        3 0.76734626E-02 0.20001021E+02</pdfrwt>
<pdfrwt beam="2">  1       -3 0.30847947E-03 0.20001021E+02</pdfrwt>
<totfact> 0.16115255E+06</totfact>
</mgrwt>
</event>
<event>
 5    1  0.4133473E-007  0.2000057E+02  0.7818608E-02  0.1745317E+00
          3   -1    0    0  501    0  0.00000000000E+00  0.00000000000E+00  0.93632359657E+00  0.94093085691E+00  0.93000000000E-01 0. -1.
         -3   -1    0    0    0  501 -0.00000000000E+00 -0.00000000000E+00 -0.10653997819E+03  0.10654001878E+03  0.93000000000E-01 0.  1.
       1023    2    1    2    0    0  0.00000000000E+00  0.00000000000E+00 -0.10560365459E+03  0.10748094964E+03  0.20000566778E+02 0.  0.
        -11    1    3    3    0    0 -0.94089435160E+01  0.33877076189E+01 -0.52961839490E+02  0.53897692190E+02  0.51100000000E-03 0.  1.
         11    1    3    3    0    0  0.94089435160E+01 -0.33877076189E+01 -0.52641815102E+02  0.53583257445E+02  0.51100000000E-03 0. -1.
<mgrwt>
<rscale>  0 0.20000567E+02</rscale>
<asrwt>0</asrwt>
<pdfrwt beam="1">  1        3 0.14440740E-03 0.20000567E+02</pdfrwt>
<pdfrwt beam="2">  1       -3 0.16391114E-01 0.20000567E+02</pdfrwt>
<totfact> 0.13926143E+06</totfact>
</mgrwt>
</event>
<event>
 5    1  0.4133473E-007  0.2000122E+02  0.7818608E-02  0.1745304E+00
         -3   -1    0    0    0  501 -0.00000000000E+00  0.00000000000E+00  0.11417113869E+03  0.11417117657E+03  0.93000000000E-01 0. -1.
          3   -1    0    0  501    0  0.00000000000E+00 -0.00000000000E+00 -0.87347863736E+00  0.87841557928E+00  0.93000000000E-01 0.  1.
       1023    2    1    2    0    0  0.00000000000E+00  0.00000000000E+00  0.11329766006E+03  0.11504959215E+03  0.20001221955E+02 0.  0.
        -11    1    3    3    0    0 -0.99359854960E+01  0.11328806240E+01  0.57055297640E+02  0.57925074151E+02  0.51100000000E-03 0. -1.
         11    1    3    3    0    0  0.99359854960E+01 -0.11328806240E+01  0.56242362416E+02  0.57124518000E+02  0.51100000000E-03 0.  1.
<mgrwt>
<rscale>  0 0.20001222E+02</rscale>
<asrwt>0</asrwt>
<pdfrwt beam="2">  1        3 0.13476397E-03 0.20001222E+02</pdfrwt>
<pdfrwt beam="1">  1       -3 0.17565178E-01 0.20001222E+02</pdfrwt>
<totfact> 0.13678281E+06</totfact>
</mgrwt>
</event>
<event>
 5    1  0.4133473E-007  0.2000773E+02  0.7818608E-02  0.1745174E+00
         -3   -1    0    0    0  501 -0.00000000000E+00  0.00000000000E+00  0.38364866236E+01  0.38376136612E+01  0.93000000000E-01 0.  1.
          3   -1    0    0  501    0  0.00000000000E+00 -0.00000000000E+00 -0.26080634579E+02  0.26080800391E+02  0.93000000000E-01 0. -1.
       1023    2    1    2    0    0  0.00000000000E+00  0.00000000000E+00 -0.22244147955E+02  0.29918414052E+02  0.20007733034E+02 0.  0.
        -11    1    3    3    0    0 -0.83118255640E+01  0.55664831531E+01 -0.11229552844E+02  0.15039116870E+02  0.51100000000E-03 0.  1.
         11    1    3    3    0    0  0.83118255640E+01 -0.55664831531E+01 -0.11014595111E+02  0.14879297182E+02  0.51100000000E-03 0. -1.
<mgrwt>
<rscale>  0 0.20007733E+02</rscale>
<asrwt>0</asrwt>
<pdfrwt beam="2">  1        3 0.40125047E-02 0.20007733E+02</pdfrwt>
<pdfrwt beam="1">  1       -3 0.59032818E-03 0.20007733E+02</pdfrwt>
<totfact> 0.17256795E+06</totfact>
</mgrwt>
</event>
<event>
 5    1  0.4136439E-007  0.2000161E+02  0.7818608E-02  0.1745296E+00
         -3   -1    0    0    0  501 -0.00000000000E+00  0.00000000000E+00  0.20994820613E+01  0.21015408456E+01  0.93000000000E-01 0. -1.
          3   -1    0    0  501    0  0.00000000000E+00 -0.00000000000E+00 -0.47612997627E+02  0.47613088453E+02  0.93000000000E-01 0.  1.
       1023    2    1    2    0    0  0.00000000000E+00  0.00000000000E+00 -0.45513515566E+02  0.49714629298E+02  0.20001606614E+02 0.  0.
        -11    1    3    3    0    0 -0.72502032232E+01 -0.68881747737E+01 -0.22606223262E+02  0.24719500985E+02  0.51100000000E-03 0. -1.
         11    1    3    3    0    0  0.72502032232E+01  0.68881747737E+01 -0.22907292303E+02  0.24995128314E+02  0.51100000000E-03 0.  1.
<mgrwt>
<rscale>  0 0.20001607E+02</rscale>
<asrwt>0</asrwt>
<pdfrwt beam="2">  1        3 0.73252411E-02 0.20001607E+02</pdfrwt>
<pdfrwt beam="1">  1       -3 0.32316263E-03 0.20001607E+02</pdfrwt>
<totfact> 0.16218186E+06</totfact>
</mgrwt>
</event>
<event>
 5    1  0.4133473E-007  0.2000484E+02  0.7818608E-02  0.1745232E+00
         -3   -1    0    0    0  501 -0.00000000000E+00  0.00000000000E+00  0.24036950866E+01  0.24054935189E+01  0.93000000000E-01 0. -1.
          3   -1    0    0  501    0  0.00000000000E+00 -0.00000000000E+00 -0.41605333226E+02  0.41605437167E+02  0.93000000000E-01 0.  1.
       1023    2    1    2    0    0  0.00000000000E+00  0.00000000000E+00 -0.39201638139E+02  0.44010930686E+02  0.20004839090E+02 0.  0.
        -11    1    3    3    0    0  0.99958102495E+01 -0.29080583448E+00 -0.20080835323E+02  0.22433027840E+02  0.51100000000E-03 0.  1.
         11    1    3    3    0    0 -0.99958102495E+01  0.29080583448E+00 -0.19120802817E+02  0.21577902845E+02  0.51100000000E-03 0. -1.
<mgrwt>
<rscale>  0 0.20004839E+02</rscale>
<asrwt>0</asrwt>
<pdfrwt beam="2">  1        3 0.64009663E-02 0.20004839E+02</pdfrwt>
<pdfrwt beam="1">  1       -3 0.36994561E-03 0.20004839E+02</pdfrwt>
<totfact> 0.16495481E+06</totfact>
</mgrwt>
</event>
<event>
 5    1  0.4133473E-007  0.2000722E+02  0.7818608E-02  0.1745185E+00
         -3   -1    0    0    0  501 -0.00000000000E+00  0.00000000000E+00  0.87445746553E+00  0.87938891226E+00  0.93000000000E-01 0.  1.
          3   -1    0    0  501    0  0.00000000000E+00 -0.00000000000E+00 -0.11411245098E+03  0.11411248888E+03  0.93000000000E-01 0. -1.
       1023    2    1    2    0    0  0.00000000000E+00  0.00000000000E+00 -0.11323799351E+03  0.11499187779E+03  0.20007218254E+02 0.  0.
        -11    1    3    3    0    0  0.37108493306E+01  0.92877016672E+01 -0.55463898405E+02  0.56358458385E+02  0.51100000000E-03 0.  1.
         11    1    3    3    0    0 -0.37108493306E+01 -0.92877016672E+01 -0.57774095108E+02  0.58633419403E+02  0.51100000000E-03 0. -1.
<mgrwt>
<rscale>  0 0.20007218E+02</rscale>
<asrwt>0</asrwt>
<pdfrwt beam="2">  1        3 0.17556132E-01 0.20007218E+02</pdfrwt>
<pdfrwt beam="1">  1       -3 0.13491427E-03 0.20007218E+02</pdfrwt>
<totfact> 0.13668657E+06</totfact>
</mgrwt>
</event>
<event>
 5    1  0.4133473E-007  0.2000007E+02  0.7818608E-02  0.1745327E+00
         -3   -1    0    0    0  501 -0.00000000000E+00  0.00000000000E+00  0.52566499954E+02  0.52566582221E+02  0.93000000000E-01 0.  1.
          3   -1    0    0  501    0  0.00000000000E+00 -0.00000000000E+00 -0.19011457418E+01  0.19034190635E+01  0.93000000000E-01 0. -1.
       1023    2    1    2    0    0  0.00000000000E+00  0.00000000000E+00  0.50665354212E+02  0.54470001284E+02  0.20000073062E+02 0.  0.
        -11    1    3    3    0    0  0.78510656916E+01  0.61936625461E+01  0.25314998467E+02  0.27218556829E+02  0.51100000000E-03 0. -1.
         11    1    3    3    0    0 -0.78510656916E+01 -0.61936625461E+01  0.25350355745E+02  0.27251444455E+02  0.51100000000E-03 0.  1.
<mgrwt>
<rscale>  0 0.20000073E+02</rscale>
<asrwt>0</asrwt>
<pdfrwt beam="2">  1        3 0.29266515E-03 0.20000073E+02</pdfrwt>
<pdfrwt beam="1">  1       -3 0.80873354E-02 0.20000073E+02</pdfrwt>
<totfact> 0.15997925E+06</totfact>
</mgrwt>
</event>
<event>
 4    1  0.4133473E-007  0.2001507E+02  0.7818608E-02  0.1745029E+00
         -3   -1    0    0    0  501 -0.00000000000E+00  0.00000000000E+00  0.12195210940E+02  0.12195565542E+02  0.93000000000E-01 0.  1.
          3   -1    0    0  501    0  0.00000000000E+00 -0.00000000000E+00 -0.82115631046E+01  0.82120897232E+01  0.93000000000E-01 0. -1.
        -11    1    1    2    0    0 -0.64608805273E+01 -0.76418573980E+01  0.18910217654E+01  0.10184150689E+02  0.51100000000E-03 0. -1.
         11    1    1    2    0    0  0.64608805273E+01  0.76418573980E+01  0.20926260704E+01  0.10223504576E+02  0.51100000000E-03 0.  1.
<mgrwt>
<rscale>  0 0.20015068E+02</rscale>
<asrwt>0</asrwt>
<pdfrwt beam="2">  1        3 0.12633852E-02 0.20015068E+02</pdfrwt>
<pdfrwt beam="1">  1       -3 0.18762541E-02 0.20015068E+02</pdfrwt>
<totfact> 0.17830162E+06</totfact>
</mgrwt>
</event>
<event>
 5    1  0.4133473E-007  0.2000135E+02  0.7818608E-02  0.1745301E+00
         -3   -1    0    0    0  501 -0.00000000000E+00  0.00000000000E+00  0.62119034323E+02  0.62119103939E+02  0.93000000000E-01 0. -1.
          3   -1    0    0  501    0  0.00000000000E+00 -0.00000000000E+00 -0.16086164506E+01  0.16113025430E+01  0.93000000000E-01 0.  1.
       1023    2    1    2    0    0  0.00000000000E+00  0.00000000000E+00  0.60510417872E+02  0.63730406482E+02  0.20001350937E+02 0.  0.
        -11    1    3    3    0    0  0.24076015336E+01 -0.97061740761E+01  0.29985797006E+02  0.31609403390E+02  0.51100000000E-03 0.  1.
         11    1    3    3    0    0 -0.24076015336E+01  0.97061740761E+01  0.30524620866E+02  0.32121003092E+02  0.51100000000E-03 0. -1.
<mgrwt>
<rscale>  0 0.20001351E+02</rscale>
<asrwt>0</asrwt>
<pdfrwt beam="2">  1        3 0.24769150E-03 0.20001351E+02</pdfrwt>
<pdfrwt beam="1">  1       -3 0.95569838E-02 0.20001351E+02</pdfrwt>
<totfact> 0.15579907E+06</totfact>
</mgrwt>
</event>
<event>
 5    1  0.4133473E-007  0.2000426E+02  0.7818608E-02  0.1745243E+00
          3   -1    0    0  501    0  0.00000000000E+00  0.00000000000E+00  0.12926883388E+02  0.12927217919E+02  0.93000000000E-01 0.  1.
         -3   -1    0    0    0  501 -0.00000000000E+00 -0.00000000000E+00 -0.77383987013E+01  0.77389575177E+01  0.93000000000E-01 0. -1.
       1023    2    1    2    0    0  0.00000000000E+00  0.00000000000E+00  0.51884846864E+01  0.20666175436E+02  0.20004260392E+02 0.  0.
        -11    1    3    3    0    0  0.12930599043E+01  0.99175433180E+01  0.24767296300E+01  0.10303584779E+02  0.51100000000E-03 0.  1.
         11    1    3    3    0    0 -0.12930599043E+01 -0.99175433180E+01  0.27117550564E+01  0.10362590657E+02  0.51100000000E-03 0. -1.
<mgrwt>
<rscale>  0 0.20004260E+02</rscale>
<asrwt>0</asrwt>
<pdfrwt beam="1">  1        3 0.19888200E-02 0.20004260E+02</pdfrwt>
<pdfrwt beam="2">  1       -3 0.11905916E-02 0.20004260E+02</pdfrwt>
<totfact> 0.17833700E+06</totfact>
</mgrwt>
</event>
<event>
 5    1  0.4133473E-007  0.2000344E+02  0.7818608E-02  0.1745260E+00
          3   -1    0    0  501    0  0.00000000000E+00  0.00000000000E+00  0.94499740182E+02  0.94499785944E+02  0.93000000000E-01 0.  1.
         -3   -1    0    0    0  501 -0.00000000000E+00 -0.00000000000E+00 -0.10564795235E+01  0.10605649360E+01  0.93000000000E-01 0. -1.
       1023    2    1    2    0    0  0.00000000000E+00  0.00000000000E+00  0.93443260659E+02  0.95560350880E+02  0.20003442149E+02 0.  0.
        -11    1    3    3    0    0  0.10623125271E+01 -0.99451300581E+01  0.46804980693E+02  0.47861679220E+02  0.51100000000E-03 0. -1.
         11    1    3    3    0    0 -0.10623125271E+01  0.99451300581E+01  0.46638279965E+02  0.47698671660E+02  0.51100000000E-03 0.  1.
<mgrwt>
<rscale>  0 0.20003442E+02</rscale>
<asrwt>0</asrwt>
<pdfrwt beam="1">  1        3 0.14538732E-01 0.20003442E+02</pdfrwt>
<pdfrwt beam="2">  1       -3 0.16285318E-03 0.20003442E+02</pdfrwt>
<totfact> 0.14328334E+06</totfact>
</mgrwt>
</event>
<event>
 5    1  0.4156811E-007  0.2000092E+02  0.7818608E-02  0.1745310E+00
         -3   -1    0    0    0  501 -0.00000000000E+00  0.00000000000E+00  0.22310356188E+02  0.22310550021E+02  0.93000000000E-01 0.  1.
          3   -1    0    0  501    0  0.00000000000E+00 -0.00000000000E+00 -0.44819379215E+01  0.44829026904E+01  0.93000000000E-01 0. -1.
       1023    2    1    2    0    0  0.00000000000E+00  0.00000000000E+00  0.17828418266E+02  0.26793452711E+02  0.20000915237E+02 0.  0.
        -11    1    3    3    0    0 -0.97839571284E+01  0.20696073586E+01  0.89037801896E+01  0.13389786915E+02  0.51100000000E-03 0.  1.
         11    1    3    3    0    0  0.97839571284E+01 -0.20696073586E+01  0.89246380769E+01  0.13403665796E+02  0.51100000000E-03 0. -1.
<mgrwt>
<rscale>  0 0.20000915E+02</rscale>
<asrwt>0</asrwt>
<pdfrwt beam="2">  1        3 0.68961805E-03 0.20000915E+02</pdfrwt>
<pdfrwt beam="1">  1       -3 0.34324515E-02 0.20000915E+02</pdfrwt>
<totfact> 0.17456615E+06</totfact>
</mgrwt>
</event>
<event>
 5    1  0.4133473E-007  0.2000027E+02  0.7818608E-02  0.1745323E+00
         -3   -1    0    0    0  501 -0.00000000000E+00  0.00000000000E+00  0.10431644679E+01  0.10473018223E+01  0.93000000000E-01 0. -1.
          3   -1    0    0  501    0  0.00000000000E+00 -0.00000000000E+00 -0.95670879224E+02  0.95670924426E+02  0.93000000000E-01 0.  1.
       1023    2    1    2    0    0  0.00000000000E+00  0.00000000000E+00 -0.94627714756E+02  0.96718226248E+02  0.20000272214E+02 0.  0.
        -11    1    3    3    0    0  0.56766197489E+01 -0.82327476677E+01 -0.47429913778E+02  0.48472661028E+02  0.51100000000E-03 0.  1.
         11    1    3    3    0    0 -0.56766197489E+01  0.82327476677E+01 -0.47197800978E+02  0.48245565220E+02  0.51100000000E-03 0. -1.
<mgrwt>
<rscale>  0 0.20000272E+02</rscale>
<asrwt>0</asrwt>
<pdfrwt beam="2">  1        3 0.14718912E-01 0.20000272E+02</pdfrwt>
<pdfrwt beam="1">  1       -3 0.16080865E-03 0.20000272E+02</pdfrwt>
<totfact> 0.14292256E+06</totfact>
</mgrwt>
</event>
<event>
 4    1  0.4133473E-007  0.2004132E+02  0.7818608E-02  0.1744508E+00
          3   -1    0    0  501    0  0.00000000000E+00  0.00000000000E+00  0.12434964205E+02  0.12435311969E+02  0.93000000000E-01 0. -1.
         -3   -1    0    0    0  501 -0.00000000000E+00 -0.00000000000E+00 -0.80743727328E+01  0.80749082984E+01  0.93000000000E-01 0.  1.
        -11    1    1    2    0    0  0.32740967610E+01 -0.94626191632E+01  0.17803543017E+01  0.10170080271E+02  0.51100000000E-03 0.  1.
         11    1    1    2    0    0 -0.32740967610E+01  0.94626191632E+01  0.25802371705E+01  0.10340139996E+02  0.51100000000E-03 0. -1.
<mgrwt>
<rscale>  0 0.20041317E+02</rscale>
<asrwt>0</asrwt>
<pdfrwt beam="1">  1        3 0.19131394E-02 0.20041317E+02</pdfrwt>
<pdfrwt beam="2">  1       -3 0.12422791E-02 0.20041317E+02</pdfrwt>
<totfact> 0.17772841E+06</totfact>
</mgrwt>
</event>
<event>
 5    1  0.4133473E-007  0.2000366E+02  0.7818608E-02  0.1745255E+00
          3   -1    0    0  501    0  0.00000000000E+00  0.00000000000E+00  0.52838020219E+02  0.52838102064E+02  0.93000000000E-01 0.  1.
         -3   -1    0    0    0  501 -0.00000000000E+00 -0.00000000000E+00 -0.18920445358E+01  0.18943287797E+01  0.93000000000E-01 0. -1.
       1023    2    1    2    0    0  0.00000000000E+00  0.00000000000E+00  0.50945975684E+02  0.54732430844E+02  0.20003663357E+02 0.  0.
        -11    1    3    3    0    0  0.43028856069E+01 -0.90279330188E+01  0.25103484704E+02  0.27022274954E+02  0.51100000000E-03 0. -1.
         11    1    3    3    0    0 -0.43028856069E+01  0.90279330188E+01  0.25842490979E+02  0.27710155889E+02  0.51100000000E-03 0.  1.
<mgrwt>
<rscale>  0 0.20003663E+02</rscale>
<asrwt>0</asrwt>
<pdfrwt beam="1">  1        3 0.81291097E-02 0.20003663E+02</pdfrwt>
<pdfrwt beam="2">  1       -3 0.29126573E-03 0.20003663E+02</pdfrwt>
<totfact> 0.15976899E+06</totfact>
</mgrwt>
</event>
<event>
 5    1  0.4212438E-007  0.2000118E+02  0.7818608E-02  0.1745305E+00
          3   -1    0    0  501    0  0.00000000000E+00  0.00000000000E+00  0.41617152956E+02  0.41617256868E+02  0.93000000000E-01 0. -1.
         -3   -1    0    0    0  501 -0.00000000000E+00 -0.00000000000E+00 -0.24021317365E+01  0.24039313383E+01  0.93000000000E-01 0.  1.
       1023    2    1    2    0    0  0.00000000000E+00  0.00000000000E+00  0.39215021220E+02  0.44021188206E+02  0.20001178010E+02 0.  0.
        -11    1    3    3    0    0 -0.68347622870E+01 -0.73005343454E+01  0.19603737563E+02  0.22007232991E+02  0.51100000000E-03 0. -1.
         11    1    3    3    0    0  0.68347622870E+01  0.73005343454E+01  0.19611283657E+02  0.22013955215E+02  0.51100000000E-03 0.  1.
<mgrwt>
<rscale>  0 0.20001178E+02</rscale>
<asrwt>0</asrwt>
<pdfrwt beam="1">  1        3 0.64027851E-02 0.20001178E+02</pdfrwt>
<pdfrwt beam="2">  1       -3 0.36970517E-03 0.20001178E+02</pdfrwt>
<totfact> 0.16501447E+06</totfact>
</mgrwt>
</event>
<event>
 5    1  0.4134483E-007  0.2000113E+02  0.7818608E-02  0.1745306E+00
          3   -1    0    0  501    0  0.00000000000E+00  0.00000000000E+00  0.13698077225E+01  0.13729611053E+01  0.93000000000E-01 0. -1.
         -3   -1    0    0    0  501 -0.00000000000E+00 -0.00000000000E+00 -0.72924079941E+02  0.72924139243E+02  0.93000000000E-01 0.  1.
       1023    2    1    2    0    0  0.00000000000E+00  0.00000000000E+00 -0.71554272219E+02  0.74297100348E+02  0.20001131152E+02 0.  0.
        -11    1    3    3    0    0  0.94597048965E+01 -0.32440746642E+01 -0.35909745438E+02  0.37276263960E+02  0.51100000000E-03 0.  1.
         11    1    3    3    0    0 -0.94597048965E+01  0.32440746642E+01 -0.35644526781E+02  0.37020836388E+02  0.51100000000E-03 0. -1.
<mgrwt>
<rscale>  0 0.20001131E+02</rscale>
<asrwt>0</asrwt>
<pdfrwt beam="1">  1        3 0.21098684E-03 0.20001131E+02</pdfrwt>
<pdfrwt beam="2">  1       -3 0.11219333E-01 0.20001131E+02</pdfrwt>
<totfact> 0.15138246E+06</totfact>
</mgrwt>
</event>
<event>
 5    1  0.4133473E-007  0.2000031E+02  0.7818608E-02  0.1745322E+00
         -3   -1    0    0    0  501 -0.00000000000E+00  0.00000000000E+00  0.51419976700E+01  0.51428386168E+01  0.93000000000E-01 0.  1.
          3   -1    0    0  501    0  0.00000000000E+00 -0.00000000000E+00 -0.19445746180E+02  0.19445968567E+02  0.93000000000E-01 0. -1.
       1023    2    1    2    0    0  0.00000000000E+00  0.00000000000E+00 -0.14303748510E+02  0.24588807183E+02  0.20000305429E+02 0.  0.
        -11    1    3    3    0    0 -0.98735509978E+01  0.15855890072E+01 -0.70975531593E+01  0.12262804040E+02  0.51100000000E-03 0.  1.
         11    1    3    3    0    0  0.98735509978E+01 -0.15855890072E+01 -0.72061953506E+01  0.12326003144E+02  0.51100000000E-03 0. -1.
<mgrwt>
<rscale>  0 0.20000305E+02</rscale>
<asrwt>0</asrwt>
<pdfrwt beam="2">  1        3 0.29917350E-02 0.20000305E+02</pdfrwt>
<pdfrwt beam="1">  1       -3 0.79115837E-03 0.20000305E+02</pdfrwt>
<totfact> 0.17591538E+06</totfact>
</mgrwt>
</event>
<event>
 5    1  0.4133473E-007  0.2000712E+02  0.7818608E-02  0.1745187E+00
          3   -1    0    0  501    0  0.00000000000E+00  0.00000000000E+00  0.70306539302E+02  0.70306600812E+02  0.93000000000E-01 0.  1.
         -3   -1    0    0    0  501 -0.00000000000E+00 -0.00000000000E+00 -0.14217738250E+01  0.14248122014E+01  0.93000000000E-01 0. -1.
       1023    2    1    2    0    0  0.00000000000E+00  0.00000000000E+00  0.68884765477E+02  0.71731413013E+02  0.20007116183E+02 0.  0.
        -11    1    3    3    0    0 -0.99037639251E+01  0.13854803280E+01  0.33513807899E+02  0.34973981983E+02  0.51100000000E-03 0. -1.
         11    1    3    3    0    0  0.99037639251E+01 -0.13854803280E+01  0.35370957579E+02  0.36757431030E+02  0.51100000000E-03 0.  1.
<mgrwt>
<rscale>  0 0.20007116E+02</rscale>
<asrwt>0</asrwt>
<pdfrwt beam="1">  1        3 0.10816627E-01 0.20007116E+02</pdfrwt>
<pdfrwt beam="2">  1       -3 0.21897292E-03 0.20007116E+02</pdfrwt>
<totfact> 0.15229935E+06</totfact>
</mgrwt>
</event>
<event>
 4    1  0.4133473E-007  0.2011302E+02  0.7818608E-02  0.1743090E+00
         -3   -1    0    0    0  501 -0.00000000000E+00  0.00000000000E+00  0.13700756477E+02  0.13701072113E+02  0.93000000000E-01 0. -1.
          3   -1    0    0  501    0  0.00000000000E+00 -0.00000000000E+00 -0.73809013689E+01  0.73814872496E+01  0.93000000000E-01 0.  1.
        -11    1    1    2    0    0 -0.53980706405E+01 -0.84820077869E+01  0.29259825953E+01  0.10471150708E+02  0.51100000000E-03 0. -1.
         11    1    1    2    0    0  0.53980706405E+01  0.84820077869E+01  0.33938725125E+01  0.10611408654E+02  0.51100000000E-03 0.  1.
<mgrwt>
<rscale>  0 0.20113024E+02</rscale>
<asrwt>0</asrwt>
<pdfrwt beam="2">  1        3 0.11355927E-02 0.20113024E+02</pdfrwt>
<pdfrwt beam="1">  1       -3 0.21078780E-02 0.20113024E+02</pdfrwt>
<totfact> 0.17600162E+06</totfact>
</mgrwt>
</event>
<event>
 5    1  0.4182315E-007  0.2000093E+02  0.7818608E-02  0.1745310E+00
          3   -1    0    0  501    0  0.00000000000E+00  0.00000000000E+00  0.17901782011E+02  0.17902023577E+02  0.93000000000E-01 0. -1.
         -3   -1    0    0    0  501 -0.00000000000E+00 -0.00000000000E+00 -0.55858904193E+01  0.55866645484E+01  0.93000000000E-01 0.  1.
       1023    2    1    2    0    0  0.00000000000E+00  0.00000000000E+00  0.12315891591E+02  0.23488688125E+02  0.20000932082E+02 0.  0.
        -11    1    3    3    0    0 -0.89103214789E+00  0.99606503904E+01  0.61241879023E+01  0.11726643689E+02  0.51100000000E-03 0. -1.
         11    1    3    3    0    0  0.89103214789E+00 -0.99606503904E+01  0.61917036889E+01  0.11762044436E+02  0.51100000000E-03 0.  1.
<mgrwt>
<rscale>  0 0.20000932E+02</rscale>
<asrwt>0</asrwt>
<pdfrwt beam="1">  1        3 0.27541984E-02 0.20000932E+02</pdfrwt>
<pdfrwt beam="2">  1       -3 0.85944591E-03 0.20000932E+02</pdfrwt>
<totfact> 0.17659100E+06</totfact>
</mgrwt>
</event>
<event>
 5    1  0.4133473E-007  0.2000020E+02  0.7818608E-02  0.1745324E+00
          3   -1    0    0  501    0  0.00000000000E+00  0.00000000000E+00  0.18054956109E+02  0.18055195626E+02  0.93000000000E-01 0. -1.
         -3   -1    0    0    0  501 -0.00000000000E+00 -0.00000000000E+00 -0.55380898443E+01  0.55388706542E+01  0.93000000000E-01 0.  1.
       1023    2    1    2    0    0  0.00000000000E+00  0.00000000000E+00  0.12516866264E+02  0.23594066280E+02  0.20000200563E+02 0.  0.
        -11    1    3    3    0    0 -0.45842999784E+01 -0.88874175520E+01  0.62550265067E+01  0.11795225894E+02  0.51100000000E-03 0. -1.
         11    1    3    3    0    0  0.45842999784E+01  0.88874175520E+01  0.62618397575E+01  0.11798840386E+02  0.51100000000E-03 0.  1.
<mgrwt>
<rscale>  0 0.20000201E+02</rscale>
<asrwt>0</asrwt>
<pdfrwt beam="1">  1        3 0.27777641E-02 0.20000201E+02</pdfrwt>
<pdfrwt beam="2">  1       -3 0.85209230E-03 0.20000201E+02</pdfrwt>
<totfact> 0.17653869E+06</totfact>
</mgrwt>
</event>
<event>
 5    1  0.4133473E-007  0.2000126E+02  0.7818608E-02  0.1745303E+00
         -3   -1    0    0    0  501 -0.00000000000E+00  0.00000000000E+00  0.14384078331E+01  0.14414111468E+01  0.93000000000E-01 0.  1.
          3   -1    0    0  501    0  0.00000000000E+00 -0.00000000000E+00 -0.69454524364E+02  0.69454586627E+02  0.93000000000E-01 0. -1.
       1023    2    1    2    0    0  0.00000000000E+00  0.00000000000E+00 -0.68016116531E+02  0.70895997774E+02  0.20001259773E+02 0.  0.
        -11    1    3    3    0    0  0.40952524474E+00 -0.99921838304E+01 -0.33887895627E+02  0.35332717401E+02  0.51100000000E-03 0.  1.
         11    1    3    3    0    0 -0.40952524474E+00  0.99921838304E+01 -0.34128220904E+02  0.35563280374E+02  0.51100000000E-03 0. -1.
<mgrwt>
<rscale>  0 0.20001260E+02</rscale>
<asrwt>0</asrwt>
<pdfrwt beam="2">  1        3 0.10685545E-01 0.20001260E+02</pdfrwt>
<pdfrwt beam="1">  1       -3 0.22152938E-03 0.20001260E+02</pdfrwt>
<totfact> 0.15273899E+06</totfact>
</mgrwt>
</event>
<event>
 5    1  0.4197035E-007  0.2000236E+02  0.7818608E-02  0.1745281E+00
         -3   -1    0    0    0  501 -0.00000000000E+00  0.00000000000E+00  0.25079868132E+02  0.25080040561E+02  0.93000000000E-01 0.  1.
          3   -1    0    0  501    0  0.00000000000E+00 -0.00000000000E+00 -0.39874745050E+01  0.39885588786E+01  0.93000000000E-01 0. -1.
       1023    2    1    2    0    0  0.00000000000E+00  0.00000000000E+00  0.21092393627E+02  0.29068599439E+02  0.20002359972E+02 0.  0.
        -11    1    3    3    0    0 -0.82888642802E+01 -0.55960908568E+01  0.10479649086E+02  0.14486012190E+02  0.51100000000E-03 0. -1.
         11    1    3    3    0    0  0.82888642802E+01  0.55960908568E+01  0.10612744541E+02  0.14582587249E+02  0.51100000000E-03 0.  1.
<mgrwt>
<rscale>  0 0.20002360E+02</rscale>
<asrwt>0</asrwt>
<pdfrwt beam="2">  1        3 0.61355428E-03 0.20002360E+02</pdfrwt>
<pdfrwt beam="1">  1       -3 0.38585380E-02 0.20002360E+02</pdfrwt>
<totfact> 0.17318234E+06</totfact>
</mgrwt>
</event>
<event>
 5    1  0.4262507E-007  0.2000092E+02  0.7818608E-02  0.1745310E+00
          3   -1    0    0  501    0  0.00000000000E+00  0.00000000000E+00  0.12433940889E+02  0.12434288683E+02  0.93000000000E-01 0.  1.
         -3   -1    0    0    0  501 -0.00000000000E+00 -0.00000000000E+00 -0.80425132716E+01  0.80430509586E+01  0.93000000000E-01 0. -1.
       1023    2    1    2    0    0  0.00000000000E+00  0.00000000000E+00  0.43914276179E+01  0.20477339641E+02  0.20000920035E+02 0.  0.
        -11    1    3    3    0    0 -0.93012509069E+01  0.36730300022E+01  0.21249111085E+01  0.10223485967E+02  0.51100000000E-03 0. -1.
         11    1    3    3    0    0  0.93012509069E+01 -0.36730300022E+01  0.22665165094E+01  0.10253853675E+02  0.51100000000E-03 0.  1.
<mgrwt>
<rscale>  0 0.20000920E+02</rscale>
<asrwt>0</asrwt>
<pdfrwt beam="1">  1        3 0.19129821E-02 0.20000920E+02</pdfrwt>
<pdfrwt beam="2">  1       -3 0.12373779E-02 0.20000920E+02</pdfrwt>
<totfact> 0.17852437E+06</totfact>
</mgrwt>
</event>
<event>
 5    1  0.4133473E-007  0.2000016E+02  0.7818608E-02  0.1745325E+00
          3   -1    0    0  501    0  0.00000000000E+00  0.00000000000E+00  0.77161346628E+02  0.77161402673E+02  0.93000000000E-01 0.  1.
         -3   -1    0    0    0  501 -0.00000000000E+00 -0.00000000000E+00 -0.12942808335E+01  0.12976177696E+01  0.93000000000E-01 0. -1.
       1023    2    1    2    0    0  0.00000000000E+00  0.00000000000E+00  0.75867065794E+02  0.78459020442E+02  0.20000155413E+02 0.  0.
        -11    1    3    3    0    0 -0.56343037106E+01  0.82616700357E+01  0.38056576920E+02  0.39348489389E+02  0.51100000000E-03 0.  1.
         11    1    3    3    0    0  0.56343037106E+01 -0.82616700357E+01  0.37810488874E+02  0.39110531053E+02  0.51100000000E-03 0. -1.
<mgrwt>
<rscale>  0 0.20000155E+02</rscale>
<asrwt>0</asrwt>
<pdfrwt beam="1">  1        3 0.11871241E-01 0.20000155E+02</pdfrwt>
<pdfrwt beam="2">  1       -3 0.19938107E-03 0.20000155E+02</pdfrwt>
<totfact> 0.14971349E+06</totfact>
</mgrwt>
</event>
<event>
 5    1  0.4133473E-007  0.2000020E+02  0.7818608E-02  0.1745324E+00
         -3   -1    0    0    0  501 -0.00000000000E+00  0.00000000000E+00  0.51673091362E+01  0.51681459643E+01  0.93000000000E-01 0. -1.
          3   -1    0    0  501    0  0.00000000000E+00 -0.00000000000E+00 -0.19350302178E+02  0.19350525662E+02  0.93000000000E-01 0.  1.
       1023    2    1    2    0    0  0.00000000000E+00  0.00000000000E+00 -0.14182993042E+02  0.24518671626E+02  0.20000199166E+02 0.  0.
        -11    1    3    3    0    0  0.57966059243E+01  0.81487017845E+01 -0.70875441770E+01  0.12257049553E+02  0.51100000000E-03 0.  1.
         11    1    3    3    0    0 -0.57966059243E+01 -0.81487017845E+01 -0.70954488650E+01  0.12261622073E+02  0.51100000000E-03 0. -1.
<mgrwt>
<rscale>  0 0.20000199E+02</rscale>
<asrwt>0</asrwt>
<pdfrwt beam="2">  1        3 0.29770511E-02 0.20000199E+02</pdfrwt>
<pdfrwt beam="1">  1       -3 0.79505221E-03 0.20000199E+02</pdfrwt>
<totfact> 0.17596104E+06</totfact>
</mgrwt>
</event>
<event>
 5    1  0.4133473E-007  0.2000023E+02  0.7818608E-02  0.1745324E+00
          3   -1    0    0  501    0  0.00000000000E+00  0.00000000000E+00  0.39995993630E+02  0.39996101753E+02  0.93000000000E-01 0. -1.
         -3   -1    0    0    0  501 -0.00000000000E+00 -0.00000000000E+00 -0.24993306428E+01  0.25010603075E+01  0.93000000000E-01 0.  1.
       1023    2    1    2    0    0  0.00000000000E+00  0.00000000000E+00  0.37496662987E+02  0.42497162061E+02  0.20000226200E+02 0.  0.
        -11    1    3    3    0    0  0.60531742069E+01 -0.79599368960E+01  0.18690203368E+02  0.21197292647E+02  0.51100000000E-03 0. -1.
         11    1    3    3    0    0 -0.60531742069E+01  0.79599368960E+01  0.18806459619E+02  0.21299869414E+02  0.51100000000E-03 0.  1.
<mgrwt>
<rscale>  0 0.20000226E+02</rscale>
<asrwt>0</asrwt>
<pdfrwt beam="1">  1        3 0.61533714E-02 0.20000226E+02</pdfrwt>
<pdfrwt beam="2">  1       -3 0.38465376E-03 0.20000226E+02</pdfrwt>
<totfact> 0.16581267E+06</totfact>
</mgrwt>
</event>
<event>
 5    1  0.4133473E-007  0.2000065E+02  0.7818608E-02  0.1745315E+00
         -3   -1    0    0    0  501 -0.00000000000E+00  0.00000000000E+00  0.31921392322E+02  0.31921527795E+02  0.93000000000E-01 0.  1.
          3   -1    0    0  501    0  0.00000000000E+00 -0.00000000000E+00 -0.31320653065E+01  0.31334457206E+01  0.93000000000E-01 0. -1.
       1023    2    1    2    0    0  0.00000000000E+00  0.00000000000E+00  0.28789327015E+02  0.35054973515E+02  0.20000645444E+02 0.  0.
        -11    1    3    3    0    0  0.91018923097E+01 -0.41426548700E+01  0.14430638239E+02  0.17557031447E+02  0.51100000000E-03 0. -1.
         11    1    3    3    0    0 -0.91018923097E+01  0.41426548700E+01  0.14358688776E+02  0.17497942068E+02  0.51100000000E-03 0.  1.
<mgrwt>
<rscale>  0 0.20000645E+02</rscale>
<asrwt>0</asrwt>
<pdfrwt beam="2">  1        3 0.48197280E-03 0.20000645E+02</pdfrwt>
<pdfrwt beam="1">  1       -3 0.49111001E-02 0.20000645E+02</pdfrwt>
<totfact> 0.16979827E+06</totfact>
</mgrwt>
</event>
<event>
 5    1  0.4150494E-007  0.2000182E+02  0.7818608E-02  0.1745292E+00
          3   -1    0    0  501    0  0.00000000000E+00  0.00000000000E+00  0.35452755037E+02  0.35452877016E+02  0.93000000000E-01 0.  1.
         -3   -1    0    0    0  501 -0.00000000000E+00 -0.00000000000E+00 -0.28202739286E+01  0.28218068736E+01  0.93000000000E-01 0. -1.
       1023    2    1    2    0    0  0.00000000000E+00  0.00000000000E+00  0.32632481108E+02  0.38274683889E+02  0.20001815007E+02 0.  0.
        -11    1    3    3    0    0  0.90803358980E+01  0.41894347622E+01  0.16087516177E+02  0.18942334614E+02  0.51100000000E-03 0.  1.
         11    1    3    3    0    0 -0.90803358980E+01 -0.41894347622E+01  0.16544964931E+02  0.19332349275E+02  0.51100000000E-03 0. -1.
<mgrwt>
<rscale>  0 0.20001815E+02</rscale>
<asrwt>0</asrwt>
<pdfrwt beam="1">  1        3 0.54543976E-02 0.20001815E+02</pdfrwt>
<pdfrwt beam="2">  1       -3 0.43401558E-03 0.20001815E+02</pdfrwt>
<totfact> 0.16800311E+06</totfact>
</mgrwt>
</event>
<event>
 5    1  0.4133473E-007  0.2000212E+02  0.7818608E-02  0.1745286E+00
         -3   -1    0    0    0  501 -0.00000000000E+00  0.00000000000E+00  0.46407689620E+01  0.46417007183E+01  0.93000000000E-01 0.  1.
          3   -1    0    0  501    0  0.00000000000E+00 -0.00000000000E+00 -0.21549521198E+02  0.21549721875E+02  0.93000000000E-01 0. -1.
       1023    2    1    2    0    0  0.00000000000E+00  0.00000000000E+00 -0.16908752237E+02  0.26191422593E+02  0.20002117769E+02 0.  0.
        -11    1    3    3    0    0  0.67275900814E+01 -0.74000204613E+01 -0.84279456014E+01  0.13078648189E+02  0.51100000000E-03 0.  1.
         11    1    3    3    0    0 -0.67275900814E+01  0.74000204613E+01 -0.84808066352E+01  0.13112774404E+02  0.51100000000E-03 0. -1.
<mgrwt>
<rscale>  0 0.20002118E+02</rscale>
<asrwt>0</asrwt>
<pdfrwt beam="2">  1        3 0.33153980E-02 0.20002118E+02</pdfrwt>
<pdfrwt beam="1">  1       -3 0.71405158E-03 0.20002118E+02</pdfrwt>
<totfact> 0.17489482E+06</totfact>
</mgrwt>
</event>
<event>
 5    1  0.4133473E-007  0.2000009E+02  0.7818608E-02  0.1745326E+00
          3   -1    0    0  501    0  0.00000000000E+00  0.00000000000E+00  0.65521391712E+01  0.65527991514E+01  0.93000000000E-01 0.  1.
         -3   -1    0    0    0  501 -0.00000000000E+00 -0.00000000000E+00 -0.15260754752E+02  0.15261038123E+02  0.93000000000E-01 0. -1.
       1023    2    1    2    0    0  0.00000000000E+00  0.00000000000E+00 -0.87086155809E+01  0.21813837275E+02  0.20000087783E+02 0.  0.
        -11    1    3    3    0    0 -0.16715018276E+01 -0.98593518411E+01 -0.43672350798E+01  0.10912079526E+02  0.51100000000E-03 0.  1.
         11    1    3    3    0    0  0.16715018276E+01  0.98593518411E+01 -0.43413805012E+01  0.10901757748E+02  0.51100000000E-03 0. -1.
<mgrwt>
<rscale>  0 0.20000088E+02</rscale>
<asrwt>0</asrwt>
<pdfrwt beam="1">  1        3 0.10080940E-02 0.20000088E+02</pdfrwt>
<pdfrwt beam="2">  1       -3 0.23478810E-02 0.20000088E+02</pdfrwt>
<totfact> 0.17767977E+06</totfact>
</mgrwt>
</event>
<event>
 5    1  0.4133473E-007  0.2000363E+02  0.7818608E-02  0.1745256E+00
         -3   -1    0    0    0  501 -0.00000000000E+00  0.00000000000E+00  0.10633902044E+02  0.10634308707E+02  0.93000000000E-01 0.  1.
          3   -1    0    0  501    0  0.00000000000E+00 -0.00000000000E+00 -0.94064846535E+01  0.94069443784E+01  0.93000000000E-01 0. -1.
       1023    2    1    2    0    0  0.00000000000E+00  0.00000000000E+00  0.12274173900E+01  0.20041253085E+02  0.20003631465E+02 0.  0.
        -11    1    3    3    0    0 -0.48520231608E+01 -0.87454806733E+01  0.50979901181E+00  0.10014262641E+02  0.51100000000E-03 0. -1.
         11    1    3    3    0    0  0.48520231608E+01  0.87454806733E+01  0.71761837817E+00  0.10026990444E+02  0.51100000000E-03 0.  1.
<mgrwt>
<rscale>  0 0.20003631E+02</rscale>
<asrwt>0</asrwt>
<pdfrwt beam="2">  1        3 0.14472181E-02 0.20003631E+02</pdfrwt>
<pdfrwt beam="1">  1       -3 0.16360516E-02 0.20003631E+02</pdfrwt>
<totfact> 0.17876003E+06</totfact>
</mgrwt>
</event>
<event>
 4    1  0.4133473E-007  0.2001308E+02  0.7818608E-02  0.1745068E+00
         -3   -1    0    0    0  501 -0.00000000000E+00  0.00000000000E+00  0.77857769199E+01  0.77863323360E+01  0.93000000000E-01 0. -1.
          3   -1    0    0  501    0  0.00000000000E+00 -0.00000000000E+00 -0.12859555279E+02  0.12859891562E+02  0.93000000000E-01 0.  1.
        -11    1    1    2    0    0  0.13092272533E+01 -0.99145867255E+01 -0.21829199598E+01  0.10236124547E+02  0.51100000000E-03 0.  1.
         11    1    1    2    0    0 -0.13092272533E+01  0.99145867255E+01 -0.28908583995E+01  0.10410099350E+02  0.51100000000E-03 0. -1.
<mgrwt>
<rscale>  0 0.20013079E+02</rscale>
<asrwt>0</asrwt>
<pdfrwt beam="2">  1        3 0.19784617E-02 0.20013079E+02</pdfrwt>
<pdfrwt beam="1">  1       -3 0.11978804E-02 0.20013079E+02</pdfrwt>
<totfact> 0.17818069E+06</totfact>
</mgrwt>
</event>
<event>
 4    1  0.4133473E-007  0.2005204E+02  0.7818608E-02  0.1744295E+00
         -3   -1    0    0    0  501 -0.00000000000E+00  0.00000000000E+00  0.94911392528E+01  0.94915948774E+01  0.93000000000E-01 0. -1.
          3   -1    0    0  501    0  0.00000000000E+00 -0.00000000000E+00 -0.10590126101E+02  0.10590534445E+02  0.93000000000E-01 0.  1.
        -11    1    1    2    0    0  0.99815375716E+01  0.93806978474E+00 -0.44949854718E+00  0.10035592480E+02  0.51100000000E-03 0.  1.
         11    1    1    2    0    0 -0.99815375716E+01 -0.93806978474E+00 -0.64948830060E+00  0.10046536843E+02  0.51100000000E-03 0. -1.
<mgrwt>
<rscale>  0 0.20052036E+02</rscale>
<asrwt>0</asrwt>
<pdfrwt beam="2">  1        3 0.16293166E-02 0.20052036E+02</pdfrwt>
<pdfrwt beam="1">  1       -3 0.14602417E-02 0.20052036E+02</pdfrwt>
<totfact> 0.17780341E+06</totfact>
</mgrwt>
</event>
<event>
 5    1  0.4133473E-007  0.2000654E+02  0.7818608E-02  0.1745198E+00
          3   -1    0    0  501    0  0.00000000000E+00  0.00000000000E+00  0.32177352707E+01  0.32190789478E+01  0.93000000000E-01 0.  1.
         -3   -1    0    0    0  501 -0.00000000000E+00 -0.00000000000E+00 -0.31090184733E+02  0.31090323828E+02  0.93000000000E-01 0. -1.
       1023    2    1    2    0    0  0.00000000000E+00  0.00000000000E+00 -0.27872449463E+02  0.34309402776E+02  0.20006540926E+02 0.  0.
        -11    1    3    3    0    0  0.17849939101E+01  0.98423423137E+01 -0.13787568579E+02  0.17033935337E+02  0.51100000000E-03 0. -1.
         11    1    3    3    0    0 -0.17849939101E+01 -0.98423423137E+01 -0.14084880884E+02  0.17275467439E+02  0.51100000000E-03 0.  1.
<mgrwt>
<rscale>  0 0.20006541E+02</rscale>
<asrwt>0</asrwt>
<pdfrwt beam="1">  1        3 0.49515027E-03 0.20006541E+02</pdfrwt>
<pdfrwt beam="2">  1       -3 0.47832192E-02 0.20006541E+02</pdfrwt>
<totfact> 0.17010428E+06</totfact>
</mgrwt>
</event>
<event>
 5    1  0.4133473E-007  0.2000854E+02  0.7818608E-02  0.1745158E+00
         -3   -1    0    0    0  501 -0.00000000000E+00  0.00000000000E+00  0.32299854397E+02  0.32299988283E+02  0.93000000000E-01 0.  1.
          3   -1    0    0  501    0  0.00000000000E+00 -0.00000000000E+00 -0.30977942375E+01  0.30991899164E+01  0.93000000000E-01 0. -1.
       1023    2    1    2    0    0  0.00000000000E+00  0.00000000000E+00  0.29202060159E+02  0.35399178199E+02  0.20008535669E+02 0.  0.
        -11    1    3    3    0    0  0.95572618646E+01  0.29428079417E+01  0.14088260862E+02  0.17276587258E+02  0.51100000000E-03 0. -1.
         11    1    3    3    0    0 -0.95572618646E+01 -0.29428079417E+01  0.15113799298E+02  0.18122590941E+02  0.51100000000E-03 0.  1.
<mgrwt>
<rscale>  0 0.20008536E+02</rscale>
<asrwt>0</asrwt>
<pdfrwt beam="2">  1        3 0.47670138E-03 0.20008536E+02</pdfrwt>
<pdfrwt beam="1">  1       -3 0.49693261E-02 0.20008536E+02</pdfrwt>
<totfact> 0.16946449E+06</totfact>
</mgrwt>
</event>
<event>
 5    1  0.4133473E-007  0.2000007E+02  0.7818608E-02  0.1745327E+00
         -3   -1    0    0    0  501 -0.00000000000E+00  0.00000000000E+00  0.17950740537E+01  0.17974815321E+01  0.93000000000E-01 0.  1.
          3   -1    0    0  501    0  0.00000000000E+00 -0.00000000000E+00 -0.55668647463E+02  0.55668725145E+02  0.93000000000E-01 0. -1.
       1023    2    1    2    0    0  0.00000000000E+00  0.00000000000E+00 -0.53873573409E+02  0.57466206677E+02  0.20000074951E+02 0.  0.
        -11    1    3    3    0    0  0.94462676837E+01 -0.32815761680E+01 -0.26920043725E+02  0.28717407086E+02  0.51100000000E-03 0. -1.
         11    1    3    3    0    0 -0.94462676837E+01  0.32815761680E+01 -0.26953529684E+02  0.28748799592E+02  0.51100000000E-03 0.  1.
<mgrwt>
<rscale>  0 0.20000075E+02</rscale>
<asrwt>0</asrwt>
<pdfrwt beam="2">  1        3 0.85645972E-02 0.20000075E+02</pdfrwt>
<pdfrwt beam="1">  1       -3 0.27635645E-03 0.20000075E+02</pdfrwt>
<totfact> 0.15857531E+06</totfact>
</mgrwt>
</event>
<event>
 5    1  0.4133473E-007  0.2000372E+02  0.7818608E-02  0.1745254E+00
          3   -1    0    0  501    0  0.00000000000E+00  0.00000000000E+00  0.72215212075E+02  0.72215271958E+02  0.93000000000E-01 0. -1.
         -3   -1    0    0    0  501 -0.00000000000E+00 -0.00000000000E+00 -0.13836436068E+01  0.13867655283E+01  0.93000000000E-01 0.  1.
       1023    2    1    2    0    0  0.00000000000E+00  0.00000000000E+00  0.70831568468E+02  0.73602037487E+02  0.20003720417E+02 0.  0.
        -11    1    3    3    0    0  0.55329114266E+01  0.83321081910E+01  0.35446920854E+02  0.36830983344E+02  0.51100000000E-03 0.  1.
         11    1    3    3    0    0 -0.55329114266E+01 -0.83321081910E+01  0.35384647614E+02  0.36771054143E+02  0.51100000000E-03 0. -1.
<mgrwt>
<rscale>  0 0.20003720E+02</rscale>
<asrwt>0</asrwt>
<pdfrwt beam="1">  1        3 0.11110275E-01 0.20003720E+02</pdfrwt>
<pdfrwt beam="2">  1       -3 0.21311305E-03 0.20003720E+02</pdfrwt>
<totfact> 0.15159226E+06</totfact>
</mgrwt>
</event>
<event>
 4    1  0.4133473E-007  0.2001931E+02  0.7818608E-02  0.1744944E+00
          3   -1    0    0  501    0  0.00000000000E+00  0.00000000000E+00  0.28841590972E+02  0.28841740911E+02  0.93000000000E-01 0.  1.
         -3   -1    0    0    0  501 -0.00000000000E+00 -0.00000000000E+00 -0.34731312614E+01  0.34743761683E+01  0.93000000000E-01 0. -1.
        -11    1    1    2    0    0 -0.16605518860E+01 -0.98659521476E+01  0.13191432856E+02  0.16556217727E+02  0.51100000000E-03 0. -1.
         11    1    1    2    0    0  0.16605518860E+01  0.98659521476E+01  0.12177026854E+02  0.15759899353E+02  0.51100000000E-03 0.  1.
<mgrwt>
<rscale>  0 0.20019308E+02</rscale>
<asrwt>0</asrwt>
<pdfrwt beam="1">  1        3 0.44372750E-02 0.20019308E+02</pdfrwt>
<pdfrwt beam="2">  1       -3 0.53443520E-03 0.20019308E+02</pdfrwt>
<totfact> 0.17097311E+06</totfact>
</mgrwt>
</event>
<event>
 5    1  0.4133473E-007  0.2000565E+02  0.7818608E-02  0.1745216E+00
         -3   -1    0    0    0  501 -0.00000000000E+00  0.00000000000E+00  0.65703463881E+02  0.65703529700E+02  0.93000000000E-01 0. -1.
          3   -1    0    0  501    0  0.00000000000E+00 -0.00000000000E+00 -0.15213629949E+01  0.15242028612E+01  0.93000000000E-01 0.  1.
       1023    2    1    2    0    0  0.00000000000E+00  0.00000000000E+00  0.64182100886E+02  0.67227732561E+02  0.20005647980E+02 0.  0.
        -11    1    3    3    0    0  0.37144211561E+01  0.92876016408E+01  0.32076499733E+02  0.33599974764E+02  0.51100000000E-03 0. -1.
         11    1    3    3    0    0 -0.37144211561E+01 -0.92876016408E+01  0.32105601153E+02  0.33627757797E+02  0.51100000000E-03 0.  1.
<mgrwt>
<rscale>  0 0.20005648E+02</rscale>
<asrwt>0</asrwt>
<pdfrwt beam="2">  1        3 0.23427942E-03 0.20005648E+02</pdfrwt>
<pdfrwt beam="1">  1       -3 0.10108446E-01 0.20005648E+02</pdfrwt>
<totfact> 0.15422848E+06</totfact>
</mgrwt>
</event>
<event>
 5    1  0.4133473E-007  0.2000044E+02  0.7818608E-02  0.1745319E+00
          3   -1    0    0  501    0  0.00000000000E+00  0.00000000000E+00  0.84176196916E+02  0.84176248291E+02  0.93000000000E-01 0. -1.
         -3   -1    0    0    0  501 -0.00000000000E+00 -0.00000000000E+00 -0.11861649374E+01  0.11898051348E+01  0.93000000000E-01 0.  1.
       1023    2    1    2    0    0  0.00000000000E+00  0.00000000000E+00  0.82990031979E+02  0.85366053425E+02  0.20000441735E+02 0.  0.
        -11    1    3    3    0    0  0.29245687744E+01  0.95628268680E+01  0.41753124832E+02  0.42933951527E+02  0.51100000000E-03 0.  1.
         11    1    3    3    0    0 -0.29245687744E+01 -0.95628268680E+01  0.41236907147E+02  0.42432101898E+02  0.51100000000E-03 0. -1.
<mgrwt>
<rscale>  0 0.20000442E+02</rscale>
<asrwt>0</asrwt>
<pdfrwt beam="1">  1        3 0.12950472E-01 0.20000442E+02</pdfrwt>
<pdfrwt beam="2">  1       -3 0.18277082E-03 0.20000442E+02</pdfrwt>
<totfact> 0.14705587E+06</totfact>
</mgrwt>
</event>
<event>
 5    1  0.4133473E-007  0.2000003E+02  0.7818608E-02  0.1745328E+00
         -3   -1    0    0    0  501 -0.00000000000E+00  0.00000000000E+00  0.29688417134E+02  0.29688562797E+02  0.93000000000E-01 0.  1.
          3   -1    0    0  501    0  0.00000000000E+00 -0.00000000000E+00 -0.33675297150E+01  0.33688136459E+01  0.93000000000E-01 0. -1.
       1023    2    1    2    0    0  0.00000000000E+00  0.00000000000E+00  0.26320887419E+02  0.33057376443E+02  0.20000025568E+02 0.  0.
        -11    1    3    3    0    0  0.32813564320E+01  0.94463117743E+01  0.13180636532E+02  0.16544766116E+02  0.51100000000E-03 0.  1.
         11    1    3    3    0    0 -0.32813564320E+01 -0.94463117743E+01  0.13140250887E+02  0.16512610327E+02  0.51100000000E-03 0. -1.
<mgrwt>
<rscale>  0 0.20000026E+02</rscale>
<asrwt>0</asrwt>
<pdfrwt beam="2">  1        3 0.51819146E-03 0.20000026E+02</pdfrwt>
<pdfrwt beam="1">  1       -3 0.45675587E-02 0.20000026E+02</pdfrwt>
<totfact> 0.17092592E+06</totfact>
</mgrwt>
</event>
<event>
 4    1  0.4133473E-007  0.2012703E+02  0.7818608E-02  0.1742814E+00
          3   -1    0    0  501    0  0.00000000000E+00  0.00000000000E+00  0.11673906437E+02  0.11674276873E+02  0.93000000000E-01 0. -1.
         -3   -1    0    0    0  501 -0.00000000000E+00 -0.00000000000E+00 -0.86745191410E+01  0.86750176557E+01  0.93000000000E-01 0.  1.
        -11    1    1    2    0    0 -0.17943143927E+01 -0.98941072163E+01  0.19059315304E+01  0.10234524757E+02  0.51100000000E-03 0. -1.
         11    1    1    2    0    0  0.17943143927E+01  0.98941072163E+01  0.10934557655E+01  0.10114769771E+02  0.51100000000E-03 0.  1.
<mgrwt>
<rscale>  0 0.20127033E+02</rscale>
<asrwt>0</asrwt>
<pdfrwt beam="1">  1        3 0.17960524E-02 0.20127033E+02</pdfrwt>
<pdfrwt beam="2">  1       -3 0.13346082E-02 0.20127033E+02</pdfrwt>
<totfact> 0.17620449E+06</totfact>
</mgrwt>
</event>
<event>
 5    1  0.4133473E-007  0.2000458E+02  0.7818608E-02  0.1745237E+00
         -3   -1    0    0    0  501 -0.00000000000E+00  0.00000000000E+00  0.63892603630E+01  0.63899371660E+01  0.93000000000E-01 0.  1.
          3   -1    0    0  501    0  0.00000000000E+00 -0.00000000000E+00 -0.15656791434E+02  0.15657067637E+02  0.93000000000E-01 0. -1.
       1023    2    1    2    0    0  0.00000000000E+00  0.00000000000E+00 -0.92675310707E+01  0.22047004803E+02  0.20004581691E+02 0.  0.
        -11    1    3    3    0    0  0.81291930273E+01 -0.58258240791E+01 -0.47965496115E+01  0.11091929224E+02  0.51100000000E-03 0.  1.
         11    1    3    3    0    0 -0.81291930273E+01  0.58258240791E+01 -0.44709814592E+01  0.10955075579E+02  0.51100000000E-03 0. -1.
<mgrwt>
<rscale>  0 0.20004582E+02</rscale>
<asrwt>0</asrwt>
<pdfrwt beam="2">  1        3 0.24088104E-02 0.20004582E+02</pdfrwt>
<pdfrwt beam="1">  1       -3 0.98303645E-03 0.20004582E+02</pdfrwt>
<totfact> 0.17743678E+06</totfact>
</mgrwt>
</event>
<event>
 4    1  0.4133473E-007  0.2001782E+02  0.7818608E-02  0.1744974E+00
          3   -1    0    0  501    0  0.00000000000E+00  0.00000000000E+00  0.29636181523E+02  0.29636327442E+02  0.93000000000E-01 0. -1.
         -3   -1    0    0    0  501 -0.00000000000E+00 -0.00000000000E+00 -0.33794758436E+01  0.33807552377E+01  0.93000000000E-01 0.  1.
        -11    1    1    2    0    0 -0.79968439052E+01 -0.60092014457E+01  0.13695592844E+02  0.16959636732E+02  0.51100000000E-03 0.  1.
         11    1    1    2    0    0  0.79968439052E+01  0.60092014457E+01  0.12561112835E+02  0.16057445948E+02  0.51100000000E-03 0. -1.
<mgrwt>
<rscale>  0 0.20017821E+02</rscale>
<asrwt>0</asrwt>
<pdfrwt beam="1">  1        3 0.45595222E-02 0.20017821E+02</pdfrwt>
<pdfrwt beam="2">  1       -3 0.52002900E-03 0.20017821E+02</pdfrwt>
<totfact> 0.17060317E+06</totfact>
</mgrwt>
</event>
<event>
 5    1  0.4183807E-007  0.2000183E+02  0.7818608E-02  0.1745292E+00
          3   -1    0    0  501    0  0.00000000000E+00  0.00000000000E+00  0.37315637528E+01  0.37327224704E+01  0.93000000000E-01 0. -1.
         -3   -1    0    0    0  501 -0.00000000000E+00 -0.00000000000E+00 -0.26797912969E+02  0.26798074343E+02  0.93000000000E-01 0.  1.
       1023    2    1    2    0    0  0.00000000000E+00  0.00000000000E+00 -0.23066349216E+02  0.30530796813E+02  0.20001827114E+02 0.  0.
        -11    1    3    3    0    0 -0.87360237427E+01 -0.48664104268E+01 -0.11327192893E+02  0.15109776980E+02  0.51100000000E-03 0. -1.
         11    1    3    3    0    0  0.87360237427E+01  0.48664104268E+01 -0.11739156323E+02  0.15421019834E+02  0.51100000000E-03 0.  1.
<mgrwt>
<rscale>  0 0.20001827E+02</rscale>
<asrwt>0</asrwt>
<pdfrwt beam="1">  1        3 0.57418829E-03 0.20001827E+02</pdfrwt>
<pdfrwt beam="2">  1       -3 0.41228573E-02 0.20001827E+02</pdfrwt>
<totfact> 0.17233850E+06</totfact>
</mgrwt>
</event>
<event>
 5    1  0.4133473E-007  0.2000031E+02  0.7818608E-02  0.1745322E+00
          3   -1    0    0  501    0  0.00000000000E+00  0.00000000000E+00  0.30573202272E+02  0.30573343719E+02  0.93000000000E-01 0.  1.
         -3   -1    0    0    0  501 -0.00000000000E+00 -0.00000000000E+00 -0.32701296181E+01  0.32714517755E+01  0.93000000000E-01 0. -1.
       1023    2    1    2    0    0  0.00000000000E+00  0.00000000000E+00  0.27303072654E+02  0.33844795495E+02  0.20000310141E+02 0.  0.
        -11    1    3    3    0    0 -0.92682403607E+01  0.37552720423E+01  0.13605079744E+02  0.16884920568E+02  0.51100000000E-03 0. -1.
         11    1    3    3    0    0  0.92682403607E+01 -0.37552720423E+01  0.13697992910E+02  0.16959874926E+02  0.51100000000E-03 0.  1.
<mgrwt>
<rscale>  0 0.20000310E+02</rscale>
<asrwt>0</asrwt>
<pdfrwt beam="1">  1        3 0.47036821E-02 0.20000310E+02</pdfrwt>
<pdfrwt beam="2">  1       -3 0.50320946E-03 0.20000310E+02</pdfrwt>
<totfact> 0.17045851E+06</totfact>
</mgrwt>
</event>
<event>
 5    1  0.4133473E-007  0.2000137E+02  0.7818608E-02  0.1745301E+00
         -3   -1    0    0    0  501 -0.00000000000E+00  0.00000000000E+00  0.19440013836E+01  0.19462246478E+01  0.93000000000E-01 0. -1.
          3   -1    0    0  501    0  0.00000000000E+00 -0.00000000000E+00 -0.51415672812E+02  0.51415756920E+02  0.93000000000E-01 0.  1.
       1023    2    1    2    0    0  0.00000000000E+00  0.00000000000E+00 -0.49471671428E+02  0.53361981568E+02  0.20001370028E+02 0.  0.
        -11    1    3    3    0    0  0.48696803572E+01  0.87343159727E+01 -0.25023651728E+02  0.26947823815E+02  0.51100000000E-03 0.  1.
         11    1    3    3    0    0 -0.48696803572E+01 -0.87343159727E+01 -0.24448019700E+02  0.26414157753E+02  0.51100000000E-03 0. -1.
<mgrwt>
<rscale>  0 0.20001370E+02</rscale>
<asrwt>0</asrwt>
<pdfrwt beam="2">  1        3 0.79102800E-02 0.20001370E+02</pdfrwt>
<pdfrwt beam="1">  1       -3 0.29925467E-03 0.20001370E+02</pdfrwt>
<totfact> 0.16044796E+06</totfact>
</mgrwt>
</event>
<event>
 5    1  0.4133473E-007  0.2000048E+02  0.7818608E-02  0.1745318E+00
          3   -1    0    0  501    0  0.00000000000E+00  0.00000000000E+00  0.14915967045E+02  0.14916256966E+02  0.93000000000E-01 0. -1.
         -3   -1    0    0    0  501 -0.00000000000E+00 -0.00000000000E+00 -0.67038710124E+01  0.67045160564E+01  0.93000000000E-01 0.  1.
       1023    2    1    2    0    0  0.00000000000E+00  0.00000000000E+00  0.82120960323E+01  0.21620773022E+02  0.20000482615E+02 0.  0.
        -11    1    3    3    0    0  0.61912092860E+01  0.78531883992E+01  0.40688276906E+01  0.10796249325E+02  0.51100000000E-03 0.  1.
         11    1    3    3    0    0 -0.61912092860E+01 -0.78531883992E+01  0.41432683418E+01  0.10824523697E+02  0.51100000000E-03 0. -1.
<mgrwt>
<rscale>  0 0.20000483E+02</rscale>
<asrwt>0</asrwt>
<pdfrwt beam="1">  1        3 0.22948361E-02 0.20000483E+02</pdfrwt>
<pdfrwt beam="2">  1       -3 0.10314367E-02 0.20000483E+02</pdfrwt>
<totfact> 0.17778901E+06</totfact>
</mgrwt>
</event>
<event>
 5    1  0.4367180E-007  0.2000117E+02  0.7818608E-02  0.1745305E+00
         -3   -1    0    0    0  501 -0.00000000000E+00  0.00000000000E+00  0.19050694541E+02  0.19050921539E+02  0.93000000000E-01 0. -1.
          3   -1    0    0  501    0  0.00000000000E+00 -0.00000000000E+00 -0.52490988216E+01  0.52499226126E+01  0.93000000000E-01 0.  1.
       1023    2    1    2    0    0  0.00000000000E+00  0.00000000000E+00  0.13801595719E+02  0.24300844152E+02  0.20001174518E+02 0.  0.
        -11    1    3    3    0    0  0.71641967961E+00  0.99744618747E+01  0.67881364883E+01  0.12086436369E+02  0.51100000000E-03 0. -1.
         11    1    3    3    0    0 -0.71641967961E+00 -0.99744618747E+01  0.70134592310E+01  0.12214407783E+02  0.51100000000E-03 0.  1.
<mgrwt>
<rscale>  0 0.20001175E+02</rscale>
<asrwt>0</asrwt>
<pdfrwt beam="2">  1        3 0.80763449E-03 0.20001175E+02</pdfrwt>
<pdfrwt beam="1">  1       -3 0.29309569E-02 0.20001175E+02</pdfrwt>
<totfact> 0.17608972E+06</totfact>
</mgrwt>
</event>
<event>
 5    1  0.4133473E-007  0.2000078E+02  0.7818608E-02  0.1745313E+00
          3   -1    0    0  501    0  0.00000000000E+00  0.00000000000E+00  0.38644356472E+02  0.38644468377E+02  0.93000000000E-01 0.  1.
         -3   -1    0    0    0  501 -0.00000000000E+00 -0.00000000000E+00 -0.25869504911E+01  0.25886216107E+01  0.93000000000E-01 0. -1.
       1023    2    1    2    0    0  0.00000000000E+00  0.00000000000E+00  0.36057405980E+02  0.41233089987E+02  0.20000779581E+02 0.  0.
        -11    1    3    3    0    0  0.85354755039E+01  0.52107530702E+01  0.18108708673E+02  0.20686508156E+02  0.51100000000E-03 0. -1.
         11    1    3    3    0    0 -0.85354755039E+01 -0.52107530702E+01  0.17948697308E+02  0.20546581831E+02  0.51100000000E-03 0.  1.
<mgrwt>
<rscale>  0 0.20000780E+02</rscale>
<asrwt>0</asrwt>
<pdfrwt beam="1">  1        3 0.59454230E-02 0.20000780E+02</pdfrwt>
<pdfrwt beam="2">  1       -3 0.39812953E-03 0.20000780E+02</pdfrwt>
<totfact> 0.16645778E+06</totfact>
</mgrwt>
</event>
<event>
 5    1  0.4133473E-007  0.2000697E+02  0.7818608E-02  0.1745190E+00
         -3   -1    0    0    0  501 -0.00000000000E+00  0.00000000000E+00  0.27785489023E+01  0.27801048546E+01  0.93000000000E-01 0. -1.
          3   -1    0    0  501    0  0.00000000000E+00 -0.00000000000E+00 -0.36003388412E+02  0.36003508526E+02  0.93000000000E-01 0.  1.
       1023    2    1    2    0    0  0.00000000000E+00  0.00000000000E+00 -0.33224839510E+02  0.38783613380E+02  0.20006966446E+02 0.  0.
        -11    1    3    3    0    0 -0.79464009458E+01  0.60753888671E+01 -0.16842101610E+02  0.19588568728E+02  0.51100000000E-03 0. -1.
         11    1    3    3    0    0  0.79464009458E+01 -0.60753888671E+01 -0.16382737899E+02  0.19195044653E+02  0.51100000000E-03 0.  1.
<mgrwt>
<rscale>  0 0.20006966E+02</rscale>
<asrwt>0</asrwt>
<pdfrwt beam="2">  1        3 0.55391114E-02 0.20006966E+02</pdfrwt>
<pdfrwt beam="1">  1       -3 0.42759801E-03 0.20006966E+02</pdfrwt>
<totfact> 0.16763802E+06</totfact>
</mgrwt>
</event>
<event>
 5    1  0.4133473E-007  0.2000076E+02  0.7818608E-02  0.1745313E+00
          3   -1    0    0  501    0  0.00000000000E+00  0.00000000000E+00  0.33346719160E+02  0.33346848842E+02  0.93000000000E-01 0. -1.
         -3   -1    0    0    0  501 -0.00000000000E+00 -0.00000000000E+00 -0.29981668488E+01  0.29996088834E+01  0.93000000000E-01 0.  1.
       1023    2    1    2    0    0  0.00000000000E+00  0.00000000000E+00  0.30348552311E+02  0.36346457726E+02  0.20000759032E+02 0.  0.
        -11    1    3    3    0    0 -0.38170922558E+01 -0.92432231783E+01  0.15201363942E+02  0.18195846613E+02  0.51100000000E-03 0. -1.
         11    1    3    3    0    0  0.38170922558E+01  0.92432231783E+01  0.15147188369E+02  0.18150611113E+02  0.51100000000E-03 0.  1.
<mgrwt>
<rscale>  0 0.20000759E+02</rscale>
<asrwt>0</asrwt>
<pdfrwt beam="1">  1        3 0.51303855E-02 0.20000759E+02</pdfrwt>
<pdfrwt beam="2">  1       -3 0.46137733E-03 0.20000759E+02</pdfrwt>
<totfact> 0.16906617E+06</totfact>
</mgrwt>
</event>
<event>
 5    1  0.4133473E-007  0.2000847E+02  0.7818608E-02  0.1745160E+00
         -3   -1    0    0    0  501 -0.00000000000E+00  0.00000000000E+00  0.14609099578E+02  0.14609395589E+02  0.93000000000E-01 0. -1.
          3   -1    0    0  501    0  0.00000000000E+00 -0.00000000000E+00 -0.68501685589E+01  0.68507998282E+01  0.93000000000E-01 0.  1.
       1023    2    1    2    0    0  0.00000000000E+00  0.00000000000E+00  0.77589310188E+01  0.21460195417E+02  0.20008472625E+02 0.  0.
        -11    1    3    3    0    0 -0.74262387149E+01 -0.66977335808E+01  0.41753185299E+01  0.10837063332E+02  0.51100000000E-03 0.  1.
         11    1    3    3    0    0  0.74262387149E+01  0.66977335808E+01  0.35836124889E+01  0.10623132085E+02  0.51100000000E-03 0. -1.
<mgrwt>
<rscale>  0 0.20008473E+02</rscale>
<asrwt>0</asrwt>
<pdfrwt beam="2">  1        3 0.10539434E-02 0.20008473E+02</pdfrwt>
<pdfrwt beam="1">  1       -3 0.22476251E-02 0.20008473E+02</pdfrwt>
<totfact> 0.17774639E+06</totfact>
</mgrwt>
</event>
<event>
 5    1  0.4133473E-007  0.2000467E+02  0.7818608E-02  0.1745235E+00
          3   -1    0    0  501    0  0.00000000000E+00  0.00000000000E+00  0.21450605552E+02  0.21450807154E+02  0.93000000000E-01 0. -1.
         -3   -1    0    0    0  501 -0.00000000000E+00 -0.00000000000E+00 -0.46633624648E+01  0.46642897078E+01  0.93000000000E-01 0.  1.
       1023    2    1    2    0    0  0.00000000000E+00  0.00000000000E+00  0.16787243087E+02  0.26115096862E+02  0.20004668296E+02 0.  0.
        -11    1    3    3    0    0 -0.74403644389E+01 -0.66848404053E+01  0.84248956740E+01  0.13077651991E+02  0.51100000000E-03 0. -1.
         11    1    3    3    0    0  0.74403644389E+01  0.66848404053E+01  0.83623474133E+01  0.13037444870E+02  0.51100000000E-03 0.  1.
<mgrwt>
<rscale>  0 0.20004668E+02</rscale>
<asrwt>0</asrwt>
<pdfrwt beam="1">  1        3 0.33001800E-02 0.20004668E+02</pdfrwt>
<pdfrwt beam="2">  1       -3 0.71752720E-03 0.20004668E+02</pdfrwt>
<totfact> 0.17489332E+06</totfact>
</mgrwt>
</event>
<event>
 5    1  0.4133473E-007  0.2000048E+02  0.7818608E-02  0.1745319E+00
          3   -1    0    0  501    0  0.00000000000E+00  0.00000000000E+00  0.59171280534E+01  0.59178588527E+01  0.93000000000E-01 0.  1.
         -3   -1    0    0    0  501 -0.00000000000E+00 -0.00000000000E+00 -0.16898998350E+02  0.16899254251E+02  0.93000000000E-01 0. -1.
       1023    2    1    2    0    0  0.00000000000E+00  0.00000000000E+00 -0.10981870297E+02  0.22817113104E+02  0.20000479374E+02 0.  0.
        -11    1    3    3    0    0 -0.49820893902E+01 -0.86707749217E+01 -0.55311256442E+01  0.11427900227E+02  0.51100000000E-03 0. -1.
         11    1    3    3    0    0  0.49820893902E+01  0.86707749217E+01 -0.54507446528E+01  0.11389212877E+02  0.51100000000E-03 0.  1.
<mgrwt>
<rscale>  0 0.20000479E+02</rscale>
<asrwt>0</asrwt>
<pdfrwt beam="1">  1        3 0.91040330E-03 0.20000479E+02</pdfrwt>
<pdfrwt beam="2">  1       -3 0.25999218E-02 0.20000479E+02</pdfrwt>
<totfact> 0.17703321E+06</totfact>
</mgrwt>
</event>
<event>
 5    1  0.4133473E-007  0.2000177E+02  0.7818608E-02  0.1745293E+00
         -3   -1    0    0    0  501 -0.00000000000E+00  0.00000000000E+00  0.90413766471E+00  0.90890809038E+00  0.93000000000E-01 0.  1.
          3   -1    0    0  501    0  0.00000000000E+00 -0.00000000000E+00 -0.11032638614E+03  0.11032642533E+03  0.93000000000E-01 0. -1.
       1023    2    1    2    0    0  0.00000000000E+00  0.00000000000E+00 -0.10942224847E+03  0.11123533342E+03  0.20001773456E+02 0.  0.
        -11    1    3    3    0    0 -0.66137345117E+01  0.75012670468E+01 -0.54237808475E+02  0.55152065782E+02  0.51100000000E-03 0. -1.
         11    1    3    3    0    0  0.66137345117E+01 -0.75012670468E+01 -0.55184439996E+02  0.56083267643E+02  0.51100000000E-03 0.  1.
<mgrwt>
<rscale>  0 0.20001773E+02</rscale>
<asrwt>0</asrwt>
<pdfrwt beam="2">  1        3 0.16973650E-01 0.20001773E+02</pdfrwt>
<pdfrwt beam="1">  1       -3 0.13946816E-03 0.20001773E+02</pdfrwt>
<totfact> 0.13797950E+06</totfact>
</mgrwt>
</event>
<event>
 5    1  0.4133473E-007  0.2000088E+02  0.7818608E-02  0.1745311E+00
         -3   -1    0    0    0  501 -0.00000000000E+00  0.00000000000E+00  0.28050402281E+01  0.28065814938E+01  0.93000000000E-01 0.  1.
          3   -1    0    0  501    0  0.00000000000E+00 -0.00000000000E+00 -0.35641858213E+02  0.35641979545E+02  0.93000000000E-01 0. -1.
       1023    2    1    2    0    0  0.00000000000E+00  0.00000000000E+00 -0.32836817985E+02  0.38448561039E+02  0.20000880745E+02 0.  0.
        -11    1    3    3    0    0 -0.99641067949E+01  0.84745660735E+00 -0.16255287516E+02  0.19084967368E+02  0.51100000000E-03 0.  1.
         11    1    3    3    0    0  0.99641067949E+01 -0.84745660735E+00 -0.16581530469E+02  0.19363593671E+02  0.51100000000E-03 0. -1.
<mgrwt>
<rscale>  0 0.20000881E+02</rscale>
<asrwt>0</asrwt>
<pdfrwt beam="2">  1        3 0.54834904E-02 0.20000881E+02</pdfrwt>
<pdfrwt beam="1">  1       -3 0.43167257E-03 0.20000881E+02</pdfrwt>
<totfact> 0.16792679E+06</totfact>
</mgrwt>
</event>
<event>
 5    1  0.4325861E-007  0.2000107E+02  0.7818608E-02  0.1745307E+00
         -3   -1    0    0    0  501 -0.00000000000E+00  0.00000000000E+00  0.11169824518E+02  0.11170211670E+02  0.93000000000E-01 0.  1.
          3   -1    0    0  501    0  0.00000000000E+00 -0.00000000000E+00 -0.89528659888E+01  0.89533490055E+01  0.93000000000E-01 0. -1.
       1023    2    1    2    0    0  0.00000000000E+00  0.00000000000E+00  0.22169585287E+01  0.20123560675E+02  0.20001069700E+02 0.  0.
        -11    1    3    3    0    0 -0.63393439067E+01 -0.77345348075E+01  0.10886821436E+01  0.10059599342E+02  0.51100000000E-03 0.  1.
         11    1    3    3    0    0  0.63393439067E+01  0.77345348075E+01  0.11282763850E+01  0.10063961333E+02  0.51100000000E-03 0. -1.
<mgrwt>
<rscale>  0 0.20001070E+02</rscale>
<asrwt>0</asrwt>
<pdfrwt beam="2">  1        3 0.13774309E-02 0.20001070E+02</pdfrwt>
<pdfrwt beam="1">  1       -3 0.17185015E-02 0.20001070E+02</pdfrwt>
<totfact> 0.17875621E+06</totfact>
</mgrwt>
</event>
<event>
 5    1  0.4133473E-007  0.2000288E+02  0.7818608E-02  0.1745271E+00
         -3   -1    0    0    0  501 -0.00000000000E+00  0.00000000000E+00  0.14988129398E+02  0.14988417924E+02  0.93000000000E-01 0. -1.
          3   -1    0    0  501    0  0.00000000000E+00 -0.00000000000E+00 -0.66731936094E+01  0.66738416184E+01  0.93000000000E-01 0.  1.
       1023    2    1    2    0    0  0.00000000000E+00  0.00000000000E+00  0.83149357889E+01  0.21662259542E+02  0.20002883075E+02 0.  0.
        -11    1    3    3    0    0 -0.99386756416E+01  0.11186561500E+01  0.41434531341E+01  0.10825750285E+02  0.51100000000E-03 0. -1.
         11    1    3    3    0    0  0.99386756416E+01 -0.11186561500E+01  0.41714826549E+01  0.10836509258E+02  0.51100000000E-03 0.  1.
<mgrwt>
<rscale>  0 0.20002883E+02</rscale>
<asrwt>0</asrwt>
<pdfrwt beam="2">  1        3 0.10267172E-02 0.20002883E+02</pdfrwt>
<pdfrwt beam="1">  1       -3 0.23059381E-02 0.20002883E+02</pdfrwt>
<totfact> 0.17772349E+06</totfact>
</mgrwt>
</event>
<event>
 5    1  0.4133473E-007  0.2000073E+02  0.7818608E-02  0.1745314E+00
         -3   -1    0    0    0  501 -0.00000000000E+00  0.00000000000E+00  0.41839573323E+02  0.41839676682E+02  0.93000000000E-01 0.  1.
          3   -1    0    0  501    0  0.00000000000E+00 -0.00000000000E+00 -0.23892444431E+01  0.23910537445E+01  0.93000000000E-01 0. -1.
       1023    2    1    2    0    0  0.00000000000E+00  0.00000000000E+00  0.39450328880E+02  0.44230730426E+02  0.20000726620E+02 0.  0.
        -11    1    3    3    0    0 -0.55125679983E+01  0.83437891851E+01  0.19739524912E+02  0.22128173623E+02  0.51100000000E-03 0.  1.
         11    1    3    3    0    0  0.55125679983E+01 -0.83437891851E+01  0.19710803968E+02  0.22102556803E+02  0.51100000000E-03 0. -1.
<mgrwt>
<rscale>  0 0.20000727E+02</rscale>
<asrwt>0</asrwt>
<pdfrwt beam="2">  1        3 0.36772322E-03 0.20000727E+02</pdfrwt>
<pdfrwt beam="1">  1       -3 0.64370041E-02 0.20000727E+02</pdfrwt>
<totfact> 0.16493986E+06</totfact>
</mgrwt>
</event>
<event>
 5    1  0.4133473E-007  0.2000436E+02  0.7818608E-02  0.1745241E+00
         -3   -1    0    0    0  501 -0.00000000000E+00  0.00000000000E+00  0.36953486643E+02  0.36953603668E+02  0.93000000000E-01 0.  1.
          3   -1    0    0  501    0  0.00000000000E+00 -0.00000000000E+00 -0.27063654216E+01  0.27079628497E+01  0.93000000000E-01 0. -1.
       1023    2    1    2    0    0  0.00000000000E+00  0.00000000000E+00  0.34247121221E+02  0.39661566518E+02  0.20004363192E+02 0.  0.
        -11    1    3    3    0    0  0.18253213719E+01  0.98334679502E+01  0.16882798702E+02  0.19622889245E+02  0.51100000000E-03 0. -1.
         11    1    3    3    0    0 -0.18253213719E+01 -0.98334679502E+01  0.17364322519E+02  0.20038677273E+02  0.51100000000E-03 0.  1.
<mgrwt>
<rscale>  0 0.20004363E+02</rscale>
<asrwt>0</asrwt>
<pdfrwt beam="2">  1        3 0.41649583E-03 0.20004363E+02</pdfrwt>
<pdfrwt beam="1">  1       -3 0.56852831E-02 0.20004363E+02</pdfrwt>
<totfact> 0.16724077E+06</totfact>
</mgrwt>
</event>
<event>
 5    1  0.4133473E-007  0.2000058E+02  0.7818608E-02  0.1745317E+00
          3   -1    0    0  501    0  0.00000000000E+00  0.00000000000E+00  0.11207905307E+01  0.11246423493E+01  0.93000000000E-01 0. -1.
         -3   -1    0    0    0  501 -0.00000000000E+00 -0.00000000000E+00 -0.89070979169E+02  0.89071027721E+02  0.93000000000E-01 0.  1.
       1023    2    1    2    0    0  0.00000000000E+00  0.00000000000E+00 -0.87950188639E+02  0.90195670070E+02  0.20000580436E+02 0.  0.
        -11    1    3    3    0    0  0.76721545712E+01 -0.64143460371E+01 -0.43991560247E+02  0.45113891032E+02  0.51100000000E-03 0. -1.
         11    1    3    3    0    0 -0.76721545712E+01  0.64143460371E+01 -0.43958628392E+02  0.45081779038E+02  0.51100000000E-03 0.  1.
<mgrwt>
<rscale>  0 0.20000580E+02</rscale>
<asrwt>0</asrwt>
<pdfrwt beam="1">  1        3 0.17272941E-03 0.20000580E+02</pdfrwt>
<pdfrwt beam="2">  1       -3 0.13703522E-01 0.20000580E+02</pdfrwt>
<totfact> 0.14528955E+06</totfact>
</mgrwt>
</event>
<event>
 5    1  0.4133473E-007  0.2000018E+02  0.7818608E-02  0.1745324E+00
          3   -1    0    0  501    0  0.00000000000E+00  0.00000000000E+00  0.32617183581E+01  0.32630439236E+01  0.93000000000E-01 0.  1.
         -3   -1    0    0    0  501 -0.00000000000E+00 -0.00000000000E+00 -0.30651626072E+02  0.30651767157E+02  0.93000000000E-01 0. -1.
       1023    2    1    2    0    0  0.00000000000E+00  0.00000000000E+00 -0.27389907714E+02  0.33914811080E+02  0.20000184151E+02 0.  0.
        -11    1    3    3    0    0 -0.24486359683E+01  0.96955950001E+01 -0.13630143775E+02  0.16905064333E+02  0.51100000000E-03 0. -1.
         11    1    3    3    0    0  0.24486359683E+01 -0.96955950001E+01 -0.13759763939E+02  0.17009746748E+02  0.51100000000E-03 0.  1.
<mgrwt>
<rscale>  0 0.20000184E+02</rscale>
<asrwt>0</asrwt>
<pdfrwt beam="1">  1        3 0.50191566E-03 0.20000184E+02</pdfrwt>
<pdfrwt beam="2">  1       -3 0.47157474E-02 0.20000184E+02</pdfrwt>
<totfact> 0.17044095E+06</totfact>
</mgrwt>
</event>
<event>
 4    1  0.4133473E-007  0.2003131E+02  0.7818608E-02  0.1744706E+00
          3   -1    0    0  501    0  0.00000000000E+00  0.00000000000E+00  0.95820902569E+02  0.95820947700E+02  0.93000000000E-01 0.  1.
         -3   -1    0    0    0  501 -0.00000000000E+00 -0.00000000000E+00 -0.10447725407E+01  0.10489035521E+01  0.93000000000E-01 0. -1.
        -11    1    1    2    0    0 -0.38088128502E+00  0.99973218223E+01  0.45110554975E+02  0.46206641131E+02  0.51100000000E-03 0. -1.
         11    1    1    2    0    0  0.38088128502E+00 -0.99973218223E+01  0.49665575053E+02  0.50663210121E+02  0.51100000000E-03 0.  1.
<mgrwt>
<rscale>  0 0.20031307E+02</rscale>
<asrwt>0</asrwt>
<pdfrwt beam="1">  1        3 0.14742002E-01 0.20031307E+02</pdfrwt>
<pdfrwt beam="2">  1       -3 0.16105544E-03 0.20031307E+02</pdfrwt>
<totfact> 0.14239429E+06</totfact>
</mgrwt>
</event>
<event>
 5    1  0.4133473E-007  0.2000048E+02  0.7818608E-02  0.1745319E+00
          3   -1    0    0  501    0  0.00000000000E+00  0.00000000000E+00  0.10519948985E+03  0.10519953096E+03  0.93000000000E-01 0.  1.
         -3   -1    0    0    0  501 -0.00000000000E+00 -0.00000000000E+00 -0.94830431812E+00  0.95285365076E+00  0.93000000000E-01 0. -1.
       1023    2    1    2    0    0  0.00000000000E+00  0.00000000000E+00  0.10425118554E+03  0.10615238461E+03  0.20000476826E+02 0.  0.
        -11    1    3    3    0    0 -0.97771949618E+01 -0.21000867775E+01  0.52281443205E+02  0.53229251447E+02  0.51100000000E-03 0.  1.
         11    1    3    3    0    0  0.97771949618E+01  0.21000867775E+01  0.51969742330E+02  0.52923133164E+02  0.51100000000E-03 0. -1.
<mgrwt>
<rscale>  0 0.20000477E+02</rscale>
<asrwt>0</asrwt>
<pdfrwt beam="1">  1        3 0.16184888E-01 0.20000477E+02</pdfrwt>
<pdfrwt beam="2">  1       -3 0.14624610E-03 0.20000477E+02</pdfrwt>
<totfact> 0.13967849E+06</totfact>
</mgrwt>
</event>
<event>
 5    1  0.4133473E-007  0.2000027E+02  0.7818608E-02  0.1745323E+00
         -3   -1    0    0    0  501 -0.00000000000E+00  0.00000000000E+00  0.53956972171E+01  0.53964986296E+01  0.93000000000E-01 0. -1.
          3   -1    0    0  501    0  0.00000000000E+00 -0.00000000000E+00 -0.18531493004E+02  0.18531726362E+02  0.93000000000E-01 0.  1.
       1023    2    1    2    0    0  0.00000000000E+00  0.00000000000E+00 -0.13135795787E+02  0.23928224992E+02  0.20000270506E+02 0.  0.
        -11    1    3    3    0    0 -0.96855185698E+01 -0.24884154284E+01 -0.66097461362E+01  0.11987085782E+02  0.51100000000E-03 0.  1.
         11    1    3    3    0    0  0.96855185698E+01  0.24884154284E+01 -0.65260496509E+01  0.11941139209E+02  0.51100000000E-03 0. -1.
<mgrwt>
<rscale>  0 0.20000271E+02</rscale>
<asrwt>0</asrwt>
<pdfrwt beam="2">  1        3 0.28510785E-02 0.20000271E+02</pdfrwt>
<pdfrwt beam="1">  1       -3 0.83018687E-03 0.20000271E+02</pdfrwt>
<totfact> 0.17632800E+06</totfact>
</mgrwt>
</event>
<event>
 5    1  0.4133473E-007  0.2000283E+02  0.7818608E-02  0.1745272E+00
          3   -1    0    0  501    0  0.00000000000E+00  0.00000000000E+00  0.28429584192E+02  0.28429736304E+02  0.93000000000E-01 0. -1.
         -3   -1    0    0    0  501 -0.00000000000E+00 -0.00000000000E+00 -0.35176815566E+01  0.35189107027E+01  0.93000000000E-01 0.  1.
       1023    2    1    2    0    0  0.00000000000E+00  0.00000000000E+00  0.24911902635E+02  0.31948647007E+02  0.20002828616E+02 0.  0.
        -11    1    3    3    0    0 -0.94353242713E+01  0.33148519181E+01  0.12262296637E+02  0.15823321599E+02  0.51100000000E-03 0. -1.
         11    1    3    3    0    0  0.94353242713E+01 -0.33148519181E+01  0.12649605998E+02  0.16125325408E+02  0.51100000000E-03 0.  1.
<mgrwt>
<rscale>  0 0.20002829E+02</rscale>
<asrwt>0</asrwt>
<pdfrwt beam="1">  1        3 0.43738885E-02 0.20002829E+02</pdfrwt>
<pdfrwt beam="2">  1       -3 0.54128802E-03 0.20002829E+02</pdfrwt>
<totfact> 0.17148606E+06</totfact>
</mgrwt>
</event>
<event>
 5    1  0.4405735E-007  0.2000102E+02  0.7818608E-02  0.1745308E+00
         -3   -1    0    0    0  501 -0.00000000000E+00  0.00000000000E+00  0.15563820033E+02  0.15564097887E+02  0.93000000000E-01 0. -1.
          3   -1    0    0  501    0  0.00000000000E+00 -0.00000000000E+00 -0.64251433072E+01  0.64258163309E+01  0.93000000000E-01 0.  1.
       1023    2    1    2    0    0  0.00000000000E+00  0.00000000000E+00  0.91386767261E+01  0.21989914218E+02  0.20001022849E+02 0.  0.
        -11    1    3    3    0    0  0.70618638440E+01  0.70807602543E+01  0.45077132550E+01  0.10969346643E+02  0.51100000000E-03 0.  1.
         11    1    3    3    0    0 -0.70618638440E+01 -0.70807602543E+01  0.46309634711E+01  0.11020567574E+02  0.51100000000E-03 0. -1.
<mgrwt>
<rscale>  0 0.20001023E+02</rscale>
<asrwt>0</asrwt>
<pdfrwt beam="2">  1        3 0.98855673E-03 0.20001023E+02</pdfrwt>
<pdfrwt beam="1">  1       -3 0.23945070E-02 0.20001023E+02</pdfrwt>
<totfact> 0.17754921E+06</totfact>
</mgrwt>
</event>
<event>
 5    1  0.4133473E-007  0.2001207E+02  0.7818608E-02  0.1745088E+00
          3   -1    0    0  501    0  0.00000000000E+00  0.00000000000E+00  0.21380578076E+02  0.21380780338E+02  0.93000000000E-01 0.  1.
         -3   -1    0    0    0  501 -0.00000000000E+00 -0.00000000000E+00 -0.46821012644E+01  0.46830247971E+01  0.93000000000E-01 0. -1.
       1023    2    1    2    0    0  0.00000000000E+00  0.00000000000E+00  0.16698476811E+02  0.26063805135E+02  0.20012066617E+02 0.  0.
        -11    1    3    3    0    0 -0.79500597733E+01  0.60758522019E+01  0.83956875455E+01  0.13061661456E+02  0.51100000000E-03 0.  1.
         11    1    3    3    0    0  0.79500597733E+01 -0.60758522019E+01  0.83027892658E+01  0.13002143678E+02  0.51100000000E-03 0. -1.
<mgrwt>
<rscale>  0 0.20012067E+02</rscale>
<asrwt>0</asrwt>
<pdfrwt beam="1">  1        3 0.32894062E-02 0.20012067E+02</pdfrwt>
<pdfrwt beam="2">  1       -3 0.72040989E-03 0.20012067E+02</pdfrwt>
<totfact> 0.17478540E+06</totfact>
</mgrwt>
</event>
<event>
 5    1  0.4576775E-007  0.2000053E+02  0.7818608E-02  0.1745318E+00
         -3   -1    0    0    0  501 -0.00000000000E+00  0.00000000000E+00  0.21414047342E+02  0.21414249288E+02  0.93000000000E-01 0.  1.
          3   -1    0    0  501    0  0.00000000000E+00 -0.00000000000E+00 -0.46693920407E+01  0.46703180865E+01  0.93000000000E-01 0. -1.
       1023    2    1    2    0    0  0.00000000000E+00  0.00000000000E+00  0.16744655301E+02  0.26084567374E+02  0.20000529342E+02 0.  0.
        -11    1    3    3    0    0 -0.99861629501E+01  0.53088691287E+00  0.83740994811E+01  0.13043421091E+02  0.51100000000E-03 0. -1.
         11    1    3    3    0    0  0.99861629501E+01 -0.53088691287E+00  0.83705558201E+01  0.13041146283E+02  0.51100000000E-03 0.  1.
<mgrwt>
<rscale>  0 0.20000529E+02</rscale>
<asrwt>0</asrwt>
<pdfrwt beam="2">  1        3 0.71845479E-03 0.20000529E+02</pdfrwt>
<pdfrwt beam="1">  1       -3 0.32945555E-02 0.20000529E+02</pdfrwt>
<totfact> 0.17500327E+06</totfact>
</mgrwt>
</event>
<event>
 5    1  0.4133473E-007  0.2000044E+02  0.7818608E-02  0.1745319E+00
         -3   -1    0    0    0  501 -0.00000000000E+00  0.00000000000E+00  0.35766071351E+01  0.35778160376E+01  0.93000000000E-01 0. -1.
          3   -1    0    0  501    0  0.00000000000E+00 -0.00000000000E+00 -0.27954688867E+02  0.27954843563E+02  0.93000000000E-01 0.  1.
       1023    2    1    2    0    0  0.00000000000E+00  0.00000000000E+00 -0.24378081732E+02  0.31532659601E+02  0.20000443810E+02 0.  0.
        -11    1    3    3    0    0 -0.62325871410E+01  0.78203703188E+01 -0.12241413620E+02  0.15806819480E+02  0.51100000000E-03 0.  1.
         11    1    3    3    0    0  0.62325871410E+01 -0.78203703188E+01 -0.12136668112E+02  0.15725840121E+02  0.51100000000E-03 0. -1.
<mgrwt>
<rscale>  0 0.20000444E+02</rscale>
<asrwt>0</asrwt>
<pdfrwt beam="2">  1        3 0.43008261E-02 0.20000444E+02</pdfrwt>
<pdfrwt beam="1">  1       -3 0.55035216E-03 0.20000444E+02</pdfrwt>
<totfact> 0.17176865E+06</totfact>
</mgrwt>
</event>
<event>
 5    1  0.4286253E-007  0.2000090E+02  0.7818608E-02  0.1745310E+00
         -3   -1    0    0    0  501 -0.00000000000E+00  0.00000000000E+00  0.21458248228E+02  0.21458449758E+02  0.93000000000E-01 0. -1.
          3   -1    0    0  501    0  0.00000000000E+00 -0.00000000000E+00 -0.46599432261E+01  0.46608711493E+01  0.93000000000E-01 0.  1.
       1023    2    1    2    0    0  0.00000000000E+00  0.00000000000E+00  0.16798305002E+02  0.26119320908E+02  0.20000896823E+02 0.  0.
        -11    1    3    3    0    0 -0.82750211101E+01 -0.56152763590E+01  0.83458623419E+01  0.13025387574E+02  0.51100000000E-03 0. -1.
         11    1    3    3    0    0  0.82750211101E+01  0.56152763590E+01  0.84524426603E+01  0.13093933334E+02  0.51100000000E-03 0.  1.
<mgrwt>
<rscale>  0 0.20000897E+02</rscale>
<asrwt>0</asrwt>
<pdfrwt beam="2">  1        3 0.71700123E-03 0.20000897E+02</pdfrwt>
<pdfrwt beam="1">  1       -3 0.33013558E-02 0.20000897E+02</pdfrwt>
<totfact> 0.17497518E+06</totfact>
</mgrwt>
</event>
<event>
 5    1  0.4133473E-007  0.2000217E+02  0.7818608E-02  0.1745285E+00
          3   -1    0    0  501    0  0.00000000000E+00  0.00000000000E+00  0.73257630967E+01  0.73263533868E+01  0.93000000000E-01 0. -1.
         -3   -1    0    0    0  501 -0.00000000000E+00 -0.00000000000E+00 -0.13652120503E+02  0.13652437263E+02  0.93000000000E-01 0.  1.
       1023    2    1    2    0    0  0.00000000000E+00  0.00000000000E+00 -0.63263574064E+01  0.20978790650E+02  0.20002171360E+02 0.  0.
        -11    1    3    3    0    0 -0.82408361610E+01 -0.56660763574E+01 -0.32438264871E+01  0.10513715445E+02  0.51100000000E-03 0. -1.
         11    1    3    3    0    0  0.82408361610E+01  0.56660763574E+01 -0.30825309194E+01  0.10465075205E+02  0.51100000000E-03 0.  1.
<mgrwt>
<rscale>  0 0.20002171E+02</rscale>
<asrwt>0</asrwt>
<pdfrwt beam="1">  1        3 0.11271103E-02 0.20002171E+02</pdfrwt>
<pdfrwt beam="2">  1       -3 0.21003960E-02 0.20002171E+02</pdfrwt>
<totfact> 0.17817838E+06</totfact>
</mgrwt>
</event>
<event>
 5    1  0.4278234E-007  0.2000150E+02  0.7818608E-02  0.1745298E+00
         -3   -1    0    0    0  501 -0.00000000000E+00  0.00000000000E+00  0.72669875631E+01  0.72675826271E+01  0.93000000000E-01 0.  1.
          3   -1    0    0  501    0  0.00000000000E+00 -0.00000000000E+00 -0.13761607499E+02  0.13761921740E+02  0.93000000000E-01 0. -1.
       1023    2    1    2    0    0  0.00000000000E+00  0.00000000000E+00 -0.64946199364E+01  0.21029504367E+02  0.20001499089E+02 0.  0.
        -11    1    3    3    0    0  0.83543961177E+01  0.54959364089E+01 -0.33705508719E+01  0.10552813129E+02  0.51100000000E-03 0.  1.
         11    1    3    3    0    0 -0.83543961177E+01 -0.54959364089E+01 -0.31240690644E+01  0.10476691237E+02  0.51100000000E-03 0. -1.
<mgrwt>
<rscale>  0 0.20001499E+02</rscale>
<asrwt>0</asrwt>
<pdfrwt beam="2">  1        3 0.21172403E-02 0.20001499E+02</pdfrwt>
<pdfrwt beam="1">  1       -3 0.11180680E-02 0.20001499E+02</pdfrwt>
<totfact> 0.17815271E+06</totfact>
</mgrwt>
</event>
<event>
 5    1  0.4133473E-007  0.2000060E+02  0.7818608E-02  0.1745316E+00
         -3   -1    0    0    0  501 -0.00000000000E+00  0.00000000000E+00  0.18797069232E+01  0.18820061416E+01  0.93000000000E-01 0. -1.
          3   -1    0    0  501    0  0.00000000000E+00 -0.00000000000E+00 -0.53168106757E+02  0.53168188093E+02  0.93000000000E-01 0.  1.
       1023    2    1    2    0    0  0.00000000000E+00  0.00000000000E+00 -0.51288399834E+02  0.55050194235E+02  0.20000598186E+02 0.  0.
        -11    1    3    3    0    0  0.20735128704E+00  0.99980248281E+01 -0.25781453732E+02  0.27652971844E+02  0.51100000000E-03 0. -1.
         11    1    3    3    0    0 -0.20735128704E+00 -0.99980248281E+01 -0.25506946102E+02  0.27397222391E+02  0.51100000000E-03 0.  1.
<mgrwt>
<rscale>  0 0.20000598E+02</rscale>
<asrwt>0</asrwt>
<pdfrwt beam="2">  1        3 0.81798907E-02 0.20000598E+02</pdfrwt>
<pdfrwt beam="1">  1       -3 0.28936884E-03 0.20000598E+02</pdfrwt>
<totfact> 0.15967430E+06</totfact>
</mgrwt>
</event>
<event>
 5    1  0.4133473E-007  0.2000002E+02  0.7818608E-02  0.1745328E+00
         -3   -1    0    0    0  501 -0.00000000000E+00  0.00000000000E+00  0.76304045207E+02  0.76304101882E+02  0.93000000000E-01 0. -1.
          3   -1    0    0  501    0  0.00000000000E+00 -0.00000000000E+00 -0.13088422668E+01  0.13121421720E+01  0.93000000000E-01 0.  1.
       1023    2    1    2    0    0  0.00000000000E+00  0.00000000000E+00  0.74995202940E+02  0.77616244054E+02  0.20000021924E+02 0.  0.
        -11    1    3    3    0    0 -0.43499533709E+01  0.90043374923E+01  0.37519199060E+02  0.38828990283E+02  0.51100000000E-03 0.  1.
         11    1    3    3    0    0  0.43499533709E+01 -0.90043374923E+01  0.37476003880E+02  0.38787253771E+02  0.51100000000E-03 0. -1.
<mgrwt>
<rscale>  0 0.20000022E+02</rscale>
<asrwt>0</asrwt>
<pdfrwt beam="2">  1        3 0.20161854E-03 0.20000022E+02</pdfrwt>
<pdfrwt beam="1">  1       -3 0.11739343E-01 0.20000022E+02</pdfrwt>
<totfact> 0.15007644E+06</totfact>
</mgrwt>
</event>
<event>
 5    1  0.4133473E-007  0.2000022E+02  0.7818608E-02  0.1745324E+00
         -3   -1    0    0    0  501 -0.00000000000E+00  0.00000000000E+00  0.98782722878E+01  0.98787100571E+01  0.93000000000E-01 0. -1.
          3   -1    0    0  501    0  0.00000000000E+00 -0.00000000000E+00 -0.10122571644E+02  0.10122998849E+02  0.93000000000E-01 0.  1.
       1023    2    1    2    0    0  0.00000000000E+00  0.00000000000E+00 -0.24429935661E+00  0.20001708906E+02  0.20000216924E+02 0.  0.
        -11    1    3    3    0    0  0.99415513698E+01 -0.10805703865E+01 -0.11250591452E+00  0.10000736665E+02  0.51100000000E-03 0.  1.
         11    1    3    3    0    0 -0.99415513698E+01  0.10805703865E+01 -0.13179344208E+00  0.10000972241E+02  0.51100000000E-03 0. -1.
<mgrwt>
<rscale>  0 0.20000217E+02</rscale>
<asrwt>0</asrwt>
<pdfrwt beam="2">  1        3 0.15573853E-02 0.20000217E+02</pdfrwt>
<pdfrwt beam="1">  1       -3 0.15198007E-02 0.20000217E+02</pdfrwt>
<totfact> 0.17885089E+06</totfact>
</mgrwt>
</event>
<event>
 5    1  0.4207374E-007  0.2000147E+02  0.7818608E-02  0.1745299E+00
         -3   -1    0    0    0  501 -0.00000000000E+00  0.00000000000E+00  0.33955117300E+02  0.33955244659E+02  0.93000000000E-01 0.  1.
          3   -1    0    0  501    0  0.00000000000E+00 -0.00000000000E+00 -0.29446314149E+01  0.29460996537E+01  0.93000000000E-01 0. -1.
       1023    2    1    2    0    0  0.00000000000E+00  0.00000000000E+00  0.31010485885E+02  0.36901344313E+02  0.20001474377E+02 0.  0.
        -11    1    3    3    0    0  0.99945915532E+01  0.35044817551E+00  0.15489827636E+02  0.18437717719E+02  0.51100000000E-03 0.  1.
         11    1    3    3    0    0 -0.99945915532E+01 -0.35044817551E+00  0.15520658249E+02  0.18463626594E+02  0.51100000000E-03 0. -1.
<mgrwt>
<rscale>  0 0.20001474E+02</rscale>
<asrwt>0</asrwt>
<pdfrwt beam="2">  1        3 0.45314297E-03 0.20001474E+02</pdfrwt>
<pdfrwt beam="1">  1       -3 0.52239867E-02 0.20001474E+02</pdfrwt>
<totfact> 0.16877194E+06</totfact>
</mgrwt>
</event>
<event>
 5    1  0.4133473E-007  0.2000042E+02  0.7818608E-02  0.1745320E+00
         -3   -1    0    0    0  501 -0.00000000000E+00  0.00000000000E+00  0.22846404580E+01  0.22865325325E+01  0.93000000000E-01 0. -1.
          3   -1    0    0  501    0  0.00000000000E+00 -0.00000000000E+00 -0.43752329480E+02  0.43752428320E+02  0.93000000000E-01 0.  1.
       1023    2    1    2    0    0  0.00000000000E+00  0.00000000000E+00 -0.41467689022E+02  0.46038960852E+02  0.20000417085E+02 0.  0.
        -11    1    3    3    0    0 -0.29736637733E+01  0.95477869520E+01 -0.20815512184E+02  0.23093039203E+02  0.51100000000E-03 0. -1.
         11    1    3    3    0    0  0.29736637733E+01 -0.95477869520E+01 -0.20652176838E+02  0.22945921649E+02  0.51100000000E-03 0.  1.
<mgrwt>
<rscale>  0 0.20000417E+02</rscale>
<asrwt>0</asrwt>
<pdfrwt beam="2">  1        3 0.67312802E-02 0.20000417E+02</pdfrwt>
<pdfrwt beam="1">  1       -3 0.35163633E-03 0.20000417E+02</pdfrwt>
<totfact> 0.16401018E+06</totfact>
</mgrwt>
</event>
<event>
 5    1  0.4133473E-007  0.2000091E+02  0.7818608E-02  0.1745310E+00
         -3   -1    0    0    0  501 -0.00000000000E+00  0.00000000000E+00  0.98570528166E+00  0.99008277547E+00  0.93000000000E-01 0. -1.
          3   -1    0    0  501    0  0.00000000000E+00 -0.00000000000E+00 -0.10123028839E+03  0.10123033111E+03  0.93000000000E-01 0.  1.
       1023    2    1    2    0    0  0.00000000000E+00  0.00000000000E+00 -0.10024458311E+03  0.10222041389E+03  0.20000914285E+02 0.  0.
        -11    1    3    3    0    0 -0.56946045302E+01 -0.82207167420E+01 -0.50229288129E+02  0.51215135368E+02  0.51100000000E-03 0.  1.
         11    1    3    3    0    0  0.56946045302E+01  0.82207167420E+01 -0.50015294982E+02  0.51005278520E+02  0.51100000000E-03 0. -1.
<mgrwt>
<rscale>  0 0.20000914E+02</rscale>
<asrwt>0</asrwt>
<pdfrwt beam="2">  1        3 0.15574222E-01 0.20000914E+02</pdfrwt>
<pdfrwt beam="1">  1       -3 0.15198706E-03 0.20000914E+02</pdfrwt>
<totfact> 0.14100249E+06</totfact>
</mgrwt>
</event>
<event>
 5    1  0.4133473E-007  0.2000308E+02  0.7818608E-02  0.1745267E+00
         -3   -1    0    0    0  501 -0.00000000000E+00  0.00000000000E+00  0.22634813092E+02  0.22635004146E+02  0.93000000000E-01 0.  1.
          3   -1    0    0  501    0  0.00000000000E+00 -0.00000000000E+00 -0.44186345820E+01  0.44196131696E+01  0.93000000000E-01 0. -1.
       1023    2    1    2    0    0  0.00000000000E+00  0.00000000000E+00  0.18216178510E+02  0.27054617316E+02  0.20003078728E+02 0.  0.
        -11    1    3    3    0    0 -0.85634009150E+01 -0.51662747160E+01  0.89829555456E+01  0.13443054722E+02  0.51100000000E-03 0. -1.
         11    1    3    3    0    0  0.85634009150E+01  0.51662747160E+01  0.92332229642E+01  0.13611562594E+02  0.51100000000E-03 0.  1.
<mgrwt>
<rscale>  0 0.20003079E+02</rscale>
<asrwt>0</asrwt>
<pdfrwt beam="2">  1        3 0.67987990E-03 0.20003079E+02</pdfrwt>
<pdfrwt beam="1">  1       -3 0.34823690E-02 0.20003079E+02</pdfrwt>
<totfact> 0.17436812E+06</totfact>
</mgrwt>
</event>
<event>
 5    1  0.4133473E-007  0.2000380E+02  0.7818608E-02  0.1745252E+00
          3   -1    0    0  501    0  0.00000000000E+00  0.00000000000E+00  0.11346898729E+03  0.11346902540E+03  0.93000000000E-01 0.  1.
         -3   -1    0    0    0  501 -0.00000000000E+00 -0.00000000000E+00 -0.87914241952E+00  0.88404773276E+00  0.93000000000E-01 0. -1.
       1023    2    1    2    0    0  0.00000000000E+00  0.00000000000E+00  0.11258984487E+03  0.11435307313E+03  0.20003803822E+02 0.  0.
        -11    1    3    3    0    0  0.86230538933E+01  0.50675640210E+01  0.56135470241E+02  0.57019542992E+02  0.51100000000E-03 0.  1.
         11    1    3    3    0    0 -0.86230538933E+01 -0.50675640210E+01  0.56454374627E+02  0.57333530141E+02  0.51100000000E-03 0. -1.
<mgrwt>
<rscale>  0 0.20003804E+02</rscale>
<asrwt>0</asrwt>
<pdfrwt beam="1">  1        3 0.17457154E-01 0.20003804E+02</pdfrwt>
<pdfrwt beam="2">  1       -3 0.13563289E-03 0.20003804E+02</pdfrwt>
<totfact> 0.13694120E+06</totfact>
</mgrwt>
</event>
<event>
 5    1  0.4133473E-007  0.2000149E+02  0.7818608E-02  0.1745298E+00
          3   -1    0    0  501    0  0.00000000000E+00  0.00000000000E+00  0.54866242854E+02  0.54866321673E+02  0.93000000000E-01 0. -1.
         -3   -1    0    0    0  501 -0.00000000000E+00 -0.00000000000E+00 -0.18216197336E+01  0.18239921748E+01  0.93000000000E-01 0.  1.
       1023    2    1    2    0    0  0.00000000000E+00  0.00000000000E+00  0.53044623120E+02  0.56690313848E+02  0.20001490999E+02 0.  0.
        -11    1    3    3    0    0  0.48402368702E+01 -0.87510138103E+01  0.26755597580E+02  0.28563440580E+02  0.51100000000E-03 0.  1.
         11    1    3    3    0    0 -0.48402368702E+01  0.87510138103E+01  0.26289025541E+02  0.28126873268E+02  0.51100000000E-03 0. -1.
<mgrwt>
<rscale>  0 0.20001491E+02</rscale>
<asrwt>0</asrwt>
<pdfrwt beam="1">  1        3 0.84411485E-02 0.20001491E+02</pdfrwt>
<pdfrwt beam="2">  1       -3 0.28043776E-03 0.20001491E+02</pdfrwt>
<totfact> 0.15890466E+06</totfact>
</mgrwt>
</event>
<event>
 5    1  0.4301843E-007  0.2000170E+02  0.7818608E-02  0.1745294E+00
         -3   -1    0    0    0  501 -0.00000000000E+00  0.00000000000E+00  0.86905648756E+01  0.86910624699E+01  0.93000000000E-01 0. -1.
          3   -1    0    0  501    0  0.00000000000E+00 -0.00000000000E+00 -0.11507678270E+02  0.11508054056E+02  0.93000000000E-01 0.  1.
       1023    2    1    2    0    0  0.00000000000E+00  0.00000000000E+00 -0.28171133941E+01  0.20199116526E+02  0.20001704441E+02 0.  0.
        -11    1    3    3    0    0 -0.27717843914E+01  0.96089295786E+01 -0.14613074714E+01  0.10106915264E+02  0.51100000000E-03 0.  1.
         11    1    3    3    0    0  0.27717843914E+01 -0.96089295786E+01 -0.13558059226E+01  0.10092201262E+02  0.51100000000E-03 0. -1.
<mgrwt>
<rscale>  0 0.20001704E+02</rscale>
<asrwt>0</asrwt>
<pdfrwt beam="2">  1        3 0.17704792E-02 0.20001704E+02</pdfrwt>
<pdfrwt beam="1">  1       -3 0.13370772E-02 0.20001704E+02</pdfrwt>
<totfact> 0.17869198E+06</totfact>
</mgrwt>
</event>
<event>
 5    1  0.4133473E-007  0.2000012E+02  0.7818608E-02  0.1745326E+00
          3   -1    0    0  501    0  0.00000000000E+00  0.00000000000E+00  0.22755307540E+02  0.22755497583E+02  0.93000000000E-01 0.  1.
         -3   -1    0    0    0  501 -0.00000000000E+00 -0.00000000000E+00 -0.43939318195E+01  0.43949159076E+01  0.93000000000E-01 0. -1.
       1023    2    1    2    0    0  0.00000000000E+00  0.00000000000E+00  0.18361375720E+02  0.27150413490E+02  0.20000120858E+02 0.  0.
        -11    1    3    3    0    0  0.99560935553E+01  0.93664508675E+00  0.91667493705E+01  0.13565780375E+02  0.51100000000E-03 0.  1.
         11    1    3    3    0    0 -0.99560935553E+01 -0.93664508675E+00  0.91946263500E+01  0.13584633115E+02  0.51100000000E-03 0. -1.
<mgrwt>
<rscale>  0 0.20000121E+02</rscale>
<asrwt>0</asrwt>
<pdfrwt beam="1">  1        3 0.35009069E-02 0.20000121E+02</pdfrwt>
<pdfrwt beam="2">  1       -3 0.67607983E-03 0.20000121E+02</pdfrwt>
<totfact> 0.17435157E+06</totfact>
</mgrwt>
</event>
<event>
 5    1  0.4133473E-007  0.2000083E+02  0.7818608E-02  0.1745312E+00
         -3   -1    0    0    0  501 -0.00000000000E+00  0.00000000000E+00  0.15300443194E+01  0.15328681024E+01  0.93000000000E-01 0.  1.
          3   -1    0    0  501    0  0.00000000000E+00 -0.00000000000E+00 -0.65299902873E+02  0.65299969099E+02  0.93000000000E-01 0. -1.
       1023    2    1    2    0    0  0.00000000000E+00  0.00000000000E+00 -0.63769858554E+02  0.66832837201E+02  0.20000831691E+02 0.  0.
        -11    1    3    3    0    0 -0.85203542505E+01  0.52349641759E+01 -0.32165104814E+02  0.33683753568E+02  0.51100000000E-03 0. -1.
         11    1    3    3    0    0  0.85203542505E+01 -0.52349641759E+01 -0.31604753740E+02  0.33149083633E+02  0.51100000000E-03 0.  1.
<mgrwt>
<rscale>  0 0.20000832E+02</rscale>
<asrwt>0</asrwt>
<pdfrwt beam="2">  1        3 0.10046359E-01 0.20000832E+02</pdfrwt>
<pdfrwt beam="1">  1       -3 0.23561379E-03 0.20000832E+02</pdfrwt>
<totfact> 0.15444721E+06</totfact>
</mgrwt>
</event>
<event>
 5    1  0.4133473E-007  0.2000388E+02  0.7818608E-02  0.1745251E+00
          3   -1    0    0  501    0  0.00000000000E+00  0.00000000000E+00  0.44732027342E+01  0.44741693867E+01  0.93000000000E-01 0.  1.
         -3   -1    0    0    0  501 -0.00000000000E+00 -0.00000000000E+00 -0.22360535708E+02  0.22360729106E+02  0.93000000000E-01 0. -1.
       1023    2    1    2    0    0  0.00000000000E+00  0.00000000000E+00 -0.17887332974E+02  0.26834898493E+02  0.20003877029E+02 0.  0.
        -11    1    3    3    0    0 -0.26926873587E+01 -0.96311892915E+01 -0.87175898301E+01  0.13266753374E+02  0.51100000000E-03 0.  1.
         11    1    3    3    0    0  0.26926873587E+01  0.96311892915E+01 -0.91697431441E+01  0.13568145119E+02  0.51100000000E-03 0. -1.
<mgrwt>
<rscale>  0 0.20003877E+02</rscale>
<asrwt>0</asrwt>
<pdfrwt beam="1">  1        3 0.68827428E-03 0.20003877E+02</pdfrwt>
<pdfrwt beam="2">  1       -3 0.34401716E-02 0.20003877E+02</pdfrwt>
<totfact> 0.17448551E+06</totfact>
</mgrwt>
</event>
<event>
 5    1  0.4233244E-007  0.2000142E+02  0.7818608E-02  0.1745300E+00
          3   -1    0    0  501    0  0.00000000000E+00  0.00000000000E+00  0.48394645279E+01  0.48403580360E+01  0.93000000000E-01 0. -1.
         -3   -1    0    0    0  501 -0.00000000000E+00 -0.00000000000E+00 -0.20663475526E+02  0.20663684807E+02  0.93000000000E-01 0.  1.
       1023    2    1    2    0    0  0.00000000000E+00  0.00000000000E+00 -0.15824010998E+02  0.25504042843E+02  0.20001421882E+02 0.  0.
        -11    1    3    3    0    0  0.48673002137E+01 -0.87357206086E+01 -0.80444768723E+01  0.12834213429E+02  0.51100000000E-03 0. -1.
         11    1    3    3    0    0 -0.48673002137E+01  0.87357206086E+01 -0.77795341258E+01  0.12669829415E+02  0.51100000000E-03 0.  1.
<mgrwt>
<rscale>  0 0.20001422E+02</rscale>
<asrwt>0</asrwt>
<pdfrwt beam="1">  1        3 0.74461785E-03 0.20001422E+02</pdfrwt>
<pdfrwt beam="2">  1       -3 0.31790810E-02 0.20001422E+02</pdfrwt>
<totfact> 0.17534127E+06</totfact>
</mgrwt>
</event>
<event>
 5    1  0.4197011E-007  0.2000117E+02  0.7818608E-02  0.1745305E+00
          3   -1    0    0  501    0  0.00000000000E+00  0.00000000000E+00  0.28154263398E+02  0.28154416998E+02  0.93000000000E-01 0. -1.
         -3   -1    0    0    0  501 -0.00000000000E+00 -0.00000000000E+00 -0.35515017815E+01  0.35527192268E+01  0.93000000000E-01 0.  1.
       1023    2    1    2    0    0  0.00000000000E+00  0.00000000000E+00  0.24602761616E+02  0.31707136224E+02  0.20001165176E+02 0.  0.
        -11    1    3    3    0    0  0.87902681863E+01 -0.47689445259E+01  0.12304982640E+02  0.15856362910E+02  0.51100000000E-03 0. -1.
         11    1    3    3    0    0 -0.87902681863E+01  0.47689445259E+01  0.12297778976E+02  0.15850773315E+02  0.51100000000E-03 0.  1.
<mgrwt>
<rscale>  0 0.20001165E+02</rscale>
<asrwt>0</asrwt>
<pdfrwt beam="1">  1        3 0.43315306E-02 0.20001165E+02</pdfrwt>
<pdfrwt beam="2">  1       -3 0.54649035E-03 0.20001165E+02</pdfrwt>
<totfact> 0.17165512E+06</totfact>
</mgrwt>
</event>
<event>
 5    1  0.4229746E-007  0.2000059E+02  0.7818608E-02  0.1745316E+00
          3   -1    0    0  501    0  0.00000000000E+00  0.00000000000E+00  0.77827786099E+01  0.77833342400E+01  0.93000000000E-01 0.  1.
         -3   -1    0    0    0  501 -0.00000000000E+00 -0.00000000000E+00 -0.12848455615E+02  0.12848792188E+02  0.93000000000E-01 0. -1.
       1023    2    1    2    0    0  0.00000000000E+00  0.00000000000E+00 -0.50656770051E+01  0.20632126428E+02  0.20000588927E+02 0.  0.
        -11    1    3    3    0    0  0.75424954262E+01 -0.65662874871E+01 -0.25563728397E+01  0.10321841453E+02  0.51100000000E-03 0.  1.
         11    1    3    3    0    0 -0.75424954262E+01  0.65662874871E+01 -0.25093041655E+01  0.10310284975E+02  0.51100000000E-03 0. -1.
<mgrwt>
<rscale>  0 0.20000589E+02</rscale>
<asrwt>0</asrwt>
<pdfrwt beam="1">  1        3 0.11974192E-02 0.20000589E+02</pdfrwt>
<pdfrwt beam="2">  1       -3 0.19767541E-02 0.20000589E+02</pdfrwt>
<totfact> 0.17843417E+06</totfact>
</mgrwt>
</event>
<event>
 5    1  0.4133473E-007  0.2000329E+02  0.7818608E-02  0.1745263E+00
          3   -1    0    0  501    0  0.00000000000E+00  0.00000000000E+00  0.28024846261E+01  0.28040272965E+01  0.93000000000E-01 0. -1.
         -3   -1    0    0    0  501 -0.00000000000E+00 -0.00000000000E+00 -0.35682926544E+02  0.35683047736E+02  0.93000000000E-01 0.  1.
       1023    2    1    2    0    0  0.00000000000E+00  0.00000000000E+00 -0.32880441918E+02  0.38487075032E+02  0.20003286826E+02 0.  0.
        -11    1    3    3    0    0 -0.99170232193E+00  0.99508752978E+01 -0.16770562102E+02  0.19525755969E+02  0.51100000000E-03 0. -1.
         11    1    3    3    0    0  0.99170232193E+00 -0.99508752978E+01 -0.16109879816E+02  0.18961319063E+02  0.51100000000E-03 0.  1.
<mgrwt>
<rscale>  0 0.20003287E+02</rscale>
<asrwt>0</asrwt>
<pdfrwt beam="1">  1        3 0.43127950E-03 0.20003287E+02</pdfrwt>
<pdfrwt beam="2">  1       -3 0.54898087E-02 0.20003287E+02</pdfrwt>
<totfact> 0.16788445E+06</totfact>
</mgrwt>
</event>
<event>
 5    1  0.4133473E-007  0.2000029E+02  0.7818608E-02  0.1745322E+00
         -3   -1    0    0    0  501 -0.00000000000E+00  0.00000000000E+00  0.63932949641E+01  0.63939713401E+01  0.93000000000E-01 0.  1.
          3   -1    0    0  501    0  0.00000000000E+00 -0.00000000000E+00 -0.15640202709E+02  0.15640479206E+02  0.93000000000E-01 0. -1.
       1023    2    1    2    0    0  0.00000000000E+00  0.00000000000E+00 -0.92469077452E+01  0.22034450546E+02  0.20000292698E+02 0.  0.
        -11    1    3    3    0    0  0.29655703396E+01  0.95502630245E+01 -0.46545264298E+01  0.11030265084E+02  0.51100000000E-03 0.  1.
         11    1    3    3    0    0 -0.29655703396E+01 -0.95502630245E+01 -0.45923813153E+01  0.11004185462E+02  0.51100000000E-03 0. -1.
<mgrwt>
<rscale>  0 0.20000293E+02</rscale>
<asrwt>0</asrwt>
<pdfrwt beam="2">  1        3 0.24062583E-02 0.20000293E+02</pdfrwt>
<pdfrwt beam="1">  1       -3 0.98365715E-03 0.20000293E+02</pdfrwt>
<totfact> 0.17752680E+06</totfact>
</mgrwt>
</event>
<event>
 5    1  0.4133473E-007  0.2000011E+02  0.7818608E-02  0.1745326E+00
         -3   -1    0    0    0  501 -0.00000000000E+00  0.00000000000E+00  0.59059631901E+02  0.59059705123E+02  0.93000000000E-01 0. -1.
          3   -1    0    0  501    0  0.00000000000E+00 -0.00000000000E+00 -0.16918713972E+01  0.16944255147E+01  0.93000000000E-01 0.  1.
       1023    2    1    2    0    0  0.00000000000E+00  0.00000000000E+00  0.57367760503E+02  0.60754130638E+02  0.20000111109E+02 0.  0.
        -11    1    3    3    0    0  0.84474921182E+01 -0.53516598848E+01  0.28602131656E+02  0.30299873303E+02  0.51100000000E-03 0.  1.
         11    1    3    3    0    0 -0.84474921182E+01  0.53516598848E+01  0.28765628847E+02  0.30454257335E+02  0.51100000000E-03 0. -1.
<mgrwt>
<rscale>  0 0.20000111E+02</rscale>
<asrwt>0</asrwt>
<pdfrwt beam="2">  1        3 0.26049001E-03 0.20000111E+02</pdfrwt>
<pdfrwt beam="1">  1       -3 0.90862994E-02 0.20000111E+02</pdfrwt>
<totfact> 0.15712644E+06</totfact>
</mgrwt>
</event>
<event>
 5    1  0.4133473E-007  0.2000537E+02  0.7818608E-02  0.1745221E+00
          3   -1    0    0  501    0  0.00000000000E+00  0.00000000000E+00  0.53185839321E+01  0.53193969623E+01  0.93000000000E-01 0. -1.
         -3   -1    0    0    0  501 -0.00000000000E+00 -0.00000000000E+00 -0.18809720591E+02  0.18809950497E+02  0.93000000000E-01 0.  1.
       1023    2    1    2    0    0  0.00000000000E+00  0.00000000000E+00 -0.13491136659E+02  0.24129347459E+02  0.20005365292E+02 0.  0.
        -11    1    3    3    0    0  0.15208424865E+01 -0.98859369302E+01 -0.68596685128E+01  0.12128469121E+02  0.51100000000E-03 0. -1.
         11    1    3    3    0    0 -0.15208424865E+01  0.98859369302E+01 -0.66314681457E+01  0.12000878338E+02  0.51100000000E-03 0.  1.
<mgrwt>
<rscale>  0 0.20005365E+02</rscale>
<asrwt>0</asrwt>
<pdfrwt beam="1">  1        3 0.81832392E-03 0.20005365E+02</pdfrwt>
<pdfrwt beam="2">  1       -3 0.28938834E-02 0.20005365E+02</pdfrwt>
<totfact> 0.17611697E+06</totfact>
</mgrwt>
</event>
<event>
 5    1  0.4177954E-007  0.2000152E+02  0.7818608E-02  0.1745298E+00
         -3   -1    0    0    0  501 -0.00000000000E+00  0.00000000000E+00  0.17050165201E+02  0.17050418833E+02  0.93000000000E-01 0. -1.
          3   -1    0    0  501    0  0.00000000000E+00 -0.00000000000E+00 -0.58652687573E+01  0.58660060174E+01  0.93000000000E-01 0.  1.
       1023    2    1    2    0    0  0.00000000000E+00  0.00000000000E+00  0.11184896443E+02  0.22916424850E+02  0.20001515429E+02 0.  0.
        -11    1    3    3    0    0 -0.97834655030E+01 -0.20730978336E+01  0.56325117253E+01  0.11477766354E+02  0.51100000000E-03 0. -1.
         11    1    3    3    0    0  0.97834655030E+01  0.20730978336E+01  0.55523847180E+01  0.11438658496E+02  0.51100000000E-03 0.  1.
<mgrwt>
<rscale>  0 0.20001515E+02</rscale>
<asrwt>0</asrwt>
<pdfrwt beam="2">  1        3 0.90242527E-03 0.20001515E+02</pdfrwt>
<pdfrwt beam="1">  1       -3 0.26231785E-02 0.20001515E+02</pdfrwt>
<totfact> 0.17695062E+06</totfact>
</mgrwt>
</event>
<event>
 5    1  0.4133473E-007  0.2000095E+02  0.7818608E-02  0.1745309E+00
          3   -1    0    0  501    0  0.00000000000E+00  0.00000000000E+00  0.10502356974E+03  0.10502361092E+03  0.93000000000E-01 0.  1.
         -3   -1    0    0    0  501 -0.00000000000E+00 -0.00000000000E+00 -0.94994590341E+00  0.95448741186E+00  0.93000000000E-01 0. -1.
       1023    2    1    2    0    0  0.00000000000E+00  0.00000000000E+00  0.10407362384E+03  0.10597809833E+03  0.20000953647E+02 0.  0.
        -11    1    3    3    0    0 -0.79489417683E+01 -0.60682357732E+01  0.51934093844E+02  0.52888176980E+02  0.51100000000E-03 0.  1.
         11    1    3    3    0    0  0.79489417683E+01  0.60682357732E+01  0.52139529992E+02  0.53089921347E+02  0.51100000000E-03 0. -1.
<mgrwt>
<rscale>  0 0.20000954E+02</rscale>
<asrwt>0</asrwt>
<pdfrwt beam="1">  1        3 0.16157812E-01 0.20000954E+02</pdfrwt>
<pdfrwt beam="2">  1       -3 0.14649815E-03 0.20000954E+02</pdfrwt>
<totfact> 0.13972977E+06</totfact>
</mgrwt>
</event>
<event>
 5    1  0.4133473E-007  0.2000042E+02  0.7818608E-02  0.1745320E+00
         -3   -1    0    0    0  501 -0.00000000000E+00  0.00000000000E+00  0.82559303739E+02  0.82559356120E+02  0.93000000000E-01 0.  1.
          3   -1    0    0  501    0  0.00000000000E+00 -0.00000000000E+00 -0.12094629660E+01  0.12130332502E+01  0.93000000000E-01 0. -1.
       1023    2    1    2    0    0  0.00000000000E+00  0.00000000000E+00  0.81349840773E+02  0.83772389370E+02  0.20000415668E+02 0.  0.
        -11    1    3    3    0    0  0.46832641862E+01 -0.88356233909E+01  0.40902505480E+02  0.42107198422E+02  0.51100000000E-03 0.  1.
         11    1    3    3    0    0 -0.46832641862E+01  0.88356233909E+01  0.40447335294E+02  0.41665190948E+02  0.51100000000E-03 0. -1.
<mgrwt>
<rscale>  0 0.20000416E+02</rscale>
<asrwt>0</asrwt>
<pdfrwt beam="2">  1        3 0.18634991E-03 0.20000416E+02</pdfrwt>
<pdfrwt beam="1">  1       -3 0.12701709E-01 0.20000416E+02</pdfrwt>
<totfact> 0.14768767E+06</totfact>
</mgrwt>
</event>
<event>
 5    1  0.4133473E-007  0.2000043E+02  0.7818608E-02  0.1745320E+00
         -3   -1    0    0    0  501 -0.00000000000E+00  0.00000000000E+00  0.85968115443E+00  0.86469687595E+00  0.93000000000E-01 0. -1.
          3   -1    0    0  501    0  0.00000000000E+00 -0.00000000000E+00 -0.11598380391E+03  0.11598384120E+03  0.93000000000E-01 0.  1.
       1023    2    1    2    0    0  0.00000000000E+00  0.00000000000E+00 -0.11512412276E+03  0.11684853807E+03  0.20000430225E+02 0.  0.
        -11    1    3    3    0    0 -0.37813203436E+00  0.99930151424E+01 -0.57380426664E+02  0.58245314832E+02  0.51100000000E-03 0. -1.
         11    1    3    3    0    0  0.37813203436E+00 -0.99930151424E+01 -0.57743696095E+02  0.58603223243E+02  0.51100000000E-03 0.  1.
<mgrwt>
<rscale>  0 0.20000430E+02</rscale>
<asrwt>0</asrwt>
<pdfrwt beam="2">  1        3 0.17844038E-01 0.20000430E+02</pdfrwt>
<pdfrwt beam="1">  1       -3 0.13264742E-03 0.20000430E+02</pdfrwt>
<totfact> 0.13619501E+06</totfact>
</mgrwt>
</event>
<event>
 5    1  0.4264819E-007  0.2000142E+02  0.7818608E-02  0.1745300E+00
         -3   -1    0    0    0  501 -0.00000000000E+00  0.00000000000E+00  0.95481919625E+01  0.95486448647E+01  0.93000000000E-01 0.  1.
          3   -1    0    0  501    0  0.00000000000E+00 -0.00000000000E+00 -0.10473761973E+02  0.10474174853E+02  0.93000000000E-01 0. -1.
       1023    2    1    2    0    0  0.00000000000E+00  0.00000000000E+00 -0.92557001006E+00  0.20022819718E+02  0.20001415690E+02 0.  0.
        -11    1    3    3    0    0  0.25018491050E+01  0.96824618809E+01 -0.53243046152E+00  0.10014629273E+02  0.51100000000E-03 0. -1.
         11    1    3    3    0    0 -0.25018491050E+01 -0.96824618809E+01 -0.39313954854E+00  0.10008190445E+02  0.51100000000E-03 0.  1.
<mgrwt>
<rscale>  0 0.20001416E+02</rscale>
<asrwt>0</asrwt>
<pdfrwt beam="2">  1        3 0.16114146E-02 0.20001416E+02</pdfrwt>
<pdfrwt beam="1">  1       -3 0.14690192E-02 0.20001416E+02</pdfrwt>
<totfact> 0.17881375E+06</totfact>
</mgrwt>
</event>
<event>
 5    1  0.4300194E-007  0.2000094E+02  0.7818608E-02  0.1745309E+00
          3   -1    0    0  501    0  0.00000000000E+00  0.00000000000E+00  0.19332458995E+02  0.19332682685E+02  0.93000000000E-01 0. -1.
         -3   -1    0    0    0  501 -0.00000000000E+00 -0.00000000000E+00 -0.51724616107E+01  0.51732976054E+01  0.93000000000E-01 0.  1.
       1023    2    1    2    0    0  0.00000000000E+00  0.00000000000E+00  0.14159997385E+02  0.24505980291E+02  0.20000938580E+02 0.  0.
        -11    1    3    3    0    0 -0.13958338729E+01 -0.99022682957E+01  0.71758197485E+01  0.12308357280E+02  0.51100000000E-03 0. -1.
         11    1    3    3    0    0  0.13958338729E+01  0.99022682957E+01  0.69841776362E+01  0.12197623011E+02  0.51100000000E-03 0.  1.
<mgrwt>
<rscale>  0 0.20000939E+02</rscale>
<asrwt>0</asrwt>
<pdfrwt beam="1">  1        3 0.29743060E-02 0.20000939E+02</pdfrwt>
<pdfrwt beam="2">  1       -3 0.79584484E-03 0.20000939E+02</pdfrwt>
<totfact> 0.17595493E+06</totfact>
</mgrwt>
</event>
<event>
 5    1  0.4133473E-007  0.2000358E+02  0.7818608E-02  0.1745257E+00
         -3   -1    0    0    0  501 -0.00000000000E+00  0.00000000000E+00  0.30760003142E+02  0.30760143731E+02  0.93000000000E-01 0.  1.
          3   -1    0    0  501    0  0.00000000000E+00 -0.00000000000E+00 -0.32513251591E+01  0.32526549602E+01  0.93000000000E-01 0. -1.
       1023    2    1    2    0    0  0.00000000000E+00  0.00000000000E+00  0.27508677983E+02  0.34012798691E+02  0.20003577440E+02 0.  0.
        -11    1    3    3    0    0 -0.91303093595E+01 -0.40803089432E+01  0.13489243271E+02  0.16791996735E+02  0.51100000000E-03 0.  1.
         11    1    3    3    0    0  0.91303093595E+01  0.40803089432E+01  0.14019434713E+02  0.17220801956E+02  0.51100000000E-03 0. -1.
<mgrwt>
<rscale>  0 0.20003577E+02</rscale>
<asrwt>0</asrwt>
<pdfrwt beam="2">  1        3 0.50031698E-03 0.20003577E+02</pdfrwt>
<pdfrwt beam="1">  1       -3 0.47324213E-02 0.20003577E+02</pdfrwt>
<totfact> 0.17032398E+06</totfact>
</mgrwt>
</event>
<event>
 5    1  0.4133473E-007  0.2000054E+02  0.7818608E-02  0.1745317E+00
          3   -1    0    0  501    0  0.00000000000E+00  0.00000000000E+00  0.21339122892E+01  0.21359378872E+01  0.93000000000E-01 0.  1.
         -3   -1    0    0    0  501 -0.00000000000E+00 -0.00000000000E+00 -0.46840521348E+02  0.46840613672E+02  0.93000000000E-01 0. -1.
       1023    2    1    2    0    0  0.00000000000E+00  0.00000000000E+00 -0.44706609059E+02  0.48976551560E+02  0.20000542720E+02 0.  0.
        -11    1    3    3    0    0  0.99900949762E+01 -0.44957293803E+00 -0.22264554245E+02  0.24407263047E+02  0.51100000000E-03 0. -1.
         11    1    3    3    0    0 -0.99900949762E+01  0.44957293803E+00 -0.22442054814E+02  0.24569288512E+02  0.51100000000E-03 0.  1.
<mgrwt>
<rscale>  0 0.20000543E+02</rscale>
<asrwt>0</asrwt>
<pdfrwt beam="1">  1        3 0.32845715E-03 0.20000543E+02</pdfrwt>
<pdfrwt beam="2">  1       -3 0.72063962E-02 0.20000543E+02</pdfrwt>
<totfact> 0.16258410E+06</totfact>
</mgrwt>
</event>
<event>
 5    1  0.4133473E-007  0.2000052E+02  0.7818608E-02  0.1745318E+00
         -3   -1    0    0    0  501 -0.00000000000E+00  0.00000000000E+00  0.35676691705E+01  0.35688811006E+01  0.93000000000E-01 0.  1.
          3   -1    0    0  501    0  0.00000000000E+00 -0.00000000000E+00 -0.28024900496E+02  0.28025054805E+02  0.93000000000E-01 0. -1.
       1023    2    1    2    0    0  0.00000000000E+00  0.00000000000E+00 -0.24457231326E+02  0.31593935906E+02  0.20000515541E+02 0.  0.
        -11    1    3    3    0    0  0.13901100831E+01  0.99030703577E+01 -0.12298311613E+02  0.15850920394E+02  0.51100000000E-03 0. -1.
         11    1    3    3    0    0 -0.13901100831E+01 -0.99030703577E+01 -0.12158919713E+02  0.15743015512E+02  0.51100000000E-03 0.  1.
<mgrwt>
<rscale>  0 0.20000516E+02</rscale>
<asrwt>0</asrwt>
<pdfrwt beam="2">  1        3 0.43116281E-02 0.20000516E+02</pdfrwt>
<pdfrwt beam="1">  1       -3 0.54897729E-03 0.20000516E+02</pdfrwt>
<totfact> 0.17173211E+06</totfact>
</mgrwt>
</event>
<event>
 5    1  0.4133473E-007  0.2000020E+02  0.7818608E-02  0.1745324E+00
         -3   -1    0    0    0  501 -0.00000000000E+00  0.00000000000E+00  0.14626630085E+02  0.14626925742E+02  0.93000000000E-01 0.  1.
          3   -1    0    0  501    0  0.00000000000E+00 -0.00000000000E+00 -0.68362988011E+01  0.68369313510E+01  0.93000000000E-01 0. -1.
       1023    2    1    2    0    0  0.00000000000E+00  0.00000000000E+00  0.77903312842E+01  0.21463857093E+02  0.20000197493E+02 0.  0.
        -11    1    3    3    0    0 -0.54679836353E+01 -0.83726698779E+01  0.38532048547E+01  0.10716698831E+02  0.51100000000E-03 0.  1.
         11    1    3    3    0    0  0.54679836353E+01  0.83726698779E+01  0.39371264296E+01  0.10747158262E+02  0.51100000000E-03 0. -1.
<mgrwt>
<rscale>  0 0.20000197E+02</rscale>
<asrwt>0</asrwt>
<pdfrwt beam="2">  1        3 0.10518097E-02 0.20000197E+02</pdfrwt>
<pdfrwt beam="1">  1       -3 0.22503222E-02 0.20000197E+02</pdfrwt>
<totfact> 0.17790252E+06</totfact>
</mgrwt>
</event>
<event>
 5    1  0.4133473E-007  0.2000016E+02  0.7818608E-02  0.1745325E+00
         -3   -1    0    0    0  501 -0.00000000000E+00  0.00000000000E+00  0.29175123606E+02  0.29175271831E+02  0.93000000000E-01 0.  1.
          3   -1    0    0  501    0  0.00000000000E+00 -0.00000000000E+00 -0.34268442719E+01  0.34281059878E+01  0.93000000000E-01 0. -1.
       1023    2    1    2    0    0  0.00000000000E+00  0.00000000000E+00  0.25748279334E+02  0.32603377819E+02  0.20000158913E+02 0.  0.
        -11    1    3    3    0    0  0.16697068043E+01  0.98596990388E+01  0.12876928765E+02  0.16303891579E+02  0.51100000000E-03 0. -1.
         11    1    3    3    0    0 -0.16697068043E+01 -0.98596990388E+01  0.12871350570E+02  0.16299486240E+02  0.51100000000E-03 0.  1.
<mgrwt>
<rscale>  0 0.20000159E+02</rscale>
<asrwt>0</asrwt>
<pdfrwt beam="2">  1        3 0.52731525E-03 0.20000159E+02</pdfrwt>
<pdfrwt beam="1">  1       -3 0.44885892E-02 0.20000159E+02</pdfrwt>
<totfact> 0.17118051E+06</totfact>
</mgrwt>
</event>
<event>
 5    1  0.4158816E-007  0.2000081E+02  0.7818608E-02  0.1745312E+00
         -3   -1    0    0    0  501 -0.00000000000E+00  0.00000000000E+00  0.17594814599E+02  0.17595060379E+02  0.93000000000E-01 0.  1.
          3   -1    0    0  501    0  0.00000000000E+00 -0.00000000000E+00 -0.56832849343E+01  0.56840457989E+01  0.93000000000E-01 0. -1.
       1023    2    1    2    0    0  0.00000000000E+00  0.00000000000E+00  0.11911529664E+02  0.23279106178E+02  0.20000806122E+02 0.  0.
        -11    1    3    3    0    0  0.15375582648E+01  0.98814522870E+01  0.59213083940E+01  0.11621922305E+02  0.51100000000E-03 0. -1.
         11    1    3    3    0    0 -0.15375582648E+01 -0.98814522870E+01  0.59902212703E+01  0.11657183873E+02  0.51100000000E-03 0.  1.
<mgrwt>
<rscale>  0 0.20000806E+02</rscale>
<asrwt>0</asrwt>
<pdfrwt beam="2">  1        3 0.87442896E-03 0.20000806E+02</pdfrwt>
<pdfrwt beam="1">  1       -3 0.27069720E-02 0.20000806E+02</pdfrwt>
<totfact> 0.17673536E+06</totfact>
</mgrwt>
</event>
<event>
 5    1  0.4133473E-007  0.2001063E+02  0.7818608E-02  0.1745117E+00
         -3   -1    0    0    0  501 -0.00000000000E+00  0.00000000000E+00  0.25383171636E+02  0.25383342004E+02  0.93000000000E-01 0.  1.
          3   -1    0    0  501    0  0.00000000000E+00 -0.00000000000E+00 -0.39430748194E+01  0.39441713999E+01  0.93000000000E-01 0. -1.
       1023    2    1    2    0    0  0.00000000000E+00  0.00000000000E+00  0.21440096817E+02  0.29327513404E+02  0.20010629450E+02 0.  0.
        -11    1    3    3    0    0  0.28399068239E+01  0.95922593406E+01  0.10973102495E+02  0.14848753775E+02  0.51100000000E-03 0. -1.
         11    1    3    3    0    0 -0.28399068239E+01 -0.95922593406E+01  0.10466994322E+02  0.14478759630E+02  0.51100000000E-03 0.  1.
<mgrwt>
<rscale>  0 0.20010629E+02</rscale>
<asrwt>0</asrwt>
<pdfrwt beam="2">  1        3 0.60672436E-03 0.20010629E+02</pdfrwt>
<pdfrwt beam="1">  1       -3 0.39052007E-02 0.20010629E+02</pdfrwt>
<totfact> 0.17287629E+06</totfact>
</mgrwt>
</event>
<event>
 5    1  0.4133473E-007  0.2000098E+02  0.7818608E-02  0.1745309E+00
         -3   -1    0    0    0  501 -0.00000000000E+00  0.00000000000E+00  0.88287970272E+02  0.88288019254E+02  0.93000000000E-01 0.  1.
          3   -1    0    0  501    0  0.00000000000E+00 -0.00000000000E+00 -0.11308095344E+01  0.11346273411E+01  0.93000000000E-01 0. -1.
       1023    2    1    2    0    0  0.00000000000E+00  0.00000000000E+00  0.87157160738E+02  0.89422646595E+02  0.20000976381E+02 0.  0.
        -11    1    3    3    0    0  0.99981843697E+01 -0.19297540545E+00  0.43998788907E+02  0.45120886026E+02  0.51100000000E-03 0. -1.
         11    1    3    3    0    0 -0.99981843697E+01  0.19297540545E+00  0.43158371830E+02  0.44301760569E+02  0.51100000000E-03 0.  1.
<mgrwt>
<rscale>  0 0.20000976E+02</rscale>
<asrwt>0</asrwt>
<pdfrwt beam="2">  1        3 0.17426814E-03 0.20000976E+02</pdfrwt>
<pdfrwt beam="1">  1       -3 0.13583063E-01 0.20000976E+02</pdfrwt>
<totfact> 0.14556695E+06</totfact>
</mgrwt>
</event>
<event>
 5    1  0.4133473E-007  0.2000007E+02  0.7818608E-02  0.1745327E+00
          3   -1    0    0  501    0  0.00000000000E+00  0.00000000000E+00  0.92488758142E+01  0.92493433727E+01  0.93000000000E-01 0.  1.
         -3   -1    0    0    0  501 -0.00000000000E+00 -0.00000000000E+00 -0.10811261310E+02  0.10811661302E+02  0.93000000000E-01 0. -1.
       1023    2    1    2    0    0  0.00000000000E+00  0.00000000000E+00 -0.15623854959E+01  0.20061004675E+02  0.20000071503E+02 0.  0.
        -11    1    3    3    0    0 -0.74354716996E+00  0.99723518478E+01 -0.77402937638E+00  0.10029944442E+02  0.51100000000E-03 0.  1.
         11    1    3    3    0    0  0.74354716996E+00 -0.99723518478E+01 -0.78835611955E+00  0.10031060233E+02  0.51100000000E-03 0. -1.
<mgrwt>
<rscale>  0 0.20000072E+02</rscale>
<asrwt>0</asrwt>
<pdfrwt beam="1">  1        3 0.14229707E-02 0.20000072E+02</pdfrwt>
<pdfrwt beam="2">  1       -3 0.16633377E-02 0.20000072E+02</pdfrwt>
<totfact> 0.17881594E+06</totfact>
</mgrwt>
</event>
<event>
 5    1  0.4133473E-007  0.2000085E+02  0.7818608E-02  0.1745311E+00
          3   -1    0    0  501    0  0.00000000000E+00  0.00000000000E+00  0.16457144877E+01  0.16483401272E+01  0.93000000000E-01 0.  1.
         -3   -1    0    0    0  501 -0.00000000000E+00 -0.00000000000E+00 -0.60717957131E+02  0.60718028353E+02  0.93000000000E-01 0. -1.
       1023    2    1    2    0    0  0.00000000000E+00  0.00000000000E+00 -0.59072242643E+02  0.62366368481E+02  0.20000851647E+02 0.  0.
        -11    1    3    3    0    0  0.94667090021E+01 -0.32231745548E+01 -0.29433512414E+02  0.31085995028E+02  0.51100000000E-03 0.  1.
         11    1    3    3    0    0 -0.94667090021E+01  0.32231745548E+01 -0.29638730229E+02  0.31280373453E+02  0.51100000000E-03 0. -1.
<mgrwt>
<rscale>  0 0.20000852E+02</rscale>
<asrwt>0</asrwt>
<pdfrwt beam="1">  1        3 0.25339434E-03 0.20000852E+02</pdfrwt>
<pdfrwt beam="2">  1       -3 0.93414299E-02 0.20000852E+02</pdfrwt>
<totfact> 0.15640265E+06</totfact>
</mgrwt>
</event>
<event>
 5    1  0.4133473E-007  0.2000061E+02  0.7818608E-02  0.1745316E+00
          3   -1    0    0  501    0  0.00000000000E+00  0.00000000000E+00  0.29887394725E+02  0.29887539417E+02  0.93000000000E-01 0.  1.
         -3   -1    0    0    0  501 -0.00000000000E+00 -0.00000000000E+00 -0.33452958167E+01  0.33465882778E+01  0.93000000000E-01 0. -1.
       1023    2    1    2    0    0  0.00000000000E+00  0.00000000000E+00  0.26542098908E+02  0.33234127695E+02  0.20000605721E+02 0.  0.
        -11    1    3    3    0    0 -0.99489800199E+01  0.10115204993E+01  0.13314376525E+02  0.16651666573E+02  0.51100000000E-03 0.  1.
         11    1    3    3    0    0  0.99489800199E+01 -0.10115204993E+01  0.13227722383E+02  0.16582461122E+02  0.51100000000E-03 0. -1.
<mgrwt>
<rscale>  0 0.20000606E+02</rscale>
<asrwt>0</asrwt>
<pdfrwt beam="1">  1        3 0.45981714E-02 0.20000606E+02</pdfrwt>
<pdfrwt beam="2">  1       -3 0.51477144E-03 0.20000606E+02</pdfrwt>
<totfact> 0.17079656E+06</totfact>
</mgrwt>
</event>
<event>
 5    1  0.4254602E-007  0.2000135E+02  0.7818608E-02  0.1745301E+00
         -3   -1    0    0    0  501 -0.00000000000E+00  0.00000000000E+00  0.14020033376E+02  0.14020341824E+02  0.93000000000E-01 0. -1.
          3   -1    0    0  501    0  0.00000000000E+00 -0.00000000000E+00 -0.71329243995E+01  0.71335306468E+01  0.93000000000E-01 0.  1.
       1023    2    1    2    0    0  0.00000000000E+00  0.00000000000E+00  0.68871089766E+01  0.21153872471E+02  0.20001351216E+02 0.  0.
        -11    1    3    3    0    0 -0.66464865759E+01  0.74724255450E+01  0.34179734603E+01  0.10568607769E+02  0.51100000000E-03 0. -1.
         11    1    3    3    0    0  0.66464865759E+01 -0.74724255450E+01  0.34691355163E+01  0.10585264702E+02  0.51100000000E-03 0.  1.
<mgrwt>
<rscale>  0 0.20001351E+02</rscale>
<asrwt>0</asrwt>
<pdfrwt beam="2">  1        3 0.10974434E-02 0.20001351E+02</pdfrwt>
<pdfrwt beam="1">  1       -3 0.21569986E-02 0.20001351E+02</pdfrwt>
<totfact> 0.17808060E+06</totfact>
</mgrwt>
</event>
<event>
 5    1  0.4133473E-007  0.2000419E+02  0.7818608E-02  0.1745245E+00
          3   -1    0    0  501    0  0.00000000000E+00  0.00000000000E+00  0.12910100488E+02  0.12910435454E+02  0.93000000000E-01 0. -1.
         -3   -1    0    0    0  501 -0.00000000000E+00 -0.00000000000E+00 -0.77484022718E+01  0.77489603668E+01  0.93000000000E-01 0.  1.
       1023    2    1    2    0    0  0.00000000000E+00  0.00000000000E+00  0.51616982160E+01  0.20659395821E+02  0.20004187242E+02 0.  0.
        -11    1    3    3    0    0 -0.63567903913E+01  0.77215793334E+01  0.26856878767E+01  0.10355891614E+02  0.51100000000E-03 0. -1.
         11    1    3    3    0    0  0.63567903913E+01 -0.77215793334E+01  0.24760103393E+01  0.10303504207E+02  0.51100000000E-03 0.  1.
<mgrwt>
<rscale>  0 0.20004187E+02</rscale>
<asrwt>0</asrwt>
<pdfrwt beam="1">  1        3 0.19862380E-02 0.20004187E+02</pdfrwt>
<pdfrwt beam="2">  1       -3 0.11921306E-02 0.20004187E+02</pdfrwt>
<totfact> 0.17834282E+06</totfact>
</mgrwt>
</event>
<event>
 5    1  0.4133473E-007  0.2000602E+02  0.7818608E-02  0.1745208E+00
          3   -1    0    0  501    0  0.00000000000E+00  0.00000000000E+00  0.14689379749E+02  0.14689674142E+02  0.93000000000E-01 0.  1.
         -3   -1    0    0    0  501 -0.00000000000E+00 -0.00000000000E+00 -0.68110578967E+01  0.68116927905E+01  0.93000000000E-01 0. -1.
       1023    2    1    2    0    0  0.00000000000E+00  0.00000000000E+00  0.78783218519E+01  0.21501366933E+02  0.20006019713E+02 0.  0.
        -11    1    3    3    0    0 -0.98891885930E+01 -0.14973197920E+01  0.37790695958E+01  0.10692024357E+02  0.51100000000E-03 0.  1.
         11    1    3    3    0    0  0.98891885930E+01  0.14973197920E+01  0.40992522561E+01  0.10809342575E+02  0.51100000000E-03 0. -1.
<mgrwt>
<rscale>  0 0.20006020E+02</rscale>
<asrwt>0</asrwt>
<pdfrwt beam="1">  1        3 0.22599760E-02 0.20006020E+02</pdfrwt>
<pdfrwt beam="2">  1       -3 0.10479266E-02 0.20006020E+02</pdfrwt>
<totfact> 0.17776004E+06</totfact>
</mgrwt>
</event>
<event>
 5    1  0.4133473E-007  0.2000182E+02  0.7818608E-02  0.1745292E+00
          3   -1    0    0  501    0  0.00000000000E+00  0.00000000000E+00  0.13890912906E+01  0.13922009961E+01  0.93000000000E-01 0.  1.
         -3   -1    0    0    0  501 -0.00000000000E+00 -0.00000000000E+00 -0.71918976300E+02  0.71919036430E+02  0.93000000000E-01 0. -1.
       1023    2    1    2    0    0  0.00000000000E+00  0.00000000000E+00 -0.70529885009E+02  0.73311237426E+02  0.20001821255E+02 0.  0.
        -11    1    3    3    0    0  0.76889884319E+01  0.63941963776E+01 -0.35665152836E+02  0.37040645479E+02  0.51100000000E-03 0. -1.
         11    1    3    3    0    0 -0.76889884319E+01 -0.63941963776E+01 -0.34864732173E+02  0.36270591947E+02  0.51100000000E-03 0.  1.
<mgrwt>
<rscale>  0 0.20001821E+02</rscale>
<asrwt>0</asrwt>
<pdfrwt beam="1">  1        3 0.21395024E-03 0.20001821E+02</pdfrwt>
<pdfrwt beam="2">  1       -3 0.11064699E-01 0.20001821E+02</pdfrwt>
<totfact> 0.15177005E+06</totfact>
</mgrwt>
</event>
<event>
 5    1  0.4133473E-007  0.2000059E+02  0.7818608E-02  0.1745316E+00
          3   -1    0    0  501    0  0.00000000000E+00  0.00000000000E+00  0.10321220038E+01  0.10363034453E+01  0.93000000000E-01 0. -1.
         -3   -1    0    0    0  501 -0.00000000000E+00 -0.00000000000E+00 -0.96693382109E+02  0.96693426833E+02  0.93000000000E-01 0.  1.
       1023    2    1    2    0    0  0.00000000000E+00  0.00000000000E+00 -0.95661260105E+02  0.97729730278E+02  0.20000587375E+02 0.  0.
        -11    1    3    3    0    0 -0.69758209112E+01  0.71652639214E+01 -0.47572571721E+02  0.48612268666E+02  0.51100000000E-03 0.  1.
         11    1    3    3    0    0  0.69758209112E+01 -0.71652639214E+01 -0.48088688385E+02  0.49117461613E+02  0.51100000000E-03 0. -1.
<mgrwt>
<rscale>  0 0.20000587E+02</rscale>
<asrwt>0</asrwt>
<pdfrwt beam="1">  1        3 0.15911317E-03 0.20000587E+02</pdfrwt>
<pdfrwt beam="2">  1       -3 0.14876223E-01 0.20000587E+02</pdfrwt>
<totfact> 0.14259070E+06</totfact>
</mgrwt>
</event>
<event>
 5    1  0.4138275E-007  0.2000233E+02  0.7818608E-02  0.1745282E+00
          3   -1    0    0  501    0  0.00000000000E+00  0.00000000000E+00  0.37326435100E+01  0.37338018925E+01  0.93000000000E-01 0. -1.
         -3   -1    0    0    0  501 -0.00000000000E+00 -0.00000000000E+00 -0.26791522225E+02  0.26791683638E+02  0.93000000000E-01 0.  1.
       1023    2    1    2    0    0  0.00000000000E+00  0.00000000000E+00 -0.23058878715E+02  0.30525485530E+02  0.20002334345E+02 0.  0.
        -11    1    3    3    0    0  0.73799775734E+01  0.67495370785E+01 -0.11613371797E+02  0.15326145129E+02  0.51100000000E-03 0. -1.
         11    1    3    3    0    0 -0.73799775734E+01 -0.67495370785E+01 -0.11445506919E+02  0.15199340402E+02  0.51100000000E-03 0.  1.
<mgrwt>
<rscale>  0 0.20002334E+02</rscale>
<asrwt>0</asrwt>
<pdfrwt beam="1">  1        3 0.57435439E-03 0.20002334E+02</pdfrwt>
<pdfrwt beam="2">  1       -3 0.41218740E-02 0.20002334E+02</pdfrwt>
<totfact> 0.17233217E+06</totfact>
</mgrwt>
</event>
<event>
 5    1  0.4133473E-007  0.2000023E+02  0.7818608E-02  0.1745324E+00
         -3   -1    0    0    0  501 -0.00000000000E+00  0.00000000000E+00  0.10990835834E+01  0.11030112072E+01  0.93000000000E-01 0. -1.
          3   -1    0    0  501    0  0.00000000000E+00 -0.00000000000E+00 -0.90820726583E+02  0.90820774198E+02  0.93000000000E-01 0.  1.
       1023    2    1    2    0    0  0.00000000000E+00  0.00000000000E+00 -0.89721642999E+02  0.91923785405E+02  0.20000227519E+02 0.  0.
        -11    1    3    3    0    0 -0.56457610784E+01  0.82538871084E+01 -0.44715160395E+02  0.45819721081E+02  0.51100000000E-03 0.  1.
         11    1    3    3    0    0  0.56457610784E+01 -0.82538871084E+01 -0.45006482605E+02  0.46104064325E+02  0.51100000000E-03 0. -1.
<mgrwt>
<rscale>  0 0.20000228E+02</rscale>
<asrwt>0</asrwt>
<pdfrwt beam="2">  1        3 0.13972719E-01 0.20000228E+02</pdfrwt>
<pdfrwt beam="1">  1       -3 0.16939564E-03 0.20000228E+02</pdfrwt>
<totfact> 0.14463675E+06</totfact>
</mgrwt>
</event>
<event>
 5    1  0.4145734E-007  0.2000296E+02  0.7818608E-02  0.1745269E+00
         -3   -1    0    0    0  501 -0.00000000000E+00  0.00000000000E+00  0.99513190438E+01  0.99517535998E+01  0.93000000000E-01 0. -1.
          3   -1    0    0  501    0  0.00000000000E+00 -0.00000000000E+00 -0.10051022447E+02  0.10051452693E+02  0.93000000000E-01 0.  1.
       1023    2    1    2    0    0  0.00000000000E+00  0.00000000000E+00 -0.99703403367E-01  0.20003206292E+02  0.20002957812E+02 0.  0.
        -11    1    3    3    0    0  0.30822010961E+01  0.95146706555E+01 -0.75518371076E-01  0.10001731078E+02  0.51100000000E-03 0.  1.
         11    1    3    3    0    0 -0.30822010961E+01 -0.95146706555E+01 -0.24185032291E-01  0.10001475214E+02  0.51100000000E-03 0. -1.
<mgrwt>
<rscale>  0 0.20002958E+02</rscale>
<asrwt>0</asrwt>
<pdfrwt beam="2">  1        3 0.15463777E-02 0.20002958E+02</pdfrwt>
<pdfrwt beam="1">  1       -3 0.15310387E-02 0.20002958E+02</pdfrwt>
<totfact> 0.17879715E+06</totfact>
</mgrwt>
</event>
<event>
 5    1  0.4133473E-007  0.2000391E+02  0.7818608E-02  0.1745250E+00
         -3   -1    0    0    0  501 -0.00000000000E+00  0.00000000000E+00  0.50440855240E+01  0.50449427919E+01  0.93000000000E-01 0.  1.
          3   -1    0    0  501    0  0.00000000000E+00 -0.00000000000E+00 -0.19830309426E+02  0.19830527500E+02  0.93000000000E-01 0. -1.
       1023    2    1    2    0    0  0.00000000000E+00  0.00000000000E+00 -0.14786223902E+02  0.24875470292E+02  0.20003914741E+02 0.  0.
        -11    1    3    3    0    0  0.73282962253E+01 -0.68065573412E+01 -0.74894560693E+01  0.12495003036E+02  0.51100000000E-03 0. -1.
         11    1    3    3    0    0 -0.73282962253E+01  0.68065573412E+01 -0.72967678328E+01  0.12380467256E+02  0.51100000000E-03 0.  1.
<mgrwt>
<rscale>  0 0.20003915E+02</rscale>
<asrwt>0</asrwt>
<pdfrwt beam="2">  1        3 0.30508995E-02 0.20003915E+02</pdfrwt>
<pdfrwt beam="1">  1       -3 0.77609589E-03 0.20003915E+02</pdfrwt>
<totfact> 0.17566917E+06</totfact>
</mgrwt>
</event>
<event>
 5    1  0.4133473E-007  0.2001121E+02  0.7818608E-02  0.1745105E+00
          3   -1    0    0  501    0  0.00000000000E+00  0.00000000000E+00  0.36259444891E+02  0.36259564156E+02  0.93000000000E-01 0. -1.
         -3   -1    0    0    0  501 -0.00000000000E+00 -0.00000000000E+00 -0.27600876790E+01  0.27616540326E+01  0.93000000000E-01 0.  1.
       1023    2    1    2    0    0  0.00000000000E+00  0.00000000000E+00  0.33499357212E+02  0.39021218189E+02  0.20011210242E+02 0.  0.
        -11    1    3    3    0    0 -0.75160591367E+01  0.65990247505E+01  0.16219728522E+02  0.19055651818E+02  0.51100000000E-03 0.  1.
         11    1    3    3    0    0  0.75160591367E+01 -0.65990247505E+01  0.17279628690E+02  0.19965566371E+02  0.51100000000E-03 0. -1.
<mgrwt>
<rscale>  0 0.20011210E+02</rscale>
<asrwt>0</asrwt>
<pdfrwt beam="1">  1        3 0.55785054E-02 0.20011210E+02</pdfrwt>
<pdfrwt beam="2">  1       -3 0.42475857E-03 0.20011210E+02</pdfrwt>
<totfact> 0.16743509E+06</totfact>
</mgrwt>
</event>
<event>
 5    1  0.4234794E-007  0.2000079E+02  0.7818608E-02  0.1745312E+00
         -3   -1    0    0    0  501 -0.00000000000E+00  0.00000000000E+00  0.34578085514E+02  0.34578210578E+02  0.93000000000E-01 0. -1.
          3   -1    0    0  501    0  0.00000000000E+00 -0.00000000000E+00 -0.28913550547E+01  0.28928503336E+01  0.93000000000E-01 0.  1.
       1023    2    1    2    0    0  0.00000000000E+00  0.00000000000E+00  0.31686730459E+02  0.37471060912E+02  0.20000787951E+02 0.  0.
        -11    1    3    3    0    0  0.57075061416E+01  0.82113427459E+01  0.15697001508E+02  0.18611760600E+02  0.51100000000E-03 0.  1.
         11    1    3    3    0    0 -0.57075061416E+01 -0.82113427459E+01  0.15989728951E+02  0.18859300311E+02  0.51100000000E-03 0. -1.
<mgrwt>
<rscale>  0 0.20000788E+02</rscale>
<asrwt>0</asrwt>
<pdfrwt beam="2">  1        3 0.44494852E-03 0.20000788E+02</pdfrwt>
<pdfrwt beam="1">  1       -3 0.53198299E-02 0.20000788E+02</pdfrwt>
<totfact> 0.16847570E+06</totfact>
</mgrwt>
</event>
<event>
 5    1  0.4133473E-007  0.2000062E+02  0.7818608E-02  0.1745316E+00
          3   -1    0    0  501    0  0.00000000000E+00  0.00000000000E+00  0.11918277231E+01  0.11954506772E+01  0.93000000000E-01 0. -1.
         -3   -1    0    0    0  501 -0.00000000000E+00 -0.00000000000E+00 -0.83778959089E+02  0.83779010707E+02  0.93000000000E-01 0.  1.
       1023    2    1    2    0    0  0.00000000000E+00  0.00000000000E+00 -0.82587131366E+02  0.84974461384E+02  0.20000620497E+02 0.  0.
        -11    1    3    3    0    0  0.81548384296E+00  0.99668516884E+01 -0.41058609409E+02  0.42258875438E+02  0.51100000000E-03 0.  1.
         11    1    3    3    0    0 -0.81548384296E+00 -0.99668516884E+01 -0.41528521957E+02  0.42715585946E+02  0.51100000000E-03 0. -1.
<mgrwt>
<rscale>  0 0.20000620E+02</rscale>
<asrwt>0</asrwt>
<pdfrwt beam="1">  1        3 0.18364084E-03 0.20000620E+02</pdfrwt>
<pdfrwt beam="2">  1       -3 0.12889349E-01 0.20000620E+02</pdfrwt>
<totfact> 0.14722976E+06</totfact>
</mgrwt>
</event>
<event>
 5    1  0.4133473E-007  0.2000706E+02  0.7818608E-02  0.1745188E+00
          3   -1    0    0  501    0  0.00000000000E+00  0.00000000000E+00  0.27252945321E+01  0.27268808713E+01  0.93000000000E-01 0. -1.
         -3   -1    0    0    0  501 -0.00000000000E+00 -0.00000000000E+00 -0.36706856710E+02  0.36706974521E+02  0.93000000000E-01 0.  1.
       1023    2    1    2    0    0  0.00000000000E+00  0.00000000000E+00 -0.33981562177E+02  0.39433855392E+02  0.20007058332E+02 0.  0.
        -11    1    3    3    0    0 -0.13566327844E+01 -0.99103325644E+01 -0.16745778424E+02  0.19505800146E+02  0.51100000000E-03 0. -1.
         11    1    3    3    0    0  0.13566327844E+01  0.99103325644E+01 -0.17235783753E+02  0.19928055246E+02  0.51100000000E-03 0.  1.
<mgrwt>
<rscale>  0 0.20007058E+02</rscale>
<asrwt>0</asrwt>
<pdfrwt beam="1">  1        3 0.41940720E-03 0.20007058E+02</pdfrwt>
<pdfrwt beam="2">  1       -3 0.56473395E-02 0.20007058E+02</pdfrwt>
<totfact> 0.16731278E+06</totfact>
</mgrwt>
</event>
<event>
 5    1  0.4133473E-007  0.2000164E+02  0.7818608E-02  0.1745295E+00
          3   -1    0    0  501    0  0.00000000000E+00  0.00000000000E+00  0.36831576716E+02  0.36831694128E+02  0.93000000000E-01 0.  1.
         -3   -1    0    0    0  501 -0.00000000000E+00 -0.00000000000E+00 -0.27145885064E+01  0.27161810983E+01  0.93000000000E-01 0. -1.
       1023    2    1    2    0    0  0.00000000000E+00  0.00000000000E+00  0.34116988209E+02  0.39547875227E+02  0.20001638695E+02 0.  0.
        -11    1    3    3    0    0 -0.98520933856E+01  0.17181543560E+01  0.17010512662E+02  0.19732545192E+02  0.51100000000E-03 0.  1.
         11    1    3    3    0    0  0.98520933856E+01 -0.17181543560E+01  0.17106475547E+02  0.19815330035E+02  0.51100000000E-03 0. -1.
<mgrwt>
<rscale>  0 0.20001639E+02</rscale>
<asrwt>0</asrwt>
<pdfrwt beam="1">  1        3 0.56665277E-02 0.20001639E+02</pdfrwt>
<pdfrwt beam="2">  1       -3 0.41776056E-03 0.20001639E+02</pdfrwt>
<totfact> 0.16732771E+06</totfact>
</mgrwt>
</event>
<event>
 5    1  0.4133473E-007  0.2000019E+02  0.7818608E-02  0.1745324E+00
          3   -1    0    0  501    0  0.00000000000E+00  0.00000000000E+00  0.47208540853E+01  0.47217700384E+01  0.93000000000E-01 0.  1.
         -3   -1    0    0    0  501 -0.00000000000E+00 -0.00000000000E+00 -0.21179947617E+02  0.21180151795E+02  0.93000000000E-01 0. -1.
       1023    2    1    2    0    0  0.00000000000E+00  0.00000000000E+00 -0.16459093532E+02  0.25901921833E+02  0.20000194868E+02 0.  0.
        -11    1    3    3    0    0  0.93885718682E+01 -0.34431290751E+01 -0.82801857000E+01  0.12983138875E+02  0.51100000000E-03 0.  1.
         11    1    3    3    0    0 -0.93885718682E+01  0.34431290751E+01 -0.81789078316E+01  0.12918782959E+02  0.51100000000E-03 0. -1.
<mgrwt>
<rscale>  0 0.20000195E+02</rscale>
<asrwt>0</asrwt>
<pdfrwt beam="1">  1        3 0.72637142E-03 0.20000195E+02</pdfrwt>
<pdfrwt beam="2">  1       -3 0.32585396E-02 0.20000195E+02</pdfrwt>
<totfact> 0.17512094E+06</totfact>
</mgrwt>
</event>
<event>
 5    1  0.4153143E-007  0.2000165E+02  0.7818608E-02  0.1745295E+00
          3   -1    0    0  501    0  0.00000000000E+00  0.00000000000E+00  0.21804972172E+01  0.21824795793E+01  0.93000000000E-01 0.  1.
         -3   -1    0    0    0  501 -0.00000000000E+00 -0.00000000000E+00 -0.45845775629E+02  0.45845869956E+02  0.93000000000E-01 0. -1.
       1023    2    1    2    0    0  0.00000000000E+00  0.00000000000E+00 -0.43665278411E+02  0.48028349535E+02  0.20001645440E+02 0.  0.
        -11    1    3    3    0    0 -0.29121520072E+01  0.95666135998E+01 -0.22133795970E+02  0.24287973349E+02  0.51100000000E-03 0.  1.
         11    1    3    3    0    0  0.29121520072E+01 -0.95666135998E+01 -0.21531482441E+02  0.23740376186E+02  0.51100000000E-03 0. -1.
<mgrwt>
<rscale>  0 0.20001645E+02</rscale>
<asrwt>0</asrwt>
<pdfrwt beam="1">  1        3 0.33562089E-03 0.20001645E+02</pdfrwt>
<pdfrwt beam="2">  1       -3 0.70533553E-02 0.20001645E+02</pdfrwt>
<totfact> 0.16302823E+06</totfact>
</mgrwt>
</event>
<event>
 4    1  0.4133473E-007  0.2001691E+02  0.7818608E-02  0.1744992E+00
          3   -1    0    0  501    0  0.00000000000E+00  0.00000000000E+00  0.13079250031E+01  0.13112272166E+01  0.93000000000E-01 0.  1.
         -3   -1    0    0    0  501 -0.00000000000E+00 -0.00000000000E+00 -0.76486465135E+02  0.76486521675E+02  0.93000000000E-01 0. -1.
        -11    1    1    2    0    0 -0.81019969237E+01 -0.58714782953E+01 -0.36697913571E+02  0.38037527157E+02  0.51100000000E-03 0.  1.
         11    1    1    2    0    0  0.81019969237E+01  0.58714782953E+01 -0.38480626561E+02  0.39760221734E+02  0.51100000000E-03 0. -1.
<mgrwt>
<rscale>  0 0.20016914E+02</rscale>
<asrwt>0</asrwt>
<pdfrwt beam="1">  1        3 0.20147766E-03 0.20016914E+02</pdfrwt>
<pdfrwt beam="2">  1       -3 0.11767403E-01 0.20016914E+02</pdfrwt>
<totfact> 0.14973314E+06</totfact>
</mgrwt>
</event>
<event>
 5    1  0.4133473E-007  0.2000037E+02  0.7818608E-02  0.1745321E+00
          3   -1    0    0  501    0  0.00000000000E+00  0.00000000000E+00  0.18403063097E+01  0.18426546919E+01  0.93000000000E-01 0.  1.
         -3   -1    0    0    0  501 -0.00000000000E+00 -0.00000000000E+00 -0.54303755005E+02  0.54303834640E+02  0.93000000000E-01 0. -1.
       1023    2    1    2    0    0  0.00000000000E+00  0.00000000000E+00 -0.52463448695E+02  0.56146489332E+02  0.20000370380E+02 0.  0.
        -11    1    3    3    0    0 -0.59041597484E+01  0.80712184513E+01 -0.26248080527E+02  0.28088527930E+02  0.51100000000E-03 0.  1.
         11    1    3    3    0    0  0.59041597484E+01 -0.80712184513E+01 -0.26215368168E+02  0.28057961403E+02  0.51100000000E-03 0. -1.
<mgrwt>
<rscale>  0 0.20000370E+02</rscale>
<asrwt>0</asrwt>
<pdfrwt beam="1">  1        3 0.28331086E-03 0.20000370E+02</pdfrwt>
<pdfrwt beam="2">  1       -3 0.83546094E-02 0.20000370E+02</pdfrwt>
<totfact> 0.15919986E+06</totfact>
</mgrwt>
</event>
<event>
 4    1  0.4133473E-007  0.2002747E+02  0.7818608E-02  0.1744782E+00
          3   -1    0    0  501    0  0.00000000000E+00  0.00000000000E+00  0.55239610538E+02  0.55239688824E+02  0.93000000000E-01 0.  1.
         -3   -1    0    0    0  501 -0.00000000000E+00 -0.00000000000E+00 -0.18140009266E+01  0.18163833190E+01  0.93000000000E-01 0. -1.
        -11    1    1    2    0    0 -0.76957005166E+01 -0.63963226364E+01  0.25653908047E+02  0.27536516629E+02  0.51100000000E-03 0.  1.
         11    1    1    2    0    0  0.76957005166E+01  0.63963226364E+01  0.27771701564E+02  0.29519555514E+02  0.51100000000E-03 0. -1.
<mgrwt>
<rscale>  0 0.20027471E+02</rscale>
<asrwt>0</asrwt>
<pdfrwt beam="1">  1        3 0.84985913E-02 0.20027471E+02</pdfrwt>
<pdfrwt beam="2">  1       -3 0.27926633E-03 0.20027471E+02</pdfrwt>
<totfact> 0.15829572E+06</totfact>
</mgrwt>
</event>
<event>
 5    1  0.4133473E-007  0.2000022E+02  0.7818608E-02  0.1745324E+00
          3   -1    0    0  501    0  0.00000000000E+00  0.00000000000E+00  0.10278961772E+01  0.10320947394E+01  0.93000000000E-01 0. -1.
         -3   -1    0    0    0  501 -0.00000000000E+00 -0.00000000000E+00 -0.97085698757E+02  0.97085743300E+02  0.93000000000E-01 0.  1.
       1023    2    1    2    0    0  0.00000000000E+00  0.00000000000E+00 -0.96057802580E+02  0.98117838040E+02  0.20000217626E+02 0.  0.
        -11    1    3    3    0    0 -0.99412149973E+01 -0.10836731463E+01 -0.48070788383E+02  0.49099926672E+02  0.51100000000E-03 0. -1.
         11    1    3    3    0    0  0.99412149973E+01  0.10836731463E+01 -0.47987014197E+02  0.49017911368E+02  0.51100000000E-03 0.  1.
<mgrwt>
<rscale>  0 0.20000218E+02</rscale>
<asrwt>0</asrwt>
<pdfrwt beam="1">  1        3 0.15846434E-03 0.20000218E+02</pdfrwt>
<pdfrwt beam="2">  1       -3 0.14936580E-01 0.20000218E+02</pdfrwt>
<totfact> 0.14246043E+06</totfact>
</mgrwt>
</event>
<event>
 5    1  0.4133473E-007  0.2000004E+02  0.7818608E-02  0.1745327E+00
          3   -1    0    0  501    0  0.00000000000E+00  0.00000000000E+00  0.93290019889E+02  0.93290066245E+02  0.93000000000E-01 0.  1.
         -3   -1    0    0    0  501 -0.00000000000E+00 -0.00000000000E+00 -0.10698665329E+01  0.10739010188E+01  0.93000000000E-01 0. -1.
       1023    2    1    2    0    0  0.00000000000E+00  0.00000000000E+00  0.92220153357E+02  0.94363967264E+02  0.20000040816E+02 0.  0.
        -11    1    3    3    0    0 -0.16770995348E+01  0.98583803919E+01  0.46067588406E+02  0.47140460632E+02  0.51100000000E-03 0. -1.
         11    1    3    3    0    0  0.16770995348E+01 -0.98583803919E+01  0.46152564951E+02  0.47223506632E+02  0.51100000000E-03 0.  1.
<mgrwt>
<rscale>  0 0.20000041E+02</rscale>
<asrwt>0</asrwt>
<pdfrwt beam="1">  1        3 0.14352622E-01 0.20000041E+02</pdfrwt>
<pdfrwt beam="2">  1       -3 0.16490879E-03 0.20000041E+02</pdfrwt>
<totfact> 0.14376165E+06</totfact>
</mgrwt>
</event>
<event>
 4    1  0.4133473E-007  0.2001691E+02  0.7818608E-02  0.1744992E+00
          3   -1    0    0  501    0  0.00000000000E+00  0.00000000000E+00  0.10878088260E+03  0.10878092235E+03  0.93000000000E-01 0.  1.
         -3   -1    0    0    0  501 -0.00000000000E+00 -0.00000000000E+00 -0.91844604872E+00  0.92314253743E+00  0.93000000000E-01 0. -1.
        -11    1    1    2    0    0 -0.57178436165E+01 -0.82134309297E+01  0.54601893589E+02  0.55511448972E+02  0.51100000000E-03 0.  1.
         11    1    1    2    0    0  0.57178436165E+01  0.82134309297E+01  0.53260542960E+02  0.54192615916E+02  0.51100000000E-03 0. -1.
<mgrwt>
<rscale>  0 0.20016909E+02</rscale>
<asrwt>0</asrwt>
<pdfrwt beam="1">  1        3 0.16735881E-01 0.20016909E+02</pdfrwt>
<pdfrwt beam="2">  1       -3 0.14166375E-03 0.20016909E+02</pdfrwt>
<totfact> 0.13825614E+06</totfact>
</mgrwt>
</event>
<event>
 5    1  0.4150961E-007  0.2000042E+02  0.7818608E-02  0.1745320E+00
          3   -1    0    0  501    0  0.00000000000E+00  0.00000000000E+00  0.13670494207E+02  0.13670810542E+02  0.93000000000E-01 0. -1.
         -3   -1    0    0    0  501 -0.00000000000E+00 -0.00000000000E+00 -0.73146355817E+01  0.73152267697E+01  0.93000000000E-01 0.  1.
       1023    2    1    2    0    0  0.00000000000E+00  0.00000000000E+00  0.63558586256E+01  0.20986037312E+02  0.20000420575E+02 0.  0.
        -11    1    3    3    0    0 -0.91880758539E+01  0.39473944868E+01  0.31366938091E+01  0.10480530017E+02  0.51100000000E-03 0.  1.
         11    1    3    3    0    0  0.91880758539E+01 -0.39473944868E+01  0.32191648165E+01  0.10505507294E+02  0.51100000000E-03 0. -1.
<mgrwt>
<rscale>  0 0.20000421E+02</rscale>
<asrwt>0</asrwt>
<pdfrwt beam="1">  1        3 0.21032228E-02 0.20000421E+02</pdfrwt>
<pdfrwt beam="2">  1       -3 0.11253984E-02 0.20000421E+02</pdfrwt>
<totfact> 0.17820174E+06</totfact>
</mgrwt>
</event>
<event>
 5    1  0.4365614E-007  0.2000061E+02  0.7818608E-02  0.1745316E+00
          3   -1    0    0  501    0  0.00000000000E+00  0.00000000000E+00  0.10772013507E+02  0.10772414957E+02  0.93000000000E-01 0.  1.
         -3   -1    0    0    0  501 -0.00000000000E+00 -0.00000000000E+00 -0.92830770912E+01  0.92835429272E+01  0.93000000000E-01 0. -1.
       1023    2    1    2    0    0  0.00000000000E+00  0.00000000000E+00  0.14889364161E+01  0.20055957884E+02  0.20000612866E+02 0.  0.
        -11    1    3    3    0    0 -0.78856920040E+01  0.61498154038E+01  0.78654388934E+00  0.10031102603E+02  0.51100000000E-03 0.  1.
         11    1    3    3    0    0  0.78856920040E+01 -0.61498154038E+01  0.70239252678E+00  0.10024855281E+02  0.51100000000E-03 0. -1.
<mgrwt>
<rscale>  0 0.20000613E+02</rscale>
<asrwt>0</asrwt>
<pdfrwt beam="1">  1        3 0.16572996E-02 0.20000613E+02</pdfrwt>
<pdfrwt beam="2">  1       -3 0.14282324E-02 0.20000613E+02</pdfrwt>
<totfact> 0.17880743E+06</totfact>
</mgrwt>
</event>
<event>
 5    1  0.4133473E-007  0.2000033E+02  0.7818608E-02  0.1745322E+00
          3   -1    0    0  501    0  0.00000000000E+00  0.00000000000E+00  0.15966877863E+01  0.15993939124E+01  0.93000000000E-01 0. -1.
         -3   -1    0    0    0  501 -0.00000000000E+00 -0.00000000000E+00 -0.62575929312E+02  0.62575998420E+02  0.93000000000E-01 0.  1.
       1023    2    1    2    0    0  0.00000000000E+00  0.00000000000E+00 -0.60979241525E+02  0.64175392332E+02  0.20000327097E+02 0.  0.
        -11    1    3    3    0    0 -0.65346322295E+01 -0.75697817554E+01 -0.30438227986E+02  0.32038862923E+02  0.51100000000E-03 0. -1.
         11    1    3    3    0    0  0.65346322295E+01  0.75697817554E+01 -0.30541013539E+02  0.32136529409E+02  0.51100000000E-03 0.  1.
<mgrwt>
<rscale>  0 0.20000327E+02</rscale>
<asrwt>0</asrwt>
<pdfrwt beam="1">  1        3 0.24585780E-03 0.20000327E+02</pdfrwt>
<pdfrwt beam="2">  1       -3 0.96272776E-02 0.20000327E+02</pdfrwt>
<totfact> 0.15562329E+06</totfact>
</mgrwt>
</event>
<event>
 5    1  0.4133473E-007  0.2000033E+02  0.7818608E-02  0.1745322E+00
          3   -1    0    0  501    0  0.00000000000E+00  0.00000000000E+00  0.60981681067E+01  0.60988772128E+01  0.93000000000E-01 0.  1.
         -3   -1    0    0    0  501 -0.00000000000E+00 -0.00000000000E+00 -0.16397111399E+02  0.16397375132E+02  0.93000000000E-01 0. -1.
       1023    2    1    2    0    0  0.00000000000E+00  0.00000000000E+00 -0.10298943292E+02  0.22496252345E+02  0.20000328413E+02 0.  0.
        -11    1    3    3    0    0  0.93221691042E+01  0.36192907858E+01 -0.51108124425E+01  0.11230427716E+02  0.51100000000E-03 0.  1.
         11    1    3    3    0    0 -0.93221691042E+01 -0.36192907858E+01 -0.51881308498E+01  0.11265824629E+02  0.51100000000E-03 0. -1.
<mgrwt>
<rscale>  0 0.20000328E+02</rscale>
<asrwt>0</asrwt>
<pdfrwt beam="1">  1        3 0.93825455E-03 0.20000328E+02</pdfrwt>
<pdfrwt beam="2">  1       -3 0.25227073E-02 0.20000328E+02</pdfrwt>
<totfact> 0.17723976E+06</totfact>
</mgrwt>
</event>
<event>
 5    1  0.4133473E-007  0.2000049E+02  0.7818608E-02  0.1745318E+00
          3   -1    0    0  501    0  0.00000000000E+00  0.00000000000E+00  0.11474067356E+03  0.11474071125E+03  0.93000000000E-01 0.  1.
         -3   -1    0    0    0  501 -0.00000000000E+00 -0.00000000000E+00 -0.86905439348E+00  0.87401632640E+00  0.93000000000E-01 0. -1.
       1023    2    1    2    0    0  0.00000000000E+00  0.00000000000E+00  0.11387161917E+03  0.11561472757E+03  0.20000489514E+02 0.  0.
        -11    1    3    3    0    0 -0.34216194567E+01 -0.93966553419E+01  0.57033160386E+02  0.57903246846E+02  0.51100000000E-03 0.  1.
         11    1    3    3    0    0  0.34216194567E+01  0.93966553419E+01  0.56838458779E+02  0.57711480729E+02  0.51100000000E-03 0. -1.
<mgrwt>
<rscale>  0 0.20000490E+02</rscale>
<asrwt>0</asrwt>
<pdfrwt beam="1">  1        3 0.17652786E-01 0.20000490E+02</pdfrwt>
<pdfrwt beam="2">  1       -3 0.13408534E-03 0.20000490E+02</pdfrwt>
<totfact> 0.13658634E+06</totfact>
</mgrwt>
</event>
<event>
 5    1  0.4133473E-007  0.2000486E+02  0.7818608E-02  0.1745231E+00
         -3   -1    0    0    0  501 -0.00000000000E+00  0.00000000000E+00  0.81253790564E+02  0.81253843786E+02  0.93000000000E-01 0. -1.
          3   -1    0    0  501    0  0.00000000000E+00 -0.00000000000E+00 -0.12295000249E+01  0.12330122916E+01  0.93000000000E-01 0.  1.
       1023    2    1    2    0    0  0.00000000000E+00  0.00000000000E+00  0.80024290539E+02  0.82486856078E+02  0.20004858142E+02 0.  0.
        -11    1    3    3    0    0  0.54552847914E+01 -0.83838065068E+01  0.40076469734E+02  0.41305832158E+02  0.51100000000E-03 0. -1.
         11    1    3    3    0    0 -0.54552847914E+01  0.83838065068E+01  0.39947820806E+02  0.41181023920E+02  0.51100000000E-03 0.  1.
<mgrwt>
<rscale>  0 0.20004858E+02</rscale>
<asrwt>0</asrwt>
<pdfrwt beam="2">  1        3 0.18942813E-03 0.20004858E+02</pdfrwt>
<pdfrwt beam="1">  1       -3 0.12500857E-01 0.20004858E+02</pdfrwt>
<totfact> 0.14810698E+06</totfact>
</mgrwt>
</event>
<event>
 4    1  0.4133473E-007  0.2001443E+02  0.7818608E-02  0.1745041E+00
          3   -1    0    0  501    0  0.00000000000E+00  0.00000000000E+00  0.55738043047E+01  0.55745801122E+01  0.93000000000E-01 0. -1.
         -3   -1    0    0    0  501 -0.00000000000E+00 -0.00000000000E+00 -0.17964825226E+02  0.17965065945E+02  0.93000000000E-01 0.  1.
        -11    1    1    2    0    0 -0.59783830278E+01  0.80237077184E+01 -0.60154628239E+01  0.11675047855E+02  0.51100000000E-03 0. -1.
         11    1    1    2    0    0  0.59783830278E+01 -0.80237077184E+01 -0.63755580978E+01  0.11864598202E+02  0.51100000000E-03 0.  1.
<mgrwt>
<rscale>  0 0.20014433E+02</rscale>
<asrwt>0</asrwt>
<pdfrwt beam="1">  1        3 0.85758656E-03 0.20014433E+02</pdfrwt>
<pdfrwt beam="2">  1       -3 0.27638974E-02 0.20014433E+02</pdfrwt>
<totfact> 0.17631289E+06</totfact>
</mgrwt>
</event>
<event>
 5    1  0.4133473E-007  0.2000092E+02  0.7818608E-02  0.1745310E+00
          3   -1    0    0  501    0  0.00000000000E+00  0.00000000000E+00  0.15065576376E+01  0.15094253594E+01  0.93000000000E-01 0.  1.
         -3   -1    0    0    0  501 -0.00000000000E+00 -0.00000000000E+00 -0.66316549193E+02  0.66316614403E+02  0.93000000000E-01 0. -1.
       1023    2    1    2    0    0  0.00000000000E+00  0.00000000000E+00 -0.64809991555E+02  0.67826039762E+02  0.20000916590E+02 0.  0.
        -11    1    3    3    0    0  0.99613234127E+01  0.88313662518E+00 -0.32284077993E+02  0.33797478997E+02  0.51100000000E-03 0. -1.
         11    1    3    3    0    0 -0.99613234127E+01 -0.88313662518E+00 -0.32525913562E+02  0.34028560765E+02  0.51100000000E-03 0.  1.
<mgrwt>
<rscale>  0 0.20000917E+02</rscale>
<asrwt>0</asrwt>
<pdfrwt beam="1">  1        3 0.23200376E-03 0.20000917E+02</pdfrwt>
<pdfrwt beam="2">  1       -3 0.10202769E-01 0.20000917E+02</pdfrwt>
<totfact> 0.15405406E+06</totfact>
</mgrwt>
</event>
<event>
 5    1  0.4239463E-007  0.2000088E+02  0.7818608E-02  0.1745311E+00
         -3   -1    0    0    0  501 -0.00000000000E+00  0.00000000000E+00  0.63702448715E+01  0.63709236946E+01  0.93000000000E-01 0. -1.
          3   -1    0    0  501    0  0.00000000000E+00 -0.00000000000E+00 -0.15697708735E+02  0.15697984218E+02  0.93000000000E-01 0.  1.
       1023    2    1    2    0    0  0.00000000000E+00  0.00000000000E+00 -0.93274638630E+01  0.22068907913E+02  0.20000877839E+02 0.  0.
        -11    1    3    3    0    0 -0.44638245299E+01  0.89489113496E+01 -0.46702175170E+01  0.11037195101E+02  0.51100000000E-03 0.  1.
         11    1    3    3    0    0  0.44638245299E+01 -0.89489113496E+01 -0.46572463460E+01  0.11031712812E+02  0.51100000000E-03 0. -1.
<mgrwt>
<rscale>  0 0.20000878E+02</rscale>
<asrwt>0</asrwt>
<pdfrwt beam="2">  1        3 0.24151055E-02 0.20000878E+02</pdfrwt>
<pdfrwt beam="1">  1       -3 0.98011108E-03 0.20000878E+02</pdfrwt>
<totfact> 0.17749355E+06</totfact>
</mgrwt>
</event>
<event>
 5    1  0.4133473E-007  0.2000688E+02  0.7818608E-02  0.1745191E+00
          3   -1    0    0  501    0  0.00000000000E+00  0.00000000000E+00  0.10030490771E+03  0.10030495082E+03  0.93000000000E-01 0.  1.
         -3   -1    0    0    0  501 -0.00000000000E+00 -0.00000000000E+00 -0.99543525793E+00  0.99977014995E+00  0.93000000000E-01 0. -1.
       1023    2    1    2    0    0  0.00000000000E+00  0.00000000000E+00  0.99309472453E+02  0.10130472097E+03  0.20006878138E+02 0.  0.
        -11    1    3    3    0    0  0.58054666683E+01  0.81464901524E+01  0.49619690833E+02  0.50618005331E+02  0.51100000000E-03 0.  1.
         11    1    3    3    0    0 -0.58054666683E+01 -0.81464901524E+01  0.49689781620E+02  0.50686715644E+02  0.51100000000E-03 0. -1.
<mgrwt>
<rscale>  0 0.20006878E+02</rscale>
<asrwt>0</asrwt>
<pdfrwt beam="1">  1        3 0.15431860E-01 0.20006878E+02</pdfrwt>
<pdfrwt beam="2">  1       -3 0.15348067E-03 0.20006878E+02</pdfrwt>
<totfact> 0.14122597E+06</totfact>
</mgrwt>
</event>
<event>
 5    1  0.4148876E-007  0.2000163E+02  0.7818608E-02  0.1745296E+00
         -3   -1    0    0    0  501 -0.00000000000E+00  0.00000000000E+00  0.24537529456E+01  0.24555147155E+01  0.93000000000E-01 0.  1.
          3   -1    0    0  501    0  0.00000000000E+00 -0.00000000000E+00 -0.40744098522E+02  0.40744204660E+02  0.93000000000E-01 0. -1.
       1023    2    1    2    0    0  0.00000000000E+00  0.00000000000E+00 -0.38290345577E+02  0.43199719375E+02  0.20001629677E+02 0.  0.
        -11    1    3    3    0    0 -0.99317744735E+01 -0.11664038866E+01 -0.19415407723E+02  0.21839384138E+02  0.51100000000E-03 0.  1.
         11    1    3    3    0    0  0.99317744735E+01  0.11664038866E+01 -0.18874937853E+02  0.21360335237E+02  0.51100000000E-03 0. -1.
<mgrwt>
<rscale>  0 0.20001630E+02</rscale>
<asrwt>0</asrwt>
<pdfrwt beam="2">  1        3 0.62684660E-02 0.20001630E+02</pdfrwt>
<pdfrwt beam="1">  1       -3 0.37764417E-03 0.20001630E+02</pdfrwt>
<totfact> 0.16542618E+06</totfact>
</mgrwt>
</event>
<event>
 5    1  0.4133473E-007  0.2000063E+02  0.7818608E-02  0.1745316E+00
         -3   -1    0    0    0  501 -0.00000000000E+00  0.00000000000E+00  0.11001115851E+01  0.11040355518E+01  0.93000000000E-01 0. -1.
          3   -1    0    0  501    0  0.00000000000E+00 -0.00000000000E+00 -0.90739800782E+02  0.90739848441E+02  0.93000000000E-01 0.  1.
       1023    2    1    2    0    0  0.00000000000E+00  0.00000000000E+00 -0.89639689197E+02  0.91843883992E+02  0.20000628676E+02 0.  0.
        -11    1    3    3    0    0  0.85605474559E+01  0.51689465734E+01 -0.44485375241E+02  0.45595499690E+02  0.51100000000E-03 0.  1.
         11    1    3    3    0    0 -0.85605474559E+01 -0.51689465734E+01 -0.45154313957E+02  0.46248384302E+02  0.51100000000E-03 0. -1.
<mgrwt>
<rscale>  0 0.20000629E+02</rscale>
<asrwt>0</asrwt>
<pdfrwt beam="2">  1        3 0.13960269E-01 0.20000629E+02</pdfrwt>
<pdfrwt beam="1">  1       -3 0.16955352E-03 0.20000629E+02</pdfrwt>
<totfact> 0.14465948E+06</totfact>
</mgrwt>
</event>
<event>
 4    1  0.4133473E-007  0.2003549E+02  0.7818608E-02  0.1744623E+00
          3   -1    0    0  501    0  0.00000000000E+00  0.00000000000E+00  0.23984790996E+01  0.24002814400E+01  0.93000000000E-01 0.  1.
         -3   -1    0    0    0  501 -0.00000000000E+00 -0.00000000000E+00 -0.41823612976E+02  0.41823716374E+02  0.93000000000E-01 0. -1.
        -11    1    1    2    0    0 -0.19482810998E+00  0.10015591290E+02 -0.19553807593E+02  0.21970466962E+02  0.51100000000E-03 0. -1.
         11    1    1    2    0    0  0.19482810998E+00 -0.10015591290E+02 -0.19871326283E+02  0.22253530852E+02  0.51100000000E-03 0.  1.
<mgrwt>
<rscale>  0 0.20035489E+02</rscale>
<asrwt>0</asrwt>
<pdfrwt beam="1">  1        3 0.36914341E-03 0.20035489E+02</pdfrwt>
<pdfrwt beam="2">  1       -3 0.64345480E-02 0.20035489E+02</pdfrwt>
<totfact> 0.16432882E+06</totfact>
</mgrwt>
</event>
<event>
 5    1  0.4167576E-007  0.2000173E+02  0.7818608E-02  0.1745294E+00
          3   -1    0    0  501    0  0.00000000000E+00  0.00000000000E+00  0.42865788886E+01  0.42875876164E+01  0.93000000000E-01 0.  1.
         -3   -1    0    0    0  501 -0.00000000000E+00 -0.00000000000E+00 -0.23328828074E+02  0.23329013445E+02  0.93000000000E-01 0. -1.
       1023    2    1    2    0    0  0.00000000000E+00  0.00000000000E+00 -0.19042249186E+02  0.27616601061E+02  0.20001734928E+02 0.  0.
        -11    1    3    3    0    0 -0.82933081922E+01 -0.55887487534E+01 -0.94308344385E+01  0.13746043499E+02  0.51100000000E-03 0. -1.
         11    1    3    3    0    0  0.82933081922E+01  0.55887487534E+01 -0.96114147471E+01  0.13870557563E+02  0.51100000000E-03 0.  1.
<mgrwt>
<rscale>  0 0.20001735E+02</rscale>
<asrwt>0</asrwt>
<pdfrwt beam="1">  1        3 0.65956554E-03 0.20001735E+02</pdfrwt>
<pdfrwt beam="2">  1       -3 0.35891423E-02 0.20001735E+02</pdfrwt>
<totfact> 0.17405627E+06</totfact>
</mgrwt>
</event>
<event>
 5    1  0.4178944E-007  0.2000081E+02  0.7818608E-02  0.1745312E+00
         -3   -1    0    0    0  501 -0.00000000000E+00  0.00000000000E+00  0.24415772051E+02  0.24415949170E+02  0.93000000000E-01 0.  1.
          3   -1    0    0  501    0  0.00000000000E+00 -0.00000000000E+00 -0.40953239327E+01  0.40963797570E+01  0.93000000000E-01 0. -1.
       1023    2    1    2    0    0  0.00000000000E+00  0.00000000000E+00  0.20320448118E+02  0.28512328927E+02  0.20000807211E+02 0.  0.
        -11    1    3    3    0    0 -0.87078792550E+01 -0.49173434768E+01  0.10196401296E+02  0.14281947614E+02  0.51100000000E-03 0. -1.
         11    1    3    3    0    0  0.87078792550E+01  0.49173434768E+01  0.10124046822E+02  0.14230381313E+02  0.51100000000E-03 0.  1.
<mgrwt>
<rscale>  0 0.20000807E+02</rscale>
<asrwt>0</asrwt>
<pdfrwt beam="2">  1        3 0.63014468E-03 0.20000807E+02</pdfrwt>
<pdfrwt beam="1">  1       -3 0.37563674E-02 0.20000807E+02</pdfrwt>
<totfact> 0.17353992E+06</totfact>
</mgrwt>
</event>
<event>
 5    1  0.4133473E-007  0.2000014E+02  0.7818608E-02  0.1745325E+00
         -3   -1    0    0    0  501 -0.00000000000E+00  0.00000000000E+00  0.21797087727E+02  0.21797286124E+02  0.93000000000E-01 0.  1.
          3   -1    0    0  501    0  0.00000000000E+00 -0.00000000000E+00 -0.45871441231E+01  0.45880867697E+01  0.93000000000E-01 0. -1.
       1023    2    1    2    0    0  0.00000000000E+00  0.00000000000E+00  0.17209943604E+02  0.26385372894E+02  0.20000143597E+02 0.  0.
        -11    1    3    3    0    0 -0.85235064398E+01  0.52298293246E+01  0.85883407445E+01  0.13181838787E+02  0.51100000000E-03 0.  1.
         11    1    3    3    0    0  0.85235064398E+01 -0.52298293246E+01  0.86216028595E+01  0.13203534107E+02  0.51100000000E-03 0. -1.
<mgrwt>
<rscale>  0 0.20000144E+02</rscale>
<asrwt>0</asrwt>
<pdfrwt beam="2">  1        3 0.70580225E-03 0.20000144E+02</pdfrwt>
<pdfrwt beam="1">  1       -3 0.33534859E-02 0.20000144E+02</pdfrwt>
<totfact> 0.17482766E+06</totfact>
</mgrwt>
</event>
<event>
 5    1  0.4133473E-007  0.2000282E+02  0.7818608E-02  0.1745272E+00
          3   -1    0    0  501    0  0.00000000000E+00  0.00000000000E+00  0.16284355464E+02  0.16284621024E+02  0.93000000000E-01 0.  1.
         -3   -1    0    0    0  501 -0.00000000000E+00 -0.00000000000E+00 -0.61419269913E+01  0.61426310460E+01  0.93000000000E-01 0. -1.
       1023    2    1    2    0    0  0.00000000000E+00  0.00000000000E+00  0.10142428473E+02  0.22427252070E+02  0.20002819303E+02 0.  0.
        -11    1    3    3    0    0 -0.76997543911E+00  0.99709400306E+01  0.52116447557E+01  0.11277133882E+02  0.51100000000E-03 0. -1.
         11    1    3    3    0    0  0.76997543911E+00 -0.99709400306E+01  0.49307837170E+01  0.11150118188E+02  0.51100000000E-03 0.  1.
<mgrwt>
<rscale>  0 0.20002819E+02</rscale>
<asrwt>0</asrwt>
<pdfrwt beam="1">  1        3 0.25053600E-02 0.20002819E+02</pdfrwt>
<pdfrwt beam="2">  1       -3 0.94498644E-03 0.20002819E+02</pdfrwt>
<totfact> 0.17722751E+06</totfact>
</mgrwt>
</event>
<event>
 4    1  0.4133473E-007  0.2004008E+02  0.7818608E-02  0.1744532E+00
          3   -1    0    0  501    0  0.00000000000E+00  0.00000000000E+00  0.61065017041E+01  0.61072098426E+01  0.93000000000E-01 0. -1.
         -3   -1    0    0    0  501 -0.00000000000E+00 -0.00000000000E+00 -0.16439902893E+02  0.16440165940E+02  0.93000000000E-01 0.  1.
        -11    1    1    2    0    0  0.92214631773E+01  0.38956312912E+01 -0.56570193237E+01  0.11498399636E+02  0.51100000000E-03 0. -1.
         11    1    1    2    0    0 -0.92214631773E+01 -0.38956312912E+01 -0.46763818651E+01  0.11048976147E+02  0.51100000000E-03 0.  1.
<mgrwt>
<rscale>  0 0.20040084E+02</rscale>
<asrwt>0</asrwt>
<pdfrwt beam="1">  1        3 0.93953651E-03 0.20040084E+02</pdfrwt>
<pdfrwt beam="2">  1       -3 0.25292905E-02 0.20040084E+02</pdfrwt>
<totfact> 0.17645076E+06</totfact>
</mgrwt>
</event>
<event>
 5    1  0.4133473E-007  0.2000661E+02  0.7818608E-02  0.1745197E+00
         -3   -1    0    0    0  501 -0.00000000000E+00  0.00000000000E+00  0.24339024754E+01  0.24356786035E+01  0.93000000000E-01 0. -1.
          3   -1    0    0  501    0  0.00000000000E+00 -0.00000000000E+00 -0.41096632735E+02  0.41096737963E+02  0.93000000000E-01 0.  1.
       1023    2    1    2    0    0  0.00000000000E+00  0.00000000000E+00 -0.38662730260E+02  0.43532416566E+02  0.20006613430E+02 0.  0.
        -11    1    3    3    0    0 -0.80835371331E+01 -0.58909174512E+01 -0.19026242177E+02  0.21495217436E+02  0.51100000000E-03 0.  1.
         11    1    3    3    0    0  0.80835371331E+01  0.58909174512E+01 -0.19636488083E+02  0.22037199130E+02  0.51100000000E-03 0. -1.
<mgrwt>
<rscale>  0 0.20006613E+02</rscale>
<asrwt>0</asrwt>
<pdfrwt beam="2">  1        3 0.63227031E-02 0.20006613E+02</pdfrwt>
<pdfrwt beam="1">  1       -3 0.37459128E-03 0.20006613E+02</pdfrwt>
<totfact> 0.16516736E+06</totfact>
</mgrwt>
</event>
<event>
 5    1  0.4133473E-007  0.2000019E+02  0.7818608E-02  0.1745324E+00
         -3   -1    0    0    0  501 -0.00000000000E+00  0.00000000000E+00  0.21569876817E+02  0.21570077304E+02  0.93000000000E-01 0. -1.
          3   -1    0    0  501    0  0.00000000000E+00 -0.00000000000E+00 -0.46354933345E+01  0.46364261511E+01  0.93000000000E-01 0.  1.
       1023    2    1    2    0    0  0.00000000000E+00  0.00000000000E+00  0.16934383482E+02  0.26206503455E+02  0.20000186984E+02 0.  0.
        -11    1    3    3    0    0 -0.98996749898E+01  0.14133980864E+01  0.84348151885E+01  0.13082330319E+02  0.51100000000E-03 0. -1.
         11    1    3    3    0    0  0.98996749898E+01 -0.14133980864E+01  0.84995682938E+01  0.13124173136E+02  0.51100000000E-03 0.  1.
<mgrwt>
<rscale>  0 0.20000187E+02</rscale>
<asrwt>0</asrwt>
<pdfrwt beam="2">  1        3 0.71324000E-03 0.20000187E+02</pdfrwt>
<pdfrwt beam="1">  1       -3 0.33185298E-02 0.20000187E+02</pdfrwt>
<totfact> 0.17493550E+06</totfact>
</mgrwt>
</event>
<event>
 5    1  0.4133473E-007  0.2000040E+02  0.7818608E-02  0.1745320E+00
          3   -1    0    0  501    0  0.00000000000E+00  0.00000000000E+00  0.27049405009E+02  0.27049564882E+02  0.93000000000E-01 0.  1.
         -3   -1    0    0    0  501 -0.00000000000E+00 -0.00000000000E+00 -0.36963300431E+01  0.36974998023E+01  0.93000000000E-01 0. -1.
       1023    2    1    2    0    0  0.00000000000E+00  0.00000000000E+00  0.23353074966E+02  0.30747064685E+02  0.20000396905E+02 0.  0.
        -11    1    3    3    0    0  0.74401858659E+01  0.66816880810E+01  0.11597436257E+02  0.15313453213E+02  0.51100000000E-03 0. -1.
         11    1    3    3    0    0 -0.74401858659E+01 -0.66816880810E+01  0.11755638709E+02  0.15433611471E+02  0.51100000000E-03 0.  1.
<mgrwt>
<rscale>  0 0.20000397E+02</rscale>
<asrwt>0</asrwt>
<pdfrwt beam="1">  1        3 0.41615493E-02 0.20000397E+02</pdfrwt>
<pdfrwt beam="2">  1       -3 0.56876843E-03 0.20000397E+02</pdfrwt>
<totfact> 0.17222258E+06</totfact>
</mgrwt>
</event>
<event>
 5    1  0.4133473E-007  0.2000069E+02  0.7818608E-02  0.1745314E+00
         -3   -1    0    0    0  501 -0.00000000000E+00  0.00000000000E+00  0.86138783280E+02  0.86138833484E+02  0.93000000000E-01 0. -1.
          3   -1    0    0  501    0  0.00000000000E+00 -0.00000000000E+00 -0.11590841104E+01  0.11628090879E+01  0.93000000000E-01 0.  1.
       1023    2    1    2    0    0  0.00000000000E+00  0.00000000000E+00  0.84979699170E+02  0.87301642572E+02  0.20000688107E+02 0.  0.
        -11    1    3    3    0    0 -0.82398983867E+01 -0.56661971080E+01  0.42176125444E+02  0.43345441200E+02  0.51100000000E-03 0. -1.
         11    1    3    3    0    0  0.82398983867E+01  0.56661971080E+01  0.42803573726E+02  0.43956201373E+02  0.51100000000E-03 0.  1.
<mgrwt>
<rscale>  0 0.20000688E+02</rscale>
<asrwt>0</asrwt>
<pdfrwt beam="2">  1        3 0.17861103E-03 0.20000688E+02</pdfrwt>
<pdfrwt beam="1">  1       -3 0.13252411E-01 0.20000688E+02</pdfrwt>
<totfact> 0.14635624E+06</totfact>
</mgrwt>
</event>
<event>
 4    1  0.4133473E-007  0.2001338E+02  0.7818608E-02  0.1745062E+00
         -3   -1    0    0    0  501 -0.00000000000E+00  0.00000000000E+00  0.14470593057E+01  0.14500447008E+01  0.93000000000E-01 0.  1.
          3   -1    0    0  501    0  0.00000000000E+00 -0.00000000000E+00 -0.69123852982E+02  0.69123915544E+02  0.93000000000E-01 0. -1.
        -11    1    1    2    0    0 -0.92736753444E+01 -0.37472134047E+01 -0.34903342984E+02  0.36308208637E+02  0.51100000000E-03 0. -1.
         11    1    1    2    0    0  0.92736753444E+01  0.37472134047E+01 -0.32773450692E+02  0.34265751608E+02  0.51100000000E-03 0.  1.
<mgrwt>
<rscale>  0 0.20013382E+02</rscale>
<asrwt>0</asrwt>
<pdfrwt beam="2">  1        3 0.10634671E-01 0.20013382E+02</pdfrwt>
<pdfrwt beam="1">  1       -3 0.22285902E-03 0.20013382E+02</pdfrwt>
<totfact> 0.15267328E+06</totfact>
</mgrwt>
</event>
<event>
 5    1  0.4133473E-007  0.2000013E+02  0.7818608E-02  0.1745326E+00
          3   -1    0    0  501    0  0.00000000000E+00  0.00000000000E+00  0.11851971146E+03  0.11851974795E+03  0.93000000000E-01 0.  1.
         -3   -1    0    0    0  501 -0.00000000000E+00 -0.00000000000E+00 -0.84115295652E+00  0.84627849805E+00  0.93000000000E-01 0. -1.
       1023    2    1    2    0    0  0.00000000000E+00  0.00000000000E+00  0.11767855851E+03  0.11936602645E+03  0.20000128449E+02 0.  0.
        -11    1    3    3    0    0 -0.44488680016E+00  0.99901629132E+01  0.58852537347E+02  0.59696083889E+02  0.51100000000E-03 0.  1.
         11    1    3    3    0    0  0.44488680016E+00 -0.99901629132E+01  0.58826021160E+02  0.59669942560E+02  0.51100000000E-03 0. -1.
<mgrwt>
<rscale>  0 0.20000128E+02</rscale>
<asrwt>0</asrwt>
<pdfrwt beam="1">  1        3 0.18234187E-01 0.20000128E+02</pdfrwt>
<pdfrwt beam="2">  1       -3 0.12980531E-03 0.20000128E+02</pdfrwt>
<totfact> 0.13540662E+06</totfact>
</mgrwt>
</event>
<event>
 5    1  0.4133473E-007  0.2000143E+02  0.7818608E-02  0.1745300E+00
          3   -1    0    0  501    0  0.00000000000E+00  0.00000000000E+00  0.17503929325E+01  0.17528617795E+01  0.93000000000E-01 0. -1.
         -3   -1    0    0    0  501 -0.00000000000E+00 -0.00000000000E+00 -0.57095402431E+02  0.57095478173E+02  0.93000000000E-01 0.  1.
       1023    2    1    2    0    0  0.00000000000E+00  0.00000000000E+00 -0.55345009499E+02  0.58848339952E+02  0.20001425918E+02 0.  0.
        -11    1    3    3    0    0  0.68778030241E+01  0.72599637133E+01 -0.27511035001E+02  0.29272312765E+02  0.51100000000E-03 0.  1.
         11    1    3    3    0    0 -0.68778030241E+01 -0.72599637133E+01 -0.27833974498E+02  0.29576027187E+02  0.51100000000E-03 0. -1.
<mgrwt>
<rscale>  0 0.20001426E+02</rscale>
<asrwt>0</asrwt>
<pdfrwt beam="1">  1        3 0.26948700E-03 0.20001426E+02</pdfrwt>
<pdfrwt beam="2">  1       -3 0.87841024E-02 0.20001426E+02</pdfrwt>
<totfact> 0.15795540E+06</totfact>
</mgrwt>
</event>
<event>
 5    1  0.4203739E-007  0.2000092E+02  0.7818608E-02  0.1745310E+00
          3   -1    0    0  501    0  0.00000000000E+00  0.00000000000E+00  0.60509608540E+01  0.60516754917E+01  0.93000000000E-01 0. -1.
         -3   -1    0    0    0  501 -0.00000000000E+00 -0.00000000000E+00 -0.16525991775E+02  0.16526253451E+02  0.93000000000E-01 0.  1.
       1023    2    1    2    0    0  0.00000000000E+00  0.00000000000E+00 -0.10475030921E+02  0.22577928943E+02  0.20000915043E+02 0.  0.
        -11    1    3    3    0    0 -0.88547261901E+01 -0.46471607017E+01 -0.53310931633E+01  0.11332379850E+02  0.51100000000E-03 0. -1.
         11    1    3    3    0    0  0.88547261901E+01  0.46471607017E+01 -0.51439377572E+01  0.11245549093E+02  0.51100000000E-03 0.  1.
<mgrwt>
<rscale>  0 0.20000915E+02</rscale>
<asrwt>0</asrwt>
<pdfrwt beam="1">  1        3 0.93099216E-03 0.20000915E+02</pdfrwt>
<pdfrwt beam="2">  1       -3 0.25425353E-02 0.20000915E+02</pdfrwt>
<totfact> 0.17717663E+06</totfact>
</mgrwt>
</event>
<event>
 5    1  0.4133473E-007  0.2000059E+02  0.7818608E-02  0.1745316E+00
         -3   -1    0    0    0  501 -0.00000000000E+00  0.00000000000E+00  0.33801830572E+02  0.33801958509E+02  0.93000000000E-01 0.  1.
          3   -1    0    0  501    0  0.00000000000E+00 -0.00000000000E+00 -0.29577286543E+01  0.29591903947E+01  0.93000000000E-01 0. -1.
       1023    2    1    2    0    0  0.00000000000E+00  0.00000000000E+00  0.30844101918E+02  0.36761148904E+02  0.20000586131E+02 0.  0.
        -11    1    3    3    0    0 -0.35899220362E+01  0.93336839933E+01  0.15374688129E+02  0.18340835107E+02  0.51100000000E-03 0.  1.
         11    1    3    3    0    0  0.35899220362E+01 -0.93336839933E+01  0.15469413789E+02  0.18420313796E+02  0.51100000000E-03 0. -1.
<mgrwt>
<rscale>  0 0.20000586E+02</rscale>
<asrwt>0</asrwt>
<pdfrwt beam="2">  1        3 0.45515747E-03 0.20000586E+02</pdfrwt>
<pdfrwt beam="1">  1       -3 0.52004038E-02 0.20000586E+02</pdfrwt>
<totfact> 0.16886420E+06</totfact>
</mgrwt>
</event>
<event>
 5    1  0.4133473E-007  0.2000091E+02  0.7818608E-02  0.1745310E+00
          3   -1    0    0  501    0  0.00000000000E+00  0.00000000000E+00  0.46285369481E+02  0.46285462912E+02  0.93000000000E-01 0.  1.
         -3   -1    0    0    0  501 -0.00000000000E+00 -0.00000000000E+00 -0.21596091571E+01  0.21616106753E+01  0.93000000000E-01 0. -1.
       1023    2    1    2    0    0  0.00000000000E+00  0.00000000000E+00  0.44125760324E+02  0.48447073588E+02  0.20000905355E+02 0.  0.
        -11    1    3    3    0    0 -0.43066636592E+01  0.90254357977E+01  0.22200122984E+02  0.24348538025E+02  0.51100000000E-03 0.  1.
         11    1    3    3    0    0  0.43066636592E+01 -0.90254357977E+01  0.21925637340E+02  0.24098535562E+02  0.51100000000E-03 0. -1.
<mgrwt>
<rscale>  0 0.20000905E+02</rscale>
<asrwt>0</asrwt>
<pdfrwt beam="1">  1        3 0.71209865E-02 0.20000905E+02</pdfrwt>
<pdfrwt beam="2">  1       -3 0.33240875E-03 0.20000905E+02</pdfrwt>
<totfact> 0.16281083E+06</totfact>
</mgrwt>
</event>
<event>
 5    1  0.4133473E-007  0.2000052E+02  0.7818608E-02  0.1745318E+00
         -3   -1    0    0    0  501 -0.00000000000E+00  0.00000000000E+00  0.29887226942E+02  0.29887371636E+02  0.93000000000E-01 0. -1.
          3   -1    0    0  501    0  0.00000000000E+00 -0.00000000000E+00 -0.33452857969E+01  0.33465782619E+01  0.93000000000E-01 0.  1.
       1023    2    1    2    0    0  0.00000000000E+00  0.00000000000E+00  0.26541941145E+02  0.33233949898E+02  0.20000519644E+02 0.  0.
        -11    1    3    3    0    0 -0.89718883681E+01  0.44169386184E+01  0.13325289145E+02  0.16660355900E+02  0.51100000000E-03 0. -1.
         11    1    3    3    0    0  0.89718883681E+01 -0.44169386184E+01  0.13216652000E+02  0.16573593998E+02  0.51100000000E-03 0.  1.
<mgrwt>
<rscale>  0 0.20000520E+02</rscale>
<asrwt>0</asrwt>
<pdfrwt beam="2">  1        3 0.51476992E-03 0.20000520E+02</pdfrwt>
<pdfrwt beam="1">  1       -3 0.45981453E-02 0.20000520E+02</pdfrwt>
<totfact> 0.17081721E+06</totfact>
</mgrwt>
</event>
<event>
 5    1  0.4133473E-007  0.2000071E+02  0.7818608E-02  0.1745314E+00
          3   -1    0    0  501    0  0.00000000000E+00  0.00000000000E+00  0.93843251626E+02  0.93843297708E+02  0.93000000000E-01 0.  1.
         -3   -1    0    0    0  501 -0.00000000000E+00 -0.00000000000E+00 -0.10636069704E+01  0.10676651102E+01  0.93000000000E-01 0. -1.
       1023    2    1    2    0    0  0.00000000000E+00  0.00000000000E+00  0.92779644656E+02  0.94910962818E+02  0.20000710004E+02 0.  0.
        -11    1    3    3    0    0  0.89475812454E+01  0.44661966006E+01  0.46241443493E+02  0.47310434566E+02  0.51100000000E-03 0.  1.
         11    1    3    3    0    0 -0.89475812454E+01 -0.44661966006E+01  0.46538201163E+02  0.47600528253E+02  0.51100000000E-03 0. -1.
<mgrwt>
<rscale>  0 0.20000710E+02</rscale>
<asrwt>0</asrwt>
<pdfrwt beam="1">  1        3 0.14437739E-01 0.20000710E+02</pdfrwt>
<pdfrwt beam="2">  1       -3 0.16394755E-03 0.20000710E+02</pdfrwt>
<totfact> 0.14355620E+06</totfact>
</mgrwt>
</event>
<event>
 5    1  0.4133473E-007  0.2000087E+02  0.7818608E-02  0.1745311E+00
         -3   -1    0    0    0  501 -0.00000000000E+00  0.00000000000E+00  0.16393031981E+01  0.16419390900E+01  0.93000000000E-01 0.  1.
          3   -1    0    0  501    0  0.00000000000E+00 -0.00000000000E+00 -0.60955154190E+02  0.60955225135E+02  0.93000000000E-01 0. -1.
       1023    2    1    2    0    0  0.00000000000E+00  0.00000000000E+00 -0.59315850992E+02  0.62597164225E+02  0.20000869736E+02 0.  0.
        -11    1    3    3    0    0 -0.71410225291E+01 -0.70008590628E+01 -0.29502478586E+02  0.31151283655E+02  0.51100000000E-03 0.  1.
         11    1    3    3    0    0  0.71410225291E+01  0.70008590628E+01 -0.29813372406E+02  0.31445880570E+02  0.51100000000E-03 0. -1.
<mgrwt>
<rscale>  0 0.20000870E+02</rscale>
<asrwt>0</asrwt>
<pdfrwt beam="2">  1        3 0.93779225E-02 0.20000870E+02</pdfrwt>
<pdfrwt beam="1">  1       -3 0.25240876E-03 0.20000870E+02</pdfrwt>
<totfact> 0.15627319E+06</totfact>
</mgrwt>
</event>
<event>
 5    1  0.4253899E-007  0.2000113E+02  0.7818608E-02  0.1745306E+00
          3   -1    0    0  501    0  0.00000000000E+00  0.00000000000E+00  0.32307383818E+02  0.32307517673E+02  0.93000000000E-01 0. -1.
         -3   -1    0    0    0  501 -0.00000000000E+00 -0.00000000000E+00 -0.30947793737E+01  0.30961764116E+01  0.93000000000E-01 0.  1.
       1023    2    1    2    0    0  0.00000000000E+00  0.00000000000E+00  0.29212604445E+02  0.35403694084E+02  0.20001132378E+02 0.  0.
        -11    1    3    3    0    0  0.64001196920E+01 -0.76839549185E+01  0.14462188913E+02  0.17582935013E+02  0.51100000000E-03 0. -1.
         11    1    3    3    0    0 -0.64001196920E+01  0.76839549185E+01  0.14750415532E+02  0.17820759071E+02  0.51100000000E-03 0.  1.
<mgrwt>
<rscale>  0 0.20001132E+02</rscale>
<asrwt>0</asrwt>
<pdfrwt beam="1">  1        3 0.49704844E-02 0.20001132E+02</pdfrwt>
<pdfrwt beam="2">  1       -3 0.47623768E-03 0.20001132E+02</pdfrwt>
<totfact> 0.16957673E+06</totfact>
</mgrwt>
</event>
<event>
 5    1  0.4133473E-007  0.2000021E+02  0.7818608E-02  0.1745324E+00
         -3   -1    0    0    0  501 -0.00000000000E+00  0.00000000000E+00  0.13689476374E+01  0.13721029968E+01  0.93000000000E-01 0.  1.
          3   -1    0    0  501    0  0.00000000000E+00 -0.00000000000E+00 -0.72963071763E+02  0.72963131033E+02  0.93000000000E-01 0. -1.
       1023    2    1    2    0    0  0.00000000000E+00  0.00000000000E+00 -0.71594124126E+02  0.74335234030E+02  0.20000210222E+02 0.  0.
        -11    1    3    3    0    0  0.77393905998E+01 -0.63326206414E+01 -0.35637159946E+02  0.37013611285E+02  0.51100000000E-03 0. -1.
         11    1    3    3    0    0 -0.77393905998E+01  0.63326206414E+01 -0.35956964180E+02  0.37321622745E+02  0.51100000000E-03 0.  1.
<mgrwt>
<rscale>  0 0.20000210E+02</rscale>
<asrwt>0</asrwt>
<pdfrwt beam="2">  1        3 0.11225332E-01 0.20000210E+02</pdfrwt>
<pdfrwt beam="1">  1       -3 0.21085467E-03 0.20000210E+02</pdfrwt>
<totfact> 0.15135305E+06</totfact>
</mgrwt>
</event>
<event>
 5    1  0.4133473E-007  0.2000052E+02  0.7818608E-02  0.1745318E+00
         -3   -1    0    0    0  501 -0.00000000000E+00  0.00000000000E+00  0.11048177594E+03  0.11048181508E+03  0.93000000000E-01 0. -1.
          3   -1    0    0  501    0  0.00000000000E+00 -0.00000000000E+00 -0.90274540278E+00  0.90752314694E+00  0.93000000000E-01 0.  1.
       1023    2    1    2    0    0  0.00000000000E+00  0.00000000000E+00  0.10957903054E+03  0.11138933823E+03  0.20000518434E+02 0.  0.
        -11    1    3    3    0    0 -0.16699465608E+01 -0.98598362665E+01  0.54842769343E+02  0.55747057700E+02  0.51100000000E-03 0. -1.
         11    1    3    3    0    0  0.16699465608E+01  0.98598362665E+01  0.54736261194E+02  0.55642280529E+02  0.51100000000E-03 0.  1.
<mgrwt>
<rscale>  0 0.20000518E+02</rscale>
<asrwt>0</asrwt>
<pdfrwt beam="2">  1        3 0.13925455E-03 0.20000518E+02</pdfrwt>
<pdfrwt beam="1">  1       -3 0.16997553E-01 0.20000518E+02</pdfrwt>
<totfact> 0.13797514E+06</totfact>
</mgrwt>
</event>
<event>
 5    1  0.4133473E-007  0.2000335E+02  0.7818608E-02  0.1745261E+00
          3   -1    0    0  501    0  0.00000000000E+00  0.00000000000E+00  0.15984779502E+01  0.16011810507E+01  0.93000000000E-01 0. -1.
         -3   -1    0    0    0  501 -0.00000000000E+00 -0.00000000000E+00 -0.62524857069E+02  0.62524926234E+02  0.93000000000E-01 0.  1.
       1023    2    1    2    0    0  0.00000000000E+00  0.00000000000E+00 -0.60926379119E+02  0.64126107284E+02  0.20003348792E+02 0.  0.
        -11    1    3    3    0    0  0.12897732411E+01 -0.99165860409E+01 -0.29896060720E+02  0.31524223076E+02  0.51100000000E-03 0. -1.
         11    1    3    3    0    0 -0.12897732411E+01  0.99165860409E+01 -0.31030318399E+02  0.32601884209E+02  0.51100000000E-03 0.  1.
<mgrwt>
<rscale>  0 0.20003349E+02</rscale>
<asrwt>0</asrwt>
<pdfrwt beam="1">  1        3 0.24613298E-03 0.20003349E+02</pdfrwt>
<pdfrwt beam="2">  1       -3 0.96194201E-02 0.20003349E+02</pdfrwt>
<totfact> 0.15559413E+06</totfact>
</mgrwt>
</event>
<event>
 5    1  0.4133473E-007  0.2000324E+02  0.7818608E-02  0.1745264E+00
          3   -1    0    0  501    0  0.00000000000E+00  0.00000000000E+00  0.91185866256E+02  0.91185913681E+02  0.93000000000E-01 0. -1.
         -3   -1    0    0    0  501 -0.00000000000E+00 -0.00000000000E+00 -0.10949979453E+01  0.10989401714E+01  0.93000000000E-01 0.  1.
       1023    2    1    2    0    0  0.00000000000E+00  0.00000000000E+00  0.90090868311E+02  0.92284853853E+02  0.20003242177E+02 0.  0.
        -11    1    3    3    0    0 -0.93640444527E+01 -0.35126754064E+01  0.45463385193E+02  0.46550441572E+02  0.51100000000E-03 0. -1.
         11    1    3    3    0    0  0.93640444527E+01  0.35126754064E+01  0.44627483117E+02  0.45734412281E+02  0.51100000000E-03 0.  1.
<mgrwt>
<rscale>  0 0.20003242E+02</rscale>
<asrwt>0</asrwt>
<pdfrwt beam="1">  1        3 0.14028901E-01 0.20003242E+02</pdfrwt>
<pdfrwt beam="2">  1       -3 0.16876813E-03 0.20003242E+02</pdfrwt>
<totfact> 0.14445930E+06</totfact>
</mgrwt>
</event>
<event>
 5    1  0.4133473E-007  0.2000220E+02  0.7818608E-02  0.1745284E+00
          3   -1    0    0  501    0  0.00000000000E+00  0.00000000000E+00  0.87591951022E+00  0.88084277166E+00  0.93000000000E-01 0.  1.
         -3   -1    0    0    0  501 -0.00000000000E+00 -0.00000000000E+00 -0.11386589361E+03  0.11386593159E+03  0.93000000000E-01 0. -1.
       1023    2    1    2    0    0  0.00000000000E+00  0.00000000000E+00 -0.11298997410E+03  0.11474677436E+03  0.20002199356E+02 0.  0.
        -11    1    3    3    0    0 -0.25262066937E+01  0.96767058896E+01 -0.56262853825E+02  0.57144807970E+02  0.51100000000E-03 0. -1.
         11    1    3    3    0    0  0.25262066937E+01 -0.96767058896E+01 -0.56727120277E+02  0.57601966393E+02  0.51100000000E-03 0.  1.
<mgrwt>
<rscale>  0 0.20002199E+02</rscale>
<asrwt>0</asrwt>
<pdfrwt beam="1">  1        3 0.13513857E-03 0.20002199E+02</pdfrwt>
<pdfrwt beam="2">  1       -3 0.17518200E-01 0.20002199E+02</pdfrwt>
<totfact> 0.13686544E+06</totfact>
</mgrwt>
</event>
<event>
 5    1  0.4133473E-007  0.2000017E+02  0.7818608E-02  0.1745325E+00
         -3   -1    0    0    0  501 -0.00000000000E+00  0.00000000000E+00  0.22162589502E+02  0.22162784627E+02  0.93000000000E-01 0. -1.
          3   -1    0    0  501    0  0.00000000000E+00 -0.00000000000E+00 -0.45114921251E+01  0.45124505754E+01  0.93000000000E-01 0.  1.
       1023    2    1    2    0    0  0.00000000000E+00  0.00000000000E+00  0.17651097377E+02  0.26675235203E+02  0.20000173362E+02 0.  0.
        -11    1    3    3    0    0  0.31806845560E+01 -0.94806909928E+01  0.87742830148E+01  0.13303694924E+02  0.51100000000E-03 0.  1.
         11    1    3    3    0    0 -0.31806845560E+01  0.94806909928E+01  0.88768143623E+01  0.13371540279E+02  0.51100000000E-03 0. -1.
<mgrwt>
<rscale>  0 0.20000173E+02</rscale>
<asrwt>0</asrwt>
<pdfrwt beam="2">  1        3 0.69416444E-03 0.20000173E+02</pdfrwt>
<pdfrwt beam="1">  1       -3 0.34097179E-02 0.20000173E+02</pdfrwt>
<totfact> 0.17465152E+06</totfact>
</mgrwt>
</event>
<event>
 5    1  0.4133473E-007  0.2000002E+02  0.7818608E-02  0.1745328E+00
          3   -1    0    0  501    0  0.00000000000E+00  0.00000000000E+00  0.27151306827E+02  0.27151466101E+02  0.93000000000E-01 0. -1.
         -3   -1    0    0    0  501 -0.00000000000E+00 -0.00000000000E+00 -0.36823153372E+01  0.36834895469E+01  0.93000000000E-01 0.  1.
       1023    2    1    2    0    0  0.00000000000E+00  0.00000000000E+00  0.23468991490E+02  0.30834955648E+02  0.20000023206E+02 0.  0.
        -11    1    3    3    0    0 -0.69392146170E+01  0.72005218962E+01  0.11740799978E+02  0.15422276079E+02  0.51100000000E-03 0.  1.
         11    1    3    3    0    0  0.69392146170E+01 -0.72005218962E+01  0.11728191512E+02  0.15412679568E+02  0.51100000000E-03 0. -1.
<mgrwt>
<rscale>  0 0.20000023E+02</rscale>
<asrwt>0</asrwt>
<pdfrwt beam="1">  1        3 0.41772266E-02 0.20000023E+02</pdfrwt>
<pdfrwt beam="2">  1       -3 0.56661265E-03 0.20000023E+02</pdfrwt>
<totfact> 0.17217868E+06</totfact>
</mgrwt>
</event>
<event>
 5    1  0.4133473E-007  0.2000385E+02  0.7818608E-02  0.1745252E+00
          3   -1    0    0  501    0  0.00000000000E+00  0.00000000000E+00  0.28076527014E+01  0.28091925337E+01  0.93000000000E-01 0.  1.
         -3   -1    0    0    0  501 -0.00000000000E+00 -0.00000000000E+00 -0.35619285860E+02  0.35619407269E+02  0.93000000000E-01 0. -1.
       1023    2    1    2    0    0  0.00000000000E+00  0.00000000000E+00 -0.32811633158E+02  0.38428599802E+02  0.20003849935E+02 0.  0.
        -11    1    3    3    0    0 -0.91251678444E+01 -0.40916369411E+01 -0.16082520059E+02  0.18938258441E+02  0.51100000000E-03 0. -1.
         11    1    3    3    0    0  0.91251678444E+01  0.40916369411E+01 -0.16729113099E+02  0.19490341362E+02  0.51100000000E-03 0.  1.
<mgrwt>
<rscale>  0 0.20003850E+02</rscale>
<asrwt>0</asrwt>
<pdfrwt beam="1">  1        3 0.43207438E-03 0.20003850E+02</pdfrwt>
<pdfrwt beam="2">  1       -3 0.54800176E-02 0.20003850E+02</pdfrwt>
<totfact> 0.16790557E+06</totfact>
</mgrwt>
</event>
<event>
 5    1  0.4171689E-007  0.2000193E+02  0.7818608E-02  0.1745290E+00
          3   -1    0    0  501    0  0.00000000000E+00  0.00000000000E+00  0.22223981420E+02  0.22224176006E+02  0.93000000000E-01 0. -1.
         -3   -1    0    0    0  501 -0.00000000000E+00 -0.00000000000E+00 -0.44998191166E+01  0.45007800526E+01  0.93000000000E-01 0.  1.
       1023    2    1    2    0    0  0.00000000000E+00  0.00000000000E+00  0.17724162303E+02  0.26724956058E+02  0.20001933581E+02 0.  0.
        -11    1    3    3    0    0  0.98773974277E+01 -0.15668998754E+01  0.89080040021E+01  0.13392934358E+02  0.51100000000E-03 0. -1.
         11    1    3    3    0    0 -0.98773974277E+01  0.15668998754E+01  0.88161583008E+01  0.13332021700E+02  0.51100000000E-03 0.  1.
<mgrwt>
<rscale>  0 0.20001934E+02</rscale>
<asrwt>0</asrwt>
<pdfrwt beam="1">  1        3 0.34191630E-02 0.20001934E+02</pdfrwt>
<pdfrwt beam="2">  1       -3 0.69236875E-03 0.20001934E+02</pdfrwt>
<totfact> 0.17457435E+06</totfact>
</mgrwt>
</event>
<event>
 5    1  0.4133473E-007  0.2000050E+02  0.7818608E-02  0.1745318E+00
          3   -1    0    0  501    0  0.00000000000E+00  0.00000000000E+00  0.14772430394E+01  0.14801675573E+01  0.93000000000E-01 0.  1.
         -3   -1    0    0    0  501 -0.00000000000E+00 -0.00000000000E+00 -0.67627146674E+02  0.67627210620E+02  0.93000000000E-01 0. -1.
       1023    2    1    2    0    0  0.00000000000E+00  0.00000000000E+00 -0.66149903634E+02  0.69107378177E+02  0.20000499186E+02 0.  0.
        -11    1    3    3    0    0 -0.95106993258E+01 -0.30905510159E+01 -0.33106698091E+02  0.34584076770E+02  0.51100000000E-03 0. -1.
         11    1    3    3    0    0  0.95106993258E+01  0.30905510159E+01 -0.33043205543E+02  0.34523301407E+02  0.51100000000E-03 0.  1.
<mgrwt>
<rscale>  0 0.20000499E+02</rscale>
<asrwt>0</asrwt>
<pdfrwt beam="1">  1        3 0.22749809E-03 0.20000499E+02</pdfrwt>
<pdfrwt beam="2">  1       -3 0.10404404E-01 0.20000499E+02</pdfrwt>
<totfact> 0.15352311E+06</totfact>
</mgrwt>
</event>
<event>
 5    1  0.4160104E-007  0.2000102E+02  0.7818608E-02  0.1745308E+00
         -3   -1    0    0    0  501 -0.00000000000E+00  0.00000000000E+00  0.24923101403E+01  0.24940446739E+01  0.93000000000E-01 0.  1.
          3   -1    0    0  501    0  0.00000000000E+00 -0.00000000000E+00 -0.40111758558E+02  0.40111866369E+02  0.93000000000E-01 0. -1.
       1023    2    1    2    0    0  0.00000000000E+00  0.00000000000E+00 -0.37619448417E+02  0.42605911043E+02  0.20001018888E+02 0.  0.
        -11    1    3    3    0    0 -0.43325979347E+01  0.90127774712E+01 -0.19007571105E+02  0.21477647036E+02  0.51100000000E-03 0. -1.
         11    1    3    3    0    0  0.43325979347E+01 -0.90127774712E+01 -0.18611877312E+02  0.21128264007E+02  0.51100000000E-03 0.  1.
<mgrwt>
<rscale>  0 0.20001019E+02</rscale>
<asrwt>0</asrwt>
<pdfrwt beam="2">  1        3 0.61711810E-02 0.20001019E+02</pdfrwt>
<pdfrwt beam="1">  1       -3 0.38357408E-03 0.20001019E+02</pdfrwt>
<totfact> 0.16574244E+06</totfact>
</mgrwt>
</event>
<event>
 5    1  0.4133473E-007  0.2000025E+02  0.7818608E-02  0.1745323E+00
         -3   -1    0    0    0  501 -0.00000000000E+00  0.00000000000E+00  0.82720371440E+02  0.82720423718E+02  0.93000000000E-01 0.  1.
          3   -1    0    0  501    0  0.00000000000E+00 -0.00000000000E+00 -0.12070811952E+01  0.12106585034E+01  0.93000000000E-01 0. -1.
       1023    2    1    2    0    0  0.00000000000E+00  0.00000000000E+00  0.81513290244E+02  0.83931082222E+02  0.20000251908E+02 0.  0.
        -11    1    3    3    0    0  0.79916037434E+01 -0.60112875003E+01  0.40902683174E+02  0.42107372263E+02  0.51100000000E-03 0.  1.
         11    1    3    3    0    0 -0.79916037434E+01  0.60112875003E+01  0.40610607070E+02  0.41823709959E+02  0.51100000000E-03 0. -1.
<mgrwt>
<rscale>  0 0.20000252E+02</rscale>
<asrwt>0</asrwt>
<pdfrwt beam="2">  1        3 0.18598391E-03 0.20000252E+02</pdfrwt>
<pdfrwt beam="1">  1       -3 0.12726496E-01 0.20000252E+02</pdfrwt>
<totfact> 0.14763003E+06</totfact>
</mgrwt>
</event>
<event>
 5    1  0.4141344E-007  0.2000213E+02  0.7818608E-02  0.1745286E+00
          3   -1    0    0  501    0  0.00000000000E+00  0.00000000000E+00  0.69428548030E+02  0.69428610317E+02  0.93000000000E-01 0. -1.
         -3   -1    0    0    0  501 -0.00000000000E+00 -0.00000000000E+00 -0.14390727292E+01  0.14420746582E+01  0.93000000000E-01 0.  1.
       1023    2    1    2    0    0  0.00000000000E+00  0.00000000000E+00  0.67989475301E+02  0.70870684975E+02  0.20002130816E+02 0.  0.
        -11    1    3    3    0    0 -0.64034239830E+01 -0.76810414934E+01  0.33505423955E+02  0.34965921578E+02  0.51100000000E-03 0. -1.
         11    1    3    3    0    0  0.64034239830E+01  0.76810414934E+01  0.34484051346E+02  0.35904763397E+02  0.51100000000E-03 0.  1.
<mgrwt>
<rscale>  0 0.20002131E+02</rscale>
<asrwt>0</asrwt>
<pdfrwt beam="1">  1        3 0.10681550E-01 0.20002131E+02</pdfrwt>
<pdfrwt beam="2">  1       -3 0.22163154E-03 0.20002131E+02</pdfrwt>
<totfact> 0.15273515E+06</totfact>
</mgrwt>
</event>
<event>
 5    1  0.4197275E-007  0.2000282E+02  0.7818608E-02  0.1745272E+00
         -3   -1    0    0    0  501 -0.00000000000E+00  0.00000000000E+00  0.15322691261E+02  0.15322973487E+02  0.93000000000E-01 0. -1.
          3   -1    0    0  501    0  0.00000000000E+00 -0.00000000000E+00 -0.65274353112E+01  0.65280977889E+01  0.93000000000E-01 0.  1.
       1023    2    1    2    0    0  0.00000000000E+00  0.00000000000E+00  0.87952559495E+01  0.21851071276E+02  0.20002819518E+02 0.  0.
        -11    1    3    3    0    0  0.93716396064E+01  0.34893771511E+01  0.45697115617E+01  0.10994800855E+02  0.51100000000E-03 0. -1.
         11    1    3    3    0    0 -0.93716396064E+01 -0.34893771511E+01  0.42255443878E+01  0.10856270421E+02  0.51100000000E-03 0.  1.
<mgrwt>
<rscale>  0 0.20002820E+02</rscale>
<asrwt>0</asrwt>
<pdfrwt beam="2">  1        3 0.10042935E-02 0.20002820E+02</pdfrwt>
<pdfrwt beam="1">  1       -3 0.23574098E-02 0.20002820E+02</pdfrwt>
<totfact> 0.17760365E+06</totfact>
</mgrwt>
</event>
<event>
 5    1  0.4354562E-007  0.2000117E+02  0.7818608E-02  0.1745305E+00
          3   -1    0    0  501    0  0.00000000000E+00  0.00000000000E+00  0.15704224736E+02  0.15704500105E+02  0.93000000000E-01 0. -1.
         -3   -1    0    0    0  501 -0.00000000000E+00 -0.00000000000E+00 -0.63677859633E+01  0.63684650485E+01  0.93000000000E-01 0.  1.
       1023    2    1    2    0    0  0.00000000000E+00  0.00000000000E+00  0.93364387726E+01  0.22072965154E+02  0.20001167509E+02 0.  0.
        -11    1    3    3    0    0  0.10800333494E+01  0.99419312932E+01  0.46057396184E+01  0.11010054839E+02  0.51100000000E-03 0. -1.
         11    1    3    3    0    0 -0.10800333494E+01 -0.99419312932E+01  0.47306991543E+01  0.11062910314E+02  0.51100000000E-03 0.  1.
<mgrwt>
<rscale>  0 0.20001168E+02</rscale>
<asrwt>0</asrwt>
<pdfrwt beam="1">  1        3 0.24161080E-02 0.20001168E+02</pdfrwt>
<pdfrwt beam="2">  1       -3 0.97973281E-03 0.20001168E+02</pdfrwt>
<totfact> 0.17748541E+06</totfact>
</mgrwt>
</event>
<event>
 5    1  0.4133473E-007  0.2000041E+02  0.7818608E-02  0.1745320E+00
         -3   -1    0    0    0  501 -0.00000000000E+00  0.00000000000E+00  0.37633033489E+01  0.37644522969E+01  0.93000000000E-01 0. -1.
          3   -1    0    0  501    0  0.00000000000E+00 -0.00000000000E+00 -0.26568194079E+02  0.26568356848E+02  0.93000000000E-01 0.  1.
       1023    2    1    2    0    0  0.00000000000E+00  0.00000000000E+00 -0.22804890730E+02  0.30332809145E+02  0.20000406731E+02 0.  0.
        -11    1    3    3    0    0  0.32279019142E-01  0.10000081803E+02 -0.11458970350E+02  0.15208901333E+02  0.51100000000E-03 0. -1.
         11    1    3    3    0    0 -0.32279019142E-01 -0.10000081803E+02 -0.11345920380E+02  0.15123907813E+02  0.51100000000E-03 0.  1.
<mgrwt>
<rscale>  0 0.20000407E+02</rscale>
<asrwt>0</asrwt>
<pdfrwt beam="2">  1        3 0.40875153E-02 0.20000407E+02</pdfrwt>
<pdfrwt beam="1">  1       -3 0.57907066E-03 0.20000407E+02</pdfrwt>
<totfact> 0.17246258E+06</totfact>
</mgrwt>
</event>
<event>
 5    1  0.4133473E-007  0.2000100E+02  0.7818608E-02  0.1745308E+00
          3   -1    0    0  501    0  0.00000000000E+00  0.00000000000E+00  0.11030839271E+01  0.11069973578E+01  0.93000000000E-01 0. -1.
         -3   -1    0    0    0  501 -0.00000000000E+00 -0.00000000000E+00 -0.90499560483E+02  0.90499608267E+02  0.93000000000E-01 0.  1.
       1023    2    1    2    0    0  0.00000000000E+00  0.00000000000E+00 -0.89396476556E+02  0.91606605625E+02  0.20001004315E+02 0.  0.
        -11    1    3    3    0    0 -0.76888128906E+01 -0.63946847663E+01 -0.44632466617E+02  0.45739117979E+02  0.51100000000E-03 0.  1.
         11    1    3    3    0    0  0.76888128906E+01  0.63946847663E+01 -0.44764009938E+02  0.45867487646E+02  0.51100000000E-03 0. -1.
<mgrwt>
<rscale>  0 0.20001004E+02</rscale>
<asrwt>0</asrwt>
<pdfrwt beam="1">  1        3 0.17001000E-03 0.20001004E+02</pdfrwt>
<pdfrwt beam="2">  1       -3 0.13923308E-01 0.20001004E+02</pdfrwt>
<totfact> 0.14476863E+06</totfact>
</mgrwt>
</event>
<event>
 5    1  0.4252247E-007  0.2000148E+02  0.7818608E-02  0.1745299E+00
          3   -1    0    0  501    0  0.00000000000E+00  0.00000000000E+00  0.80928446168E+01  0.80933789600E+01  0.93000000000E-01 0. -1.
         -3   -1    0    0    0  501 -0.00000000000E+00 -0.00000000000E+00 -0.12357305283E+02  0.12357655233E+02  0.93000000000E-01 0.  1.
       1023    2    1    2    0    0  0.00000000000E+00  0.00000000000E+00 -0.42644606658E+01  0.20451034193E+02  0.20001479315E+02 0.  0.
        -11    1    3    3    0    0 -0.74552962788E-01 -0.10000404084E+02 -0.20975044694E+01  0.10218276041E+02  0.51100000000E-03 0. -1.
         11    1    3    3    0    0  0.74552962788E-01  0.10000404084E+02 -0.21669561964E+01  0.10232758152E+02  0.51100000000E-03 0.  1.
<mgrwt>
<rscale>  0 0.20001479E+02</rscale>
<asrwt>0</asrwt>
<pdfrwt beam="1">  1        3 0.12451210E-02 0.20001479E+02</pdfrwt>
<pdfrwt beam="2">  1       -3 0.19011919E-02 0.20001479E+02</pdfrwt>
<totfact> 0.17853457E+06</totfact>
</mgrwt>
</event>
<event>
 5    1  0.4133473E-007  0.2000123E+02  0.7818608E-02  0.1745304E+00
          3   -1    0    0  501    0  0.00000000000E+00  0.00000000000E+00  0.72262706781E+02  0.72262766625E+02  0.93000000000E-01 0. -1.
         -3   -1    0    0    0  501 -0.00000000000E+00 -0.00000000000E+00 -0.13823867519E+01  0.13855115055E+01  0.93000000000E-01 0.  1.
       1023    2    1    2    0    0  0.00000000000E+00  0.00000000000E+00  0.70880320029E+02  0.73648278131E+02  0.20001227567E+02 0.  0.
        -11    1    3    3    0    0  0.99149702446E+01  0.13059957192E+01  0.35454894909E+02  0.36838320171E+02  0.51100000000E-03 0.  1.
         11    1    3    3    0    0 -0.99149702446E+01 -0.13059957192E+01  0.35425425121E+02  0.36809957960E+02  0.51100000000E-03 0. -1.
<mgrwt>
<rscale>  0 0.20001228E+02</rscale>
<asrwt>0</asrwt>
<pdfrwt beam="1">  1        3 0.11117584E-01 0.20001228E+02</pdfrwt>
<pdfrwt beam="2">  1       -3 0.21291987E-03 0.20001228E+02</pdfrwt>
<totfact> 0.15161411E+06</totfact>
</mgrwt>
</event>
<event>
 5    1  0.4205666E-007  0.2000046E+02  0.7818608E-02  0.1745319E+00
         -3   -1    0    0    0  501 -0.00000000000E+00  0.00000000000E+00  0.92638806972E+01  0.92643474984E+01  0.93000000000E-01 0. -1.
          3   -1    0    0  501    0  0.00000000000E+00 -0.00000000000E+00 -0.10794166356E+02  0.10794566982E+02  0.93000000000E-01 0.  1.
       1023    2    1    2    0    0  0.00000000000E+00  0.00000000000E+00 -0.15302856588E+01  0.20058914480E+02  0.20000456893E+02 0.  0.
        -11    1    3    3    0    0  0.16366844742E+01 -0.98653703590E+01 -0.78252353584E+00  0.10030783206E+02  0.51100000000E-03 0. -1.
         11    1    3    3    0    0 -0.16366844742E+01  0.98653703590E+01 -0.74776212297E+00  0.10028131274E+02  0.51100000000E-03 0.  1.
<mgrwt>
<rscale>  0 0.20000457E+02</rscale>
<asrwt>0</asrwt>
<pdfrwt beam="2">  1        3 0.16607077E-02 0.20000457E+02</pdfrwt>
<pdfrwt beam="1">  1       -3 0.14252791E-02 0.20000457E+02</pdfrwt>
<totfact> 0.17880850E+06</totfact>
</mgrwt>
</event>
<event>
 5    1  0.4133473E-007  0.2000357E+02  0.7818608E-02  0.1745257E+00
          3   -1    0    0  501    0  0.00000000000E+00  0.00000000000E+00  0.29638506830E+01  0.29653094056E+01  0.93000000000E-01 0.  1.
         -3   -1    0    0    0  501 -0.00000000000E+00 -0.00000000000E+00 -0.33742127369E+02  0.33742255532E+02  0.93000000000E-01 0. -1.
       1023    2    1    2    0    0  0.00000000000E+00  0.00000000000E+00 -0.30778276686E+02  0.36707564938E+02  0.20003574878E+02 0.  0.
        -11    1    3    3    0    0 -0.34082442747E+00  0.99956324592E+01 -0.15541813656E+02  0.18481796491E+02  0.51100000000E-03 0.  1.
         11    1    3    3    0    0  0.34082442747E+00 -0.99956324592E+01 -0.15236463030E+02  0.18225768447E+02  0.51100000000E-03 0. -1.
<mgrwt>
<rscale>  0 0.20003575E+02</rscale>
<asrwt>0</asrwt>
<pdfrwt beam="1">  1        3 0.45609912E-03 0.20003575E+02</pdfrwt>
<pdfrwt beam="2">  1       -3 0.51912183E-02 0.20003575E+02</pdfrwt>
<totfact> 0.16883907E+06</totfact>
</mgrwt>
</event>
<event>
 5    1  0.4133473E-007  0.2000022E+02  0.7818608E-02  0.1745324E+00
          3   -1    0    0  501    0  0.00000000000E+00  0.00000000000E+00  0.10059506801E+02  0.10059936684E+02  0.93000000000E-01 0.  1.
         -3   -1    0    0    0  501 -0.00000000000E+00 -0.00000000000E+00 -0.99401992187E+01  0.99406342608E+01  0.93000000000E-01 0. -1.
       1023    2    1    2    0    0  0.00000000000E+00  0.00000000000E+00  0.11930758265E+00  0.20000570945E+02  0.20000215094E+02 0.  0.
        -11    1    3    3    0    0 -0.36522123692E+01  0.93092834957E+01  0.86789118404E-01  0.10000447340E+02  0.51100000000E-03 0. -1.
         11    1    3    3    0    0  0.36522123692E+01 -0.93092834957E+01  0.32518464243E-01  0.10000123605E+02  0.51100000000E-03 0.  1.
<mgrwt>
<rscale>  0 0.20000215E+02</rscale>
<asrwt>0</asrwt>
<pdfrwt beam="1">  1        3 0.15476830E-02 0.20000215E+02</pdfrwt>
<pdfrwt beam="2">  1       -3 0.15293280E-02 0.20000215E+02</pdfrwt>
<totfact> 0.17885172E+06</totfact>
</mgrwt>
</event>
<event>
 5    1  0.4133473E-007  0.2000031E+02  0.7818608E-02  0.1745322E+00
         -3   -1    0    0    0  501 -0.00000000000E+00  0.00000000000E+00  0.61005948808E+02  0.61006019694E+02  0.93000000000E-01 0. -1.
          3   -1    0    0  501    0  0.00000000000E+00 -0.00000000000E+00 -0.16378436761E+01  0.16404819132E+01  0.93000000000E-01 0.  1.
       1023    2    1    2    0    0  0.00000000000E+00  0.00000000000E+00  0.59368105132E+02  0.62646501608E+02  0.20000306416E+02 0.  0.
        -11    1    3    3    0    0  0.96947775817E+01  0.24518523941E+01  0.29848948440E+02  0.31479517401E+02  0.51100000000E-03 0.  1.
         11    1    3    3    0    0 -0.96947775817E+01 -0.24518523941E+01  0.29519156691E+02  0.31166984207E+02  0.51100000000E-03 0. -1.
<mgrwt>
<rscale>  0 0.20000306E+02</rscale>
<asrwt>0</asrwt>
<pdfrwt beam="2">  1        3 0.25218440E-03 0.20000306E+02</pdfrwt>
<pdfrwt beam="1">  1       -3 0.93857369E-02 0.20000306E+02</pdfrwt>
<totfact> 0.15628907E+06</totfact>
</mgrwt>
</event>
<event>
 5    1  0.4184649E-007  0.2000125E+02  0.7818608E-02  0.1745303E+00
         -3   -1    0    0    0  501 -0.00000000000E+00  0.00000000000E+00  0.51626923205E+02  0.51627006970E+02  0.93000000000E-01 0. -1.
          3   -1    0    0  501    0  0.00000000000E+00 -0.00000000000E+00 -0.19360148080E+01  0.19382472331E+01  0.93000000000E-01 0.  1.
       1023    2    1    2    0    0  0.00000000000E+00  0.00000000000E+00  0.49690908397E+02  0.53565254203E+02  0.20001251972E+02 0.  0.
        -11    1    3    3    0    0  0.99073261761E+01  0.13624832079E+01  0.24932126941E+02  0.26863030851E+02  0.51100000000E-03 0. -1.
         11    1    3    3    0    0 -0.99073261761E+01 -0.13624832079E+01  0.24758781457E+02  0.26702223352E+02  0.51100000000E-03 0.  1.
<mgrwt>
<rscale>  0 0.20001252E+02</rscale>
<asrwt>0</asrwt>
<pdfrwt beam="2">  1        3 0.29802665E-03 0.20001252E+02</pdfrwt>
<pdfrwt beam="1">  1       -3 0.79427805E-02 0.20001252E+02</pdfrwt>
<totfact> 0.16038117E+06</totfact>
</mgrwt>
</event>
<event>
 5    1  0.4269090E-007  0.2000067E+02  0.7818608E-02  0.1745315E+00
         -3   -1    0    0    0  501 -0.00000000000E+00  0.00000000000E+00  0.11711079309E+02  0.11711448569E+02  0.93000000000E-01 0. -1.
          3   -1    0    0  501    0  0.00000000000E+00 -0.00000000000E+00 -0.85387385160E+01  0.85392449575E+01  0.93000000000E-01 0.  1.
       1023    2    1    2    0    0  0.00000000000E+00  0.00000000000E+00  0.31723407928E+01  0.20250693526E+02  0.20000671043E+02 0.  0.
        -11    1    3    3    0    0 -0.95975046358E+00  0.99541517640E+01  0.16076962666E+01  0.10128718865E+02  0.51100000000E-03 0.  1.
         11    1    3    3    0    0  0.95975046358E+00 -0.99541517640E+01  0.15646445261E+01  0.10121974661E+02  0.51100000000E-03 0. -1.
<mgrwt>
<rscale>  0 0.20000671E+02</rscale>
<asrwt>0</asrwt>
<pdfrwt beam="2">  1        3 0.13137194E-02 0.20000671E+02</pdfrwt>
<pdfrwt beam="1">  1       -3 0.18017719E-02 0.20000671E+02</pdfrwt>
<totfact> 0.17868065E+06</totfact>
</mgrwt>
</event>
<event>
 5    1  0.4191313E-007  0.2000090E+02  0.7818608E-02  0.1745310E+00
          3   -1    0    0  501    0  0.00000000000E+00  0.00000000000E+00  0.11338859482E+02  0.11339240863E+02  0.93000000000E-01 0. -1.
         -3   -1    0    0    0  501 -0.00000000000E+00 -0.00000000000E+00 -0.88192490494E+01  0.88197393836E+01  0.93000000000E-01 0.  1.
       1023    2    1    2    0    0  0.00000000000E+00  0.00000000000E+00  0.25196104322E+01  0.20158980246E+02  0.20000901176E+02 0.  0.
        -11    1    3    3    0    0 -0.88128761002E+01 -0.47267230642E+01  0.12777112078E+01  0.10081728139E+02  0.51100000000E-03 0.  1.
         11    1    3    3    0    0  0.88128761002E+01  0.47267230642E+01  0.12418992244E+01  0.10077252107E+02  0.51100000000E-03 0. -1.
<mgrwt>
<rscale>  0 0.20000901E+02</rscale>
<asrwt>0</asrwt>
<pdfrwt beam="1">  1        3 0.17445070E-02 0.20000901E+02</pdfrwt>
<pdfrwt beam="2">  1       -3 0.13568746E-02 0.20000901E+02</pdfrwt>
<totfact> 0.17873399E+06</totfact>
</mgrwt>
</event>
<event>
 4    1  0.4133473E-007  0.2006364E+02  0.7818608E-02  0.1744065E+00
          3   -1    0    0  501    0  0.00000000000E+00  0.00000000000E+00  0.43369095556E+02  0.43369195269E+02  0.93000000000E-01 0.  1.
         -3   -1    0    0    0  501 -0.00000000000E+00 -0.00000000000E+00 -0.23194526829E+01  0.23213163826E+01  0.93000000000E-01 0. -1.
        -11    1    1    2    0    0 -0.62399649405E+01  0.78547385827E+01  0.20393253821E+02  0.22727051774E+02  0.51100000000E-03 0. -1.
         11    1    1    2    0    0  0.62399649405E+01 -0.78547385827E+01  0.20656389052E+02  0.22963459878E+02  0.51100000000E-03 0.  1.
<mgrwt>
<rscale>  0 0.20063641E+02</rscale>
<asrwt>0</asrwt>
<pdfrwt beam="1">  1        3 0.66723191E-02 0.20063641E+02</pdfrwt>
<pdfrwt beam="2">  1       -3 0.35698993E-03 0.20063641E+02</pdfrwt>
<totfact> 0.16307463E+06</totfact>
</mgrwt>
</event>
<event>
 5    1  0.4209685E-007  0.2000064E+02  0.7818608E-02  0.1745315E+00
          3   -1    0    0  501    0  0.00000000000E+00  0.00000000000E+00  0.41825589419E+01  0.41835927506E+01  0.93000000000E-01 0. -1.
         -3   -1    0    0    0  501 -0.00000000000E+00 -0.00000000000E+00 -0.23906270495E+02  0.23906451388E+02  0.93000000000E-01 0.  1.
       1023    2    1    2    0    0  0.00000000000E+00  0.00000000000E+00 -0.19723711553E+02  0.28090044139E+02  0.20000644547E+02 0.  0.
        -11    1    3    3    0    0  0.38247674138E+01 -0.92399992753E+01 -0.98669068942E+01  0.14048568763E+02  0.51100000000E-03 0.  1.
         11    1    3    3    0    0 -0.38247674138E+01  0.92399992753E+01 -0.98568046587E+01  0.14041475375E+02  0.51100000000E-03 0. -1.
<mgrwt>
<rscale>  0 0.20000645E+02</rscale>
<asrwt>0</asrwt>
<pdfrwt beam="1">  1        3 0.64356405E-03 0.20000645E+02</pdfrwt>
<pdfrwt beam="2">  1       -3 0.36779812E-02 0.20000645E+02</pdfrwt>
<totfact> 0.17379390E+06</totfact>
</mgrwt>
</event>
<event>
 4    1  0.4133473E-007  0.2001644E+02  0.7818608E-02  0.1745001E+00
          3   -1    0    0  501    0  0.00000000000E+00  0.00000000000E+00  0.62433854740E+02  0.62433924005E+02  0.93000000000E-01 0. -1.
         -3   -1    0    0    0  501 -0.00000000000E+00 -0.00000000000E+00 -0.16029110084E+01  0.16056066457E+01  0.93000000000E-01 0.  1.
        -11    1    1    2    0    0 -0.84152560822E+01 -0.54155227481E+01  0.29962780021E+02  0.31589754801E+02  0.51100000000E-03 0.  1.
         11    1    1    2    0    0  0.84152560822E+01  0.54155227481E+01  0.30868163711E+02  0.32449775850E+02  0.51100000000E-03 0. -1.
<mgrwt>
<rscale>  0 0.20016438E+02</rscale>
<asrwt>0</asrwt>
<pdfrwt beam="1">  1        3 0.96054221E-02 0.20016438E+02</pdfrwt>
<pdfrwt beam="2">  1       -3 0.24681435E-03 0.20016438E+02</pdfrwt>
<totfact> 0.15538496E+06</totfact>
</mgrwt>
</event>
<event>
 5    1  0.4133473E-007  0.2000016E+02  0.7818608E-02  0.1745325E+00
          3   -1    0    0  501    0  0.00000000000E+00  0.00000000000E+00  0.41775662083E+02  0.41775765600E+02  0.93000000000E-01 0.  1.
         -3   -1    0    0    0  501 -0.00000000000E+00 -0.00000000000E+00 -0.23927655799E+01  0.23945722208E+01  0.93000000000E-01 0. -1.
       1023    2    1    2    0    0  0.00000000000E+00  0.00000000000E+00  0.39382896503E+02  0.44170337821E+02  0.20000155155E+02 0.  0.
        -11    1    3    3    0    0 -0.52599484447E+01  0.85049603893E+01  0.19717805664E+02  0.22108669551E+02  0.51100000000E-03 0. -1.
         11    1    3    3    0    0  0.52599484447E+01 -0.85049603893E+01  0.19665090839E+02  0.22061668269E+02  0.51100000000E-03 0.  1.
<mgrwt>
<rscale>  0 0.20000155E+02</rscale>
<asrwt>0</asrwt>
<pdfrwt beam="1">  1        3 0.64271712E-02 0.20000155E+02</pdfrwt>
<pdfrwt beam="2">  1       -3 0.36826475E-03 0.20000155E+02</pdfrwt>
<totfact> 0.16495673E+06</totfact>
</mgrwt>
</event>
<event>
 5    1  0.4280324E-007  0.2000110E+02  0.7818608E-02  0.1745306E+00
          3   -1    0    0  501    0  0.00000000000E+00  0.00000000000E+00  0.47355325281E+01  0.47364456426E+01  0.93000000000E-01 0.  1.
         -3   -1    0    0    0  501 -0.00000000000E+00 -0.00000000000E+00 -0.21116228257E+02  0.21116433051E+02  0.93000000000E-01 0. -1.
       1023    2    1    2    0    0  0.00000000000E+00  0.00000000000E+00 -0.16380695729E+02  0.25852878694E+02  0.20001103574E+02 0.  0.
        -11    1    3    3    0    0  0.49419929823E+01  0.86939654719E+01 -0.82575805633E+01  0.12969038796E+02  0.51100000000E-03 0. -1.
         11    1    3    3    0    0 -0.49419929823E+01 -0.86939654719E+01 -0.81231151657E+01  0.12883839898E+02  0.51100000000E-03 0.  1.
<mgrwt>
<rscale>  0 0.20001104E+02</rscale>
<asrwt>0</asrwt>
<pdfrwt beam="1">  1        3 0.72862947E-03 0.20001104E+02</pdfrwt>
<pdfrwt beam="2">  1       -3 0.32487364E-02 0.20001104E+02</pdfrwt>
<totfact> 0.17513375E+06</totfact>
</mgrwt>
</event>
<event>
 4    1  0.4133473E-007  0.2001942E+02  0.7818608E-02  0.1744942E+00
          3   -1    0    0  501    0  0.00000000000E+00  0.00000000000E+00  0.63783959773E+02  0.63784027572E+02  0.93000000000E-01 0. -1.
         -3   -1    0    0    0  501 -0.00000000000E+00 -0.00000000000E+00 -0.15693930773E+01  0.15721461863E+01  0.93000000000E-01 0.  1.
        -11    1    1    2    0    0  0.92689295061E+01  0.37758739921E+01  0.31613101664E+02  0.33159591006E+02  0.51100000000E-03 0. -1.
         11    1    1    2    0    0 -0.92689295061E+01 -0.37758739921E+01  0.30601465031E+02  0.32196582752E+02  0.51100000000E-03 0.  1.
<mgrwt>
<rscale>  0 0.20019419E+02</rscale>
<asrwt>0</asrwt>
<pdfrwt beam="1">  1        3 0.98131330E-02 0.20019419E+02</pdfrwt>
<pdfrwt beam="2">  1       -3 0.24166210E-03 0.20019419E+02</pdfrwt>
<totfact> 0.15476857E+06</totfact>
</mgrwt>
</event>
<event>
 5    1  0.4133473E-007  0.2000419E+02  0.7818608E-02  0.1745245E+00
          3   -1    0    0  501    0  0.00000000000E+00  0.00000000000E+00  0.56873580934E+02  0.56873656971E+02  0.93000000000E-01 0. -1.
         -3   -1    0    0    0  501 -0.00000000000E+00 -0.00000000000E+00 -0.17577161295E+01  0.17601747049E+01  0.93000000000E-01 0.  1.
       1023    2    1    2    0    0  0.00000000000E+00  0.00000000000E+00  0.55115864805E+02  0.58633831676E+02  0.20004191157E+02 0.  0.
        -11    1    3    3    0    0  0.99982931962E+01 -0.25533679099E+00  0.27863271145E+02  0.29603934584E+02  0.51100000000E-03 0.  1.
         11    1    3    3    0    0 -0.99982931962E+01  0.25533679099E+00  0.27252593660E+02  0.29029897092E+02  0.51100000000E-03 0. -1.
<mgrwt>
<rscale>  0 0.20004191E+02</rscale>
<asrwt>0</asrwt>
<pdfrwt beam="1">  1        3 0.87499766E-02 0.20004191E+02</pdfrwt>
<pdfrwt beam="2">  1       -3 0.27061284E-03 0.20004191E+02</pdfrwt>
<totfact> 0.15797747E+06</totfact>
</mgrwt>
</event>
<event>
 5    1  0.4133473E-007  0.2000354E+02  0.7818608E-02  0.1745258E+00
          3   -1    0    0  501    0  0.00000000000E+00  0.00000000000E+00  0.26952126008E+02  0.26952286459E+02  0.93000000000E-01 0.  1.
         -3   -1    0    0    0  501 -0.00000000000E+00 -0.00000000000E+00 -0.37108403020E+01  0.37120054885E+01  0.93000000000E-01 0. -1.
       1023    2    1    2    0    0  0.00000000000E+00  0.00000000000E+00  0.23241285706E+02  0.30664291947E+02  0.20003535671E+02 0.  0.
        -11    1    3    3    0    0  0.93061785472E+01  0.36603648877E+01  0.11895417661E+02  0.15540405138E+02  0.51100000000E-03 0. -1.
         11    1    3    3    0    0 -0.93061785472E+01 -0.36603648877E+01  0.11345868045E+02  0.15123886809E+02  0.51100000000E-03 0.  1.
<mgrwt>
<rscale>  0 0.20003536E+02</rscale>
<asrwt>0</asrwt>
<pdfrwt beam="1">  1        3 0.41465829E-02 0.20003536E+02</pdfrwt>
<pdfrwt beam="2">  1       -3 0.57100048E-03 0.20003536E+02</pdfrwt>
<totfact> 0.17221233E+06</totfact>
</mgrwt>
</event>
<event>
 5    1  0.4133473E-007  0.2001079E+02  0.7818608E-02  0.1745114E+00
         -3   -1    0    0    0  501 -0.00000000000E+00  0.00000000000E+00  0.21281918088E+01  0.21302228464E+01  0.93000000000E-01 0.  1.
          3   -1    0    0  501    0  0.00000000000E+00 -0.00000000000E+00 -0.47014434362E+02  0.47014526344E+02  0.93000000000E-01 0. -1.
       1023    2    1    2    0    0  0.00000000000E+00  0.00000000000E+00 -0.44886242553E+02  0.49144749190E+02  0.20010787153E+02 0.  0.
        -11    1    3    3    0    0 -0.47222329109E+01  0.88180928134E+01 -0.21895855807E+02  0.24072530950E+02  0.51100000000E-03 0. -1.
         11    1    3    3    0    0  0.47222329109E+01 -0.88180928134E+01 -0.22990386745E+02  0.25072218240E+02  0.51100000000E-03 0.  1.
<mgrwt>
<rscale>  0 0.20010787E+02</rscale>
<asrwt>0</asrwt>
<pdfrwt beam="2">  1        3 0.72331524E-02 0.20010787E+02</pdfrwt>
<pdfrwt beam="1">  1       -3 0.32757747E-03 0.20010787E+02</pdfrwt>
<totfact> 0.16229819E+06</totfact>
</mgrwt>
</event>
<event>
 4    1  0.4133473E-007  0.2001451E+02  0.7818608E-02  0.1745040E+00
         -3   -1    0    0    0  501 -0.00000000000E+00  0.00000000000E+00  0.85554626278E+02  0.85554676825E+02  0.93000000000E-01 0. -1.
          3   -1    0    0  501    0  0.00000000000E+00 -0.00000000000E+00 -0.11686423674E+01  0.11723369749E+01  0.93000000000E-01 0.  1.
        -11    1    1    2    0    0  0.65702985735E+01 -0.75404588923E+01  0.43680340133E+02  0.44810706958E+02  0.51100000000E-03 0. -1.
         11    1    1    2    0    0 -0.65702985735E+01  0.75404588923E+01  0.40705643778E+02  0.41916306842E+02  0.51100000000E-03 0.  1.
<mgrwt>
<rscale>  0 0.20014511E+02</rscale>
<asrwt>0</asrwt>
<pdfrwt beam="2">  1        3 0.18007926E-03 0.20014511E+02</pdfrwt>
<pdfrwt beam="1">  1       -3 0.13162535E-01 0.20014511E+02</pdfrwt>
<totfact> 0.14635329E+06</totfact>
</mgrwt>
</event>
<event>
 5    1  0.4472243E-007  0.2000110E+02  0.7818608E-02  0.1745306E+00
         -3   -1    0    0    0  501 -0.00000000000E+00  0.00000000000E+00  0.60941058574E+02  0.60941129536E+02  0.93000000000E-01 0. -1.
          3   -1    0    0  501    0  0.00000000000E+00 -0.00000000000E+00 -0.16397204488E+01  0.16423556710E+01  0.93000000000E-01 0.  1.
       1023    2    1    2    0    0  0.00000000000E+00  0.00000000000E+00  0.59301338125E+02  0.62583485207E+02  0.20001097900E+02 0.  0.
        -11    1    3    3    0    0 -0.10000506188E+02  0.29240457980E-01  0.29651123957E+02  0.31292173642E+02  0.51100000000E-03 0. -1.
         11    1    3    3    0    0  0.10000506188E+02 -0.29240457980E-01  0.29650214168E+02  0.31291311565E+02  0.51100000000E-03 0.  1.
<mgrwt>
<rscale>  0 0.20001098E+02</rscale>
<asrwt>0</asrwt>
<pdfrwt beam="2">  1        3 0.25247289E-03 0.20001098E+02</pdfrwt>
<pdfrwt beam="1">  1       -3 0.93757543E-02 0.20001098E+02</pdfrwt>
<totfact> 0.15630337E+06</totfact>
</mgrwt>
</event>
<event>
 5    1  0.4133473E-007  0.2000013E+02  0.7818608E-02  0.1745325E+00
         -3   -1    0    0    0  501 -0.00000000000E+00  0.00000000000E+00  0.21682238210E+01  0.21702173941E+01  0.93000000000E-01 0.  1.
          3   -1    0    0  501    0  0.00000000000E+00 -0.00000000000E+00 -0.46098072400E+02  0.46098166211E+02  0.93000000000E-01 0. -1.
       1023    2    1    2    0    0  0.00000000000E+00  0.00000000000E+00 -0.43929848579E+02  0.48268383605E+02  0.20000131491E+02 0.  0.
        -11    1    3    3    0    0  0.39815156996E+01 -0.91732261756E+01 -0.22031846418E+02  0.24195098731E+02  0.51100000000E-03 0. -1.
         11    1    3    3    0    0 -0.39815156996E+01  0.91732261756E+01 -0.21898002161E+02  0.24073284874E+02  0.51100000000E-03 0.  1.
<mgrwt>
<rscale>  0 0.20000131E+02</rscale>
<asrwt>0</asrwt>
<pdfrwt beam="2">  1        3 0.70921710E-02 0.20000131E+02</pdfrwt>
<pdfrwt beam="1">  1       -3 0.33373350E-03 0.20000131E+02</pdfrwt>
<totfact> 0.16291186E+06</totfact>
</mgrwt>
</event>
<event>
 5    1  0.4133473E-007  0.2000493E+02  0.7818608E-02  0.1745230E+00
          3   -1    0    0  501    0  0.00000000000E+00  0.00000000000E+00  0.72394781229E+01  0.72400754479E+01  0.93000000000E-01 0. -1.
         -3   -1    0    0    0  501 -0.00000000000E+00 -0.00000000000E+00 -0.13818639649E+02  0.13818952592E+02  0.93000000000E-01 0.  1.
       1023    2    1    2    0    0  0.00000000000E+00  0.00000000000E+00 -0.65791615261E+01  0.21059028040E+02  0.20004931782E+02 0.  0.
        -11    1    3    3    0    0  0.59129281493E+01 -0.80675605145E+01 -0.32551191485E+01  0.10518747686E+02  0.51100000000E-03 0.  1.
         11    1    3    3    0    0 -0.59129281493E+01  0.80675605145E+01 -0.33240423776E+01  0.10540280354E+02  0.51100000000E-03 0. -1.
<mgrwt>
<rscale>  0 0.20004932E+02</rscale>
<asrwt>0</asrwt>
<pdfrwt beam="1">  1        3 0.11138359E-02 0.20004932E+02</pdfrwt>
<pdfrwt beam="2">  1       -3 0.21260146E-02 0.20004932E+02</pdfrwt>
<totfact> 0.17807336E+06</totfact>
</mgrwt>
</event>
<event>
 5    1  0.4133473E-007  0.2000042E+02  0.7818608E-02  0.1745320E+00
         -3   -1    0    0    0  501 -0.00000000000E+00  0.00000000000E+00  0.43130203528E+01  0.43140228979E+01  0.93000000000E-01 0.  1.
          3   -1    0    0  501    0  0.00000000000E+00 -0.00000000000E+00 -0.23182801418E+02  0.23182987956E+02  0.93000000000E-01 0. -1.
       1023    2    1    2    0    0  0.00000000000E+00  0.00000000000E+00 -0.18869781065E+02  0.27497010854E+02  0.20000424207E+02 0.  0.
        -11    1    3    3    0    0 -0.21985464606E+01  0.97554603842E+01 -0.94903626206E+01  0.13786573061E+02  0.51100000000E-03 0.  1.
         11    1    3    3    0    0  0.21985464606E+01 -0.97554603842E+01 -0.93794184443E+01  0.13710437792E+02  0.51100000000E-03 0. -1.
<mgrwt>
<rscale>  0 0.20000424E+02</rscale>
<asrwt>0</asrwt>
<pdfrwt beam="2">  1        3 0.35666762E-02 0.20000424E+02</pdfrwt>
<pdfrwt beam="1">  1       -3 0.66363307E-03 0.20000424E+02</pdfrwt>
<totfact> 0.17413762E+06</totfact>
</mgrwt>
</event>
<event>
 5    1  0.4133473E-007  0.2000127E+02  0.7818608E-02  0.1745303E+00
          3   -1    0    0  501    0  0.00000000000E+00  0.00000000000E+00  0.11935119539E+03  0.11935123162E+03  0.93000000000E-01 0. -1.
         -3   -1    0    0    0  501 -0.00000000000E+00 -0.00000000000E+00 -0.83535312662E+00  0.84051403685E+00  0.93000000000E-01 0.  1.
       1023    2    1    2    0    0  0.00000000000E+00  0.00000000000E+00  0.11851584226E+03  0.12019174566E+03  0.20001271396E+02 0.  0.
        -11    1    3    3    0    0  0.95927555816E+01 -0.28269544754E+01  0.59203223852E+02  0.60041938226E+02  0.51100000000E-03 0.  1.
         11    1    3    3    0    0 -0.95927555816E+01  0.28269544754E+01  0.59312618413E+02  0.60149807436E+02  0.51100000000E-03 0. -1.
<mgrwt>
<rscale>  0 0.20001271E+02</rscale>
<asrwt>0</asrwt>
<pdfrwt beam="1">  1        3 0.18362126E-01 0.20001271E+02</pdfrwt>
<pdfrwt beam="2">  1       -3 0.12891562E-03 0.20001271E+02</pdfrwt>
<totfact> 0.13513215E+06</totfact>
</mgrwt>
</event>
<event>
 5    1  0.4159383E-007  0.2000059E+02  0.7818608E-02  0.1745316E+00
         -3   -1    0    0    0  501 -0.00000000000E+00  0.00000000000E+00  0.53251208316E+01  0.53259328639E+01  0.93000000000E-01 0. -1.
          3   -1    0    0  501    0  0.00000000000E+00 -0.00000000000E+00 -0.18777664473E+02  0.18777894772E+02  0.93000000000E-01 0.  1.
       1023    2    1    2    0    0  0.00000000000E+00  0.00000000000E+00 -0.13452543641E+02  0.24103827636E+02  0.20000589398E+02 0.  0.
        -11    1    3    3    0    0  0.13961579839E+01  0.99022076490E+01 -0.66611447188E+01  0.12015565849E+02  0.51100000000E-03 0. -1.
         11    1    3    3    0    0 -0.13961579839E+01 -0.99022076490E+01 -0.67913989226E+01  0.12088261787E+02  0.51100000000E-03 0.  1.
<mgrwt>
<rscale>  0 0.20000589E+02</rscale>
<asrwt>0</asrwt>
<pdfrwt beam="2">  1        3 0.28889516E-02 0.20000589E+02</pdfrwt>
<pdfrwt beam="1">  1       -3 0.81932954E-03 0.20000589E+02</pdfrwt>
<totfact> 0.17621231E+06</totfact>
</mgrwt>
</event>
<event>
 5    1  0.4133473E-007  0.2000008E+02  0.7818608E-02  0.1745326E+00
          3   -1    0    0  501    0  0.00000000000E+00  0.00000000000E+00  0.14212538940E+02  0.14212843211E+02  0.93000000000E-01 0. -1.
         -3   -1    0    0    0  501 -0.00000000000E+00 -0.00000000000E+00 -0.70354115966E+01  0.70360262460E+01  0.93000000000E-01 0.  1.
       1023    2    1    2    0    0  0.00000000000E+00  0.00000000000E+00  0.71771273438E+01  0.21248869457E+02  0.20000082407E+02 0.  0.
        -11    1    3    3    0    0  0.59518043676E+01  0.80359571789E+01  0.35720771017E+01  0.10618866140E+02  0.51100000000E-03 0.  1.
         11    1    3    3    0    0 -0.59518043676E+01 -0.80359571789E+01  0.36050502421E+01  0.10630003317E+02  0.51100000000E-03 0. -1.
<mgrwt>
<rscale>  0 0.20000082E+02</rscale>
<asrwt>0</asrwt>
<pdfrwt beam="1">  1        3 0.21866151E-02 0.20000082E+02</pdfrwt>
<pdfrwt beam="2">  1       -3 0.10824417E-02 0.20000082E+02</pdfrwt>
<totfact> 0.17803724E+06</totfact>
</mgrwt>
</event>
<event>
 5    1  0.4148080E-007  0.2000056E+02  0.7818608E-02  0.1745317E+00
         -3   -1    0    0    0  501 -0.00000000000E+00  0.00000000000E+00  0.18141748127E+02  0.18141986499E+02  0.93000000000E-01 0.  1.
          3   -1    0    0  501    0  0.00000000000E+00 -0.00000000000E+00 -0.55117874051E+01  0.55125719405E+01  0.93000000000E-01 0. -1.
       1023    2    1    2    0    0  0.00000000000E+00  0.00000000000E+00  0.12629960722E+02  0.23654558439E+02  0.20000555670E+02 0.  0.
        -11    1    3    3    0    0 -0.89346702916E+01 -0.44918981824E+01  0.63251552712E+01  0.11832711945E+02  0.51100000000E-03 0. -1.
         11    1    3    3    0    0  0.89346702916E+01  0.44918981824E+01  0.63048054510E+01  0.11821846494E+02  0.51100000000E-03 0.  1.
<mgrwt>
<rscale>  0 0.20000556E+02</rscale>
<asrwt>0</asrwt>
<pdfrwt beam="2">  1        3 0.84804596E-03 0.20000556E+02</pdfrwt>
<pdfrwt beam="1">  1       -3 0.27911169E-02 0.20000556E+02</pdfrwt>
<totfact> 0.17650449E+06</totfact>
</mgrwt>
</event>
<event>
 5    1  0.4133473E-007  0.2000155E+02  0.7818608E-02  0.1745297E+00
          3   -1    0    0  501    0  0.00000000000E+00  0.00000000000E+00  0.10214120858E+03  0.10214125091E+03  0.93000000000E-01 0. -1.
         -3   -1    0    0    0  501 -0.00000000000E+00 -0.00000000000E+00 -0.97693777301E+00  0.98135437653E+00  0.93000000000E-01 0.  1.
       1023    2    1    2    0    0  0.00000000000E+00  0.00000000000E+00  0.10116427080E+03  0.10312260529E+03  0.20001550812E+02 0.  0.
        -11    1    3    3    0    0 -0.75011535966E+01 -0.66133245672E+01  0.50014036766E+02  0.51003992402E+02  0.51100000000E-03 0. -1.
         11    1    3    3    0    0  0.75011535966E+01  0.66133245672E+01  0.51150234038E+02  0.52118612889E+02  0.51100000000E-03 0.  1.
<mgrwt>
<rscale>  0 0.20001551E+02</rscale>
<asrwt>0</asrwt>
<pdfrwt beam="1">  1        3 0.15714383E-01 0.20001551E+02</pdfrwt>
<pdfrwt beam="2">  1       -3 0.15064104E-03 0.20001551E+02</pdfrwt>
<totfact> 0.14068511E+06</totfact>
</mgrwt>
</event>
<event>
 5    1  0.4213914E-007  0.2000076E+02  0.7818608E-02  0.1745313E+00
         -3   -1    0    0    0  501 -0.00000000000E+00  0.00000000000E+00  0.24770309401E+02  0.24770483985E+02  0.93000000000E-01 0. -1.
          3   -1    0    0  501    0  0.00000000000E+00 -0.00000000000E+00 -0.40366731784E+01  0.40377443392E+01  0.93000000000E-01 0.  1.
       1023    2    1    2    0    0  0.00000000000E+00  0.00000000000E+00  0.20733636223E+02  0.28808228324E+02  0.20000758689E+02 0.  0.
        -11    1    3    3    0    0  0.96848370838E+01 -0.24908314399E+01  0.10243954999E+02  0.14315688069E+02  0.51100000000E-03 0.  1.
         11    1    3    3    0    0 -0.96848370838E+01  0.24908314399E+01  0.10489681224E+02  0.14492540255E+02  0.51100000000E-03 0. -1.
<mgrwt>
<rscale>  0 0.20000759E+02</rscale>
<asrwt>0</asrwt>
<pdfrwt beam="2">  1        3 0.62112248E-03 0.20000759E+02</pdfrwt>
<pdfrwt beam="1">  1       -3 0.38109126E-02 0.20000759E+02</pdfrwt>
<totfact> 0.17336574E+06</totfact>
</mgrwt>
</event>
<event>
 5    1  0.4133473E-007  0.2000026E+02  0.7818608E-02  0.1745323E+00
          3   -1    0    0  501    0  0.00000000000E+00  0.00000000000E+00  0.33439837109E+02  0.33439966430E+02  0.93000000000E-01 0. -1.
         -3   -1    0    0    0  501 -0.00000000000E+00 -0.00000000000E+00 -0.29896657960E+01  0.29911119290E+01  0.93000000000E-01 0.  1.
       1023    2    1    2    0    0  0.00000000000E+00  0.00000000000E+00  0.30450171313E+02  0.36431078359E+02  0.20000263434E+02 0.  0.
        -11    1    3    3    0    0  0.99923369619E+01  0.39467494560E+00  0.15240087439E+02  0.18228078113E+02  0.51100000000E-03 0. -1.
         11    1    3    3    0    0 -0.99923369619E+01 -0.39467494560E+00  0.15210083874E+02  0.18203000247E+02  0.51100000000E-03 0.  1.
<mgrwt>
<rscale>  0 0.20000263E+02</rscale>
<asrwt>0</asrwt>
<pdfrwt beam="1">  1        3 0.51447117E-02 0.20000263E+02</pdfrwt>
<pdfrwt beam="2">  1       -3 0.46006976E-03 0.20000263E+02</pdfrwt>
<totfact> 0.16902898E+06</totfact>
</mgrwt>
</event>
<event>
 5    1  0.4343968E-007  0.2000080E+02  0.7818608E-02  0.1745312E+00
         -3   -1    0    0    0  501 -0.00000000000E+00  0.00000000000E+00  0.10922768418E+02  0.10923164327E+02  0.93000000000E-01 0.  1.
          3   -1    0    0  501    0  0.00000000000E+00 -0.00000000000E+00 -0.91551197940E+01  0.91555921405E+01  0.93000000000E-01 0. -1.
       1023    2    1    2    0    0  0.00000000000E+00  0.00000000000E+00  0.17676486237E+01  0.20078756467E+02  0.20000796974E+02 0.  0.
        -11    1    3    3    0    0  0.57416928913E+01  0.81878419152E+01  0.89718611037E+00  0.10040554550E+02  0.51100000000E-03 0. -1.
         11    1    3    3    0    0 -0.57416928913E+01 -0.81878419152E+01  0.87046251329E+00  0.10038201917E+02  0.51100000000E-03 0.  1.
<mgrwt>
<rscale>  0 0.20000797E+02</rscale>
<asrwt>0</asrwt>
<pdfrwt beam="2">  1        3 0.14085468E-02 0.20000797E+02</pdfrwt>
<pdfrwt beam="1">  1       -3 0.16804927E-02 0.20000797E+02</pdfrwt>
<totfact> 0.17879051E+06</totfact>
</mgrwt>
</event>
<event>
 5    1  0.4133473E-007  0.2000028E+02  0.7818608E-02  0.1745323E+00
         -3   -1    0    0    0  501 -0.00000000000E+00  0.00000000000E+00  0.43485111801E+01  0.43495055447E+01  0.93000000000E-01 0.  1.
          3   -1    0    0  501    0  0.00000000000E+00 -0.00000000000E+00 -0.22993297606E+02  0.22993485682E+02  0.93000000000E-01 0. -1.
       1023    2    1    2    0    0  0.00000000000E+00  0.00000000000E+00 -0.18644786426E+02  0.27342991226E+02  0.20000277707E+02 0.  0.
        -11    1    3    3    0    0  0.21127976314E+01 -0.97743983442E+01 -0.93224504481E+01  0.13671534641E+02  0.51100000000E-03 0.  1.
         11    1    3    3    0    0 -0.21127976314E+01  0.97743983442E+01 -0.93223359775E+01  0.13671456585E+02  0.51100000000E-03 0. -1.
<mgrwt>
<rscale>  0 0.20000278E+02</rscale>
<asrwt>0</asrwt>
<pdfrwt beam="2">  1        3 0.35375213E-02 0.20000278E+02</pdfrwt>
<pdfrwt beam="1">  1       -3 0.66909269E-03 0.20000278E+02</pdfrwt>
<totfact> 0.17423280E+06</totfact>
</mgrwt>
</event>
<event>
 5    1  0.4414045E-007  0.2000082E+02  0.7818608E-02  0.1745312E+00
         -3   -1    0    0    0  501 -0.00000000000E+00  0.00000000000E+00  0.75692353949E+02  0.75692411082E+02  0.93000000000E-01 0.  1.
          3   -1    0    0  501    0  0.00000000000E+00 -0.00000000000E+00 -0.13195518357E+01  0.13228250251E+01  0.93000000000E-01 0. -1.
       1023    2    1    2    0    0  0.00000000000E+00  0.00000000000E+00  0.74372802113E+02  0.77015236107E+02  0.20000822442E+02 0.  0.
        -11    1    3    3    0    0 -0.99975454699E+01  0.23553494822E+00  0.37351223022E+02  0.38666784888E+02  0.51100000000E-03 0.  1.
         11    1    3    3    0    0  0.99975454699E+01 -0.23553494822E+00  0.37021579092E+02  0.38348451218E+02  0.51100000000E-03 0. -1.
<mgrwt>
<rscale>  0 0.20000822E+02</rscale>
<asrwt>0</asrwt>
<pdfrwt beam="2">  1        3 0.20326407E-03 0.20000822E+02</pdfrwt>
<pdfrwt beam="1">  1       -3 0.11645238E-01 0.20000822E+02</pdfrwt>
<totfact> 0.15030114E+06</totfact>
</mgrwt>
</event>
<event>
 4    1  0.4133473E-007  0.2016401E+02  0.7818608E-02  0.1742086E+00
         -3   -1    0    0    0  501 -0.00000000000E+00  0.00000000000E+00  0.96848606484E+00  0.97294103511E+00  0.93000000000E-01 0. -1.
          3   -1    0    0  501    0  0.00000000000E+00 -0.00000000000E+00 -0.10470900172E+03  0.10470904302E+03  0.93000000000E-01 0.  1.
        -11    1    1    2    0    0 -0.52784496270E+01  0.85485440222E+01 -0.56277649632E+02  0.57167416276E+02  0.51100000000E-03 0. -1.
         11    1    1    2    0    0  0.52784496270E+01 -0.85485440222E+01 -0.47462866020E+02  0.48514567775E+02  0.51100000000E-03 0.  1.
<mgrwt>
<rscale>  0 0.20164007E+02</rscale>
<asrwt>0</asrwt>
<pdfrwt beam="2">  1        3 0.16109414E-01 0.20164007E+02</pdfrwt>
<pdfrwt beam="1">  1       -3 0.14934381E-03 0.20164007E+02</pdfrwt>
<totfact> 0.13741182E+06</totfact>
</mgrwt>
</event>
<event>
 5    1  0.4285742E-007  0.2000104E+02  0.7818608E-02  0.1745307E+00
          3   -1    0    0  501    0  0.00000000000E+00  0.00000000000E+00  0.10100454029E+02  0.10100882169E+02  0.93000000000E-01 0. -1.
         -3   -1    0    0    0  501 -0.00000000000E+00 -0.00000000000E+00 -0.99007219747E+01  0.99011587514E+01  0.93000000000E-01 0.  1.
       1023    2    1    2    0    0  0.00000000000E+00  0.00000000000E+00  0.19973205468E+00  0.20002040921E+02  0.20001043675E+02 0.  0.
        -11    1    3    3    0    0 -0.92766582800E+01 -0.37346464578E+01  0.18026752342E+00  0.10001823316E+02  0.51100000000E-03 0. -1.
         11    1    3    3    0    0  0.92766582800E+01  0.37346464578E+01  0.19464531262E-01  0.10000217605E+02  0.51100000000E-03 0.  1.
<mgrwt>
<rscale>  0 0.20001044E+02</rscale>
<asrwt>0</asrwt>
<pdfrwt beam="1">  1        3 0.15539825E-02 0.20001044E+02</pdfrwt>
<pdfrwt beam="2">  1       -3 0.15232545E-02 0.20001044E+02</pdfrwt>
<totfact> 0.17883475E+06</totfact>
</mgrwt>
</event>
<event>
 5    1  0.4163299E-007  0.2000087E+02  0.7818608E-02  0.1745311E+00
         -3   -1    0    0    0  501 -0.00000000000E+00  0.00000000000E+00  0.35905679027E+02  0.35905799467E+02  0.93000000000E-01 0.  1.
          3   -1    0    0  501    0  0.00000000000E+00 -0.00000000000E+00 -0.27844167906E+01  0.27859694657E+01  0.93000000000E-01 0. -1.
       1023    2    1    2    0    0  0.00000000000E+00  0.00000000000E+00  0.33121262236E+02  0.38691768933E+02  0.20000874257E+02 0.  0.
        -11    1    3    3    0    0 -0.71906126167E+01  0.69500912433E+01  0.16576155908E+02  0.19359174131E+02  0.51100000000E-03 0. -1.
         11    1    3    3    0    0  0.71906126167E+01 -0.69500912433E+01  0.16545106329E+02  0.19332594802E+02  0.51100000000E-03 0.  1.
<mgrwt>
<rscale>  0 0.20000874E+02</rscale>
<asrwt>0</asrwt>
<pdfrwt beam="2">  1        3 0.42850051E-03 0.20000874E+02</pdfrwt>
<pdfrwt beam="1">  1       -3 0.55240793E-02 0.20000874E+02</pdfrwt>
<totfact> 0.16781862E+06</totfact>
</mgrwt>
</event>
<event>
 5    1  0.4226752E-007  0.2000165E+02  0.7818608E-02  0.1745295E+00
         -3   -1    0    0    0  501 -0.00000000000E+00  0.00000000000E+00  0.46053875747E+02  0.46053969648E+02  0.93000000000E-01 0. -1.
          3   -1    0    0  501    0  0.00000000000E+00 -0.00000000000E+00 -0.21706370883E+01  0.21726284471E+01  0.93000000000E-01 0.  1.
       1023    2    1    2    0    0  0.00000000000E+00  0.00000000000E+00  0.43883238659E+02  0.48226598095E+02  0.20001653147E+02 0.  0.
        -11    1    3    3    0    0  0.97733941390E+01  0.21183135200E+01  0.21699943548E+02  0.23893388948E+02  0.51100000000E-03 0. -1.
         11    1    3    3    0    0 -0.97733941390E+01 -0.21183135200E+01  0.22183295110E+02  0.24333209147E+02  0.51100000000E-03 0.  1.
<mgrwt>
<rscale>  0 0.20001653E+02</rscale>
<asrwt>0</asrwt>
<pdfrwt beam="2">  1        3 0.33410460E-03 0.20001653E+02</pdfrwt>
<pdfrwt beam="1">  1       -3 0.70853714E-02 0.20001653E+02</pdfrwt>
<totfact> 0.16293089E+06</totfact>
</mgrwt>
</event>
<event>
 5    1  0.4185336E-007  0.2000073E+02  0.7818608E-02  0.1745313E+00
          3   -1    0    0  501    0  0.00000000000E+00  0.00000000000E+00  0.25084151449E+01  0.25101385498E+01  0.93000000000E-01 0.  1.
         -3   -1    0    0    0  501 -0.00000000000E+00 -0.00000000000E+00 -0.39853266320E+02  0.39853374831E+02  0.93000000000E-01 0. -1.
       1023    2    1    2    0    0  0.00000000000E+00  0.00000000000E+00 -0.37344851176E+02  0.42363513381E+02  0.20000733902E+02 0.  0.
        -11    1    3    3    0    0 -0.16799122638E+01 -0.98579985127E+01 -0.18823673283E+02  0.21315086583E+02  0.51100000000E-03 0.  1.
         11    1    3    3    0    0  0.16799122638E+01  0.98579985127E+01 -0.18521177892E+02  0.21048426798E+02  0.51100000000E-03 0. -1.
<mgrwt>
<rscale>  0 0.20000734E+02</rscale>
<asrwt>0</asrwt>
<pdfrwt beam="1">  1        3 0.38605097E-03 0.20000734E+02</pdfrwt>
<pdfrwt beam="2">  1       -3 0.61314122E-02 0.20000734E+02</pdfrwt>
<totfact> 0.16589592E+06</totfact>
</mgrwt>
</event>
<event>
 5    1  0.4133473E-007  0.2001045E+02  0.7818608E-02  0.1745120E+00
          3   -1    0    0  501    0  0.00000000000E+00  0.00000000000E+00  0.77911684659E+02  0.77911740164E+02  0.93000000000E-01 0. -1.
         -3   -1    0    0    0  501 -0.00000000000E+00 -0.00000000000E+00 -0.12831066365E+01  0.12864725573E+01  0.93000000000E-01 0.  1.
       1023    2    1    2    0    0  0.00000000000E+00  0.00000000000E+00  0.76628578023E+02  0.79198212722E+02  0.20010445485E+02 0.  0.
        -11    1    3    3    0    0  0.10002747080E+02 -0.19840652658E+00  0.38713375535E+02  0.39985244277E+02  0.51100000000E-03 0. -1.
         11    1    3    3    0    0 -0.10002747080E+02  0.19840652658E+00  0.37915202487E+02  0.39212968444E+02  0.51100000000E-03 0.  1.
<mgrwt>
<rscale>  0 0.20010445E+02</rscale>
<asrwt>0</asrwt>
<pdfrwt beam="1">  1        3 0.11986678E-01 0.20010445E+02</pdfrwt>
<pdfrwt beam="2">  1       -3 0.19766417E-03 0.20010445E+02</pdfrwt>
<totfact> 0.14925909E+06</totfact>
</mgrwt>
</event>
<event>
 5    1  0.4133473E-007  0.2000014E+02  0.7818608E-02  0.1745325E+00
         -3   -1    0    0    0  501 -0.00000000000E+00  0.00000000000E+00  0.14782990373E+01  0.14812214701E+01  0.93000000000E-01 0.  1.
          3   -1    0    0  501    0  0.00000000000E+00 -0.00000000000E+00 -0.67576482002E+02  0.67576545996E+02  0.93000000000E-01 0. -1.
       1023    2    1    2    0    0  0.00000000000E+00  0.00000000000E+00 -0.66098182964E+02  0.69057767466E+02  0.20000136404E+02 0.  0.
        -11    1    3    3    0    0  0.45016991120E+01  0.89294812115E+01 -0.32977144057E+02  0.34460019733E+02  0.51100000000E-03 0. -1.
         11    1    3    3    0    0 -0.45016991120E+01 -0.89294812115E+01 -0.33121038908E+02  0.34597747733E+02  0.51100000000E-03 0.  1.
<mgrwt>
<rscale>  0 0.20000136E+02</rscale>
<asrwt>0</asrwt>
<pdfrwt beam="2">  1        3 0.10396609E-01 0.20000136E+02</pdfrwt>
<pdfrwt beam="1">  1       -3 0.22766040E-03 0.20000136E+02</pdfrwt>
<totfact> 0.15352114E+06</totfact>
</mgrwt>
</event>
<event>
 5    1  0.4133473E-007  0.2000042E+02  0.7818608E-02  0.1745320E+00
         -3   -1    0    0    0  501 -0.00000000000E+00  0.00000000000E+00  0.75717734289E+01  0.75723445418E+01  0.93000000000E-01 0. -1.
          3   -1    0    0  501    0  0.00000000000E+00 -0.00000000000E+00 -0.13206265283E+02  0.13206592738E+02  0.93000000000E-01 0.  1.
       1023    2    1    2    0    0  0.00000000000E+00  0.00000000000E+00 -0.56344918545E+01  0.20778937279E+02  0.20000418396E+02 0.  0.
        -11    1    3    3    0    0 -0.95031490373E+01 -0.31134090754E+01 -0.27839671795E+01  0.10380444654E+02  0.51100000000E-03 0.  1.
         11    1    3    3    0    0  0.95031490373E+01  0.31134090754E+01 -0.28505246750E+01  0.10398492625E+02  0.51100000000E-03 0. -1.
<mgrwt>
<rscale>  0 0.20000418E+02</rscale>
<asrwt>0</asrwt>
<pdfrwt beam="2">  1        3 0.20318022E-02 0.20000418E+02</pdfrwt>
<pdfrwt beam="1">  1       -3 0.11649573E-02 0.20000418E+02</pdfrwt>
<totfact> 0.17833715E+06</totfact>
</mgrwt>
</event>
<event>
 5    1  0.4133473E-007  0.2000055E+02  0.7818608E-02  0.1745317E+00
         -3   -1    0    0    0  501 -0.00000000000E+00  0.00000000000E+00  0.10071768436E+01  0.10114614151E+01  0.93000000000E-01 0. -1.
          3   -1    0    0  501    0  0.00000000000E+00 -0.00000000000E+00 -0.99077860536E+02  0.99077904183E+02  0.93000000000E-01 0.  1.
       1023    2    1    2    0    0  0.00000000000E+00  0.00000000000E+00 -0.98070683692E+02  0.10008936560E+03  0.20000552643E+02 0.  0.
        -11    1    3    3    0    0 -0.78488354406E+01  0.61968716577E+01 -0.49082851275E+02  0.50091234020E+02  0.51100000000E-03 0. -1.
         11    1    3    3    0    0  0.78488354406E+01 -0.61968716577E+01 -0.48987832417E+02  0.49998131578E+02  0.51100000000E-03 0.  1.
<mgrwt>
<rscale>  0 0.20000553E+02</rscale>
<asrwt>0</asrwt>
<pdfrwt beam="2">  1        3 0.15243073E-01 0.20000553E+02</pdfrwt>
<pdfrwt beam="1">  1       -3 0.15528330E-03 0.20000553E+02</pdfrwt>
<totfact> 0.14174095E+06</totfact>
</mgrwt>
</event>
<event>
 5    1  0.4133473E-007  0.2000732E+02  0.7818608E-02  0.1745183E+00
          3   -1    0    0  501    0  0.00000000000E+00  0.00000000000E+00  0.63096874973E+01  0.63103728347E+01  0.93000000000E-01 0.  1.
         -3   -1    0    0    0  501 -0.00000000000E+00 -0.00000000000E+00 -0.15858565493E+02  0.15858838183E+02  0.93000000000E-01 0. -1.
       1023    2    1    2    0    0  0.00000000000E+00  0.00000000000E+00 -0.95488779959E+01  0.22169211017E+02  0.20007319814E+02 0.  0.
        -11    1    3    3    0    0  0.39963112684E+01  0.91698206085E+01 -0.49193255275E+01  0.11147012050E+02  0.51100000000E-03 0.  1.
         11    1    3    3    0    0 -0.39963112684E+01 -0.91698206085E+01 -0.46295524684E+01  0.11022198967E+02  0.51100000000E-03 0. -1.
<mgrwt>
<rscale>  0 0.20007320E+02</rscale>
<asrwt>0</asrwt>
<pdfrwt beam="1">  1        3 0.97079486E-03 0.20007320E+02</pdfrwt>
<pdfrwt beam="2">  1       -3 0.24398530E-02 0.20007320E+02</pdfrwt>
<totfact> 0.17731450E+06</totfact>
</mgrwt>
</event>
<event>
 5    1  0.4133473E-007  0.2000024E+02  0.7818608E-02  0.1745323E+00
         -3   -1    0    0    0  501 -0.00000000000E+00  0.00000000000E+00  0.89868890752E+01  0.89873702633E+01  0.93000000000E-01 0. -1.
          3   -1    0    0  501    0  0.00000000000E+00 -0.00000000000E+00 -0.11126612386E+02  0.11127001042E+02  0.93000000000E-01 0.  1.
       1023    2    1    2    0    0  0.00000000000E+00  0.00000000000E+00 -0.21397233113E+01  0.20114371306E+02  0.20000237928E+02 0.  0.
        -11    1    3    3    0    0  0.48310152487E+01  0.87557745868E+01 -0.10789733757E+01  0.10058154938E+02  0.51100000000E-03 0.  1.
         11    1    3    3    0    0 -0.48310152487E+01 -0.87557745868E+01 -0.10607499355E+01  0.10056216368E+02  0.51100000000E-03 0. -1.
<mgrwt>
<rscale>  0 0.20000238E+02</rscale>
<asrwt>0</asrwt>
<pdfrwt beam="2">  1        3 0.17118534E-02 0.20000238E+02</pdfrwt>
<pdfrwt beam="1">  1       -3 0.13826652E-02 0.20000238E+02</pdfrwt>
<totfact> 0.17877637E+06</totfact>
</mgrwt>
</event>
<event>
 5    1  0.4133473E-007  0.2000392E+02  0.7818608E-02  0.1745250E+00
         -3   -1    0    0    0  501 -0.00000000000E+00  0.00000000000E+00  0.80116647378E+02  0.80116701356E+02  0.93000000000E-01 0.  1.
          3   -1    0    0  501    0  0.00000000000E+00 -0.00000000000E+00 -0.12468827144E+01  0.12503461535E+01  0.93000000000E-01 0. -1.
       1023    2    1    2    0    0  0.00000000000E+00  0.00000000000E+00  0.78869764664E+02  0.81367047509E+02  0.20003915673E+02 0.  0.
        -11    1    3    3    0    0  0.54098652916E+01 -0.84115579778E+01  0.38885985063E+02  0.40151473007E+02  0.51100000000E-03 0. -1.
         11    1    3    3    0    0 -0.54098652916E+01  0.84115579778E+01  0.39983779601E+02  0.41215574502E+02  0.51100000000E-03 0.  1.
<mgrwt>
<rscale>  0 0.20003916E+02</rscale>
<asrwt>0</asrwt>
<pdfrwt beam="2">  1        3 0.19209872E-03 0.20003916E+02</pdfrwt>
<pdfrwt beam="1">  1       -3 0.12325906E-01 0.20003916E+02</pdfrwt>
<totfact> 0.14855179E+06</totfact>
</mgrwt>
</event>
<event>
 5    1  0.4145971E-007  0.2000057E+02  0.7818608E-02  0.1745317E+00
          3   -1    0    0  501    0  0.00000000000E+00  0.00000000000E+00  0.45541198349E+01  0.45550693157E+01  0.93000000000E-01 0. -1.
         -3   -1    0    0    0  501 -0.00000000000E+00 -0.00000000000E+00 -0.21956063809E+02  0.21956260769E+02  0.93000000000E-01 0.  1.
       1023    2    1    2    0    0  0.00000000000E+00  0.00000000000E+00 -0.17401943974E+02  0.26511330085E+02  0.20000574212E+02 0.  0.
        -11    1    3    3    0    0 -0.79826953745E+01 -0.60234099628E+01 -0.87395928939E+01  0.13281015670E+02  0.51100000000E-03 0. -1.
         11    1    3    3    0    0  0.79826953745E+01  0.60234099628E+01 -0.86623510799E+01  0.13230314415E+02  0.51100000000E-03 0.  1.
<mgrwt>
<rscale>  0 0.20000574E+02</rscale>
<asrwt>0</asrwt>
<pdfrwt beam="1">  1        3 0.70072202E-03 0.20000574E+02</pdfrwt>
<pdfrwt beam="2">  1       -3 0.33779441E-02 0.20000574E+02</pdfrwt>
<totfact> 0.17474319E+06</totfact>
</mgrwt>
</event>
<event>
 4    1  0.4133473E-007  0.2005401E+02  0.7818608E-02  0.1744256E+00
         -3   -1    0    0    0  501 -0.00000000000E+00  0.00000000000E+00  0.39214091429E+02  0.39214201708E+02  0.93000000000E-01 0.  1.
          3   -1    0    0  501    0  0.00000000000E+00 -0.00000000000E+00 -0.25629379703E+01  0.25646247366E+01  0.93000000000E-01 0. -1.
        -11    1    1    2    0    0 -0.82093482095E+01  0.57333728637E+01  0.17231370710E+02  0.19929503236E+02  0.51100000000E-03 0.  1.
         11    1    1    2    0    0  0.82093482095E+01 -0.57333728637E+01  0.19419782749E+02  0.21849323209E+02  0.51100000000E-03 0. -1.
<mgrwt>
<rscale>  0 0.20054009E+02</rscale>
<asrwt>0</asrwt>
<pdfrwt beam="2">  1        3 0.39443637E-03 0.20054009E+02</pdfrwt>
<pdfrwt beam="1">  1       -3 0.60330756E-02 0.20054009E+02</pdfrwt>
<totfact> 0.16525029E+06</totfact>
</mgrwt>
</event>
<event>
 4    1  0.4133473E-007  0.2049298E+02  0.7818608E-02  0.1735699E+00
         -3   -1    0    0    0  501 -0.00000000000E+00  0.00000000000E+00  0.51991290031E+01  0.51999607105E+01  0.93000000000E-01 0.  1.
          3   -1    0    0  501    0  0.00000000000E+00 -0.00000000000E+00 -0.20191311653E+02  0.20191525828E+02  0.93000000000E-01 0. -1.
        -11    1    1    2    0    0  0.94774217122E+01 -0.38746058483E+01 -0.70060555383E+01  0.12406405896E+02  0.51100000000E-03 0.  1.
         11    1    1    2    0    0 -0.94774217122E+01  0.38746058483E+01 -0.79861271116E+01  0.12985080643E+02  0.51100000000E-03 0. -1.
<mgrwt>
<rscale>  0 0.20492976E+02</rscale>
<asrwt>0</asrwt>
<pdfrwt beam="2">  1        3 0.31064361E-02 0.20492976E+02</pdfrwt>
<pdfrwt beam="1">  1       -3 0.79994646E-03 0.20492976E+02</pdfrwt>
<totfact> 0.16642646E+06</totfact>
</mgrwt>
</event>
<event>
 5    1  0.4285705E-007  0.2000099E+02  0.7818608E-02  0.1745308E+00
         -3   -1    0    0    0  501 -0.00000000000E+00  0.00000000000E+00  0.40250138023E+02  0.40250245464E+02  0.93000000000E-01 0.  1.
          3   -1    0    0  501    0  0.00000000000E+00 -0.00000000000E+00 -0.24837274661E+01  0.24854679893E+01  0.93000000000E-01 0. -1.
       1023    2    1    2    0    0  0.00000000000E+00  0.00000000000E+00  0.37766410557E+02  0.42735713453E+02  0.20000985925E+02 0.  0.
        -11    1    3    3    0    0  0.77716104024E+01 -0.62931350638E+01  0.19078825949E+02  0.21540730652E+02  0.51100000000E-03 0.  1.
         11    1    3    3    0    0 -0.77716104024E+01  0.62931350638E+01  0.18687584608E+02  0.21194982801E+02  0.51100000000E-03 0. -1.
<mgrwt>
<rscale>  0 0.20000986E+02</rscale>
<asrwt>0</asrwt>
<pdfrwt beam="2">  1        3 0.38225406E-03 0.20000986E+02</pdfrwt>
<pdfrwt beam="1">  1       -3 0.61924712E-02 0.20000986E+02</pdfrwt>
<totfact> 0.16569954E+06</totfact>
</mgrwt>
</event>
<event>
 5    1  0.4133473E-007  0.2000064E+02  0.7818608E-02  0.1745315E+00
         -3   -1    0    0    0  501 -0.00000000000E+00  0.00000000000E+00  0.14591423408E+01  0.14621030644E+01  0.93000000000E-01 0.  1.
          3   -1    0    0  501    0  0.00000000000E+00 -0.00000000000E+00 -0.68465341070E+02  0.68465404233E+02  0.93000000000E-01 0. -1.
       1023    2    1    2    0    0  0.00000000000E+00  0.00000000000E+00 -0.67006198729E+02  0.69927507298E+02  0.20000640208E+02 0.  0.
        -11    1    3    3    0    0 -0.39573503361E+01 -0.91838119934E+01 -0.33706289400E+02  0.35158455168E+02  0.51100000000E-03 0. -1.
         11    1    3    3    0    0  0.39573503361E+01  0.91838119934E+01 -0.33299909329E+02  0.34769052130E+02  0.51100000000E-03 0.  1.
<mgrwt>
<rscale>  0 0.20000640E+02</rscale>
<asrwt>0</asrwt>
<pdfrwt beam="2">  1        3 0.10533359E-01 0.20000640E+02</pdfrwt>
<pdfrwt beam="1">  1       -3 0.22471610E-03 0.20000640E+02</pdfrwt>
<totfact> 0.15315029E+06</totfact>
</mgrwt>
</event>
<event>
 5    1  0.4133473E-007  0.2000052E+02  0.7818608E-02  0.1745318E+00
          3   -1    0    0  501    0  0.00000000000E+00  0.00000000000E+00  0.24949823326E+02  0.24949996653E+02  0.93000000000E-01 0.  1.
         -3   -1    0    0    0  501 -0.00000000000E+00 -0.00000000000E+00 -0.40075252959E+01  0.40086042455E+01  0.93000000000E-01 0. -1.
       1023    2    1    2    0    0  0.00000000000E+00  0.00000000000E+00  0.20942298030E+02  0.28958600899E+02  0.20000517974E+02 0.  0.
        -11    1    3    3    0    0  0.39642032143E+00  0.99923981999E+01  0.10475416990E+02  0.14482386966E+02  0.51100000000E-03 0. -1.
         11    1    3    3    0    0 -0.39642032143E+00 -0.99923981999E+01  0.10466881040E+02  0.14476213933E+02  0.51100000000E-03 0.  1.
<mgrwt>
<rscale>  0 0.20000518E+02</rscale>
<asrwt>0</asrwt>
<pdfrwt beam="1">  1        3 0.38385307E-02 0.20000518E+02</pdfrwt>
<pdfrwt beam="2">  1       -3 0.61663869E-03 0.20000518E+02</pdfrwt>
<totfact> 0.17326549E+06</totfact>
</mgrwt>
</event>
<event>
 5    1  0.4133473E-007  0.2000037E+02  0.7818608E-02  0.1745321E+00
          3   -1    0    0  501    0  0.00000000000E+00  0.00000000000E+00  0.87036489140E+01  0.87041457603E+01  0.93000000000E-01 0.  1.
         -3   -1    0    0    0  501 -0.00000000000E+00 -0.00000000000E+00 -0.11488844960E+02  0.11489221362E+02  0.93000000000E-01 0. -1.
       1023    2    1    2    0    0  0.00000000000E+00  0.00000000000E+00 -0.27851960456E+01  0.20193367122E+02  0.20000368965E+02 0.  0.
        -11    1    3    3    0    0 -0.47653787555E+01 -0.87916911463E+01 -0.14248677416E+01  0.10101134403E+02  0.51100000000E-03 0. -1.
         11    1    3    3    0    0  0.47653787555E+01  0.87916911463E+01 -0.13603283040E+01  0.10092232719E+02  0.51100000000E-03 0.  1.
<mgrwt>
<rscale>  0 0.20000369E+02</rscale>
<asrwt>0</asrwt>
<pdfrwt beam="1">  1        3 0.13390901E-02 0.20000369E+02</pdfrwt>
<pdfrwt beam="2">  1       -3 0.17675818E-02 0.20000369E+02</pdfrwt>
<totfact> 0.17872395E+06</totfact>
</mgrwt>
</event>
<event>
 5    1  0.4133473E-007  0.2000075E+02  0.7818608E-02  0.1745313E+00
          3   -1    0    0  501    0  0.00000000000E+00  0.00000000000E+00  0.52458042866E+02  0.52458125303E+02  0.93000000000E-01 0. -1.
         -3   -1    0    0    0  501 -0.00000000000E+00 -0.00000000000E+00 -0.19052108722E+01  0.19074793492E+01  0.93000000000E-01 0.  1.
       1023    2    1    2    0    0  0.00000000000E+00  0.00000000000E+00  0.50552831994E+02  0.54365604653E+02  0.20000753652E+02 0.  0.
        -11    1    3    3    0    0 -0.19701988919E-01  0.10000328994E+02  0.25211621007E+02  0.27122551543E+02  0.51100000000E-03 0. -1.
         11    1    3    3    0    0  0.19701988919E-01 -0.10000328994E+02  0.25341210987E+02  0.27243053109E+02  0.51100000000E-03 0.  1.
<mgrwt>
<rscale>  0 0.20000754E+02</rscale>
<asrwt>0</asrwt>
<pdfrwt beam="1">  1        3 0.80706495E-02 0.20000754E+02</pdfrwt>
<pdfrwt beam="2">  1       -3 0.29329018E-03 0.20000754E+02</pdfrwt>
<totfact> 0.15998944E+06</totfact>
</mgrwt>
</event>
<event>
 5    1  0.4133473E-007  0.2000006E+02  0.7818608E-02  0.1745327E+00
         -3   -1    0    0    0  501 -0.00000000000E+00  0.00000000000E+00  0.19374729388E+02  0.19374952590E+02  0.93000000000E-01 0. -1.
          3   -1    0    0  501    0  0.00000000000E+00 -0.00000000000E+00 -0.51607200058E+01  0.51615579023E+01  0.93000000000E-01 0.  1.
       1023    2    1    2    0    0  0.00000000000E+00  0.00000000000E+00  0.14214009382E+02  0.24536510492E+02  0.20000057110E+02 0.  0.
        -11    1    3    3    0    0 -0.79267386989E+01  0.60965034269E+01  0.71137695571E+01  0.12272174135E+02  0.51100000000E-03 0.  1.
         11    1    3    3    0    0  0.79267386989E+01 -0.60965034269E+01  0.71002398247E+01  0.12264336356E+02  0.51100000000E-03 0. -1.
<mgrwt>
<rscale>  0 0.20000057E+02</rscale>
<asrwt>0</asrwt>
<pdfrwt beam="2">  1        3 0.79403855E-03 0.20000057E+02</pdfrwt>
<pdfrwt beam="1">  1       -3 0.29808092E-02 0.20000057E+02</pdfrwt>
<totfact> 0.17596429E+06</totfact>
</mgrwt>
</event>
<event>
 4    1  0.4133473E-007  0.2001630E+02  0.7818608E-02  0.1745004E+00
          3   -1    0    0  501    0  0.00000000000E+00  0.00000000000E+00  0.50533418213E+01  0.50541975192E+01  0.93000000000E-01 0. -1.
         -3   -1    0    0    0  501 -0.00000000000E+00 -0.00000000000E+00 -0.19818509118E+02  0.19818727322E+02  0.93000000000E-01 0.  1.
        -11    1    1    2    0    0 -0.54536184633E+01 -0.83916062776E+01 -0.73263801492E+01  0.12403098670E+02  0.51100000000E-03 0.  1.
         11    1    1    2    0    0  0.54536184633E+01  0.83916062776E+01 -0.74387871479E+01  0.12469826172E+02  0.51100000000E-03 0. -1.
<mgrwt>
<rscale>  0 0.20016299E+02</rscale>
<asrwt>0</asrwt>
<pdfrwt beam="1">  1        3 0.77751982E-03 0.20016299E+02</pdfrwt>
<pdfrwt beam="2">  1       -3 0.30490840E-02 0.20016299E+02</pdfrwt>
<totfact> 0.17544882E+06</totfact>
</mgrwt>
</event>
<event>
 5    1  0.4133473E-007  0.2000158E+02  0.7818608E-02  0.1745297E+00
          3   -1    0    0  501    0  0.00000000000E+00  0.00000000000E+00  0.12798028961E+01  0.12831774830E+01  0.93000000000E-01 0.  1.
         -3   -1    0    0    0  501 -0.00000000000E+00 -0.00000000000E+00 -0.78043116114E+02  0.78043171525E+02  0.93000000000E-01 0. -1.
       1023    2    1    2    0    0  0.00000000000E+00  0.00000000000E+00 -0.76763313218E+02  0.79326349008E+02  0.20001584709E+02 0.  0.
        -11    1    3    3    0    0  0.80017864219E+01 -0.59988821846E+01 -0.38484623571E+02  0.39762814602E+02  0.51100000000E-03 0. -1.
         11    1    3    3    0    0 -0.80017864219E+01  0.59988821846E+01 -0.38278689646E+02  0.39563534406E+02  0.51100000000E-03 0.  1.
<mgrwt>
<rscale>  0 0.20001585E+02</rscale>
<asrwt>0</asrwt>
<pdfrwt beam="1">  1        3 0.19715666E-03 0.20001585E+02</pdfrwt>
<pdfrwt beam="2">  1       -3 0.12006893E-01 0.20001585E+02</pdfrwt>
<totfact> 0.14938025E+06</totfact>
</mgrwt>
</event>
<event>
 5    1  0.4133473E-007  0.2000039E+02  0.7818608E-02  0.1745320E+00
          3   -1    0    0  501    0  0.00000000000E+00  0.00000000000E+00  0.82277570125E+00  0.82801500866E+00  0.93000000000E-01 0.  1.
         -3   -1    0    0    0  501 -0.00000000000E+00 -0.00000000000E+00 -0.12115350107E+03  0.12115353677E+03  0.93000000000E-01 0. -1.
       1023    2    1    2    0    0  0.00000000000E+00  0.00000000000E+00 -0.12033072537E+03  0.12198155178E+03  0.20000387626E+02 0.  0.
        -11    1    3    3    0    0  0.12071920743E+01 -0.99270619953E+01 -0.60176731527E+02  0.61001990870E+02  0.51100000000E-03 0. -1.
         11    1    3    3    0    0 -0.12071920743E+01  0.99270619953E+01 -0.60153993844E+02  0.60979560905E+02  0.51100000000E-03 0.  1.
<mgrwt>
<rscale>  0 0.20000388E+02</rscale>
<asrwt>0</asrwt>
<pdfrwt beam="1">  1        3 0.12698674E-03 0.20000388E+02</pdfrwt>
<pdfrwt beam="2">  1       -3 0.18639392E-01 0.20000388E+02</pdfrwt>
<totfact> 0.13461547E+06</totfact>
</mgrwt>
</event>
<event>
 5    1  0.4133473E-007  0.2000036E+02  0.7818608E-02  0.1745321E+00
         -3   -1    0    0    0  501 -0.00000000000E+00  0.00000000000E+00  0.12012854811E+01  0.12048799970E+01  0.93000000000E-01 0. -1.
          3   -1    0    0  501    0  0.00000000000E+00 -0.00000000000E+00 -0.83119163339E+02  0.83119215366E+02  0.93000000000E-01 0.  1.
       1023    2    1    2    0    0  0.00000000000E+00  0.00000000000E+00 -0.81917877857E+02  0.84324095363E+02  0.20000358651E+02 0.  0.
        -11    1    3    3    0    0 -0.52628946199E+01 -0.85030549894E+01 -0.40706592180E+02  0.41916901736E+02  0.51100000000E-03 0. -1.
         11    1    3    3    0    0  0.52628946199E+01  0.85030549894E+01 -0.41211285677E+02  0.42407193628E+02  0.51100000000E-03 0.  1.
<mgrwt>
<rscale>  0 0.20000359E+02</rscale>
<asrwt>0</asrwt>
<pdfrwt beam="2">  1        3 0.12787840E-01 0.20000359E+02</pdfrwt>
<pdfrwt beam="1">  1       -3 0.18509372E-03 0.20000359E+02</pdfrwt>
<totfact> 0.14745034E+06</totfact>
</mgrwt>
</event>
<event>
 5    1  0.4133473E-007  0.2000292E+02  0.7818608E-02  0.1745270E+00
         -3   -1    0    0    0  501 -0.00000000000E+00  0.00000000000E+00  0.63632950064E+01  0.63639745709E+01  0.93000000000E-01 0.  1.
          3   -1    0    0  501    0  0.00000000000E+00 -0.00000000000E+00 -0.15718057910E+02  0.15718333037E+02  0.93000000000E-01 0. -1.
       1023    2    1    2    0    0  0.00000000000E+00  0.00000000000E+00 -0.93547629040E+01  0.22082307608E+02  0.20002917795E+02 0.  0.
        -11    1    3    3    0    0 -0.47415748467E+01  0.88049528342E+01 -0.48313558932E+01  0.11106382240E+02  0.51100000000E-03 0. -1.
         11    1    3    3    0    0  0.47415748467E+01 -0.88049528342E+01 -0.45234070107E+01  0.10975925368E+02  0.51100000000E-03 0.  1.
<mgrwt>
<rscale>  0 0.20002918E+02</rscale>
<asrwt>0</asrwt>
<pdfrwt beam="2">  1        3 0.24182362E-02 0.20002918E+02</pdfrwt>
<pdfrwt beam="1">  1       -3 0.97904190E-03 0.20002918E+02</pdfrwt>
<totfact> 0.17744598E+06</totfact>
</mgrwt>
</event>
<event>
 5    1  0.4133473E-007  0.2000730E+02  0.7818608E-02  0.1745183E+00
          3   -1    0    0  501    0  0.00000000000E+00  0.00000000000E+00  0.64120578754E+02  0.64120646198E+02  0.93000000000E-01 0. -1.
         -3   -1    0    0    0  501 -0.00000000000E+00 -0.00000000000E+00 -0.15592472908E+01  0.15620182822E+01  0.93000000000E-01 0.  1.
       1023    2    1    2    0    0  0.00000000000E+00  0.00000000000E+00  0.62561331464E+02  0.65682664480E+02  0.20007304133E+02 0.  0.
        -11    1    3    3    0    0 -0.18531998234E+01 -0.98287717682E+01  0.31885566750E+02  0.33417487507E+02  0.51100000000E-03 0. -1.
         11    1    3    3    0    0  0.18531998234E+01  0.98287717682E+01  0.30675764713E+02  0.32265176972E+02  0.51100000000E-03 0.  1.
<mgrwt>
<rscale>  0 0.20007304E+02</rscale>
<asrwt>0</asrwt>
<pdfrwt beam="1">  1        3 0.98649238E-02 0.20007304E+02</pdfrwt>
<pdfrwt beam="2">  1       -3 0.24010252E-03 0.20007304E+02</pdfrwt>
<totfact> 0.15483006E+06</totfact>
</mgrwt>
</event>
<event>
 5    1  0.4172232E-007  0.2000112E+02  0.7818608E-02  0.1745306E+00
         -3   -1    0    0    0  501 -0.00000000000E+00  0.00000000000E+00  0.65510892737E+02  0.65510958749E+02  0.93000000000E-01 0.  1.
          3   -1    0    0  501    0  0.00000000000E+00 -0.00000000000E+00 -0.15251509831E+01  0.15279838092E+01  0.93000000000E-01 0. -1.
       1023    2    1    2    0    0  0.00000000000E+00  0.00000000000E+00  0.63985741754E+02  0.67038942558E+02  0.20001116757E+02 0.  0.
        -11    1    3    3    0    0  0.81920902616E+01 -0.57358478050E+01  0.32092001546E+02  0.33614087171E+02  0.51100000000E-03 0.  1.
         11    1    3    3    0    0 -0.81920902616E+01  0.57358478050E+01  0.31893740209E+02  0.33424855387E+02  0.51100000000E-03 0. -1.
<mgrwt>
<rscale>  0 0.20001117E+02</rscale>
<asrwt>0</asrwt>
<pdfrwt beam="2">  1        3 0.23486159E-03 0.20001117E+02</pdfrwt>
<pdfrwt beam="1">  1       -3 0.10078822E-01 0.20001117E+02</pdfrwt>
<totfact> 0.15438352E+06</totfact>
</mgrwt>
</event>
<event>
 5    1  0.4138153E-007  0.2000095E+02  0.7818608E-02  0.1745309E+00
          3   -1    0    0  501    0  0.00000000000E+00  0.00000000000E+00  0.70088028278E+02  0.70088089979E+02  0.93000000000E-01 0.  1.
         -3   -1    0    0    0  501 -0.00000000000E+00 -0.00000000000E+00 -0.14253347419E+01  0.14283655437E+01  0.93000000000E-01 0. -1.
       1023    2    1    2    0    0  0.00000000000E+00  0.00000000000E+00  0.68662693536E+02  0.71516455523E+02  0.20000948150E+02 0.  0.
        -11    1    3    3    0    0  0.93170701222E+01 -0.36331387885E+01  0.34490788168E+02  0.35911306880E+02  0.51100000000E-03 0. -1.
         11    1    3    3    0    0 -0.93170701222E+01  0.36331387885E+01  0.34171905368E+02  0.35605148643E+02  0.51100000000E-03 0.  1.
<mgrwt>
<rscale>  0 0.20000948E+02</rscale>
<asrwt>0</asrwt>
<pdfrwt beam="1">  1        3 0.10783013E-01 0.20000948E+02</pdfrwt>
<pdfrwt beam="2">  1       -3 0.21952012E-03 0.20000948E+02</pdfrwt>
<totfact> 0.15248851E+06</totfact>
</mgrwt>
</event>
<event>
 5    1  0.4133473E-007  0.2000091E+02  0.7818608E-02  0.1745310E+00
          3   -1    0    0  501    0  0.00000000000E+00  0.00000000000E+00  0.27284767126E+01  0.27300612029E+01  0.93000000000E-01 0.  1.
         -3   -1    0    0    0  501 -0.00000000000E+00 -0.00000000000E+00 -0.36641541932E+02  0.36641659954E+02  0.93000000000E-01 0. -1.
       1023    2    1    2    0    0  0.00000000000E+00  0.00000000000E+00 -0.33913065219E+02  0.39371721156E+02  0.20000910835E+02 0.  0.
        -11    1    3    3    0    0 -0.99234021031E+01  0.12388756641E+01 -0.16917853304E+02  0.19652543929E+02  0.51100000000E-03 0. -1.
         11    1    3    3    0    0  0.99234021031E+01 -0.12388756641E+01 -0.16995211915E+02  0.19719177227E+02  0.51100000000E-03 0.  1.
<mgrwt>
<rscale>  0 0.20000911E+02</rscale>
<asrwt>0</asrwt>
<pdfrwt beam="1">  1        3 0.41989663E-03 0.20000911E+02</pdfrwt>
<pdfrwt beam="2">  1       -3 0.56372909E-02 0.20000911E+02</pdfrwt>
<totfact> 0.16745627E+06</totfact>
</mgrwt>
</event>
<event>
 5    1  0.4133473E-007  0.2000103E+02  0.7818608E-02  0.1745308E+00
          3   -1    0    0  501    0  0.00000000000E+00  0.00000000000E+00  0.70478364179E+02  0.70478425538E+02  0.93000000000E-01 0.  1.
         -3   -1    0    0    0  501 -0.00000000000E+00 -0.00000000000E+00 -0.14174349360E+01  0.14204825933E+01  0.93000000000E-01 0. -1.
       1023    2    1    2    0    0  0.00000000000E+00  0.00000000000E+00  0.69060929243E+02  0.71898908132E+02  0.20001026039E+02 0.  0.
        -11    1    3    3    0    0  0.89307384509E+01  0.44997546068E+01  0.34768360411E+02  0.36177959681E+02  0.51100000000E-03 0. -1.
         11    1    3    3    0    0 -0.89307384509E+01 -0.44997546068E+01  0.34292568833E+02  0.35720948451E+02  0.51100000000E-03 0.  1.
<mgrwt>
<rscale>  0 0.20001026E+02</rscale>
<asrwt>0</asrwt>
<pdfrwt beam="1">  1        3 0.10843064E-01 0.20001026E+02</pdfrwt>
<pdfrwt beam="2">  1       -3 0.21830608E-03 0.20001026E+02</pdfrwt>
<totfact> 0.15233024E+06</totfact>
</mgrwt>
</event>
<event>
 4    1  0.4133473E-007  0.2002134E+02  0.7818608E-02  0.1744904E+00
         -3   -1    0    0    0  501 -0.00000000000E+00  0.00000000000E+00  0.28883771144E+02  0.28883920864E+02  0.93000000000E-01 0.  1.
          3   -1    0    0  501    0  0.00000000000E+00 -0.00000000000E+00 -0.34687606119E+01  0.34700070869E+01  0.93000000000E-01 0. -1.
        -11    1    1    2    0    0  0.65411054373E+01  0.75762064246E+01  0.12434654688E+02  0.15962631412E+02  0.51100000000E-03 0. -1.
         11    1    1    2    0    0 -0.65411054373E+01 -0.75762064246E+01  0.12980355843E+02  0.16391296538E+02  0.51100000000E-03 0.  1.
<mgrwt>
<rscale>  0 0.20021336E+02</rscale>
<asrwt>0</asrwt>
<pdfrwt beam="2">  1        3 0.53376286E-03 0.20021336E+02</pdfrwt>
<pdfrwt beam="1">  1       -3 0.44437646E-02 0.20021336E+02</pdfrwt>
<totfact> 0.17093270E+06</totfact>
</mgrwt>
</event>
<event>
 5    1  0.4133473E-007  0.2000146E+02  0.7818608E-02  0.1745299E+00
         -3   -1    0    0    0  501 -0.00000000000E+00  0.00000000000E+00  0.64666278259E+02  0.64666345133E+02  0.93000000000E-01 0.  1.
          3   -1    0    0  501    0  0.00000000000E+00 -0.00000000000E+00 -0.15451609596E+01  0.15479571671E+01  0.93000000000E-01 0. -1.
       1023    2    1    2    0    0  0.00000000000E+00  0.00000000000E+00  0.63121117299E+02  0.66214302300E+02  0.20001459446E+02 0.  0.
        -11    1    3    3    0    0 -0.70567184380E+01  0.70861372690E+01  0.31351756597E+02  0.32908103234E+02  0.51100000000E-03 0. -1.
         11    1    3    3    0    0  0.70567184380E+01 -0.70861372690E+01  0.31769360702E+02  0.33306199066E+02  0.51100000000E-03 0.  1.
<mgrwt>
<rscale>  0 0.20001459E+02</rscale>
<asrwt>0</asrwt>
<pdfrwt beam="2">  1        3 0.23793732E-03 0.20001459E+02</pdfrwt>
<pdfrwt beam="1">  1       -3 0.99488780E-02 0.20001459E+02</pdfrwt>
<totfact> 0.15472848E+06</totfact>
</mgrwt>
</event>
<event>
 5    1  0.4133473E-007  0.2000270E+02  0.7818608E-02  0.1745274E+00
         -3   -1    0    0    0  501 -0.00000000000E+00  0.00000000000E+00  0.23377995703E+02  0.23378180684E+02  0.93000000000E-01 0. -1.
          3   -1    0    0  501    0  0.00000000000E+00 -0.00000000000E+00 -0.42779758747E+01  0.42789866306E+01  0.93000000000E-01 0.  1.
       1023    2    1    2    0    0  0.00000000000E+00  0.00000000000E+00  0.19100019828E+02  0.27657167314E+02  0.20002703478E+02 0.  0.
        -11    1    3    3    0    0 -0.10992873830E+01  0.99407519439E+01  0.95398135346E+01  0.13821542045E+02  0.51100000000E-03 0.  1.
         11    1    3    3    0    0  0.10992873830E+01 -0.99407519439E+01  0.95602062933E+01  0.13835625269E+02  0.51100000000E-03 0. -1.
<mgrwt>
<rscale>  0 0.20002703E+02</rscale>
<asrwt>0</asrwt>
<pdfrwt beam="2">  1        3 0.65824209E-03 0.20002703E+02</pdfrwt>
<pdfrwt beam="1">  1       -3 0.35967068E-02 0.20002703E+02</pdfrwt>
<totfact> 0.17401389E+06</totfact>
</mgrwt>
</event>
<event>
 4    1  0.4133473E-007  0.2001334E+02  0.7818608E-02  0.1745063E+00
         -3   -1    0    0    0  501 -0.00000000000E+00  0.00000000000E+00  0.74422773125E+02  0.74422831233E+02  0.93000000000E-01 0. -1.
          3   -1    0    0  501    0  0.00000000000E+00 -0.00000000000E+00 -0.13438023519E+01  0.13470166150E+01  0.93000000000E-01 0.  1.
        -11    1    1    2    0    0 -0.95385315711E+01 -0.30189689892E+01  0.37254921231E+02  0.38574951905E+02  0.51100000000E-03 0. -1.
         11    1    1    2    0    0  0.95385315711E+01  0.30189689892E+01  0.35824049542E+02  0.37194895942E+02  0.51100000000E-03 0.  1.
<mgrwt>
<rscale>  0 0.20013342E+02</rscale>
<asrwt>0</asrwt>
<pdfrwt beam="2">  1        3 0.20699050E-03 0.20013342E+02</pdfrwt>
<pdfrwt beam="1">  1       -3 0.11449911E-01 0.20013342E+02</pdfrwt>
<totfact> 0.15059394E+06</totfact>
</mgrwt>
</event>
<event>
 5    1  0.4133473E-007  0.2000048E+02  0.7818608E-02  0.1745319E+00
         -3   -1    0    0    0  501 -0.00000000000E+00  0.00000000000E+00  0.25526774908E+01  0.25543710326E+01  0.93000000000E-01 0.  1.
          3   -1    0    0  501    0  0.00000000000E+00 -0.00000000000E+00 -0.39161689794E+02  0.39161800221E+02  0.93000000000E-01 0. -1.
       1023    2    1    2    0    0  0.00000000000E+00  0.00000000000E+00 -0.36609012304E+02  0.41716171254E+02  0.20000479050E+02 0.  0.
        -11    1    3    3    0    0  0.78643712902E+01 -0.61769061930E+01 -0.18404195493E+02  0.20945570365E+02  0.51100000000E-03 0. -1.
         11    1    3    3    0    0 -0.78643712902E+01  0.61769061930E+01 -0.18204816811E+02  0.20770600889E+02  0.51100000000E-03 0.  1.
<mgrwt>
<rscale>  0 0.20000479E+02</rscale>
<asrwt>0</asrwt>
<pdfrwt beam="2">  1        3 0.60250137E-02 0.20000479E+02</pdfrwt>
<pdfrwt beam="1">  1       -3 0.39285841E-03 0.20000479E+02</pdfrwt>
<totfact> 0.16621198E+06</totfact>
</mgrwt>
</event>
<event>
 5    1  0.4133473E-007  0.2000193E+02  0.7818608E-02  0.1745290E+00
          3   -1    0    0  501    0  0.00000000000E+00  0.00000000000E+00  0.82303662564E+00  0.82827428255E+00  0.93000000000E-01 0.  1.
         -3   -1    0    0    0  501 -0.00000000000E+00 -0.00000000000E+00 -0.12113397425E+03  0.12113400995E+03  0.93000000000E-01 0. -1.
       1023    2    1    2    0    0  0.00000000000E+00  0.00000000000E+00 -0.12031093762E+03  0.12196228423E+03  0.20001926487E+02 0.  0.
        -11    1    3    3    0    0 -0.80056899594E+01 -0.59938739042E+01 -0.60404605869E+02  0.61226905903E+02  0.51100000000E-03 0.  1.
         11    1    3    3    0    0  0.80056899594E+01  0.59938739042E+01 -0.59906331755E+02  0.60735378329E+02  0.51100000000E-03 0. -1.
<mgrwt>
<rscale>  0 0.20001926E+02</rscale>
<asrwt>0</asrwt>
<pdfrwt beam="1">  1        3 0.12702676E-03 0.20001926E+02</pdfrwt>
<pdfrwt beam="2">  1       -3 0.18636388E-01 0.20001926E+02</pdfrwt>
<totfact> 0.13459920E+06</totfact>
</mgrwt>
</event>
<event>
 5    1  0.4315472E-007  0.2000151E+02  0.7818608E-02  0.1745298E+00
          3   -1    0    0  501    0  0.00000000000E+00  0.00000000000E+00  0.13044593402E+02  0.13044924914E+02  0.93000000000E-01 0.  1.
         -3   -1    0    0    0  501 -0.00000000000E+00 -0.00000000000E+00 -0.76664563435E+01  0.76670204034E+01  0.93000000000E-01 0. -1.
       1023    2    1    2    0    0  0.00000000000E+00  0.00000000000E+00  0.53781370585E+01  0.20711945318E+02  0.20001507959E+02 0.  0.
        -11    1    3    3    0    0 -0.31581836010E+01  0.94882497797E+01  0.25662280345E+01  0.10324075461E+02  0.51100000000E-03 0. -1.
         11    1    3    3    0    0  0.31581836010E+01 -0.94882497797E+01  0.28119090241E+01  0.10387869857E+02  0.51100000000E-03 0.  1.
<mgrwt>
<rscale>  0 0.20001508E+02</rscale>
<asrwt>0</asrwt>
<pdfrwt beam="1">  1        3 0.20069294E-02 0.20001508E+02</pdfrwt>
<pdfrwt beam="2">  1       -3 0.11795237E-02 0.20001508E+02</pdfrwt>
<totfact> 0.17836010E+06</totfact>
</mgrwt>
</event>
<event>
 5    1  0.4133473E-007  0.2000051E+02  0.7818608E-02  0.1745318E+00
         -3   -1    0    0    0  501 -0.00000000000E+00  0.00000000000E+00  0.11405038724E+02  0.11405417892E+02  0.93000000000E-01 0.  1.
          3   -1    0    0  501    0  0.00000000000E+00 -0.00000000000E+00 -0.87677298008E+01  0.87682230161E+01  0.93000000000E-01 0. -1.
       1023    2    1    2    0    0  0.00000000000E+00  0.00000000000E+00  0.26373089230E+01  0.20173640908E+02  0.20000509722E+02 0.  0.
        -11    1    3    3    0    0 -0.90689508676E+01 -0.42135846830E+01  0.13894855754E+01  0.10096080237E+02  0.51100000000E-03 0.  1.
         11    1    3    3    0    0  0.90689508676E+01  0.42135846830E+01  0.12478233476E+01  0.10077560672E+02  0.51100000000E-03 0. -1.
<mgrwt>
<rscale>  0 0.20000510E+02</rscale>
<asrwt>0</asrwt>
<pdfrwt beam="2">  1        3 0.13489486E-02 0.20000510E+02</pdfrwt>
<pdfrwt beam="1">  1       -3 0.17546884E-02 0.20000510E+02</pdfrwt>
<totfact> 0.17873415E+06</totfact>
</mgrwt>
</event>
<event>
 5    1  0.4133473E-007  0.2000051E+02  0.7818608E-02  0.1745318E+00
          3   -1    0    0  501    0  0.00000000000E+00  0.00000000000E+00  0.12931166691E+02  0.12931501112E+02  0.93000000000E-01 0.  1.
         -3   -1    0    0    0  501 -0.00000000000E+00 -0.00000000000E+00 -0.77329347350E+01  0.77334939462E+01  0.93000000000E-01 0. -1.
       1023    2    1    2    0    0  0.00000000000E+00  0.00000000000E+00  0.51982319564E+01  0.20664995058E+02  0.20000510125E+02 0.  0.
        -11    1    3    3    0    0 -0.72684758625E+01 -0.68681357322E+01  0.25418558511E+01  0.10318093876E+02  0.51100000000E-03 0. -1.
         11    1    3    3    0    0  0.72684758625E+01  0.68681357322E+01  0.26563761053E+01  0.10346901182E+02  0.51100000000E-03 0.  1.
<mgrwt>
<rscale>  0 0.20000510E+02</rscale>
<asrwt>0</asrwt>
<pdfrwt beam="1">  1        3 0.19894790E-02 0.20000510E+02</pdfrwt>
<pdfrwt beam="2">  1       -3 0.11897510E-02 0.20000510E+02</pdfrwt>
<totfact> 0.17840983E+06</totfact>
</mgrwt>
</event>
<event>
 5    1  0.4305151E-007  0.2000080E+02  0.7818608E-02  0.1745312E+00
         -3   -1    0    0    0  501 -0.00000000000E+00  0.00000000000E+00  0.95038665133E+01  0.95043215278E+01  0.93000000000E-01 0. -1.
          3   -1    0    0  501    0  0.00000000000E+00 -0.00000000000E+00 -0.10521962123E+02  0.10522373112E+02  0.93000000000E-01 0.  1.
       1023    2    1    2    0    0  0.00000000000E+00  0.00000000000E+00 -0.10180956093E+01  0.20026694640E+02  0.20000799472E+02 0.  0.
        -11    1    3    3    0    0 -0.90553964258E+01 -0.42430536723E+01 -0.44349758076E+00  0.10010014948E+02  0.51100000000E-03 0.  1.
         11    1    3    3    0    0  0.90553964258E+01  0.42430536723E+01 -0.57459802853E+00  0.10016679692E+02  0.51100000000E-03 0. -1.
<mgrwt>
<rscale>  0 0.20000799E+02</rscale>
<asrwt>0</asrwt>
<pdfrwt beam="2">  1        3 0.16188300E-02 0.20000799E+02</pdfrwt>
<pdfrwt beam="1">  1       -3 0.14621999E-02 0.20000799E+02</pdfrwt>
<totfact> 0.17882307E+06</totfact>
</mgrwt>
</event>
<event>
 5    1  0.4133473E-007  0.2000024E+02  0.7818608E-02  0.1745323E+00
          3   -1    0    0  501    0  0.00000000000E+00  0.00000000000E+00  0.26822201688E+02  0.26822362916E+02  0.93000000000E-01 0. -1.
         -3   -1    0    0    0  501 -0.00000000000E+00 -0.00000000000E+00 -0.37275907832E+01  0.37287507354E+01  0.93000000000E-01 0.  1.
       1023    2    1    2    0    0  0.00000000000E+00  0.00000000000E+00  0.23094610905E+02  0.30551113652E+02  0.20000237311E+02 0.  0.
        -11    1    3    3    0    0 -0.24178861605E+01 -0.97033022124E+01  0.11476880314E+02  0.15222320103E+02  0.51100000000E-03 0. -1.
         11    1    3    3    0    0  0.24178861605E+01  0.97033022124E+01  0.11617730591E+02  0.15328793549E+02  0.51100000000E-03 0.  1.
<mgrwt>
<rscale>  0 0.20000237E+02</rscale>
<asrwt>0</asrwt>
<pdfrwt beam="1">  1        3 0.41265942E-02 0.20000237E+02</pdfrwt>
<pdfrwt beam="2">  1       -3 0.57357713E-03 0.20000237E+02</pdfrwt>
<totfact> 0.17233901E+06</totfact>
</mgrwt>
</event>
<event>
 5    1  0.4133473E-007  0.2000373E+02  0.7818608E-02  0.1745254E+00
         -3   -1    0    0    0  501 -0.00000000000E+00  0.00000000000E+00  0.17056010841E+01  0.17081346722E+01  0.93000000000E-01 0. -1.
          3   -1    0    0  501    0  0.00000000000E+00 -0.00000000000E+00 -0.58606121197E+02  0.58606194986E+02  0.93000000000E-01 0.  1.
       1023    2    1    2    0    0  0.00000000000E+00  0.00000000000E+00 -0.56900520113E+02  0.60314329658E+02  0.20003728978E+02 0.  0.
        -11    1    3    3    0    0 -0.98137276414E+01 -0.19287304624E+01 -0.28720643528E+02  0.30412244513E+02  0.51100000000E-03 0.  1.
         11    1    3    3    0    0  0.98137276414E+01  0.19287304624E+01 -0.28179876585E+02  0.29902085145E+02  0.51100000000E-03 0. -1.
<mgrwt>
<rscale>  0 0.20003729E+02</rscale>
<asrwt>0</asrwt>
<pdfrwt beam="2">  1        3 0.90165254E-02 0.20003729E+02</pdfrwt>
<pdfrwt beam="1">  1       -3 0.26260078E-03 0.20003729E+02</pdfrwt>
<totfact> 0.15723318E+06</totfact>
</mgrwt>
</event>
<event>
 5    1  0.4133473E-007  0.2000055E+02  0.7818608E-02  0.1745317E+00
          3   -1    0    0  501    0  0.00000000000E+00  0.00000000000E+00  0.54269632940E+02  0.54269712625E+02  0.93000000000E-01 0. -1.
         -3   -1    0    0    0  501 -0.00000000000E+00 -0.00000000000E+00 -0.18414975040E+01  0.18438443690E+01  0.93000000000E-01 0.  1.
       1023    2    1    2    0    0  0.00000000000E+00  0.00000000000E+00  0.52428135436E+02  0.56113556994E+02  0.20000547324E+02 0.  0.
        -11    1    3    3    0    0  0.65639174489E+01 -0.75443365457E+01  0.26049350889E+02  0.27902879927E+02  0.51100000000E-03 0. -1.
         11    1    3    3    0    0 -0.65639174489E+01  0.75443365457E+01  0.26378784546E+02  0.28210677067E+02  0.51100000000E-03 0.  1.
<mgrwt>
<rscale>  0 0.20000547E+02</rscale>
<asrwt>0</asrwt>
<pdfrwt beam="1">  1        3 0.83493600E-02 0.20000547E+02</pdfrwt>
<pdfrwt beam="2">  1       -3 0.28349400E-03 0.20000547E+02</pdfrwt>
<totfact> 0.15918494E+06</totfact>
</mgrwt>
</event>
<event>
 4    1  0.4133473E-007  0.2001705E+02  0.7818608E-02  0.1744989E+00
          3   -1    0    0  501    0  0.00000000000E+00  0.00000000000E+00  0.14856935872E+02  0.14857226946E+02  0.93000000000E-01 0.  1.
         -3   -1    0    0    0  501 -0.00000000000E+00 -0.00000000000E+00 -0.67416668662E+01  0.67423082943E+01  0.93000000000E-01 0. -1.
        -11    1    1    2    0    0 -0.99913014453E+01  0.51514368716E+00  0.43611258918E+01  0.10913793882E+02  0.51100000000E-03 0.  1.
         11    1    1    2    0    0  0.99913014453E+01 -0.51514368716E+00  0.37541431143E+01  0.10685741358E+02  0.51100000000E-03 0. -1.
<mgrwt>
<rscale>  0 0.20017051E+02</rscale>
<asrwt>0</asrwt>
<pdfrwt beam="1">  1        3 0.22857542E-02 0.20017051E+02</pdfrwt>
<pdfrwt beam="2">  1       -3 0.10372513E-02 0.20017051E+02</pdfrwt>
<totfact> 0.17748579E+06</totfact>
</mgrwt>
</event>
<event>
 5    1  0.4209531E-007  0.2000080E+02  0.7818608E-02  0.1745312E+00
          3   -1    0    0  501    0  0.00000000000E+00  0.00000000000E+00  0.34760688785E+01  0.34773127337E+01  0.93000000000E-01 0. -1.
         -3   -1    0    0    0  501 -0.00000000000E+00 -0.00000000000E+00 -0.28763956488E+02  0.28764106832E+02  0.93000000000E-01 0.  1.
       1023    2    1    2    0    0  0.00000000000E+00  0.00000000000E+00 -0.25287887610E+02  0.32241419566E+02  0.20000796881E+02 0.  0.
        -11    1    3    3    0    0 -0.43577788969E+01  0.90009708898E+01 -0.12669676965E+02  0.16140893052E+02  0.51100000000E-03 0.  1.
         11    1    3    3    0    0  0.43577788969E+01 -0.90009708898E+01 -0.12618210645E+02  0.16100526513E+02  0.51100000000E-03 0. -1.
<mgrwt>
<rscale>  0 0.20000797E+02</rscale>
<asrwt>0</asrwt>
<pdfrwt beam="1">  1        3 0.53488709E-03 0.20000797E+02</pdfrwt>
<pdfrwt beam="2">  1       -3 0.44253312E-02 0.20000797E+02</pdfrwt>
<totfact> 0.17137460E+06</totfact>
</mgrwt>
</event>
<event>
 5    1  0.4133473E-007  0.2000057E+02  0.7818608E-02  0.1745317E+00
          3   -1    0    0  501    0  0.00000000000E+00  0.00000000000E+00  0.68646543146E+02  0.68646606143E+02  0.93000000000E-01 0.  1.
         -3   -1    0    0    0  501 -0.00000000000E+00 -0.00000000000E+00 -0.14552725321E+01  0.14582411127E+01  0.93000000000E-01 0. -1.
       1023    2    1    2    0    0  0.00000000000E+00  0.00000000000E+00  0.67191270614E+02  0.70104847255E+02  0.20000569041E+02 0.  0.
        -11    1    3    3    0    0  0.75521148603E+01 -0.65549956147E+01  0.33796497488E+02  0.35244937922E+02  0.51100000000E-03 0. -1.
         11    1    3    3    0    0 -0.75521148603E+01  0.65549956147E+01  0.33394773126E+02  0.34859909334E+02  0.51100000000E-03 0.  1.
<mgrwt>
<rscale>  0 0.20000569E+02</rscale>
<asrwt>0</asrwt>
<pdfrwt beam="1">  1        3 0.10561242E-01 0.20000569E+02</pdfrwt>
<pdfrwt beam="2">  1       -3 0.22412123E-03 0.20000569E+02</pdfrwt>
<totfact> 0.15307780E+06</totfact>
</mgrwt>
</event>
<event>
 5    1  0.4133473E-007  0.2000035E+02  0.7818608E-02  0.1745321E+00
         -3   -1    0    0    0  501 -0.00000000000E+00  0.00000000000E+00  0.57972501421E+02  0.57972576016E+02  0.93000000000E-01 0. -1.
          3   -1    0    0  501    0  0.00000000000E+00 -0.00000000000E+00 -0.17236873173E+01  0.17261943598E+01  0.93000000000E-01 0.  1.
       1023    2    1    2    0    0  0.00000000000E+00  0.00000000000E+00  0.56248814103E+02  0.59698770376E+02  0.20000352407E+02 0.  0.
        -11    1    3    3    0    0 -0.59399677310E+01 -0.80447767735E+01  0.28253616965E+02  0.29971128137E+02  0.51100000000E-03 0.  1.
         11    1    3    3    0    0  0.59399677310E+01  0.80447767735E+01  0.27995197139E+02  0.29727642239E+02  0.51100000000E-03 0. -1.
<mgrwt>
<rscale>  0 0.20000352E+02</rscale>
<asrwt>0</asrwt>
<pdfrwt beam="2">  1        3 0.26538123E-03 0.20000352E+02</pdfrwt>
<pdfrwt beam="1">  1       -3 0.89190457E-02 0.20000352E+02</pdfrwt>
<totfact> 0.15759267E+06</totfact>
</mgrwt>
</event>
<event>
 5    1  0.4178246E-007  0.2000079E+02  0.7818608E-02  0.1745312E+00
          3   -1    0    0  501    0  0.00000000000E+00  0.00000000000E+00  0.74859022468E+01  0.74864799103E+01  0.93000000000E-01 0.  1.
         -3   -1    0    0    0  501 -0.00000000000E+00 -0.00000000000E+00 -0.13358244441E+02  0.13358568169E+02  0.93000000000E-01 0. -1.
       1023    2    1    2    0    0  0.00000000000E+00  0.00000000000E+00 -0.58723421938E+01  0.20845048080E+02  0.20000790649E+02 0.  0.
        -11    1    3    3    0    0 -0.14668791814E+01  0.98922120697E+01 -0.29545868483E+01  0.10427712015E+02  0.51100000000E-03 0.  1.
         11    1    3    3    0    0  0.14668791814E+01 -0.98922120697E+01 -0.29177553455E+01  0.10417336065E+02  0.51100000000E-03 0. -1.
<mgrwt>
<rscale>  0 0.20000791E+02</rscale>
<asrwt>0</asrwt>
<pdfrwt beam="1">  1        3 0.11517466E-02 0.20000791E+02</pdfrwt>
<pdfrwt beam="2">  1       -3 0.20551839E-02 0.20000791E+02</pdfrwt>
<totfact> 0.17829186E+06</totfact>
</mgrwt>
</event>
<event>
 5    1  0.4202338E-007  0.2000067E+02  0.7818608E-02  0.1745315E+00
          3   -1    0    0  501    0  0.00000000000E+00  0.00000000000E+00  0.84890611308E+01  0.84895705358E+01  0.93000000000E-01 0.  1.
         -3   -1    0    0    0  501 -0.00000000000E+00 -0.00000000000E+00 -0.11779608262E+02  0.11779975374E+02  0.93000000000E-01 0. -1.
       1023    2    1    2    0    0  0.00000000000E+00  0.00000000000E+00 -0.32905471311E+01  0.20269545909E+02  0.20000669763E+02 0.  0.
        -11    1    3    3    0    0  0.72942575159E+01  0.68409397096E+01 -0.16911441485E+01  0.10142219560E+02  0.51100000000E-03 0. -1.
         11    1    3    3    0    0 -0.72942575159E+01 -0.68409397096E+01 -0.15994029826E+01  0.10127326349E+02  0.51100000000E-03 0.  1.
<mgrwt>
<rscale>  0 0.20000670E+02</rscale>
<asrwt>0</asrwt>
<pdfrwt beam="1">  1        3 0.13060768E-02 0.20000670E+02</pdfrwt>
<pdfrwt beam="2">  1       -3 0.18123148E-02 0.20000670E+02</pdfrwt>
<totfact> 0.17866836E+06</totfact>
</mgrwt>
</event>
<event>
 5    1  0.4133473E-007  0.2000478E+02  0.7818608E-02  0.1745233E+00
          3   -1    0    0  501    0  0.00000000000E+00  0.00000000000E+00  0.48960615678E+02  0.48960704004E+02  0.93000000000E-01 0.  1.
         -3   -1    0    0    0  501 -0.00000000000E+00 -0.00000000000E+00 -0.20422863451E+01  0.20444027283E+01  0.93000000000E-01 0. -1.
       1023    2    1    2    0    0  0.00000000000E+00  0.00000000000E+00  0.46918329333E+02  0.51005106732E+02  0.20004781563E+02 0.  0.
        -11    1    3    3    0    0  0.68588986037E+01  0.72798259166E+01  0.23679464275E+02  0.25705201498E+02  0.51100000000E-03 0.  1.
         11    1    3    3    0    0 -0.68588986037E+01 -0.72798259166E+01  0.23238865058E+02  0.25299905234E+02  0.51100000000E-03 0. -1.
<mgrwt>
<rscale>  0 0.20004782E+02</rscale>
<asrwt>0</asrwt>
<pdfrwt beam="1">  1        3 0.75325717E-02 0.20004782E+02</pdfrwt>
<pdfrwt beam="2">  1       -3 0.31436751E-03 0.20004782E+02</pdfrwt>
<totfact> 0.16150578E+06</totfact>
</mgrwt>
</event>
<event>
 5    1  0.4133473E-007  0.2000037E+02  0.7818608E-02  0.1745321E+00
         -3   -1    0    0    0  501 -0.00000000000E+00  0.00000000000E+00  0.18384500647E+02  0.18384735871E+02  0.93000000000E-01 0. -1.
          3   -1    0    0  501    0  0.00000000000E+00 -0.00000000000E+00 -0.54388984508E+01  0.54396934985E+01  0.93000000000E-01 0.  1.
       1023    2    1    2    0    0  0.00000000000E+00  0.00000000000E+00  0.12945602196E+02  0.23824429369E+02  0.20000370460E+02 0.  0.
        -11    1    3    3    0    0  0.61031879595E+00  0.99815031102E+01  0.64388779669E+01  0.11893781699E+02  0.51100000000E-03 0. -1.
         11    1    3    3    0    0 -0.61031879595E+00 -0.99815031102E+01  0.65067242291E+01  0.11930647670E+02  0.51100000000E-03 0.  1.
<mgrwt>
<rscale>  0 0.20000370E+02</rscale>
<asrwt>0</asrwt>
<pdfrwt beam="2">  1        3 0.83683284E-03 0.20000370E+02</pdfrwt>
<pdfrwt beam="1">  1       -3 0.28284640E-02 0.20000370E+02</pdfrwt>
<totfact> 0.17640179E+06</totfact>
</mgrwt>
</event>
<event>
 5    1  0.4133473E-007  0.2000253E+02  0.7818608E-02  0.1745278E+00
         -3   -1    0    0    0  501 -0.00000000000E+00  0.00000000000E+00  0.14586091182E+01  0.14615709219E+01  0.93000000000E-01 0. -1.
          3   -1    0    0  501    0  0.00000000000E+00 -0.00000000000E+00 -0.68503249498E+02  0.68503312626E+02  0.93000000000E-01 0.  1.
       1023    2    1    2    0    0  0.00000000000E+00  0.00000000000E+00 -0.67044640380E+02  0.69964883548E+02  0.20002527997E+02 0.  0.
        -11    1    3    3    0    0  0.95533131095E+01  0.29574362233E+01 -0.33922064354E+02  0.35365501137E+02  0.51100000000E-03 0.  1.
         11    1    3    3    0    0 -0.95533131095E+01 -0.29574362233E+01 -0.33122576026E+02  0.34599382411E+02  0.51100000000E-03 0. -1.
<mgrwt>
<rscale>  0 0.20002528E+02</rscale>
<asrwt>0</asrwt>
<pdfrwt beam="2">  1        3 0.10539192E-01 0.20002528E+02</pdfrwt>
<pdfrwt beam="1">  1       -3 0.22463414E-03 0.20002528E+02</pdfrwt>
<totfact> 0.15310373E+06</totfact>
</mgrwt>
</event>
<event>
 5    1  0.4133473E-007  0.2001188E+02  0.7818608E-02  0.1745092E+00
          3   -1    0    0  501    0  0.00000000000E+00  0.00000000000E+00  0.88260629963E+01  0.88265529520E+01  0.93000000000E-01 0.  1.
         -3   -1    0    0    0  501 -0.00000000000E+00 -0.00000000000E+00 -0.11342546318E+02  0.11342927576E+02  0.93000000000E-01 0. -1.
       1023    2    1    2    0    0  0.00000000000E+00  0.00000000000E+00 -0.25164833221E+01  0.20169480528E+02  0.20011877884E+02 0.  0.
        -11    1    3    3    0    0 -0.47662166175E+00  0.99909017170E+01 -0.98494470997E+00  0.10050641854E+02  0.51100000000E-03 0. -1.
         11    1    3    3    0    0  0.47662166175E+00 -0.99909017170E+01 -0.15315386121E+01  0.10118838674E+02  0.51100000000E-03 0.  1.
<mgrwt>
<rscale>  0 0.20011878E+02</rscale>
<asrwt>0</asrwt>
<pdfrwt beam="1">  1        3 0.13579228E-02 0.20011878E+02</pdfrwt>
<pdfrwt beam="2">  1       -3 0.17450742E-02 0.20011878E+02</pdfrwt>
<totfact> 0.17851815E+06</totfact>
</mgrwt>
</event>
<event>
 4    1  0.4133473E-007  0.2001428E+02  0.7818608E-02  0.1745044E+00
         -3   -1    0    0    0  501 -0.00000000000E+00  0.00000000000E+00  0.12624820947E+02  0.12625163482E+02  0.93000000000E-01 0.  1.
          3   -1    0    0  501    0  0.00000000000E+00 -0.00000000000E+00 -0.79314959712E+01  0.79320411837E+01  0.93000000000E-01 0. -1.
        -11    1    1    2    0    0  0.89200001620E+01 -0.45361200051E+01  0.23391684553E+01  0.10276891403E+02  0.51100000000E-03 0.  1.
         11    1    1    2    0    0 -0.89200001620E+01  0.45361200051E+01  0.23541565207E+01  0.10280313263E+02  0.51100000000E-03 0. -1.
<mgrwt>
<rscale>  0 0.20014279E+02</rscale>
<asrwt>0</asrwt>
<pdfrwt beam="2">  1        3 0.12202984E-02 0.20014279E+02</pdfrwt>
<pdfrwt beam="1">  1       -3 0.19423484E-02 0.20014279E+02</pdfrwt>
<totfact> 0.17821974E+06</totfact>
</mgrwt>
</event>
<event>
 5    1  0.4133473E-007  0.2000085E+02  0.7818608E-02  0.1745311E+00
          3   -1    0    0  501    0  0.00000000000E+00  0.00000000000E+00  0.21548149732E+01  0.21568209403E+01  0.93000000000E-01 0.  1.
         -3   -1    0    0    0  501 -0.00000000000E+00 -0.00000000000E+00 -0.46388000599E+02  0.46388093824E+02  0.93000000000E-01 0. -1.
       1023    2    1    2    0    0  0.00000000000E+00  0.00000000000E+00 -0.44233185626E+02  0.48544914764E+02  0.20000850952E+02 0.  0.
        -11    1    3    3    0    0 -0.98573887651E+01  0.16848003503E+01 -0.22012368134E+02  0.24177489874E+02  0.51100000000E-03 0.  1.
         11    1    3    3    0    0  0.98573887651E+01 -0.16848003503E+01 -0.22220817493E+02  0.24367424890E+02  0.51100000000E-03 0. -1.
<mgrwt>
<rscale>  0 0.20000851E+02</rscale>
<asrwt>0</asrwt>
<pdfrwt beam="1">  1        3 0.33167151E-03 0.20000851E+02</pdfrwt>
<pdfrwt beam="2">  1       -3 0.71367762E-02 0.20000851E+02</pdfrwt>
<totfact> 0.16278920E+06</totfact>
</mgrwt>
</event>
<event>
 5    1  0.4133473E-007  0.2000032E+02  0.7818608E-02  0.1745322E+00
         -3   -1    0    0    0  501 -0.00000000000E+00  0.00000000000E+00  0.10002721230E+03  0.10002725554E+03  0.93000000000E-01 0. -1.
          3   -1    0    0  501    0  0.00000000000E+00 -0.00000000000E+00 -0.99755347893E+00  0.10018792060E+01  0.93000000000E-01 0.  1.
       1023    2    1    2    0    0  0.00000000000E+00  0.00000000000E+00  0.99029658824E+02  0.10102913474E+03  0.20000318496E+02 0.  0.
        -11    1    3    3    0    0 -0.93025082315E+01 -0.36696542034E+01  0.49579391030E+02  0.50577851244E+02  0.51100000000E-03 0. -1.
         11    1    3    3    0    0  0.93025082315E+01  0.36696542034E+01  0.49450267794E+02  0.50451283498E+02  0.51100000000E-03 0.  1.
<mgrwt>
<rscale>  0 0.20000318E+02</rscale>
<asrwt>0</asrwt>
<pdfrwt beam="2">  1        3 0.15380584E-03 0.20000318E+02</pdfrwt>
<pdfrwt beam="1">  1       -3 0.15389138E-01 0.20000318E+02</pdfrwt>
<totfact> 0.14144849E+06</totfact>
</mgrwt>
</event>
<event>
 5    1  0.4133473E-007  0.2000260E+02  0.7818608E-02  0.1745276E+00
         -3   -1    0    0    0  501 -0.00000000000E+00  0.00000000000E+00  0.87715164503E+00  0.88206802934E+00  0.93000000000E-01 0.  1.
          3   -1    0    0  501    0  0.00000000000E+00 -0.00000000000E+00 -0.11371140604E+03  0.11371144407E+03  0.93000000000E-01 0. -1.
       1023    2    1    2    0    0  0.00000000000E+00  0.00000000000E+00 -0.11283425439E+03  0.11459351210E+03  0.20002601093E+02 0.  0.
        -11    1    3    3    0    0 -0.99852788750E+01 -0.55979099563E+00 -0.55942897971E+02  0.56829807265E+02  0.51100000000E-03 0.  1.
         11    1    3    3    0    0  0.99852788750E+01  0.55979099563E+00 -0.56891356422E+02  0.57763704832E+02  0.51100000000E-03 0. -1.
<mgrwt>
<rscale>  0 0.20002601E+02</rscale>
<asrwt>0</asrwt>
<pdfrwt beam="2">  1        3 0.17494432E-01 0.20002601E+02</pdfrwt>
<pdfrwt beam="1">  1       -3 0.13532761E-03 0.20002601E+02</pdfrwt>
<totfact> 0.13688181E+06</totfact>
</mgrwt>
</event>
<event>
 5    1  0.4133473E-007  0.2000034E+02  0.7818608E-02  0.1745321E+00
         -3   -1    0    0    0  501 -0.00000000000E+00  0.00000000000E+00  0.27226143780E+01  0.27242022780E+01  0.93000000000E-01 0. -1.
          3   -1    0    0  501    0  0.00000000000E+00 -0.00000000000E+00 -0.36718284050E+02  0.36718401825E+02  0.93000000000E-01 0.  1.
       1023    2    1    2    0    0  0.00000000000E+00  0.00000000000E+00 -0.33995669672E+02  0.39442604103E+02  0.20000336546E+02 0.  0.
        -11    1    3    3    0    0  0.86119739881E+01 -0.50829951279E+01 -0.16956950608E+02  0.19686063842E+02  0.51100000000E-03 0.  1.
         11    1    3    3    0    0 -0.86119739881E+01  0.50829951279E+01 -0.17038719064E+02  0.19756540260E+02  0.51100000000E-03 0. -1.
<mgrwt>
<rscale>  0 0.20000337E+02</rscale>
<asrwt>0</asrwt>
<pdfrwt beam="2">  1        3 0.56490976E-02 0.20000337E+02</pdfrwt>
<pdfrwt beam="1">  1       -3 0.41899498E-03 0.20000337E+02</pdfrwt>
<totfact> 0.16740691E+06</totfact>
</mgrwt>
</event>
<event>
 5    1  0.4133473E-007  0.2000042E+02  0.7818608E-02  0.1745320E+00
          3   -1    0    0  501    0  0.00000000000E+00  0.00000000000E+00  0.99643435023E+02  0.99643478423E+02  0.93000000000E-01 0. -1.
         -3   -1    0    0    0  501 -0.00000000000E+00 -0.00000000000E+00 -0.10014226709E+01  0.10057317564E+01  0.93000000000E-01 0.  1.
       1023    2    1    2    0    0  0.00000000000E+00  0.00000000000E+00  0.98642012352E+02  0.10064921018E+03  0.20000422716E+02 0.  0.
        -11    1    3    3    0    0 -0.99912874355E+01 -0.42147685991E+00  0.49182312429E+02  0.50188677244E+02  0.51100000000E-03 0.  1.
         11    1    3    3    0    0  0.99912874355E+01  0.42147685991E+00  0.49459699923E+02  0.50460532935E+02  0.51100000000E-03 0. -1.
<mgrwt>
<rscale>  0 0.20000423E+02</rscale>
<asrwt>0</asrwt>
<pdfrwt beam="1">  1        3 0.15330089E-01 0.20000423E+02</pdfrwt>
<pdfrwt beam="2">  1       -3 0.15439988E-03 0.20000423E+02</pdfrwt>
<totfact> 0.14154952E+06</totfact>
</mgrwt>
</event>
<event>
 5    1  0.4187605E-007  0.2000208E+02  0.7818608E-02  0.1745287E+00
          3   -1    0    0  501    0  0.00000000000E+00  0.00000000000E+00  0.73484011348E+01  0.73489896066E+01  0.93000000000E-01 0. -1.
         -3   -1    0    0    0  501 -0.00000000000E+00 -0.00000000000E+00 -0.13609945455E+02  0.13610263197E+02  0.93000000000E-01 0.  1.
       1023    2    1    2    0    0  0.00000000000E+00  0.00000000000E+00 -0.62615443205E+01  0.20959252804E+02  0.20002083412E+02 0.  0.
        -11    1    3    3    0    0  0.57476160770E+01  0.81838020888E+01 -0.32413082714E+01  0.10512648894E+02  0.51100000000E-03 0. -1.
         11    1    3    3    0    0 -0.57476160770E+01 -0.81838020888E+01 -0.30202360491E+01  0.10446603910E+02  0.51100000000E-03 0.  1.
<mgrwt>
<rscale>  0 0.20002083E+02</rscale>
<asrwt>0</asrwt>
<pdfrwt beam="1">  1        3 0.11305930E-02 0.20002083E+02</pdfrwt>
<pdfrwt beam="2">  1       -3 0.20939075E-02 0.20002083E+02</pdfrwt>
<totfact> 0.17819276E+06</totfact>
</mgrwt>
</event>
<event>
 5    1  0.4349330E-007  0.2000144E+02  0.7818608E-02  0.1745299E+00
         -3   -1    0    0    0  501 -0.00000000000E+00  0.00000000000E+00  0.10481076068E+02  0.10481488661E+02  0.93000000000E-01 0.  1.
          3   -1    0    0  501    0  0.00000000000E+00 -0.00000000000E+00 -0.95415537143E+01  0.95420069316E+01  0.93000000000E-01 0. -1.
       1023    2    1    2    0    0  0.00000000000E+00  0.00000000000E+00  0.93952235401E+00  0.20023495593E+02  0.20001441785E+02 0.  0.
        -11    1    3    3    0    0 -0.17058810061E+01  0.98540168037E+01  0.52217286707E+00  0.10014207005E+02  0.51100000000E-03 0.  1.
         11    1    3    3    0    0  0.17058810061E+01 -0.98540168037E+01  0.41734948694E+00  0.10009288588E+02  0.51100000000E-03 0. -1.
<mgrwt>
<rscale>  0 0.20001442E+02</rscale>
<asrwt>0</asrwt>
<pdfrwt beam="2">  1        3 0.14679980E-02 0.20001442E+02</pdfrwt>
<pdfrwt beam="1">  1       -3 0.16125398E-02 0.20001442E+02</pdfrwt>
<totfact> 0.17881364E+06</totfact>
</mgrwt>
</event>
<event>
 5    1  0.4133473E-007  0.2000084E+02  0.7818608E-02  0.1745311E+00
          3   -1    0    0  501    0  0.00000000000E+00  0.00000000000E+00  0.11280295976E+03  0.11280299810E+03  0.93000000000E-01 0. -1.
         -3   -1    0    0    0  501 -0.00000000000E+00 -0.00000000000E+00 -0.88409819229E+00  0.88897616032E+00  0.93000000000E-01 0.  1.
       1023    2    1    2    0    0  0.00000000000E+00  0.00000000000E+00  0.11191886157E+03  0.11369197426E+03  0.20000835879E+02 0.  0.
        -11    1    3    3    0    0  0.99024804886E+01  0.13955366064E+01  0.55723926705E+02  0.56614155914E+02  0.51100000000E-03 0. -1.
         11    1    3    3    0    0 -0.99024804886E+01 -0.13955366064E+01  0.56194934866E+02  0.57077818346E+02  0.51100000000E-03 0.  1.
<mgrwt>
<rscale>  0 0.20000836E+02</rscale>
<asrwt>0</asrwt>
<pdfrwt beam="1">  1        3 0.17354671E-01 0.20000836E+02</pdfrwt>
<pdfrwt beam="2">  1       -3 0.13639335E-03 0.20000836E+02</pdfrwt>
<totfact> 0.13719735E+06</totfact>
</mgrwt>
</event>
<event>
 5    1  0.4133473E-007  0.2000039E+02  0.7818608E-02  0.1745320E+00
          3   -1    0    0  501    0  0.00000000000E+00  0.00000000000E+00  0.12297712018E+02  0.12298063664E+02  0.93000000000E-01 0. -1.
         -3   -1    0    0    0  501 -0.00000000000E+00 -0.00000000000E+00 -0.81311734700E+01  0.81317052947E+01  0.93000000000E-01 0.  1.
       1023    2    1    2    0    0  0.00000000000E+00  0.00000000000E+00  0.41665385485E+01  0.20429768959E+02  0.20000385402E+02 0.  0.
        -11    1    3    3    0    0  0.86452150378E+01 -0.50260417230E+01  0.20271782109E+01  0.10203445017E+02  0.51100000000E-03 0. -1.
         11    1    3    3    0    0 -0.86452150378E+01  0.50260417230E+01  0.21393603375E+01  0.10226323942E+02  0.51100000000E-03 0.  1.
<mgrwt>
<rscale>  0 0.20000385E+02</rscale>
<asrwt>0</asrwt>
<pdfrwt beam="1">  1        3 0.18920237E-02 0.20000385E+02</pdfrwt>
<pdfrwt beam="2">  1       -3 0.12510177E-02 0.20000385E+02</pdfrwt>
<totfact> 0.17856577E+06</totfact>
</mgrwt>
</event>
<event>
 5    1  0.4133473E-007  0.2000037E+02  0.7818608E-02  0.1745321E+00
         -3   -1    0    0    0  501 -0.00000000000E+00  0.00000000000E+00  0.66324172507E+01  0.66330692434E+01  0.93000000000E-01 0.  1.
          3   -1    0    0  501    0  0.00000000000E+00 -0.00000000000E+00 -0.15076478863E+02  0.15076765698E+02  0.93000000000E-01 0. -1.
       1023    2    1    2    0    0  0.00000000000E+00  0.00000000000E+00 -0.84440616122E+01  0.21709834941E+02  0.20000368913E+02 0.  0.
        -11    1    3    3    0    0 -0.87203327665E+01 -0.48948371808E+01 -0.42300308208E+01  0.10858029084E+02  0.51100000000E-03 0.  1.
         11    1    3    3    0    0  0.87203327665E+01  0.48948371808E+01 -0.42140307914E+01  0.10851805857E+02  0.51100000000E-03 0. -1.
<mgrwt>
<rscale>  0 0.20000369E+02</rscale>
<asrwt>0</asrwt>
<pdfrwt beam="2">  1        3 0.23195305E-02 0.20000369E+02</pdfrwt>
<pdfrwt beam="1">  1       -3 0.10204441E-02 0.20000369E+02</pdfrwt>
<totfact> 0.17773381E+06</totfact>
</mgrwt>
</event>
<event>
 5    1  0.4133473E-007  0.2000054E+02  0.7818608E-02  0.1745317E+00
          3   -1    0    0  501    0  0.00000000000E+00  0.00000000000E+00  0.22762562573E+01  0.22781552952E+01  0.93000000000E-01 0. -1.
         -3   -1    0    0    0  501 -0.00000000000E+00 -0.00000000000E+00 -0.43913890126E+02  0.43913988602E+02  0.93000000000E-01 0.  1.
       1023    2    1    2    0    0  0.00000000000E+00  0.00000000000E+00 -0.41637633868E+02  0.46192143898E+02  0.20000540085E+02 0.  0.
        -11    1    3    3    0    0  0.55741584778E+01  0.83026595635E+01 -0.20815469474E+02  0.23093054546E+02  0.51100000000E-03 0.  1.
         11    1    3    3    0    0 -0.55741584778E+01 -0.83026595635E+01 -0.20822164394E+02  0.23099089352E+02  0.51100000000E-03 0. -1.
<mgrwt>
<rscale>  0 0.20000540E+02</rscale>
<asrwt>0</asrwt>
<pdfrwt beam="1">  1        3 0.35034696E-03 0.20000540E+02</pdfrwt>
<pdfrwt beam="2">  1       -3 0.67561361E-02 0.20000540E+02</pdfrwt>
<totfact> 0.16395609E+06</totfact>
</mgrwt>
</event>
<event>
 5    1  0.4141932E-007  0.2000131E+02  0.7818608E-02  0.1745302E+00
          3   -1    0    0  501    0  0.00000000000E+00  0.00000000000E+00  0.25893500124E+02  0.25893667134E+02  0.93000000000E-01 0. -1.
         -3   -1    0    0    0  501 -0.00000000000E+00 -0.00000000000E+00 -0.38617411213E+01  0.38628607907E+01  0.93000000000E-01 0.  1.
       1023    2    1    2    0    0  0.00000000000E+00  0.00000000000E+00  0.22031759002E+02  0.29756527925E+02  0.20001313692E+02 0.  0.
        -11    1    3    3    0    0 -0.33016665942E+01 -0.94395869157E+01  0.11134279255E+02  0.14965927243E+02  0.51100000000E-03 0. -1.
         11    1    3    3    0    0  0.33016665942E+01  0.94395869157E+01  0.10897479747E+02  0.14790600682E+02  0.51100000000E-03 0.  1.
<mgrwt>
<rscale>  0 0.20001314E+02</rscale>
<asrwt>0</asrwt>
<pdfrwt beam="1">  1        3 0.39837143E-02 0.20001314E+02</pdfrwt>
<pdfrwt beam="2">  1       -3 0.59421300E-03 0.20001314E+02</pdfrwt>
<totfact> 0.17278174E+06</totfact>
</mgrwt>
</event>
<event>
 4    1  0.4133473E-007  0.2008653E+02  0.7818608E-02  0.1743613E+00
         -3   -1    0    0    0  501 -0.00000000000E+00  0.00000000000E+00  0.97386533324E+02  0.97386577730E+02  0.93000000000E-01 0.  1.
          3   -1    0    0  501    0  0.00000000000E+00 -0.00000000000E+00 -0.10336084279E+01  0.10377838803E+01  0.93000000000E-01 0. -1.
        -11    1    1    2    0    0 -0.52734645450E+01  0.85417418994E+01  0.46654911804E+02  0.47722652679E+02  0.51100000000E-03 0.  1.
         11    1    1    2    0    0  0.52734645450E+01 -0.85417418994E+01  0.49698013092E+02  0.50701708931E+02  0.51100000000E-03 0. -1.
<mgrwt>
<rscale>  0 0.20086533E+02</rscale>
<asrwt>0</asrwt>
<pdfrwt beam="2">  1        3 0.15934129E-03 0.20086533E+02</pdfrwt>
<pdfrwt beam="1">  1       -3 0.14982868E-01 0.20086533E+02</pdfrwt>
<totfact> 0.14104280E+06</totfact>
</mgrwt>
</event>
<event>
 5    1  0.4164780E-007  0.2000053E+02  0.7818608E-02  0.1745318E+00
         -3   -1    0    0    0  501 -0.00000000000E+00  0.00000000000E+00  0.10499243120E+02  0.10499654999E+02  0.93000000000E-01 0.  1.
          3   -1    0    0  501    0  0.00000000000E+00 -0.00000000000E+00 -0.95241755704E+01  0.95246296146E+01  0.93000000000E-01 0. -1.
       1023    2    1    2    0    0  0.00000000000E+00  0.00000000000E+00  0.97506754982E+00  0.20024284614E+02  0.20000530432E+02 0.  0.
        -11    1    3    3    0    0  0.96516261891E+01 -0.26170080254E+01  0.53941258763E+00  0.10014668507E+02  0.51100000000E-03 0.  1.
         11    1    3    3    0    0 -0.96516261891E+01  0.26170080254E+01  0.43565496219E+00  0.10009616107E+02  0.51100000000E-03 0. -1.
<mgrwt>
<rscale>  0 0.20000530E+02</rscale>
<asrwt>0</asrwt>
<pdfrwt beam="2">  1        3 0.14653244E-02 0.20000530E+02</pdfrwt>
<pdfrwt beam="1">  1       -3 0.16153348E-02 0.20000530E+02</pdfrwt>
<totfact> 0.17883071E+06</totfact>
</mgrwt>
</event>
<event>
 5    1  0.4133473E-007  0.2001049E+02  0.7818608E-02  0.1745120E+00
          3   -1    0    0  501    0  0.00000000000E+00  0.00000000000E+00  0.95342594352E+01  0.95347129993E+01  0.93000000000E-01 0. -1.
         -3   -1    0    0    0  501 -0.00000000000E+00 -0.00000000000E+00 -0.10498585870E+02  0.10498997774E+02  0.93000000000E-01 0.  1.
       1023    2    1    2    0    0  0.00000000000E+00  0.00000000000E+00 -0.96432643450E+00  0.20033710774E+02  0.20010488297E+02 0.  0.
        -11    1    3    3    0    0  0.99502201712E+01 -0.10349348229E+01 -0.31784271145E+00  0.10008945788E+02  0.51100000000E-03 0.  1.
         11    1    3    3    0    0 -0.99502201712E+01  0.10349348229E+01 -0.64648372306E+00  0.10024764985E+02  0.51100000000E-03 0. -1.
<mgrwt>
<rscale>  0 0.20010488E+02</rscale>
<asrwt>0</asrwt>
<pdfrwt beam="1">  1        3 0.14668757E-02 0.20010488E+02</pdfrwt>
<pdfrwt beam="2">  1       -3 0.16152336E-02 0.20010488E+02</pdfrwt>
<totfact> 0.17863278E+06</totfact>
</mgrwt>
</event>
<event>
 4    1  0.4133473E-007  0.2005422E+02  0.7818608E-02  0.1744252E+00
         -3   -1    0    0    0  501 -0.00000000000E+00  0.00000000000E+00  0.11678428007E+03  0.11678431710E+03  0.93000000000E-01 0.  1.
          3   -1    0    0  501    0  0.00000000000E+00 -0.00000000000E+00 -0.85838011412E+00  0.86340339374E+00  0.93000000000E-01 0. -1.
        -11    1    1    2    0    0 -0.82292822184E+01  0.57262705715E+01  0.59007503897E+02  0.59853126710E+02  0.51100000000E-03 0. -1.
         11    1    1    2    0    0  0.82292822184E+01 -0.57262705715E+01  0.56918396061E+02  0.57794593786E+02  0.51100000000E-03 0.  1.
<mgrwt>
<rscale>  0 0.20054223E+02</rscale>
<asrwt>0</asrwt>
<pdfrwt beam="2">  1        3 0.13244776E-03 0.20054223E+02</pdfrwt>
<pdfrwt beam="1">  1       -3 0.17967198E-01 0.20054223E+02</pdfrwt>
<totfact> 0.13518708E+06</totfact>
</mgrwt>
</event>
<event>
 5    1  0.4133473E-007  0.2000055E+02  0.7818608E-02  0.1745317E+00
          3   -1    0    0  501    0  0.00000000000E+00  0.00000000000E+00  0.73272545434E+02  0.73272604453E+02  0.93000000000E-01 0.  1.
         -3   -1    0    0    0  501 -0.00000000000E+00 -0.00000000000E+00 -0.13631982182E+01  0.13663668548E+01  0.93000000000E-01 0. -1.
       1023    2    1    2    0    0  0.00000000000E+00  0.00000000000E+00  0.71909347216E+02  0.74638971308E+02  0.20000545516E+02 0.  0.
        -11    1    3    3    0    0 -0.65666600776E+00 -0.99785522949E+01  0.35759371984E+02  0.37131326412E+02  0.51100000000E-03 0.  1.
         11    1    3    3    0    0  0.65666600776E+00  0.99785522949E+01  0.36149975232E+02  0.37507644897E+02  0.51100000000E-03 0. -1.
<mgrwt>
<rscale>  0 0.20000546E+02</rscale>
<asrwt>0</asrwt>
<pdfrwt beam="1">  1        3 0.11272950E-01 0.20000546E+02</pdfrwt>
<pdfrwt beam="2">  1       -3 0.20997104E-03 0.20000546E+02</pdfrwt>
<totfact> 0.15122524E+06</totfact>
</mgrwt>
</event>
<event>
 4    1  0.4133473E-007  0.2225147E+02  0.7818608E-02  0.1703939E+00
         -3   -1    0    0    0  501 -0.00000000000E+00  0.00000000000E+00  0.22773253641E+02  0.22773443534E+02  0.93000000000E-01 0. -1.
          3   -1    0    0  501    0  0.00000000000E+00 -0.00000000000E+00 -0.54347983093E+01  0.54355939568E+01  0.93000000000E-01 0.  1.
        -11    1    1    2    0    0 -0.81194312447E+00 -0.11056906606E+02  0.74884567343E+01  0.13378767501E+02  0.51100000000E-03 0.  1.
         11    1    1    2    0    0  0.81194312447E+00  0.11056906606E+02  0.98499985972E+01  0.14830269989E+02  0.51100000000E-03 0. -1.
<mgrwt>
<rscale>  0 0.22251467E+02</rscale>
<asrwt>0</asrwt>
<pdfrwt beam="2">  1        3 0.83619863E-03 0.22251467E+02</pdfrwt>
<pdfrwt beam="1">  1       -3 0.35036533E-02 0.22251467E+02</pdfrwt>
<totfact> 0.13765597E+06</totfact>
</mgrwt>
</event>
<event>
 5    1  0.4133473E-007  0.2000485E+02  0.7818608E-02  0.1745232E+00
          3   -1    0    0  501    0  0.00000000000E+00  0.00000000000E+00  0.32086185805E+01  0.32099660738E+01  0.93000000000E-01 0.  1.
         -3   -1    0    0    0  501 -0.00000000000E+00 -0.00000000000E+00 -0.31173223015E+02  0.31173361740E+02  0.93000000000E-01 0. -1.
       1023    2    1    2    0    0  0.00000000000E+00  0.00000000000E+00 -0.27964604435E+02  0.34383327814E+02  0.20004852670E+02 0.  0.
        -11    1    3    3    0    0  0.10001346810E+02  0.14637505987E+00 -0.13959982055E+02  0.17173510500E+02  0.51100000000E-03 0. -1.
         11    1    3    3    0    0 -0.10001346810E+02 -0.14637505987E+00 -0.14004622380E+02  0.17209817313E+02  0.51100000000E-03 0.  1.
<mgrwt>
<rscale>  0 0.20004853E+02</rscale>
<asrwt>0</asrwt>
<pdfrwt beam="1">  1        3 0.49374797E-03 0.20004853E+02</pdfrwt>
<pdfrwt beam="2">  1       -3 0.47959946E-02 0.20004853E+02</pdfrwt>
<totfact> 0.17009400E+06</totfact>
</mgrwt>
</event>
<event>
 5    1  0.4133473E-007  0.2000386E+02  0.7818608E-02  0.1745251E+00
          3   -1    0    0  501    0  0.00000000000E+00  0.00000000000E+00  0.24695466664E+01  0.24712971771E+01  0.93000000000E-01 0. -1.
         -3   -1    0    0    0  501 -0.00000000000E+00 -0.00000000000E+00 -0.40492737800E+02  0.40492844597E+02  0.93000000000E-01 0.  1.
       1023    2    1    2    0    0  0.00000000000E+00  0.00000000000E+00 -0.38023191133E+02  0.42964141774E+02  0.20003859987E+02 0.  0.
        -11    1    3    3    0    0 -0.72806743211E+01  0.68571357327E+01 -0.18796019809E+02  0.21291286714E+02  0.51100000000E-03 0. -1.
         11    1    3    3    0    0  0.72806743211E+01 -0.68571357327E+01 -0.19227171325E+02  0.21672855060E+02  0.51100000000E-03 0.  1.
<mgrwt>
<rscale>  0 0.20003860E+02</rscale>
<asrwt>0</asrwt>
<pdfrwt beam="1">  1        3 0.38007315E-03 0.20003860E+02</pdfrwt>
<pdfrwt beam="2">  1       -3 0.62297944E-02 0.20003860E+02</pdfrwt>
<totfact> 0.16553096E+06</totfact>
</mgrwt>
</event>
<event>
 5    1  0.4133473E-007  0.2000128E+02  0.7818608E-02  0.1745303E+00
         -3   -1    0    0    0  501 -0.00000000000E+00  0.00000000000E+00  0.92290151274E+00  0.92757544287E+00  0.93000000000E-01 0. -1.
          3   -1    0    0  501    0  0.00000000000E+00 -0.00000000000E+00 -0.10808938833E+03  0.10808942834E+03  0.93000000000E-01 0.  1.
       1023    2    1    2    0    0  0.00000000000E+00  0.00000000000E+00 -0.10716648682E+03  0.10901700378E+03  0.20001280377E+02 0.  0.
        -11    1    3    3    0    0 -0.50655388171E+01 -0.86227089191E+01 -0.53827685564E+02  0.54748794745E+02  0.51100000000E-03 0. -1.
         11    1    3    3    0    0  0.50655388171E+01  0.86227089191E+01 -0.53338801257E+02  0.54268209040E+02  0.51100000000E-03 0.  1.
<mgrwt>
<rscale>  0 0.20001280E+02</rscale>
<asrwt>0</asrwt>
<pdfrwt beam="2">  1        3 0.16629489E-01 0.20001280E+02</pdfrwt>
<pdfrwt beam="1">  1       -3 0.14234754E-03 0.20001280E+02</pdfrwt>
<totfact> 0.13871434E+06</totfact>
</mgrwt>
</event>
<event>
 5    1  0.4133473E-007  0.2000172E+02  0.7818608E-02  0.1745294E+00
          3   -1    0    0  501    0  0.00000000000E+00  0.00000000000E+00  0.89031007618E+00  0.89515419440E+00  0.93000000000E-01 0. -1.
         -3   -1    0    0    0  501 -0.00000000000E+00 -0.00000000000E+00 -0.11203007743E+03  0.11203011603E+03  0.93000000000E-01 0.  1.
       1023    2    1    2    0    0  0.00000000000E+00  0.00000000000E+00 -0.11113976736E+03  0.11292527023E+03  0.20001719128E+02 0.  0.
        -11    1    3    3    0    0  0.33755358648E+01 -0.94139332532E+01 -0.55730574237E+02  0.56620784935E+02  0.51100000000E-03 0. -1.
         11    1    3    3    0    0 -0.33755358648E+01  0.94139332532E+01 -0.55409193120E+02  0.56304485293E+02  0.51100000000E-03 0.  1.
<mgrwt>
<rscale>  0 0.20001719E+02</rscale>
<asrwt>0</asrwt>
<pdfrwt beam="1">  1        3 0.13734646E-03 0.20001719E+02</pdfrwt>
<pdfrwt beam="2">  1       -3 0.17235761E-01 0.20001719E+02</pdfrwt>
<totfact> 0.13745874E+06</totfact>
</mgrwt>
</event>
<event>
 5    1  0.4133473E-007  0.2000289E+02  0.7818608E-02  0.1745271E+00
          3   -1    0    0  501    0  0.00000000000E+00  0.00000000000E+00  0.10967712995E+03  0.10967716938E+03  0.93000000000E-01 0.  1.
         -3   -1    0    0    0  501 -0.00000000000E+00 -0.00000000000E+00 -0.90962023850E+00  0.91436206084E+00  0.93000000000E-01 0. -1.
       1023    2    1    2    0    0  0.00000000000E+00  0.00000000000E+00  0.10876750971E+03  0.11059153144E+03  0.20002891227E+02 0.  0.
        -11    1    3    3    0    0 -0.42706205009E+01  0.90431725159E+01  0.54982944925E+02  0.55885073155E+02  0.51100000000E-03 0. -1.
         11    1    3    3    0    0  0.42706205009E+01 -0.90431725159E+01  0.53784564787E+02  0.54706458286E+02  0.51100000000E-03 0.  1.
<mgrwt>
<rscale>  0 0.20002891E+02</rscale>
<asrwt>0</asrwt>
<pdfrwt beam="1">  1        3 0.16873772E-01 0.20002891E+02</pdfrwt>
<pdfrwt beam="2">  1       -3 0.14030937E-03 0.20002891E+02</pdfrwt>
<totfact> 0.13817318E+06</totfact>
</mgrwt>
</event>
<event>
 5    1  0.4133473E-007  0.2000698E+02  0.7818608E-02  0.1745189E+00
          3   -1    0    0  501    0  0.00000000000E+00  0.00000000000E+00  0.69800920480E+02  0.69800982435E+02  0.93000000000E-01 0. -1.
         -3   -1    0    0    0  501 -0.00000000000E+00 -0.00000000000E+00 -0.14320745072E+01  0.14350910752E+01  0.93000000000E-01 0.  1.
       1023    2    1    2    0    0  0.00000000000E+00  0.00000000000E+00  0.68368845973E+02  0.71236073510E+02  0.20006975520E+02 0.  0.
        -11    1    3    3    0    0  0.67804460398E+01 -0.73534517514E+01  0.33655515392E+02  0.35110417509E+02  0.51100000000E-03 0. -1.
         11    1    3    3    0    0 -0.67804460398E+01  0.73534517514E+01  0.34713330581E+02  0.36125656000E+02  0.51100000000E-03 0.  1.
<mgrwt>
<rscale>  0 0.20006976E+02</rscale>
<asrwt>0</asrwt>
<pdfrwt beam="1">  1        3 0.10738839E-01 0.20006976E+02</pdfrwt>
<pdfrwt beam="2">  1       -3 0.22055598E-03 0.20006976E+02</pdfrwt>
<totfact> 0.15250517E+06</totfact>
</mgrwt>
</event>
<event>
 5    1  0.4133473E-007  0.2000053E+02  0.7818608E-02  0.1745317E+00
         -3   -1    0    0    0  501 -0.00000000000E+00  0.00000000000E+00  0.97671983151E+01  0.97676410625E+01  0.93000000000E-01 0. -1.
          3   -1    0    0  501    0  0.00000000000E+00 -0.00000000000E+00 -0.10238009802E+02  0.10238432189E+02  0.93000000000E-01 0.  1.
       1023    2    1    2    0    0  0.00000000000E+00  0.00000000000E+00 -0.47081148651E+00  0.20006073252E+02  0.20000532581E+02 0.  0.
        -11    1    3    3    0    0  0.81652104564E+01  0.57733508204E+01 -0.17985548790E+00  0.10001729338E+02  0.51100000000E-03 0. -1.
         11    1    3    3    0    0 -0.81652104564E+01 -0.57733508204E+01 -0.29095599861E+00  0.10004343914E+02  0.51100000000E-03 0.  1.
<mgrwt>
<rscale>  0 0.20000533E+02</rscale>
<asrwt>0</asrwt>
<pdfrwt beam="2">  1        3 0.15751450E-02 0.20000533E+02</pdfrwt>
<pdfrwt beam="1">  1       -3 0.15027124E-02 0.20000533E+02</pdfrwt>
<totfact> 0.17884186E+06</totfact>
</mgrwt>
</event>
<event>
 5    1  0.4311309E-007  0.2000125E+02  0.7818608E-02  0.1745303E+00
          3   -1    0    0  501    0  0.00000000000E+00  0.00000000000E+00  0.12605322335E+02  0.12605665400E+02  0.93000000000E-01 0. -1.
         -3   -1    0    0    0  501 -0.00000000000E+00 -0.00000000000E+00 -0.79334261315E+01  0.79339712114E+01  0.93000000000E-01 0.  1.
       1023    2    1    2    0    0  0.00000000000E+00  0.00000000000E+00  0.46718962035E+01  0.20539636611E+02  0.20001251410E+02 0.  0.
        -11    1    3    3    0    0  0.32713246024E+00  0.99952218726E+01  0.23028580108E+01  0.10262291713E+02  0.51100000000E-03 0. -1.
         11    1    3    3    0    0 -0.32713246024E+00 -0.99952218726E+01  0.23690381927E+01  0.10277344898E+02  0.51100000000E-03 0.  1.
<mgrwt>
<rscale>  0 0.20001251E+02</rscale>
<asrwt>0</asrwt>
<pdfrwt beam="1">  1        3 0.19393487E-02 0.20001251E+02</pdfrwt>
<pdfrwt beam="2">  1       -3 0.12205954E-02 0.20001251E+02</pdfrwt>
<totfact> 0.17847730E+06</totfact>
</mgrwt>
</event>
<event>
 5    1  0.4133473E-007  0.2000032E+02  0.7818608E-02  0.1745322E+00
         -3   -1    0    0    0  501 -0.00000000000E+00  0.00000000000E+00  0.41604249605E+02  0.41604353549E+02  0.93000000000E-01 0. -1.
          3   -1    0    0  501    0  0.00000000000E+00 -0.00000000000E+00 -0.24026706390E+01  0.24044698375E+01  0.93000000000E-01 0.  1.
       1023    2    1    2    0    0  0.00000000000E+00  0.00000000000E+00  0.39201578966E+02  0.44008823386E+02  0.20000318557E+02 0.  0.
        -11    1    3    3    0    0  0.50419734923E+00 -0.99873275515E+01  0.19496212264E+02  0.21911257825E+02  0.51100000000E-03 0. -1.
         11    1    3    3    0    0 -0.50419734923E+00  0.99873275515E+01  0.19705366703E+02  0.22097565561E+02  0.51100000000E-03 0.  1.
<mgrwt>
<rscale>  0 0.20000319E+02</rscale>
<asrwt>0</asrwt>
<pdfrwt beam="2">  1        3 0.36978806E-03 0.20000319E+02</pdfrwt>
<pdfrwt beam="1">  1       -3 0.64007997E-02 0.20000319E+02</pdfrwt>
<totfact> 0.16505988E+06</totfact>
</mgrwt>
</event>
<event>
 5    1  0.4478464E-007  0.2000125E+02  0.7818608E-02  0.1745303E+00
          3   -1    0    0  501    0  0.00000000000E+00  0.00000000000E+00  0.11840767794E+02  0.11841133010E+02  0.93000000000E-01 0. -1.
         -3   -1    0    0    0  501 -0.00000000000E+00 -0.00000000000E+00 -0.84457060011E+01  0.84462180209E+01  0.93000000000E-01 0.  1.
       1023    2    1    2    0    0  0.00000000000E+00  0.00000000000E+00  0.33950617931E+01  0.20287351031E+02  0.20001254142E+02 0.  0.
        -11    1    3    3    0    0  0.19136136515E+01  0.98157104356E+01  0.17477670446E+01  0.10152082469E+02  0.51100000000E-03 0. -1.
         11    1    3    3    0    0 -0.19136136515E+01 -0.98157104356E+01  0.16472947485E+01  0.10135268561E+02  0.51100000000E-03 0.  1.
<mgrwt>
<rscale>  0 0.20001254E+02</rscale>
<asrwt>0</asrwt>
<pdfrwt beam="1">  1        3 0.18217241E-02 0.20001254E+02</pdfrwt>
<pdfrwt beam="2">  1       -3 0.12994069E-02 0.20001254E+02</pdfrwt>
<totfact> 0.17864250E+06</totfact>
</mgrwt>
</event>
<event>
 5    1  0.4133473E-007  0.2000043E+02  0.7818608E-02  0.1745320E+00
         -3   -1    0    0    0  501 -0.00000000000E+00  0.00000000000E+00  0.93442382815E+00  0.93904040947E+00  0.93000000000E-01 0. -1.
          3   -1    0    0  501    0  0.00000000000E+00 -0.00000000000E+00 -0.10675401593E+03  0.10675405644E+03  0.93000000000E-01 0.  1.
       1023    2    1    2    0    0  0.00000000000E+00  0.00000000000E+00 -0.10581959210E+03  0.10769309685E+03  0.20000425901E+02 0.  0.
        -11    1    3    3    0    0 -0.81694869965E+01  0.57671640498E+01 -0.53231060863E+02  0.54162224288E+02  0.51100000000E-03 0. -1.
         11    1    3    3    0    0  0.81694869965E+01 -0.57671640498E+01 -0.52588531237E+02  0.53530872559E+02  0.51100000000E-03 0.  1.
<mgrwt>
<rscale>  0 0.20000426E+02</rscale>
<asrwt>0</asrwt>
<pdfrwt beam="2">  1        3 0.16424043E-01 0.20000426E+02</pdfrwt>
<pdfrwt beam="1">  1       -3 0.14411583E-03 0.20000426E+02</pdfrwt>
<totfact> 0.13916534E+06</totfact>
</mgrwt>
</event>
<event>
 5    1  0.4133473E-007  0.2000253E+02  0.7818608E-02  0.1745278E+00
          3   -1    0    0  501    0  0.00000000000E+00  0.00000000000E+00  0.29336297355E+01  0.29351034777E+01  0.93000000000E-01 0.  1.
         -3   -1    0    0    0  501 -0.00000000000E+00 -0.00000000000E+00 -0.34085984473E+02  0.34086111343E+02  0.93000000000E-01 0. -1.
       1023    2    1    2    0    0  0.00000000000E+00  0.00000000000E+00 -0.31152354737E+02  0.37021214821E+02  0.20002528368E+02 0.  0.
        -11    1    3    3    0    0  0.91846932370E+01  0.39574551854E+01 -0.15442153805E+02  0.18397830193E+02  0.51100000000E-03 0.  1.
         11    1    3    3    0    0 -0.91846932370E+01 -0.39574551854E+01 -0.15710200932E+02  0.18623384628E+02  0.51100000000E-03 0. -1.
<mgrwt>
<rscale>  0 0.20002528E+02</rscale>
<asrwt>0</asrwt>
<pdfrwt beam="1">  1        3 0.45145080E-03 0.20002528E+02</pdfrwt>
<pdfrwt beam="2">  1       -3 0.52441205E-02 0.20002528E+02</pdfrwt>
<totfact> 0.16868774E+06</totfact>
</mgrwt>
</event>
<event>
 5    1  0.4133473E-007  0.2000836E+02  0.7818608E-02  0.1745162E+00
         -3   -1    0    0    0  501 -0.00000000000E+00  0.00000000000E+00  0.60134841460E+01  0.60142032369E+01  0.93000000000E-01 0. -1.
          3   -1    0    0  501    0  0.00000000000E+00 -0.00000000000E+00 -0.16641356147E+02  0.16641616010E+02  0.93000000000E-01 0.  1.
       1023    2    1    2    0    0  0.00000000000E+00  0.00000000000E+00 -0.10627872001E+02  0.22655819246E+02  0.20008360314E+02 0.  0.
        -11    1    3    3    0    0  0.97630028170E+01  0.21675047257E+01 -0.50158124138E+01  0.11188059491E+02  0.51100000000E-03 0.  1.
         11    1    3    3    0    0 -0.97630028170E+01 -0.21675047257E+01 -0.56120595872E+01  0.11467759756E+02  0.51100000000E-03 0. -1.
<mgrwt>
<rscale>  0 0.20008360E+02</rscale>
<asrwt>0</asrwt>
<pdfrwt beam="2">  1        3 0.25602839E-02 0.20008360E+02</pdfrwt>
<pdfrwt beam="1">  1       -3 0.92522672E-03 0.20008360E+02</pdfrwt>
<totfact> 0.17697623E+06</totfact>
</mgrwt>
</event>
<event>
 5    1  0.4133473E-007  0.2000031E+02  0.7818608E-02  0.1745322E+00
         -3   -1    0    0    0  501 -0.00000000000E+00  0.00000000000E+00  0.54704784359E+01  0.54712688947E+01  0.93000000000E-01 0. -1.
          3   -1    0    0  501    0  0.00000000000E+00 -0.00000000000E+00 -0.18278267140E+02  0.18278503731E+02  0.93000000000E-01 0.  1.
       1023    2    1    2    0    0  0.00000000000E+00  0.00000000000E+00 -0.12807788704E+02  0.23749772626E+02  0.20000306205E+02 0.  0.
        -11    1    3    3    0    0 -0.67630662849E+01 -0.73663286367E+01 -0.64450064450E+01  0.11897057262E+02  0.51100000000E-03 0. -1.
         11    1    3    3    0    0  0.67630662849E+01  0.73663286367E+01 -0.63627822594E+01  0.11852715364E+02  0.51100000000E-03 0.  1.
<mgrwt>
<rscale>  0 0.20000306E+02</rscale>
<asrwt>0</asrwt>
<pdfrwt beam="2">  1        3 0.28121201E-02 0.20000306E+02</pdfrwt>
<pdfrwt beam="1">  1       -3 0.84169108E-03 0.20000306E+02</pdfrwt>
<totfact> 0.17643901E+06</totfact>
</mgrwt>
</event>
<event>
 5    1  0.4133473E-007  0.2001227E+02  0.7818608E-02  0.1745084E+00
          3   -1    0    0  501    0  0.00000000000E+00  0.00000000000E+00  0.30764899753E+01  0.30778953147E+01  0.93000000000E-01 0.  1.
         -3   -1    0    0    0  501 -0.00000000000E+00 -0.00000000000E+00 -0.32535575321E+02  0.32535708236E+02  0.93000000000E-01 0. -1.
       1023    2    1    2    0    0  0.00000000000E+00  0.00000000000E+00 -0.29459085345E+02  0.35613603551E+02  0.20012272447E+02 0.  0.
        -11    1    3    3    0    0 -0.93068580419E+01 -0.36738930519E+01 -0.14885346581E+02  0.17935680636E+02  0.51100000000E-03 0.  1.
         11    1    3    3    0    0  0.93068580419E+01  0.36738930519E+01 -0.14573738764E+02  0.17677922915E+02  0.51100000000E-03 0. -1.
<mgrwt>
<rscale>  0 0.20012272E+02</rscale>
<asrwt>0</asrwt>
<pdfrwt beam="1">  1        3 0.47342450E-03 0.20012272E+02</pdfrwt>
<pdfrwt beam="2">  1       -3 0.50055912E-02 0.20012272E+02</pdfrwt>
<totfact> 0.16927859E+06</totfact>
</mgrwt>
</event>
<event>
 5    1  0.4262027E-007  0.2000079E+02  0.7818608E-02  0.1745312E+00
         -3   -1    0    0    0  501 -0.00000000000E+00  0.00000000000E+00  0.12870875427E+02  0.12871211414E+02  0.93000000000E-01 0.  1.
          3   -1    0    0  501    0  0.00000000000E+00 -0.00000000000E+00 -0.77693786034E+01  0.77699351917E+01  0.93000000000E-01 0. -1.
       1023    2    1    2    0    0  0.00000000000E+00  0.00000000000E+00  0.51014968234E+01  0.20641146605E+02  0.20000791568E+02 0.  0.
        -11    1    3    3    0    0  0.99784522230E+01  0.66212172779E+00  0.25494331808E+01  0.10320248241E+02  0.51100000000E-03 0. -1.
         11    1    3    3    0    0 -0.99784522230E+01 -0.66212172779E+00  0.25520636425E+01  0.10320898364E+02  0.51100000000E-03 0.  1.
<mgrwt>
<rscale>  0 0.20000792E+02</rscale>
<asrwt>0</asrwt>
<pdfrwt beam="2">  1        3 0.11953577E-02 0.20000792E+02</pdfrwt>
<pdfrwt beam="1">  1       -3 0.19802033E-02 0.20000792E+02</pdfrwt>
<totfact> 0.17842443E+06</totfact>
</mgrwt>
</event>
<event>
 5    1  0.4133473E-007  0.2000676E+02  0.7818608E-02  0.1745194E+00
         -3   -1    0    0    0  501 -0.00000000000E+00  0.00000000000E+00  0.20671171302E+02  0.20671380505E+02  0.93000000000E-01 0.  1.
          3   -1    0    0  501    0  0.00000000000E+00 -0.00000000000E+00 -0.48402447050E+01  0.48411380691E+01  0.93000000000E-01 0. -1.
       1023    2    1    2    0    0  0.00000000000E+00  0.00000000000E+00  0.15830926597E+02  0.25512518574E+02  0.20006758035E+02 0.  0.
        -11    1    3    3    0    0  0.87383371126E+01  0.48691938591E+01  0.79188801752E+01  0.12758379514E+02  0.51100000000E-03 0.  1.
         11    1    3    3    0    0 -0.87383371126E+01 -0.48691938591E+01  0.79120464217E+01  0.12754139060E+02  0.51100000000E-03 0. -1.
<mgrwt>
<rscale>  0 0.20006758E+02</rscale>
<asrwt>0</asrwt>
<pdfrwt beam="2">  1        3 0.74473783E-03 0.20006758E+02</pdfrwt>
<pdfrwt beam="1">  1       -3 0.31802651E-02 0.20006758E+02</pdfrwt>
<totfact> 0.17523539E+06</totfact>
</mgrwt>
</event>
<event>
 5    1  0.4133473E-007  0.2000046E+02  0.7818608E-02  0.1745319E+00
          3   -1    0    0  501    0  0.00000000000E+00  0.00000000000E+00  0.28515671133E+01  0.28530832448E+01  0.93000000000E-01 0.  1.
         -3   -1    0    0    0  501 -0.00000000000E+00 -0.00000000000E+00 -0.35059150366E+02  0.35059273715E+02  0.93000000000E-01 0. -1.
       1023    2    1    2    0    0  0.00000000000E+00  0.00000000000E+00 -0.32207583253E+02  0.37912356960E+02  0.20000459776E+02 0.  0.
        -11    1    3    3    0    0 -0.94626631569E+01 -0.32341171168E+01 -0.16209162414E+02  0.19045693843E+02  0.51100000000E-03 0.  1.
         11    1    3    3    0    0  0.94626631569E+01  0.32341171168E+01 -0.15998420839E+02  0.18866663116E+02  0.51100000000E-03 0. -1.
<mgrwt>
<rscale>  0 0.20000460E+02</rscale>
<asrwt>0</asrwt>
<pdfrwt beam="1">  1        3 0.43882877E-03 0.20000460E+02</pdfrwt>
<pdfrwt beam="2">  1       -3 0.53938413E-02 0.20000460E+02</pdfrwt>
<totfact> 0.16824373E+06</totfact>
</mgrwt>
</event>
<event>
 5    1  0.4133473E-007  0.2000514E+02  0.7818608E-02  0.1745226E+00
         -3   -1    0    0    0  501 -0.00000000000E+00  0.00000000000E+00  0.24706070716E+01  0.24723568315E+01  0.93000000000E-01 0.  1.
          3   -1    0    0  501    0  0.00000000000E+00 -0.00000000000E+00 -0.40480549232E+02  0.40480656061E+02  0.93000000000E-01 0. -1.
       1023    2    1    2    0    0  0.00000000000E+00  0.00000000000E+00 -0.38009942161E+02  0.42953012892E+02  0.20005139677E+02 0.  0.
        -11    1    3    3    0    0 -0.94675882527E+01  0.32249637109E+01 -0.18735214333E+02  0.21237793544E+02  0.51100000000E-03 0.  1.
         11    1    3    3    0    0  0.94675882527E+01 -0.32249637109E+01 -0.19274727827E+02  0.21715219348E+02  0.51100000000E-03 0. -1.
<mgrwt>
<rscale>  0 0.20005140E+02</rscale>
<asrwt>0</asrwt>
<pdfrwt beam="2">  1        3 0.62279191E-02 0.20005140E+02</pdfrwt>
<pdfrwt beam="1">  1       -3 0.38023624E-03 0.20005140E+02</pdfrwt>
<totfact> 0.16549043E+06</totfact>
</mgrwt>
</event>
<event>
 5    1  0.4133473E-007  0.2000227E+02  0.7818608E-02  0.1745283E+00
         -3   -1    0    0    0  501 -0.00000000000E+00  0.00000000000E+00  0.17126893320E+01  0.17152124498E+01  0.93000000000E-01 0. -1.
          3   -1    0    0  501    0  0.00000000000E+00 -0.00000000000E+00 -0.58355413389E+02  0.58355487495E+02  0.93000000000E-01 0.  1.
       1023    2    1    2    0    0  0.00000000000E+00  0.00000000000E+00 -0.56642724057E+02  0.60070699945E+02  0.20002269953E+02 0.  0.
        -11    1    3    3    0    0 -0.80968457856E+01  0.58705805592E+01 -0.28295741430E+02  0.30011191431E+02  0.51100000000E-03 0.  1.
         11    1    3    3    0    0  0.80968457856E+01 -0.58705805592E+01 -0.28346982627E+02  0.30059508513E+02  0.51100000000E-03 0. -1.
<mgrwt>
<rscale>  0 0.20002270E+02</rscale>
<asrwt>0</asrwt>
<pdfrwt beam="2">  1        3 0.89779542E-02 0.20002270E+02</pdfrwt>
<pdfrwt beam="1">  1       -3 0.26369050E-03 0.20002270E+02</pdfrwt>
<totfact> 0.15736643E+06</totfact>
</mgrwt>
</event>
<event>
 5    1  0.4133473E-007  0.2000194E+02  0.7818608E-02  0.1745289E+00
          3   -1    0    0  501    0  0.00000000000E+00  0.00000000000E+00  0.79150919884E+02  0.79150974520E+02  0.93000000000E-01 0. -1.
         -3   -1    0    0    0  501 -0.00000000000E+00 -0.00000000000E+00 -0.12618885078E+01  0.12653108733E+01  0.93000000000E-01 0.  1.
       1023    2    1    2    0    0  0.00000000000E+00  0.00000000000E+00  0.77889031376E+02  0.80416285393E+02  0.20001943599E+02 0.  0.
        -11    1    3    3    0    0 -0.66815447222E+01  0.74408931895E+01  0.38552543153E+02  0.39828488738E+02  0.51100000000E-03 0. -1.
         11    1    3    3    0    0  0.66815447222E+01 -0.74408931895E+01  0.39336488223E+02  0.40587796655E+02  0.51100000000E-03 0.  1.
<mgrwt>
<rscale>  0 0.20001944E+02</rscale>
<asrwt>0</asrwt>
<pdfrwt beam="1">  1        3 0.12177334E-01 0.20001944E+02</pdfrwt>
<pdfrwt beam="2">  1       -3 0.19440412E-03 0.20001944E+02</pdfrwt>
<totfact> 0.14892146E+06</totfact>
</mgrwt>
</event>
<event>
 5    1  0.4133473E-007  0.2000049E+02  0.7818608E-02  0.1745318E+00
          3   -1    0    0  501    0  0.00000000000E+00  0.00000000000E+00  0.71265570704E+01  0.71271638594E+01  0.93000000000E-01 0.  1.
         -3   -1    0    0    0  501 -0.00000000000E+00 -0.00000000000E+00 -0.14031350822E+02  0.14031659022E+02  0.93000000000E-01 0. -1.
       1023    2    1    2    0    0  0.00000000000E+00  0.00000000000E+00 -0.69047937519E+01  0.21158822881E+02  0.20000490218E+02 0.  0.
        -11    1    3    3    0    0 -0.42787074961E+01 -0.90386402566E+01 -0.34276667353E+01  0.10571341213E+02  0.51100000000E-03 0. -1.
         11    1    3    3    0    0  0.42787074961E+01  0.90386402566E+01 -0.34771270166E+01  0.10587481668E+02  0.51100000000E-03 0.  1.
<mgrwt>
<rscale>  0 0.20000490E+02</rscale>
<asrwt>0</asrwt>
<pdfrwt beam="1">  1        3 0.10964638E-02 0.20000490E+02</pdfrwt>
<pdfrwt beam="2">  1       -3 0.21587397E-02 0.20000490E+02</pdfrwt>
<totfact> 0.17809391E+06</totfact>
</mgrwt>
</event>
<event>
 5    1  0.4133473E-007  0.2000043E+02  0.7818608E-02  0.1745319E+00
         -3   -1    0    0    0  501 -0.00000000000E+00  0.00000000000E+00  0.36799568390E+01  0.36811318010E+01  0.93000000000E-01 0. -1.
          3   -1    0    0  501    0  0.00000000000E+00 -0.00000000000E+00 -0.27169818555E+02  0.27169977720E+02  0.93000000000E-01 0.  1.
       1023    2    1    2    0    0  0.00000000000E+00  0.00000000000E+00 -0.23489861716E+02  0.30851109521E+02  0.20000433876E+02 0.  0.
        -11    1    3    3    0    0  0.43195292252E+01  0.90191876455E+01 -0.11720056689E+02  0.15406615707E+02  0.51100000000E-03 0. -1.
         11    1    3    3    0    0 -0.43195292252E+01 -0.90191876455E+01 -0.11769805027E+02  0.15444493813E+02  0.51100000000E-03 0.  1.
<mgrwt>
<rscale>  0 0.20000434E+02</rscale>
<asrwt>0</asrwt>
<pdfrwt beam="2">  1        3 0.41800746E-02 0.20000434E+02</pdfrwt>
<pdfrwt beam="1">  1       -3 0.56624985E-03 0.20000434E+02</pdfrwt>
<totfact> 0.17216174E+06</totfact>
</mgrwt>
</event>
<event>
 5    1  0.4133473E-007  0.2000041E+02  0.7818608E-02  0.1745320E+00
          3   -1    0    0  501    0  0.00000000000E+00  0.00000000000E+00  0.41256949791E+02  0.41257054609E+02  0.93000000000E-01 0. -1.
         -3   -1    0    0    0  501 -0.00000000000E+00 -0.00000000000E+00 -0.24229338092E+01  0.24247179720E+01  0.93000000000E-01 0.  1.
       1023    2    1    2    0    0  0.00000000000E+00  0.00000000000E+00  0.38834015982E+02  0.43681772581E+02  0.20000411460E+02 0.  0.
        -11    1    3    3    0    0  0.72627211967E+01 -0.68743133067E+01  0.19354781335E+02  0.21785565483E+02  0.51100000000E-03 0. -1.
         11    1    3    3    0    0 -0.72627211967E+01  0.68743133067E+01  0.19479234646E+02  0.21896207098E+02  0.51100000000E-03 0.  1.
<mgrwt>
<rscale>  0 0.20000411E+02</rscale>
<asrwt>0</asrwt>
<pdfrwt beam="1">  1        3 0.63473677E-02 0.20000411E+02</pdfrwt>
<pdfrwt beam="2">  1       -3 0.37290439E-03 0.20000411E+02</pdfrwt>
<totfact> 0.16520112E+06</totfact>
</mgrwt>
</event>
<event>
 4    1  0.4299069E-007  0.2007398E+02  0.7818608E-02  0.1743861E+00
         -3   -1    0    0    0  501 -0.00000000000E+00  0.00000000000E+00  0.14773321832E+01  0.14802565249E+01  0.93000000000E-01 0. -1.
          3   -1    0    0  501    0  0.00000000000E+00 -0.00000000000E+00 -0.68120892355E+02  0.68120955838E+02  0.93000000000E-01 0.  1.
        -11    1    1    2    0    0 -0.99952637840E+01  0.32903073538E+00 -0.30364240691E+02  0.31968745242E+02  0.51100000000E-03 0. -1.
         11    1    1    2    0    0  0.99952637840E+01 -0.32903073538E+00 -0.36279319481E+02  0.37632467120E+02  0.51100000000E-03 0.  1.
<mgrwt>
<rscale>  0 0.20073979E+02</rscale>
<asrwt>0</asrwt>
<pdfrwt beam="2">  1        3 0.10480365E-01 0.20073979E+02</pdfrwt>
<pdfrwt beam="1">  1       -3 0.22751176E-03 0.20073979E+02</pdfrwt>
<totfact> 0.15208550E+06</totfact>
</mgrwt>
</event>
<event>
 4    1  0.4133473E-007  0.2001470E+02  0.7818608E-02  0.1745036E+00
          3   -1    0    0  501    0  0.00000000000E+00  0.00000000000E+00  0.50999096247E+01  0.51007575104E+01  0.93000000000E-01 0.  1.
         -3   -1    0    0    0  501 -0.00000000000E+00 -0.00000000000E+00 -0.19634440665E+02  0.19634660914E+02  0.93000000000E-01 0. -1.
        -11    1    1    2    0    0  0.21903614758E+01 -0.97621643524E+01 -0.69921743153E+01  0.12206065630E+02  0.51100000000E-03 0.  1.
         11    1    1    2    0    0 -0.21903614758E+01  0.97621643524E+01 -0.75423567249E+01  0.12529352795E+02  0.51100000000E-03 0. -1.
<mgrwt>
<rscale>  0 0.20014703E+02</rscale>
<asrwt>0</asrwt>
<pdfrwt beam="1">  1        3 0.78468365E-03 0.20014703E+02</pdfrwt>
<pdfrwt beam="2">  1       -3 0.30207653E-02 0.20014703E+02</pdfrwt>
<totfact> 0.17556394E+06</totfact>
</mgrwt>
</event>
<event>
 4    1  0.4133473E-007  0.2002261E+02  0.7818608E-02  0.1744879E+00
          3   -1    0    0  501    0  0.00000000000E+00  0.00000000000E+00  0.14188003764E+02  0.14188308561E+02  0.93000000000E-01 0.  1.
         -3   -1    0    0    0  501 -0.00000000000E+00 -0.00000000000E+00 -0.70634636627E+01  0.70640758712E+01  0.93000000000E-01 0. -1.
        -11    1    1    2    0    0 -0.94360258545E+01 -0.33438440987E+01  0.34779185744E+01  0.10597914661E+02  0.51100000000E-03 0. -1.
         11    1    1    2    0    0  0.94360258545E+01  0.33438440987E+01  0.36466215270E+01  0.10654469771E+02  0.51100000000E-03 0.  1.
<mgrwt>
<rscale>  0 0.20022607E+02</rscale>
<asrwt>0</asrwt>
<pdfrwt beam="1">  1        3 0.21828403E-02 0.20022607E+02</pdfrwt>
<pdfrwt beam="2">  1       -3 0.10867573E-02 0.20022607E+02</pdfrwt>
<totfact> 0.17760374E+06</totfact>
</mgrwt>
</event>
<event>
 5    1  0.4133473E-007  0.2000042E+02  0.7818608E-02  0.1745320E+00
          3   -1    0    0  501    0  0.00000000000E+00  0.00000000000E+00  0.10657713966E+02  0.10658119720E+02  0.93000000000E-01 0. -1.
         -3   -1    0    0    0  501 -0.00000000000E+00 -0.00000000000E+00 -0.93824566529E+01  0.93829175549E+01  0.93000000000E-01 0.  1.
       1023    2    1    2    0    0  0.00000000000E+00  0.00000000000E+00  0.12752573127E+01  0.20041037275E+02  0.20000422342E+02 0.  0.
        -11    1    3    3    0    0 -0.69730533690E+01  0.71680366371E+01  0.63679907046E+00  0.10020465849E+02  0.51100000000E-03 0.  1.
         11    1    3    3    0    0  0.69730533690E+01 -0.71680366371E+01  0.63845824225E+00  0.10020571426E+02  0.51100000000E-03 0. -1.
<mgrwt>
<rscale>  0 0.20000422E+02</rscale>
<asrwt>0</asrwt>
<pdfrwt beam="1">  1        3 0.16397150E-02 0.20000422E+02</pdfrwt>
<pdfrwt beam="2">  1       -3 0.14435215E-02 0.20000422E+02</pdfrwt>
<totfact> 0.17882090E+06</totfact>
</mgrwt>
</event>
<event>
 4    1  0.4133473E-007  0.2001855E+02  0.7818608E-02  0.1744960E+00
         -3   -1    0    0    0  501 -0.00000000000E+00  0.00000000000E+00  0.90246329239E+01  0.90251120996E+01  0.93000000000E-01 0. -1.
          3   -1    0    0  501    0  0.00000000000E+00 -0.00000000000E+00 -0.11100375412E+02  0.11100764986E+02  0.93000000000E-01 0.  1.
        -11    1    1    2    0    0 -0.83099166474E+01 -0.55724622496E+01 -0.13195607899E+01  0.10091991436E+02  0.51100000000E-03 0. -1.
         11    1    1    2    0    0  0.83099166474E+01  0.55724622496E+01 -0.75618169789E+00  0.10033885650E+02  0.51100000000E-03 0.  1.
<mgrwt>
<rscale>  0 0.20018547E+02</rscale>
<asrwt>0</asrwt>
<pdfrwt beam="2">  1        3 0.17078169E-02 0.20018547E+02</pdfrwt>
<pdfrwt beam="1">  1       -3 0.13884719E-02 0.20018547E+02</pdfrwt>
<totfact> 0.17841666E+06</totfact>
</mgrwt>
</event>
<event>
 4    1  0.4133473E-007  0.2002608E+02  0.7818608E-02  0.1744810E+00
         -3   -1    0    0    0  501 -0.00000000000E+00  0.00000000000E+00  0.87812917372E+01  0.87817841908E+01  0.93000000000E-01 0.  1.
          3   -1    0    0  501    0  0.00000000000E+00 -0.00000000000E+00 -0.11416567290E+02  0.11416946076E+02  0.93000000000E-01 0. -1.
        -11    1    1    2    0    0 -0.84420501612E+01 -0.53688529042E+01 -0.90396282050E+00  0.10045394043E+02  0.51100000000E-03 0.  1.
         11    1    1    2    0    0  0.84420501612E+01  0.53688529042E+01 -0.17313127325E+01  0.10153336224E+02  0.51100000000E-03 0. -1.
<mgrwt>
<rscale>  0 0.20026084E+02</rscale>
<asrwt>0</asrwt>
<pdfrwt beam="2">  1        3 0.17564620E-02 0.20026084E+02</pdfrwt>
<pdfrwt beam="1">  1       -3 0.13510350E-02 0.20026084E+02</pdfrwt>
<totfact> 0.17822391E+06</totfact>
</mgrwt>
</event>
<event>
 5    1  0.4133473E-007  0.2000046E+02  0.7818608E-02  0.1745319E+00
          3   -1    0    0  501    0  0.00000000000E+00  0.00000000000E+00  0.21543699288E+02  0.21543900018E+02  0.93000000000E-01 0. -1.
         -3   -1    0    0    0  501 -0.00000000000E+00 -0.00000000000E+00 -0.46412532249E+01  0.46421848840E+01  0.93000000000E-01 0.  1.
       1023    2    1    2    0    0  0.00000000000E+00  0.00000000000E+00  0.16902446063E+02  0.26186084902E+02  0.20000458985E+02 0.  0.
        -11    1    3    3    0    0 -0.40164155506E+01 -0.91579805217E+01  0.85379571851E+01  0.13149027122E+02  0.51100000000E-03 0. -1.
         11    1    3    3    0    0  0.40164155506E+01  0.91579805217E+01  0.83644888777E+01  0.13037057780E+02  0.51100000000E-03 0.  1.
<mgrwt>
<rscale>  0 0.20000459E+02</rscale>
<asrwt>0</asrwt>
<pdfrwt beam="1">  1        3 0.33145024E-02 0.20000459E+02</pdfrwt>
<pdfrwt beam="2">  1       -3 0.71412606E-03 0.20000459E+02</pdfrwt>
<totfact> 0.17492930E+06</totfact>
</mgrwt>
</event>
<event>
 5    1  0.4346216E-007  0.2000043E+02  0.7818608E-02  0.1745320E+00
         -3   -1    0    0    0  501 -0.00000000000E+00  0.00000000000E+00  0.48222140045E+01  0.48231107084E+01  0.93000000000E-01 0. -1.
          3   -1    0    0  501    0  0.00000000000E+00 -0.00000000000E+00 -0.20735323005E+02  0.20735531561E+02  0.93000000000E-01 0.  1.
       1023    2    1    2    0    0  0.00000000000E+00  0.00000000000E+00 -0.15913109001E+02  0.25558642270E+02  0.20000428910E+02 0.  0.
        -11    1    3    3    0    0 -0.99951375629E+01  0.31742874267E+00 -0.79916208443E+01  0.12801153850E+02  0.51100000000E-03 0.  1.
         11    1    3    3    0    0  0.99951375629E+01 -0.31742874267E+00 -0.79214881563E+01  0.12757488420E+02  0.51100000000E-03 0. -1.
<mgrwt>
<rscale>  0 0.20000429E+02</rscale>
<asrwt>0</asrwt>
<pdfrwt beam="2">  1        3 0.31901347E-02 0.20000429E+02</pdfrwt>
<pdfrwt beam="1">  1       -3 0.74196411E-03 0.20000429E+02</pdfrwt>
<totfact> 0.17531368E+06</totfact>
</mgrwt>
</event>
<event>
 5    1  0.4133473E-007  0.2000383E+02  0.7818608E-02  0.1745252E+00
          3   -1    0    0  501    0  0.00000000000E+00  0.00000000000E+00  0.36890699129E+02  0.36890816354E+02  0.93000000000E-01 0. -1.
         -3   -1    0    0    0  501 -0.00000000000E+00 -0.00000000000E+00 -0.27108291369E+01  0.27124239361E+01  0.93000000000E-01 0.  1.
       1023    2    1    2    0    0  0.00000000000E+00  0.00000000000E+00  0.34179869992E+02  0.39603240290E+02  0.20003827853E+02 0.  0.
        -11    1    3    3    0    0  0.96019321046E+01  0.27946621940E+01  0.16741105251E+02  0.19500560049E+02  0.51100000000E-03 0.  1.
         11    1    3    3    0    0 -0.96019321046E+01 -0.27946621940E+01  0.17438764741E+02  0.20102680241E+02  0.51100000000E-03 0. -1.
<mgrwt>
<rscale>  0 0.20003828E+02</rscale>
<asrwt>0</asrwt>
<pdfrwt beam="1">  1        3 0.56756235E-02 0.20003828E+02</pdfrwt>
<pdfrwt beam="2">  1       -3 0.41718236E-03 0.20003828E+02</pdfrwt>
<totfact> 0.16725904E+06</totfact>
</mgrwt>
</event>
<event>
 5    1  0.4133473E-007  0.2000026E+02  0.7818608E-02  0.1745323E+00
         -3   -1    0    0    0  501 -0.00000000000E+00  0.00000000000E+00  0.27928151658E+01  0.27943631743E+01  0.93000000000E-01 0. -1.
          3   -1    0    0  501    0  0.00000000000E+00 -0.00000000000E+00 -0.35795568860E+02  0.35795689671E+02  0.93000000000E-01 0.  1.
       1023    2    1    2    0    0  0.00000000000E+00  0.00000000000E+00 -0.33002753694E+02  0.38590052845E+02  0.20000260678E+02 0.  0.
        -11    1    3    3    0    0 -0.20817224933E+01 -0.97810299940E+01 -0.16458654944E+02  0.19258490053E+02  0.51100000000E-03 0.  1.
         11    1    3    3    0    0  0.20817224933E+01  0.97810299940E+01 -0.16544098750E+02  0.19331562793E+02  0.51100000000E-03 0. -1.
<mgrwt>
<rscale>  0 0.20000261E+02</rscale>
<asrwt>0</asrwt>
<pdfrwt beam="2">  1        3 0.55071386E-02 0.20000261E+02</pdfrwt>
<pdfrwt beam="1">  1       -3 0.42979227E-03 0.20000261E+02</pdfrwt>
<totfact> 0.16786226E+06</totfact>
</mgrwt>
</event>
<event>
 4    1  0.4133473E-007  0.2001304E+02  0.7818608E-02  0.1745069E+00
          3   -1    0    0  501    0  0.00000000000E+00  0.00000000000E+00  0.20333674427E+02  0.20333887103E+02  0.93000000000E-01 0. -1.
         -3   -1    0    0    0  501 -0.00000000000E+00 -0.00000000000E+00 -0.49236860786E+01  0.49245643057E+01  0.93000000000E-01 0.  1.
        -11    1    1    2    0    0 -0.31033672460E+01 -0.95126995687E+01  0.75916504750E+01  0.12560075579E+02  0.51100000000E-03 0. -1.
         11    1    1    2    0    0  0.31033672460E+01  0.95126995687E+01  0.78183378736E+01  0.12698375830E+02  0.51100000000E-03 0.  1.
<mgrwt>
<rscale>  0 0.20013036E+02</rscale>
<asrwt>0</asrwt>
<pdfrwt beam="1">  1        3 0.31283415E-02 0.20013036E+02</pdfrwt>
<pdfrwt beam="2">  1       -3 0.75757408E-03 0.20013036E+02</pdfrwt>
<totfact> 0.17526044E+06</totfact>
</mgrwt>
</event>
<event>
 5    1  0.4133473E-007  0.2000051E+02  0.7818608E-02  0.1745318E+00
          3   -1    0    0  501    0  0.00000000000E+00  0.00000000000E+00  0.10659647000E+01  0.10700138979E+01  0.93000000000E-01 0.  1.
         -3   -1    0    0    0  501 -0.00000000000E+00 -0.00000000000E+00 -0.93634567427E+02  0.93634613611E+02  0.93000000000E-01 0. -1.
       1023    2    1    2    0    0  0.00000000000E+00  0.00000000000E+00 -0.92568602727E+02  0.94704627509E+02  0.20000506517E+02 0.  0.
        -11    1    3    3    0    0 -0.83245630754E+01  0.55413608293E+01 -0.46312208458E+02  0.47379591416E+02  0.51100000000E-03 0.  1.
         11    1    3    3    0    0  0.83245630754E+01 -0.55413608293E+01 -0.46256394268E+02  0.47325036093E+02  0.51100000000E-03 0. -1.
<mgrwt>
<rscale>  0 0.20000507E+02</rscale>
<asrwt>0</asrwt>
<pdfrwt beam="1">  1        3 0.16430967E-03 0.20000507E+02</pdfrwt>
<pdfrwt beam="2">  1       -3 0.14405627E-01 0.20000507E+02</pdfrwt>
<totfact> 0.14366164E+06</totfact>
</mgrwt>
</event>
<event>
 5    1  0.4144414E-007  0.2000319E+02  0.7818608E-02  0.1745265E+00
         -3   -1    0    0    0  501 -0.00000000000E+00  0.00000000000E+00  0.87294885292E+01  0.87299839050E+01  0.93000000000E-01 0.  1.
          3   -1    0    0  501    0  0.00000000000E+00 -0.00000000000E+00 -0.11458073921E+02  0.11458451334E+02  0.93000000000E-01 0. -1.
       1023    2    1    2    0    0  0.00000000000E+00  0.00000000000E+00 -0.27285853914E+01  0.20188435239E+02  0.20003193224E+02 0.  0.
        -11    1    3    3    0    0  0.59475446030E+01  0.80407645227E+01 -0.12947077513E+01  0.10084812806E+02  0.51100000000E-03 0. -1.
         11    1    3    3    0    0 -0.59475446030E+01 -0.80407645227E+01 -0.14338776401E+01  0.10103622433E+02  0.51100000000E-03 0.  1.
<mgrwt>
<rscale>  0 0.20003193E+02</rscale>
<asrwt>0</asrwt>
<pdfrwt beam="2">  1        3 0.17628477E-02 0.20003193E+02</pdfrwt>
<pdfrwt beam="1">  1       -3 0.13430654E-02 0.20003193E+02</pdfrwt>
<totfact> 0.17867039E+06</totfact>
</mgrwt>
</event>
<event>
 5    1  0.4133473E-007  0.2000125E+02  0.7818608E-02  0.1745303E+00
          3   -1    0    0  501    0  0.00000000000E+00  0.00000000000E+00  0.79498905732E+02  0.79498960129E+02  0.93000000000E-01 0. -1.
         -3   -1    0    0    0  501 -0.00000000000E+00 -0.00000000000E+00 -0.12562627947E+01  0.12597004443E+01  0.93000000000E-01 0.  1.
       1023    2    1    2    0    0  0.00000000000E+00  0.00000000000E+00  0.78242642938E+02  0.80758660573E+02  0.20001252055E+02 0.  0.
        -11    1    3    3    0    0 -0.90334243922E+01  0.42893831281E+01  0.38698678132E+02  0.39969854306E+02  0.51100000000E-03 0. -1.
         11    1    3    3    0    0  0.90334243922E+01 -0.42893831281E+01  0.39543964806E+02  0.40788806267E+02  0.51100000000E-03 0.  1.
<mgrwt>
<rscale>  0 0.20001252E+02</rscale>
<asrwt>0</asrwt>
<pdfrwt beam="1">  1        3 0.12230866E-01 0.20001252E+02</pdfrwt>
<pdfrwt beam="2">  1       -3 0.19353987E-03 0.20001252E+02</pdfrwt>
<totfact> 0.14879997E+06</totfact>
</mgrwt>
</event>
<event>
 5    1  0.4254759E-007  0.2000086E+02  0.7818608E-02  0.1745311E+00
         -3   -1    0    0    0  501 -0.00000000000E+00  0.00000000000E+00  0.17955309939E+02  0.17955550785E+02  0.93000000000E-01 0.  1.
          3   -1    0    0  501    0  0.00000000000E+00 -0.00000000000E+00 -0.55691977518E+01  0.55699742009E+01  0.93000000000E-01 0. -1.
       1023    2    1    2    0    0  0.00000000000E+00  0.00000000000E+00  0.12386112187E+02  0.23525524986E+02  0.20000863750E+02 0.  0.
        -11    1    3    3    0    0 -0.30045844209E+01 -0.95383397700E+01  0.61525775531E+01  0.11741450673E+02  0.51100000000E-03 0.  1.
         11    1    3    3    0    0  0.30045844209E+01  0.95383397700E+01  0.62335346336E+01  0.11784074312E+02  0.51100000000E-03 0. -1.
<mgrwt>
<rscale>  0 0.20000864E+02</rscale>
<asrwt>0</asrwt>
<pdfrwt beam="2">  1        3 0.85687791E-03 0.20000864E+02</pdfrwt>
<pdfrwt beam="1">  1       -3 0.27624336E-02 0.20000864E+02</pdfrwt>
<totfact> 0.17657948E+06</totfact>
</mgrwt>
</event>
<event>
 5    1  0.4133473E-007  0.2000150E+02  0.7818608E-02  0.1745298E+00
          3   -1    0    0  501    0  0.00000000000E+00  0.00000000000E+00  0.10313078205E+01  0.10354925498E+01  0.93000000000E-01 0. -1.
         -3   -1    0    0    0  501 -0.00000000000E+00 -0.00000000000E+00 -0.96778232592E+02  0.96778277277E+02  0.93000000000E-01 0.  1.
       1023    2    1    2    0    0  0.00000000000E+00  0.00000000000E+00 -0.95746924772E+02  0.97813769827E+02  0.20001499055E+02 0.  0.
        -11    1    3    3    0    0  0.39517307771E+00 -0.99922072060E+01 -0.47282072191E+02  0.48327991035E+02  0.51100000000E-03 0. -1.
         11    1    3    3    0    0 -0.39517307771E+00  0.99922072060E+01 -0.48464852581E+02  0.49485778792E+02  0.51100000000E-03 0.  1.
<mgrwt>
<rscale>  0 0.20001499E+02</rscale>
<asrwt>0</asrwt>
<pdfrwt beam="1">  1        3 0.15898816E-03 0.20001499E+02</pdfrwt>
<pdfrwt beam="2">  1       -3 0.14889277E-01 0.20001499E+02</pdfrwt>
<totfact> 0.14254729E+06</totfact>
</mgrwt>
</event>
<event>
 4    1  0.4133473E-007  0.2003775E+02  0.7818608E-02  0.1744578E+00
          3   -1    0    0  501    0  0.00000000000E+00  0.00000000000E+00  0.11434175447E+02  0.11434553649E+02  0.93000000000E-01 0.  1.
         -3   -1    0    0    0  501 -0.00000000000E+00 -0.00000000000E+00 -0.87779845947E+01  0.87784772338E+01  0.93000000000E-01 0. -1.
        -11    1    1    2    0    0 -0.95047927145E+01 -0.31115731750E+01  0.19289945841E+01  0.10185479495E+02  0.51100000000E-03 0.  1.
         11    1    1    2    0    0  0.95047927145E+01  0.31115731750E+01  0.72719626802E+00  0.10027551388E+02  0.51100000000E-03 0. -1.
<mgrwt>
<rscale>  0 0.20037746E+02</rscale>
<asrwt>0</asrwt>
<pdfrwt beam="1">  1        3 0.17591709E-02 0.20037746E+02</pdfrwt>
<pdfrwt beam="2">  1       -3 0.13505262E-02 0.20037746E+02</pdfrwt>
<totfact> 0.17799105E+06</totfact>
</mgrwt>
</event>
<event>
 4    1  0.4133473E-007  0.2008413E+02  0.7818608E-02  0.1743660E+00
         -3   -1    0    0    0  501 -0.00000000000E+00  0.00000000000E+00  0.26222464244E+01  0.26238950647E+01  0.93000000000E-01 0.  1.
          3   -1    0    0  501    0  0.00000000000E+00 -0.00000000000E+00 -0.38442963531E+02  0.38443076022E+02  0.93000000000E-01 0. -1.
        -11    1    1    2    0    0  0.93707864021E+01  0.36079512876E+01 -0.17667261378E+02  0.20321443727E+02  0.51100000000E-03 0.  1.
         11    1    1    2    0    0 -0.93707864021E+01 -0.36079512876E+01 -0.18153455728E+02  0.20745527360E+02  0.51100000000E-03 0. -1.
<mgrwt>
<rscale>  0 0.20084132E+02</rscale>
<asrwt>0</asrwt>
<pdfrwt beam="2">  1        3 0.59144371E-02 0.20084132E+02</pdfrwt>
<pdfrwt beam="1">  1       -3 0.40355803E-03 0.20084132E+02</pdfrwt>
<totfact> 0.16506190E+06</totfact>
</mgrwt>
</event>
<event>
 5    1  0.4133473E-007  0.2000051E+02  0.7818608E-02  0.1745318E+00
          3   -1    0    0  501    0  0.00000000000E+00  0.00000000000E+00  0.22800866347E+01  0.22819824850E+01  0.93000000000E-01 0. -1.
         -3   -1    0    0    0  501 -0.00000000000E+00 -0.00000000000E+00 -0.43840033710E+02  0.43840132352E+02  0.93000000000E-01 0.  1.
       1023    2    1    2    0    0  0.00000000000E+00  0.00000000000E+00 -0.41559947075E+02  0.46122114837E+02  0.20000506898E+02 0.  0.
        -11    1    3    3    0    0 -0.27799544344E+01 -0.96059682155E+01 -0.20890490075E+02  0.23160642216E+02  0.51100000000E-03 0. -1.
         11    1    3    3    0    0  0.27799544344E+01  0.96059682155E+01 -0.20669457000E+02  0.22961472621E+02  0.51100000000E-03 0.  1.
<mgrwt>
<rscale>  0 0.20000507E+02</rscale>
<asrwt>0</asrwt>
<pdfrwt beam="1">  1        3 0.35093601E-03 0.20000507E+02</pdfrwt>
<pdfrwt beam="2">  1       -3 0.67447734E-02 0.20000507E+02</pdfrwt>
<totfact> 0.16399162E+06</totfact>
</mgrwt>
</event>
<event>
 5    1  0.4133473E-007  0.2000040E+02  0.7818608E-02  0.1745320E+00
          3   -1    0    0  501    0  0.00000000000E+00  0.00000000000E+00  0.44170483222E+02  0.44170581127E+02  0.93000000000E-01 0.  1.
         -3   -1    0    0    0  501 -0.00000000000E+00 -0.00000000000E+00 -0.22629911078E+01  0.22649012681E+01  0.93000000000E-01 0. -1.
       1023    2    1    2    0    0  0.00000000000E+00  0.00000000000E+00  0.41907492114E+02  0.46435482395E+02  0.20000403244E+02 0.  0.
        -11    1    3    3    0    0  0.67241514050E+01  0.74019452555E+01  0.20879358738E+02  0.23150607492E+02  0.51100000000E-03 0. -1.
         11    1    3    3    0    0 -0.67241514050E+01 -0.74019452555E+01  0.21028133376E+02  0.23284874903E+02  0.51100000000E-03 0.  1.
<mgrwt>
<rscale>  0 0.20000403E+02</rscale>
<asrwt>0</asrwt>
<pdfrwt beam="1">  1        3 0.67956129E-02 0.20000403E+02</pdfrwt>
<pdfrwt beam="2">  1       -3 0.34830697E-03 0.20000403E+02</pdfrwt>
<totfact> 0.16381259E+06</totfact>
</mgrwt>
</event>
<event>
 5    1  0.4158968E-007  0.2000054E+02  0.7818608E-02  0.1745317E+00
         -3   -1    0    0    0  501 -0.00000000000E+00  0.00000000000E+00  0.10251618373E+02  0.10252040200E+02  0.93000000000E-01 0. -1.
          3   -1    0    0  501    0  0.00000000000E+00 -0.00000000000E+00 -0.97542393062E+01  0.97546826418E+01  0.93000000000E-01 0.  1.
       1023    2    1    2    0    0  0.00000000000E+00  0.00000000000E+00  0.49737906663E+00  0.20006722842E+02  0.20000539316E+02 0.  0.
        -11    1    3    3    0    0 -0.30482110311E+01  0.95243248871E+01  0.28091637813E+00  0.10004162600E+02  0.51100000000E-03 0.  1.
         11    1    3    3    0    0  0.30482110311E+01 -0.95243248871E+01  0.21646268850E+00  0.10002560242E+02  0.51100000000E-03 0. -1.
<mgrwt>
<rscale>  0 0.20000539E+02</rscale>
<asrwt>0</asrwt>
<pdfrwt beam="2">  1        3 0.15007187E-02 0.20000539E+02</pdfrwt>
<pdfrwt beam="1">  1       -3 0.15772386E-02 0.20000539E+02</pdfrwt>
<totfact> 0.17884174E+06</totfact>
</mgrwt>
</event>
<event>
 5    1  0.4133473E-007  0.2000023E+02  0.7818608E-02  0.1745323E+00
          3   -1    0    0  501    0  0.00000000000E+00  0.00000000000E+00  0.93152774545E+01  0.93157416803E+01  0.93000000000E-01 0. -1.
         -3   -1    0    0    0  501 -0.00000000000E+00 -0.00000000000E+00 -0.10734371191E+02  0.10734774048E+02  0.93000000000E-01 0.  1.
       1023    2    1    2    0    0  0.00000000000E+00  0.00000000000E+00 -0.14190937365E+01  0.20050515728E+02  0.20000233847E+02 0.  0.
        -11    1    3    3    0    0 -0.97142033448E+01 -0.23740909327E+01 -0.69265683492E+00  0.10024062457E+02  0.51100000000E-03 0.  1.
         11    1    3    3    0    0  0.97142033448E+01  0.23740909327E+01 -0.72643690156E+00  0.10026453272E+02  0.51100000000E-03 0. -1.
<mgrwt>
<rscale>  0 0.20000234E+02</rscale>
<asrwt>0</asrwt>
<pdfrwt beam="1">  1        3 0.14331863E-02 0.20000234E+02</pdfrwt>
<pdfrwt beam="2">  1       -3 0.16515084E-02 0.20000234E+02</pdfrwt>
<totfact> 0.17881956E+06</totfact>
</mgrwt>
</event>
<event>
 5    1  0.4133473E-007  0.2000051E+02  0.7818608E-02  0.1745318E+00
         -3   -1    0    0    0  501 -0.00000000000E+00  0.00000000000E+00  0.11679923338E+01  0.11716889911E+01  0.93000000000E-01 0. -1.
          3   -1    0    0  501    0  0.00000000000E+00 -0.00000000000E+00 -0.85482404205E+02  0.85482454794E+02  0.93000000000E-01 0.  1.
       1023    2    1    2    0    0  0.00000000000E+00  0.00000000000E+00 -0.84314411871E+02  0.86654143785E+02  0.20000514643E+02 0.  0.
        -11    1    3    3    0    0 -0.89029556779E+01 -0.45538865919E+01 -0.42452438065E+02  0.43614332516E+02  0.51100000000E-03 0.  1.
         11    1    3    3    0    0  0.89029556779E+01  0.45538865919E+01 -0.41861973805E+02  0.43039811269E+02  0.51100000000E-03 0. -1.
<mgrwt>
<rscale>  0 0.20000515E+02</rscale>
<asrwt>0</asrwt>
<pdfrwt beam="2">  1        3 0.13151423E-01 0.20000515E+02</pdfrwt>
<pdfrwt beam="1">  1       -3 0.17997944E-03 0.20000515E+02</pdfrwt>
<totfact> 0.14657144E+06</totfact>
</mgrwt>
</event>
<event>
 5    1  0.4133473E-007  0.2000227E+02  0.7818608E-02  0.1745283E+00
         -3   -1    0    0    0  501 -0.00000000000E+00  0.00000000000E+00  0.13469453655E+02  0.13469774711E+02  0.93000000000E-01 0.  1.
          3   -1    0    0  501    0  0.00000000000E+00 -0.00000000000E+00 -0.74251881500E+01  0.74257705366E+01  0.93000000000E-01 0. -1.
       1023    2    1    2    0    0  0.00000000000E+00  0.00000000000E+00  0.60442655052E+01  0.20895545248E+02  0.20002266514E+02 0.  0.
        -11    1    3    3    0    0 -0.99542198923E+01  0.96445881769E+00  0.31029956259E+01  0.10471163096E+02  0.51100000000E-03 0. -1.
         11    1    3    3    0    0  0.99542198923E+01 -0.96445881769E+00  0.29412698793E+01  0.10424382151E+02  0.51100000000E-03 0.  1.
<mgrwt>
<rscale>  0 0.20002267E+02</rscale>
<asrwt>0</asrwt>
<pdfrwt beam="2">  1        3 0.11424061E-02 0.20002267E+02</pdfrwt>
<pdfrwt beam="1">  1       -3 0.20722931E-02 0.20002267E+02</pdfrwt>
<totfact> 0.17823066E+06</totfact>
</mgrwt>
</event>
<event>
 5    1  0.4258124E-007  0.2000071E+02  0.7818608E-02  0.1745314E+00
          3   -1    0    0  501    0  0.00000000000E+00  0.00000000000E+00  0.14205825643E+02  0.14206130057E+02  0.93000000000E-01 0. -1.
         -3   -1    0    0    0  501 -0.00000000000E+00 -0.00000000000E+00 -0.70391789509E+01  0.70397932713E+01  0.93000000000E-01 0.  1.
       1023    2    1    2    0    0  0.00000000000E+00  0.00000000000E+00  0.71666466920E+01  0.21245923328E+02  0.20000710819E+02 0.  0.
        -11    1    3    3    0    0  0.50594367122E+01  0.86257361182E+01  0.36648106143E+01  0.10650448841E+02  0.51100000000E-03 0. -1.
         11    1    3    3    0    0 -0.50594367122E+01 -0.86257361182E+01  0.35018360777E+01  0.10595474487E+02  0.51100000000E-03 0.  1.
<mgrwt>
<rscale>  0 0.20000711E+02</rscale>
<asrwt>0</asrwt>
<pdfrwt beam="1">  1        3 0.21855823E-02 0.20000711E+02</pdfrwt>
<pdfrwt beam="2">  1       -3 0.10830213E-02 0.20000711E+02</pdfrwt>
<totfact> 0.17802710E+06</totfact>
</mgrwt>
</event>
<event>
 5    1  0.4236484E-007  0.2000074E+02  0.7818608E-02  0.1745313E+00
          3   -1    0    0  501    0  0.00000000000E+00  0.00000000000E+00  0.29846129149E+01  0.29860614950E+01  0.93000000000E-01 0.  1.
         -3   -1    0    0    0  501 -0.00000000000E+00 -0.00000000000E+00 -0.33498011982E+02  0.33498141079E+02  0.93000000000E-01 0. -1.
       1023    2    1    2    0    0  0.00000000000E+00  0.00000000000E+00 -0.30513399067E+02  0.36484202574E+02  0.20000737857E+02 0.  0.
        -11    1    3    3    0    0  0.24097877476E+01  0.97055893141E+01 -0.15334893903E+02  0.18307498797E+02  0.51100000000E-03 0. -1.
         11    1    3    3    0    0 -0.24097877476E+01 -0.97055893141E+01 -0.15178505164E+02  0.18176703777E+02  0.51100000000E-03 0.  1.
<mgrwt>
<rscale>  0 0.20000738E+02</rscale>
<asrwt>0</asrwt>
<pdfrwt beam="1">  1        3 0.45929260E-03 0.20000738E+02</pdfrwt>
<pdfrwt beam="2">  1       -3 0.51536614E-02 0.20000738E+02</pdfrwt>
<totfact> 0.16901213E+06</totfact>
</mgrwt>
</event>
<event>
 5    1  0.4133473E-007  0.2000011E+02  0.7818608E-02  0.1745326E+00
          3   -1    0    0  501    0  0.00000000000E+00  0.00000000000E+00  0.33788155662E+01  0.33800952103E+01  0.93000000000E-01 0.  1.
         -3   -1    0    0    0  501 -0.00000000000E+00 -0.00000000000E+00 -0.29589525022E+02  0.29589671171E+02  0.93000000000E-01 0. -1.
       1023    2    1    2    0    0  0.00000000000E+00  0.00000000000E+00 -0.26210709455E+02  0.32969766381E+02  0.20000105127E+02 0.  0.
        -11    1    3    3    0    0 -0.68370550010E+01 -0.72976241143E+01 -0.13071885828E+02  0.16458275674E+02  0.51100000000E-03 0.  1.
         11    1    3    3    0    0  0.68370550010E+01  0.72976241143E+01 -0.13138823628E+02  0.16511490707E+02  0.51100000000E-03 0. -1.
<mgrwt>
<rscale>  0 0.20000105E+02</rscale>
<asrwt>0</asrwt>
<pdfrwt beam="1">  1        3 0.51992747E-03 0.20000105E+02</pdfrwt>
<pdfrwt beam="2">  1       -3 0.45523441E-02 0.20000105E+02</pdfrwt>
<totfact> 0.17097396E+06</totfact>
</mgrwt>
</event>
<event>
 4    1  0.4133473E-007  0.2001337E+02  0.7818608E-02  0.1745062E+00
          3   -1    0    0  501    0  0.00000000000E+00  0.00000000000E+00  0.56476798788E+02  0.56476875359E+02  0.93000000000E-01 0.  1.
         -3   -1    0    0    0  501 -0.00000000000E+00 -0.00000000000E+00 -0.17717086838E+01  0.17741478688E+01  0.93000000000E-01 0. -1.
        -11    1    1    2    0    0 -0.82529062220E+01 -0.56585033949E+01  0.27549606395E+02  0.29310577179E+02  0.51100000000E-03 0.  1.
         11    1    1    2    0    0  0.82529062220E+01  0.56585033949E+01  0.27155483710E+02  0.28940446050E+02  0.51100000000E-03 0. -1.
<mgrwt>
<rscale>  0 0.20013366E+02</rscale>
<asrwt>0</asrwt>
<pdfrwt beam="1">  1        3 0.86889314E-02 0.20013366E+02</pdfrwt>
<pdfrwt beam="2">  1       -3 0.27276410E-03 0.20013366E+02</pdfrwt>
<totfact> 0.15799427E+06</totfact>
</mgrwt>
</event>
<event>
 5    1  0.4133473E-007  0.2000002E+02  0.7818608E-02  0.1745328E+00
         -3   -1    0    0    0  501 -0.00000000000E+00  0.00000000000E+00  0.33538040845E+01  0.33550932680E+01  0.93000000000E-01 0.  1.
          3   -1    0    0  501    0  0.00000000000E+00 -0.00000000000E+00 -0.29809862352E+02  0.29810007421E+02  0.93000000000E-01 0. -1.
       1023    2    1    2    0    0  0.00000000000E+00  0.00000000000E+00 -0.26456058268E+02  0.33165100689E+02  0.20000022117E+02 0.  0.
        -11    1    3    3    0    0 -0.12871756289E+01 -0.99168153315E+01 -0.13206187571E+02  0.16565127160E+02  0.51100000000E-03 0.  1.
         11    1    3    3    0    0  0.12871756289E+01  0.99168153315E+01 -0.13249870697E+02  0.16599973529E+02  0.51100000000E-03 0. -1.
<mgrwt>
<rscale>  0 0.20000022E+02</rscale>
<asrwt>0</asrwt>
<pdfrwt beam="2">  1        3 0.45862428E-02 0.20000022E+02</pdfrwt>
<pdfrwt beam="1">  1       -3 0.51608020E-03 0.20000022E+02</pdfrwt>
<totfact> 0.17084625E+06</totfact>
</mgrwt>
</event>
<event>
 5    1  0.4133473E-007  0.2000009E+02  0.7818608E-02  0.1745326E+00
          3   -1    0    0  501    0  0.00000000000E+00  0.00000000000E+00  0.46128462270E+02  0.46128556019E+02  0.93000000000E-01 0. -1.
         -3   -1    0    0    0  501 -0.00000000000E+00 -0.00000000000E+00 -0.21667859489E+01  0.21687808438E+01  0.93000000000E-01 0.  1.
       1023    2    1    2    0    0  0.00000000000E+00  0.00000000000E+00  0.43961676322E+02  0.48297336863E+02  0.20000094077E+02 0.  0.
        -11    1    3    3    0    0 -0.38630757319E+01  0.92237477016E+01  0.22000267325E+02  0.24166353436E+02  0.51100000000E-03 0. -1.
         11    1    3    3    0    0  0.38630757319E+01 -0.92237477016E+01  0.21961408997E+02  0.24130983427E+02  0.51100000000E-03 0.  1.
<mgrwt>
<rscale>  0 0.20000094E+02</rscale>
<asrwt>0</asrwt>
<pdfrwt beam="1">  1        3 0.70968463E-02 0.20000094E+02</pdfrwt>
<pdfrwt beam="2">  1       -3 0.33351239E-03 0.20000094E+02</pdfrwt>
<totfact> 0.16289833E+06</totfact>
</mgrwt>
</event>
<event>
 5    1  0.4140207E-007  0.2000056E+02  0.7818608E-02  0.1745317E+00
          3   -1    0    0  501    0  0.00000000000E+00  0.00000000000E+00  0.23035150692E+01  0.23053916531E+01  0.93000000000E-01 0. -1.
         -3   -1    0    0    0  501 -0.00000000000E+00 -0.00000000000E+00 -0.43394744016E+02  0.43394843671E+02  0.93000000000E-01 0.  1.
       1023    2    1    2    0    0  0.00000000000E+00  0.00000000000E+00 -0.41091228947E+02  0.45700235324E+02  0.20000560300E+02 0.  0.
        -11    1    3    3    0    0 -0.85951553987E+01  0.51114444278E+01 -0.20442352323E+02  0.22757269810E+02  0.51100000000E-03 0. -1.
         11    1    3    3    0    0  0.85951553987E+01 -0.51114444278E+01 -0.20648876624E+02  0.22942965514E+02  0.51100000000E-03 0.  1.
<mgrwt>
<rscale>  0 0.20000560E+02</rscale>
<asrwt>0</asrwt>
<pdfrwt beam="1">  1        3 0.35453898E-03 0.20000560E+02</pdfrwt>
<pdfrwt beam="2">  1       -3 0.66762659E-02 0.20000560E+02</pdfrwt>
<totfact> 0.16420165E+06</totfact>
</mgrwt>
</event>
<event>
 5    1  0.4133473E-007  0.2000071E+02  0.7818608E-02  0.1745314E+00
         -3   -1    0    0    0  501 -0.00000000000E+00  0.00000000000E+00  0.11035054519E+01  0.11074173930E+01  0.93000000000E-01 0. -1.
          3   -1    0    0  501    0  0.00000000000E+00 -0.00000000000E+00 -0.90462429199E+02  0.90462477003E+02  0.93000000000E-01 0.  1.
       1023    2    1    2    0    0  0.00000000000E+00  0.00000000000E+00 -0.89358923747E+02  0.91569894396E+02  0.20000707650E+02 0.  0.
        -11    1    3    3    0    0 -0.54320711806E+00  0.99854709283E+01 -0.44456448007E+02  0.45567318039E+02  0.51100000000E-03 0. -1.
         11    1    3    3    0    0  0.54320711806E+00 -0.99854709283E+01 -0.44902475740E+02  0.46002576357E+02  0.51100000000E-03 0.  1.
<mgrwt>
<rscale>  0 0.20000708E+02</rscale>
<asrwt>0</asrwt>
<pdfrwt beam="2">  1        3 0.13917596E-01 0.20000708E+02</pdfrwt>
<pdfrwt beam="1">  1       -3 0.17007474E-03 0.20000708E+02</pdfrwt>
<totfact> 0.14475765E+06</totfact>
</mgrwt>
</event>
<event>
 5    1  0.4133473E-007  0.2000027E+02  0.7818608E-02  0.1745323E+00
         -3   -1    0    0    0  501 -0.00000000000E+00  0.00000000000E+00  0.55219527429E+02  0.55219605743E+02  0.93000000000E-01 0.  1.
          3   -1    0    0  501    0  0.00000000000E+00 -0.00000000000E+00 -0.18097292001E+01  0.18121172086E+01  0.93000000000E-01 0. -1.
       1023    2    1    2    0    0  0.00000000000E+00  0.00000000000E+00  0.53409798229E+02  0.57031722952E+02  0.20000271899E+02 0.  0.
        -11    1    3    3    0    0 -0.98043112567E+01  0.19690926038E+01  0.26620604756E+02  0.28436920416E+02  0.51100000000E-03 0.  1.
         11    1    3    3    0    0  0.98043112567E+01 -0.19690926038E+01  0.26789193473E+02  0.28594802536E+02  0.51100000000E-03 0. -1.
<mgrwt>
<rscale>  0 0.20000272E+02</rscale>
<asrwt>0</asrwt>
<pdfrwt beam="2">  1        3 0.27860964E-03 0.20000272E+02</pdfrwt>
<pdfrwt beam="1">  1       -3 0.84955001E-02 0.20000272E+02</pdfrwt>
<totfact> 0.15879683E+06</totfact>
</mgrwt>
</event>
<event>
 5    1  0.4133473E-007  0.2000002E+02  0.7818608E-02  0.1745328E+00
         -3   -1    0    0    0  501 -0.00000000000E+00  0.00000000000E+00  0.20028501686E+02  0.20028717602E+02  0.93000000000E-01 0. -1.
          3   -1    0    0  501    0  0.00000000000E+00 -0.00000000000E+00 -0.49922180973E+01  0.49930842703E+01  0.93000000000E-01 0.  1.
       1023    2    1    2    0    0  0.00000000000E+00  0.00000000000E+00  0.15036283589E+02  0.25021801872E+02  0.20000018620E+02 0.  0.
        -11    1    3    3    0    0 -0.40523259091E+01 -0.91421406343E+01  0.75053046446E+01  0.12503186743E+02  0.51100000000E-03 0.  1.
         11    1    3    3    0    0  0.40523259091E+01  0.91421406343E+01  0.75309789440E+01  0.12518615130E+02  0.51100000000E-03 0. -1.
<mgrwt>
<rscale>  0 0.20000019E+02</rscale>
<asrwt>0</asrwt>
<pdfrwt beam="2">  1        3 0.76811678E-03 0.20000019E+02</pdfrwt>
<pdfrwt beam="1">  1       -3 0.30813912E-02 0.20000019E+02</pdfrwt>
<totfact> 0.17566452E+06</totfact>
</mgrwt>
</event>
<event>
 5    1  0.4229861E-007  0.2000163E+02  0.7818608E-02  0.1745296E+00
          3   -1    0    0  501    0  0.00000000000E+00  0.00000000000E+00  0.38671583028E+01  0.38682764041E+01  0.93000000000E-01 0.  1.
         -3   -1    0    0    0  501 -0.00000000000E+00 -0.00000000000E+00 -0.25858066325E+02  0.25858233564E+02  0.93000000000E-01 0. -1.
       1023    2    1    2    0    0  0.00000000000E+00  0.00000000000E+00 -0.21990908022E+02  0.29726509968E+02  0.20001633915E+02 0.  0.
        -11    1    3    3    0    0 -0.87963517425E+01  0.47575248224E+01 -0.11115212380E+02  0.14951849148E+02  0.51100000000E-03 0.  1.
         11    1    3    3    0    0  0.87963517425E+01 -0.47575248224E+01 -0.10875695642E+02  0.14774660821E+02  0.51100000000E-03 0. -1.
<mgrwt>
<rscale>  0 0.20001634E+02</rscale>
<asrwt>0</asrwt>
<pdfrwt beam="1">  1        3 0.59504632E-03 0.20001634E+02</pdfrwt>
<pdfrwt beam="2">  1       -3 0.39782628E-02 0.20001634E+02</pdfrwt>
<totfact> 0.17280994E+06</totfact>
</mgrwt>
</event>
<event>
 5    1  0.4133473E-007  0.2000317E+02  0.7818608E-02  0.1745265E+00
          3   -1    0    0  501    0  0.00000000000E+00  0.00000000000E+00  0.82046881900E+00  0.82572276398E+00  0.93000000000E-01 0.  1.
         -3   -1    0    0    0  501 -0.00000000000E+00 -0.00000000000E+00 -0.12152577840E+03  0.12152581399E+03  0.93000000000E-01 0. -1.
       1023    2    1    2    0    0  0.00000000000E+00  0.00000000000E+00 -0.12070530958E+03  0.12235153675E+03  0.20003169344E+02 0.  0.
        -11    1    3    3    0    0  0.32260484260E+01  0.94669850220E+01 -0.60215632524E+02  0.61040589728E+02  0.51100000000E-03 0. -1.
         11    1    3    3    0    0 -0.32260484260E+01 -0.94669850220E+01 -0.60489677057E+02  0.61310947021E+02  0.51100000000E-03 0.  1.
<mgrwt>
<rscale>  0 0.20003169E+02</rscale>
<asrwt>0</asrwt>
<pdfrwt beam="1">  1        3 0.12663296E-03 0.20003169E+02</pdfrwt>
<pdfrwt beam="2">  1       -3 0.18696666E-01 0.20003169E+02</pdfrwt>
<totfact> 0.13446109E+06</totfact>
</mgrwt>
</event>
<event>
 5    1  0.4133473E-007  0.2001091E+02  0.7818608E-02  0.1745111E+00
          3   -1    0    0  501    0  0.00000000000E+00  0.00000000000E+00  0.31444162790E+02  0.31444300319E+02  0.93000000000E-01 0. -1.
         -3   -1    0    0    0  501 -0.00000000000E+00 -0.00000000000E+00 -0.31828874523E+01  0.31842458344E+01  0.93000000000E-01 0.  1.
       1023    2    1    2    0    0  0.00000000000E+00  0.00000000000E+00  0.28261275338E+02  0.34628546154E+02  0.20010910149E+02 0.  0.
        -11    1    3    3    0    0 -0.49499273017E+01 -0.86939739888E+01  0.13872993285E+02  0.17104002659E+02  0.51100000000E-03 0. -1.
         11    1    3    3    0    0  0.49499273017E+01  0.86939739888E+01  0.14388282052E+02  0.17524543495E+02  0.51100000000E-03 0.  1.
<mgrwt>
<rscale>  0 0.20010910E+02</rscale>
<asrwt>0</asrwt>
<pdfrwt beam="1">  1        3 0.48376786E-02 0.20010910E+02</pdfrwt>
<pdfrwt beam="2">  1       -3 0.48979007E-03 0.20010910E+02</pdfrwt>
<totfact> 0.16982732E+06</totfact>
</mgrwt>
</event>
<event>
 5    1  0.4155095E-007  0.2000176E+02  0.7818608E-02  0.1745293E+00
          3   -1    0    0  501    0  0.00000000000E+00  0.00000000000E+00  0.24989780268E+01  0.25007079355E+01  0.93000000000E-01 0.  1.
         -3   -1    0    0    0  501 -0.00000000000E+00 -0.00000000000E+00 -0.40007763604E+02  0.40007871696E+02  0.93000000000E-01 0. -1.
       1023    2    1    2    0    0  0.00000000000E+00  0.00000000000E+00 -0.37508785578E+02  0.42508579631E+02  0.20001758592E+02 0.  0.
        -11    1    3    3    0    0 -0.79171159957E+01 -0.61100809005E+01 -0.18884920197E+02  0.21369464790E+02  0.51100000000E-03 0. -1.
         11    1    3    3    0    0  0.79171159957E+01  0.61100809005E+01 -0.18623865380E+02  0.21139114841E+02  0.51100000000E-03 0.  1.
<mgrwt>
<rscale>  0 0.20001759E+02</rscale>
<asrwt>0</asrwt>
<pdfrwt beam="1">  1        3 0.38459957E-03 0.20001759E+02</pdfrwt>
<pdfrwt beam="2">  1       -3 0.61551814E-02 0.20001759E+02</pdfrwt>
<totfact> 0.16580282E+06</totfact>
</mgrwt>
</event>
<event>
 5    1  0.4133473E-007  0.2000018E+02  0.7818608E-02  0.1745325E+00
          3   -1    0    0  501    0  0.00000000000E+00  0.00000000000E+00  0.48780243181E+02  0.48780331834E+02  0.93000000000E-01 0.  1.
         -3   -1    0    0    0  501 -0.00000000000E+00 -0.00000000000E+00 -0.20489010877E+01  0.20510106453E+01  0.93000000000E-01 0. -1.
       1023    2    1    2    0    0  0.00000000000E+00  0.00000000000E+00  0.46731342094E+02  0.50831342479E+02  0.20000176108E+02 0.  0.
        -11    1    3    3    0    0  0.22527842007E+01 -0.97430058199E+01  0.23425909884E+02  0.25471051278E+02  0.51100000000E-03 0. -1.
         11    1    3    3    0    0 -0.22527842007E+01  0.97430058199E+01  0.23305432210E+02  0.25360291201E+02  0.51100000000E-03 0.  1.
<mgrwt>
<rscale>  0 0.20000176E+02</rscale>
<asrwt>0</asrwt>
<pdfrwt beam="1">  1        3 0.75048222E-02 0.20000176E+02</pdfrwt>
<pdfrwt beam="2">  1       -3 0.31538463E-03 0.20000176E+02</pdfrwt>
<totfact> 0.16166892E+06</totfact>
</mgrwt>
</event>
<event>
 5    1  0.4133473E-007  0.2000051E+02  0.7818608E-02  0.1745318E+00
          3   -1    0    0  501    0  0.00000000000E+00  0.00000000000E+00  0.10219299535E+01  0.10261529272E+01  0.93000000000E-01 0.  1.
         -3   -1    0    0    0  501 -0.00000000000E+00 -0.00000000000E+00 -0.97652986958E+02  0.97653031242E+02  0.93000000000E-01 0. -1.
       1023    2    1    2    0    0  0.00000000000E+00  0.00000000000E+00 -0.96631057004E+02  0.98679184169E+02  0.20000505258E+02 0.  0.
        -11    1    3    3    0    0 -0.27503512900E+01 -0.96146042994E+01 -0.48325791555E+02  0.49349642123E+02  0.51100000000E-03 0. -1.
         11    1    3    3    0    0  0.27503512900E+01  0.96146042994E+01 -0.48305265450E+02  0.49329542046E+02  0.51100000000E-03 0.  1.
<mgrwt>
<rscale>  0 0.20000505E+02</rscale>
<asrwt>0</asrwt>
<pdfrwt beam="1">  1        3 0.15754832E-03 0.20000505E+02</pdfrwt>
<pdfrwt beam="2">  1       -3 0.15023857E-01 0.20000505E+02</pdfrwt>
<totfact> 0.14225995E+06</totfact>
</mgrwt>
</event>
<event>
 5    1  0.4133473E-007  0.2000651E+02  0.7818608E-02  0.1745199E+00
         -3   -1    0    0    0  501 -0.00000000000E+00  0.00000000000E+00  0.53279584407E+02  0.53279665573E+02  0.93000000000E-01 0. -1.
          3   -1    0    0  501    0  0.00000000000E+00 -0.00000000000E+00 -0.18768799337E+01  0.18791826110E+01  0.93000000000E-01 0.  1.
       1023    2    1    2    0    0  0.00000000000E+00  0.00000000000E+00  0.51402704473E+02  0.55158848184E+02  0.20006511586E+02 0.  0.
        -11    1    3    3    0    0 -0.99380937120E+01  0.11298479502E+01  0.25284471222E+02  0.27190931361E+02  0.51100000000E-03 0. -1.
         11    1    3    3    0    0  0.99380937120E+01 -0.11298479502E+01  0.26118233251E+02  0.27967916823E+02  0.51100000000E-03 0.  1.
<mgrwt>
<rscale>  0 0.20006512E+02</rscale>
<asrwt>0</asrwt>
<pdfrwt beam="2">  1        3 0.28893414E-03 0.20006512E+02</pdfrwt>
<pdfrwt beam="1">  1       -3 0.81970422E-02 0.20006512E+02</pdfrwt>
<totfact> 0.15954948E+06</totfact>
</mgrwt>
</event>
<event>
 5    1  0.4388444E-007  0.2000116E+02  0.7818608E-02  0.1745305E+00
         -3   -1    0    0    0  501 -0.00000000000E+00  0.00000000000E+00  0.68582655637E+01  0.68588960877E+01  0.93000000000E-01 0.  1.
          3   -1    0    0  501    0  0.00000000000E+00 -0.00000000000E+00 -0.14581193893E+02  0.14581490470E+02  0.93000000000E-01 0. -1.
       1023    2    1    2    0    0  0.00000000000E+00  0.00000000000E+00 -0.77229283289E+01  0.21440386558E+02  0.20001163811E+02 0.  0.
        -11    1    3    3    0    0  0.90045523090E+01  0.43507660905E+01 -0.38372482573E+01  0.10711470595E+02  0.51100000000E-03 0. -1.
         11    1    3    3    0    0 -0.90045523090E+01 -0.43507660905E+01 -0.38856800716E+01  0.10728915963E+02  0.51100000000E-03 0.  1.
<mgrwt>
<rscale>  0 0.20001164E+02</rscale>
<asrwt>0</asrwt>
<pdfrwt beam="2">  1        3 0.22433319E-02 0.20001164E+02</pdfrwt>
<pdfrwt beam="1">  1       -3 0.10551891E-02 0.20001164E+02</pdfrwt>
<totfact> 0.17789244E+06</totfact>
</mgrwt>
</event>
<event>
 5    1  0.4133473E-007  0.2000377E+02  0.7818608E-02  0.1745253E+00
         -3   -1    0    0    0  501 -0.00000000000E+00  0.00000000000E+00  0.31517894418E+01  0.31531612210E+01  0.93000000000E-01 0. -1.
          3   -1    0    0  501    0  0.00000000000E+00 -0.00000000000E+00 -0.31731622610E+02  0.31731758893E+02  0.93000000000E-01 0.  1.
       1023    2    1    2    0    0  0.00000000000E+00  0.00000000000E+00 -0.28579833168E+02  0.34884920114E+02  0.20003769331E+02 0.  0.
        -11    1    3    3    0    0 -0.23644647404E+01  0.97183058855E+01 -0.14221617988E+02  0.17386505723E+02  0.51100000000E-03 0.  1.
         11    1    3    3    0    0  0.23644647404E+01 -0.97183058855E+01 -0.14358215181E+02  0.17498414392E+02  0.51100000000E-03 0. -1.
<mgrwt>
<rscale>  0 0.20003769E+02</rscale>
<asrwt>0</asrwt>
<pdfrwt beam="2">  1        3 0.48819039E-02 0.20003769E+02</pdfrwt>
<pdfrwt beam="1">  1       -3 0.48500671E-03 0.20003769E+02</pdfrwt>
<totfact> 0.16981543E+06</totfact>
</mgrwt>
</event>
<event>
 5    1  0.4133473E-007  0.2000506E+02  0.7818608E-02  0.1745227E+00
         -3   -1    0    0    0  501 -0.00000000000E+00  0.00000000000E+00  0.18313171625E+01  0.18336770571E+01  0.93000000000E-01 0. -1.
          3   -1    0    0  501    0  0.00000000000E+00 -0.00000000000E+00 -0.54595561433E+02  0.54595640642E+02  0.93000000000E-01 0.  1.
       1023    2    1    2    0    0  0.00000000000E+00  0.00000000000E+00 -0.52764244270E+02  0.56429317699E+02  0.20005059925E+02 0.  0.
        -11    1    3    3    0    0  0.70765952491E+01  0.70690461927E+01 -0.26293324457E+02  0.28131628564E+02  0.51100000000E-03 0.  1.
         11    1    3    3    0    0 -0.70765952491E+01 -0.70690461927E+01 -0.26470919813E+02  0.28297689135E+02  0.51100000000E-03 0. -1.
<mgrwt>
<rscale>  0 0.20005060E+02</rscale>
<asrwt>0</asrwt>
<pdfrwt beam="2">  1        3 0.83995035E-02 0.20005060E+02</pdfrwt>
<pdfrwt beam="1">  1       -3 0.28192877E-03 0.20005060E+02</pdfrwt>
<totfact> 0.15896311E+06</totfact>
</mgrwt>
</event>
<event>
 5    1  0.4133473E-007  0.2000191E+02  0.7818608E-02  0.1745290E+00
          3   -1    0    0  501    0  0.00000000000E+00  0.00000000000E+00  0.21706201169E+01  0.21726114912E+01  0.93000000000E-01 0.  1.
         -3   -1    0    0    0  501 -0.00000000000E+00 -0.00000000000E+00 -0.46055417532E+02  0.46055511430E+02  0.93000000000E-01 0. -1.
       1023    2    1    2    0    0  0.00000000000E+00  0.00000000000E+00 -0.43884797415E+02  0.48228122921E+02  0.20001909816E+02 0.  0.
        -11    1    3    3    0    0  0.62154604972E+01  0.78344882171E+01 -0.21727492743E+02  0.23918509485E+02  0.51100000000E-03 0. -1.
         11    1    3    3    0    0 -0.62154604972E+01 -0.78344882171E+01 -0.22157304672E+02  0.24309613436E+02  0.51100000000E-03 0.  1.
<mgrwt>
<rscale>  0 0.20001910E+02</rscale>
<asrwt>0</asrwt>
<pdfrwt beam="1">  1        3 0.33410200E-03 0.20001910E+02</pdfrwt>
<pdfrwt beam="2">  1       -3 0.70856085E-02 0.20001910E+02</pdfrwt>
<totfact> 0.16292565E+06</totfact>
</mgrwt>
</event>
<event>
 5    1  0.4149026E-007  0.2000138E+02  0.7818608E-02  0.1745301E+00
         -3   -1    0    0    0  501 -0.00000000000E+00  0.00000000000E+00  0.36850475164E+01  0.36862208558E+01  0.93000000000E-01 0. -1.
          3   -1    0    0  501    0  0.00000000000E+00 -0.00000000000E+00 -0.27134858261E+02  0.27135017631E+02  0.93000000000E-01 0.  1.
       1023    2    1    2    0    0  0.00000000000E+00  0.00000000000E+00 -0.23449810745E+02  0.30821238487E+02  0.20001377901E+02 0.  0.
        -11    1    3    3    0    0 -0.33892870421E+01 -0.94082614802E+01 -0.11562347425E+02  0.15286939817E+02  0.51100000000E-03 0. -1.
         11    1    3    3    0    0  0.33892870421E+01  0.94082614802E+01 -0.11887463320E+02  0.15534298670E+02  0.51100000000E-03 0.  1.
<mgrwt>
<rscale>  0 0.20001378E+02</rscale>
<asrwt>0</asrwt>
<pdfrwt beam="2">  1        3 0.41746960E-02 0.20001378E+02</pdfrwt>
<pdfrwt beam="1">  1       -3 0.56703292E-03 0.20001378E+02</pdfrwt>
<totfact> 0.17216152E+06</totfact>
</mgrwt>
</event>
<event>
 5    1  0.4133473E-007  0.2000454E+02  0.7818608E-02  0.1745238E+00
         -3   -1    0    0    0  501 -0.00000000000E+00  0.00000000000E+00  0.17430003103E+01  0.17454796137E+01  0.93000000000E-01 0.  1.
          3   -1    0    0  501    0  0.00000000000E+00 -0.00000000000E+00 -0.57355077859E+02  0.57355153257E+02  0.93000000000E-01 0. -1.
       1023    2    1    2    0    0  0.00000000000E+00  0.00000000000E+00 -0.55612077548E+02  0.59100632871E+02  0.20004540397E+02 0.  0.
        -11    1    3    3    0    0 -0.69651419899E+01 -0.71766502485E+01 -0.27312588530E+02  0.29085993264E+02  0.51100000000E-03 0.  1.
         11    1    3    3    0    0  0.69651419899E+01  0.71766502485E+01 -0.28299489019E+02  0.30014639606E+02  0.51100000000E-03 0. -1.
<mgrwt>
<rscale>  0 0.20004540E+02</rscale>
<asrwt>0</asrwt>
<pdfrwt beam="2">  1        3 0.88240532E-02 0.20004540E+02</pdfrwt>
<pdfrwt beam="1">  1       -3 0.26835045E-03 0.20004540E+02</pdfrwt>
<totfact> 0.15776189E+06</totfact>
</mgrwt>
</event>
<event>
 4    1  0.4133473E-007  0.2001938E+02  0.7818608E-02  0.1744943E+00
         -3   -1    0    0    0  501 -0.00000000000E+00  0.00000000000E+00  0.91846157907E+01  0.91850866203E+01  0.93000000000E-01 0.  1.
          3   -1    0    0  501    0  0.00000000000E+00 -0.00000000000E+00 -0.10907934373E+02  0.10908330820E+02  0.93000000000E-01 0. -1.
        -11    1    1    2    0    0  0.72730382605E+01  0.68771556096E+01 -0.82221643718E+00  0.10043325891E+02  0.51100000000E-03 0. -1.
         11    1    1    2    0    0 -0.72730382605E+01 -0.68771556096E+01 -0.90110214471E+00  0.10050091550E+02  0.51100000000E-03 0.  1.
<mgrwt>
<rscale>  0 0.20019381E+02</rscale>
<asrwt>0</asrwt>
<pdfrwt beam="2">  1        3 0.16782105E-02 0.20019381E+02</pdfrwt>
<pdfrwt beam="1">  1       -3 0.14130845E-02 0.20019381E+02</pdfrwt>
<totfact> 0.17842184E+06</totfact>
</mgrwt>
</event>
<event>
 4    1  0.4133473E-007  0.2037320E+02  0.7818608E-02  0.1738007E+00
          3   -1    0    0  501    0  0.00000000000E+00  0.00000000000E+00  0.14514912694E+02  0.14515210626E+02  0.93000000000E-01 0.  1.
         -3   -1    0    0    0  501 -0.00000000000E+00 -0.00000000000E+00 -0.71483042480E+01  0.71489091911E+01  0.93000000000E-01 0. -1.
        -11    1    1    2    0    0 -0.92915292274E+01 -0.41615808579E+01  0.40447243179E+01  0.10954956216E+02  0.51100000000E-03 0.  1.
         11    1    1    2    0    0  0.92915292274E+01  0.41615808579E+01  0.33218841285E+01  0.10709163602E+02  0.51100000000E-03 0. -1.
<mgrwt>
<rscale>  0 0.20373197E+02</rscale>
<asrwt>0</asrwt>
<pdfrwt beam="1">  1        3 0.22331329E-02 0.20373197E+02</pdfrwt>
<pdfrwt beam="2">  1       -3 0.10998086E-02 0.20373197E+02</pdfrwt>
<totfact> 0.17080715E+06</totfact>
</mgrwt>
</event>
<event>
 5    1  0.4133473E-007  0.2000554E+02  0.7818608E-02  0.1745218E+00
          3   -1    0    0  501    0  0.00000000000E+00  0.00000000000E+00  0.28916852946E+01  0.28931804028E+01  0.93000000000E-01 0. -1.
         -3   -1    0    0    0  501 -0.00000000000E+00 -0.00000000000E+00 -0.34590563211E+02  0.34590688231E+02  0.93000000000E-01 0.  1.
       1023    2    1    2    0    0  0.00000000000E+00  0.00000000000E+00 -0.31698877917E+02  0.37483868634E+02  0.20005537897E+02 0.  0.
        -11    1    3    3    0    0  0.52789904775E+01 -0.84955633995E+01 -0.16063468385E+02  0.18922931981E+02  0.51100000000E-03 0. -1.
         11    1    3    3    0    0 -0.52789904775E+01  0.84955633995E+01 -0.15635409532E+02  0.18560936653E+02  0.51100000000E-03 0.  1.
<mgrwt>
<rscale>  0 0.20005538E+02</rscale>
<asrwt>0</asrwt>
<pdfrwt beam="1">  1        3 0.44499931E-03 0.20005538E+02</pdfrwt>
<pdfrwt beam="2">  1       -3 0.53217494E-02 0.20005538E+02</pdfrwt>
<totfact> 0.16838280E+06</totfact>
</mgrwt>
</event>
<event>
 5    1  0.4133473E-007  0.2000093E+02  0.7818608E-02  0.1745310E+00
          3   -1    0    0  501    0  0.00000000000E+00  0.00000000000E+00  0.34436759364E+02  0.34436884941E+02  0.93000000000E-01 0. -1.
         -3   -1    0    0    0  501 -0.00000000000E+00 -0.00000000000E+00 -0.29032671228E+01  0.29047562697E+01  0.93000000000E-01 0.  1.
       1023    2    1    2    0    0  0.00000000000E+00  0.00000000000E+00  0.31533492241E+02  0.37341641211E+02  0.20000925864E+02 0.  0.
        -11    1    3    3    0    0  0.99154773397E+01  0.12981518002E+01  0.15927021208E+02  0.18806166377E+02  0.51100000000E-03 0.  1.
         11    1    3    3    0    0 -0.99154773397E+01 -0.12981518002E+01  0.15606471032E+02  0.18535474834E+02  0.51100000000E-03 0. -1.
<mgrwt>
<rscale>  0 0.20000926E+02</rscale>
<asrwt>0</asrwt>
<pdfrwt beam="1">  1        3 0.52980871E-02 0.20000926E+02</pdfrwt>
<pdfrwt beam="2">  1       -3 0.44678070E-03 0.20000926E+02</pdfrwt>
<totfact> 0.16852200E+06</totfact>
</mgrwt>
</event>
<event>
 5    1  0.4133473E-007  0.2000599E+02  0.7818608E-02  0.1745209E+00
          3   -1    0    0  501    0  0.00000000000E+00  0.00000000000E+00  0.11552262419E+02  0.11552636755E+02  0.93000000000E-01 0. -1.
         -3   -1    0    0    0  501 -0.00000000000E+00 -0.00000000000E+00 -0.86607318516E+01  0.86612311599E+01  0.93000000000E-01 0.  1.
       1023    2    1    2    0    0  0.00000000000E+00  0.00000000000E+00  0.28915305675E+01  0.20213867915E+02  0.20005986781E+02 0.  0.
        -11    1    3    3    0    0 -0.71797172523E+01  0.69622812476E+01  0.16431836589E+01  0.10135174039E+02  0.51100000000E-03 0.  1.
         11    1    3    3    0    0  0.71797172523E+01 -0.69622812476E+01  0.12483469086E+01  0.10078693877E+02  0.51100000000E-03 0. -1.
<mgrwt>
<rscale>  0 0.20005987E+02</rscale>
<asrwt>0</asrwt>
<pdfrwt beam="1">  1        3 0.17773383E-02 0.20005987E+02</pdfrwt>
<pdfrwt beam="2">  1       -3 0.13324875E-02 0.20005987E+02</pdfrwt>
<totfact> 0.17859986E+06</totfact>
</mgrwt>
</event>
<event>
 5    1  0.4133473E-007  0.2000866E+02  0.7818608E-02  0.1745156E+00
          3   -1    0    0  501    0  0.00000000000E+00  0.00000000000E+00  0.10490023531E+01  0.10531167727E+01  0.93000000000E-01 0. -1.
         -3   -1    0    0    0  501 -0.00000000000E+00 -0.00000000000E+00 -0.95220406396E+02  0.95220451812E+02  0.93000000000E-01 0.  1.
       1023    2    1    2    0    0  0.00000000000E+00  0.00000000000E+00 -0.94171404043E+02  0.96273568584E+02  0.20008664837E+02 0.  0.
        -11    1    3    3    0    0 -0.89537392044E+01 -0.44628273049E+01 -0.47181159100E+02  0.48230157034E+02  0.51100000000E-03 0. -1.
         11    1    3    3    0    0  0.89537392044E+01  0.44628273049E+01 -0.46990244943E+02  0.48043411550E+02  0.51100000000E-03 0.  1.
<mgrwt>
<rscale>  0 0.20008665E+02</rscale>
<asrwt>0</asrwt>
<pdfrwt beam="1">  1        3 0.16170504E-03 0.20008665E+02</pdfrwt>
<pdfrwt beam="2">  1       -3 0.14649606E-01 0.20008665E+02</pdfrwt>
<totfact> 0.14297933E+06</totfact>
</mgrwt>
</event>
<event>
 5    1  0.4133473E-007  0.2000004E+02  0.7818608E-02  0.1745327E+00
          3   -1    0    0  501    0  0.00000000000E+00  0.00000000000E+00  0.30544976559E+01  0.30559131091E+01  0.93000000000E-01 0.  1.
         -3   -1    0    0    0  501 -0.00000000000E+00 -0.00000000000E+00 -0.32729670236E+02  0.32729802364E+02  0.93000000000E-01 0. -1.
       1023    2    1    2    0    0  0.00000000000E+00  0.00000000000E+00 -0.29675172580E+02  0.35785715473E+02  0.20000039106E+02 0.  0.
        -11    1    3    3    0    0 -0.53955896850E+01  0.84195012364E+01 -0.14835268157E+02  0.17890935433E+02  0.51100000000E-03 0. -1.
         11    1    3    3    0    0  0.53955896850E+01 -0.84195012364E+01 -0.14839904423E+02  0.17894780040E+02  0.51100000000E-03 0.  1.
<mgrwt>
<rscale>  0 0.20000039E+02</rscale>
<asrwt>0</asrwt>
<pdfrwt beam="1">  1        3 0.47004178E-03 0.20000039E+02</pdfrwt>
<pdfrwt beam="2">  1       -3 0.50354527E-02 0.20000039E+02</pdfrwt>
<totfact> 0.16940679E+06</totfact>
</mgrwt>
</event>
<event>
 5    1  0.4133473E-007  0.2000003E+02  0.7818608E-02  0.1745327E+00
         -3   -1    0    0    0  501 -0.00000000000E+00  0.00000000000E+00  0.41380992481E+01  0.41391441612E+01  0.93000000000E-01 0.  1.
          3   -1    0    0  501    0  0.00000000000E+00 -0.00000000000E+00 -0.24161578497E+02  0.24161757479E+02  0.93000000000E-01 0. -1.
       1023    2    1    2    0    0  0.00000000000E+00  0.00000000000E+00 -0.20023479249E+02  0.28300901640E+02  0.20000032810E+02 0.  0.
        -11    1    3    3    0    0  0.99861658143E+01 -0.52611810607E+00 -0.10018053278E+02  0.14154917862E+02  0.51100000000E-03 0.  1.
         11    1    3    3    0    0 -0.99861658143E+01  0.52611810607E+00 -0.10005425971E+02  0.14145983778E+02  0.51100000000E-03 0. -1.
<mgrwt>
<rscale>  0 0.20000033E+02</rscale>
<asrwt>0</asrwt>
<pdfrwt beam="2">  1        3 0.37172600E-02 0.20000033E+02</pdfrwt>
<pdfrwt beam="1">  1       -3 0.63672482E-03 0.20000033E+02</pdfrwt>
<totfact> 0.17366442E+06</totfact>
</mgrwt>
</event>
<event>
 4    1  0.4133473E-007  0.2054555E+02  0.7818608E-02  0.1734692E+00
          3   -1    0    0  501    0  0.00000000000E+00  0.00000000000E+00  0.34425575677E+01  0.34438135267E+01  0.93000000000E-01 0. -1.
         -3   -1    0    0    0  501 -0.00000000000E+00 -0.00000000000E+00 -0.30647585659E+02  0.30647726763E+02  0.93000000000E-01 0.  1.
        -11    1    1    2    0    0 -0.10256893050E+02  0.49663966509E+00 -0.13134995649E+02  0.16672690753E+02  0.51100000000E-03 0.  1.
         11    1    1    2    0    0  0.10256893050E+02 -0.49663966509E+00 -0.14070032443E+02  0.17418849537E+02  0.51100000000E-03 0. -1.
<mgrwt>
<rscale>  0 0.20545549E+02</rscale>
<asrwt>0</asrwt>
<pdfrwt beam="1">  1        3 0.52973173E-03 0.20545549E+02</pdfrwt>
<pdfrwt beam="2">  1       -3 0.47151205E-02 0.20545549E+02</pdfrwt>
<totfact> 0.16072222E+06</totfact>
</mgrwt>
</event>
<event>
 5    1  0.4250456E-007  0.2000128E+02  0.7818608E-02  0.1745303E+00
         -3   -1    0    0    0  501 -0.00000000000E+00  0.00000000000E+00  0.35506523978E+01  0.35518701342E+01  0.93000000000E-01 0.  1.
          3   -1    0    0  501    0  0.00000000000E+00 -0.00000000000E+00 -0.28161315911E+02  0.28161469472E+02  0.93000000000E-01 0. -1.
       1023    2    1    2    0    0  0.00000000000E+00  0.00000000000E+00 -0.24610663513E+02  0.31713339606E+02  0.20001278720E+02 0.  0.
        -11    1    3    3    0    0  0.60238665750E+01  0.79828451084E+01 -0.12302673899E+02  0.15854607213E+02  0.51100000000E-03 0. -1.
         11    1    3    3    0    0 -0.60238665750E+01 -0.79828451084E+01 -0.12307989614E+02  0.15858732394E+02  0.51100000000E-03 0.  1.
<mgrwt>
<rscale>  0 0.20001279E+02</rscale>
<asrwt>0</asrwt>
<pdfrwt beam="2">  1        3 0.43326155E-02 0.20001279E+02</pdfrwt>
<pdfrwt beam="1">  1       -3 0.54635972E-03 0.20001279E+02</pdfrwt>
<totfact> 0.17164947E+06</totfact>
</mgrwt>
</event>
<event>
 5    1  0.4133473E-007  0.2000085E+02  0.7818608E-02  0.1745311E+00
         -3   -1    0    0    0  501 -0.00000000000E+00  0.00000000000E+00  0.30035297364E+01  0.30049691974E+01  0.93000000000E-01 0.  1.
          3   -1    0    0  501    0  0.00000000000E+00 -0.00000000000E+00 -0.33287494684E+02  0.33287624598E+02  0.93000000000E-01 0. -1.
       1023    2    1    2    0    0  0.00000000000E+00  0.00000000000E+00 -0.30283964948E+02  0.36292593795E+02  0.20000845767E+02 0.  0.
        -11    1    3    3    0    0  0.70123638724E+01 -0.71294574166E+01 -0.15283091913E+02  0.18264044153E+02  0.51100000000E-03 0. -1.
         11    1    3    3    0    0 -0.70123638724E+01  0.71294574166E+01 -0.15000873035E+02  0.18028549642E+02  0.51100000000E-03 0.  1.
<mgrwt>
<rscale>  0 0.20000846E+02</rscale>
<asrwt>0</asrwt>
<pdfrwt beam="2">  1        3 0.51212735E-02 0.20000846E+02</pdfrwt>
<pdfrwt beam="1">  1       -3 0.46220224E-03 0.20000846E+02</pdfrwt>
<totfact> 0.16909402E+06</totfact>
</mgrwt>
</event>
<event>
 5    1  0.4133473E-007  0.2000196E+02  0.7818608E-02  0.1745289E+00
         -3   -1    0    0    0  501 -0.00000000000E+00  0.00000000000E+00  0.65110903698E+01  0.65117545104E+01  0.93000000000E-01 0. -1.
          3   -1    0    0  501    0  0.00000000000E+00 -0.00000000000E+00 -0.15359828379E+02  0.15360109922E+02  0.93000000000E-01 0.  1.
       1023    2    1    2    0    0  0.00000000000E+00  0.00000000000E+00 -0.88487380089E+01  0.21871864433E+02  0.20001957140E+02 0.  0.
        -11    1    3    3    0    0 -0.99582675664E+01 -0.92290146950E+00 -0.44539547258E+01  0.10947901763E+02  0.51100000000E-03 0. -1.
         11    1    3    3    0    0  0.99582675664E+01  0.92290146950E+00 -0.43947832831E+01  0.10923962670E+02  0.51100000000E-03 0.  1.
<mgrwt>
<rscale>  0 0.20001957E+02</rscale>
<asrwt>0</asrwt>
<pdfrwt beam="2">  1        3 0.23631233E-02 0.20001957E+02</pdfrwt>
<pdfrwt beam="1">  1       -3 0.10017790E-02 0.20001957E+02</pdfrwt>
<totfact> 0.17759924E+06</totfact>
</mgrwt>
</event>
<event>
 5    1  0.4133473E-007  0.2000031E+02  0.7818608E-02  0.1745322E+00
          3   -1    0    0  501    0  0.00000000000E+00  0.00000000000E+00  0.57633278380E+02  0.57633353415E+02  0.93000000000E-01 0. -1.
         -3   -1    0    0    0  501 -0.00000000000E+00 -0.00000000000E+00 -0.17338404194E+01  0.17363328022E+01  0.93000000000E-01 0.  1.
       1023    2    1    2    0    0  0.00000000000E+00  0.00000000000E+00  0.55899437960E+02  0.59369686217E+02  0.20000311927E+02 0.  0.
        -11    1    3    3    0    0 -0.91674073315E+01 -0.39951991549E+01  0.27913904340E+02  0.29651121888E+02  0.51100000000E-03 0.  1.
         11    1    3    3    0    0  0.91674073315E+01  0.39951991549E+01  0.27985533621E+02  0.29718564329E+02  0.51100000000E-03 0. -1.
<mgrwt>
<rscale>  0 0.20000312E+02</rscale>
<asrwt>0</asrwt>
<pdfrwt beam="1">  1        3 0.88668555E-02 0.20000312E+02</pdfrwt>
<pdfrwt beam="2">  1       -3 0.26694218E-03 0.20000312E+02</pdfrwt>
<totfact> 0.15771298E+06</totfact>
</mgrwt>
</event>
<event>
 5    1  0.4387447E-007  0.2000108E+02  0.7818608E-02  0.1745307E+00
         -3   -1    0    0    0  501 -0.00000000000E+00  0.00000000000E+00  0.99766592898E+01  0.99770927421E+01  0.93000000000E-01 0. -1.
          3   -1    0    0  501    0  0.00000000000E+00 -0.00000000000E+00 -0.10023615590E+02  0.10024047012E+02  0.93000000000E-01 0.  1.
       1023    2    1    2    0    0  0.00000000000E+00  0.00000000000E+00 -0.46956300667E-01  0.20001139754E+02  0.20001084635E+02 0.  0.
        -11    1    3    3    0    0  0.10477649117E+01  0.99453422142E+01 -0.80076165725E-01  0.10000702751E+02  0.51100000000E-03 0.  1.
         11    1    3    3    0    0 -0.10477649117E+01 -0.99453422142E+01  0.33119865058E-01  0.10000437003E+02  0.51100000000E-03 0. -1.
<mgrwt>
<rscale>  0 0.20001085E+02</rscale>
<asrwt>0</asrwt>
<pdfrwt beam="2">  1        3 0.15421612E-02 0.20001085E+02</pdfrwt>
<pdfrwt beam="1">  1       -3 0.15349372E-02 0.20001085E+02</pdfrwt>
<totfact> 0.17883462E+06</totfact>
</mgrwt>
</event>
<event>
 5    1  0.4192636E-007  0.2000064E+02  0.7818608E-02  0.1745315E+00
         -3   -1    0    0    0  501 -0.00000000000E+00  0.00000000000E+00  0.10528039658E+02  0.10528450410E+02  0.93000000000E-01 0. -1.
          3   -1    0    0  501    0  0.00000000000E+00 -0.00000000000E+00 -0.94982252236E+01  0.94986805082E+01  0.93000000000E-01 0.  1.
       1023    2    1    2    0    0  0.00000000000E+00  0.00000000000E+00  0.10298144345E+01  0.20027130918E+02  0.20000636366E+02 0.  0.
        -11    1    3    3    0    0  0.99870299413E+01 -0.51014734864E+00  0.58812136682E+00  0.10017330202E+02  0.51100000000E-03 0.  1.
         11    1    3    3    0    0 -0.99870299413E+01  0.51014734864E+00  0.44169306764E+00  0.10009800717E+02  0.51100000000E-03 0. -1.
<mgrwt>
<rscale>  0 0.20000636E+02</rscale>
<asrwt>0</asrwt>
<pdfrwt beam="2">  1        3 0.14613320E-02 0.20000636E+02</pdfrwt>
<pdfrwt beam="1">  1       -3 0.16197650E-02 0.20000636E+02</pdfrwt>
<totfact> 0.17882684E+06</totfact>
</mgrwt>
</event>
<event>
 4    1  0.4133473E-007  0.2002528E+02  0.7818608E-02  0.1744826E+00
          3   -1    0    0  501    0  0.00000000000E+00  0.00000000000E+00  0.19208740348E+02  0.19208965478E+02  0.93000000000E-01 0. -1.
         -3   -1    0    0    0  501 -0.00000000000E+00 -0.00000000000E+00 -0.52184629588E+01  0.52192915853E+01  0.93000000000E-01 0.  1.
        -11    1    1    2    0    0 -0.12657924159E+01  0.99322263992E+01  0.70442146804E+01  0.12242234780E+02  0.51100000000E-03 0. -1.
         11    1    1    2    0    0  0.12657924159E+01 -0.99322263992E+01  0.69460627086E+01  0.12186022284E+02  0.51100000000E-03 0.  1.
<mgrwt>
<rscale>  0 0.20025281E+02</rscale>
<asrwt>0</asrwt>
<pdfrwt beam="1">  1        3 0.29552718E-02 0.20025281E+02</pdfrwt>
<pdfrwt beam="2">  1       -3 0.80292152E-03 0.20025281E+02</pdfrwt>
<totfact> 0.17554295E+06</totfact>
</mgrwt>
</event>
<event>
 5    1  0.4133473E-007  0.2000022E+02  0.7818608E-02  0.1745324E+00
         -3   -1    0    0    0  501 -0.00000000000E+00  0.00000000000E+00  0.44554047272E+01  0.44563752404E+01  0.93000000000E-01 0. -1.
          3   -1    0    0  501    0  0.00000000000E+00 -0.00000000000E+00 -0.22441628760E+02  0.22441821459E+02  0.93000000000E-01 0.  1.
       1023    2    1    2    0    0  0.00000000000E+00  0.00000000000E+00 -0.17986224033E+02  0.26898196700E+02  0.20000218267E+02 0.  0.
        -11    1    3    3    0    0 -0.45188857380E+01 -0.89207938413E+01 -0.89447827356E+01  0.13416781638E+02  0.51100000000E-03 0.  1.
         11    1    3    3    0    0  0.45188857380E+01  0.89207938413E+01 -0.90414412974E+01  0.13481415062E+02  0.51100000000E-03 0. -1.
<mgrwt>
<rscale>  0 0.20000218E+02</rscale>
<asrwt>0</asrwt>
<pdfrwt beam="2">  1        3 0.34526477E-02 0.20000218E+02</pdfrwt>
<pdfrwt beam="1">  1       -3 0.68553638E-03 0.20000218E+02</pdfrwt>
<totfact> 0.17450184E+06</totfact>
</mgrwt>
</event>
<event>
 5    1  0.4133473E-007  0.2000268E+02  0.7818608E-02  0.1745275E+00
         -3   -1    0    0    0  501 -0.00000000000E+00  0.00000000000E+00  0.35299085333E+02  0.35299207843E+02  0.93000000000E-01 0. -1.
          3   -1    0    0  501    0  0.00000000000E+00 -0.00000000000E+00 -0.28328020502E+01  0.28343282194E+01  0.93000000000E-01 0.  1.
       1023    2    1    2    0    0  0.00000000000E+00  0.00000000000E+00  0.32466283283E+02  0.38133536063E+02  0.20002675382E+02 0.  0.
        -11    1    3    3    0    0 -0.15175954772E+01  0.98854749435E+01  0.16294753466E+02  0.19119223354E+02  0.51100000000E-03 0. -1.
         11    1    3    3    0    0  0.15175954772E+01 -0.98854749435E+01  0.16171529817E+02  0.19014312708E+02  0.51100000000E-03 0.  1.
<mgrwt>
<rscale>  0 0.20002675E+02</rscale>
<asrwt>0</asrwt>
<pdfrwt beam="2">  1        3 0.43594250E-03 0.20002675E+02</pdfrwt>
<pdfrwt beam="1">  1       -3 0.54307556E-02 0.20002675E+02</pdfrwt>
<totfact> 0.16808486E+06</totfact>
</mgrwt>
</event>
<event>
 5    1  0.4256953E-007  0.2000145E+02  0.7818608E-02  0.1745299E+00
         -3   -1    0    0    0  501 -0.00000000000E+00  0.00000000000E+00  0.13702135813E+02  0.13702451417E+02  0.93000000000E-01 0. -1.
          3   -1    0    0  501    0  0.00000000000E+00 -0.00000000000E+00 -0.72984915735E+01  0.72990840692E+01  0.93000000000E-01 0.  1.
       1023    2    1    2    0    0  0.00000000000E+00  0.00000000000E+00  0.64036442394E+01  0.21001535486E+02  0.20001445779E+02 0.  0.
        -11    1    3    3    0    0  0.87312386227E+01 -0.48763944301E+01  0.31738928357E+01  0.10492251737E+02  0.51100000000E-03 0.  1.
         11    1    3    3    0    0 -0.87312386227E+01  0.48763944301E+01  0.32297514037E+01  0.10509283749E+02  0.51100000000E-03 0. -1.
<mgrwt>
<rscale>  0 0.20001446E+02</rscale>
<asrwt>0</asrwt>
<pdfrwt beam="2">  1        3 0.11229147E-02 0.20001446E+02</pdfrwt>
<pdfrwt beam="1">  1       -3 0.21080907E-02 0.20001446E+02</pdfrwt>
<totfact> 0.17817754E+06</totfact>
</mgrwt>
</event>
<event>
 5    1  0.4246950E-007  0.2000186E+02  0.7818608E-02  0.1745291E+00
          3   -1    0    0  501    0  0.00000000000E+00  0.00000000000E+00  0.12947405612E+02  0.12947739613E+02  0.93000000000E-01 0. -1.
         -3   -1    0    0    0  501 -0.00000000000E+00 -0.00000000000E+00 -0.77242768822E+01  0.77248367201E+01  0.93000000000E-01 0.  1.
       1023    2    1    2    0    0  0.00000000000E+00  0.00000000000E+00  0.52231287297E+01  0.20672576333E+02  0.20001858376E+02 0.  0.
        -11    1    3    3    0    0  0.19133992752E+00  0.99990982084E+01  0.26145629113E+01  0.10337045778E+02  0.51100000000E-03 0. -1.
         11    1    3    3    0    0 -0.19133992752E+00 -0.99990982084E+01  0.26085658184E+01  0.10335530554E+02  0.51100000000E-03 0.  1.
<mgrwt>
<rscale>  0 0.20001858E+02</rscale>
<asrwt>0</asrwt>
<pdfrwt beam="1">  1        3 0.19919773E-02 0.20001858E+02</pdfrwt>
<pdfrwt beam="2">  1       -3 0.11884191E-02 0.20001858E+02</pdfrwt>
<totfact> 0.17837898E+06</totfact>
</mgrwt>
</event>
<event>
 5    1  0.4133473E-007  0.2000388E+02  0.7818608E-02  0.1745251E+00
         -3   -1    0    0    0  501 -0.00000000000E+00  0.00000000000E+00  0.10981852615E+03  0.10981856553E+03  0.93000000000E-01 0. -1.
          3   -1    0    0  501    0  0.00000000000E+00 -0.00000000000E+00 -0.90853345531E+00  0.91328092032E+00  0.93000000000E-01 0.  1.
       1023    2    1    2    0    0  0.00000000000E+00  0.00000000000E+00  0.10890999270E+03  0.11073184645E+03  0.20003882354E+02 0.  0.
        -11    1    3    3    0    0 -0.93725325394E+01 -0.34920302768E+01  0.54530366739E+02  0.55440053559E+02  0.51100000000E-03 0.  1.
         11    1    3    3    0    0  0.93725325394E+01  0.34920302768E+01  0.54379625956E+02  0.55291792890E+02  0.51100000000E-03 0. -1.
<mgrwt>
<rscale>  0 0.20003882E+02</rscale>
<asrwt>0</asrwt>
<pdfrwt beam="2">  1        3 0.14014255E-03 0.20003882E+02</pdfrwt>
<pdfrwt beam="1">  1       -3 0.16895532E-01 0.20003882E+02</pdfrwt>
<totfact> 0.13813991E+06</totfact>
</mgrwt>
</event>
<event>
 5    1  0.4133473E-007  0.2000127E+02  0.7818608E-02  0.1745303E+00
         -3   -1    0    0    0  501 -0.00000000000E+00  0.00000000000E+00  0.34460586012E+02  0.34460711503E+02  0.93000000000E-01 0. -1.
          3   -1    0    0  501    0  0.00000000000E+00 -0.00000000000E+00 -0.29013592481E+01  0.29028493737E+01  0.93000000000E-01 0.  1.
       1023    2    1    2    0    0  0.00000000000E+00  0.00000000000E+00  0.31559226764E+02  0.37363560877E+02  0.20001272146E+02 0.  0.
        -11    1    3    3    0    0  0.98259292710E+01 -0.18611367556E+01  0.15784010672E+02  0.18685494621E+02  0.51100000000E-03 0. -1.
         11    1    3    3    0    0 -0.98259292710E+01  0.18611367556E+01  0.15775216091E+02  0.18678066256E+02  0.51100000000E-03 0.  1.
<mgrwt>
<rscale>  0 0.20001272E+02</rscale>
<asrwt>0</asrwt>
<pdfrwt beam="2">  1        3 0.44648724E-03 0.20001272E+02</pdfrwt>
<pdfrwt beam="1">  1       -3 0.53017529E-02 0.20001272E+02</pdfrwt>
<totfact> 0.16852504E+06</totfact>
</mgrwt>
</event>
<event>
 5    1  0.4133473E-007  0.2000798E+02  0.7818608E-02  0.1745169E+00
         -3   -1    0    0    0  501 -0.00000000000E+00  0.00000000000E+00  0.22134787712E+02  0.22134983082E+02  0.93000000000E-01 0.  1.
          3   -1    0    0  501    0  0.00000000000E+00 -0.00000000000E+00 -0.45206870289E+01  0.45216435301E+01  0.93000000000E-01 0. -1.
       1023    2    1    2    0    0  0.00000000000E+00  0.00000000000E+00  0.17614100683E+02  0.26656626613E+02  0.20007978396E+02 0.  0.
        -11    1    3    3    0    0  0.99043548001E+01 -0.13983398013E+01  0.85833135861E+01  0.13180473079E+02  0.51100000000E-03 0. -1.
         11    1    3    3    0    0 -0.99043548001E+01  0.13983398013E+01  0.90307870972E+01  0.13476153534E+02  0.51100000000E-03 0.  1.
<mgrwt>
<rscale>  0 0.20007978E+02</rscale>
<asrwt>0</asrwt>
<pdfrwt beam="2">  1        3 0.69557892E-03 0.20007978E+02</pdfrwt>
<pdfrwt beam="1">  1       -3 0.34054406E-02 0.20007978E+02</pdfrwt>
<totfact> 0.17451612E+06</totfact>
</mgrwt>
</event>
<event>
 4    1  0.4133473E-007  0.2002315E+02  0.7818608E-02  0.1744868E+00
         -3   -1    0    0    0  501 -0.00000000000E+00  0.00000000000E+00  0.52072235223E+02  0.52072318271E+02  0.93000000000E-01 0. -1.
          3   -1    0    0  501    0  0.00000000000E+00 -0.00000000000E+00 -0.19236500594E+01  0.19258968174E+01  0.93000000000E-01 0.  1.
        -11    1    1    2    0    0 -0.43358513325E+01 -0.90222507955E+01  0.25549442393E+02  0.27440383070E+02  0.51100000000E-03 0.  1.
         11    1    1    2    0    0  0.43358513325E+01  0.90222507955E+01  0.24599142771E+02  0.26557832019E+02  0.51100000000E-03 0. -1.
<mgrwt>
<rscale>  0 0.20023153E+02</rscale>
<asrwt>0</asrwt>
<pdfrwt beam="2">  1        3 0.29612539E-03 0.20023153E+02</pdfrwt>
<pdfrwt beam="1">  1       -3 0.80112920E-02 0.20023153E+02</pdfrwt>
<totfact> 0.15980258E+06</totfact>
</mgrwt>
</event>
<event>
 5    1  0.4133473E-007  0.2000023E+02  0.7818608E-02  0.1745324E+00
         -3   -1    0    0    0  501 -0.00000000000E+00  0.00000000000E+00  0.77130752415E+01  0.77136358924E+01  0.93000000000E-01 0.  1.
          3   -1    0    0  501    0  0.00000000000E+00 -0.00000000000E+00 -0.12964091607E+02  0.12964425178E+02  0.93000000000E-01 0. -1.
       1023    2    1    2    0    0  0.00000000000E+00  0.00000000000E+00 -0.52510163658E+01  0.20678061071E+02  0.20000225918E+02 0.  0.
        -11    1    3    3    0    0 -0.76178813830E+01  0.64783432627E+01 -0.25895332951E+01  0.10329895021E+02  0.51100000000E-03 0. -1.
         11    1    3    3    0    0  0.76178813830E+01 -0.64783432627E+01 -0.26614830706E+01  0.10348166050E+02  0.51100000000E-03 0.  1.
<mgrwt>
<rscale>  0 0.20000226E+02</rscale>
<asrwt>0</asrwt>
<pdfrwt beam="2">  1        3 0.19945444E-02 0.20000226E+02</pdfrwt>
<pdfrwt beam="1">  1       -3 0.11866957E-02 0.20000226E+02</pdfrwt>
<totfact> 0.17840678E+06</totfact>
</mgrwt>
</event>
<event>
 5    1  0.4133473E-007  0.2000047E+02  0.7818608E-02  0.1745319E+00
          3   -1    0    0  501    0  0.00000000000E+00  0.00000000000E+00  0.10846027213E+03  0.10846031200E+03  0.93000000000E-01 0. -1.
         -3   -1    0    0    0  501 -0.00000000000E+00 -0.00000000000E+00 -0.91965455741E+00  0.92434490585E+00  0.93000000000E-01 0.  1.
       1023    2    1    2    0    0  0.00000000000E+00  0.00000000000E+00  0.10754061757E+03  0.10938465691E+03  0.20000468467E+02 0.  0.
        -11    1    3    3    0    0  0.33659263017E+01  0.94167033709E+01  0.53604222632E+02  0.54529042230E+02  0.51100000000E-03 0. -1.
         11    1    3    3    0    0 -0.33659263017E+01 -0.94167033709E+01  0.53936394942E+02  0.54855614679E+02  0.51100000000E-03 0.  1.
<mgrwt>
<rscale>  0 0.20000468E+02</rscale>
<asrwt>0</asrwt>
<pdfrwt beam="1">  1        3 0.16686559E-01 0.20000468E+02</pdfrwt>
<pdfrwt beam="2">  1       -3 0.14184918E-03 0.20000468E+02</pdfrwt>
<totfact> 0.13860523E+06</totfact>
</mgrwt>
</event>
<event>
 5    1  0.4263772E-007  0.2000157E+02  0.7818608E-02  0.1745297E+00
         -3   -1    0    0    0  501 -0.00000000000E+00  0.00000000000E+00  0.11678480570E+02  0.11678850860E+02  0.93000000000E-01 0. -1.
          3   -1    0    0  501    0  0.00000000000E+00 -0.00000000000E+00 -0.85633418208E+01  0.85638468073E+01  0.93000000000E-01 0.  1.
       1023    2    1    2    0    0  0.00000000000E+00  0.00000000000E+00  0.31151387489E+01  0.20242697668E+02  0.20001567924E+02 0.  0.
        -11    1    3    3    0    0 -0.97572612955E+01  0.21906485567E+01  0.16711295414E+01  0.10138824552E+02  0.51100000000E-03 0. -1.
         11    1    3    3    0    0  0.97572612955E+01 -0.21906485567E+01  0.14440092075E+01  0.10103873116E+02  0.51100000000E-03 0.  1.
<mgrwt>
<rscale>  0 0.20001568E+02</rscale>
<asrwt>0</asrwt>
<pdfrwt beam="2">  1        3 0.13175045E-02 0.20001568E+02</pdfrwt>
<pdfrwt beam="1">  1       -3 0.17967566E-02 0.20001568E+02</pdfrwt>
<totfact> 0.17866861E+06</totfact>
</mgrwt>
</event>
<event>
 4    1  0.4133473E-007  0.2004266E+02  0.7818608E-02  0.1744481E+00
         -3   -1    0    0    0  501 -0.00000000000E+00  0.00000000000E+00  0.68974130816E+02  0.68974193513E+02  0.93000000000E-01 0. -1.
          3   -1    0    0  501    0  0.00000000000E+00 -0.00000000000E+00 -0.14544626710E+01  0.14574329012E+01  0.93000000000E-01 0.  1.
        -11    1    1    2    0    0  0.98173987099E+01 -0.19052004276E+01  0.31493325872E+02  0.33043012588E+02  0.51100000000E-03 0.  1.
         11    1    1    2    0    0 -0.98173987099E+01  0.19052004276E+01  0.36026342273E+02  0.37388613827E+02  0.51100000000E-03 0. -1.
<mgrwt>
<rscale>  0 0.20042665E+02</rscale>
<asrwt>0</asrwt>
<pdfrwt beam="2">  1        3 0.22399681E-03 0.20042665E+02</pdfrwt>
<pdfrwt beam="1">  1       -3 0.10611637E-01 0.20042665E+02</pdfrwt>
<totfact> 0.15228181E+06</totfact>
</mgrwt>
</event>
<event>
 4    1  0.4133473E-007  0.2004934E+02  0.7818608E-02  0.1744349E+00
         -3   -1    0    0    0  501 -0.00000000000E+00  0.00000000000E+00  0.34968539471E+02  0.34968663139E+02  0.93000000000E-01 0.  1.
          3   -1    0    0  501    0  0.00000000000E+00 -0.00000000000E+00 -0.28729585651E+01  0.28744634138E+01  0.93000000000E-01 0. -1.
        -11    1    1    2    0    0  0.16724291803E+00 -0.10023121159E+02  0.15943546835E+02  0.18833151991E+02  0.51100000000E-03 0.  1.
         11    1    1    2    0    0 -0.16724291803E+00  0.10023121159E+02  0.16152034071E+02  0.19009974563E+02  0.51100000000E-03 0. -1.
<mgrwt>
<rscale>  0 0.20049337E+02</rscale>
<asrwt>0</asrwt>
<pdfrwt beam="2">  1        3 0.44211889E-03 0.20049337E+02</pdfrwt>
<pdfrwt beam="1">  1       -3 0.53799006E-02 0.20049337E+02</pdfrwt>
<totfact> 0.16740012E+06</totfact>
</mgrwt>
</event>
<event>
 5    1  0.4133473E-007  0.2000151E+02  0.7818608E-02  0.1745298E+00
         -3   -1    0    0    0  501 -0.00000000000E+00  0.00000000000E+00  0.24075937267E+01  0.24093892489E+01  0.93000000000E-01 0. -1.
          3   -1    0    0  501    0  0.00000000000E+00 -0.00000000000E+00 -0.41524207505E+02  0.41524311649E+02  0.93000000000E-01 0.  1.
       1023    2    1    2    0    0  0.00000000000E+00  0.00000000000E+00 -0.39116613779E+02  0.43933700898E+02  0.20001514970E+02 0.  0.
        -11    1    3    3    0    0  0.82867898036E+01  0.55974373305E+01 -0.19808363870E+02  0.22189490066E+02  0.51100000000E-03 0.  1.
         11    1    3    3    0    0 -0.82867898036E+01 -0.55974373305E+01 -0.19308249908E+02  0.21744210832E+02  0.51100000000E-03 0. -1.
<mgrwt>
<rscale>  0 0.20001515E+02</rscale>
<asrwt>0</asrwt>
<pdfrwt beam="2">  1        3 0.63884852E-02 0.20001515E+02</pdfrwt>
<pdfrwt beam="1">  1       -3 0.37054519E-03 0.20001515E+02</pdfrwt>
<totfact> 0.16505305E+06</totfact>
</mgrwt>
</event>
<event>
 5    1  0.4133473E-007  0.2000051E+02  0.7818608E-02  0.1745318E+00
          3   -1    0    0  501    0  0.00000000000E+00  0.00000000000E+00  0.46733935517E+01  0.46743188049E+01  0.93000000000E-01 0.  1.
         -3   -1    0    0    0  501 -0.00000000000E+00 -0.00000000000E+00 -0.21395671234E+02  0.21395873353E+02  0.93000000000E-01 0. -1.
       1023    2    1    2    0    0  0.00000000000E+00  0.00000000000E+00 -0.16722277682E+02  0.26070192158E+02  0.20000508701E+02 0.  0.
        -11    1    3    3    0    0  0.99974433746E+01 -0.22964689139E+00 -0.84379785952E+01  0.13084383622E+02  0.51100000000E-03 0.  1.
         11    1    3    3    0    0 -0.99974433746E+01  0.22964689139E+00 -0.82842990869E+01  0.12985808536E+02  0.51100000000E-03 0. -1.
<mgrwt>
<rscale>  0 0.20000509E+02</rscale>
<asrwt>0</asrwt>
<pdfrwt beam="1">  1        3 0.71907036E-03 0.20000509E+02</pdfrwt>
<pdfrwt beam="2">  1       -3 0.32917284E-02 0.20000509E+02</pdfrwt>
<totfact> 0.17501241E+06</totfact>
</mgrwt>
</event>
<event>
 5    1  0.4140090E-007  0.2000099E+02  0.7818608E-02  0.1745308E+00
         -3   -1    0    0    0  501 -0.00000000000E+00  0.00000000000E+00  0.26980561192E+01  0.26996584640E+01  0.93000000000E-01 0. -1.
          3   -1    0    0  501    0  0.00000000000E+00 -0.00000000000E+00 -0.37054732058E+02  0.37054848763E+02  0.93000000000E-01 0.  1.
       1023    2    1    2    0    0  0.00000000000E+00  0.00000000000E+00 -0.34356675939E+02  0.39754507227E+02  0.20000991559E+02 0.  0.
        -11    1    3    3    0    0  0.44746577880E+01  0.89435635247E+01 -0.17188222745E+02  0.19885796243E+02  0.51100000000E-03 0. -1.
         11    1    3    3    0    0 -0.44746577880E+01 -0.89435635247E+01 -0.17168453194E+02  0.19868710984E+02  0.51100000000E-03 0.  1.
<mgrwt>
<rscale>  0 0.20000992E+02</rscale>
<asrwt>0</asrwt>
<pdfrwt beam="2">  1        3 0.57008599E-02 0.20000992E+02</pdfrwt>
<pdfrwt beam="1">  1       -3 0.41521782E-03 0.20000992E+02</pdfrwt>
<totfact> 0.16723000E+06</totfact>
</mgrwt>
</event>
<event>
 5    1  0.4133473E-007  0.2000042E+02  0.7818608E-02  0.1745320E+00
          3   -1    0    0  501    0  0.00000000000E+00  0.00000000000E+00  0.64035348527E+01  0.64042101472E+01  0.93000000000E-01 0. -1.
         -3   -1    0    0    0  501 -0.00000000000E+00 -0.00000000000E+00 -0.15615400995E+02  0.15615677931E+02  0.93000000000E-01 0.  1.
       1023    2    1    2    0    0  0.00000000000E+00  0.00000000000E+00 -0.92118661426E+01  0.22019888078E+02  0.20000424824E+02 0.  0.
        -11    1    3    3    0    0  0.99028064842E+01 -0.13923612558E+01 -0.46074483822E+01  0.11010577959E+02  0.51100000000E-03 0.  1.
         11    1    3    3    0    0 -0.99028064842E+01  0.13923612558E+01 -0.46044177603E+01  0.11009310119E+02  0.51100000000E-03 0. -1.
<mgrwt>
<rscale>  0 0.20000425E+02</rscale>
<asrwt>0</asrwt>
<pdfrwt beam="1">  1        3 0.98523246E-03 0.20000425E+02</pdfrwt>
<pdfrwt beam="2">  1       -3 0.24024426E-02 0.20000425E+02</pdfrwt>
<totfact> 0.17754150E+06</totfact>
</mgrwt>
</event>
<event>
 4    1  0.4133473E-007  0.2002569E+02  0.7818608E-02  0.1744818E+00
         -3   -1    0    0    0  501 -0.00000000000E+00  0.00000000000E+00  0.10635899585E+01  0.10676481629E+01  0.93000000000E-01 0.  1.
          3   -1    0    0  501    0  0.00000000000E+00 -0.00000000000E+00 -0.94079301394E+02  0.94079347361E+02  0.93000000000E-01 0. -1.
        -11    1    1    2    0    0  0.19072690299E+00 -0.10006901887E+02 -0.47873237538E+02  0.48908295152E+02  0.51100000000E-03 0. -1.
         11    1    1    2    0    0 -0.19072690299E+00  0.10006901887E+02 -0.45142473898E+02  0.46238700371E+02  0.51100000000E-03 0.  1.
<mgrwt>
<rscale>  0 0.20025688E+02</rscale>
<asrwt>0</asrwt>
<pdfrwt beam="2">  1        3 0.14474048E-01 0.20025688E+02</pdfrwt>
<pdfrwt beam="1">  1       -3 0.16394500E-03 0.20025688E+02</pdfrwt>
<totfact> 0.14308827E+06</totfact>
</mgrwt>
</event>
<event>
 5    1  0.4133473E-007  0.2000040E+02  0.7818608E-02  0.1745320E+00
         -3   -1    0    0    0  501 -0.00000000000E+00  0.00000000000E+00  0.14233729666E+01  0.14264079368E+01  0.93000000000E-01 0. -1.
          3   -1    0    0  501    0  0.00000000000E+00 -0.00000000000E+00 -0.70180592277E+02  0.70180653896E+02  0.93000000000E-01 0.  1.
       1023    2    1    2    0    0  0.00000000000E+00  0.00000000000E+00 -0.68757219310E+02  0.71607061833E+02  0.20000402424E+02 0.  0.
        -11    1    3    3    0    0  0.51029784155E+01 -0.86001837321E+01 -0.34300572425E+02  0.35728599440E+02  0.51100000000E-03 0. -1.
         11    1    3    3    0    0 -0.51029784155E+01  0.86001837321E+01 -0.34456646885E+02  0.35878462394E+02  0.51100000000E-03 0.  1.
<mgrwt>
<rscale>  0 0.20000402E+02</rscale>
<asrwt>0</asrwt>
<pdfrwt beam="2">  1        3 0.10797250E-01 0.20000402E+02</pdfrwt>
<pdfrwt beam="1">  1       -3 0.21921871E-03 0.20000402E+02</pdfrwt>
<totfact> 0.15246022E+06</totfact>
</mgrwt>
</event>
<event>
 5    1  0.4133473E-007  0.2000553E+02  0.7818608E-02  0.1745218E+00
         -3   -1    0    0    0  501 -0.00000000000E+00  0.00000000000E+00  0.96434126397E+00  0.96881529375E+00  0.93000000000E-01 0.  1.
          3   -1    0    0  501    0  0.00000000000E+00 -0.00000000000E+00 -0.10351045992E+03  0.10351050170E+03  0.93000000000E-01 0. -1.
       1023    2    1    2    0    0  0.00000000000E+00  0.00000000000E+00 -0.10254611866E+03  0.10447931699E+03  0.20005529929E+02 0.  0.
        -11    1    3    3    0    0  0.69917802803E+01  0.71532858692E+01 -0.51422286134E+02  0.52386124133E+02  0.51100000000E-03 0. -1.
         11    1    3    3    0    0 -0.69917802803E+01 -0.71532858692E+01 -0.51123832523E+02  0.52093192860E+02  0.51100000000E-03 0.  1.
<mgrwt>
<rscale>  0 0.20005530E+02</rscale>
<asrwt>0</asrwt>
<pdfrwt beam="2">  1        3 0.15925025E-01 0.20005530E+02</pdfrwt>
<pdfrwt beam="1">  1       -3 0.14870765E-03 0.20005530E+02</pdfrwt>
<totfact> 0.14016536E+06</totfact>
</mgrwt>
</event>
<event>
 5    1  0.4133473E-007  0.2000248E+02  0.7818608E-02  0.1745279E+00
          3   -1    0    0  501    0  0.00000000000E+00  0.00000000000E+00  0.34272429833E+02  0.34272556013E+02  0.93000000000E-01 0.  1.
         -3   -1    0    0    0  501 -0.00000000000E+00 -0.00000000000E+00 -0.29176488277E+01  0.29191306380E+01  0.93000000000E-01 0. -1.
       1023    2    1    2    0    0  0.00000000000E+00  0.00000000000E+00  0.31354781005E+02  0.37191686651E+02  0.20002481447E+02 0.  0.
        -11    1    3    3    0    0 -0.99228938578E+01 -0.12493690163E+01  0.15692980132E+02  0.18608986301E+02  0.51100000000E-03 0. -1.
         11    1    3    3    0    0  0.99228938578E+01  0.12493690163E+01  0.15661800873E+02  0.18582700350E+02  0.51100000000E-03 0.  1.
<mgrwt>
<rscale>  0 0.20002481E+02</rscale>
<asrwt>0</asrwt>
<pdfrwt beam="1">  1        3 0.52728053E-02 0.20002481E+02</pdfrwt>
<pdfrwt beam="2">  1       -3 0.44899273E-03 0.20002481E+02</pdfrwt>
<totfact> 0.16857507E+06</totfact>
</mgrwt>
</event>
<event>
 5    1  0.4133473E-007  0.2000004E+02  0.7818608E-02  0.1745327E+00
         -3   -1    0    0    0  501 -0.00000000000E+00  0.00000000000E+00  0.15846591811E+02  0.15846864707E+02  0.93000000000E-01 0. -1.
          3   -1    0    0  501    0  0.00000000000E+00 -0.00000000000E+00 -0.63098623241E+01  0.63105476426E+01  0.93000000000E-01 0.  1.
       1023    2    1    2    0    0  0.00000000000E+00  0.00000000000E+00  0.95367294873E+01  0.22157412350E+02  0.20000042818E+02 0.  0.
        -11    1    3    3    0    0 -0.99755285681E+01  0.69941325083E+00  0.47781997937E+01  0.11082939260E+02  0.51100000000E-03 0.  1.
         11    1    3    3    0    0  0.99755285681E+01 -0.69941325083E+00  0.47585296937E+01  0.11074473090E+02  0.51100000000E-03 0. -1.
<mgrwt>
<rscale>  0 0.20000043E+02</rscale>
<asrwt>0</asrwt>
<pdfrwt beam="2">  1        3 0.97082176E-03 0.20000043E+02</pdfrwt>
<pdfrwt beam="1">  1       -3 0.24380109E-02 0.20000043E+02</pdfrwt>
<totfact> 0.17746104E+06</totfact>
</mgrwt>
</event>
<event>
 5    1  0.4257081E-007  0.2000105E+02  0.7818608E-02  0.1745307E+00
         -3   -1    0    0    0  501 -0.00000000000E+00  0.00000000000E+00  0.23416495745E+02  0.23416680422E+02  0.93000000000E-01 0.  1.
          3   -1    0    0  501    0  0.00000000000E+00 -0.00000000000E+00 -0.42702350104E+01  0.42712475981E+01  0.93000000000E-01 0. -1.
       1023    2    1    2    0    0  0.00000000000E+00  0.00000000000E+00  0.19146260735E+02  0.27687928020E+02  0.20001051420E+02 0.  0.
        -11    1    3    3    0    0 -0.98083619069E+01  0.19507146562E+01  0.95239283969E+01  0.13809940743E+02  0.51100000000E-03 0.  1.
         11    1    3    3    0    0  0.98083619069E+01 -0.19507146562E+01  0.96223323379E+01  0.13877987277E+02  0.51100000000E-03 0. -1.
<mgrwt>
<rscale>  0 0.20001051E+02</rscale>
<asrwt>0</asrwt>
<pdfrwt beam="2">  1        3 0.65705131E-03 0.20001051E+02</pdfrwt>
<pdfrwt beam="1">  1       -3 0.36026300E-02 0.20001051E+02</pdfrwt>
<totfact> 0.17402642E+06</totfact>
</mgrwt>
</event>
<event>
 5    1  0.4169397E-007  0.2000141E+02  0.7818608E-02  0.1745300E+00
          3   -1    0    0  501    0  0.00000000000E+00  0.00000000000E+00  0.46784929317E+02  0.46785021750E+02  0.93000000000E-01 0. -1.
         -3   -1    0    0    0  501 -0.00000000000E+00 -0.00000000000E+00 -0.21366353094E+01  0.21386583284E+01  0.93000000000E-01 0.  1.
       1023    2    1    2    0    0  0.00000000000E+00  0.00000000000E+00  0.44648294008E+02  0.48923680079E+02  0.20001407817E+02 0.  0.
        -11    1    3    3    0    0  0.98074180149E+01 -0.19553382810E+01  0.22501925051E+02  0.24624082261E+02  0.51100000000E-03 0. -1.
         11    1    3    3    0    0 -0.98074180149E+01  0.19553382810E+01  0.22146368957E+02  0.24299597818E+02  0.51100000000E-03 0.  1.
<mgrwt>
<rscale>  0 0.20001408E+02</rscale>
<asrwt>0</asrwt>
<pdfrwt beam="1">  1        3 0.71978435E-02 0.20001408E+02</pdfrwt>
<pdfrwt beam="2">  1       -3 0.32887588E-03 0.20001408E+02</pdfrwt>
<totfact> 0.16256936E+06</totfact>
</mgrwt>
</event>
<event>
 4    1  0.4133473E-007  0.2003563E+02  0.7818608E-02  0.1744620E+00
         -3   -1    0    0    0  501 -0.00000000000E+00  0.00000000000E+00  0.10802864191E+01  0.10842821345E+01  0.93000000000E-01 0. -1.
          3   -1    0    0  501    0  0.00000000000E+00 -0.00000000000E+00 -0.92722663732E+02  0.92722710371E+02  0.93000000000E-01 0.  1.
        -11    1    1    2    0    0  0.10174657703E+01  0.99529738089E+01 -0.48207205272E+02  0.49234455056E+02  0.51100000000E-03 0.  1.
         11    1    1    2    0    0 -0.10174657703E+01 -0.99529738089E+01 -0.43435172041E+02  0.44572537450E+02  0.51100000000E-03 0. -1.
<mgrwt>
<rscale>  0 0.20035631E+02</rscale>
<asrwt>0</asrwt>
<pdfrwt beam="2">  1        3 0.14265330E-01 0.20035631E+02</pdfrwt>
<pdfrwt beam="1">  1       -3 0.16650893E-03 0.20035631E+02</pdfrwt>
<totfact> 0.14341246E+06</totfact>
</mgrwt>
</event>
<event>
 5    1  0.4144388E-007  0.2000252E+02  0.7818608E-02  0.1745278E+00
          3   -1    0    0  501    0  0.00000000000E+00  0.00000000000E+00  0.31225727027E+01  0.31239573115E+01  0.93000000000E-01 0.  1.
         -3   -1    0    0    0  501 -0.00000000000E+00 -0.00000000000E+00 -0.32024384370E+02  0.32024519407E+02  0.93000000000E-01 0. -1.
       1023    2    1    2    0    0  0.00000000000E+00  0.00000000000E+00 -0.28901811667E+02  0.35148476719E+02  0.20002517292E+02 0.  0.
        -11    1    3    3    0    0  0.95923039846E+01 -0.28305559979E+01 -0.14501568435E+02  0.17615897091E+02  0.51100000000E-03 0.  1.
         11    1    3    3    0    0 -0.95923039846E+01  0.28305559979E+01 -0.14400243232E+02  0.17532579628E+02  0.51100000000E-03 0. -1.
<mgrwt>
<rscale>  0 0.20002517E+02</rscale>
<asrwt>0</asrwt>
<pdfrwt beam="1">  1        3 0.48051272E-03 0.20002517E+02</pdfrwt>
<pdfrwt beam="2">  1       -3 0.49269450E-02 0.20002517E+02</pdfrwt>
<totfact> 0.16971244E+06</totfact>
</mgrwt>
</event>
<event>
 5    1  0.4133473E-007  0.2000042E+02  0.7818608E-02  0.1745320E+00
         -3   -1    0    0    0  501 -0.00000000000E+00  0.00000000000E+00  0.21411320350E+01  0.21431508093E+01  0.93000000000E-01 0. -1.
          3   -1    0    0  501    0  0.00000000000E+00 -0.00000000000E+00 -0.46682147061E+02  0.46682239698E+02  0.93000000000E-01 0.  1.
       1023    2    1    2    0    0  0.00000000000E+00  0.00000000000E+00 -0.44541015026E+02  0.48825390507E+02  0.20000418462E+02 0.  0.
        -11    1    3    3    0    0  0.80345249783E+01 -0.59539182063E+01 -0.22177524114E+02  0.24327871048E+02  0.51100000000E-03 0.  1.
         11    1    3    3    0    0 -0.80345249783E+01  0.59539182063E+01 -0.22363490912E+02  0.24497519460E+02  0.51100000000E-03 0. -1.
<mgrwt>
<rscale>  0 0.20000418E+02</rscale>
<asrwt>0</asrwt>
<pdfrwt beam="2">  1        3 0.71820304E-02 0.20000418E+02</pdfrwt>
<pdfrwt beam="1">  1       -3 0.32956738E-03 0.20000418E+02</pdfrwt>
<totfact> 0.16263455E+06</totfact>
</mgrwt>
</event>
<event>
 5    1  0.4133473E-007  0.2000021E+02  0.7818608E-02  0.1745324E+00
         -3   -1    0    0    0  501 -0.00000000000E+00  0.00000000000E+00  0.30619385425E+02  0.30619526659E+02  0.93000000000E-01 0. -1.
          3   -1    0    0  501    0  0.00000000000E+00 -0.00000000000E+00 -0.32651612833E+01  0.32664854516E+01  0.93000000000E-01 0.  1.
       1023    2    1    2    0    0  0.00000000000E+00  0.00000000000E+00  0.27354224142E+02  0.33886012111E+02  0.20000205958E+02 0.  0.
        -11    1    3    3    0    0 -0.99906232913E+01  0.43482778373E+00  0.13712260857E+02  0.16971379644E+02  0.51100000000E-03 0. -1.
         11    1    3    3    0    0  0.99906232913E+01 -0.43482778373E+00  0.13641963285E+02  0.16914632466E+02  0.51100000000E-03 0.  1.
<mgrwt>
<rscale>  0 0.20000206E+02</rscale>
<asrwt>0</asrwt>
<pdfrwt beam="2">  1        3 0.50244525E-03 0.20000206E+02</pdfrwt>
<pdfrwt beam="1">  1       -3 0.47107872E-02 0.20000206E+02</pdfrwt>
<totfact> 0.17045667E+06</totfact>
</mgrwt>
</event>
<event>
 5    1  0.4133473E-007  0.2000020E+02  0.7818608E-02  0.1745324E+00
         -3   -1    0    0    0  501 -0.00000000000E+00  0.00000000000E+00  0.83158394888E+01  0.83163595042E+01  0.93000000000E-01 0.  1.
          3   -1    0    0  501    0  0.00000000000E+00 -0.00000000000E+00 -0.12024408128E+02  0.12024767766E+02  0.93000000000E-01 0. -1.
       1023    2    1    2    0    0  0.00000000000E+00  0.00000000000E+00 -0.37085686390E+01  0.20341127270E+02  0.20000199431E+02 0.  0.
        -11    1    3    3    0    0 -0.52591347607E+01 -0.85054127940E+01 -0.18155719905E+01  0.10163505652E+02  0.51100000000E-03 0. -1.
         11    1    3    3    0    0  0.52591347607E+01  0.85054127940E+01 -0.18929966485E+01  0.10177621618E+02  0.51100000000E-03 0.  1.
<mgrwt>
<rscale>  0 0.20000199E+02</rscale>
<asrwt>0</asrwt>
<pdfrwt beam="2">  1        3 0.18499766E-02 0.20000199E+02</pdfrwt>
<pdfrwt beam="1">  1       -3 0.12794276E-02 0.20000199E+02</pdfrwt>
<totfact> 0.17862746E+06</totfact>
</mgrwt>
</event>
<event>
 5    1  0.4248853E-007  0.2000105E+02  0.7818608E-02  0.1745307E+00
         -3   -1    0    0    0  501 -0.00000000000E+00  0.00000000000E+00  0.19950037933E+02  0.19950254698E+02  0.93000000000E-01 0. -1.
          3   -1    0    0  501    0  0.00000000000E+00 -0.00000000000E+00 -0.50123721929E+01  0.50132348838E+01  0.93000000000E-01 0.  1.
       1023    2    1    2    0    0  0.00000000000E+00  0.00000000000E+00  0.14937665740E+02  0.24963489582E+02  0.20001048831E+02 0.  0.
        -11    1    3    3    0    0  0.65108763512E+01 -0.75900944222E+01  0.73475405108E+01  0.12409165807E+02  0.51100000000E-03 0. -1.
         11    1    3    3    0    0 -0.65108763512E+01  0.75900944222E+01  0.75901252289E+01  0.12554323775E+02  0.51100000000E-03 0.  1.
<mgrwt>
<rscale>  0 0.20001049E+02</rscale>
<asrwt>0</asrwt>
<pdfrwt beam="2">  1        3 0.77121724E-03 0.20001049E+02</pdfrwt>
<pdfrwt beam="1">  1       -3 0.30693196E-02 0.20001049E+02</pdfrwt>
<totfact> 0.17568105E+06</totfact>
</mgrwt>
</event>
<event>
 5    1  0.4348266E-007  0.2000074E+02  0.7818608E-02  0.1745313E+00
         -3   -1    0    0    0  501 -0.00000000000E+00  0.00000000000E+00  0.11903956114E+02  0.11904319391E+02  0.93000000000E-01 0. -1.
          3   -1    0    0  501    0  0.00000000000E+00 -0.00000000000E+00 -0.84004424471E+01  0.84009572256E+01  0.93000000000E-01 0.  1.
       1023    2    1    2    0    0  0.00000000000E+00  0.00000000000E+00  0.35035136669E+01  0.20305276617E+02  0.20000741248E+02 0.  0.
        -11    1    3    3    0    0  0.30074836129E+01 -0.95372837767E+01  0.18042434878E+01  0.10161694462E+02  0.51100000000E-03 0.  1.
         11    1    3    3    0    0 -0.30074836129E+01  0.95372837767E+01  0.16992701790E+01  0.10143582154E+02  0.51100000000E-03 0. -1.
<mgrwt>
<rscale>  0 0.20000741E+02</rscale>
<asrwt>0</asrwt>
<pdfrwt beam="2">  1        3 0.12924433E-02 0.20000741E+02</pdfrwt>
<pdfrwt beam="1">  1       -3 0.18314454E-02 0.20000741E+02</pdfrwt>
<totfact> 0.17864367E+06</totfact>
</mgrwt>
</event>
<event>
 5    1  0.4133473E-007  0.2000251E+02  0.7818608E-02  0.1745278E+00
          3   -1    0    0  501    0  0.00000000000E+00  0.00000000000E+00  0.30859707781E+01  0.30873718020E+01  0.93000000000E-01 0.  1.
         -3   -1    0    0    0  501 -0.00000000000E+00 -0.00000000000E+00 -0.32404008902E+02  0.32404142357E+02  0.93000000000E-01 0. -1.
       1023    2    1    2    0    0  0.00000000000E+00  0.00000000000E+00 -0.29318038124E+02  0.35491514159E+02  0.20002505290E+02 0.  0.
        -11    1    3    3    0    0 -0.94009341045E+01 -0.34115401093E+01 -0.14491756173E+02  0.17607588284E+02  0.51100000000E-03 0. -1.
         11    1    3    3    0    0  0.94009341045E+01  0.34115401093E+01 -0.14826281951E+02  0.17883925875E+02  0.51100000000E-03 0.  1.
<mgrwt>
<rscale>  0 0.20002505E+02</rscale>
<asrwt>0</asrwt>
<pdfrwt beam="1">  1        3 0.47488279E-03 0.20002505E+02</pdfrwt>
<pdfrwt beam="2">  1       -3 0.49853500E-02 0.20002505E+02</pdfrwt>
<totfact> 0.16952354E+06</totfact>
</mgrwt>
</event>
<event>
 5    1  0.4153920E-007  0.2000116E+02  0.7818608E-02  0.1745305E+00
          3   -1    0    0  501    0  0.00000000000E+00  0.00000000000E+00  0.36325278798E+02  0.36325397847E+02  0.93000000000E-01 0. -1.
         -3   -1    0    0    0  501 -0.00000000000E+00 -0.00000000000E+00 -0.27523154448E+01  0.27538862191E+01  0.93000000000E-01 0.  1.
       1023    2    1    2    0    0  0.00000000000E+00  0.00000000000E+00  0.33572963353E+02  0.39079284066E+02  0.20001164336E+02 0.  0.
        -11    1    3    3    0    0 -0.59937581493E+01  0.80048366147E+01  0.16600122227E+02  0.19379540867E+02  0.51100000000E-03 0.  1.
         11    1    3    3    0    0  0.59937581493E+01 -0.80048366147E+01  0.16972841126E+02  0.19699743200E+02  0.51100000000E-03 0. -1.
<mgrwt>
<rscale>  0 0.20001164E+02</rscale>
<asrwt>0</asrwt>
<pdfrwt beam="1">  1        3 0.55886343E-02 0.20001164E+02</pdfrwt>
<pdfrwt beam="2">  1       -3 0.42356314E-03 0.20001164E+02</pdfrwt>
<totfact> 0.16758500E+06</totfact>
</mgrwt>
</event>
<event>
 5    1  0.4133473E-007  0.2000293E+02  0.7818608E-02  0.1745270E+00
         -3   -1    0    0    0  501 -0.00000000000E+00  0.00000000000E+00  0.20087648736E+01  0.20109165367E+01  0.93000000000E-01 0. -1.
          3   -1    0    0  501    0  0.00000000000E+00 -0.00000000000E+00 -0.49767595271E+02  0.49767682165E+02  0.93000000000E-01 0.  1.
       1023    2    1    2    0    0  0.00000000000E+00  0.00000000000E+00 -0.47758830398E+02  0.51778598702E+02  0.20002934849E+02 0.  0.
        -11    1    3    3    0    0  0.18350534292E+01  0.98303488366E+01 -0.23460653372E+02  0.25503047587E+02  0.51100000000E-03 0. -1.
         11    1    3    3    0    0 -0.18350534292E+01 -0.98303488366E+01 -0.24298177026E+02  0.26275551115E+02  0.51100000000E-03 0.  1.
<mgrwt>
<rscale>  0 0.20002935E+02</rscale>
<asrwt>0</asrwt>
<pdfrwt beam="2">  1        3 0.76567244E-02 0.20002935E+02</pdfrwt>
<pdfrwt beam="1">  1       -3 0.30921298E-03 0.20002935E+02</pdfrwt>
<totfact> 0.16116888E+06</totfact>
</mgrwt>
</event>
<event>
 5    1  0.4133473E-007  0.2000598E+02  0.7818608E-02  0.1745209E+00
         -3   -1    0    0    0  501 -0.00000000000E+00  0.00000000000E+00  0.98072504623E+00  0.98512467043E+00  0.93000000000E-01 0. -1.
          3   -1    0    0  501    0  0.00000000000E+00 -0.00000000000E+00 -0.10179357859E+03  0.10179362107E+03  0.93000000000E-01 0.  1.
       1023    2    1    2    0    0  0.00000000000E+00  0.00000000000E+00 -0.10081285354E+03  0.10277874574E+03  0.20005977530E+02 0.  0.
        -11    1    3    3    0    0  0.39332693748E+01  0.91965852066E+01 -0.49843733763E+02  0.50837442728E+02  0.51100000000E-03 0.  1.
         11    1    3    3    0    0 -0.39332693748E+01 -0.91965852066E+01 -0.50969119778E+02  0.51941303012E+02  0.51100000000E-03 0. -1.
<mgrwt>
<rscale>  0 0.20005978E+02</rscale>
<asrwt>0</asrwt>
<pdfrwt beam="2">  1        3 0.15660884E-01 0.20005978E+02</pdfrwt>
<pdfrwt beam="1">  1       -3 0.15122256E-03 0.20005978E+02</pdfrwt>
<totfact> 0.14073538E+06</totfact>
</mgrwt>
</event>
<event>
 4    1  0.4133473E-007  0.2001765E+02  0.7818608E-02  0.1744977E+00
         -3   -1    0    0    0  501 -0.00000000000E+00  0.00000000000E+00  0.38628045995E+02  0.38628157947E+02  0.93000000000E-01 0.  1.
          3   -1    0    0  501    0  0.00000000000E+00 -0.00000000000E+00 -0.25924139873E+01  0.25940815873E+01  0.93000000000E-01 0. -1.
        -11    1    1    2    0    0 -0.79817857348E+01 -0.60358292251E+01  0.18410846314E+02  0.20954698762E+02  0.51100000000E-03 0.  1.
         11    1    1    2    0    0  0.79817857348E+01  0.60358292251E+01  0.17624785693E+02  0.20267540772E+02  0.51100000000E-03 0. -1.
<mgrwt>
<rscale>  0 0.20017649E+02</rscale>
<asrwt>0</asrwt>
<pdfrwt beam="2">  1        3 0.39896981E-03 0.20017649E+02</pdfrwt>
<pdfrwt beam="1">  1       -3 0.59429132E-02 0.20017649E+02</pdfrwt>
<totfact> 0.16618487E+06</totfact>
</mgrwt>
</event>
<event>
 4    1  0.4133473E-007  0.2003960E+02  0.7818608E-02  0.1744542E+00
          3   -1    0    0  501    0  0.00000000000E+00  0.00000000000E+00  0.32555052646E+02  0.32555185482E+02  0.93000000000E-01 0.  1.
         -3   -1    0    0    0  501 -0.00000000000E+00 -0.00000000000E+00 -0.30830548138E+01  0.30844571621E+01  0.93000000000E-01 0. -1.
        -11    1    1    2    0    0  0.30638890038E+00  0.10014296498E+02  0.14963469025E+02  0.18007926423E+02  0.51100000000E-03 0. -1.
         11    1    1    2    0    0 -0.30638890038E+00 -0.10014296498E+02  0.14508528807E+02  0.17631716221E+02  0.51100000000E-03 0.  1.
<mgrwt>
<rscale>  0 0.20039598E+02</rscale>
<asrwt>0</asrwt>
<pdfrwt beam="1">  1        3 0.50085877E-02 0.20039598E+02</pdfrwt>
<pdfrwt beam="2">  1       -3 0.47443422E-03 0.20039598E+02</pdfrwt>
<totfact> 0.16874805E+06</totfact>
</mgrwt>
</event>
<event>
 5    1  0.4133473E-007  0.2000026E+02  0.7818608E-02  0.1745323E+00
          3   -1    0    0  501    0  0.00000000000E+00  0.00000000000E+00  0.28820413774E+01  0.28835414859E+01  0.93000000000E-01 0. -1.
         -3   -1    0    0    0  501 -0.00000000000E+00 -0.00000000000E+00 -0.34687938367E+02  0.34688063036E+02  0.93000000000E-01 0.  1.
       1023    2    1    2    0    0  0.00000000000E+00  0.00000000000E+00 -0.31805896990E+02  0.37571604522E+02  0.20000259573E+02 0.  0.
        -11    1    3    3    0    0 -0.44734199406E+01 -0.89437253009E+01 -0.15846991916E+02  0.18738432732E+02  0.51100000000E-03 0.  1.
         11    1    3    3    0    0  0.44734199406E+01  0.89437253009E+01 -0.15958905074E+02  0.18833171789E+02  0.51100000000E-03 0. -1.
<mgrwt>
<rscale>  0 0.20000260E+02</rscale>
<asrwt>0</asrwt>
<pdfrwt beam="1">  1        3 0.44351599E-03 0.20000260E+02</pdfrwt>
<pdfrwt beam="2">  1       -3 0.53367306E-02 0.20000260E+02</pdfrwt>
<totfact> 0.16843097E+06</totfact>
</mgrwt>
</event>
<event>
 5    1  0.4133473E-007  0.2000032E+02  0.7818608E-02  0.1745322E+00
         -3   -1    0    0    0  501 -0.00000000000E+00  0.00000000000E+00  0.42019637342E+02  0.42019740258E+02  0.93000000000E-01 0.  1.
          3   -1    0    0  501    0  0.00000000000E+00 -0.00000000000E+00 -0.23789018194E+01  0.23807189810E+01  0.93000000000E-01 0. -1.
       1023    2    1    2    0    0  0.00000000000E+00  0.00000000000E+00  0.39640735523E+02  0.44400459239E+02  0.20000321694E+02 0.  0.
        -11    1    3    3    0    0 -0.83262681668E+01 -0.55386347613E+01  0.19821074396E+02  0.22200860503E+02  0.51100000000E-03 0.  1.
         11    1    3    3    0    0  0.83262681668E+01  0.55386347613E+01  0.19819661127E+02  0.22199598736E+02  0.51100000000E-03 0. -1.
<mgrwt>
<rscale>  0 0.20000322E+02</rscale>
<asrwt>0</asrwt>
<pdfrwt beam="2">  1        3 0.36613263E-03 0.20000322E+02</pdfrwt>
<pdfrwt beam="1">  1       -3 0.64647067E-02 0.20000322E+02</pdfrwt>
<totfact> 0.16486093E+06</totfact>
</mgrwt>
</event>
<event>
 5    1  0.4133473E-007  0.2000044E+02  0.7818608E-02  0.1745319E+00
         -3   -1    0    0    0  501 -0.00000000000E+00  0.00000000000E+00  0.46374975784E+02  0.46375069034E+02  0.93000000000E-01 0. -1.
          3   -1    0    0  501    0  0.00000000000E+00 -0.00000000000E+00 -0.21553329982E+01  0.21573384837E+01  0.93000000000E-01 0.  1.
       1023    2    1    2    0    0  0.00000000000E+00  0.00000000000E+00  0.44219642786E+02  0.48532407518E+02  0.20000444280E+02 0.  0.
        -11    1    3    3    0    0 -0.87791183333E+01 -0.47886440274E+01  0.22060551775E+02  0.24221312417E+02  0.51100000000E-03 0.  1.
         11    1    3    3    0    0  0.87791183333E+01  0.47886440274E+01  0.22159091010E+02  0.24311095101E+02  0.51100000000E-03 0. -1.
<mgrwt>
<rscale>  0 0.20000444E+02</rscale>
<asrwt>0</asrwt>
<pdfrwt beam="2">  1        3 0.33175115E-03 0.20000444E+02</pdfrwt>
<pdfrwt beam="1">  1       -3 0.71347728E-02 0.20000444E+02</pdfrwt>
<totfact> 0.16280243E+06</totfact>
</mgrwt>
</event>
<event>
 5    1  0.4133473E-007  0.2000019E+02  0.7818608E-02  0.1745324E+00
         -3   -1    0    0    0  501 -0.00000000000E+00  0.00000000000E+00  0.18627524074E+01  0.18650725270E+01  0.93000000000E-01 0.  1.
          3   -1    0    0  501    0  0.00000000000E+00 -0.00000000000E+00 -0.53649271260E+02  0.53649351866E+02  0.93000000000E-01 0. -1.
       1023    2    1    2    0    0  0.00000000000E+00  0.00000000000E+00 -0.51786518852E+02  0.55514424394E+02  0.20000194522E+02 0.  0.
        -11    1    3    3    0    0  0.66552711603E+01  0.74638669076E+01 -0.25896695530E+02  0.27760417559E+02  0.51100000000E-03 0. -1.
         11    1    3    3    0    0 -0.66552711603E+01 -0.74638669076E+01 -0.25889823322E+02  0.27754006834E+02  0.51100000000E-03 0.  1.
<mgrwt>
<rscale>  0 0.20000195E+02</rscale>
<asrwt>0</asrwt>
<pdfrwt beam="2">  1        3 0.82539175E-02 0.20000195E+02</pdfrwt>
<pdfrwt beam="1">  1       -3 0.28676201E-03 0.20000195E+02</pdfrwt>
<totfact> 0.15946668E+06</totfact>
</mgrwt>
</event>
<event>
 5    1  0.4253102E-007  0.2000079E+02  0.7818608E-02  0.1745312E+00
         -3   -1    0    0    0  501 -0.00000000000E+00  0.00000000000E+00  0.14414113935E+02  0.14414413951E+02  0.93000000000E-01 0. -1.
          3   -1    0    0  501    0  0.00000000000E+00 -0.00000000000E+00 -0.69375114691E+01  0.69381347914E+01  0.93000000000E-01 0.  1.
       1023    2    1    2    0    0  0.00000000000E+00  0.00000000000E+00  0.74766024664E+01  0.21352548742E+02  0.20000793818E+02 0.  0.
        -11    1    3    3    0    0  0.85660139107E+01 -0.51599717737E+01  0.36553652531E+01  0.10647234308E+02  0.51100000000E-03 0.  1.
         11    1    3    3    0    0 -0.85660139107E+01  0.51599717737E+01  0.38212372133E+01  0.10705314434E+02  0.51100000000E-03 0. -1.
<mgrwt>
<rscale>  0 0.20000794E+02</rscale>
<asrwt>0</asrwt>
<pdfrwt beam="2">  1        3 0.10673805E-02 0.20000794E+02</pdfrwt>
<pdfrwt beam="1">  1       -3 0.22176270E-02 0.20000794E+02</pdfrwt>
<totfact> 0.17796286E+06</totfact>
</mgrwt>
</event>
<event>
 5    1  0.4280467E-007  0.2000156E+02  0.7818608E-02  0.1745297E+00
          3   -1    0    0  501    0  0.00000000000E+00  0.00000000000E+00  0.95314873205E+01  0.95319410164E+01  0.93000000000E-01 0.  1.
         -3   -1    0    0    0  501 -0.00000000000E+00 -0.00000000000E+00 -0.10492269724E+02  0.10492681877E+02  0.93000000000E-01 0. -1.
       1023    2    1    2    0    0  0.00000000000E+00  0.00000000000E+00 -0.96078240378E+00  0.20024622893E+02  0.20001560419E+02 0.  0.
        -11    1    3    3    0    0 -0.95581230278E+01 -0.29401656377E+01 -0.36486861977E+00  0.10006768667E+02  0.51100000000E-03 0. -1.
         11    1    3    3    0    0  0.95581230278E+01  0.29401656377E+01 -0.59591378401E+00  0.10017854226E+02  0.51100000000E-03 0.  1.
<mgrwt>
<rscale>  0 0.20001560E+02</rscale>
<asrwt>0</asrwt>
<pdfrwt beam="1">  1        3 0.14664493E-02 0.20001560E+02</pdfrwt>
<pdfrwt beam="2">  1       -3 0.16142619E-02 0.20001560E+02</pdfrwt>
<totfact> 0.17881063E+06</totfact>
</mgrwt>
</event>
<event>
 5    1  0.4133473E-007  0.2000123E+02  0.7818608E-02  0.1745304E+00
          3   -1    0    0  501    0  0.00000000000E+00  0.00000000000E+00  0.17091264291E+01  0.17116547989E+01  0.93000000000E-01 0.  1.
         -3   -1    0    0    0  501 -0.00000000000E+00 -0.00000000000E+00 -0.58470807600E+02  0.58470881560E+02  0.93000000000E-01 0. -1.
       1023    2    1    2    0    0  0.00000000000E+00  0.00000000000E+00 -0.56761681171E+02  0.60182536359E+02  0.20001230793E+02 0.  0.
        -11    1    3    3    0    0  0.31327878873E+01 -0.94972523063E+01 -0.28344391980E+02  0.30056891361E+02  0.51100000000E-03 0. -1.
         11    1    3    3    0    0 -0.31327878873E+01  0.94972523063E+01 -0.28417289191E+02  0.30125644998E+02  0.51100000000E-03 0.  1.
<mgrwt>
<rscale>  0 0.20001231E+02</rscale>
<asrwt>0</asrwt>
<pdfrwt beam="1">  1        3 0.26314275E-03 0.20001231E+02</pdfrwt>
<pdfrwt beam="2">  1       -3 0.89957075E-02 0.20001231E+02</pdfrwt>
<totfact> 0.15736179E+06</totfact>
</mgrwt>
</event>
<event>
 5    1  0.4133473E-007  0.2000139E+02  0.7818608E-02  0.1745300E+00
          3   -1    0    0  501    0  0.00000000000E+00  0.00000000000E+00  0.22823481273E+01  0.22842421006E+01  0.93000000000E-01 0.  1.
         -3   -1    0    0    0  501 -0.00000000000E+00 -0.00000000000E+00 -0.43800507383E+02  0.43800606115E+02  0.93000000000E-01 0. -1.
       1023    2    1    2    0    0  0.00000000000E+00  0.00000000000E+00 -0.41518159256E+02  0.46084848216E+02  0.20001392128E+02 0.  0.
        -11    1    3    3    0    0  0.71584465786E+01  0.69833379424E+01 -0.20621696343E+02  0.22918654554E+02  0.51100000000E-03 0.  1.
         11    1    3    3    0    0 -0.71584465786E+01 -0.69833379424E+01 -0.20896462913E+02  0.23166193662E+02  0.51100000000E-03 0. -1.
<mgrwt>
<rscale>  0 0.20001392E+02</rscale>
<asrwt>0</asrwt>
<pdfrwt beam="1">  1        3 0.35128380E-03 0.20001392E+02</pdfrwt>
<pdfrwt beam="2">  1       -3 0.67386922E-02 0.20001392E+02</pdfrwt>
<totfact> 0.16399463E+06</totfact>
</mgrwt>
</event>
<event>
 5    1  0.4133473E-007  0.2000080E+02  0.7818608E-02  0.1745312E+00
         -3   -1    0    0    0  501 -0.00000000000E+00  0.00000000000E+00  0.66640114268E+02  0.66640179161E+02  0.93000000000E-01 0. -1.
          3   -1    0    0  501    0  0.00000000000E+00 -0.00000000000E+00 -0.14992116167E+01  0.15020933631E+01  0.93000000000E-01 0.  1.
       1023    2    1    2    0    0  0.00000000000E+00  0.00000000000E+00  0.65140902651E+02  0.68142272524E+02  0.20000802648E+02 0.  0.
        -11    1    3    3    0    0 -0.83803283864E+01 -0.54568076052E+01  0.32696706211E+02  0.34191830170E+02  0.51100000000E-03 0. -1.
         11    1    3    3    0    0  0.83803283864E+01  0.54568076052E+01  0.32444196440E+02  0.33950442354E+02  0.51100000000E-03 0.  1.
<mgrwt>
<rscale>  0 0.20000803E+02</rscale>
<asrwt>0</asrwt>
<pdfrwt beam="2">  1        3 0.23087461E-03 0.20000803E+02</pdfrwt>
<pdfrwt beam="1">  1       -3 0.10252552E-01 0.20000803E+02</pdfrwt>
<totfact> 0.15392275E+06</totfact>
</mgrwt>
</event>
<event>
 5    1  0.4133473E-007  0.2000076E+02  0.7818608E-02  0.1745313E+00
          3   -1    0    0  501    0  0.00000000000E+00  0.00000000000E+00  0.30316178143E+01  0.30330439450E+01  0.93000000000E-01 0.  1.
         -3   -1    0    0    0  501 -0.00000000000E+00 -0.00000000000E+00 -0.32978933538E+02  0.32979064667E+02  0.93000000000E-01 0. -1.
       1023    2    1    2    0    0  0.00000000000E+00  0.00000000000E+00 -0.29947315724E+02  0.36012108612E+02  0.20000756176E+02 0.  0.
        -11    1    3    3    0    0 -0.84514220329E+01 -0.53458302240E+01 -0.15074334813E+02  0.18089776269E+02  0.51100000000E-03 0.  1.
         11    1    3    3    0    0  0.84514220329E+01  0.53458302240E+01 -0.14872980912E+02  0.17922332343E+02  0.51100000000E-03 0. -1.
<mgrwt>
<rscale>  0 0.20000756E+02</rscale>
<asrwt>0</asrwt>
<pdfrwt beam="1">  1        3 0.46652255E-03 0.20000756E+02</pdfrwt>
<pdfrwt beam="2">  1       -3 0.50738016E-02 0.20000756E+02</pdfrwt>
<totfact> 0.16926964E+06</totfact>
</mgrwt>
</event>
<event>
 5    1  0.4133473E-007  0.2000086E+02  0.7818608E-02  0.1745311E+00
          3   -1    0    0  501    0  0.00000000000E+00  0.00000000000E+00  0.15899136541E+01  0.15926312905E+01  0.93000000000E-01 0. -1.
         -3   -1    0    0    0  501 -0.00000000000E+00 -0.00000000000E+00 -0.62845415509E+02  0.62845484321E+02  0.93000000000E-01 0.  1.
       1023    2    1    2    0    0  0.00000000000E+00  0.00000000000E+00 -0.61255501855E+02  0.64438115611E+02  0.20000855882E+02 0.  0.
        -11    1    3    3    0    0  0.69062955281E+01 -0.72322393099E+01 -0.30884592499E+02  0.32463213911E+02  0.51100000000E-03 0. -1.
         11    1    3    3    0    0 -0.69062955281E+01  0.72322393099E+01 -0.30370909356E+02  0.31974901700E+02  0.51100000000E-03 0.  1.
<mgrwt>
<rscale>  0 0.20000856E+02</rscale>
<asrwt>0</asrwt>
<pdfrwt beam="1">  1        3 0.24481649E-03 0.20000856E+02</pdfrwt>
<pdfrwt beam="2">  1       -3 0.96687379E-02 0.20000856E+02</pdfrwt>
<totfact> 0.15550086E+06</totfact>
</mgrwt>
</event>
<event>
 5    1  0.4133473E-007  0.2000044E+02  0.7818608E-02  0.1745319E+00
         -3   -1    0    0    0  501 -0.00000000000E+00  0.00000000000E+00  0.10991903516E+02  0.10992296935E+02  0.93000000000E-01 0.  1.
          3   -1    0    0  501    0  0.00000000000E+00 -0.00000000000E+00 -0.90972162283E+01  0.90976915811E+01  0.93000000000E-01 0. -1.
       1023    2    1    2    0    0  0.00000000000E+00  0.00000000000E+00  0.18946872880E+01  0.20089988516E+02  0.20000444962E+02 0.  0.
        -11    1    3    3    0    0 -0.98418435155E+01  0.17716720860E+01  0.88588440571E+00  0.10039198036E+02  0.51100000000E-03 0. -1.
         11    1    3    3    0    0  0.98418435155E+01 -0.17716720860E+01  0.10088028823E+01  0.10050790480E+02  0.51100000000E-03 0.  1.
<mgrwt>
<rscale>  0 0.20000445E+02</rscale>
<asrwt>0</asrwt>
<pdfrwt beam="2">  1        3 0.13996386E-02 0.20000445E+02</pdfrwt>
<pdfrwt beam="1">  1       -3 0.16911289E-02 0.20000445E+02</pdfrwt>
<totfact> 0.17879005E+06</totfact>
</mgrwt>
</event>
<event>
 5    1  0.4133473E-007  0.2000032E+02  0.7818608E-02  0.1745322E+00
         -3   -1    0    0    0  501 -0.00000000000E+00  0.00000000000E+00  0.13678259661E+01  0.13709839071E+01  0.93000000000E-01 0. -1.
          3   -1    0    0  501    0  0.00000000000E+00 -0.00000000000E+00 -0.73023572328E+02  0.73023631549E+02  0.93000000000E-01 0.  1.
       1023    2    1    2    0    0  0.00000000000E+00  0.00000000000E+00 -0.71655746362E+02  0.74394615456E+02  0.20000320550E+02 0.  0.
        -11    1    3    3    0    0  0.99315349874E+01  0.11689290643E+01 -0.35687561985E+02  0.37062162147E+02  0.51100000000E-03 0.  1.
         11    1    3    3    0    0 -0.99315349874E+01 -0.11689290643E+01 -0.35968184377E+02  0.37332453308E+02  0.51100000000E-03 0. -1.
<mgrwt>
<rscale>  0 0.20000321E+02</rscale>
<asrwt>0</asrwt>
<pdfrwt beam="2">  1        3 0.11234640E-01 0.20000321E+02</pdfrwt>
<pdfrwt beam="1">  1       -3 0.21068229E-03 0.20000321E+02</pdfrwt>
<totfact> 0.15132732E+06</totfact>
</mgrwt>
</event>
<event>
 5    1  0.4253673E-007  0.2000057E+02  0.7818608E-02  0.1745317E+00
         -3   -1    0    0    0  501 -0.00000000000E+00  0.00000000000E+00  0.39246695617E+02  0.39246805804E+02  0.93000000000E-01 0. -1.
          3   -1    0    0  501    0  0.00000000000E+00 -0.00000000000E+00 -0.25471690646E+01  0.25488662663E+01  0.93000000000E-01 0.  1.
       1023    2    1    2    0    0  0.00000000000E+00  0.00000000000E+00  0.36699526552E+02  0.41795672071E+02  0.20000573859E+02 0.  0.
        -11    1    3    3    0    0  0.58647965804E+01  0.80996981928E+01  0.18494372515E+02  0.21024813073E+02  0.51100000000E-03 0.  1.
         11    1    3    3    0    0 -0.58647965804E+01 -0.80996981928E+01  0.18205154037E+02  0.20770858998E+02  0.51100000000E-03 0. -1.
<mgrwt>
<rscale>  0 0.20000574E+02</rscale>
<asrwt>0</asrwt>
<pdfrwt beam="2">  1        3 0.39201121E-03 0.20000574E+02</pdfrwt>
<pdfrwt beam="1">  1       -3 0.60380919E-02 0.20000574E+02</pdfrwt>
<totfact> 0.16619213E+06</totfact>
</mgrwt>
</event>
<event>
 5    1  0.4219907E-007  0.2000099E+02  0.7818608E-02  0.1745308E+00
         -3   -1    0    0    0  501 -0.00000000000E+00  0.00000000000E+00  0.48380044120E+01  0.48388981897E+01  0.93000000000E-01 0. -1.
          3   -1    0    0  501    0  0.00000000000E+00 -0.00000000000E+00 -0.20668815174E+02  0.20669024401E+02  0.93000000000E-01 0.  1.
       1023    2    1    2    0    0  0.00000000000E+00  0.00000000000E+00 -0.15830810762E+02  0.25507922591E+02  0.20000988614E+02 0.  0.
        -11    1    3    3    0    0 -0.52738404156E+01 -0.84963540049E+01 -0.77980885124E+01  0.12681151715E+02  0.51100000000E-03 0.  1.
         11    1    3    3    0    0  0.52738404156E+01  0.84963540049E+01 -0.80327222496E+01  0.12826770876E+02  0.51100000000E-03 0. -1.
<mgrwt>
<rscale>  0 0.20000989E+02</rscale>
<asrwt>0</asrwt>
<pdfrwt beam="2">  1        3 0.31799025E-02 0.20000989E+02</pdfrwt>
<pdfrwt beam="1">  1       -3 0.74439323E-03 0.20000989E+02</pdfrwt>
<totfact> 0.17533428E+06</totfact>
</mgrwt>
</event>
<event>
 5    1  0.4155122E-007  0.2000110E+02  0.7818608E-02  0.1745306E+00
          3   -1    0    0  501    0  0.00000000000E+00  0.00000000000E+00  0.19103511403E+01  0.19126135206E+01  0.93000000000E-01 0. -1.
         -3   -1    0    0    0  501 -0.00000000000E+00 -0.00000000000E+00 -0.52318896190E+02  0.52318978846E+02  0.93000000000E-01 0.  1.
       1023    2    1    2    0    0  0.00000000000E+00  0.00000000000E+00 -0.50408545050E+02  0.54231592367E+02  0.20001104885E+02 0.  0.
        -11    1    3    3    0    0  0.89000425088E+01 -0.45603372915E+01 -0.25041225000E+02  0.26964242667E+02  0.51100000000E-03 0. -1.
         11    1    3    3    0    0 -0.89000425088E+01  0.45603372915E+01 -0.25367320050E+02  0.27267349700E+02  0.51100000000E-03 0.  1.
<mgrwt>
<rscale>  0 0.20001105E+02</rscale>
<asrwt>0</asrwt>
<pdfrwt beam="1">  1        3 0.29408060E-03 0.20001105E+02</pdfrwt>
<pdfrwt beam="2">  1       -3 0.80492403E-02 0.20001105E+02</pdfrwt>
<totfact> 0.16007247E+06</totfact>
</mgrwt>
</event>
<event>
 5    1  0.4179079E-007  0.2000093E+02  0.7818608E-02  0.1745310E+00
          3   -1    0    0  501    0  0.00000000000E+00  0.00000000000E+00  0.18574480773E+01  0.18597748143E+01  0.93000000000E-01 0. -1.
         -3   -1    0    0    0  501 -0.00000000000E+00 -0.00000000000E+00 -0.53806226602E+02  0.53806306973E+02  0.93000000000E-01 0.  1.
       1023    2    1    2    0    0  0.00000000000E+00  0.00000000000E+00 -0.51948778524E+02  0.55666081788E+02  0.20000926764E+02 0.  0.
        -11    1    3    3    0    0  0.96209960229E+01 -0.27274174740E+01 -0.25743250951E+02  0.27617337677E+02  0.51100000000E-03 0. -1.
         11    1    3    3    0    0 -0.96209960229E+01  0.27274174740E+01 -0.26205527573E+02  0.28048744111E+02  0.51100000000E-03 0.  1.
<mgrwt>
<rscale>  0 0.20000927E+02</rscale>
<asrwt>0</asrwt>
<pdfrwt beam="1">  1        3 0.28594645E-03 0.20000927E+02</pdfrwt>
<pdfrwt beam="2">  1       -3 0.82780650E-02 0.20000927E+02</pdfrwt>
<totfact> 0.15941115E+06</totfact>
</mgrwt>
</event>
<event>
 5    1  0.4133473E-007  0.2000274E+02  0.7818608E-02  0.1745274E+00
          3   -1    0    0  501    0  0.00000000000E+00  0.00000000000E+00  0.19003246738E+01  0.19025989766E+01  0.93000000000E-01 0.  1.
         -3   -1    0    0    0  501 -0.00000000000E+00 -0.00000000000E+00 -0.52603212369E+02  0.52603294578E+02  0.93000000000E-01 0. -1.
       1023    2    1    2    0    0  0.00000000000E+00  0.00000000000E+00 -0.50702887695E+02  0.54505893555E+02  0.20002740103E+02 0.  0.
        -11    1    3    3    0    0  0.76518772557E+00 -0.99710412894E+01 -0.25738977054E+02  0.27613440870E+02  0.51100000000E-03 0.  1.
         11    1    3    3    0    0 -0.76518772557E+00  0.99710412894E+01 -0.24963910641E+02  0.26892452685E+02  0.51100000000E-03 0. -1.
<mgrwt>
<rscale>  0 0.20002740E+02</rscale>
<asrwt>0</asrwt>
<pdfrwt beam="1">  1        3 0.29253895E-03 0.20002740E+02</pdfrwt>
<pdfrwt beam="2">  1       -3 0.80929821E-02 0.20002740E+02</pdfrwt>
<totfact> 0.15991675E+06</totfact>
</mgrwt>
</event>
<event>
 5    1  0.4133473E-007  0.2000041E+02  0.7818608E-02  0.1745320E+00
         -3   -1    0    0    0  501 -0.00000000000E+00  0.00000000000E+00  0.44507535134E+01  0.44517250406E+01  0.93000000000E-01 0.  1.
          3   -1    0    0  501    0  0.00000000000E+00 -0.00000000000E+00 -0.22465502638E+02  0.22465695132E+02  0.93000000000E-01 0. -1.
       1023    2    1    2    0    0  0.00000000000E+00  0.00000000000E+00 -0.18014749124E+02  0.26917420173E+02  0.20000408064E+02 0.  0.
        -11    1    3    3    0    0 -0.65214717455E+01 -0.75811762432E+01 -0.89859479196E+01  0.13444370094E+02  0.51100000000E-03 0. -1.
         11    1    3    3    0    0  0.65214717455E+01  0.75811762432E+01 -0.90288012045E+01  0.13473050078E+02  0.51100000000E-03 0.  1.
<mgrwt>
<rscale>  0 0.20000408E+02</rscale>
<asrwt>0</asrwt>
<pdfrwt beam="2">  1        3 0.34563206E-02 0.20000408E+02</pdfrwt>
<pdfrwt beam="1">  1       -3 0.68482087E-03 0.20000408E+02</pdfrwt>
<totfact> 0.17448667E+06</totfact>
</mgrwt>
</event>
<event>
 5    1  0.4133473E-007  0.2000014E+02  0.7818608E-02  0.1745325E+00
          3   -1    0    0  501    0  0.00000000000E+00  0.00000000000E+00  0.10506752024E+01  0.10547830966E+01  0.93000000000E-01 0. -1.
         -3   -1    0    0    0  501 -0.00000000000E+00 -0.00000000000E+00 -0.94988400339E+02  0.94988445865E+02  0.93000000000E-01 0.  1.
       1023    2    1    2    0    0  0.00000000000E+00  0.00000000000E+00 -0.93937725136E+02  0.96043228962E+02  0.20000140640E+02 0.  0.
        -11    1    3    3    0    0  0.73141943764E+00 -0.99732853942E+01 -0.46984199202E+02  0.48036614898E+02  0.51100000000E-03 0. -1.
         11    1    3    3    0    0 -0.73141943764E+00  0.99732853942E+01 -0.46953525934E+02  0.48006614063E+02  0.51100000000E-03 0.  1.
<mgrwt>
<rscale>  0 0.20000141E+02</rscale>
<asrwt>0</asrwt>
<pdfrwt beam="1">  1        3 0.16196191E-03 0.20000141E+02</pdfrwt>
<pdfrwt beam="2">  1       -3 0.14613913E-01 0.20000141E+02</pdfrwt>
<totfact> 0.14319167E+06</totfact>
</mgrwt>
</event>
<event>
 5    1  0.4133473E-007  0.2000055E+02  0.7818608E-02  0.1745317E+00
         -3   -1    0    0    0  501 -0.00000000000E+00  0.00000000000E+00  0.10222226833E+03  0.10222231064E+03  0.93000000000E-01 0.  1.
          3   -1    0    0  501    0  0.00000000000E+00 -0.00000000000E+00 -0.97606125454E+00  0.98048180637E+00  0.93000000000E-01 0. -1.
       1023    2    1    2    0    0  0.00000000000E+00  0.00000000000E+00  0.10124620708E+03  0.10320279244E+03  0.20000548005E+02 0.  0.
        -11    1    3    3    0    0 -0.97940605747E+01 -0.20198479167E+01  0.50388240446E+02  0.51370985815E+02  0.51100000000E-03 0. -1.
         11    1    3    3    0    0  0.97940605747E+01  0.20198479167E+01  0.50857966631E+02  0.51831806628E+02  0.51100000000E-03 0.  1.
<mgrwt>
<rscale>  0 0.20000548E+02</rscale>
<asrwt>0</asrwt>
<pdfrwt beam="2">  1        3 0.15050665E-03 0.20000548E+02</pdfrwt>
<pdfrwt beam="1">  1       -3 0.15726837E-01 0.20000548E+02</pdfrwt>
<totfact> 0.14070111E+06</totfact>
</mgrwt>
</event>
<event>
 5    1  0.4133473E-007  0.2000300E+02  0.7818608E-02  0.1745269E+00
         -3   -1    0    0    0  501 -0.00000000000E+00  0.00000000000E+00  0.66945647800E+02  0.66945712397E+02  0.93000000000E-01 0.  1.
          3   -1    0    0  501    0  0.00000000000E+00 -0.00000000000E+00 -0.14926841858E+01  0.14955785097E+01  0.93000000000E-01 0. -1.
       1023    2    1    2    0    0  0.00000000000E+00  0.00000000000E+00  0.65452963614E+02  0.68441290907E+02  0.20002996153E+02 0.  0.
        -11    1    3    3    0    0 -0.95325393337E+01  0.30226733803E+01  0.33257682621E+02  0.34728652638E+02  0.51100000000E-03 0.  1.
         11    1    3    3    0    0  0.95325393337E+01 -0.30226733803E+01  0.32195280994E+02  0.33712638269E+02  0.51100000000E-03 0. -1.
<mgrwt>
<rscale>  0 0.20002996E+02</rscale>
<asrwt>0</asrwt>
<pdfrwt beam="2">  1        3 0.22987137E-03 0.20002996E+02</pdfrwt>
<pdfrwt beam="1">  1       -3 0.10299556E-01 0.20002996E+02</pdfrwt>
<totfact> 0.15376087E+06</totfact>
</mgrwt>
</event>
<event>
 5    1  0.4133473E-007  0.2001033E+02  0.7818608E-02  0.1745123E+00
          3   -1    0    0  501    0  0.00000000000E+00  0.00000000000E+00  0.69910461106E+01  0.69916646602E+01  0.93000000000E-01 0. -1.
         -3   -1    0    0    0  501 -0.00000000000E+00 -0.00000000000E+00 -0.14317382501E+02  0.14317684543E+02  0.93000000000E-01 0.  1.
       1023    2    1    2    0    0  0.00000000000E+00  0.00000000000E+00 -0.73263363902E+01  0.21309349203E+02  0.20010326298E+02 0.  0.
        -11    1    3    3    0    0  0.44363303075E+01  0.89676858307E+01 -0.36060820052E+01  0.10635047882E+02  0.51100000000E-03 0.  1.
         11    1    3    3    0    0 -0.44363303075E+01 -0.89676858307E+01 -0.37202543849E+01  0.10674301322E+02  0.51100000000E-03 0. -1.
<mgrwt>
<rscale>  0 0.20010326E+02</rscale>
<asrwt>0</asrwt>
<pdfrwt beam="1">  1        3 0.10756164E-02 0.20010326E+02</pdfrwt>
<pdfrwt beam="2">  1       -3 0.22027451E-02 0.20010326E+02</pdfrwt>
<totfact> 0.17780811E+06</totfact>
</mgrwt>
</event>
<event>
 5    1  0.4133473E-007  0.2000821E+02  0.7818608E-02  0.1745165E+00
         -3   -1    0    0    0  501 -0.00000000000E+00  0.00000000000E+00  0.19566652106E+02  0.19566873119E+02  0.93000000000E-01 0.  1.
          3   -1    0    0  501    0  0.00000000000E+00 -0.00000000000E+00 -0.51142628620E+01  0.51151083686E+01  0.93000000000E-01 0. -1.
       1023    2    1    2    0    0  0.00000000000E+00  0.00000000000E+00  0.14452389244E+02  0.24681981487E+02  0.20008214695E+02 0.  0.
        -11    1    3    3    0    0  0.29477496621E+01  0.95595388944E+01  0.73375710875E+01  0.12406206579E+02  0.51100000000E-03 0.  1.
         11    1    3    3    0    0 -0.29477496621E+01 -0.95595388944E+01  0.71148181564E+01  0.12275774909E+02  0.51100000000E-03 0. -1.
<mgrwt>
<rscale>  0 0.20008215E+02</rscale>
<asrwt>0</asrwt>
<pdfrwt beam="2">  1        3 0.78689171E-03 0.20008215E+02</pdfrwt>
<pdfrwt beam="1">  1       -3 0.30103362E-02 0.20008215E+02</pdfrwt>
<totfact> 0.17571965E+06</totfact>
</mgrwt>
</event>
<event>
 4    1  0.4133473E-007  0.2003383E+02  0.7818608E-02  0.1744656E+00
          3   -1    0    0  501    0  0.00000000000E+00  0.00000000000E+00  0.24391254349E+01  0.24408977625E+01  0.93000000000E-01 0.  1.
         -3   -1    0    0    0  501 -0.00000000000E+00 -0.00000000000E+00 -0.41120352864E+02  0.41120458030E+02  0.93000000000E-01 0. -1.
        -11    1    1    2    0    0 -0.98160827756E+01 -0.19692716553E+01 -0.18635767207E+02  0.21154794529E+02  0.51100000000E-03 0.  1.
         11    1    1    2    0    0  0.98160827756E+01  0.19692716553E+01 -0.20045460221E+02  0.22406561263E+02  0.51100000000E-03 0. -1.
<mgrwt>
<rscale>  0 0.20033830E+02</rscale>
<asrwt>0</asrwt>
<pdfrwt beam="1">  1        3 0.37539452E-03 0.20033830E+02</pdfrwt>
<pdfrwt beam="2">  1       -3 0.63263521E-02 0.20033830E+02</pdfrwt>
<totfact> 0.16469433E+06</totfact>
</mgrwt>
</event>
<event>
 5    1  0.4133473E-007  0.2000022E+02  0.7818608E-02  0.1745324E+00
          3   -1    0    0  501    0  0.00000000000E+00  0.00000000000E+00  0.25643825965E+02  0.25643994602E+02  0.93000000000E-01 0. -1.
         -3   -1    0    0    0  501 -0.00000000000E+00 -0.00000000000E+00 -0.38989238096E+01  0.39000328041E+01  0.93000000000E-01 0.  1.
       1023    2    1    2    0    0  0.00000000000E+00  0.00000000000E+00  0.21744902156E+02  0.29544027406E+02  0.20000219639E+02 0.  0.
        -11    1    3    3    0    0  0.84127686281E+01 -0.54061518146E+01  0.10920150821E+02  0.14807121518E+02  0.51100000000E-03 0.  1.
         11    1    3    3    0    0 -0.84127686281E+01  0.54061518146E+01  0.10824751335E+02  0.14736905888E+02  0.51100000000E-03 0. -1.
<mgrwt>
<rscale>  0 0.20000220E+02</rscale>
<asrwt>0</asrwt>
<pdfrwt beam="1">  1        3 0.39453023E-02 0.20000220E+02</pdfrwt>
<pdfrwt beam="2">  1       -3 0.59993271E-03 0.20000220E+02</pdfrwt>
<totfact> 0.17292654E+06</totfact>
</mgrwt>
</event>
<event>
 5    1  0.4133473E-007  0.2000071E+02  0.7818608E-02  0.1745314E+00
         -3   -1    0    0    0  501 -0.00000000000E+00  0.00000000000E+00  0.15327910234E+02  0.15328192364E+02  0.93000000000E-01 0. -1.
          3   -1    0    0  501    0  0.00000000000E+00 -0.00000000000E+00 -0.65238388584E+01  0.65245017014E+01  0.93000000000E-01 0.  1.
       1023    2    1    2    0    0  0.00000000000E+00  0.00000000000E+00  0.88040713755E+01  0.21852694065E+02  0.20000714115E+02 0.  0.
        -11    1    3    3    0    0  0.68546761419E+01 -0.72815066001E+01  0.43859169929E+01  0.10919853090E+02  0.51100000000E-03 0.  1.
         11    1    3    3    0    0 -0.68546761419E+01  0.72815066001E+01  0.44181543826E+01  0.10932840975E+02  0.51100000000E-03 0. -1.
<mgrwt>
<rscale>  0 0.20000714E+02</rscale>
<asrwt>0</asrwt>
<pdfrwt beam="2">  1        3 0.10037402E-02 0.20000714E+02</pdfrwt>
<pdfrwt beam="1">  1       -3 0.23582127E-02 0.20000714E+02</pdfrwt>
<totfact> 0.17764290E+06</totfact>
</mgrwt>
</event>
<event>
 5    1  0.4133473E-007  0.2000212E+02  0.7818608E-02  0.1745286E+00
         -3   -1    0    0    0  501 -0.00000000000E+00  0.00000000000E+00  0.32390142465E+01  0.32403490998E+01  0.93000000000E-01 0. -1.
          3   -1    0    0  501    0  0.00000000000E+00 -0.00000000000E+00 -0.30872380760E+02  0.30872520836E+02  0.93000000000E-01 0.  1.
       1023    2    1    2    0    0  0.00000000000E+00  0.00000000000E+00 -0.27633366513E+02  0.34112869936E+02  0.20002123647E+02 0.  0.
        -11    1    3    3    0    0  0.91391468278E+01  0.40613980136E+01 -0.13735270384E+02  0.16990485906E+02  0.51100000000E-03 0. -1.
         11    1    3    3    0    0 -0.91391468278E+01 -0.40613980136E+01 -0.13898096130E+02  0.17122384030E+02  0.51100000000E-03 0.  1.
<mgrwt>
<rscale>  0 0.20002124E+02</rscale>
<asrwt>0</asrwt>
<pdfrwt beam="2">  1        3 0.47497103E-02 0.20002124E+02</pdfrwt>
<pdfrwt beam="1">  1       -3 0.49842336E-03 0.20002124E+02</pdfrwt>
<totfact> 0.17027523E+06</totfact>
</mgrwt>
</event>
<event>
 5    1  0.4133473E-007  0.2000050E+02  0.7818608E-02  0.1745318E+00
          3   -1    0    0  501    0  0.00000000000E+00  0.00000000000E+00  0.38155818872E+02  0.38155932210E+02  0.93000000000E-01 0. -1.
         -3   -1    0    0    0  501 -0.00000000000E+00 -0.00000000000E+00 -0.26200211392E+01  0.26216711788E+01  0.93000000000E-01 0.  1.
       1023    2    1    2    0    0  0.00000000000E+00  0.00000000000E+00  0.35535797733E+02  0.40777603388E+02  0.20000500434E+02 0.  0.
        -11    1    3    3    0    0  0.99991293418E+01 -0.13807740145E+00  0.17885925374E+02  0.20491656343E+02  0.51100000000E-03 0.  1.
         11    1    3    3    0    0 -0.99991293418E+01  0.13807740145E+00  0.17649872359E+02  0.20285947045E+02  0.51100000000E-03 0. -1.
<mgrwt>
<rscale>  0 0.20000500E+02</rscale>
<asrwt>0</asrwt>
<pdfrwt beam="1">  1        3 0.58702614E-02 0.20000500E+02</pdfrwt>
<pdfrwt beam="2">  1       -3 0.40321583E-03 0.20000500E+02</pdfrwt>
<totfact> 0.16670067E+06</totfact>
</mgrwt>
</event>
<event>
 4    1  0.4133473E-007  0.2054975E+02  0.7818608E-02  0.1734611E+00
          3   -1    0    0  501    0  0.00000000000E+00  0.00000000000E+00  0.57179112213E+02  0.57179187843E+02  0.93000000000E-01 0. -1.
         -3   -1    0    0    0  501 -0.00000000000E+00 -0.00000000000E+00 -0.18451095936E+01  0.18474518701E+01  0.93000000000E-01 0.  1.
        -11    1    1    2    0    0 -0.90694768870E+01  0.47845504781E+01  0.29541220120E+02  0.31270289745E+02  0.51100000000E-03 0.  1.
         11    1    1    2    0    0  0.90694768870E+01 -0.47845504781E+01  0.25792782499E+02  0.27756349969E+02  0.51100000000E-03 0. -1.
<mgrwt>
<rscale>  0 0.20549753E+02</rscale>
<asrwt>0</asrwt>
<pdfrwt beam="1">  1        3 0.87969733E-02 0.20549753E+02</pdfrwt>
<pdfrwt beam="2">  1       -3 0.28404898E-03 0.20549753E+02</pdfrwt>
<totfact> 0.14890199E+06</totfact>
</mgrwt>
</event>
<event>
 5    1  0.4374884E-007  0.2000138E+02  0.7818608E-02  0.1745301E+00
          3   -1    0    0  501    0  0.00000000000E+00  0.00000000000E+00  0.65633524689E+01  0.65640113216E+01  0.93000000000E-01 0. -1.
         -3   -1    0    0    0  501 -0.00000000000E+00 -0.00000000000E+00 -0.15236646641E+02  0.15236930461E+02  0.93000000000E-01 0.  1.
       1023    2    1    2    0    0  0.00000000000E+00  0.00000000000E+00 -0.86732941725E+01  0.21800941783E+02  0.20001375723E+02 0.  0.
        -11    1    3    3    0    0  0.82790253323E+01  0.56097244052E+01 -0.43910266042E+01  0.10922105257E+02  0.51100000000E-03 0. -1.
         11    1    3    3    0    0 -0.82790253323E+01 -0.56097244052E+01 -0.42822675684E+01  0.10878836525E+02  0.51100000000E-03 0.  1.
<mgrwt>
<rscale>  0 0.20001376E+02</rscale>
<asrwt>0</asrwt>
<pdfrwt beam="1">  1        3 0.10098190E-02 0.20001376E+02</pdfrwt>
<pdfrwt beam="2">  1       -3 0.23441720E-02 0.20001376E+02</pdfrwt>
<totfact> 0.17766339E+06</totfact>
</mgrwt>
</event>
<event>
 5    1  0.4244618E-007  0.2000105E+02  0.7818608E-02  0.1745307E+00
         -3   -1    0    0    0  501 -0.00000000000E+00  0.00000000000E+00  0.26231426171E+01  0.26247906944E+01  0.93000000000E-01 0.  1.
          3   -1    0    0  501    0  0.00000000000E+00 -0.00000000000E+00 -0.38112519146E+02  0.38112632612E+02  0.93000000000E-01 0. -1.
       1023    2    1    2    0    0  0.00000000000E+00  0.00000000000E+00 -0.35489376529E+02  0.40737423307E+02  0.20001045255E+02 0.  0.
        -11    1    3    3    0    0  0.44989064633E+01 -0.89312573374E+01 -0.17855041918E+02  0.20464848867E+02  0.51100000000E-03 0.  1.
         11    1    3    3    0    0 -0.44989064633E+01  0.89312573374E+01 -0.17634334611E+02  0.20272574440E+02  0.51100000000E-03 0. -1.
<mgrwt>
<rscale>  0 0.20001045E+02</rscale>
<asrwt>0</asrwt>
<pdfrwt beam="2">  1        3 0.58635996E-02 0.20001045E+02</pdfrwt>
<pdfrwt beam="1">  1       -3 0.40369593E-03 0.20001045E+02</pdfrwt>
<totfact> 0.16671194E+06</totfact>
</mgrwt>
</event>
<event>
 5    1  0.4133473E-007  0.2000770E+02  0.7818608E-02  0.1745175E+00
          3   -1    0    0  501    0  0.00000000000E+00  0.00000000000E+00  0.15715677988E+01  0.15743171048E+01  0.93000000000E-01 0.  1.
         -3   -1    0    0    0  501 -0.00000000000E+00 -0.00000000000E+00 -0.63621269027E+02  0.63621336999E+02  0.93000000000E-01 0. -1.
       1023    2    1    2    0    0  0.00000000000E+00  0.00000000000E+00 -0.62049701228E+02  0.65195654104E+02  0.20007695809E+02 0.  0.
        -11    1    3    3    0    0 -0.98873152988E+01  0.15132354089E+01 -0.31570957239E+02  0.33117581833E+02  0.51100000000E-03 0. -1.
         11    1    3    3    0    0  0.98873152988E+01 -0.15132354089E+01 -0.30478743989E+02  0.32078072271E+02  0.51100000000E-03 0.  1.
<mgrwt>
<rscale>  0 0.20007696E+02</rscale>
<asrwt>0</asrwt>
<pdfrwt beam="1">  1        3 0.24199642E-03 0.20007696E+02</pdfrwt>
<pdfrwt beam="2">  1       -3 0.97881023E-02 0.20007696E+02</pdfrwt>
<totfact> 0.15506061E+06</totfact>
</mgrwt>
</event>
<event>
 5    1  0.4133473E-007  0.2000409E+02  0.7818608E-02  0.1745247E+00
         -3   -1    0    0    0  501 -0.00000000000E+00  0.00000000000E+00  0.12919849686E+02  0.12920184400E+02  0.93000000000E-01 0.  1.
          3   -1    0    0  501    0  0.00000000000E+00 -0.00000000000E+00 -0.77424814289E+01  0.77430399506E+01  0.93000000000E-01 0. -1.
       1023    2    1    2    0    0  0.00000000000E+00  0.00000000000E+00  0.51773682574E+01  0.20663224350E+02  0.20004092043E+02 0.  0.
        -11    1    3    3    0    0  0.72582215058E+01  0.68813198279E+01  0.26724891333E+01  0.10352610320E+02  0.51100000000E-03 0. -1.
         11    1    3    3    0    0 -0.72582215058E+01 -0.68813198279E+01  0.25048791242E+01  0.10310614031E+02  0.51100000000E-03 0.  1.
<mgrwt>
<rscale>  0 0.20004092E+02</rscale>
<asrwt>0</asrwt>
<pdfrwt beam="2">  1        3 0.11912197E-02 0.20004092E+02</pdfrwt>
<pdfrwt beam="1">  1       -3 0.19877379E-02 0.20004092E+02</pdfrwt>
<totfact> 0.17834670E+06</totfact>
</mgrwt>
</event>
<event>
 5    1  0.4133473E-007  0.2000335E+02  0.7818608E-02  0.1745261E+00
         -3   -1    0    0    0  501 -0.00000000000E+00  0.00000000000E+00  0.31670779675E+02  0.31670916220E+02  0.93000000000E-01 0.  1.
          3   -1    0    0  501    0  0.00000000000E+00 -0.00000000000E+00 -0.31577153581E+01  0.31590845641E+01  0.93000000000E-01 0. -1.
       1023    2    1    2    0    0  0.00000000000E+00  0.00000000000E+00  0.28513064317E+02  0.34830000785E+02  0.20003352666E+02 0.  0.
        -11    1    3    3    0    0  0.91994074226E+01 -0.39242981606E+01  0.14370926118E+02  0.17508647313E+02  0.51100000000E-03 0. -1.
         11    1    3    3    0    0 -0.91994074226E+01  0.39242981606E+01  0.14142138200E+02  0.17321353472E+02  0.51100000000E-03 0.  1.
<mgrwt>
<rscale>  0 0.20003353E+02</rscale>
<asrwt>0</asrwt>
<pdfrwt beam="2">  1        3 0.48591821E-03 0.20003353E+02</pdfrwt>
<pdfrwt beam="1">  1       -3 0.48725432E-02 0.20003353E+02</pdfrwt>
<totfact> 0.16987336E+06</totfact>
</mgrwt>
</event>
<event>
 5    1  0.4133473E-007  0.2000148E+02  0.7818608E-02  0.1745299E+00
          3   -1    0    0  501    0  0.00000000000E+00  0.00000000000E+00  0.38256105006E+02  0.38256218047E+02  0.93000000000E-01 0.  1.
         -3   -1    0    0    0  501 -0.00000000000E+00 -0.00000000000E+00 -0.26134042735E+01  0.26150584882E+01  0.93000000000E-01 0. -1.
       1023    2    1    2    0    0  0.00000000000E+00  0.00000000000E+00  0.35642700733E+02  0.40871276535E+02  0.20001478197E+02 0.  0.
        -11    1    3    3    0    0  0.97026291789E+01  0.24220808093E+01  0.17646834908E+02  0.20283448202E+02  0.51100000000E-03 0.  1.
         11    1    3    3    0    0 -0.97026291789E+01 -0.24220808093E+01  0.17995865824E+02  0.20587828333E+02  0.51100000000E-03 0. -1.
<mgrwt>
<rscale>  0 0.20001478E+02</rscale>
<asrwt>0</asrwt>
<pdfrwt beam="1">  1        3 0.58856902E-02 0.20001478E+02</pdfrwt>
<pdfrwt beam="2">  1       -3 0.40219816E-03 0.20001478E+02</pdfrwt>
<totfact> 0.16663415E+06</totfact>
</mgrwt>
</event>
<event>
 5    1  0.4133473E-007  0.2000137E+02  0.7818608E-02  0.1745301E+00
         -3   -1    0    0    0  501 -0.00000000000E+00  0.00000000000E+00  0.54768560262E+01  0.54776455647E+01  0.93000000000E-01 0. -1.
          3   -1    0    0  501    0  0.00000000000E+00 -0.00000000000E+00 -0.18258929627E+02  0.18259166469E+02  0.93000000000E-01 0.  1.
       1023    2    1    2    0    0  0.00000000000E+00  0.00000000000E+00 -0.12782073601E+02  0.23736812033E+02  0.20001370952E+02 0.  0.
        -11    1    3    3    0    0 -0.84641137708E+01  0.53265172387E+01 -0.63595952549E+01  0.11851475009E+02  0.51100000000E-03 0. -1.
         11    1    3    3    0    0  0.84641137708E+01 -0.53265172387E+01 -0.64224783462E+01  0.11885337025E+02  0.51100000000E-03 0.  1.
<mgrwt>
<rscale>  0 0.20001371E+02</rscale>
<asrwt>0</asrwt>
<pdfrwt beam="2">  1        3 0.28091450E-02 0.20001371E+02</pdfrwt>
<pdfrwt beam="1">  1       -3 0.84267220E-03 0.20001371E+02</pdfrwt>
<totfact> 0.17642690E+06</totfact>
</mgrwt>
</event>
<event>
 5    1  0.4133473E-007  0.2000074E+02  0.7818608E-02  0.1745313E+00
         -3   -1    0    0    0  501 -0.00000000000E+00  0.00000000000E+00  0.95879934871E+00  0.96329911818E+00  0.93000000000E-01 0.  1.
          3   -1    0    0  501    0  0.00000000000E+00 -0.00000000000E+00 -0.10405609178E+03  0.10405613334E+03  0.93000000000E-01 0. -1.
       1023    2    1    2    0    0  0.00000000000E+00  0.00000000000E+00 -0.10309729243E+03  0.10501943246E+03  0.20000737163E+02 0.  0.
        -11    1    3    3    0    0 -0.98711962639E+01 -0.16020595242E+01 -0.51463800993E+02  0.52426423904E+02  0.51100000000E-03 0. -1.
         11    1    3    3    0    0  0.98711962639E+01  0.16020595242E+01 -0.51633491442E+02  0.52593008557E+02  0.51100000000E-03 0.  1.
<mgrwt>
<rscale>  0 0.20000737E+02</rscale>
<asrwt>0</asrwt>
<pdfrwt beam="2">  1        3 0.16008970E-01 0.20000737E+02</pdfrwt>
<pdfrwt beam="1">  1       -3 0.14785701E-03 0.20000737E+02</pdfrwt>
<totfact> 0.14005521E+06</totfact>
</mgrwt>
</event>
<event>
 5    1  0.4184829E-007  0.2000058E+02  0.7818608E-02  0.1745316E+00
         -3   -1    0    0    0  501 -0.00000000000E+00  0.00000000000E+00  0.21616125028E+02  0.21616325087E+02  0.93000000000E-01 0.  1.
          3   -1    0    0  501    0  0.00000000000E+00 -0.00000000000E+00 -0.46257577122E+01  0.46266924917E+01  0.93000000000E-01 0. -1.
       1023    2    1    2    0    0  0.00000000000E+00  0.00000000000E+00  0.16990367316E+02  0.26243017578E+02  0.20000584743E+02 0.  0.
        -11    1    3    3    0    0  0.46658803742E+01  0.88449508810E+01  0.84329239192E+01  0.13081200321E+02  0.51100000000E-03 0. -1.
         11    1    3    3    0    0 -0.46658803742E+01 -0.88449508810E+01  0.85574433970E+01  0.13161817257E+02  0.51100000000E-03 0.  1.
<mgrwt>
<rscale>  0 0.20000585E+02</rscale>
<asrwt>0</asrwt>
<pdfrwt beam="2">  1        3 0.71174231E-03 0.20000585E+02</pdfrwt>
<pdfrwt beam="1">  1       -3 0.33256451E-02 0.20000585E+02</pdfrwt>
<totfact> 0.17490581E+06</totfact>
</mgrwt>
</event>
<event>
 5    1  0.4133473E-007  0.2000038E+02  0.7818608E-02  0.1745321E+00
         -3   -1    0    0    0  501 -0.00000000000E+00  0.00000000000E+00  0.80182388979E+01  0.80187782126E+01  0.93000000000E-01 0.  1.
          3   -1    0    0  501    0  0.00000000000E+00 -0.00000000000E+00 -0.12470909167E+02  0.12471255929E+02  0.93000000000E-01 0. -1.
       1023    2    1    2    0    0  0.00000000000E+00  0.00000000000E+00 -0.44526702690E+01  0.20490034142E+02  0.20000380662E+02 0.  0.
        -11    1    3    3    0    0 -0.82742964275E+01  0.56159316816E+01 -0.21917997830E+01  0.10237512226E+02  0.51100000000E-03 0. -1.
         11    1    3    3    0    0  0.82742964275E+01 -0.56159316816E+01 -0.22608704860E+01  0.10252521916E+02  0.51100000000E-03 0.  1.
<mgrwt>
<rscale>  0 0.20000381E+02</rscale>
<asrwt>0</asrwt>
<pdfrwt beam="2">  1        3 0.19186696E-02 0.20000381E+02</pdfrwt>
<pdfrwt beam="1">  1       -3 0.12336434E-02 0.20000381E+02</pdfrwt>
<totfact> 0.17852644E+06</totfact>
</mgrwt>
</event>
<event>
 5    1  0.4133473E-007  0.2000664E+02  0.7818608E-02  0.1745196E+00
          3   -1    0    0  501    0  0.00000000000E+00  0.00000000000E+00  0.37345166504E+02  0.37345282302E+02  0.93000000000E-01 0. -1.
         -3   -1    0    0    0  501 -0.00000000000E+00 -0.00000000000E+00 -0.26785745224E+01  0.26801885143E+01  0.93000000000E-01 0.  1.
       1023    2    1    2    0    0  0.00000000000E+00  0.00000000000E+00  0.34666591981E+02  0.40025470816E+02  0.20006641758E+02 0.  0.
        -11    1    3    3    0    0  0.96445782379E+01 -0.26494877777E+01  0.17672536290E+02  0.20306555938E+02  0.51100000000E-03 0.  1.
         11    1    3    3    0    0 -0.96445782379E+01  0.26494877777E+01  0.16994055691E+02  0.19718914878E+02  0.51100000000E-03 0. -1.
<mgrwt>
<rscale>  0 0.20006642E+02</rscale>
<asrwt>0</asrwt>
<pdfrwt beam="1">  1        3 0.57455430E-02 0.20006642E+02</pdfrwt>
<pdfrwt beam="2">  1       -3 0.41222147E-03 0.20006642E+02</pdfrwt>
<totfact> 0.16698555E+06</totfact>
</mgrwt>
</event>
<event>
 5    1  0.4133473E-007  0.2000048E+02  0.7818608E-02  0.1745319E+00
         -3   -1    0    0    0  501 -0.00000000000E+00  0.00000000000E+00  0.27673904156E+01  0.27689526382E+01  0.93000000000E-01 0. -1.
          3   -1    0    0  501    0  0.00000000000E+00 -0.00000000000E+00 -0.36125039515E+02  0.36125159224E+02  0.93000000000E-01 0.  1.
       1023    2    1    2    0    0  0.00000000000E+00  0.00000000000E+00 -0.33357649100E+02  0.38894111863E+02  0.20000479597E+02 0.  0.
        -11    1    3    3    0    0 -0.60596501783E+01  0.79551516961E+01 -0.16740227023E+02  0.19499717942E+02  0.51100000000E-03 0. -1.
         11    1    3    3    0    0  0.60596501783E+01 -0.79551516961E+01 -0.16617422077E+02  0.19394393920E+02  0.51100000000E-03 0.  1.
<mgrwt>
<rscale>  0 0.20000480E+02</rscale>
<asrwt>0</asrwt>
<pdfrwt beam="2">  1        3 0.55578274E-02 0.20000480E+02</pdfrwt>
<pdfrwt beam="1">  1       -3 0.42588178E-03 0.20000480E+02</pdfrwt>
<totfact> 0.16769597E+06</totfact>
</mgrwt>
</event>
<event>
 5    1  0.4170513E-007  0.2000091E+02  0.7818608E-02  0.1745310E+00
          3   -1    0    0  501    0  0.00000000000E+00  0.00000000000E+00  0.20310422497E+02  0.20310635416E+02  0.93000000000E-01 0.  1.
         -3   -1    0    0    0  501 -0.00000000000E+00 -0.00000000000E+00 -0.49233485881E+01  0.49242268754E+01  0.93000000000E-01 0. -1.
       1023    2    1    2    0    0  0.00000000000E+00  0.00000000000E+00  0.15387073908E+02  0.25234862291E+02  0.20000905764E+02 0.  0.
        -11    1    3    3    0    0  0.90311561541E+01  0.42945782967E+01  0.77720596490E+01  0.12665310722E+02  0.51100000000E-03 0. -1.
         11    1    3    3    0    0 -0.90311561541E+01 -0.42945782967E+01  0.76150142595E+01  0.12569551570E+02  0.51100000000E-03 0.  1.
<mgrwt>
<rscale>  0 0.20000906E+02</rscale>
<asrwt>0</asrwt>
<pdfrwt beam="1">  1        3 0.31247643E-02 0.20000906E+02</pdfrwt>
<pdfrwt beam="2">  1       -3 0.75752218E-03 0.20000906E+02</pdfrwt>
<totfact> 0.17550393E+06</totfact>
</mgrwt>
</event>
<event>
 5    1  0.4133473E-007  0.2000106E+02  0.7818608E-02  0.1745307E+00
          3   -1    0    0  501    0  0.00000000000E+00  0.00000000000E+00  0.19278456416E+01  0.19300875156E+01  0.93000000000E-01 0.  1.
         -3   -1    0    0    0  501 -0.00000000000E+00 -0.00000000000E+00 -0.51844422012E+02  0.51844505425E+02  0.93000000000E-01 0. -1.
       1023    2    1    2    0    0  0.00000000000E+00  0.00000000000E+00 -0.49916576371E+02  0.53774592941E+02  0.20001056207E+02 0.  0.
        -11    1    3    3    0    0 -0.95152876738E+01 -0.30772068388E+01 -0.25027392742E+02  0.26951443174E+02  0.51100000000E-03 0. -1.
         11    1    3    3    0    0  0.95152876738E+01  0.30772068388E+01 -0.24889183628E+02  0.26823149766E+02  0.51100000000E-03 0.  1.
<mgrwt>
<rscale>  0 0.20001056E+02</rscale>
<asrwt>0</asrwt>
<pdfrwt beam="1">  1        3 0.29677055E-03 0.20001056E+02</pdfrwt>
<pdfrwt beam="2">  1       -3 0.79762427E-02 0.20001056E+02</pdfrwt>
<totfact> 0.16028658E+06</totfact>
</mgrwt>
</event>
<event>
 5    1  0.4133473E-007  0.2000031E+02  0.7818608E-02  0.1745322E+00
          3   -1    0    0  501    0  0.00000000000E+00  0.00000000000E+00  0.21585681615E+01  0.21605706441E+01  0.93000000000E-01 0. -1.
         -3   -1    0    0    0  501 -0.00000000000E+00 -0.00000000000E+00 -0.46304932615E+02  0.46305026006E+02  0.93000000000E-01 0.  1.
       1023    2    1    2    0    0  0.00000000000E+00  0.00000000000E+00 -0.44146364453E+02  0.48465596650E+02  0.20000314104E+02 0.  0.
        -11    1    3    3    0    0 -0.76948692947E+01  0.63868438297E+01 -0.22118725934E+02  0.24274283198E+02  0.51100000000E-03 0. -1.
         11    1    3    3    0    0  0.76948692947E+01 -0.63868438297E+01 -0.22027638519E+02  0.24191313452E+02  0.51100000000E-03 0.  1.
<mgrwt>
<rscale>  0 0.20000314E+02</rscale>
<asrwt>0</asrwt>
<pdfrwt beam="1">  1        3 0.33224866E-03 0.20000314E+02</pdfrwt>
<pdfrwt beam="2">  1       -3 0.71239963E-02 0.20000314E+02</pdfrwt>
<totfact> 0.16283736E+06</totfact>
</mgrwt>
</event>
<event>
 4    1  0.1032124E-006  0.2026635E+02  0.7818608E-02  0.1740083E+00
         -3   -1    0    0    0  501 -0.00000000000E+00  0.00000000000E+00  0.32580575439E+02  0.32580708171E+02  0.93000000000E-01 0.  1.
          3   -1    0    0  501    0  0.00000000000E+00 -0.00000000000E+00 -0.31507838892E+01  0.31521561060E+01  0.93000000000E-01 0. -1.
        -11    1    1    2    0    0 -0.20331629815E+01 -0.98521484810E+01  0.16861800540E+02  0.19634635191E+02  0.51100000000E-03 0.  1.
         11    1    1    2    0    0  0.20331629815E+01  0.98521484810E+01  0.12567991010E+02  0.16098229085E+02  0.51100000000E-03 0. -1.
<mgrwt>
<rscale>  0 0.20266350E+02</rscale>
<asrwt>0</asrwt>
<pdfrwt beam="2">  1        3 0.48485177E-03 0.20266350E+02</pdfrwt>
<pdfrwt beam="1">  1       -3 0.50125118E-02 0.20266350E+02</pdfrwt>
<totfact> 0.16467629E+06</totfact>
</mgrwt>
</event>
<event>
 5    1  0.4133473E-007  0.2000097E+02  0.7818608E-02  0.1745309E+00
         -3   -1    0    0    0  501 -0.00000000000E+00  0.00000000000E+00  0.97656878138E+02  0.97656922421E+02  0.93000000000E-01 0.  1.
          3   -1    0    0  501    0  0.00000000000E+00 -0.00000000000E+00 -0.10219363761E+01  0.10261593233E+01  0.93000000000E-01 0. -1.
       1023    2    1    2    0    0  0.00000000000E+00  0.00000000000E+00  0.96634941762E+02  0.98683081744E+02  0.20000966306E+02 0.  0.
        -11    1    3    3    0    0  0.84160145402E-01  0.10000128951E+02  0.48312359911E+02  0.49336535979E+02  0.51100000000E-03 0. -1.
         11    1    3    3    0    0 -0.84160145402E-01 -0.10000128951E+02  0.48322581851E+02  0.49346545766E+02  0.51100000000E-03 0.  1.
<mgrwt>
<rscale>  0 0.20000966E+02</rscale>
<asrwt>0</asrwt>
<pdfrwt beam="2">  1        3 0.15754931E-03 0.20000966E+02</pdfrwt>
<pdfrwt beam="1">  1       -3 0.15024456E-01 0.20000966E+02</pdfrwt>
<totfact> 0.14225155E+06</totfact>
</mgrwt>
</event>
<event>
 5    1  0.4133473E-007  0.2000029E+02  0.7818608E-02  0.1745322E+00
          3   -1    0    0  501    0  0.00000000000E+00  0.00000000000E+00  0.86544363455E+02  0.86544413424E+02  0.93000000000E-01 0.  1.
         -3   -1    0    0    0  501 -0.00000000000E+00 -0.00000000000E+00 -0.11535889273E+01  0.11573315918E+01  0.93000000000E-01 0. -1.
       1023    2    1    2    0    0  0.00000000000E+00  0.00000000000E+00  0.85390774528E+02  0.87701745016E+02  0.20000292605E+02 0.  0.
        -11    1    3    3    0    0 -0.99769584596E+01  0.68004783696E+00  0.42816325566E+02  0.43968624045E+02  0.51100000000E-03 0.  1.
         11    1    3    3    0    0  0.99769584596E+01 -0.68004783696E+00  0.42574448962E+02  0.43733120971E+02  0.51100000000E-03 0. -1.
<mgrwt>
<rscale>  0 0.20000293E+02</rscale>
<asrwt>0</asrwt>
<pdfrwt beam="1">  1        3 0.13314815E-01 0.20000293E+02</pdfrwt>
<pdfrwt beam="2">  1       -3 0.17776689E-03 0.20000293E+02</pdfrwt>
<totfact> 0.14618456E+06</totfact>
</mgrwt>
</event>
<event>
 5    1  0.4133473E-007  0.2000085E+02  0.7818608E-02  0.1745311E+00
          3   -1    0    0  501    0  0.00000000000E+00  0.00000000000E+00  0.16040261203E+01  0.16067198868E+01  0.93000000000E-01 0.  1.
         -3   -1    0    0    0  501 -0.00000000000E+00 -0.00000000000E+00 -0.62293415880E+02  0.62293485301E+02  0.93000000000E-01 0. -1.
       1023    2    1    2    0    0  0.00000000000E+00  0.00000000000E+00 -0.60689389760E+02  0.63900205188E+02  0.20000854824E+02 0.  0.
        -11    1    3    3    0    0 -0.96242732436E+01  0.27169354207E+01 -0.30386912217E+02  0.31990198622E+02  0.51100000000E-03 0. -1.
         11    1    3    3    0    0  0.96242732436E+01 -0.27169354207E+01 -0.30302477543E+02  0.31910006566E+02  0.51100000000E-03 0.  1.
<mgrwt>
<rscale>  0 0.20000855E+02</rscale>
<asrwt>0</asrwt>
<pdfrwt beam="1">  1        3 0.24698585E-03 0.20000855E+02</pdfrwt>
<pdfrwt beam="2">  1       -3 0.95838131E-02 0.20000855E+02</pdfrwt>
<totfact> 0.15573369E+06</totfact>
</mgrwt>
</event>
<event>
 5    1  0.4133473E-007  0.2000241E+02  0.7818608E-02  0.1745280E+00
         -3   -1    0    0    0  501 -0.00000000000E+00  0.00000000000E+00  0.19424429137E+02  0.19424651768E+02  0.93000000000E-01 0. -1.
          3   -1    0    0  501    0  0.00000000000E+00 -0.00000000000E+00 -0.51487246344E+01  0.51495644826E+01  0.93000000000E-01 0.  1.
       1023    2    1    2    0    0  0.00000000000E+00  0.00000000000E+00  0.14275704503E+02  0.24574216251E+02  0.20002408987E+02 0.  0.
        -11    1    3    3    0    0 -0.87696794574E+01 -0.48073965586E+01  0.72310256135E+01  0.12341234587E+02  0.51100000000E-03 0. -1.
         11    1    3    3    0    0  0.87696794574E+01  0.48073965586E+01  0.70446788895E+01  0.12232981663E+02  0.51100000000E-03 0.  1.
<mgrwt>
<rscale>  0 0.20002409E+02</rscale>
<asrwt>0</asrwt>
<pdfrwt beam="2">  1        3 0.79219322E-03 0.20002409E+02</pdfrwt>
<pdfrwt beam="1">  1       -3 0.29884554E-02 0.20002409E+02</pdfrwt>
<totfact> 0.17589634E+06</totfact>
</mgrwt>
</event>
<event>
 4    1  0.4133473E-007  0.2001898E+02  0.7818608E-02  0.1744951E+00
          3   -1    0    0  501    0  0.00000000000E+00  0.00000000000E+00  0.46576949581E+01  0.46586233292E+01  0.93000000000E-01 0. -1.
         -3   -1    0    0    0  501 -0.00000000000E+00 -0.00000000000E+00 -0.21507445380E+02  0.21507646449E+02  0.93000000000E-01 0.  1.
        -11    1    1    2    0    0 -0.98847763005E+01 -0.15172568712E+01 -0.78718349827E+01  0.12727005036E+02  0.51100000000E-03 0. -1.
         11    1    1    2    0    0  0.98847763005E+01  0.15172568712E+01 -0.89779154393E+01  0.13439264743E+02  0.51100000000E-03 0.  1.
<mgrwt>
<rscale>  0 0.20018981E+02</rscale>
<asrwt>0</asrwt>
<pdfrwt beam="1">  1        3 0.71665535E-03 0.20018981E+02</pdfrwt>
<pdfrwt beam="2">  1       -3 0.33089246E-02 0.20018981E+02</pdfrwt>
<totfact> 0.17460653E+06</totfact>
</mgrwt>
</event>
<event>
 5    1  0.4133473E-007  0.2000140E+02  0.7818608E-02  0.1745300E+00
         -3   -1    0    0    0  501 -0.00000000000E+00  0.00000000000E+00  0.11737516712E+01  0.11774302466E+01  0.93000000000E-01 0. -1.
          3   -1    0    0  501    0  0.00000000000E+00 -0.00000000000E+00 -0.85071771572E+02  0.85071822405E+02  0.93000000000E-01 0.  1.
       1023    2    1    2    0    0  0.00000000000E+00  0.00000000000E+00 -0.83898019901E+02  0.86249252652E+02  0.20001395946E+02 0.  0.
        -11    1    3    3    0    0  0.25626379709E+01  0.96662600939E+01 -0.42385840897E+02  0.43549548866E+02  0.51100000000E-03 0. -1.
         11    1    3    3    0    0 -0.25626379709E+01 -0.96662600939E+01 -0.41512179004E+02  0.42699703787E+02  0.51100000000E-03 0.  1.
<mgrwt>
<rscale>  0 0.20001396E+02</rscale>
<asrwt>0</asrwt>
<pdfrwt beam="2">  1        3 0.13088247E-01 0.20001396E+02</pdfrwt>
<pdfrwt beam="1">  1       -3 0.18086413E-03 0.20001396E+02</pdfrwt>
<totfact> 0.14670907E+06</totfact>
</mgrwt>
</event>
<event>
 5    1  0.4133473E-007  0.2000079E+02  0.7818608E-02  0.1745312E+00
         -3   -1    0    0    0  501 -0.00000000000E+00  0.00000000000E+00  0.64922037211E+02  0.64922103822E+02  0.93000000000E-01 0. -1.
          3   -1    0    0  501    0  0.00000000000E+00 -0.00000000000E+00 -0.15389600175E+01  0.15417674713E+01  0.93000000000E-01 0.  1.
       1023    2    1    2    0    0  0.00000000000E+00  0.00000000000E+00  0.63383077193E+02  0.66463871293E+02  0.20000792803E+02 0.  0.
        -11    1    3    3    0    0 -0.61369155299E+01  0.78956637786E+01  0.31919094257E+02  0.33448943439E+02  0.51100000000E-03 0. -1.
         11    1    3    3    0    0  0.61369155299E+01 -0.78956637786E+01  0.31463982936E+02  0.33014927854E+02  0.51100000000E-03 0.  1.
<mgrwt>
<rscale>  0 0.20000793E+02</rscale>
<asrwt>0</asrwt>
<pdfrwt beam="2">  1        3 0.23698419E-03 0.20000793E+02</pdfrwt>
<pdfrwt beam="1">  1       -3 0.99882258E-02 0.20000793E+02</pdfrwt>
<totfact> 0.15463321E+06</totfact>
</mgrwt>
</event>
<event>
 5    1  0.4133473E-007  0.2001178E+02  0.7818608E-02  0.1745094E+00
          3   -1    0    0  501    0  0.00000000000E+00  0.00000000000E+00  0.23592917263E+02  0.23593100559E+02  0.93000000000E-01 0.  1.
         -3   -1    0    0    0  501 -0.00000000000E+00 -0.00000000000E+00 -0.42428447162E+01  0.42438638392E+01  0.93000000000E-01 0. -1.
       1023    2    1    2    0    0  0.00000000000E+00  0.00000000000E+00  0.19350072547E+02  0.27836964398E+02  0.20011778515E+02 0.  0.
        -11    1    3    3    0    0  0.97463286955E+01 -0.22581453195E+01  0.94436221878E+01  0.13757621292E+02  0.51100000000E-03 0.  1.
         11    1    3    3    0    0 -0.97463286955E+01  0.22581453195E+01  0.99064503592E+01  0.14079343106E+02  0.51100000000E-03 0. -1.
<mgrwt>
<rscale>  0 0.20011779E+02</rscale>
<asrwt>0</asrwt>
<pdfrwt beam="1">  1        3 0.36297721E-02 0.20011779E+02</pdfrwt>
<pdfrwt beam="2">  1       -3 0.65283783E-03 0.20011779E+02</pdfrwt>
<totfact> 0.17372166E+06</totfact>
</mgrwt>
</event>
<event>
 4    1  0.4133473E-007  0.2003722E+02  0.7818608E-02  0.1744589E+00
          3   -1    0    0  501    0  0.00000000000E+00  0.00000000000E+00  0.16171671224E+02  0.16171938634E+02  0.93000000000E-01 0.  1.
         -3   -1    0    0    0  501 -0.00000000000E+00 -0.00000000000E+00 -0.62060205251E+01  0.62067173094E+01  0.93000000000E-01 0. -1.
        -11    1    1    2    0    0 -0.99901673503E+01 -0.70286988900E+00  0.52887741145E+01  0.11325572907E+02  0.51100000000E-03 0.  1.
         11    1    1    2    0    0  0.99901673503E+01  0.70286988900E+00  0.46768765843E+01  0.11053083037E+02  0.51100000000E-03 0. -1.
<mgrwt>
<rscale>  0 0.20037217E+02</rscale>
<asrwt>0</asrwt>
<pdfrwt beam="1">  1        3 0.24880235E-02 0.20037217E+02</pdfrwt>
<pdfrwt beam="2">  1       -3 0.95484658E-03 0.20037217E+02</pdfrwt>
<totfact> 0.17660369E+06</totfact>
</mgrwt>
</event>
<event>
 5    1  0.4261846E-007  0.2000123E+02  0.7818608E-02  0.1745304E+00
         -3   -1    0    0    0  501 -0.00000000000E+00  0.00000000000E+00  0.10088123559E+02  0.10088552222E+02  0.93000000000E-01 0.  1.
          3   -1    0    0  501    0  0.00000000000E+00 -0.00000000000E+00 -0.99130033063E+01  0.99134395419E+01  0.93000000000E-01 0. -1.
       1023    2    1    2    0    0  0.00000000000E+00  0.00000000000E+00  0.17512025291E+00  0.20001991764E+02  0.20001225148E+02 0.  0.
        -11    1    3    3    0    0 -0.98584763590E+01 -0.16800691068E+01  0.79605357022E-01  0.10000926237E+02  0.51100000000E-03 0.  1.
         11    1    3    3    0    0  0.98584763590E+01  0.16800691068E+01  0.95514895885E-01  0.10001065527E+02  0.51100000000E-03 0. -1.
<mgrwt>
<rscale>  0 0.20001225E+02</rscale>
<asrwt>0</asrwt>
<pdfrwt beam="2">  1        3 0.15251440E-02 0.20001225E+02</pdfrwt>
<pdfrwt beam="1">  1       -3 0.15520855E-02 0.20001225E+02</pdfrwt>
<totfact> 0.17883145E+06</totfact>
</mgrwt>
</event>
<event>
 5    1  0.4133473E-007  0.2000241E+02  0.7818608E-02  0.1745280E+00
          3   -1    0    0  501    0  0.00000000000E+00  0.00000000000E+00  0.49936832259E+02  0.49936918858E+02  0.93000000000E-01 0.  1.
         -3   -1    0    0    0  501 -0.00000000000E+00 -0.00000000000E+00 -0.20018450899E+01  0.20040041826E+01  0.93000000000E-01 0. -1.
       1023    2    1    2    0    0  0.00000000000E+00  0.00000000000E+00  0.47934987169E+02  0.51940923041E+02  0.20002412141E+02 0.  0.
        -11    1    3    3    0    0 -0.82537536758E+01 -0.56474530787E+01  0.24167738257E+02  0.26155262352E+02  0.51100000000E-03 0.  1.
         11    1    3    3    0    0  0.82537536758E+01  0.56474530787E+01  0.23767248913E+02  0.25785660689E+02  0.51100000000E-03 0. -1.
<mgrwt>
<rscale>  0 0.20002412E+02</rscale>
<asrwt>0</asrwt>
<pdfrwt beam="1">  1        3 0.76827620E-02 0.20002412E+02</pdfrwt>
<pdfrwt beam="2">  1       -3 0.30814893E-03 0.20002412E+02</pdfrwt>
<totfact> 0.16110079E+06</totfact>
</mgrwt>
</event>
<event>
 5    1  0.4133473E-007  0.2000049E+02  0.7818608E-02  0.1745318E+00
         -3   -1    0    0    0  501 -0.00000000000E+00  0.00000000000E+00  0.11066816501E+03  0.11066820409E+03  0.93000000000E-01 0.  1.
          3   -1    0    0  501    0  0.00000000000E+00 -0.00000000000E+00 -0.90121397759E+00  0.90599979769E+00  0.93000000000E-01 0. -1.
       1023    2    1    2    0    0  0.00000000000E+00  0.00000000000E+00  0.10976695104E+03  0.11157420389E+03  0.20000485829E+02 0.  0.
        -11    1    3    3    0    0  0.88559454645E+01  0.46446893733E+01  0.55234023296E+02  0.56131971631E+02  0.51100000000E-03 0.  1.
         11    1    3    3    0    0 -0.88559454645E+01 -0.46446893733E+01  0.54532927740E+02  0.55442232256E+02  0.51100000000E-03 0. -1.
<mgrwt>
<rscale>  0 0.20000486E+02</rscale>
<asrwt>0</asrwt>
<pdfrwt beam="2">  1        3 0.13901952E-03 0.20000486E+02</pdfrwt>
<pdfrwt beam="1">  1       -3 0.17026234E-01 0.20000486E+02</pdfrwt>
<totfact> 0.13791538E+06</totfact>
</mgrwt>
</event>
<event>
 5    1  0.4224070E-007  0.2000150E+02  0.7818608E-02  0.1745298E+00
         -3   -1    0    0    0  501 -0.00000000000E+00  0.00000000000E+00  0.10625836343E+02  0.10626243315E+02  0.93000000000E-01 0.  1.
          3   -1    0    0  501    0  0.00000000000E+00 -0.00000000000E+00 -0.94116170646E+01  0.94120765388E+01  0.93000000000E-01 0. -1.
       1023    2    1    2    0    0  0.00000000000E+00  0.00000000000E+00  0.12142192787E+01  0.20038319854E+02  0.20001498297E+02 0.  0.
        -11    1    3    3    0    0 -0.76800404851E+01  0.64054125090E+01  0.55551722767E+00  0.10016033692E+02  0.51100000000E-03 0. -1.
         11    1    3    3    0    0  0.76800404851E+01 -0.64054125090E+01  0.65870205104E+00  0.10022286162E+02  0.51100000000E-03 0.  1.
<mgrwt>
<rscale>  0 0.20001498E+02</rscale>
<asrwt>0</asrwt>
<pdfrwt beam="2">  1        3 0.14480077E-02 0.20001498E+02</pdfrwt>
<pdfrwt beam="1">  1       -3 0.16348107E-02 0.20001498E+02</pdfrwt>
<totfact> 0.17880303E+06</totfact>
</mgrwt>
</event>
<event>
 5    1  0.4133473E-007  0.2000045E+02  0.7818608E-02  0.1745319E+00
         -3   -1    0    0    0  501 -0.00000000000E+00  0.00000000000E+00  0.13390072243E+01  0.13422329704E+01  0.93000000000E-01 0.  1.
          3   -1    0    0  501    0  0.00000000000E+00 -0.00000000000E+00 -0.74592413699E+02  0.74592471674E+02  0.93000000000E-01 0. -1.
       1023    2    1    2    0    0  0.00000000000E+00  0.00000000000E+00 -0.73253406475E+02  0.75934704645E+02  0.20000445227E+02 0.  0.
        -11    1    3    3    0    0  0.87319664228E+01  0.48741199237E+01 -0.36676121271E+02  0.38015025376E+02  0.51100000000E-03 0.  1.
         11    1    3    3    0    0 -0.87319664228E+01 -0.48741199237E+01 -0.36577285204E+02  0.37919679268E+02  0.51100000000E-03 0. -1.
<mgrwt>
<rscale>  0 0.20000445E+02</rscale>
<asrwt>0</asrwt>
<pdfrwt beam="2">  1        3 0.11476005E-01 0.20000445E+02</pdfrwt>
<pdfrwt beam="1">  1       -3 0.20625376E-03 0.20000445E+02</pdfrwt>
<totfact> 0.15070773E+06</totfact>
</mgrwt>
</event>
<event>
 5    1  0.4133473E-007  0.2000039E+02  0.7818608E-02  0.1745320E+00
          3   -1    0    0  501    0  0.00000000000E+00  0.00000000000E+00  0.26708294733E+01  0.26724481428E+01  0.93000000000E-01 0.  1.
         -3   -1    0    0    0  501 -0.00000000000E+00 -0.00000000000E+00 -0.37429988920E+02  0.37430104456E+02  0.93000000000E-01 0. -1.
       1023    2    1    2    0    0  0.00000000000E+00  0.00000000000E+00 -0.34759159447E+02  0.40102552598E+02  0.20000388983E+02 0.  0.
        -11    1    3    3    0    0 -0.95668276637E+01 -0.29119920489E+01 -0.17378368249E+02  0.20050226245E+02  0.51100000000E-03 0. -1.
         11    1    3    3    0    0  0.95668276637E+01  0.29119920489E+01 -0.17380791198E+02  0.20052326353E+02  0.51100000000E-03 0.  1.
<mgrwt>
<rscale>  0 0.20000389E+02</rscale>
<asrwt>0</asrwt>
<pdfrwt beam="1">  1        3 0.41103027E-03 0.20000389E+02</pdfrwt>
<pdfrwt beam="2">  1       -3 0.57585928E-02 0.20000389E+02</pdfrwt>
<totfact> 0.16707956E+06</totfact>
</mgrwt>
</event>
<event>
 4    1  0.4133473E-007  0.2005336E+02  0.7818608E-02  0.1744269E+00
         -3   -1    0    0    0  501 -0.00000000000E+00  0.00000000000E+00  0.12745305290E+01  0.12779190387E+01  0.93000000000E-01 0. -1.
          3   -1    0    0  501    0  0.00000000000E+00 -0.00000000000E+00 -0.78771369646E+02  0.78771424546E+02  0.93000000000E-01 0.  1.
        -11    1    1    2    0    0  0.10579254085E+01  0.99613564528E+01 -0.40472334286E+02  0.41693616674E+02  0.51100000000E-03 0. -1.
         11    1    1    2    0    0 -0.10579254085E+01 -0.99613564528E+01 -0.37024504831E+02  0.38355726910E+02  0.51100000000E-03 0.  1.
<mgrwt>
<rscale>  0 0.20053362E+02</rscale>
<asrwt>0</asrwt>
<pdfrwt beam="2">  1        3 0.12118933E-01 0.20053362E+02</pdfrwt>
<pdfrwt beam="1">  1       -3 0.19634656E-03 0.20053362E+02</pdfrwt>
<totfact> 0.14824413E+06</totfact>
</mgrwt>
</event>
<event>
 5    1  0.4133473E-007  0.2000040E+02  0.7818608E-02  0.1745320E+00
         -3   -1    0    0    0  501 -0.00000000000E+00  0.00000000000E+00  0.31464180097E+02  0.31464317539E+02  0.93000000000E-01 0. -1.
          3   -1    0    0  501    0  0.00000000000E+00 -0.00000000000E+00 -0.31775198424E+01  0.31788805182E+01  0.93000000000E-01 0.  1.
       1023    2    1    2    0    0  0.00000000000E+00  0.00000000000E+00  0.28286660255E+02  0.34643198057E+02  0.20000400577E+02 0.  0.
        -11    1    3    3    0    0 -0.83267376083E+01  0.55379667135E+01  0.14109965553E+02  0.17294356383E+02  0.51100000000E-03 0.  1.
         11    1    3    3    0    0  0.83267376083E+01 -0.55379667135E+01  0.14176694701E+02  0.17348841674E+02  0.51100000000E-03 0. -1.
<mgrwt>
<rscale>  0 0.20000401E+02</rscale>
<asrwt>0</asrwt>
<pdfrwt beam="2">  1        3 0.48896446E-03 0.20000401E+02</pdfrwt>
<pdfrwt beam="1">  1       -3 0.48407582E-02 0.20000401E+02</pdfrwt>
<totfact> 0.17003092E+06</totfact>
</mgrwt>
</event>
<event>
 5    1  0.4133473E-007  0.2000491E+02  0.7818608E-02  0.1745230E+00
          3   -1    0    0  501    0  0.00000000000E+00  0.00000000000E+00  0.34984262688E+02  0.34984386301E+02  0.93000000000E-01 0.  1.
         -3   -1    0    0    0  501 -0.00000000000E+00 -0.00000000000E+00 -0.28589474661E+01  0.28604596858E+01  0.93000000000E-01 0. -1.
       1023    2    1    2    0    0  0.00000000000E+00  0.00000000000E+00  0.32125315222E+02  0.37844845987E+02  0.20004911638E+02 0.  0.
        -11    1    3    3    0    0  0.87966326168E+01  0.47604921466E+01  0.15915010781E+02  0.18797090182E+02  0.51100000000E-03 0. -1.
         11    1    3    3    0    0 -0.87966326168E+01 -0.47604921466E+01  0.16210304441E+02  0.19047755805E+02  0.51100000000E-03 0.  1.
<mgrwt>
<rscale>  0 0.20004912E+02</rscale>
<asrwt>0</asrwt>
<pdfrwt beam="1">  1        3 0.53823201E-02 0.20004912E+02</pdfrwt>
<pdfrwt beam="2">  1       -3 0.43996390E-03 0.20004912E+02</pdfrwt>
<totfact> 0.16817817E+06</totfact>
</mgrwt>
</event>
<event>
 5    1  0.4165656E-007  0.2000133E+02  0.7818608E-02  0.1745302E+00
         -3   -1    0    0    0  501 -0.00000000000E+00  0.00000000000E+00  0.44550936931E+02  0.44551034000E+02  0.93000000000E-01 0.  1.
          3   -1    0    0  501    0  0.00000000000E+00 -0.00000000000E+00 -0.22438578004E+01  0.22457842346E+01  0.93000000000E-01 0. -1.
       1023    2    1    2    0    0  0.00000000000E+00  0.00000000000E+00  0.42307079131E+02  0.46796818234E+02  0.20001331263E+02 0.  0.
        -11    1    3    3    0    0  0.44078499850E+01 -0.89768686728E+01  0.21152625663E+02  0.23397582896E+02  0.51100000000E-03 0.  1.
         11    1    3    3    0    0 -0.44078499850E+01  0.89768686728E+01  0.21154453468E+02  0.23399235339E+02  0.51100000000E-03 0. -1.
<mgrwt>
<rscale>  0 0.20001331E+02</rscale>
<asrwt>0</asrwt>
<pdfrwt beam="2">  1        3 0.34536456E-03 0.20001331E+02</pdfrwt>
<pdfrwt beam="1">  1       -3 0.68541457E-02 0.20001331E+02</pdfrwt>
<totfact> 0.16364137E+06</totfact>
</mgrwt>
</event>
<event>
 4    1  0.4133473E-007  0.2003529E+02  0.7818608E-02  0.1744627E+00
         -3   -1    0    0    0  501 -0.00000000000E+00  0.00000000000E+00  0.10647053426E+01  0.10687593118E+01  0.93000000000E-01 0. -1.
          3   -1    0    0  501    0  0.00000000000E+00 -0.00000000000E+00 -0.94071254653E+02  0.94071300624E+02  0.93000000000E-01 0.  1.
        -11    1    1    2    0    0  0.45104169560E+01 -0.89395152540E+01 -0.47962293716E+02  0.48996330606E+02  0.51100000000E-03 0. -1.
         11    1    1    2    0    0 -0.45104169560E+01  0.89395152540E+01 -0.45044255595E+02  0.46143729330E+02  0.51100000000E-03 0.  1.
<mgrwt>
<rscale>  0 0.20035289E+02</rscale>
<asrwt>0</asrwt>
<pdfrwt beam="2">  1        3 0.14472810E-01 0.20035289E+02</pdfrwt>
<pdfrwt beam="1">  1       -3 0.16411628E-03 0.20035289E+02</pdfrwt>
<totfact> 0.14294354E+06</totfact>
</mgrwt>
</event>
<event>
 5    1  0.4133473E-007  0.2000008E+02  0.7818608E-02  0.1745326E+00
          3   -1    0    0  501    0  0.00000000000E+00  0.00000000000E+00  0.12865165225E+01  0.12898735452E+01  0.93000000000E-01 0. -1.
         -3   -1    0    0    0  501 -0.00000000000E+00 -0.00000000000E+00 -0.77625257507E+02  0.77625313217E+02  0.93000000000E-01 0.  1.
       1023    2    1    2    0    0  0.00000000000E+00  0.00000000000E+00 -0.76338740985E+02  0.78915186762E+02  0.20000083165E+02 0.  0.
        -11    1    3    3    0    0  0.99177127327E+01  0.12802793677E+01 -0.38065703283E+02  0.39357310729E+02  0.51100000000E-03 0. -1.
         11    1    3    3    0    0 -0.99177127327E+01 -0.12802793677E+01 -0.38273037702E+02  0.39557876033E+02  0.51100000000E-03 0.  1.
<mgrwt>
<rscale>  0 0.20000083E+02</rscale>
<asrwt>0</asrwt>
<pdfrwt beam="1">  1        3 0.19818820E-03 0.20000083E+02</pdfrwt>
<pdfrwt beam="2">  1       -3 0.11942606E-01 0.20000083E+02</pdfrwt>
<totfact> 0.14956502E+06</totfact>
</mgrwt>
</event>
<event>
 5    1  0.4133473E-007  0.2000011E+02  0.7818608E-02  0.1745326E+00
         -3   -1    0    0    0  501 -0.00000000000E+00  0.00000000000E+00  0.27278851523E+02  0.27279010052E+02  0.93000000000E-01 0. -1.
          3   -1    0    0  501    0  0.00000000000E+00 -0.00000000000E+00 -0.36651258076E+01  0.36663055227E+01  0.93000000000E-01 0.  1.
       1023    2    1    2    0    0  0.00000000000E+00  0.00000000000E+00  0.23613725715E+02  0.30945315574E+02  0.20000112846E+02 0.  0.
        -11    1    3    3    0    0 -0.61912227043E+01 -0.78530107484E+01  0.11790501953E+02  0.15460173122E+02  0.51100000000E-03 0. -1.
         11    1    3    3    0    0  0.61912227043E+01  0.78530107484E+01  0.11823223762E+02  0.15485142453E+02  0.51100000000E-03 0.  1.
<mgrwt>
<rscale>  0 0.20000113E+02</rscale>
<asrwt>0</asrwt>
<pdfrwt beam="2">  1        3 0.56396847E-03 0.20000113E+02</pdfrwt>
<pdfrwt beam="1">  1       -3 0.41968492E-02 0.20000113E+02</pdfrwt>
<totfact> 0.17213076E+06</totfact>
</mgrwt>
</event>
<event>
 5    1  0.4228065E-007  0.2000151E+02  0.7818608E-02  0.1745298E+00
          3   -1    0    0  501    0  0.00000000000E+00  0.00000000000E+00  0.48587402498E+01  0.48596302138E+01  0.93000000000E-01 0. -1.
         -3   -1    0    0    0  501 -0.00000000000E+00 -0.00000000000E+00 -0.20581687684E+02  0.20581897797E+02  0.93000000000E-01 0.  1.
       1023    2    1    2    0    0  0.00000000000E+00  0.00000000000E+00 -0.15722947434E+02  0.25441528011E+02  0.20001506731E+02 0.  0.
        -11    1    3    3    0    0 -0.54381435419E+01 -0.83928721541E+01 -0.79083723363E+01  0.12749747505E+02  0.51100000000E-03 0. -1.
         11    1    3    3    0    0  0.54381435419E+01  0.83928721541E+01 -0.78145750979E+01  0.12691780505E+02  0.51100000000E-03 0.  1.
<mgrwt>
<rscale>  0 0.20001507E+02</rscale>
<asrwt>0</asrwt>
<pdfrwt beam="1">  1        3 0.74758313E-03 0.20001507E+02</pdfrwt>
<pdfrwt beam="2">  1       -3 0.31664981E-02 0.20001507E+02</pdfrwt>
<totfact> 0.17537803E+06</totfact>
</mgrwt>
</event>
<event>
 5    1  0.4133473E-007  0.2001019E+02  0.7818608E-02  0.1745126E+00
          3   -1    0    0  501    0  0.00000000000E+00  0.00000000000E+00  0.23485937643E+01  0.23504343577E+01  0.93000000000E-01 0. -1.
         -3   -1    0    0    0  501 -0.00000000000E+00 -0.00000000000E+00 -0.42603467449E+02  0.42603568955E+02  0.93000000000E-01 0.  1.
       1023    2    1    2    0    0  0.00000000000E+00  0.00000000000E+00 -0.40254873685E+02  0.44954003313E+02  0.20010186367E+02 0.  0.
        -11    1    3    3    0    0 -0.53503676552E+01 -0.84542991879E+01 -0.20165065531E+02  0.22510696945E+02  0.51100000000E-03 0. -1.
         11    1    3    3    0    0  0.53503676552E+01  0.84542991879E+01 -0.20089808153E+02  0.22443306368E+02  0.51100000000E-03 0.  1.
<mgrwt>
<rscale>  0 0.20010186E+02</rscale>
<asrwt>0</asrwt>
<pdfrwt beam="1">  1        3 0.36147154E-03 0.20010186E+02</pdfrwt>
<pdfrwt beam="2">  1       -3 0.65545284E-02 0.20010186E+02</pdfrwt>
<totfact> 0.16440670E+06</totfact>
</mgrwt>
</event>
<event>
 5    1  0.4133473E-007  0.2000263E+02  0.7818608E-02  0.1745276E+00
          3   -1    0    0  501    0  0.00000000000E+00  0.00000000000E+00  0.14783840144E+01  0.14813062796E+01  0.93000000000E-01 0. -1.
         -3   -1    0    0    0  501 -0.00000000000E+00 -0.00000000000E+00 -0.67589433978E+02  0.67589497960E+02  0.93000000000E-01 0.  1.
       1023    2    1    2    0    0  0.00000000000E+00  0.00000000000E+00 -0.66111049963E+02  0.69070804239E+02  0.20002626603E+02 0.  0.
        -11    1    3    3    0    0 -0.22375108383E+01  0.97477511181E+01 -0.32937872682E+02  0.34422791341E+02  0.51100000000E-03 0. -1.
         11    1    3    3    0    0  0.22375108383E+01 -0.97477511181E+01 -0.33173177282E+02  0.34648012899E+02  0.51100000000E-03 0.  1.
<mgrwt>
<rscale>  0 0.20002627E+02</rscale>
<asrwt>0</asrwt>
<pdfrwt beam="1">  1        3 0.22767346E-03 0.20002627E+02</pdfrwt>
<pdfrwt beam="2">  1       -3 0.10398602E-01 0.20002627E+02</pdfrwt>
<totfact> 0.15350332E+06</totfact>
</mgrwt>
</event>
<event>
 5    1  0.4133473E-007  0.2000095E+02  0.7818608E-02  0.1745309E+00
         -3   -1    0    0    0  501 -0.00000000000E+00  0.00000000000E+00  0.10271052078E+01  0.10313069901E+01  0.93000000000E-01 0.  1.
          3   -1    0    0  501    0  0.00000000000E+00 -0.00000000000E+00 -0.97167298688E+02  0.97167343194E+02  0.93000000000E-01 0. -1.
       1023    2    1    2    0    0  0.00000000000E+00  0.00000000000E+00 -0.96140193480E+02  0.98198650184E+02  0.20000952365E+02 0.  0.
        -11    1    3    3    0    0 -0.44008530912E+01  0.89800613922E+01 -0.47958885905E+02  0.48990445477E+02  0.51100000000E-03 0. -1.
         11    1    3    3    0    0  0.44008530912E+01 -0.89800613922E+01 -0.48181307576E+02  0.49208204707E+02  0.51100000000E-03 0.  1.
<mgrwt>
<rscale>  0 0.20000952E+02</rscale>
<asrwt>0</asrwt>
<pdfrwt beam="2">  1        3 0.14949135E-01 0.20000952E+02</pdfrwt>
<pdfrwt beam="1">  1       -3 0.15834290E-03 0.20000952E+02</pdfrwt>
<totfact> 0.14239241E+06</totfact>
</mgrwt>
</event>
<event>
 4    1  0.4133473E-007  0.2007146E+02  0.7818608E-02  0.1743911E+00
         -3   -1    0    0    0  501 -0.00000000000E+00  0.00000000000E+00  0.71434129337E+01  0.71440182909E+01  0.93000000000E-01 0. -1.
          3   -1    0    0  501    0  0.00000000000E+00 -0.00000000000E+00 -0.14097775152E+02  0.14098081899E+02  0.93000000000E-01 0.  1.
        -11    1    1    2    0    0 -0.18959308570E+01 -0.98514007536E+01 -0.31946548013E+01  0.10528554990E+02  0.51100000000E-03 0. -1.
         11    1    1    2    0    0  0.18959308570E+01  0.98514007536E+01 -0.37597074168E+01  0.10713545200E+02  0.51100000000E-03 0.  1.
<mgrwt>
<rscale>  0 0.20071464E+02</rscale>
<asrwt>0</asrwt>
<pdfrwt beam="2">  1        3 0.21689586E-02 0.20071464E+02</pdfrwt>
<pdfrwt beam="1">  1       -3 0.10990568E-02 0.20071464E+02</pdfrwt>
<totfact> 0.17667994E+06</totfact>
</mgrwt>
</event>
<event>
 4    1  0.4133473E-007  0.2003018E+02  0.7818608E-02  0.1744729E+00
          3   -1    0    0  501    0  0.00000000000E+00  0.00000000000E+00  0.31657023911E+02  0.31657160515E+02  0.93000000000E-01 0.  1.
         -3   -1    0    0    0  501 -0.00000000000E+00 -0.00000000000E+00 -0.31675702511E+01  0.31689351990E+01  0.93000000000E-01 0. -1.
        -11    1    1    2    0    0 -0.90505406356E+01  0.42813940820E+01  0.14668379936E+02  0.17759616868E+02  0.51100000000E-03 0.  1.
         11    1    1    2    0    0  0.90505406356E+01 -0.42813940820E+01  0.13821073724E+02  0.17066478847E+02  0.51100000000E-03 0. -1.
<mgrwt>
<rscale>  0 0.20030177E+02</rscale>
<asrwt>0</asrwt>
<pdfrwt beam="1">  1        3 0.48704269E-02 0.20030177E+02</pdfrwt>
<pdfrwt beam="2">  1       -3 0.48743400E-03 0.20030177E+02</pdfrwt>
<totfact> 0.16936680E+06</totfact>
</mgrwt>
</event>
<event>
 5    1  0.4133473E-007  0.2000065E+02  0.7818608E-02  0.1745315E+00
          3   -1    0    0  501    0  0.00000000000E+00  0.00000000000E+00  0.14624392914E+01  0.14653933537E+01  0.93000000000E-01 0. -1.
         -3   -1    0    0    0  501 -0.00000000000E+00 -0.00000000000E+00 -0.68311389079E+02  0.68311452384E+02  0.93000000000E-01 0.  1.
       1023    2    1    2    0    0  0.00000000000E+00  0.00000000000E+00 -0.66848949787E+02  0.69776845738E+02  0.20000652827E+02 0.  0.
        -11    1    3    3    0    0  0.29167650372E+01  0.95655099404E+01 -0.33405555962E+02  0.34870297791E+02  0.51100000000E-03 0. -1.
         11    1    3    3    0    0 -0.29167650372E+01 -0.95655099404E+01 -0.33443393826E+02  0.34906547947E+02  0.51100000000E-03 0.  1.
<mgrwt>
<rscale>  0 0.20000653E+02</rscale>
<asrwt>0</asrwt>
<pdfrwt beam="1">  1        3 0.22522282E-03 0.20000653E+02</pdfrwt>
<pdfrwt beam="2">  1       -3 0.10509674E-01 0.20000653E+02</pdfrwt>
<totfact> 0.15324147E+06</totfact>
</mgrwt>
</event>
<event>
 4    1  0.4133473E-007  0.2002593E+02  0.7818608E-02  0.1744813E+00
          3   -1    0    0  501    0  0.00000000000E+00  0.00000000000E+00  0.65421768500E+01  0.65428378351E+01  0.93000000000E-01 0. -1.
         -3   -1    0    0    0  501 -0.00000000000E+00 -0.00000000000E+00 -0.15323524190E+02  0.15323806401E+02  0.93000000000E-01 0.  1.
        -11    1    1    2    0    0 -0.48199727979E+01  0.87764661717E+01 -0.44255596862E+01  0.10947331868E+02  0.51100000000E-03 0. -1.
         11    1    1    2    0    0  0.48199727979E+01 -0.87764661717E+01 -0.43557876540E+01  0.10919312368E+02  0.51100000000E-03 0.  1.
<mgrwt>
<rscale>  0 0.20025935E+02</rscale>
<asrwt>0</asrwt>
<pdfrwt beam="1">  1        3 0.10065613E-02 0.20025935E+02</pdfrwt>
<pdfrwt beam="2">  1       -3 0.23575378E-02 0.20025935E+02</pdfrwt>
<totfact> 0.17715228E+06</totfact>
</mgrwt>
</event>
<event>
 5    1  0.4248768E-007  0.2000099E+02  0.7818608E-02  0.1745308E+00
         -3   -1    0    0    0  501 -0.00000000000E+00  0.00000000000E+00  0.14168306628E+01  0.14198796171E+01  0.93000000000E-01 0. -1.
          3   -1    0    0  501    0  0.00000000000E+00 -0.00000000000E+00 -0.70508136344E+02  0.70508197677E+02  0.93000000000E-01 0.  1.
       1023    2    1    2    0    0  0.00000000000E+00  0.00000000000E+00 -0.69091305681E+02  0.71928077294E+02  0.20000994539E+02 0.  0.
        -11    1    3    3    0    0  0.26173614105E+01 -0.96516240582E+01 -0.34812783874E+02  0.36220634300E+02  0.51100000000E-03 0.  1.
         11    1    3    3    0    0 -0.26173614105E+01  0.96516240582E+01 -0.34278521807E+02  0.35707442995E+02  0.51100000000E-03 0. -1.
<mgrwt>
<rscale>  0 0.20000995E+02</rscale>
<asrwt>0</asrwt>
<pdfrwt beam="2">  1        3 0.10847642E-01 0.20000995E+02</pdfrwt>
<pdfrwt beam="1">  1       -3 0.21821326E-03 0.20000995E+02</pdfrwt>
<totfact> 0.15231880E+06</totfact>
</mgrwt>
</event>
<event>
 5    1  0.4133473E-007  0.2000042E+02  0.7818608E-02  0.1745320E+00
          3   -1    0    0  501    0  0.00000000000E+00  0.00000000000E+00  0.25916074197E+02  0.25916241062E+02  0.93000000000E-01 0. -1.
         -3   -1    0    0    0  501 -0.00000000000E+00 -0.00000000000E+00 -0.38580326413E+01  0.38591533866E+01  0.93000000000E-01 0.  1.
       1023    2    1    2    0    0  0.00000000000E+00  0.00000000000E+00  0.22058041556E+02  0.29775394449E+02  0.20000422928E+02 0.  0.
        -11    1    3    3    0    0  0.97332769501E+01  0.22950581653E+01  0.11005159383E+02  0.14870020359E+02  0.51100000000E-03 0. -1.
         11    1    3    3    0    0 -0.97332769501E+01 -0.22950581653E+01  0.11052882173E+02  0.14905374090E+02  0.51100000000E-03 0.  1.
<mgrwt>
<rscale>  0 0.20000423E+02</rscale>
<asrwt>0</asrwt>
<pdfrwt beam="1">  1        3 0.39871875E-02 0.20000423E+02</pdfrwt>
<pdfrwt beam="2">  1       -3 0.59364251E-03 0.20000423E+02</pdfrwt>
<totfact> 0.17278726E+06</totfact>
</mgrwt>
</event>
<event>
 5    1  0.4133473E-007  0.2000043E+02  0.7818608E-02  0.1745320E+00
          3   -1    0    0  501    0  0.00000000000E+00  0.00000000000E+00  0.11756344242E+02  0.11756712081E+02  0.93000000000E-01 0.  1.
         -3   -1    0    0    0  501 -0.00000000000E+00 -0.00000000000E+00 -0.85056544471E+01  0.85061628583E+01  0.93000000000E-01 0. -1.
       1023    2    1    2    0    0  0.00000000000E+00  0.00000000000E+00  0.32506897953E+01  0.20262874939E+02  0.20000427912E+02 0.  0.
        -11    1    3    3    0    0 -0.88430472928E+01  0.46695516216E+01  0.16162194819E+01  0.10129973516E+02  0.51100000000E-03 0. -1.
         11    1    3    3    0    0  0.88430472928E+01 -0.46695516216E+01  0.16344703134E+01  0.10132901422E+02  0.51100000000E-03 0.  1.
<mgrwt>
<rscale>  0 0.20000428E+02</rscale>
<asrwt>0</asrwt>
<pdfrwt beam="1">  1        3 0.18087357E-02 0.20000428E+02</pdfrwt>
<pdfrwt beam="2">  1       -3 0.13086296E-02 0.20000428E+02</pdfrwt>
<totfact> 0.17867450E+06</totfact>
</mgrwt>
</event>
<event>
 5    1  0.4222563E-007  0.2000051E+02  0.7818608E-02  0.1745318E+00
          3   -1    0    0  501    0  0.00000000000E+00  0.00000000000E+00  0.11082360302E+02  0.11082750509E+02  0.93000000000E-01 0. -1.
         -3   -1    0    0    0  501 -0.00000000000E+00 -0.00000000000E+00 -0.90230212154E+01  0.90235004768E+01  0.93000000000E-01 0.  1.
       1023    2    1    2    0    0  0.00000000000E+00  0.00000000000E+00  0.20593390862E+01  0.20106250986E+02  0.20000511275E+02 0.  0.
        -11    1    3    3    0    0  0.21654504065E+01  0.97629602417E+01  0.10531254222E+01  0.10055527911E+02  0.51100000000E-03 0. -1.
         11    1    3    3    0    0 -0.21654504065E+01 -0.97629602417E+01  0.10062136640E+01  0.10050723076E+02  0.51100000000E-03 0.  1.
<mgrwt>
<rscale>  0 0.20000511E+02</rscale>
<asrwt>0</asrwt>
<pdfrwt beam="1">  1        3 0.17050454E-02 0.20000511E+02</pdfrwt>
<pdfrwt beam="2">  1       -3 0.13882240E-02 0.20000511E+02</pdfrwt>
<totfact> 0.17877645E+06</totfact>
</mgrwt>
</event>
<event>
 5    1  0.4267335E-007  0.2000116E+02  0.7818608E-02  0.1745305E+00
          3   -1    0    0  501    0  0.00000000000E+00  0.00000000000E+00  0.11916598947E+02  0.11916961839E+02  0.93000000000E-01 0. -1.
         -3   -1    0    0    0  501 -0.00000000000E+00 -0.00000000000E+00 -0.83918810274E+01  0.83923963310E+01  0.93000000000E-01 0.  1.
       1023    2    1    2    0    0  0.00000000000E+00  0.00000000000E+00  0.35247179198E+01  0.20309358170E+02  0.20001159788E+02 0.  0.
        -11    1    3    3    0    0 -0.93221054282E+01 -0.36206445339E+01  0.17322114252E+01  0.10149446938E+02  0.51100000000E-03 0.  1.
         11    1    3    3    0    0  0.93221054282E+01  0.36206445339E+01  0.17925064946E+01  0.10159911232E+02  0.51100000000E-03 0. -1.
<mgrwt>
<rscale>  0 0.20001160E+02</rscale>
<asrwt>0</asrwt>
<pdfrwt beam="1">  1        3 0.18333905E-02 0.20001160E+02</pdfrwt>
<pdfrwt beam="2">  1       -3 0.12911262E-02 0.20001160E+02</pdfrwt>
<totfact> 0.17862984E+06</totfact>
</mgrwt>
</event>
<event>
 5    1  0.4391819E-007  0.2000084E+02  0.7818608E-02  0.1745311E+00
          3   -1    0    0  501    0  0.00000000000E+00  0.00000000000E+00  0.11345084661E+02  0.11345465833E+02  0.93000000000E-01 0.  1.
         -3   -1    0    0    0  501 -0.00000000000E+00 -0.00000000000E+00 -0.88143600785E+01  0.88148506847E+01  0.93000000000E-01 0. -1.
       1023    2    1    2    0    0  0.00000000000E+00  0.00000000000E+00  0.25307245821E+01  0.20160316517E+02  0.20000844861E+02 0.  0.
        -11    1    3    3    0    0 -0.75865282810E+01  0.65153539726E+01  0.12083446413E+01  0.10073000833E+02  0.51100000000E-03 0. -1.
         11    1    3    3    0    0  0.75865282810E+01 -0.65153539726E+01  0.13223799408E+01  0.10087315684E+02  0.51100000000E-03 0.  1.
<mgrwt>
<rscale>  0 0.20000845E+02</rscale>
<asrwt>0</asrwt>
<pdfrwt beam="1">  1        3 0.17454647E-02 0.20000845E+02</pdfrwt>
<pdfrwt beam="2">  1       -3 0.13561225E-02 0.20000845E+02</pdfrwt>
<totfact> 0.17873419E+06</totfact>
</mgrwt>
</event>
<event>
 5    1  0.4213460E-007  0.2000202E+02  0.7818608E-02  0.1745288E+00
          3   -1    0    0  501    0  0.00000000000E+00  0.00000000000E+00  0.18217159301E+02  0.18217396686E+02  0.93000000000E-01 0.  1.
         -3   -1    0    0    0  501 -0.00000000000E+00 -0.00000000000E+00 -0.54897708536E+01  0.54905585349E+01  0.93000000000E-01 0. -1.
       1023    2    1    2    0    0  0.00000000000E+00  0.00000000000E+00  0.12727388448E+02  0.23707955221E+02  0.20002017999E+02 0.  0.
        -11    1    3    3    0    0 -0.36881197897E+01  0.92958294319E+01  0.62757250157E+01  0.11806752184E+02  0.51100000000E-03 0.  1.
         11    1    3    3    0    0  0.36881197897E+01 -0.92958294319E+01  0.64516634319E+01  0.11901203036E+02  0.51100000000E-03 0. -1.
<mgrwt>
<rscale>  0 0.20002018E+02</rscale>
<asrwt>0</asrwt>
<pdfrwt beam="1">  1        3 0.28027188E-02 0.20002018E+02</pdfrwt>
<pdfrwt beam="2">  1       -3 0.84465898E-03 0.20002018E+02</pdfrwt>
<totfact> 0.17643270E+06</totfact>
</mgrwt>
</event>
<event>
 5    1  0.4133473E-007  0.2000026E+02  0.7818608E-02  0.1745323E+00
         -3   -1    0    0    0  501 -0.00000000000E+00  0.00000000000E+00  0.40226779522E+02  0.40226887025E+02  0.93000000000E-01 0.  1.
          3   -1    0    0  501    0  0.00000000000E+00 -0.00000000000E+00 -0.24849898975E+01  0.24867295371E+01  0.93000000000E-01 0. -1.
       1023    2    1    2    0    0  0.00000000000E+00  0.00000000000E+00  0.37741789625E+02  0.42713616562E+02  0.20000258892E+02 0.  0.
        -11    1    3    3    0    0 -0.77734548764E+01 -0.62908832298E+01  0.18930392916E+02  0.21409380858E+02  0.51100000000E-03 0.  1.
         11    1    3    3    0    0  0.77734548764E+01  0.62908832298E+01  0.18811396709E+02  0.21304235704E+02  0.51100000000E-03 0. -1.
<mgrwt>
<rscale>  0 0.20000259E+02</rscale>
<asrwt>0</asrwt>
<pdfrwt beam="2">  1        3 0.38244824E-03 0.20000259E+02</pdfrwt>
<pdfrwt beam="1">  1       -3 0.61888772E-02 0.20000259E+02</pdfrwt>
<totfact> 0.16572387E+06</totfact>
</mgrwt>
</event>
<event>
 5    1  0.4133473E-007  0.2000753E+02  0.7818608E-02  0.1745178E+00
         -3   -1    0    0    0  501 -0.00000000000E+00  0.00000000000E+00  0.24869644795E+01  0.24887027389E+01  0.93000000000E-01 0.  1.
          3   -1    0    0  501    0  0.00000000000E+00 -0.00000000000E+00 -0.40224089517E+02  0.40224197027E+02  0.93000000000E-01 0. -1.
       1023    2    1    2    0    0  0.00000000000E+00  0.00000000000E+00 -0.37737125037E+02  0.42712899766E+02  0.20007528591E+02 0.  0.
        -11    1    3    3    0    0 -0.30553944845E+01  0.95230807922E+01 -0.18387409872E+02  0.20931348387E+02  0.51100000000E-03 0. -1.
         11    1    3    3    0    0  0.30553944845E+01 -0.95230807922E+01 -0.19349715165E+02  0.21781551378E+02  0.51100000000E-03 0.  1.
<mgrwt>
<rscale>  0 0.20007529E+02</rscale>
<asrwt>0</asrwt>
<pdfrwt beam="2">  1        3 0.61884629E-02 0.20007529E+02</pdfrwt>
<pdfrwt beam="1">  1       -3 0.38275193E-03 0.20007529E+02</pdfrwt>
<totfact> 0.16557146E+06</totfact>
</mgrwt>
</event>
<event>
 5    1  0.4133473E-007  0.2000085E+02  0.7818608E-02  0.1745311E+00
          3   -1    0    0  501    0  0.00000000000E+00  0.00000000000E+00  0.48420548907E+02  0.48420638218E+02  0.93000000000E-01 0. -1.
         -3   -1    0    0    0  501 -0.00000000000E+00 -0.00000000000E+00 -0.20642763304E+01  0.20663701915E+01  0.93000000000E-01 0.  1.
       1023    2    1    2    0    0  0.00000000000E+00  0.00000000000E+00  0.46356272576E+02  0.50487008409E+02  0.20000850256E+02 0.  0.
        -11    1    3    3    0    0 -0.84210547602E+01  0.53934697998E+01  0.23002838134E+02  0.25082548560E+02  0.51100000000E-03 0.  1.
         11    1    3    3    0    0  0.84210547602E+01 -0.53934697998E+01  0.23353434442E+02  0.25404459850E+02  0.51100000000E-03 0. -1.
<mgrwt>
<rscale>  0 0.20000850E+02</rscale>
<asrwt>0</asrwt>
<pdfrwt beam="1">  1        3 0.74494825E-02 0.20000850E+02</pdfrwt>
<pdfrwt beam="2">  1       -3 0.31774894E-03 0.20000850E+02</pdfrwt>
<totfact> 0.16182251E+06</totfact>
</mgrwt>
</event>
<event>
 5    1  0.4133473E-007  0.2000121E+02  0.7818608E-02  0.1745304E+00
          3   -1    0    0  501    0  0.00000000000E+00  0.00000000000E+00  0.89260560403E+00  0.89743733171E+00  0.93000000000E-01 0. -1.
         -3   -1    0    0    0  501 -0.00000000000E+00 -0.00000000000E+00 -0.11173779506E+03  0.11173783376E+03  0.93000000000E-01 0.  1.
       1023    2    1    2    0    0  0.00000000000E+00  0.00000000000E+00 -0.11084518945E+03  0.11263527109E+03  0.20001206685E+02 0.  0.
        -11    1    3    3    0    0  0.61472543893E+01  0.78881687448E+01 -0.55359814561E+02  0.56255853128E+02  0.51100000000E-03 0. -1.
         11    1    3    3    0    0 -0.61472543893E+01 -0.78881687448E+01 -0.55485374892E+02  0.56379417963E+02  0.51100000000E-03 0.  1.
<mgrwt>
<rscale>  0 0.20001207E+02</rscale>
<asrwt>0</asrwt>
<pdfrwt beam="1">  1        3 0.13769868E-03 0.20001207E+02</pdfrwt>
<pdfrwt beam="2">  1       -3 0.17190794E-01 0.20001207E+02</pdfrwt>
<totfact> 0.13756015E+06</totfact>
</mgrwt>
</event>
<event>
 5    1  0.4285640E-007  0.2000166E+02  0.7818608E-02  0.1745295E+00
          3   -1    0    0  501    0  0.00000000000E+00  0.00000000000E+00  0.61981889246E+01  0.61988865892E+01  0.93000000000E-01 0.  1.
         -3   -1    0    0    0  501 -0.00000000000E+00 -0.00000000000E+00 -0.16134675538E+02  0.16134943561E+02  0.93000000000E-01 0. -1.
       1023    2    1    2    0    0  0.00000000000E+00  0.00000000000E+00 -0.99364866130E+01  0.22333830150E+02  0.20001655005E+02 0.  0.
        -11    1    3    3    0    0 -0.13497948547E+01  0.99089568654E+01 -0.50628461147E+01  0.11209004566E+02  0.51100000000E-03 0. -1.
         11    1    3    3    0    0  0.13497948547E+01 -0.99089568654E+01 -0.48736404983E+01  0.11124825584E+02  0.51100000000E-03 0.  1.
<mgrwt>
<rscale>  0 0.20001655E+02</rscale>
<asrwt>0</asrwt>
<pdfrwt beam="1">  1        3 0.95364182E-03 0.20001655E+02</pdfrwt>
<pdfrwt beam="2">  1       -3 0.24823320E-02 0.20001655E+02</pdfrwt>
<totfact> 0.17731790E+06</totfact>
</mgrwt>
</event>
<event>
 5    1  0.4171979E-007  0.2000123E+02  0.7818608E-02  0.1745304E+00
         -3   -1    0    0    0  501 -0.00000000000E+00  0.00000000000E+00  0.54549958518E+02  0.54550037794E+02  0.93000000000E-01 0.  1.
          3   -1    0    0  501    0  0.00000000000E+00 -0.00000000000E+00 -0.18321465590E+01  0.18345053867E+01  0.93000000000E-01 0. -1.
       1023    2    1    2    0    0  0.00000000000E+00  0.00000000000E+00  0.52717811959E+02  0.56384543181E+02  0.20001225261E+02 0.  0.
        -11    1    3    3    0    0  0.16449743046E+01 -0.98643759972E+01  0.26302634371E+02  0.28139659369E+02  0.51100000000E-03 0. -1.
         11    1    3    3    0    0 -0.16449743046E+01  0.98643759972E+01  0.26415177588E+02  0.28244883812E+02  0.51100000000E-03 0.  1.
<mgrwt>
<rscale>  0 0.20001225E+02</rscale>
<asrwt>0</asrwt>
<pdfrwt beam="2">  1        3 0.28205622E-03 0.20001225E+02</pdfrwt>
<pdfrwt beam="1">  1       -3 0.83924897E-02 0.20001225E+02</pdfrwt>
<totfact> 0.15907614E+06</totfact>
</mgrwt>
</event>
<event>
 4    1  0.4133473E-007  0.2007206E+02  0.7818608E-02  0.1743899E+00
         -3   -1    0    0    0  501 -0.00000000000E+00  0.00000000000E+00  0.28388300362E+01  0.28403529665E+01  0.93000000000E-01 0.  1.
          3   -1    0    0  501    0  0.00000000000E+00 -0.00000000000E+00 -0.35468975749E+02  0.35469097672E+02  0.93000000000E-01 0. -1.
        -11    1    1    2    0    0  0.29555546566E+01 -0.95742639820E+01 -0.15235297742E+02  0.18235024861E+02  0.51100000000E-03 0.  1.
         11    1    1    2    0    0 -0.29555546566E+01  0.95742639820E+01 -0.17394847971E+02  0.20074425778E+02  0.51100000000E-03 0. -1.
<mgrwt>
<rscale>  0 0.20072060E+02</rscale>
<asrwt>0</asrwt>
<pdfrwt beam="2">  1        3 0.54568917E-02 0.20072060E+02</pdfrwt>
<pdfrwt beam="1">  1       -3 0.43686963E-03 0.20072060E+02</pdfrwt>
<totfact> 0.16672289E+06</totfact>
</mgrwt>
</event>
<event>
 5    1  0.4133473E-007  0.2000068E+02  0.7818608E-02  0.1745315E+00
          3   -1    0    0  501    0  0.00000000000E+00  0.00000000000E+00  0.88549741181E+00  0.89036771411E+00  0.93000000000E-01 0. -1.
         -3   -1    0    0    0  501 -0.00000000000E+00 -0.00000000000E+00 -0.11262395007E+03  0.11262398847E+03  0.93000000000E-01 0.  1.
       1023    2    1    2    0    0  0.00000000000E+00  0.00000000000E+00 -0.11173845266E+03  0.11351435618E+03  0.20000681411E+02 0.  0.
        -11    1    3    3    0    0 -0.33129566242E+01  0.94354495217E+01 -0.55537089499E+02  0.56430237458E+02  0.51100000000E-03 0. -1.
         11    1    3    3    0    0  0.33129566242E+01 -0.94354495217E+01 -0.56201363157E+02  0.57084118722E+02  0.51100000000E-03 0.  1.
<mgrwt>
<rscale>  0 0.20000681E+02</rscale>
<asrwt>0</asrwt>
<pdfrwt beam="1">  1        3 0.13660805E-03 0.20000681E+02</pdfrwt>
<pdfrwt beam="2">  1       -3 0.17327128E-01 0.20000681E+02</pdfrwt>
<totfact> 0.13728383E+06</totfact>
</mgrwt>
</event>
<event>
 5    1  0.4133473E-007  0.2000092E+02  0.7818608E-02  0.1745310E+00
          3   -1    0    0  501    0  0.00000000000E+00  0.00000000000E+00  0.20947299290E+02  0.20947505736E+02  0.93000000000E-01 0.  1.
         -3   -1    0    0    0  501 -0.00000000000E+00 -0.00000000000E+00 -0.47736438054E+01  0.47745496312E+01  0.93000000000E-01 0. -1.
       1023    2    1    2    0    0  0.00000000000E+00  0.00000000000E+00  0.16173655485E+02  0.25722055367E+02  0.20000924993E+02 0.  0.
        -11    1    3    3    0    0  0.56198220515E+01  0.82720472900E+01  0.80985879202E+01  0.12868422313E+02  0.51100000000E-03 0.  1.
         11    1    3    3    0    0 -0.56198220515E+01 -0.82720472900E+01  0.80750675648E+01  0.12853633054E+02  0.51100000000E-03 0. -1.
<mgrwt>
<rscale>  0 0.20000925E+02</rscale>
<asrwt>0</asrwt>
<pdfrwt beam="1">  1        3 0.32227469E-02 0.20000925E+02</pdfrwt>
<pdfrwt beam="2">  1       -3 0.73449231E-03 0.20000925E+02</pdfrwt>
<totfact> 0.17520407E+06</totfact>
</mgrwt>
</event>
<event>
 5    1  0.4133473E-007  0.2000024E+02  0.7818608E-02  0.1745323E+00
         -3   -1    0    0    0  501 -0.00000000000E+00  0.00000000000E+00  0.35139221838E+01  0.35151526444E+01  0.93000000000E-01 0. -1.
          3   -1    0    0  501    0  0.00000000000E+00 -0.00000000000E+00 -0.28452627887E+02  0.28452779876E+02  0.93000000000E-01 0.  1.
       1023    2    1    2    0    0  0.00000000000E+00  0.00000000000E+00 -0.24938705703E+02  0.31967932521E+02  0.20000241686E+02 0.  0.
        -11    1    3    3    0    0  0.99998682669E+01 -0.68567664548E-01 -0.12439461511E+02  0.15960647538E+02  0.51100000000E-03 0.  1.
         11    1    3    3    0    0 -0.99998682669E+01  0.68567664548E-01 -0.12499244192E+02  0.16007284983E+02  0.51100000000E-03 0. -1.
<mgrwt>
<rscale>  0 0.20000242E+02</rscale>
<asrwt>0</asrwt>
<pdfrwt beam="2">  1        3 0.43774336E-02 0.20000242E+02</pdfrwt>
<pdfrwt beam="1">  1       -3 0.54070977E-03 0.20000242E+02</pdfrwt>
<totfact> 0.17152274E+06</totfact>
</mgrwt>
</event>
<event>
 5    1  0.4133473E-007  0.2000504E+02  0.7818608E-02  0.1745228E+00
          3   -1    0    0  501    0  0.00000000000E+00  0.00000000000E+00  0.64859513541E+02  0.64859580216E+02  0.93000000000E-01 0.  1.
         -3   -1    0    0    0  501 -0.00000000000E+00 -0.00000000000E+00 -0.15411022022E+01  0.15439057606E+01  0.93000000000E-01 0. -1.
       1023    2    1    2    0    0  0.00000000000E+00  0.00000000000E+00  0.63318411339E+02  0.66403485976E+02  0.20005042748E+02 0.  0.
        -11    1    3    3    0    0 -0.27787953315E+01  0.96075425206E+01  0.32171898774E+02  0.33690616613E+02  0.51100000000E-03 0. -1.
         11    1    3    3    0    0  0.27787953315E+01 -0.96075425206E+01  0.31146512565E+02  0.32712869363E+02  0.51100000000E-03 0.  1.
<mgrwt>
<rscale>  0 0.20005043E+02</rscale>
<asrwt>0</asrwt>
<pdfrwt beam="1">  1        3 0.99786087E-02 0.20005043E+02</pdfrwt>
<pdfrwt beam="2">  1       -3 0.23731340E-03 0.20005043E+02</pdfrwt>
<totfact> 0.15455993E+06</totfact>
</mgrwt>
</event>
<event>
 5    1  0.4133473E-007  0.2000220E+02  0.7818608E-02  0.1745284E+00
         -3   -1    0    0    0  501 -0.00000000000E+00  0.00000000000E+00  0.83329191771E+02  0.83329243668E+02  0.93000000000E-01 0.  1.
          3   -1    0    0  501    0  0.00000000000E+00 -0.00000000000E+00 -0.11984696426E+01  0.12020725786E+01  0.93000000000E-01 0. -1.
       1023    2    1    2    0    0  0.00000000000E+00  0.00000000000E+00  0.82130722129E+02  0.84531316246E+02  0.20002197604E+02 0.  0.
        -11    1    3    3    0    0 -0.75762747149E+01 -0.65278328737E+01  0.40654832766E+02  0.41866788366E+02  0.51100000000E-03 0. -1.
         11    1    3    3    0    0  0.75762747149E+01  0.65278328737E+01  0.41475889363E+02  0.42664527881E+02  0.51100000000E-03 0.  1.
<mgrwt>
<rscale>  0 0.20002198E+02</rscale>
<asrwt>0</asrwt>
<pdfrwt beam="2">  1        3 0.18466106E-03 0.20002198E+02</pdfrwt>
<pdfrwt beam="1">  1       -3 0.12820158E-01 0.20002198E+02</pdfrwt>
<totfact> 0.14737202E+06</totfact>
</mgrwt>
</event>
<event>
 5    1  0.4351400E-007  0.2000111E+02  0.7818608E-02  0.1745306E+00
          3   -1    0    0  501    0  0.00000000000E+00  0.00000000000E+00  0.16887572196E+02  0.16887828270E+02  0.93000000000E-01 0.  1.
         -3   -1    0    0    0  501 -0.00000000000E+00 -0.00000000000E+00 -0.59215047614E+01  0.59222350207E+01  0.93000000000E-01 0. -1.
       1023    2    1    2    0    0  0.00000000000E+00  0.00000000000E+00  0.10966067435E+02  0.22810063291E+02  0.20001108778E+02 0.  0.
        -11    1    3    3    0    0 -0.72723807647E+01  0.68643552408E+01  0.55568807687E+01  0.11440534035E+02  0.51100000000E-03 0. -1.
         11    1    3    3    0    0  0.72723807647E+01 -0.68643552408E+01  0.54091866662E+01  0.11369529256E+02  0.51100000000E-03 0.  1.
<mgrwt>
<rscale>  0 0.20001109E+02</rscale>
<asrwt>0</asrwt>
<pdfrwt beam="1">  1        3 0.25981638E-02 0.20001109E+02</pdfrwt>
<pdfrwt beam="2">  1       -3 0.91107663E-03 0.20001109E+02</pdfrwt>
<totfact> 0.17701641E+06</totfact>
</mgrwt>
</event>
<event>
 5    1  0.4147777E-007  0.2000237E+02  0.7818608E-02  0.1745281E+00
         -3   -1    0    0    0  501 -0.00000000000E+00  0.00000000000E+00  0.14682202653E+02  0.14682497191E+02  0.93000000000E-01 0. -1.
          3   -1    0    0  501    0  0.00000000000E+00 -0.00000000000E+00 -0.68119037749E+01  0.68125385898E+01  0.93000000000E-01 0.  1.
       1023    2    1    2    0    0  0.00000000000E+00  0.00000000000E+00  0.78702988786E+01  0.21495035781E+02  0.20002373828E+02 0.  0.
        -11    1    3    3    0    0  0.14081765562E+01 -0.99014422148E+01  0.39857856340E+01  0.10766058077E+02  0.51100000000E-03 0. -1.
         11    1    3    3    0    0 -0.14081765562E+01  0.99014422148E+01  0.38845132445E+01  0.10728977703E+02  0.51100000000E-03 0.  1.
<mgrwt>
<rscale>  0 0.20002374E+02</rscale>
<asrwt>0</asrwt>
<pdfrwt beam="2">  1        3 0.10480567E-02 0.20002374E+02</pdfrwt>
<pdfrwt beam="1">  1       -3 0.22588719E-02 0.20002374E+02</pdfrwt>
<totfact> 0.17784074E+06</totfact>
</mgrwt>
</event>
<event>
 5    1  0.4133473E-007  0.2000622E+02  0.7818608E-02  0.1745204E+00
          3   -1    0    0  501    0  0.00000000000E+00  0.00000000000E+00  0.23476070686E+02  0.23476254894E+02  0.93000000000E-01 0.  1.
         -3   -1    0    0    0  501 -0.00000000000E+00 -0.00000000000E+00 -0.42616001868E+01  0.42626148257E+01  0.93000000000E-01 0. -1.
       1023    2    1    2    0    0  0.00000000000E+00  0.00000000000E+00  0.19214470499E+02  0.27738869720E+02  0.20006224451E+02 0.  0.
        -11    1    3    3    0    0  0.77520142922E+01  0.63217079697E+01  0.95138467898E+01  0.13804745497E+02  0.51100000000E-03 0.  1.
         11    1    3    3    0    0 -0.77520142922E+01 -0.63217079697E+01  0.97006237093E+01  0.13934124223E+02  0.51100000000E-03 0. -1.
<mgrwt>
<rscale>  0 0.20006224E+02</rscale>
<asrwt>0</asrwt>
<pdfrwt beam="1">  1        3 0.36117954E-02 0.20006224E+02</pdfrwt>
<pdfrwt beam="2">  1       -3 0.65572302E-03 0.20006224E+02</pdfrwt>
<totfact> 0.17388417E+06</totfact>
</mgrwt>
</event>
<event>
 5    1  0.4133473E-007  0.2000015E+02  0.7818608E-02  0.1745325E+00
          3   -1    0    0  501    0  0.00000000000E+00  0.00000000000E+00  0.81203740890E+02  0.81203794145E+02  0.93000000000E-01 0. -1.
         -3   -1    0    0    0  501 -0.00000000000E+00 -0.00000000000E+00 -0.12296789155E+01  0.12331906727E+01  0.93000000000E-01 0.  1.
       1023    2    1    2    0    0  0.00000000000E+00  0.00000000000E+00  0.79974061974E+02  0.82436984817E+02  0.20000146927E+02 0.  0.
        -11    1    3    3    0    0  0.75963686824E+01  0.65035185219E+01  0.39863466342E+02  0.41098619434E+02  0.51100000000E-03 0.  1.
         11    1    3    3    0    0 -0.75963686824E+01 -0.65035185219E+01  0.40110595632E+02  0.41338365383E+02  0.51100000000E-03 0. -1.
<mgrwt>
<rscale>  0 0.20000147E+02</rscale>
<asrwt>0</asrwt>
<pdfrwt beam="1">  1        3 0.12493159E-01 0.20000147E+02</pdfrwt>
<pdfrwt beam="2">  1       -3 0.18945559E-03 0.20000147E+02</pdfrwt>
<totfact> 0.14817183E+06</totfact>
</mgrwt>
</event>
<event>
 5    1  0.4133473E-007  0.2000100E+02  0.7818608E-02  0.1745308E+00
          3   -1    0    0  501    0  0.00000000000E+00  0.00000000000E+00  0.68749723433E+02  0.68749786335E+02  0.93000000000E-01 0.  1.
         -3   -1    0    0    0  501 -0.00000000000E+00 -0.00000000000E+00 -0.14531466121E+01  0.14561195267E+01  0.93000000000E-01 0. -1.
       1023    2    1    2    0    0  0.00000000000E+00  0.00000000000E+00  0.67296576821E+02  0.70205905862E+02  0.20000999126E+02 0.  0.
        -11    1    3    3    0    0 -0.63012486639E+01  0.77655748007E+01  0.33684178035E+02  0.35137355291E+02  0.51100000000E-03 0.  1.
         11    1    3    3    0    0  0.63012486639E+01 -0.77655748007E+01  0.33612398786E+02  0.35068550570E+02  0.51100000000E-03 0. -1.
<mgrwt>
<rscale>  0 0.20000999E+02</rscale>
<asrwt>0</asrwt>
<pdfrwt beam="1">  1        3 0.10577117E-01 0.20000999E+02</pdfrwt>
<pdfrwt beam="2">  1       -3 0.22379449E-03 0.20000999E+02</pdfrwt>
<totfact> 0.15302880E+06</totfact>
</mgrwt>
</event>
<event>
 5    1  0.4133473E-007  0.2000010E+02  0.7818608E-02  0.1745326E+00
         -3   -1    0    0    0  501 -0.00000000000E+00  0.00000000000E+00  0.42900020422E+01  0.42910099652E+01  0.93000000000E-01 0.  1.
          3   -1    0    0  501    0  0.00000000000E+00 -0.00000000000E+00 -0.23306414283E+02  0.23306599832E+02  0.93000000000E-01 0. -1.
       1023    2    1    2    0    0  0.00000000000E+00  0.00000000000E+00 -0.19016412241E+02  0.27597609797E+02  0.20000103300E+02 0.  0.
        -11    1    3    3    0    0 -0.95262183913E+01  0.30417194900E+01 -0.94919700051E+01  0.13787617239E+02  0.51100000000E-03 0.  1.
         11    1    3    3    0    0  0.95262183913E+01 -0.30417194900E+01 -0.95244422358E+01  0.13809992558E+02  0.51100000000E-03 0. -1.
<mgrwt>
<rscale>  0 0.20000103E+02</rscale>
<asrwt>0</asrwt>
<pdfrwt beam="2">  1        3 0.35856939E-02 0.20000103E+02</pdfrwt>
<pdfrwt beam="1">  1       -3 0.66009214E-03 0.20000103E+02</pdfrwt>
<totfact> 0.17408334E+06</totfact>
</mgrwt>
</event>
<event>
 5    1  0.4133473E-007  0.2000012E+02  0.7818608E-02  0.1745326E+00
         -3   -1    0    0    0  501 -0.00000000000E+00  0.00000000000E+00  0.59259537604E+02  0.59259610580E+02  0.93000000000E-01 0.  1.
          3   -1    0    0  501    0  0.00000000000E+00 -0.00000000000E+00 -0.16861562411E+01  0.16887190025E+01  0.93000000000E-01 0. -1.
       1023    2    1    2    0    0  0.00000000000E+00  0.00000000000E+00  0.57573381363E+02  0.60948329582E+02  0.20000115932E+02 0.  0.
        -11    1    3    3    0    0  0.56040837308E+01 -0.82822271572E+01  0.28819781824E+02  0.30505423547E+02  0.51100000000E-03 0. -1.
         11    1    3    3    0    0 -0.56040837308E+01  0.82822271572E+01  0.28753599539E+02  0.30442906035E+02  0.51100000000E-03 0.  1.
<mgrwt>
<rscale>  0 0.20000116E+02</rscale>
<asrwt>0</asrwt>
<pdfrwt beam="2">  1        3 0.25961143E-03 0.20000116E+02</pdfrwt>
<pdfrwt beam="1">  1       -3 0.91170536E-02 0.20000116E+02</pdfrwt>
<totfact> 0.15704023E+06</totfact>
</mgrwt>
</event>
<event>
 5    1  0.4145526E-007  0.2000059E+02  0.7818608E-02  0.1745316E+00
         -3   -1    0    0    0  501 -0.00000000000E+00  0.00000000000E+00  0.26922589695E+02  0.26922750322E+02  0.93000000000E-01 0. -1.
          3   -1    0    0  501    0  0.00000000000E+00 -0.00000000000E+00 -0.37138166201E+01  0.37149808731E+01  0.93000000000E-01 0.  1.
       1023    2    1    2    0    0  0.00000000000E+00  0.00000000000E+00  0.23208773075E+02  0.30637731195E+02  0.20000585620E+02 0.  0.
        -11    1    3    3    0    0 -0.98330242672E+01 -0.18213808735E+01  0.11592374203E+02  0.15309765983E+02  0.51100000000E-03 0.  1.
         11    1    3    3    0    0  0.98330242672E+01  0.18213808735E+01  0.11616398872E+02  0.15327965212E+02  0.51100000000E-03 0. -1.
<mgrwt>
<rscale>  0 0.20000586E+02</rscale>
<asrwt>0</asrwt>
<pdfrwt beam="2">  1        3 0.57145834E-03 0.20000586E+02</pdfrwt>
<pdfrwt beam="1">  1       -3 0.41420386E-02 0.20000586E+02</pdfrwt>
<totfact> 0.17229962E+06</totfact>
</mgrwt>
</event>
<event>
 5    1  0.4133473E-007  0.2000016E+02  0.7818608E-02  0.1745325E+00
         -3   -1    0    0    0  501 -0.00000000000E+00  0.00000000000E+00  0.28010430436E+01  0.28025865075E+01  0.93000000000E-01 0. -1.
          3   -1    0    0  501    0  0.00000000000E+00 -0.00000000000E+00 -0.35690121884E+02  0.35690243052E+02  0.93000000000E-01 0.  1.
       1023    2    1    2    0    0  0.00000000000E+00  0.00000000000E+00 -0.32889078841E+02  0.38492829560E+02  0.20000160512E+02 0.  0.
        -11    1    3    3    0    0  0.99167068748E+01 -0.12884626042E+01 -0.16406349048E+02  0.19213784127E+02  0.51100000000E-03 0.  1.
         11    1    3    3    0    0 -0.99167068748E+01  0.12884626042E+01 -0.16482729793E+02  0.19279045433E+02  0.51100000000E-03 0. -1.
<mgrwt>
<rscale>  0 0.20000161E+02</rscale>
<asrwt>0</asrwt>
<pdfrwt beam="2">  1        3 0.54909157E-02 0.20000161E+02</pdfrwt>
<pdfrwt beam="1">  1       -3 0.43105777E-03 0.20000161E+02</pdfrwt>
<totfact> 0.16791609E+06</totfact>
</mgrwt>
</event>
<event>
 5    1  0.4133473E-007  0.2000023E+02  0.7818608E-02  0.1745324E+00
         -3   -1    0    0    0  501 -0.00000000000E+00  0.00000000000E+00  0.61596715132E+02  0.61596785339E+02  0.93000000000E-01 0. -1.
          3   -1    0    0  501    0  0.00000000000E+00 -0.00000000000E+00 -0.16220974578E+01  0.16247612632E+01  0.93000000000E-01 0.  1.
       1023    2    1    2    0    0  0.00000000000E+00  0.00000000000E+00  0.59974617675E+02  0.63221546602E+02  0.20000229738E+02 0.  0.
        -11    1    3    3    0    0  0.98241695891E+01  0.18671906458E+01  0.30113279619E+02  0.31730274482E+02  0.51100000000E-03 0. -1.
         11    1    3    3    0    0 -0.98241695891E+01 -0.18671906458E+01  0.29861338056E+02  0.31491272120E+02  0.51100000000E-03 0.  1.
<mgrwt>
<rscale>  0 0.20000230E+02</rscale>
<asrwt>0</asrwt>
<pdfrwt beam="2">  1        3 0.24976376E-03 0.20000230E+02</pdfrwt>
<pdfrwt beam="1">  1       -3 0.94766283E-02 0.20000230E+02</pdfrwt>
<totfact> 0.15603919E+06</totfact>
</mgrwt>
</event>
<event>
 5    1  0.4455313E-007  0.2000122E+02  0.7818608E-02  0.1745304E+00
         -3   -1    0    0    0  501 -0.00000000000E+00  0.00000000000E+00  0.19014063501E+02  0.19014290936E+02  0.93000000000E-01 0. -1.
          3   -1    0    0  501    0  0.00000000000E+00 -0.00000000000E+00 -0.52592346130E+01  0.52600568167E+01  0.93000000000E-01 0.  1.
       1023    2    1    2    0    0  0.00000000000E+00  0.00000000000E+00  0.13754828888E+02  0.24274347753E+02  0.20001215991E+02 0.  0.
        -11    1    3    3    0    0  0.21629644379E+01 -0.97634987287E+01  0.69848574140E+01  0.12198055416E+02  0.51100000000E-03 0.  1.
         11    1    3    3    0    0 -0.21629644379E+01  0.97634987287E+01  0.67699714737E+01  0.12076292337E+02  0.51100000000E-03 0. -1.
<mgrwt>
<rscale>  0 0.20001216E+02</rscale>
<asrwt>0</asrwt>
<pdfrwt beam="2">  1        3 0.80919375E-03 0.20001216E+02</pdfrwt>
<pdfrwt beam="1">  1       -3 0.29253213E-02 0.20001216E+02</pdfrwt>
<totfact> 0.17610544E+06</totfact>
</mgrwt>
</event>
<event>
 5    1  0.4133473E-007  0.2000368E+02  0.7818608E-02  0.1745255E+00
         -3   -1    0    0    0  501 -0.00000000000E+00  0.00000000000E+00  0.11839313536E+02  0.11839678796E+02  0.93000000000E-01 0.  1.
          3   -1    0    0  501    0  0.00000000000E+00 -0.00000000000E+00 -0.84487887226E+01  0.84493005556E+01  0.93000000000E-01 0. -1.
       1023    2    1    2    0    0  0.00000000000E+00  0.00000000000E+00  0.33905248130E+01  0.20288979352E+02  0.20003675278E+02 0.  0.
        -11    1    3    3    0    0  0.95396718814E+01 -0.30016559913E+01  0.18439050015E+01  0.10169329585E+02  0.51100000000E-03 0. -1.
         11    1    3    3    0    0 -0.95396718814E+01  0.30016559913E+01  0.15466198115E+01  0.10119649767E+02  0.51100000000E-03 0.  1.
<mgrwt>
<rscale>  0 0.20003675E+02</rscale>
<asrwt>0</asrwt>
<pdfrwt beam="2">  1        3 0.12998811E-02 0.20003675E+02</pdfrwt>
<pdfrwt beam="1">  1       -3 0.18215003E-02 0.20003675E+02</pdfrwt>
<totfact> 0.17859784E+06</totfact>
</mgrwt>
</event>
<event>
 5    1  0.4286909E-007  0.2000107E+02  0.7818608E-02  0.1745307E+00
         -3   -1    0    0    0  501 -0.00000000000E+00  0.00000000000E+00  0.27635886297E+02  0.27636042778E+02  0.93000000000E-01 0. -1.
          3   -1    0    0  501    0  0.00000000000E+00 -0.00000000000E+00 -0.36181078455E+01  0.36193028861E+01  0.93000000000E-01 0.  1.
       1023    2    1    2    0    0  0.00000000000E+00  0.00000000000E+00  0.24017778452E+02  0.31255345664E+02  0.20001073742E+02 0.  0.
        -11    1    3    3    0    0  0.99876783019E+01 -0.50661810840E+00  0.12038443292E+02  0.15650383284E+02  0.51100000000E-03 0.  1.
         11    1    3    3    0    0 -0.99876783019E+01  0.50661810840E+00  0.11979335160E+02  0.15604962381E+02  0.51100000000E-03 0. -1.
<mgrwt>
<rscale>  0 0.20001074E+02</rscale>
<asrwt>0</asrwt>
<pdfrwt beam="2">  1        3 0.55673593E-03 0.20001074E+02</pdfrwt>
<pdfrwt beam="1">  1       -3 0.42517788E-02 0.20001074E+02</pdfrwt>
<totfact> 0.17193437E+06</totfact>
</mgrwt>
</event>
<event>
 5    1  0.4133473E-007  0.2000048E+02  0.7818608E-02  0.1745319E+00
          3   -1    0    0  501    0  0.00000000000E+00  0.00000000000E+00  0.10989520608E+03  0.10989524544E+03  0.93000000000E-01 0.  1.
         -3   -1    0    0    0  501 -0.00000000000E+00 -0.00000000000E+00 -0.90758534404E+00  0.91233774268E+00  0.93000000000E-01 0. -1.
       1023    2    1    2    0    0  0.00000000000E+00  0.00000000000E+00  0.10898762074E+03  0.11080758318E+03  0.20000475373E+02 0.  0.
        -11    1    3    3    0    0 -0.97375950168E+01  0.22768102707E+01  0.54557415995E+02  0.55466352522E+02  0.51100000000E-03 0. -1.
         11    1    3    3    0    0  0.97375950168E+01 -0.22768102707E+01  0.54430204745E+02  0.55341230657E+02  0.51100000000E-03 0.  1.
<mgrwt>
<rscale>  0 0.20000475E+02</rscale>
<asrwt>0</asrwt>
<pdfrwt beam="1">  1        3 0.16907328E-01 0.20000475E+02</pdfrwt>
<pdfrwt beam="2">  1       -3 0.13999707E-03 0.20000475E+02</pdfrwt>
<totfact> 0.13813834E+06</totfact>
</mgrwt>
</event>
<event>
 5    1  0.4133473E-007  0.2000078E+02  0.7818608E-02  0.1745313E+00
          3   -1    0    0  501    0  0.00000000000E+00  0.00000000000E+00  0.19584951876E+01  0.19607020171E+01  0.93000000000E-01 0. -1.
         -3   -1    0    0    0  501 -0.00000000000E+00 -0.00000000000E+00 -0.51032585107E+02  0.51032669847E+02  0.93000000000E-01 0.  1.
       1023    2    1    2    0    0  0.00000000000E+00  0.00000000000E+00 -0.49074089920E+02  0.52993371864E+02  0.20000778987E+02 0.  0.
        -11    1    3    3    0    0  0.97099535270E+01 -0.23920721979E+01 -0.24671700893E+02  0.26621382986E+02  0.51100000000E-03 0. -1.
         11    1    3    3    0    0 -0.97099535270E+01  0.23920721979E+01 -0.24402389027E+02  0.26371988878E+02  0.51100000000E-03 0.  1.
<mgrwt>
<rscale>  0 0.20000779E+02</rscale>
<asrwt>0</asrwt>
<pdfrwt beam="1">  1        3 0.30148326E-03 0.20000779E+02</pdfrwt>
<pdfrwt beam="2">  1       -3 0.78513422E-02 0.20000779E+02</pdfrwt>
<totfact> 0.16065779E+06</totfact>
</mgrwt>
</event>
<event>
 5    1  0.4133473E-007  0.2000044E+02  0.7818608E-02  0.1745319E+00
         -3   -1    0    0    0  501 -0.00000000000E+00  0.00000000000E+00  0.42842594537E+01  0.42852687275E+01  0.93000000000E-01 0. -1.
          3   -1    0    0  501    0  0.00000000000E+00 -0.00000000000E+00 -0.23338435043E+02  0.23338620338E+02  0.93000000000E-01 0.  1.
       1023    2    1    2    0    0  0.00000000000E+00  0.00000000000E+00 -0.19054175589E+02  0.27623889065E+02  0.20000440987E+02 0.  0.
        -11    1    3    3    0    0  0.70471545487E+01 -0.70952026430E+01 -0.95423358398E+01  0.13822462202E+02  0.51100000000E-03 0. -1.
         11    1    3    3    0    0 -0.70471545487E+01  0.70952026430E+01 -0.95118397495E+01  0.13801426863E+02  0.51100000000E-03 0.  1.
<mgrwt>
<rscale>  0 0.20000441E+02</rscale>
<asrwt>0</asrwt>
<pdfrwt beam="2">  1        3 0.35906203E-02 0.20000441E+02</pdfrwt>
<pdfrwt beam="1">  1       -3 0.65920874E-03 0.20000441E+02</pdfrwt>
<totfact> 0.17406128E+06</totfact>
</mgrwt>
</event>
<event>
 5    1  0.4359516E-007  0.2000104E+02  0.7818608E-02  0.1745307E+00
          3   -1    0    0  501    0  0.00000000000E+00  0.00000000000E+00  0.14860009208E+02  0.14860300221E+02  0.93000000000E-01 0. -1.
         -3   -1    0    0    0  501 -0.00000000000E+00 -0.00000000000E+00 -0.67294902966E+01  0.67301328852E+01  0.93000000000E-01 0.  1.
       1023    2    1    2    0    0  0.00000000000E+00  0.00000000000E+00  0.81305189112E+01  0.21590433106E+02  0.20001036572E+02 0.  0.
        -11    1    3    3    0    0  0.79513725483E+01 -0.60648771954E+01  0.41273163222E+01  0.10818585910E+02  0.51100000000E-03 0.  1.
         11    1    3    3    0    0 -0.79513725483E+01  0.60648771954E+01  0.40032025890E+01  0.10771847197E+02  0.51100000000E-03 0. -1.
<mgrwt>
<rscale>  0 0.20001037E+02</rscale>
<asrwt>0</asrwt>
<pdfrwt beam="1">  1        3 0.22862271E-02 0.20001037E+02</pdfrwt>
<pdfrwt beam="2">  1       -3 0.10353780E-02 0.20001037E+02</pdfrwt>
<totfact> 0.17779797E+06</totfact>
</mgrwt>
</event>
<event>
 4    1  0.4133473E-007  0.2002478E+02  0.7818608E-02  0.1744836E+00
          3   -1    0    0  501    0  0.00000000000E+00  0.00000000000E+00  0.22504869374E+02  0.22505061531E+02  0.93000000000E-01 0. -1.
         -3   -1    0    0    0  501 -0.00000000000E+00 -0.00000000000E+00 -0.44538023795E+01  0.44547732418E+01  0.93000000000E-01 0.  1.
        -11    1    1    2    0    0 -0.90662337541E+01  0.42424287898E+01  0.87152326898E+01  0.13272154219E+02  0.51100000000E-03 0.  1.
         11    1    1    2    0    0  0.90662337541E+01 -0.42424287898E+01  0.93358343043E+01  0.13687680554E+02  0.51100000000E-03 0. -1.
<mgrwt>
<rscale>  0 0.20024776E+02</rscale>
<asrwt>0</asrwt>
<pdfrwt beam="1">  1        3 0.34623770E-02 0.20024776E+02</pdfrwt>
<pdfrwt beam="2">  1       -3 0.68528984E-03 0.20024776E+02</pdfrwt>
<totfact> 0.17400434E+06</totfact>
</mgrwt>
</event>
<event>
 5    1  0.4133473E-007  0.2000033E+02  0.7818608E-02  0.1745322E+00
         -3   -1    0    0    0  501 -0.00000000000E+00  0.00000000000E+00  0.97127992598E+02  0.97128037121E+02  0.93000000000E-01 0. -1.
          3   -1    0    0  501    0  0.00000000000E+00 -0.00000000000E+00 -0.10274579215E+01  0.10316582673E+01  0.93000000000E-01 0.  1.
       1023    2    1    2    0    0  0.00000000000E+00  0.00000000000E+00  0.96100534676E+02  0.98159695389E+02  0.20000325841E+02 0.  0.
        -11    1    3    3    0    0  0.96798689189E+01  0.25105203879E+01  0.47921977380E+02  0.48954248960E+02  0.51100000000E-03 0. -1.
         11    1    3    3    0    0 -0.96798689189E+01 -0.25105203879E+01  0.48178557296E+02  0.49205446429E+02  0.51100000000E-03 0.  1.
<mgrwt>
<rscale>  0 0.20000326E+02</rscale>
<asrwt>0</asrwt>
<pdfrwt beam="2">  1        3 0.15839699E-03 0.20000326E+02</pdfrwt>
<pdfrwt beam="1">  1       -3 0.14943094E-01 0.20000326E+02</pdfrwt>
<totfact> 0.14244412E+06</totfact>
</mgrwt>
</event>
<event>
 4    1  0.4133473E-007  0.2001291E+02  0.7818608E-02  0.1745072E+00
          3   -1    0    0  501    0  0.00000000000E+00  0.00000000000E+00  0.50561235435E+01  0.50569787707E+01  0.93000000000E-01 0.  1.
         -3   -1    0    0    0  501 -0.00000000000E+00 -0.00000000000E+00 -0.19800892273E+02  0.19801110671E+02  0.93000000000E-01 0. -1.
        -11    1    1    2    0    0 -0.95226328604E+01  0.30662243403E+01 -0.71035820012E+01  0.12269602512E+02  0.51100000000E-03 0.  1.
         11    1    1    2    0    0  0.95226328604E+01 -0.30662243403E+01 -0.76411867287E+01  0.12588486930E+02  0.51100000000E-03 0. -1.
<mgrwt>
<rscale>  0 0.20012906E+02</rscale>
<asrwt>0</asrwt>
<pdfrwt beam="1">  1        3 0.77794776E-03 0.20012906E+02</pdfrwt>
<pdfrwt beam="2">  1       -3 0.30463737E-02 0.20012906E+02</pdfrwt>
<totfact> 0.17552205E+06</totfact>
</mgrwt>
</event>
<event>
 5    1  0.4133473E-007  0.2000308E+02  0.7818608E-02  0.1745267E+00
         -3   -1    0    0    0  501 -0.00000000000E+00  0.00000000000E+00  0.75830964686E+01  0.75836667287E+01  0.93000000000E-01 0.  1.
          3   -1    0    0  501    0  0.00000000000E+00 -0.00000000000E+00 -0.13190052560E+02  0.13190380417E+02  0.93000000000E-01 0. -1.
       1023    2    1    2    0    0  0.00000000000E+00  0.00000000000E+00 -0.56069560916E+01  0.20774047146E+02  0.20003076718E+02 0.  0.
        -11    1    3    3    0    0 -0.95409628797E+01  0.29999419739E+01 -0.28386165431E+01  0.10396507522E+02  0.51100000000E-03 0.  1.
         11    1    3    3    0    0  0.95409628797E+01 -0.29999419739E+01 -0.27683395485E+01  0.10377539623E+02  0.51100000000E-03 0. -1.
<mgrwt>
<rscale>  0 0.20003077E+02</rscale>
<asrwt>0</asrwt>
<pdfrwt beam="2">  1        3 0.20293079E-02 0.20003077E+02</pdfrwt>
<pdfrwt beam="1">  1       -3 0.11666993E-02 0.20003077E+02</pdfrwt>
<totfact> 0.17828930E+06</totfact>
</mgrwt>
</event>
<event>
 5    1  0.4211639E-007  0.2000190E+02  0.7818608E-02  0.1745290E+00
         -3   -1    0    0    0  501 -0.00000000000E+00  0.00000000000E+00  0.65138723565E+01  0.65145362134E+01  0.93000000000E-01 0. -1.
          3   -1    0    0  501    0  0.00000000000E+00 -0.00000000000E+00 -0.15353175545E+02  0.15353457210E+02  0.93000000000E-01 0.  1.
       1023    2    1    2    0    0  0.00000000000E+00  0.00000000000E+00 -0.88393031883E+01  0.21867993424E+02  0.20001896298E+02 0.  0.
        -11    1    3    3    0    0  0.46077528406E+01  0.88761363301E+01 -0.44657937361E+01  0.10952647915E+02  0.51100000000E-03 0.  1.
         11    1    3    3    0    0 -0.46077528406E+01 -0.88761363301E+01 -0.43735094522E+01  0.10915345509E+02  0.51100000000E-03 0. -1.
<mgrwt>
<rscale>  0 0.20001896E+02</rscale>
<asrwt>0</asrwt>
<pdfrwt beam="2">  1        3 0.23620997E-02 0.20001896E+02</pdfrwt>
<pdfrwt beam="1">  1       -3 0.10022069E-02 0.20001896E+02</pdfrwt>
<totfact> 0.17760289E+06</totfact>
</mgrwt>
</event>
<event>
 5    1  0.4133473E-007  0.2000022E+02  0.7818608E-02  0.1745324E+00
         -3   -1    0    0    0  501 -0.00000000000E+00  0.00000000000E+00  0.13111849748E+01  0.13144789988E+01  0.93000000000E-01 0.  1.
          3   -1    0    0  501    0  0.00000000000E+00 -0.00000000000E+00 -0.76169558999E+02  0.76169615773E+02  0.93000000000E-01 0. -1.
       1023    2    1    2    0    0  0.00000000000E+00  0.00000000000E+00 -0.74858374024E+02  0.77484094772E+02  0.20000219528E+02 0.  0.
        -11    1    3    3    0    0 -0.69665497763E+01 -0.71741405118E+01 -0.37301447863E+02  0.38618636962E+02  0.51100000000E-03 0. -1.
         11    1    3    3    0    0  0.69665497763E+01  0.71741405118E+01 -0.37556926161E+02  0.38865457810E+02  0.51100000000E-03 0.  1.
<mgrwt>
<rscale>  0 0.20000220E+02</rscale>
<asrwt>0</asrwt>
<pdfrwt beam="2">  1        3 0.11718648E-01 0.20000220E+02</pdfrwt>
<pdfrwt beam="1">  1       -3 0.20197858E-03 0.20000220E+02</pdfrwt>
<totfact> 0.15009633E+06</totfact>
</mgrwt>
</event>
<event>
 5    1  0.4133473E-007  0.2000031E+02  0.7818608E-02  0.1745322E+00
         -3   -1    0    0    0  501 -0.00000000000E+00  0.00000000000E+00  0.77126350357E+01  0.77131957186E+01  0.93000000000E-01 0. -1.
          3   -1    0    0  501    0  0.00000000000E+00 -0.00000000000E+00 -0.12964942489E+02  0.12965276038E+02  0.93000000000E-01 0.  1.
       1023    2    1    2    0    0  0.00000000000E+00  0.00000000000E+00 -0.52523074536E+01  0.20678471757E+02  0.20000311513E+02 0.  0.
        -11    1    3    3    0    0  0.64846182631E+01  0.76126695444E+01 -0.26156464344E+01  0.10336567039E+02  0.51100000000E-03 0. -1.
         11    1    3    3    0    0 -0.64846182631E+01 -0.76126695444E+01 -0.26366610192E+01  0.10341904718E+02  0.51100000000E-03 0.  1.
<mgrwt>
<rscale>  0 0.20000312E+02</rscale>
<asrwt>0</asrwt>
<pdfrwt beam="2">  1        3 0.19946753E-02 0.20000312E+02</pdfrwt>
<pdfrwt beam="1">  1       -3 0.11866280E-02 0.20000312E+02</pdfrwt>
<totfact> 0.17840487E+06</totfact>
</mgrwt>
</event>
<event>
 5    1  0.4133473E-007  0.2000436E+02  0.7818608E-02  0.1745241E+00
          3   -1    0    0  501    0  0.00000000000E+00  0.00000000000E+00  0.55972939891E+02  0.55973017151E+02  0.93000000000E-01 0. -1.
         -3   -1    0    0    0  501 -0.00000000000E+00 -0.00000000000E+00 -0.17860689489E+01  0.17884885491E+01  0.93000000000E-01 0.  1.
       1023    2    1    2    0    0  0.00000000000E+00  0.00000000000E+00  0.54186870942E+02  0.57761505700E+02  0.20004363481E+02 0.  0.
        -11    1    3    3    0    0  0.85214363096E+01  0.52339545773E+01  0.26557256103E+02  0.28377755537E+02  0.51100000000E-03 0.  1.
         11    1    3    3    0    0 -0.85214363096E+01 -0.52339545773E+01  0.27629614839E+02  0.29383750164E+02  0.51100000000E-03 0. -1.
<mgrwt>
<rscale>  0 0.20004363E+02</rscale>
<asrwt>0</asrwt>
<pdfrwt beam="1">  1        3 0.86114145E-02 0.20004363E+02</pdfrwt>
<pdfrwt beam="2">  1       -3 0.27497187E-03 0.20004363E+02</pdfrwt>
<totfact> 0.15836837E+06</totfact>
</mgrwt>
</event>
<event>
 5    1  0.4133473E-007  0.2000011E+02  0.7818608E-02  0.1745326E+00
         -3   -1    0    0    0  501 -0.00000000000E+00  0.00000000000E+00  0.85086362813E+01  0.85091445145E+01  0.93000000000E-01 0.  1.
          3   -1    0    0  501    0  0.00000000000E+00 -0.00000000000E+00 -0.11751852124E+02  0.11752220102E+02  0.93000000000E-01 0. -1.
       1023    2    1    2    0    0  0.00000000000E+00  0.00000000000E+00 -0.32432158422E+01  0.20261364617E+02  0.20000111178E+02 0.  0.
        -11    1    3    3    0    0 -0.99471830042E+01 -0.10267526479E+01 -0.16428774787E+01  0.10134086905E+02  0.51100000000E-03 0. -1.
         11    1    3    3    0    0  0.99471830042E+01  0.10267526479E+01 -0.16003383635E+01  0.10127277712E+02  0.51100000000E-03 0.  1.
<mgrwt>
<rscale>  0 0.20000111E+02</rscale>
<asrwt>0</asrwt>
<pdfrwt beam="2">  1        3 0.18080447E-02 0.20000111E+02</pdfrwt>
<pdfrwt beam="1">  1       -3 0.13090884E-02 0.20000111E+02</pdfrwt>
<totfact> 0.17868159E+06</totfact>
</mgrwt>
</event>
<event>
 5    1  0.4133473E-007  0.2000001E+02  0.7818608E-02  0.1745328E+00
          3   -1    0    0  501    0  0.00000000000E+00  0.00000000000E+00  0.53801372987E+02  0.53801453366E+02  0.93000000000E-01 0.  1.
         -3   -1    0    0    0  501 -0.00000000000E+00 -0.00000000000E+00 -0.18574455383E+01  0.18597722784E+01  0.93000000000E-01 0. -1.
       1023    2    1    2    0    0  0.00000000000E+00  0.00000000000E+00  0.51943927449E+02  0.55661225644E+02  0.20000011036E+02 0.  0.
        -11    1    3    3    0    0  0.10106763483E+01  0.99487990453E+01  0.25954149794E+02  0.27813988583E+02  0.51100000000E-03 0. -1.
         11    1    3    3    0    0 -0.10106763483E+01 -0.99487990453E+01  0.25989777655E+02  0.27847237061E+02  0.51100000000E-03 0.  1.
<mgrwt>
<rscale>  0 0.20000011E+02</rscale>
<asrwt>0</asrwt>
<pdfrwt beam="1">  1        3 0.82773185E-02 0.20000011E+02</pdfrwt>
<pdfrwt beam="2">  1       -3 0.28594605E-03 0.20000011E+02</pdfrwt>
<totfact> 0.15940214E+06</totfact>
</mgrwt>
</event>
<event>
 5    1  0.4133473E-007  0.2000237E+02  0.7818608E-02  0.1745281E+00
          3   -1    0    0  501    0  0.00000000000E+00  0.00000000000E+00  0.20776063968E+02  0.20776272115E+02  0.93000000000E-01 0. -1.
         -3   -1    0    0    0  501 -0.00000000000E+00 -0.00000000000E+00 -0.48136920954E+01  0.48145903864E+01  0.93000000000E-01 0.  1.
       1023    2    1    2    0    0  0.00000000000E+00  0.00000000000E+00  0.15962371872E+02  0.25590862501E+02  0.20002373053E+02 0.  0.
        -11    1    3    3    0    0 -0.67650999306E+01  0.73657336769E+01  0.79097000043E+01  0.12750841701E+02  0.51100000000E-03 0.  1.
         11    1    3    3    0    0  0.67650999306E+01 -0.73657336769E+01  0.80526718679E+01  0.12840020800E+02  0.51100000000E-03 0. -1.
<mgrwt>
<rscale>  0 0.20002373E+02</rscale>
<asrwt>0</asrwt>
<pdfrwt beam="1">  1        3 0.31964026E-02 0.20002373E+02</pdfrwt>
<pdfrwt beam="2">  1       -3 0.74065314E-03 0.20002373E+02</pdfrwt>
<totfact> 0.17525722E+06</totfact>
</mgrwt>
</event>
<event>
 5    1  0.4133473E-007  0.2000073E+02  0.7818608E-02  0.1745314E+00
          3   -1    0    0  501    0  0.00000000000E+00  0.00000000000E+00  0.32030218357E+02  0.32030353370E+02  0.93000000000E-01 0. -1.
         -3   -1    0    0    0  501 -0.00000000000E+00 -0.00000000000E+00 -0.31214459522E+01  0.31228310605E+01  0.93000000000E-01 0.  1.
       1023    2    1    2    0    0  0.00000000000E+00  0.00000000000E+00  0.28908772405E+02  0.35153184430E+02  0.20000731328E+02 0.  0.
        -11    1    3    3    0    0 -0.99474106521E+01  0.10261329742E+01  0.14556653247E+02  0.17660693123E+02  0.51100000000E-03 0. -1.
         11    1    3    3    0    0  0.99474106521E+01 -0.10261329742E+01  0.14352119158E+02  0.17492491307E+02  0.51100000000E-03 0.  1.
<mgrwt>
<rscale>  0 0.20000731E+02</rscale>
<asrwt>0</asrwt>
<pdfrwt beam="1">  1        3 0.49278426E-02 0.20000731E+02</pdfrwt>
<pdfrwt beam="2">  1       -3 0.48033941E-03 0.20000731E+02</pdfrwt>
<totfact> 0.16972237E+06</totfact>
</mgrwt>
</event>
<event>
 5    1  0.4160863E-007  0.2000096E+02  0.7818608E-02  0.1745309E+00
         -3   -1    0    0    0  501 -0.00000000000E+00  0.00000000000E+00  0.53664996282E+01  0.53673054003E+01  0.93000000000E-01 0.  1.
          3   -1    0    0  501    0  0.00000000000E+00 -0.00000000000E+00 -0.18633582636E+02  0.18633814715E+02  0.93000000000E-01 0. -1.
       1023    2    1    2    0    0  0.00000000000E+00  0.00000000000E+00 -0.13267083008E+02  0.24001120116E+02  0.20000956859E+02 0.  0.
        -11    1    3    3    0    0 -0.96211807049E+01 -0.27278809945E+01 -0.66736236343E+01  0.12022716230E+02  0.51100000000E-03 0. -1.
         11    1    3    3    0    0  0.96211807049E+01  0.27278809945E+01 -0.65934593734E+01  0.11978403886E+02  0.51100000000E-03 0.  1.
<mgrwt>
<rscale>  0 0.20000957E+02</rscale>
<asrwt>0</asrwt>
<pdfrwt beam="2">  1        3 0.28667848E-02 0.20000957E+02</pdfrwt>
<pdfrwt beam="1">  1       -3 0.82569517E-03 0.20000957E+02</pdfrwt>
<totfact> 0.17626943E+06</totfact>
</mgrwt>
</event>
<event>
 4    1  0.4133473E-007  0.2007159E+02  0.7818608E-02  0.1743908E+00
         -3   -1    0    0    0  501 -0.00000000000E+00  0.00000000000E+00  0.11878435653E+01  0.11914786341E+01  0.93000000000E-01 0. -1.
          3   -1    0    0  501    0  0.00000000000E+00 -0.00000000000E+00 -0.84656704163E+02  0.84656755246E+02  0.93000000000E-01 0.  1.
        -11    1    1    2    0    0  0.66934238309E+01 -0.74697649749E+01 -0.43202611312E+02  0.44351605786E+02  0.51100000000E-03 0. -1.
         11    1    1    2    0    0 -0.66934238309E+01  0.74697649749E+01 -0.40266249286E+02  0.41496628094E+02  0.51100000000E-03 0.  1.
<mgrwt>
<rscale>  0 0.20071586E+02</rscale>
<asrwt>0</asrwt>
<pdfrwt beam="2">  1        3 0.13024387E-01 0.20071586E+02</pdfrwt>
<pdfrwt beam="1">  1       -3 0.18302878E-03 0.20071586E+02</pdfrwt>
<totfact> 0.14575867E+06</totfact>
</mgrwt>
</event>
<event>
 5    1  0.4133473E-007  0.2000048E+02  0.7818608E-02  0.1745318E+00
          3   -1    0    0  501    0  0.00000000000E+00  0.00000000000E+00  0.37243649267E+01  0.37255258833E+01  0.93000000000E-01 0. -1.
         -3   -1    0    0    0  501 -0.00000000000E+00 -0.00000000000E+00 -0.26846089749E+02  0.26846250834E+02  0.93000000000E-01 0.  1.
       1023    2    1    2    0    0  0.00000000000E+00  0.00000000000E+00 -0.23121724823E+02  0.30571776717E+02  0.20000484316E+02 0.  0.
        -11    1    3    3    0    0  0.35542680526E+01  0.93472770904E+01 -0.11529071447E+02  0.15261844550E+02  0.51100000000E-03 0.  1.
         11    1    3    3    0    0 -0.35542680526E+01 -0.93472770904E+01 -0.11592653376E+02  0.15309932167E+02  0.51100000000E-03 0. -1.
<mgrwt>
<rscale>  0 0.20000484E+02</rscale>
<asrwt>0</asrwt>
<pdfrwt beam="1">  1        3 0.57308093E-03 0.20000484E+02</pdfrwt>
<pdfrwt beam="2">  1       -3 0.41302692E-02 0.20000484E+02</pdfrwt>
<totfact> 0.17233966E+06</totfact>
</mgrwt>
</event>
<event>
 5    1  0.4133473E-007  0.2000771E+02  0.7818608E-02  0.1745175E+00
          3   -1    0    0  501    0  0.00000000000E+00  0.00000000000E+00  0.18614340191E+02  0.18614572511E+02  0.93000000000E-01 0.  1.
         -3   -1    0    0    0  501 -0.00000000000E+00 -0.00000000000E+00 -0.53756783196E+01  0.53764827161E+01  0.93000000000E-01 0. -1.
       1023    2    1    2    0    0  0.00000000000E+00  0.00000000000E+00  0.13238661872E+02  0.23991055227E+02  0.20007712582E+02 0.  0.
        -11    1    3    3    0    0  0.72879950490E+01 -0.68488182285E+01  0.63356821547E+01  0.11839005515E+02  0.51100000000E-03 0. -1.
         11    1    3    3    0    0 -0.72879950490E+01  0.68488182285E+01  0.69029797171E+01  0.12152049712E+02  0.51100000000E-03 0.  1.
<mgrwt>
<rscale>  0 0.20007713E+02</rscale>
<asrwt>0</asrwt>
<pdfrwt beam="1">  1        3 0.28638244E-02 0.20007713E+02</pdfrwt>
<pdfrwt beam="2">  1       -3 0.82710718E-03 0.20007713E+02</pdfrwt>
<totfact> 0.17614756E+06</totfact>
</mgrwt>
</event>
<event>
 4    1  0.4133473E-007  0.2005227E+02  0.7818608E-02  0.1744291E+00
          3   -1    0    0  501    0  0.00000000000E+00  0.00000000000E+00  0.16822660166E+02  0.16822917228E+02  0.93000000000E-01 0. -1.
         -3   -1    0    0    0  501 -0.00000000000E+00 -0.00000000000E+00 -0.59748079551E+01  0.59755317002E+01  0.93000000000E-01 0.  1.
        -11    1    1    2    0    0 -0.98201764769E+01  0.20173490888E+01  0.55755305243E+01  0.11471360175E+02  0.51100000000E-03 0.  1.
         11    1    1    2    0    0  0.98201764769E+01 -0.20173490888E+01  0.52723216863E+01  0.11327088753E+02  0.51100000000E-03 0. -1.
<mgrwt>
<rscale>  0 0.20052266E+02</rscale>
<asrwt>0</asrwt>
<pdfrwt beam="1">  1        3 0.25881770E-02 0.20052266E+02</pdfrwt>
<pdfrwt beam="2">  1       -3 0.91927669E-03 0.20052266E+02</pdfrwt>
<totfact> 0.17605232E+06</totfact>
</mgrwt>
</event>
<event>
 5    1  0.4133473E-007  0.2000042E+02  0.7818608E-02  0.1745320E+00
          3   -1    0    0  501    0  0.00000000000E+00  0.00000000000E+00  0.49861922906E+02  0.49862009635E+02  0.93000000000E-01 0.  1.
         -3   -1    0    0    0  501 -0.00000000000E+00 -0.00000000000E+00 -0.20044550831E+01  0.20066113675E+01  0.93000000000E-01 0. -1.
       1023    2    1    2    0    0  0.00000000000E+00  0.00000000000E+00  0.47857467823E+02  0.51868621003E+02  0.20000415454E+02 0.  0.
        -11    1    3    3    0    0  0.97840037943E+01  0.20672053240E+01  0.24094511865E+02  0.26087268358E+02  0.51100000000E-03 0.  1.
         11    1    3    3    0    0 -0.97840037943E+01 -0.20672053240E+01  0.23762955958E+02  0.25781352645E+02  0.51100000000E-03 0. -1.
<mgrwt>
<rscale>  0 0.20000415E+02</rscale>
<asrwt>0</asrwt>
<pdfrwt beam="1">  1        3 0.76712379E-02 0.20000415E+02</pdfrwt>
<pdfrwt beam="2">  1       -3 0.30855023E-03 0.20000415E+02</pdfrwt>
<totfact> 0.16116969E+06</totfact>
</mgrwt>
</event>
<event>
 5    1  0.4188968E-007  0.2000163E+02  0.7818608E-02  0.1745296E+00
         -3   -1    0    0    0  501 -0.00000000000E+00  0.00000000000E+00  0.50661915513E+01  0.50670450792E+01  0.93000000000E-01 0.  1.
          3   -1    0    0  501    0  0.00000000000E+00 -0.00000000000E+00 -0.19739281222E+02  0.19739500302E+02  0.93000000000E-01 0. -1.
       1023    2    1    2    0    0  0.00000000000E+00  0.00000000000E+00 -0.14673089671E+02  0.24806545381E+02  0.20001628265E+02 0.  0.
        -11    1    3    3    0    0  0.46724205059E+01 -0.88418492990E+01 -0.72367806678E+01  0.12344262113E+02  0.51100000000E-03 0. -1.
         11    1    3    3    0    0 -0.46724205059E+01  0.88418492990E+01 -0.74363090028E+01  0.12462283268E+02  0.51100000000E-03 0.  1.
<mgrwt>
<rscale>  0 0.20001628E+02</rscale>
<asrwt>0</asrwt>
<pdfrwt beam="2">  1        3 0.30368950E-02 0.20001628E+02</pdfrwt>
<pdfrwt beam="1">  1       -3 0.77949661E-03 0.20001628E+02</pdfrwt>
<totfact> 0.17575513E+06</totfact>
</mgrwt>
</event>
<event>
 5    1  0.4133473E-007  0.2000042E+02  0.7818608E-02  0.1745320E+00
          3   -1    0    0  501    0  0.00000000000E+00  0.00000000000E+00  0.26517713137E+02  0.26517876216E+02  0.93000000000E-01 0. -1.
         -3   -1    0    0    0  501 -0.00000000000E+00 -0.00000000000E+00 -0.37704736693E+01  0.37716204330E+01  0.93000000000E-01 0.  1.
       1023    2    1    2    0    0  0.00000000000E+00  0.00000000000E+00  0.22747239468E+02  0.30289496649E+02  0.20000417592E+02 0.  0.
        -11    1    3    3    0    0 -0.79544928586E+01  0.60602801517E+01  0.11459604203E+02  0.15209322171E+02  0.51100000000E-03 0. -1.
         11    1    3    3    0    0  0.79544928586E+01 -0.60602801517E+01  0.11287635264E+02  0.15080174478E+02  0.51100000000E-03 0.  1.
<mgrwt>
<rscale>  0 0.20000418E+02</rscale>
<asrwt>0</asrwt>
<pdfrwt beam="1">  1        3 0.40797489E-02 0.20000418E+02</pdfrwt>
<pdfrwt beam="2">  1       -3 0.58017363E-03 0.20000418E+02</pdfrwt>
<totfact> 0.17248756E+06</totfact>
</mgrwt>
</event>
<event>
 5    1  0.4133473E-007  0.2000023E+02  0.7818608E-02  0.1745324E+00
          3   -1    0    0  501    0  0.00000000000E+00  0.00000000000E+00  0.66269426394E+02  0.66269491650E+02  0.93000000000E-01 0. -1.
         -3   -1    0    0    0  501 -0.00000000000E+00 -0.00000000000E+00 -0.15075267017E+01  0.15103925835E+01  0.93000000000E-01 0.  1.
       1023    2    1    2    0    0  0.00000000000E+00  0.00000000000E+00  0.64761899692E+02  0.67779884233E+02  0.20000226374E+02 0.  0.
        -11    1    3    3    0    0 -0.88897514838E+00  0.99605209353E+01  0.32370575327E+02  0.33880029536E+02  0.51100000000E-03 0.  1.
         11    1    3    3    0    0  0.88897514838E+00 -0.99605209353E+01  0.32391324365E+02  0.33899854697E+02  0.51100000000E-03 0. -1.
<mgrwt>
<rscale>  0 0.20000226E+02</rscale>
<asrwt>0</asrwt>
<pdfrwt beam="1">  1        3 0.10195519E-01 0.20000226E+02</pdfrwt>
<pdfrwt beam="2">  1       -3 0.23215271E-03 0.20000226E+02</pdfrwt>
<totfact> 0.15405636E+06</totfact>
</mgrwt>
</event>
<event>
 5    1  0.4133473E-007  0.2000438E+02  0.7818608E-02  0.1745241E+00
         -3   -1    0    0    0  501 -0.00000000000E+00  0.00000000000E+00  0.57183689791E+01  0.57191251762E+01  0.93000000000E-01 0.  1.
          3   -1    0    0  501    0  0.00000000000E+00 -0.00000000000E+00 -0.17493124800E+02  0.17493372009E+02  0.93000000000E-01 0. -1.
       1023    2    1    2    0    0  0.00000000000E+00  0.00000000000E+00 -0.11774755821E+02  0.23212497186E+02  0.20004378295E+02 0.  0.
        -11    1    3    3    0    0  0.99965183343E+01  0.30064548697E+00 -0.60634370287E+01  0.11695556224E+02  0.51100000000E-03 0. -1.
         11    1    3    3    0    0 -0.99965183343E+01 -0.30064548697E+00 -0.57113187919E+01  0.11516940962E+02  0.51100000000E-03 0.  1.
<mgrwt>
<rscale>  0 0.20004378E+02</rscale>
<asrwt>0</asrwt>
<pdfrwt beam="2">  1        3 0.26913271E-02 0.20004378E+02</pdfrwt>
<pdfrwt beam="1">  1       -3 0.87982627E-03 0.20004378E+02</pdfrwt>
<totfact> 0.17669943E+06</totfact>
</mgrwt>
</event>
<event>
 4    1  0.4133473E-007  0.2001505E+02  0.7818608E-02  0.1745029E+00
         -3   -1    0    0    0  501 -0.00000000000E+00  0.00000000000E+00  0.89575951201E+00  0.90057431862E+00  0.93000000000E-01 0. -1.
          3   -1    0    0  501    0  0.00000000000E+00 -0.00000000000E+00 -0.11150062349E+03  0.11150066228E+03  0.93000000000E-01 0.  1.
        -11    1    1    2    0    0  0.92504104487E+01  0.38081166618E+01 -0.53727324508E+02  0.54650683847E+02  0.51100000000E-03 0.  1.
         11    1    1    2    0    0 -0.92504104487E+01 -0.38081166618E+01 -0.56877539474E+02  0.57750552749E+02  0.51100000000E-03 0. -1.
<mgrwt>
<rscale>  0 0.20015046E+02</rscale>
<asrwt>0</asrwt>
<pdfrwt beam="2">  1        3 0.17154304E-01 0.20015046E+02</pdfrwt>
<pdfrwt beam="1">  1       -3 0.13818260E-03 0.20015046E+02</pdfrwt>
<totfact> 0.13740476E+06</totfact>
</mgrwt>
</event>
<event>
 5    1  0.4133473E-007  0.2000065E+02  0.7818608E-02  0.1745315E+00
         -3   -1    0    0    0  501 -0.00000000000E+00  0.00000000000E+00  0.33067720630E+01  0.33080795753E+01  0.93000000000E-01 0.  1.
          3   -1    0    0  501    0  0.00000000000E+00 -0.00000000000E+00 -0.30235567187E+02  0.30235710213E+02  0.93000000000E-01 0. -1.
       1023    2    1    2    0    0  0.00000000000E+00  0.00000000000E+00 -0.26928795124E+02  0.33543789788E+02  0.20000645654E+02 0.  0.
        -11    1    3    3    0    0 -0.60274906983E+01 -0.79795916091E+01 -0.13390717792E+02  0.16712745125E+02  0.51100000000E-03 0.  1.
         11    1    3    3    0    0  0.60274906983E+01  0.79795916091E+01 -0.13538077332E+02  0.16831044664E+02  0.51100000000E-03 0. -1.
<mgrwt>
<rscale>  0 0.20000646E+02</rscale>
<asrwt>0</asrwt>
<pdfrwt beam="2">  1        3 0.46517371E-02 0.20000646E+02</pdfrwt>
<pdfrwt beam="1">  1       -3 0.50884576E-03 0.20000646E+02</pdfrwt>
<totfact> 0.17062138E+06</totfact>
</mgrwt>
</event>
<event>
 5    1  0.4379041E-007  0.2000123E+02  0.7818608E-02  0.1745304E+00
          3   -1    0    0  501    0  0.00000000000E+00  0.00000000000E+00  0.14135724124E+02  0.14136030048E+02  0.93000000000E-01 0.  1.
         -3   -1    0    0    0  501 -0.00000000000E+00 -0.00000000000E+00 -0.70744572231E+01  0.70750684804E+01  0.93000000000E-01 0. -1.
       1023    2    1    2    0    0  0.00000000000E+00  0.00000000000E+00  0.70612669010E+01  0.21211098528E+02  0.20001230225E+02 0.  0.
        -11    1    3    3    0    0 -0.30496034637E+01  0.95238901041E+01  0.34373442885E+01  0.10574492897E+02  0.51100000000E-03 0. -1.
         11    1    3    3    0    0  0.30496034637E+01 -0.95238901041E+01  0.36239226125E+01  0.10636605632E+02  0.51100000000E-03 0.  1.
<mgrwt>
<rscale>  0 0.20001230E+02</rscale>
<asrwt>0</asrwt>
<pdfrwt beam="1">  1        3 0.21747973E-02 0.20001230E+02</pdfrwt>
<pdfrwt beam="2">  1       -3 0.10884486E-02 0.20001230E+02</pdfrwt>
<totfact> 0.17803975E+06</totfact>
</mgrwt>
</event>
<event>
 5    1  0.4133473E-007  0.2000245E+02  0.7818608E-02  0.1745279E+00
          3   -1    0    0  501    0  0.00000000000E+00  0.00000000000E+00  0.31333814039E+02  0.31333952053E+02  0.93000000000E-01 0. -1.
         -3   -1    0    0    0  501 -0.00000000000E+00 -0.00000000000E+00 -0.31914012769E+01  0.31927560368E+01  0.93000000000E-01 0.  1.
       1023    2    1    2    0    0  0.00000000000E+00  0.00000000000E+00  0.28142412762E+02  0.34526708090E+02  0.20002454235E+02 0.  0.
        -11    1    3    3    0    0 -0.89202081928E+01 -0.45214794181E+01  0.14249367603E+02  0.17408571672E+02  0.51100000000E-03 0.  1.
         11    1    3    3    0    0  0.89202081928E+01  0.45214794181E+01  0.13893045160E+02  0.17118136417E+02  0.51100000000E-03 0. -1.
<mgrwt>
<rscale>  0 0.20002454E+02</rscale>
<asrwt>0</asrwt>
<pdfrwt beam="1">  1        3 0.48207015E-02 0.20002454E+02</pdfrwt>
<pdfrwt beam="2">  1       -3 0.49109965E-03 0.20002454E+02</pdfrwt>
<totfact> 0.17003839E+06</totfact>
</mgrwt>
</event>
<event>
 5    1  0.4133473E-007  0.2000922E+02  0.7818608E-02  0.1745145E+00
         -3   -1    0    0    0  501 -0.00000000000E+00  0.00000000000E+00  0.22556542198E+01  0.22575705879E+01  0.93000000000E-01 0.  1.
          3   -1    0    0  501    0  0.00000000000E+00 -0.00000000000E+00 -0.44353130235E+02  0.44353227737E+02  0.93000000000E-01 0. -1.
       1023    2    1    2    0    0  0.00000000000E+00  0.00000000000E+00 -0.42097476015E+02  0.46610798324E+02  0.20009223713E+02 0.  0.
        -11    1    3    3    0    0  0.13118430226E+01 -0.99177318218E+01 -0.20816707213E+02  0.23095835903E+02  0.51100000000E-03 0. -1.
         11    1    3    3    0    0 -0.13118430226E+01  0.99177318218E+01 -0.21280768803E+02  0.23514962422E+02  0.51100000000E-03 0.  1.
<mgrwt>
<rscale>  0 0.20009224E+02</rscale>
<asrwt>0</asrwt>
<pdfrwt beam="2">  1        3 0.68237128E-02 0.20009224E+02</pdfrwt>
<pdfrwt beam="1">  1       -3 0.34717867E-03 0.20009224E+02</pdfrwt>
<totfact> 0.16357030E+06</totfact>
</mgrwt>
</event>
<event>
 5    1  0.4133473E-007  0.2000119E+02  0.7818608E-02  0.1745304E+00
          3   -1    0    0  501    0  0.00000000000E+00  0.00000000000E+00  0.10499461811E+01  0.10540569165E+01  0.93000000000E-01 0.  1.
         -3   -1    0    0    0  501 -0.00000000000E+00 -0.00000000000E+00 -0.95064057429E+02  0.95064102919E+02  0.93000000000E-01 0. -1.
       1023    2    1    2    0    0  0.00000000000E+00  0.00000000000E+00 -0.94014111248E+02  0.96118159836E+02  0.20001188378E+02 0.  0.
        -11    1    3    3    0    0 -0.49419748891E+01 -0.86941797040E+01 -0.47020073080E+02  0.48071812419E+02  0.51100000000E-03 0.  1.
         11    1    3    3    0    0  0.49419748891E+01  0.86941797040E+01 -0.46994038168E+02  0.48046347417E+02  0.51100000000E-03 0. -1.
<mgrwt>
<rscale>  0 0.20001188E+02</rscale>
<asrwt>0</asrwt>
<pdfrwt beam="1">  1        3 0.16184997E-03 0.20001188E+02</pdfrwt>
<pdfrwt beam="2">  1       -3 0.14625553E-01 0.20001188E+02</pdfrwt>
<totfact> 0.14314905E+06</totfact>
</mgrwt>
</event>
<event>
 5    1  0.4243445E-007  0.2000252E+02  0.7818608E-02  0.1745278E+00
         -3   -1    0    0    0  501 -0.00000000000E+00  0.00000000000E+00  0.12954822182E+02  0.12955155991E+02  0.93000000000E-01 0. -1.
          3   -1    0    0  501    0  0.00000000000E+00 -0.00000000000E+00 -0.77203672550E+01  0.77209273764E+01  0.93000000000E-01 0.  1.
       1023    2    1    2    0    0  0.00000000000E+00  0.00000000000E+00  0.52344549268E+01  0.20676083368E+02  0.20002522467E+02 0.  0.
        -11    1    3    3    0    0  0.34228652747E+01 -0.93963936547E+01  0.27520242262E+01  0.10372167469E+02  0.51100000000E-03 0.  1.
         11    1    3    3    0    0 -0.34228652747E+01  0.93963936547E+01  0.24824307005E+01  0.10303915899E+02  0.51100000000E-03 0. -1.
<mgrwt>
<rscale>  0 0.20002522E+02</rscale>
<asrwt>0</asrwt>
<pdfrwt beam="2">  1        3 0.11878176E-02 0.20002522E+02</pdfrwt>
<pdfrwt beam="1">  1       -3 0.19931183E-02 0.20002522E+02</pdfrwt>
<totfact> 0.17836853E+06</totfact>
</mgrwt>
</event>
<event>
 5    1  0.4133473E-007  0.2000033E+02  0.7818608E-02  0.1745321E+00
          3   -1    0    0  501    0  0.00000000000E+00  0.00000000000E+00  0.13792813659E+02  0.13793127189E+02  0.93000000000E-01 0.  1.
         -3   -1    0    0    0  501 -0.00000000000E+00 -0.00000000000E+00 -0.72496984871E+01  0.72502949701E+01  0.93000000000E-01 0. -1.
       1023    2    1    2    0    0  0.00000000000E+00  0.00000000000E+00  0.65431151722E+01  0.21043422159E+02  0.20000331497E+02 0.  0.
        -11    1    3    3    0    0 -0.97636211949E+01  0.21621599205E+01  0.32809904958E+01  0.10524644092E+02  0.51100000000E-03 0.  1.
         11    1    3    3    0    0  0.97636211949E+01 -0.21621599205E+01  0.32621246764E+01  0.10518778067E+02  0.51100000000E-03 0. -1.
<mgrwt>
<rscale>  0 0.20000331E+02</rscale>
<asrwt>0</asrwt>
<pdfrwt beam="1">  1        3 0.21220413E-02 0.20000331E+02</pdfrwt>
<pdfrwt beam="2">  1       -3 0.11154082E-02 0.20000331E+02</pdfrwt>
<totfact> 0.17816604E+06</totfact>
</mgrwt>
</event>
<event>
 5    1  0.4328245E-007  0.2000084E+02  0.7818608E-02  0.1745311E+00
          3   -1    0    0  501    0  0.00000000000E+00  0.00000000000E+00  0.65986735719E+01  0.65993288984E+01  0.93000000000E-01 0.  1.
         -3   -1    0    0    0  501 -0.00000000000E+00 -0.00000000000E+00 -0.15154277633E+02  0.15154562995E+02  0.93000000000E-01 0. -1.
       1023    2    1    2    0    0  0.00000000000E+00  0.00000000000E+00 -0.85556040610E+01  0.21753891894E+02  0.20000836274E+02 0.  0.
        -11    1    3    3    0    0 -0.77627497111E+01  0.63043989520E+01 -0.43336168928E+01  0.10898897415E+02  0.51100000000E-03 0.  1.
         11    1    3    3    0    0  0.77627497111E+01 -0.63043989520E+01 -0.42219871682E+01  0.10854994479E+02  0.51100000000E-03 0. -1.
<mgrwt>
<rscale>  0 0.20000836E+02</rscale>
<asrwt>0</asrwt>
<pdfrwt beam="1">  1        3 0.10152529E-02 0.20000836E+02</pdfrwt>
<pdfrwt beam="2">  1       -3 0.23314997E-02 0.20000836E+02</pdfrwt>
<totfact> 0.17770387E+06</totfact>
</mgrwt>
</event>
<event>
 5    1  0.4217599E-007  0.2000130E+02  0.7818608E-02  0.1745302E+00
         -3   -1    0    0    0  501 -0.00000000000E+00  0.00000000000E+00  0.98436854861E+01  0.98441247935E+01  0.93000000000E-01 0.  1.
          3   -1    0    0  501    0  0.00000000000E+00 -0.00000000000E+00 -0.10159233659E+02  0.10159659322E+02  0.93000000000E-01 0. -1.
       1023    2    1    2    0    0  0.00000000000E+00  0.00000000000E+00 -0.31554817330E+00  0.20003784116E+02  0.20001295166E+02 0.  0.
        -11    1    3    3    0    0 -0.93744119559E+01  0.34831067582E+01 -0.12144317330E+00  0.10001318959E+02  0.51100000000E-03 0. -1.
         11    1    3    3    0    0  0.93744119559E+01 -0.34831067582E+01 -0.19410500000E+00  0.10002465157E+02  0.51100000000E-03 0.  1.
<mgrwt>
<rscale>  0 0.20001295E+02</rscale>
<asrwt>0</asrwt>
<pdfrwt beam="2">  1        3 0.15630256E-02 0.20001295E+02</pdfrwt>
<pdfrwt beam="1">  1       -3 0.15144797E-02 0.20001295E+02</pdfrwt>
<totfact> 0.17882872E+06</totfact>
</mgrwt>
</event>
<event>
 5    1  0.4133473E-007  0.2000167E+02  0.7818608E-02  0.1745295E+00
          3   -1    0    0  501    0  0.00000000000E+00  0.00000000000E+00  0.11977491776E+01  0.12013542743E+01  0.93000000000E-01 0. -1.
         -3   -1    0    0    0  501 -0.00000000000E+00 -0.00000000000E+00 -0.83374764906E+02  0.83374816774E+02  0.93000000000E-01 0.  1.
       1023    2    1    2    0    0  0.00000000000E+00  0.00000000000E+00 -0.82177015728E+02  0.84576171049E+02  0.20001669811E+02 0.  0.
        -11    1    3    3    0    0 -0.41789006978E+01  0.90852019953E+01 -0.40614011796E+02  0.41827049391E+02  0.51100000000E-03 0.  1.
         11    1    3    3    0    0  0.41789006978E+01 -0.90852019953E+01 -0.41563003932E+02  0.42749121657E+02  0.51100000000E-03 0. -1.
<mgrwt>
<rscale>  0 0.20001670E+02</rscale>
<asrwt>0</asrwt>
<pdfrwt beam="1">  1        3 0.18455047E-03 0.20001670E+02</pdfrwt>
<pdfrwt beam="2">  1       -3 0.12827164E-01 0.20001670E+02</pdfrwt>
<totfact> 0.14736344E+06</totfact>
</mgrwt>
</event>
<event>
 5    1  0.4133473E-007  0.2000021E+02  0.7818608E-02  0.1745324E+00
         -3   -1    0    0    0  501 -0.00000000000E+00  0.00000000000E+00  0.16278644128E+02  0.16278909780E+02  0.93000000000E-01 0.  1.
          3   -1    0    0  501    0  0.00000000000E+00 -0.00000000000E+00 -0.61424791997E+01  0.61431831911E+01  0.93000000000E-01 0. -1.
       1023    2    1    2    0    0  0.00000000000E+00  0.00000000000E+00  0.10136164928E+02  0.22422092971E+02  0.20000210343E+02 0.  0.
        -11    1    3    3    0    0  0.90234072871E+01 -0.43104761035E+01  0.50730802940E+01  0.11213305812E+02  0.51100000000E-03 0.  1.
         11    1    3    3    0    0 -0.90234072871E+01  0.43104761035E+01  0.50630846339E+01  0.11208787159E+02  0.51100000000E-03 0. -1.
<mgrwt>
<rscale>  0 0.20000210E+02</rscale>
<asrwt>0</asrwt>
<pdfrwt beam="2">  1        3 0.94507140E-03 0.20000210E+02</pdfrwt>
<pdfrwt beam="1">  1       -3 0.25044813E-02 0.20000210E+02</pdfrwt>
<totfact> 0.17728923E+06</totfact>
</mgrwt>
</event>
<event>
 5    1  0.4133473E-007  0.2000315E+02  0.7818608E-02  0.1745265E+00
          3   -1    0    0  501    0  0.00000000000E+00  0.00000000000E+00  0.24412393834E+01  0.24430101775E+01  0.93000000000E-01 0. -1.
         -3   -1    0    0    0  501 -0.00000000000E+00 -0.00000000000E+00 -0.40959022145E+02  0.40959127726E+02  0.93000000000E-01 0.  1.
       1023    2    1    2    0    0  0.00000000000E+00  0.00000000000E+00 -0.38517782762E+02  0.43402137904E+02  0.20003149395E+02 0.  0.
        -11    1    3    3    0    0 -0.81044210781E+01  0.58606088505E+01 -0.19137713143E+02  0.21593527774E+02  0.51100000000E-03 0. -1.
         11    1    3    3    0    0  0.81044210781E+01 -0.58606088505E+01 -0.19380069619E+02  0.21808610130E+02  0.51100000000E-03 0.  1.
<mgrwt>
<rscale>  0 0.20003149E+02</rscale>
<asrwt>0</asrwt>
<pdfrwt beam="1">  1        3 0.37571966E-03 0.20003149E+02</pdfrwt>
<pdfrwt beam="2">  1       -3 0.63015318E-02 0.20003149E+02</pdfrwt>
<totfact> 0.16531913E+06</totfact>
</mgrwt>
</event>
<event>
 4    1  0.4133473E-007  0.2012662E+02  0.7818608E-02  0.1742822E+00
          3   -1    0    0  501    0  0.00000000000E+00  0.00000000000E+00  0.10432965106E+03  0.10432969251E+03  0.93000000000E-01 0.  1.
         -3   -1    0    0    0  501 -0.00000000000E+00 -0.00000000000E+00 -0.96840590176E+00  0.97286123911E+00  0.93000000000E-01 0. -1.
        -11    1    1    2    0    0  0.47689899460E+01  0.88614713767E+01  0.51866785123E+02  0.52834007413E+02  0.51100000000E-03 0. -1.
         11    1    1    2    0    0 -0.47689899460E+01 -0.88614713767E+01  0.51494460030E+02  0.52468546331E+02  0.51100000000E-03 0.  1.
<mgrwt>
<rscale>  0 0.20126620E+02</rscale>
<asrwt>0</asrwt>
<pdfrwt beam="1">  1        3 0.16051061E-01 0.20126620E+02</pdfrwt>
<pdfrwt beam="2">  1       -3 0.14933144E-03 0.20126620E+02</pdfrwt>
<totfact> 0.13808674E+06</totfact>
</mgrwt>
</event>
<event>
 4    1  0.4133473E-007  0.2008266E+02  0.7818608E-02  0.1743689E+00
         -3   -1    0    0    0  501 -0.00000000000E+00  0.00000000000E+00  0.10048051240E+03  0.10048055543E+03  0.93000000000E-01 0. -1.
          3   -1    0    0  501    0  0.00000000000E+00 -0.00000000000E+00 -0.10012635808E+01  0.10055733481E+01  0.93000000000E-01 0.  1.
        -11    1    1    2    0    0 -0.98893806494E+01 -0.15109155307E+01  0.45375997366E+02  0.46465727720E+02  0.51100000000E-03 0.  1.
         11    1    1    2    0    0  0.98893806494E+01  0.15109155307E+01  0.54103251450E+02  0.55020401062E+02  0.51100000000E-03 0. -1.
<mgrwt>
<rscale>  0 0.20082664E+02</rscale>
<asrwt>0</asrwt>
<pdfrwt beam="2">  1        3 0.15437530E-03 0.20082664E+02</pdfrwt>
<pdfrwt beam="1">  1       -3 0.15458883E-01 0.20082664E+02</pdfrwt>
<totfact> 0.14005019E+06</totfact>
</mgrwt>
</event>
<event>
 5    1  0.4214804E-007  0.2000092E+02  0.7818608E-02  0.1745310E+00
         -3   -1    0    0    0  501 -0.00000000000E+00  0.00000000000E+00  0.19661386223E+02  0.19661606171E+02  0.93000000000E-01 0. -1.
          3   -1    0    0  501    0  0.00000000000E+00 -0.00000000000E+00 -0.50859067758E+01  0.50867569956E+01  0.93000000000E-01 0.  1.
       1023    2    1    2    0    0  0.00000000000E+00  0.00000000000E+00  0.14575479448E+02  0.24748363167E+02  0.20000921936E+02 0.  0.
        -11    1    3    3    0    0  0.10389762956E+00 -0.99999182847E+01  0.72972357839E+01  0.12379774261E+02  0.51100000000E-03 0. -1.
         11    1    3    3    0    0 -0.10389762956E+00  0.99999182847E+01  0.72782436638E+01  0.12368588905E+02  0.51100000000E-03 0.  1.
<mgrwt>
<rscale>  0 0.20000922E+02</rscale>
<asrwt>0</asrwt>
<pdfrwt beam="2">  1        3 0.78252953E-03 0.20000922E+02</pdfrwt>
<pdfrwt beam="1">  1       -3 0.30249109E-02 0.20000922E+02</pdfrwt>
<totfact> 0.17581651E+06</totfact>
</mgrwt>
</event>
<event>
 5    1  0.4133473E-007  0.2000009E+02  0.7818608E-02  0.1745326E+00
          3   -1    0    0  501    0  0.00000000000E+00  0.00000000000E+00  0.77740854370E+02  0.77740909997E+02  0.93000000000E-01 0.  1.
         -3   -1    0    0    0  501 -0.00000000000E+00 -0.00000000000E+00 -0.12845992711E+01  0.12879612911E+01  0.93000000000E-01 0. -1.
       1023    2    1    2    0    0  0.00000000000E+00  0.00000000000E+00  0.76456255099E+02  0.79028871288E+02  0.20000088833E+02 0.  0.
        -11    1    3    3    0    0 -0.69837074970E+01  0.71574195489E+01  0.38196745720E+02  0.39484075383E+02  0.51100000000E-03 0. -1.
         11    1    3    3    0    0  0.69837074970E+01 -0.71574195489E+01  0.38259509379E+02  0.39544795906E+02  0.51100000000E-03 0.  1.
<mgrwt>
<rscale>  0 0.20000089E+02</rscale>
<asrwt>0</asrwt>
<pdfrwt beam="1">  1        3 0.11960396E-01 0.20000089E+02</pdfrwt>
<pdfrwt beam="2">  1       -3 0.19789353E-03 0.20000089E+02</pdfrwt>
<totfact> 0.14949131E+06</totfact>
</mgrwt>
</event>
<event>
 5    1  0.4133473E-007  0.2000072E+02  0.7818608E-02  0.1745314E+00
         -3   -1    0    0    0  501 -0.00000000000E+00  0.00000000000E+00  0.36756228647E+02  0.36756346301E+02  0.93000000000E-01 0.  1.
          3   -1    0    0  501    0  0.00000000000E+00 -0.00000000000E+00 -0.27199072858E+01  0.27214967652E+01  0.93000000000E-01 0. -1.
       1023    2    1    2    0    0  0.00000000000E+00  0.00000000000E+00  0.34036321362E+02  0.39477843066E+02  0.20000723020E+02 0.  0.
        -11    1    3    3    0    0  0.69751656215E+01 -0.71657195965E+01  0.16855907284E+02  0.19599032716E+02  0.51100000000E-03 0. -1.
         11    1    3    3    0    0 -0.69751656215E+01  0.71657195965E+01  0.17180414078E+02  0.19878810350E+02  0.51100000000E-03 0.  1.
<mgrwt>
<rscale>  0 0.20000723E+02</rscale>
<asrwt>0</asrwt>
<pdfrwt beam="2">  1        3 0.41857859E-03 0.20000723E+02</pdfrwt>
<pdfrwt beam="1">  1       -3 0.56549357E-02 0.20000723E+02</pdfrwt>
<totfact> 0.16740342E+06</totfact>
</mgrwt>
</event>
<event>
 5    1  0.4133473E-007  0.2000094E+02  0.7818608E-02  0.1745309E+00
          3   -1    0    0  501    0  0.00000000000E+00  0.00000000000E+00  0.95168146435E+00  0.95621472986E+00  0.93000000000E-01 0.  1.
         -3   -1    0    0    0  501 -0.00000000000E+00 -0.00000000000E+00 -0.10483278883E+03  0.10483283008E+03  0.93000000000E-01 0. -1.
       1023    2    1    2    0    0  0.00000000000E+00  0.00000000000E+00 -0.10388110736E+03  0.10578904481E+03  0.20000938342E+02 0.  0.
        -11    1    3    3    0    0 -0.99284693877E+01 -0.11977483936E+01 -0.51852399797E+02  0.52807958402E+02  0.51100000000E-03 0.  1.
         11    1    3    3    0    0  0.99284693877E+01  0.11977483936E+01 -0.52028707565E+02  0.52981086406E+02  0.51100000000E-03 0. -1.
<mgrwt>
<rscale>  0 0.20000938E+02</rscale>
<asrwt>0</asrwt>
<pdfrwt beam="1">  1        3 0.14676450E-03 0.20000938E+02</pdfrwt>
<pdfrwt beam="2">  1       -3 0.16128464E-01 0.20000938E+02</pdfrwt>
<totfact> 0.13982126E+06</totfact>
</mgrwt>
</event>
<event>
 5    1  0.4133473E-007  0.2000034E+02  0.7818608E-02  0.1745321E+00
          3   -1    0    0  501    0  0.00000000000E+00  0.00000000000E+00  0.17434432742E+02  0.17434680784E+02  0.93000000000E-01 0.  1.
         -3   -1    0    0    0  501 -0.00000000000E+00 -0.00000000000E+00 -0.57353060859E+01  0.57360600501E+01  0.93000000000E-01 0. -1.
       1023    2    1    2    0    0  0.00000000000E+00  0.00000000000E+00  0.11699126656E+02  0.23170740834E+02  0.20000341654E+02 0.  0.
        -11    1    3    3    0    0  0.76038799152E+01 -0.64947734393E+01  0.57934676746E+01  0.11557047190E+02  0.51100000000E-03 0. -1.
         11    1    3    3    0    0 -0.76038799152E+01  0.64947734393E+01  0.59056589816E+01  0.11613693644E+02  0.51100000000E-03 0.  1.
<mgrwt>
<rscale>  0 0.20000342E+02</rscale>
<asrwt>0</asrwt>
<pdfrwt beam="1">  1        3 0.26822974E-02 0.20000342E+02</pdfrwt>
<pdfrwt beam="2">  1       -3 0.88243188E-03 0.20000342E+02</pdfrwt>
<totfact> 0.17680261E+06</totfact>
</mgrwt>
</event>
<event>
 4    1  0.4133473E-007  0.2001768E+02  0.7818608E-02  0.1744977E+00
          3   -1    0    0  501    0  0.00000000000E+00  0.00000000000E+00  0.36754228655E+01  0.36765992765E+01  0.93000000000E-01 0. -1.
         -3   -1    0    0    0  501 -0.00000000000E+00 -0.00000000000E+00 -0.27250258870E+02  0.27250417565E+02  0.93000000000E-01 0.  1.
        -11    1    1    2    0    0 -0.90749315820E+01  0.42209116414E+01 -0.11910929487E+02  0.15557657915E+02  0.51100000000E-03 0.  1.
         11    1    1    2    0    0  0.90749315820E+01 -0.42209116414E+01 -0.11663906517E+02  0.15369358926E+02  0.51100000000E-03 0. -1.
<mgrwt>
<rscale>  0 0.20017679E+02</rscale>
<asrwt>0</asrwt>
<pdfrwt beam="1">  1        3 0.56555239E-03 0.20017679E+02</pdfrwt>
<pdfrwt beam="2">  1       -3 0.41924501E-02 0.20017679E+02</pdfrwt>
<totfact> 0.17181646E+06</totfact>
</mgrwt>
</event>
<event>
 5    1  0.4133473E-007  0.2000067E+02  0.7818608E-02  0.1745315E+00
          3   -1    0    0  501    0  0.00000000000E+00  0.00000000000E+00  0.24635354154E+01  0.24652901944E+01  0.93000000000E-01 0.  1.
         -3   -1    0    0    0  501 -0.00000000000E+00 -0.00000000000E+00 -0.40578530255E+02  0.40578636826E+02  0.93000000000E-01 0. -1.
       1023    2    1    2    0    0  0.00000000000E+00  0.00000000000E+00 -0.38114994840E+02  0.43043927021E+02  0.20000670532E+02 0.  0.
        -11    1    3    3    0    0 -0.26328956239E+01 -0.96475149741E+01 -0.19067271296E+02  0.21530618186E+02  0.51100000000E-03 0.  1.
         11    1    3    3    0    0  0.26328956239E+01  0.96475149741E+01 -0.19047723544E+02  0.21513308835E+02  0.51100000000E-03 0. -1.
<mgrwt>
<rscale>  0 0.20000671E+02</rscale>
<asrwt>0</asrwt>
<pdfrwt beam="1">  1        3 0.37914866E-03 0.20000671E+02</pdfrwt>
<pdfrwt beam="2">  1       -3 0.62429935E-02 0.20000671E+02</pdfrwt>
<totfact> 0.16554673E+06</totfact>
</mgrwt>
</event>
<event>
 5    1  0.4133473E-007  0.2000047E+02  0.7818608E-02  0.1745319E+00
          3   -1    0    0  501    0  0.00000000000E+00  0.00000000000E+00  0.15334272352E+02  0.15334554365E+02  0.93000000000E-01 0.  1.
         -3   -1    0    0    0  501 -0.00000000000E+00 -0.00000000000E+00 -0.65209723758E+01  0.65216355100E+01  0.93000000000E-01 0. -1.
       1023    2    1    2    0    0  0.00000000000E+00  0.00000000000E+00  0.88132999762E+01  0.21856189875E+02  0.20000469479E+02 0.  0.
        -11    1    3    3    0    0  0.97551457068E+00 -0.99525385806E+01  0.43995927668E+01  0.10925249180E+02  0.51100000000E-03 0.  1.
         11    1    3    3    0    0 -0.97551457068E+00  0.99525385806E+01  0.44137072094E+01  0.10930940694E+02  0.51100000000E-03 0. -1.
<mgrwt>
<rscale>  0 0.20000469E+02</rscale>
<asrwt>0</asrwt>
<pdfrwt beam="1">  1        3 0.23591916E-02 0.20000469E+02</pdfrwt>
<pdfrwt beam="2">  1       -3 0.10032992E-02 0.20000469E+02</pdfrwt>
<totfact> 0.17763776E+06</totfact>
</mgrwt>
</event>
<event>
 5    1  0.4133473E-007  0.2000622E+02  0.7818608E-02  0.1745205E+00
          3   -1    0    0  501    0  0.00000000000E+00  0.00000000000E+00  0.48696373582E+01  0.48705253311E+01  0.93000000000E-01 0. -1.
         -3   -1    0    0    0  501 -0.00000000000E+00 -0.00000000000E+00 -0.20545309371E+02  0.20545519856E+02  0.93000000000E-01 0.  1.
       1023    2    1    2    0    0  0.00000000000E+00  0.00000000000E+00 -0.15675672013E+02  0.25416045187E+02  0.20006215532E+02 0.  0.
        -11    1    3    3    0    0 -0.89341675966E+01 -0.44989958451E+01 -0.77831870027E+01  0.12674317119E+02  0.51100000000E-03 0. -1.
         11    1    3    3    0    0  0.89341675966E+01  0.44989958451E+01 -0.78924850103E+01  0.12741728068E+02  0.51100000000E-03 0.  1.
<mgrwt>
<rscale>  0 0.20006216E+02</rscale>
<asrwt>0</asrwt>
<pdfrwt beam="1">  1        3 0.74925948E-03 0.20006216E+02</pdfrwt>
<pdfrwt beam="2">  1       -3 0.31609013E-02 0.20006216E+02</pdfrwt>
<totfact> 0.17530480E+06</totfact>
</mgrwt>
</event>
<event>
 5    1  0.4133473E-007  0.2000069E+02  0.7818608E-02  0.1745314E+00
          3   -1    0    0  501    0  0.00000000000E+00  0.00000000000E+00  0.70849367414E+02  0.70849428452E+02  0.93000000000E-01 0. -1.
         -3   -1    0    0    0  501 -0.00000000000E+00 -0.00000000000E+00 -0.14099488277E+01  0.14130126315E+01  0.93000000000E-01 0.  1.
       1023    2    1    2    0    0  0.00000000000E+00  0.00000000000E+00  0.69439418587E+02  0.72262441084E+02  0.20000688432E+02 0.  0.
        -11    1    3    3    0    0 -0.21378018344E+01 -0.97691700901E+01  0.34713206981E+02  0.36124972251E+02  0.51100000000E-03 0.  1.
         11    1    3    3    0    0  0.21378018344E+01  0.97691700901E+01  0.34726211606E+02  0.36137468833E+02  0.51100000000E-03 0. -1.
<mgrwt>
<rscale>  0 0.20000688E+02</rscale>
<asrwt>0</asrwt>
<pdfrwt beam="1">  1        3 0.10900143E-01 0.20000688E+02</pdfrwt>
<pdfrwt beam="2">  1       -3 0.21715558E-03 0.20000688E+02</pdfrwt>
<totfact> 0.15218690E+06</totfact>
</mgrwt>
</event>
<event>
 5    1  0.4133473E-007  0.2000021E+02  0.7818608E-02  0.1745324E+00
         -3   -1    0    0    0  501 -0.00000000000E+00  0.00000000000E+00  0.70252359261E+02  0.70252420818E+02  0.93000000000E-01 0.  1.
          3   -1    0    0  501    0  0.00000000000E+00 -0.00000000000E+00 -0.14218886694E+01  0.14249268010E+01  0.93000000000E-01 0. -1.
       1023    2    1    2    0    0  0.00000000000E+00  0.00000000000E+00  0.68830470592E+02  0.71677347619E+02  0.20000211993E+02 0.  0.
        -11    1    3    3    0    0 -0.72873858709E+01 -0.68480142400E+01  0.34312121864E+02  0.35739655831E+02  0.51100000000E-03 0.  1.
         11    1    3    3    0    0  0.72873858709E+01  0.68480142400E+01  0.34518348728E+02  0.35937691788E+02  0.51100000000E-03 0. -1.
<mgrwt>
<rscale>  0 0.20000212E+02</rscale>
<asrwt>0</asrwt>
<pdfrwt beam="2">  1        3 0.21899061E-03 0.20000212E+02</pdfrwt>
<pdfrwt beam="1">  1       -3 0.10808290E-01 0.20000212E+02</pdfrwt>
<totfact> 0.15246334E+06</totfact>
</mgrwt>
</event>
<event>
 5    1  0.4133473E-007  0.2000041E+02  0.7818608E-02  0.1745320E+00
          3   -1    0    0  501    0  0.00000000000E+00  0.00000000000E+00  0.27300310835E+01  0.27316146721E+01  0.93000000000E-01 0. -1.
         -3   -1    0    0    0  501 -0.00000000000E+00 -0.00000000000E+00 -0.36618863973E+02  0.36618982068E+02  0.93000000000E-01 0.  1.
       1023    2    1    2    0    0  0.00000000000E+00  0.00000000000E+00 -0.33888832889E+02  0.39350596740E+02  0.20000411725E+02 0.  0.
        -11    1    3    3    0    0 -0.99687102790E+01 -0.79245084458E+00 -0.16883644821E+02  0.19622961694E+02  0.51100000000E-03 0. -1.
         11    1    3    3    0    0  0.99687102790E+01  0.79245084458E+00 -0.17005188069E+02  0.19727635045E+02  0.51100000000E-03 0.  1.
<mgrwt>
<rscale>  0 0.20000412E+02</rscale>
<asrwt>0</asrwt>
<pdfrwt beam="1">  1        3 0.42013571E-03 0.20000412E+02</pdfrwt>
<pdfrwt beam="2">  1       -3 0.56338019E-02 0.20000412E+02</pdfrwt>
<totfact> 0.16747645E+06</totfact>
</mgrwt>
</event>
<event>
 5    1  0.4287950E-007  0.2000071E+02  0.7818608E-02  0.1745314E+00
          3   -1    0    0  501    0  0.00000000000E+00  0.00000000000E+00  0.11274559903E+02  0.11274943459E+02  0.93000000000E-01 0. -1.
         -3   -1    0    0    0  501 -0.00000000000E+00 -0.00000000000E+00 -0.88693764501E+01  0.88698640133E+01  0.93000000000E-01 0.  1.
       1023    2    1    2    0    0  0.00000000000E+00  0.00000000000E+00  0.24051834531E+01  0.20144807473E+02  0.20000709004E+02 0.  0.
        -11    1    3    3    0    0  0.11544795658E+01 -0.99333705338E+01  0.11530778407E+01  0.10066492040E+02  0.51100000000E-03 0. -1.
         11    1    3    3    0    0 -0.11544795658E+01  0.99333705338E+01  0.12521056123E+01  0.10078315432E+02  0.51100000000E-03 0.  1.
<mgrwt>
<rscale>  0 0.20000709E+02</rscale>
<asrwt>0</asrwt>
<pdfrwt beam="1">  1        3 0.17346147E-02 0.20000709E+02</pdfrwt>
<pdfrwt beam="2">  1       -3 0.13645865E-02 0.20000709E+02</pdfrwt>
<totfact> 0.17874708E+06</totfact>
</mgrwt>
</event>
<event>
 5    1  0.4133473E-007  0.2000334E+02  0.7818608E-02  0.1745262E+00
          3   -1    0    0  501    0  0.00000000000E+00  0.00000000000E+00  0.16798185483E+01  0.16823909638E+01  0.93000000000E-01 0. -1.
         -3   -1    0    0    0  501 -0.00000000000E+00 -0.00000000000E+00 -0.59501943888E+02  0.59502016567E+02  0.93000000000E-01 0.  1.
       1023    2    1    2    0    0  0.00000000000E+00  0.00000000000E+00 -0.57822125340E+02  0.61184407530E+02  0.20003338371E+02 0.  0.
        -11    1    3    3    0    0  0.66075434489E+00 -0.99792539981E+01 -0.29235914024E+02  0.30899203481E+02  0.51100000000E-03 0. -1.
         11    1    3    3    0    0 -0.66075434489E+00  0.99792539981E+01 -0.28586211316E+02  0.30285204050E+02  0.51100000000E-03 0.  1.
<mgrwt>
<rscale>  0 0.20003338E+02</rscale>
<asrwt>0</asrwt>
<pdfrwt beam="1">  1        3 0.25863714E-03 0.20003338E+02</pdfrwt>
<pdfrwt beam="2">  1       -3 0.91543470E-02 0.20003338E+02</pdfrwt>
<totfact> 0.15688138E+06</totfact>
</mgrwt>
</event>
<event>
 5    1  0.4343008E-007  0.2000109E+02  0.7818608E-02  0.1745306E+00
         -3   -1    0    0    0  501 -0.00000000000E+00  0.00000000000E+00  0.18157559161E+02  0.18157797325E+02  0.93000000000E-01 0.  1.
          3   -1    0    0  501    0  0.00000000000E+00 -0.00000000000E+00 -0.55072817753E+01  0.55080669524E+01  0.93000000000E-01 0. -1.
       1023    2    1    2    0    0  0.00000000000E+00  0.00000000000E+00  0.12650277386E+02  0.23665864277E+02  0.20001090321E+02 0.  0.
        -11    1    3    3    0    0 -0.90775568159E+01 -0.41962120251E+01  0.63557691071E+01  0.11849305225E+02  0.51100000000E-03 0. -1.
         11    1    3    3    0    0  0.90775568159E+01  0.41962120251E+01  0.62945082787E+01  0.11816559052E+02  0.51100000000E-03 0.  1.
<mgrwt>
<rscale>  0 0.20001090E+02</rscale>
<asrwt>0</asrwt>
<pdfrwt beam="2">  1        3 0.84735284E-03 0.20001090E+02</pdfrwt>
<pdfrwt beam="1">  1       -3 0.27935494E-02 0.20001090E+02</pdfrwt>
<totfact> 0.17648725E+06</totfact>
</mgrwt>
</event>
<event>
 4    1  0.4133473E-007  0.2008325E+02  0.7818608E-02  0.1743678E+00
          3   -1    0    0  501    0  0.00000000000E+00  0.00000000000E+00  0.97065966120E+01  0.97070421236E+01  0.93000000000E-01 0. -1.
         -3   -1    0    0    0  501 -0.00000000000E+00 -0.00000000000E+00 -0.10387324825E+02  0.10387741142E+02  0.93000000000E-01 0.  1.
        -11    1    1    2    0    0  0.17711997458E+01 -0.98766897029E+01 -0.72540012746E+00  0.10060435062E+02  0.51100000000E-03 0. -1.
         11    1    1    2    0    0 -0.17711997458E+01  0.98766897029E+01  0.44671914252E-01  0.10034348203E+02  0.51100000000E-03 0.  1.
<mgrwt>
<rscale>  0 0.20083250E+02</rscale>
<asrwt>0</asrwt>
<pdfrwt beam="1">  1        3 0.14933889E-02 0.20083250E+02</pdfrwt>
<pdfrwt beam="2">  1       -3 0.15981163E-02 0.20083250E+02</pdfrwt>
<totfact> 0.17720047E+06</totfact>
</mgrwt>
</event>
<event>
 5    1  0.4455237E-007  0.2000103E+02  0.7818608E-02  0.1745308E+00
          3   -1    0    0  501    0  0.00000000000E+00  0.00000000000E+00  0.16430115425E+02  0.16430378629E+02  0.93000000000E-01 0. -1.
         -3   -1    0    0    0  501 -0.00000000000E+00 -0.00000000000E+00 -0.60863461647E+01  0.60870566481E+01  0.93000000000E-01 0.  1.
       1023    2    1    2    0    0  0.00000000000E+00  0.00000000000E+00  0.10343769261E+02  0.22517435277E+02  0.20001033197E+02 0.  0.
        -11    1    3    3    0    0  0.99606407128E+01 -0.88668771201E+00  0.50606996960E+01  0.11207642936E+02  0.51100000000E-03 0.  1.
         11    1    3    3    0    0 -0.99606407128E+01  0.88668771201E+00  0.52830695646E+01  0.11309792341E+02  0.51100000000E-03 0. -1.
<mgrwt>
<rscale>  0 0.20001033E+02</rscale>
<asrwt>0</asrwt>
<pdfrwt beam="1">  1        3 0.25277850E-02 0.20001033E+02</pdfrwt>
<pdfrwt beam="2">  1       -3 0.93643585E-03 0.20001033E+02</pdfrwt>
<totfact> 0.17720405E+06</totfact>
</mgrwt>
</event>
<event>
 5    1  0.4133473E-007  0.2000014E+02  0.7818608E-02  0.1745325E+00
          3   -1    0    0  501    0  0.00000000000E+00  0.00000000000E+00  0.33749863075E+02  0.33749991209E+02  0.93000000000E-01 0.  1.
         -3   -1    0    0    0  501 -0.00000000000E+00 -0.00000000000E+00 -0.29621517926E+01  0.29636113514E+01  0.93000000000E-01 0. -1.
       1023    2    1    2    0    0  0.00000000000E+00  0.00000000000E+00  0.30787711282E+02  0.36713602560E+02  0.20000136173E+02 0.  0.
        -11    1    3    3    0    0 -0.69687205525E+01  0.71720441323E+01  0.15410098585E+02  0.18370422473E+02  0.51100000000E-03 0. -1.
         11    1    3    3    0    0  0.69687205525E+01 -0.71720441323E+01  0.15377612697E+02  0.18343180087E+02  0.51100000000E-03 0.  1.
<mgrwt>
<rscale>  0 0.20000136E+02</rscale>
<asrwt>0</asrwt>
<pdfrwt beam="1">  1        3 0.51924088E-02 0.20000136E+02</pdfrwt>
<pdfrwt beam="2">  1       -3 0.45583778E-03 0.20000136E+02</pdfrwt>
<totfact> 0.16887734E+06</totfact>
</mgrwt>
</event>
<event>
 5    1  0.4133473E-007  0.2000028E+02  0.7818608E-02  0.1745323E+00
         -3   -1    0    0    0  501 -0.00000000000E+00  0.00000000000E+00  0.10175356955E+02  0.10175781943E+02  0.93000000000E-01 0.  1.
          3   -1    0    0  501    0  0.00000000000E+00 -0.00000000000E+00 -0.98270891653E+01  0.98275292146E+01  0.93000000000E-01 0. -1.
       1023    2    1    2    0    0  0.00000000000E+00  0.00000000000E+00  0.34826778933E+00  0.20003311158E+02  0.20000279169E+02 0.  0.
        -11    1    3    3    0    0 -0.56092979422E+01  0.82787948769E+01  0.18524529413E+00  0.10001849034E+02  0.51100000000E-03 0.  1.
         11    1    3    3    0    0  0.56092979422E+01 -0.82787948769E+01  0.16302249520E+00  0.10001462124E+02  0.51100000000E-03 0. -1.
<mgrwt>
<rscale>  0 0.20000279E+02</rscale>
<asrwt>0</asrwt>
<pdfrwt beam="2">  1        3 0.15119264E-02 0.20000279E+02</pdfrwt>
<pdfrwt beam="1">  1       -3 0.15655061E-02 0.20000279E+02</pdfrwt>
<totfact> 0.17884891E+06</totfact>
</mgrwt>
</event>
<event>
 5    1  0.4215628E-007  0.2000127E+02  0.7818608E-02  0.1745303E+00
          3   -1    0    0  501    0  0.00000000000E+00  0.00000000000E+00  0.32000783031E+01  0.32014293911E+01  0.93000000000E-01 0. -1.
         -3   -1    0    0    0  501 -0.00000000000E+00 -0.00000000000E+00 -0.31245202686E+02  0.31245341091E+02  0.93000000000E-01 0.  1.
       1023    2    1    2    0    0  0.00000000000E+00  0.00000000000E+00 -0.28045124383E+02  0.34446770482E+02  0.20001274834E+02 0.  0.
        -11    1    3    3    0    0  0.52444910722E+00  0.99867611504E+01 -0.14105217400E+02  0.17290679666E+02  0.51100000000E-03 0.  1.
         11    1    3    3    0    0 -0.52444910722E+00 -0.99867611504E+01 -0.13939906983E+02  0.17156090816E+02  0.51100000000E-03 0. -1.
<mgrwt>
<rscale>  0 0.20001275E+02</rscale>
<asrwt>0</asrwt>
<pdfrwt beam="1">  1        3 0.49243434E-03 0.20001275E+02</pdfrwt>
<pdfrwt beam="2">  1       -3 0.48070686E-02 0.20001275E+02</pdfrwt>
<totfact> 0.17012413E+06</totfact>
</mgrwt>
</event>
<event>
 5    1  0.4133473E-007  0.2000033E+02  0.7818608E-02  0.1745322E+00
         -3   -1    0    0    0  501 -0.00000000000E+00  0.00000000000E+00  0.10435742649E+03  0.10435746793E+03  0.93000000000E-01 0. -1.
          3   -1    0    0  501    0  0.00000000000E+00 -0.00000000000E+00 -0.95597869290E+00  0.96049167684E+00  0.93000000000E-01 0.  1.
       1023    2    1    2    0    0  0.00000000000E+00  0.00000000000E+00  0.10340144780E+03  0.10531795961E+03  0.20000330224E+02 0.  0.
        -11    1    3    3    0    0  0.53585301238E+01 -0.84433026284E+01  0.51752757703E+02  0.52710066728E+02  0.51100000000E-03 0. -1.
         11    1    3    3    0    0 -0.53585301238E+01  0.84433026284E+01  0.51648690095E+02  0.52607892879E+02  0.51100000000E-03 0.  1.
<mgrwt>
<rscale>  0 0.20000330E+02</rscale>
<asrwt>0</asrwt>
<pdfrwt beam="2">  1        3 0.14742410E-03 0.20000330E+02</pdfrwt>
<pdfrwt beam="1">  1       -3 0.16055327E-01 0.20000330E+02</pdfrwt>
<totfact> 0.13998873E+06</totfact>
</mgrwt>
</event>
<event>
 5    1  0.4209140E-007  0.2000073E+02  0.7818608E-02  0.1745313E+00
         -3   -1    0    0    0  501 -0.00000000000E+00  0.00000000000E+00  0.10550018106E+02  0.10550428003E+02  0.93000000000E-01 0.  1.
          3   -1    0    0  501    0  0.00000000000E+00 -0.00000000000E+00 -0.94785306367E+01  0.94789868673E+01  0.93000000000E-01 0. -1.
       1023    2    1    2    0    0  0.00000000000E+00  0.00000000000E+00  0.10714874693E+01  0.20029414870E+02  0.20000734352E+02 0.  0.
        -11    1    3    3    0    0 -0.37525044327E+01 -0.92695784336E+01  0.56692586600E+00  0.10016375545E+02  0.51100000000E-03 0.  1.
         11    1    3    3    0    0  0.37525044327E+01  0.92695784336E+01  0.50456160330E+00  0.10013039325E+02  0.51100000000E-03 0. -1.
<mgrwt>
<rscale>  0 0.20000734E+02</rscale>
<asrwt>0</asrwt>
<pdfrwt beam="2">  1        3 0.14583021E-02 0.20000734E+02</pdfrwt>
<pdfrwt beam="1">  1       -3 0.16231463E-02 0.20000734E+02</pdfrwt>
<totfact> 0.17882348E+06</totfact>
</mgrwt>
</event>
<event>
 5    1  0.4281739E-007  0.2000117E+02  0.7818608E-02  0.1745305E+00
          3   -1    0    0  501    0  0.00000000000E+00  0.00000000000E+00  0.58995370546E+01  0.59002700327E+01  0.93000000000E-01 0.  1.
         -3   -1    0    0    0  501 -0.00000000000E+00 -0.00000000000E+00 -0.16950558251E+02  0.16950813373E+02  0.93000000000E-01 0. -1.
       1023    2    1    2    0    0  0.00000000000E+00  0.00000000000E+00 -0.11051021196E+02  0.22851083406E+02  0.20001173549E+02 0.  0.
        -11    1    3    3    0    0 -0.98102633555E+01 -0.19395992599E+01 -0.54206555442E+01  0.11374832710E+02  0.51100000000E-03 0.  1.
         11    1    3    3    0    0  0.98102633555E+01  0.19395992599E+01 -0.56303656518E+01  0.11476250696E+02  0.51100000000E-03 0. -1.
<mgrwt>
<rscale>  0 0.20001174E+02</rscale>
<asrwt>0</asrwt>
<pdfrwt beam="1">  1        3 0.90769710E-03 0.20001174E+02</pdfrwt>
<pdfrwt beam="2">  1       -3 0.26078542E-02 0.20001174E+02</pdfrwt>
<totfact> 0.17699847E+06</totfact>
</mgrwt>
</event>
<event>
 5    1  0.4133473E-007  0.2000010E+02  0.7818608E-02  0.1745326E+00
         -3   -1    0    0    0  501 -0.00000000000E+00  0.00000000000E+00  0.11045506211E+03  0.11045510126E+03  0.93000000000E-01 0. -1.
          3   -1    0    0  501    0  0.00000000000E+00 -0.00000000000E+00 -0.90292671022E+00  0.90770350007E+00  0.93000000000E-01 0.  1.
       1023    2    1    2    0    0  0.00000000000E+00  0.00000000000E+00  0.10955213540E+03  0.11136280476E+03  0.20000097843E+02 0.  0.
        -11    1    3    3    0    0  0.78884345618E+01 -0.61460213313E+01  0.54778093852E+02  0.55683395589E+02  0.51100000000E-03 0.  1.
         11    1    3    3    0    0 -0.78884345618E+01  0.61460213313E+01  0.54774041546E+02  0.55679409171E+02  0.51100000000E-03 0. -1.
<mgrwt>
<rscale>  0 0.20000098E+02</rscale>
<asrwt>0</asrwt>
<pdfrwt beam="2">  1        3 0.13928227E-03 0.20000098E+02</pdfrwt>
<pdfrwt beam="1">  1       -3 0.16993455E-01 0.20000098E+02</pdfrwt>
<totfact> 0.13798999E+06</totfact>
</mgrwt>
</event>
<event>
 5    1  0.4133473E-007  0.2000130E+02  0.7818608E-02  0.1745302E+00
          3   -1    0    0  501    0  0.00000000000E+00  0.00000000000E+00  0.30333624515E+01  0.30347877623E+01  0.93000000000E-01 0. -1.
         -3   -1    0    0    0  501 -0.00000000000E+00 -0.00000000000E+00 -0.32961778611E+02  0.32961909809E+02  0.93000000000E-01 0.  1.
       1023    2    1    2    0    0  0.00000000000E+00  0.00000000000E+00 -0.29928416160E+02  0.35996697571E+02  0.20001303512E+02 0.  0.
        -11    1    3    3    0    0 -0.79695927453E+01 -0.60411902089E+01 -0.15056812524E+02  0.18075342080E+02  0.51100000000E-03 0. -1.
         11    1    3    3    0    0  0.79695927453E+01  0.60411902089E+01 -0.14871603636E+02  0.17921355491E+02  0.51100000000E-03 0.  1.
<mgrwt>
<rscale>  0 0.20001304E+02</rscale>
<asrwt>0</asrwt>
<pdfrwt beam="1">  1        3 0.46679090E-03 0.20001304E+02</pdfrwt>
<pdfrwt beam="2">  1       -3 0.50711623E-02 0.20001304E+02</pdfrwt>
<totfact> 0.16926812E+06</totfact>
</mgrwt>
</event>
<event>
 4    1  0.4133473E-007  0.2003615E+02  0.7818608E-02  0.1744610E+00
          3   -1    0    0  501    0  0.00000000000E+00  0.00000000000E+00  0.24927557966E+01  0.24944900203E+01  0.93000000000E-01 0. -1.
         -3   -1    0    0    0  501 -0.00000000000E+00 -0.00000000000E+00 -0.40245617994E+02  0.40245725447E+02  0.93000000000E-01 0.  1.
        -11    1    1    2    0    0  0.97377348452E+01  0.23493225740E+01 -0.19170905224E+02  0.21630219690E+02  0.51100000000E-03 0. -1.
         11    1    1    2    0    0 -0.97377348452E+01 -0.23493225740E+01 -0.18581956974E+02  0.21109995777E+02  0.51100000000E-03 0.  1.
<mgrwt>
<rscale>  0 0.20036153E+02</rscale>
<asrwt>0</asrwt>
<pdfrwt beam="1">  1        3 0.38364259E-03 0.20036153E+02</pdfrwt>
<pdfrwt beam="2">  1       -3 0.61917747E-02 0.20036153E+02</pdfrwt>
<totfact> 0.16507275E+06</totfact>
</mgrwt>
</event>
<event>
 5    1  0.4133473E-007  0.2000517E+02  0.7818608E-02  0.1745225E+00
          3   -1    0    0  501    0  0.00000000000E+00  0.00000000000E+00  0.29385054666E+01  0.29399767647E+01  0.93000000000E-01 0. -1.
         -3   -1    0    0    0  501 -0.00000000000E+00 -0.00000000000E+00 -0.34038448397E+02  0.34038575444E+02  0.93000000000E-01 0.  1.
       1023    2    1    2    0    0  0.00000000000E+00  0.00000000000E+00 -0.31099942930E+02  0.36978552209E+02  0.20005171161E+02 0.  0.
        -11    1    3    3    0    0  0.98374529114E+01  0.18037283184E+01 -0.15270846955E+02  0.18254524990E+02  0.51100000000E-03 0. -1.
         11    1    3    3    0    0 -0.98374529114E+01 -0.18037283184E+01 -0.15829095975E+02  0.18724027219E+02  0.51100000000E-03 0.  1.
<mgrwt>
<rscale>  0 0.20005171E+02</rscale>
<asrwt>0</asrwt>
<pdfrwt beam="1">  1        3 0.45220074E-03 0.20005171E+02</pdfrwt>
<pdfrwt beam="2">  1       -3 0.52368070E-02 0.20005171E+02</pdfrwt>
<totfact> 0.16866298E+06</totfact>
</mgrwt>
</event>
<event>
 5    1  0.4133473E-007  0.2000039E+02  0.7818608E-02  0.1745320E+00
          3   -1    0    0  501    0  0.00000000000E+00  0.00000000000E+00  0.56673667123E+01  0.56681297137E+01  0.93000000000E-01 0.  1.
         -3   -1    0    0    0  501 -0.00000000000E+00 -0.00000000000E+00 -0.17643501211E+02  0.17643746314E+02  0.93000000000E-01 0. -1.
       1023    2    1    2    0    0  0.00000000000E+00  0.00000000000E+00 -0.11976134499E+02  0.23311876028E+02  0.20000394156E+02 0.  0.
        -11    1    3    3    0    0  0.89735079441E+01  0.44135432599E+01 -0.60196111387E+01  0.11672143224E+02  0.51100000000E-03 0. -1.
         11    1    3    3    0    0 -0.89735079441E+01 -0.44135432599E+01 -0.59565233604E+01  0.11639732803E+02  0.51100000000E-03 0.  1.
<mgrwt>
<rscale>  0 0.20000394E+02</rscale>
<asrwt>0</asrwt>
<pdfrwt beam="1">  1        3 0.87198012E-03 0.20000394E+02</pdfrwt>
<pdfrwt beam="2">  1       -3 0.27144623E-02 0.20000394E+02</pdfrwt>
<totfact> 0.17672259E+06</totfact>
</mgrwt>
</event>
<event>
 5    1  0.4133473E-007  0.2000372E+02  0.7818608E-02  0.1745254E+00
         -3   -1    0    0    0  501 -0.00000000000E+00  0.00000000000E+00  0.29505799223E+02  0.29505945787E+02  0.93000000000E-01 0.  1.
          3   -1    0    0  501    0  0.00000000000E+00 -0.00000000000E+00 -0.33896326078E+01  0.33909081698E+01  0.93000000000E-01 0. -1.
       1023    2    1    2    0    0  0.00000000000E+00  0.00000000000E+00  0.26116166615E+02  0.32896853956E+02  0.20003720693E+02 0.  0.
        -11    1    3    3    0    0 -0.99384387119E+01  0.11233165655E+01  0.13145197150E+02  0.16517584948E+02  0.51100000000E-03 0.  1.
         11    1    3    3    0    0  0.99384387119E+01 -0.11233165655E+01  0.12970969464E+02  0.16379269008E+02  0.51100000000E-03 0. -1.
<mgrwt>
<rscale>  0 0.20003721E+02</rscale>
<asrwt>0</asrwt>
<pdfrwt beam="2">  1        3 0.52159132E-03 0.20003721E+02</pdfrwt>
<pdfrwt beam="1">  1       -3 0.45394633E-02 0.20003721E+02</pdfrwt>
<totfact> 0.17094872E+06</totfact>
</mgrwt>
</event>
<event>
 5    1  0.4133473E-007  0.2000232E+02  0.7818608E-02  0.1745282E+00
         -3   -1    0    0    0  501 -0.00000000000E+00  0.00000000000E+00  0.36218387279E+02  0.36218506680E+02  0.93000000000E-01 0.  1.
          3   -1    0    0  501    0  0.00000000000E+00 -0.00000000000E+00 -0.27607619311E+01  0.27623279024E+01  0.93000000000E-01 0. -1.
       1023    2    1    2    0    0  0.00000000000E+00  0.00000000000E+00  0.33457625348E+02  0.38980834582E+02  0.20002319135E+02 0.  0.
        -11    1    3    3    0    0 -0.86184080160E+01  0.50726661883E+01  0.16961803740E+02  0.19690395764E+02  0.51100000000E-03 0. -1.
         11    1    3    3    0    0  0.86184080160E+01 -0.50726661883E+01  0.16495821608E+02  0.19290438818E+02  0.51100000000E-03 0.  1.
<mgrwt>
<rscale>  0 0.20002319E+02</rscale>
<asrwt>0</asrwt>
<pdfrwt beam="2">  1        3 0.42486224E-03 0.20002319E+02</pdfrwt>
<pdfrwt beam="1">  1       -3 0.55721894E-02 0.20002319E+02</pdfrwt>
<totfact> 0.16763853E+06</totfact>
</mgrwt>
</event>
<event>
 5    1  0.4133473E-007  0.2000272E+02  0.7818608E-02  0.1745274E+00
          3   -1    0    0  501    0  0.00000000000E+00  0.00000000000E+00  0.20427656345E+01  0.20448815216E+01  0.93000000000E-01 0. -1.
         -3   -1    0    0    0  501 -0.00000000000E+00 -0.00000000000E+00 -0.48939071387E+02  0.48939159752E+02  0.93000000000E-01 0.  1.
       1023    2    1    2    0    0  0.00000000000E+00  0.00000000000E+00 -0.46896305752E+02  0.50984041273E+02  0.20002724098E+02 0.  0.
        -11    1    3    3    0    0 -0.73292646315E+01  0.68050739112E+01 -0.23423758580E+02  0.25469582196E+02  0.51100000000E-03 0. -1.
         11    1    3    3    0    0  0.73292646315E+01 -0.68050739112E+01 -0.23472547173E+02  0.25514459077E+02  0.51100000000E-03 0.  1.
<mgrwt>
<rscale>  0 0.20002724E+02</rscale>
<asrwt>0</asrwt>
<pdfrwt beam="1">  1        3 0.31444123E-03 0.20002724E+02</pdfrwt>
<pdfrwt beam="2">  1       -3 0.75292566E-02 0.20002724E+02</pdfrwt>
<totfact> 0.16157745E+06</totfact>
</mgrwt>
</event>
<event>
 5    1  0.4133473E-007  0.2000279E+02  0.7818608E-02  0.1745273E+00
         -3   -1    0    0    0  501 -0.00000000000E+00  0.00000000000E+00  0.45097245853E+01  0.45106834111E+01  0.93000000000E-01 0.  1.
          3   -1    0    0  501    0  0.00000000000E+00 -0.00000000000E+00 -0.22177085631E+02  0.22177280629E+02  0.93000000000E-01 0. -1.
       1023    2    1    2    0    0  0.00000000000E+00  0.00000000000E+00 -0.17667361046E+02  0.26687964040E+02  0.20002794262E+02 0.  0.
        -11    1    3    3    0    0 -0.72742621280E+01  0.68634075347E+01 -0.89428237197E+01  0.13416234525E+02  0.51100000000E-03 0. -1.
         11    1    3    3    0    0  0.72742621280E+01 -0.68634075347E+01 -0.87245373260E+01  0.13271729515E+02  0.51100000000E-03 0.  1.
<mgrwt>
<rscale>  0 0.20002794E+02</rscale>
<asrwt>0</asrwt>
<pdfrwt beam="2">  1        3 0.34119480E-02 0.20002794E+02</pdfrwt>
<pdfrwt beam="1">  1       -3 0.69389255E-03 0.20002794E+02</pdfrwt>
<totfact> 0.17458057E+06</totfact>
</mgrwt>
</event>
<event>
 5    1  0.4133473E-007  0.2000050E+02  0.7818608E-02  0.1745318E+00
         -3   -1    0    0    0  501 -0.00000000000E+00  0.00000000000E+00  0.12545952376E+01  0.12580374439E+01  0.93000000000E-01 0. -1.
          3   -1    0    0  501    0  0.00000000000E+00 -0.00000000000E+00 -0.79598278031E+02  0.79598332360E+02  0.93000000000E-01 0.  1.
       1023    2    1    2    0    0  0.00000000000E+00  0.00000000000E+00 -0.78343682793E+02  0.80856369804E+02  0.20000497600E+02 0.  0.
        -11    1    3    3    0    0 -0.40097685612E+01  0.91609623330E+01 -0.39411046584E+02  0.40659956565E+02  0.51100000000E-03 0. -1.
         11    1    3    3    0    0  0.40097685612E+01 -0.91609623330E+01 -0.38932636209E+02  0.40196413239E+02  0.51100000000E-03 0.  1.
<mgrwt>
<rscale>  0 0.20000498E+02</rscale>
<asrwt>0</asrwt>
<pdfrwt beam="2">  1        3 0.12246154E-01 0.20000498E+02</pdfrwt>
<pdfrwt beam="1">  1       -3 0.19328368E-03 0.20000498E+02</pdfrwt>
<totfact> 0.14877425E+06</totfact>
</mgrwt>
</event>
<event>
 5    1  0.4133473E-007  0.2000023E+02  0.7818608E-02  0.1745324E+00
         -3   -1    0    0    0  501 -0.00000000000E+00  0.00000000000E+00  0.98029015604E+01  0.98033426954E+01  0.93000000000E-01 0.  1.
          3   -1    0    0  501    0  0.00000000000E+00 -0.00000000000E+00 -0.10200411875E+02  0.10200835820E+02  0.93000000000E-01 0. -1.
       1023    2    1    2    0    0  0.00000000000E+00  0.00000000000E+00 -0.39751031458E+00  0.20004178515E+02  0.20000228589E+02 0.  0.
        -11    1    3    3    0    0  0.93489535504E+01  0.35493064041E+01 -0.24092037378E+00  0.10002927138E+02  0.51100000000E-03 0. -1.
         11    1    3    3    0    0 -0.93489535504E+01 -0.35493064041E+01 -0.15658994081E+00  0.10001251377E+02  0.51100000000E-03 0.  1.
<mgrwt>
<rscale>  0 0.20000229E+02</rscale>
<asrwt>0</asrwt>
<pdfrwt beam="2">  1        3 0.15693607E-02 0.20000229E+02</pdfrwt>
<pdfrwt beam="1">  1       -3 0.15082052E-02 0.20000229E+02</pdfrwt>
<totfact> 0.17884899E+06</totfact>
</mgrwt>
</event>
<event>
 4    1  0.4133473E-007  0.2001579E+02  0.7818608E-02  0.1745014E+00
          3   -1    0    0  501    0  0.00000000000E+00  0.00000000000E+00  0.16196433112E+02  0.16196700113E+02  0.93000000000E-01 0. -1.
         -3   -1    0    0    0  501 -0.00000000000E+00 -0.00000000000E+00 -0.61832835575E+01  0.61839829037E+01  0.93000000000E-01 0.  1.
        -11    1    1    2    0    0  0.16874910418E+01 -0.98645500371E+01  0.49716003984E+01  0.11174693921E+02  0.51100000000E-03 0. -1.
         11    1    1    2    0    0 -0.16874910418E+01  0.98645500371E+01  0.50415491557E+01  0.11205989095E+02  0.51100000000E-03 0.  1.
<mgrwt>
<rscale>  0 0.20015789E+02</rscale>
<asrwt>0</asrwt>
<pdfrwt beam="1">  1        3 0.24918333E-02 0.20015789E+02</pdfrwt>
<pdfrwt beam="2">  1       -3 0.95134873E-03 0.20015789E+02</pdfrwt>
<totfact> 0.17700995E+06</totfact>
</mgrwt>
</event>
<event>
 5    1  0.4137142E-007  0.2000179E+02  0.7818608E-02  0.1745292E+00
          3   -1    0    0  501    0  0.00000000000E+00  0.00000000000E+00  0.25707504409E+02  0.25707672628E+02  0.93000000000E-01 0. -1.
         -3   -1    0    0    0  501 -0.00000000000E+00 -0.00000000000E+00 -0.38898760992E+01  0.38909876725E+01  0.93000000000E-01 0.  1.
       1023    2    1    2    0    0  0.00000000000E+00  0.00000000000E+00  0.21817628310E+02  0.29598660301E+02  0.20001794582E+02 0.  0.
        -11    1    3    3    0    0  0.68975615514E+01  0.72411534993E+01  0.10782492497E+02  0.14706216511E+02  0.51100000000E-03 0. -1.
         11    1    3    3    0    0 -0.68975615514E+01 -0.72411534993E+01  0.11035135813E+02  0.14892443789E+02  0.51100000000E-03 0.  1.
<mgrwt>
<rscale>  0 0.20001795E+02</rscale>
<asrwt>0</asrwt>
<pdfrwt beam="1">  1        3 0.39550990E-02 0.20001795E+02</pdfrwt>
<pdfrwt beam="2">  1       -3 0.59854094E-03 0.20001795E+02</pdfrwt>
<totfact> 0.17286522E+06</totfact>
</mgrwt>
</event>
<event>
 5    1  0.4133473E-007  0.2000316E+02  0.7818608E-02  0.1745265E+00
         -3   -1    0    0    0  501 -0.00000000000E+00  0.00000000000E+00  0.71387885704E+02  0.71387946282E+02  0.93000000000E-01 0.  1.
          3   -1    0    0  501    0  0.00000000000E+00 -0.00000000000E+00 -0.13996363473E+01  0.14027226756E+01  0.93000000000E-01 0. -1.
       1023    2    1    2    0    0  0.00000000000E+00  0.00000000000E+00  0.69988249357E+02  0.72790668957E+02  0.20003160730E+02 0.  0.
        -11    1    3    3    0    0  0.21422584229E+00  0.99987008638E+01  0.34600547119E+02  0.36016909541E+02  0.51100000000E-03 0.  1.
         11    1    3    3    0    0 -0.21422584229E+00 -0.99987008638E+01  0.35387702238E+02  0.36773759417E+02  0.51100000000E-03 0. -1.
<mgrwt>
<rscale>  0 0.20003161E+02</rscale>
<asrwt>0</asrwt>
<pdfrwt beam="2">  1        3 0.21557070E-03 0.20003161E+02</pdfrwt>
<pdfrwt beam="1">  1       -3 0.10982996E-01 0.20003161E+02</pdfrwt>
<totfact> 0.15195983E+06</totfact>
</mgrwt>
</event>
<event>
 5    1  0.4256530E-007  0.2000109E+02  0.7818608E-02  0.1745306E+00
          3   -1    0    0  501    0  0.00000000000E+00  0.00000000000E+00  0.17520223244E+02  0.17520470071E+02  0.93000000000E-01 0.  1.
         -3   -1    0    0    0  501 -0.00000000000E+00 -0.00000000000E+00 -0.57076466491E+01  0.57084042666E+01  0.93000000000E-01 0. -1.
       1023    2    1    2    0    0  0.00000000000E+00  0.00000000000E+00  0.11812576595E+02  0.23228874338E+02  0.20001090900E+02 0.  0.
        -11    1    3    3    0    0  0.92436381702E+01  0.38164443465E+01  0.59394429257E+01  0.11631297288E+02  0.51100000000E-03 0. -1.
         11    1    3    3    0    0 -0.92436381702E+01 -0.38164443465E+01  0.58731336690E+01  0.11597577050E+02  0.51100000000E-03 0.  1.
<mgrwt>
<rscale>  0 0.20001091E+02</rscale>
<asrwt>0</asrwt>
<pdfrwt beam="1">  1        3 0.26954962E-02 0.20001091E+02</pdfrwt>
<pdfrwt beam="2">  1       -3 0.87817676E-03 0.20001091E+02</pdfrwt>
<totfact> 0.17675164E+06</totfact>
</mgrwt>
</event>
<event>
 5    1  0.4308145E-007  0.2000082E+02  0.7818608E-02  0.1745312E+00
         -3   -1    0    0    0  501 -0.00000000000E+00  0.00000000000E+00  0.81006139368E+01  0.81011477677E+01  0.93000000000E-01 0. -1.
          3   -1    0    0  501    0  0.00000000000E+00 -0.00000000000E+00 -0.12344640791E+02  0.12344991100E+02  0.93000000000E-01 0.  1.
       1023    2    1    2    0    0  0.00000000000E+00  0.00000000000E+00 -0.42440268546E+01  0.20446138868E+02  0.20000820750E+02 0.  0.
        -11    1    3    3    0    0  0.79223251696E+01  0.61022543967E+01 -0.20337037497E+01  0.10204738900E+02  0.51100000000E-03 0.  1.
         11    1    3    3    0    0 -0.79223251696E+01 -0.61022543967E+01 -0.22103231049E+01  0.10241399968E+02  0.51100000000E-03 0. -1.
<mgrwt>
<rscale>  0 0.20000821E+02</rscale>
<asrwt>0</asrwt>
<pdfrwt beam="2">  1        3 0.18992435E-02 0.20000821E+02</pdfrwt>
<pdfrwt beam="1">  1       -3 0.12463163E-02 0.20000821E+02</pdfrwt>
<totfact> 0.17854668E+06</totfact>
</mgrwt>
</event>
<event>
 5    1  0.4133473E-007  0.2000215E+02  0.7818608E-02  0.1745285E+00
         -3   -1    0    0    0  501 -0.00000000000E+00  0.00000000000E+00  0.39090363318E+01  0.39101424582E+01  0.93000000000E-01 0. -1.
          3   -1    0    0  501    0  0.00000000000E+00 -0.00000000000E+00 -0.25582438096E+02  0.25582607137E+02  0.93000000000E-01 0.  1.
       1023    2    1    2    0    0  0.00000000000E+00  0.00000000000E+00 -0.21673401764E+02  0.29492749595E+02  0.20002148251E+02 0.  0.
        -11    1    3    3    0    0 -0.37133143609E+01  0.92861241240E+01 -0.10798290379E+02  0.14718147987E+02  0.51100000000E-03 0.  1.
         11    1    3    3    0    0  0.37133143609E+01 -0.92861241240E+01 -0.10875111385E+02  0.14774601608E+02  0.51100000000E-03 0. -1.
<mgrwt>
<rscale>  0 0.20002148E+02</rscale>
<asrwt>0</asrwt>
<pdfrwt beam="2">  1        3 0.39358577E-02 0.20002148E+02</pdfrwt>
<pdfrwt beam="1">  1       -3 0.60148831E-03 0.20002148E+02</pdfrwt>
<totfact> 0.17292075E+06</totfact>
</mgrwt>
</event>
<event>
 5    1  0.4133473E-007  0.2000224E+02  0.7818608E-02  0.1745284E+00
         -3   -1    0    0    0  501 -0.00000000000E+00  0.00000000000E+00  0.29419006835E+01  0.29433702845E+01  0.93000000000E-01 0.  1.
          3   -1    0    0  501    0  0.00000000000E+00 -0.00000000000E+00 -0.33989222848E+02  0.33989350079E+02  0.93000000000E-01 0. -1.
       1023    2    1    2    0    0  0.00000000000E+00  0.00000000000E+00 -0.31047322165E+02  0.36932720364E+02  0.20002240372E+02 0.  0.
        -11    1    3    3    0    0  0.45671798455E+00 -0.99900507624E+01 -0.15315585982E+02  0.18291442803E+02  0.51100000000E-03 0. -1.
         11    1    3    3    0    0 -0.45671798455E+00  0.99900507624E+01 -0.15731736182E+02  0.18641277561E+02  0.51100000000E-03 0.  1.
<mgrwt>
<rscale>  0 0.20002240E+02</rscale>
<asrwt>0</asrwt>
<pdfrwt beam="2">  1        3 0.52292338E-02 0.20002240E+02</pdfrwt>
<pdfrwt beam="1">  1       -3 0.45272296E-03 0.20002240E+02</pdfrwt>
<totfact> 0.16872004E+06</totfact>
</mgrwt>
</event>
<event>
 5    1  0.4133473E-007  0.2000108E+02  0.7818608E-02  0.1745307E+00
          3   -1    0    0  501    0  0.00000000000E+00  0.00000000000E+00  0.20766578521E+01  0.20787392416E+01  0.93000000000E-01 0.  1.
         -3   -1    0    0    0  501 -0.00000000000E+00 -0.00000000000E+00 -0.48133264229E+02  0.48133354074E+02  0.93000000000E-01 0. -1.
       1023    2    1    2    0    0  0.00000000000E+00  0.00000000000E+00 -0.46056606377E+02  0.50212093315E+02  0.20001083073E+02 0.  0.
        -11    1    3    3    0    0 -0.10297640499E+01  0.99470178324E+01 -0.22814500136E+02  0.24909937665E+02  0.51100000000E-03 0.  1.
         11    1    3    3    0    0  0.10297640499E+01 -0.99470178324E+01 -0.23242106241E+02  0.25302155650E+02  0.51100000000E-03 0. -1.
<mgrwt>
<rscale>  0 0.20001083E+02</rscale>
<asrwt>0</asrwt>
<pdfrwt beam="1">  1        3 0.31965288E-03 0.20001083E+02</pdfrwt>
<pdfrwt beam="2">  1       -3 0.74052838E-02 0.20001083E+02</pdfrwt>
<totfact> 0.16197648E+06</totfact>
</mgrwt>
</event>
<event>
 5    1  0.4199669E-007  0.2000160E+02  0.7818608E-02  0.1745296E+00
         -3   -1    0    0    0  501 -0.00000000000E+00  0.00000000000E+00  0.27548374983E+02  0.27548531961E+02  0.93000000000E-01 0.  1.
          3   -1    0    0  501    0  0.00000000000E+00 -0.00000000000E+00 -0.36297966910E+01  0.36309878846E+01  0.93000000000E-01 0. -1.
       1023    2    1    2    0    0  0.00000000000E+00  0.00000000000E+00  0.23918578292E+02  0.31179519845E+02  0.20001601693E+02 0.  0.
        -11    1    3    3    0    0 -0.95181057840E+01 -0.30694461341E+01  0.11938373588E+02  0.15573715083E+02  0.51100000000E-03 0. -1.
         11    1    3    3    0    0  0.95181057840E+01  0.30694461341E+01  0.11980204703E+02  0.15605804762E+02  0.51100000000E-03 0.  1.
<mgrwt>
<rscale>  0 0.20001602E+02</rscale>
<asrwt>0</asrwt>
<pdfrwt beam="2">  1        3 0.55853398E-03 0.20001602E+02</pdfrwt>
<pdfrwt beam="1">  1       -3 0.42383151E-02 0.20001602E+02</pdfrwt>
<totfact> 0.17196830E+06</totfact>
</mgrwt>
</event>
<event>
 5    1  0.4133473E-007  0.2000087E+02  0.7818608E-02  0.1745311E+00
         -3   -1    0    0    0  501 -0.00000000000E+00  0.00000000000E+00  0.39848705643E+01  0.39859556463E+01  0.93000000000E-01 0. -1.
          3   -1    0    0  501    0  0.00000000000E+00 -0.00000000000E+00 -0.25092514789E+02  0.25092687131E+02  0.93000000000E-01 0.  1.
       1023    2    1    2    0    0  0.00000000000E+00  0.00000000000E+00 -0.21107644225E+02  0.29078642777E+02  0.20000870507E+02 0.  0.
        -11    1    3    3    0    0 -0.98875560609E+01 -0.14982969237E+01 -0.10563732796E+02  0.14546515369E+02  0.51100000000E-03 0.  1.
         11    1    3    3    0    0  0.98875560609E+01  0.14982969237E+01 -0.10543911428E+02  0.14532127408E+02  0.51100000000E-03 0. -1.
<mgrwt>
<rscale>  0 0.20000871E+02</rscale>
<asrwt>0</asrwt>
<pdfrwt beam="2">  1        3 0.38604835E-02 0.20000871E+02</pdfrwt>
<pdfrwt beam="1">  1       -3 0.61315375E-03 0.20000871E+02</pdfrwt>
<totfact> 0.17318809E+06</totfact>
</mgrwt>
</event>
<event>
 5    1  0.4133473E-007  0.2000539E+02  0.7818608E-02  0.1745221E+00
          3   -1    0    0  501    0  0.00000000000E+00  0.00000000000E+00  0.89528944496E+01  0.89533774648E+01  0.93000000000E-01 0. -1.
         -3   -1    0    0    0  501 -0.00000000000E+00 -0.00000000000E+00 -0.11174614356E+02  0.11175001343E+02  0.93000000000E-01 0.  1.
       1023    2    1    2    0    0  0.00000000000E+00  0.00000000000E+00 -0.22217199064E+01  0.20128378807E+02  0.20005389126E+02 0.  0.
        -11    1    3    3    0    0 -0.65335109577E+01  0.75727225911E+01 -0.12566832999E+01  0.10080285018E+02  0.51100000000E-03 0. -1.
         11    1    3    3    0    0  0.65335109577E+01 -0.75727225911E+01 -0.96503660648E+00  0.10048093789E+02  0.51100000000E-03 0.  1.
<mgrwt>
<rscale>  0 0.20005389E+02</rscale>
<asrwt>0</asrwt>
<pdfrwt beam="1">  1        3 0.13774353E-02 0.20005389E+02</pdfrwt>
<pdfrwt beam="2">  1       -3 0.17192384E-02 0.20005389E+02</pdfrwt>
<totfact> 0.17866989E+06</totfact>
</mgrwt>
</event>
<event>
 5    1  0.4239365E-007  0.2000096E+02  0.7818608E-02  0.1745309E+00
         -3   -1    0    0    0  501 -0.00000000000E+00  0.00000000000E+00  0.12174158582E+02  0.12174513796E+02  0.93000000000E-01 0.  1.
          3   -1    0    0  501    0  0.00000000000E+00 -0.00000000000E+00 -0.82141673991E+01  0.82146938507E+01  0.93000000000E-01 0. -1.
       1023    2    1    2    0    0  0.00000000000E+00  0.00000000000E+00  0.39599911828E+01  0.20389207647E+02  0.20000956435E+02 0.  0.
        -11    1    3    3    0    0 -0.51322918512E+00 -0.99872669465E+01  0.19538251184E+01  0.10189520995E+02  0.51100000000E-03 0.  1.
         11    1    3    3    0    0  0.51322918512E+00  0.99872669465E+01  0.20061660644E+01  0.10199686652E+02  0.51100000000E-03 0. -1.
<mgrwt>
<rscale>  0 0.20000956E+02</rscale>
<asrwt>0</asrwt>
<pdfrwt beam="2">  1        3 0.12637859E-02 0.20000956E+02</pdfrwt>
<pdfrwt beam="1">  1       -3 0.18730153E-02 0.20000956E+02</pdfrwt>
<totfact> 0.17858485E+06</totfact>
</mgrwt>
</event>
<event>
 5    1  0.4133473E-007  0.2000327E+02  0.7818608E-02  0.1745263E+00
          3   -1    0    0  501    0  0.00000000000E+00  0.00000000000E+00  0.56092105198E+02  0.56092182294E+02  0.93000000000E-01 0. -1.
         -3   -1    0    0    0  501 -0.00000000000E+00 -0.00000000000E+00 -0.17820745259E+01  0.17844995422E+01  0.93000000000E-01 0.  1.
       1023    2    1    2    0    0  0.00000000000E+00  0.00000000000E+00  0.54310030672E+02  0.57876681836E+02  0.20003271453E+02 0.  0.
        -11    1    3    3    0    0 -0.99983841513E+01  0.25403943551E+00  0.27090624723E+02  0.28877918377E+02  0.51100000000E-03 0. -1.
         11    1    3    3    0    0  0.99983841513E+01 -0.25403943551E+00  0.27219405949E+02  0.28998763459E+02  0.51100000000E-03 0.  1.
<mgrwt>
<rscale>  0 0.20003271E+02</rscale>
<asrwt>0</asrwt>
<pdfrwt beam="1">  1        3 0.86297479E-02 0.20003271E+02</pdfrwt>
<pdfrwt beam="2">  1       -3 0.27435776E-03 0.20003271E+02</pdfrwt>
<totfact> 0.15833479E+06</totfact>
</mgrwt>
</event>
<event>
 5    1  0.4133473E-007  0.2000256E+02  0.7818608E-02  0.1745277E+00
         -3   -1    0    0    0  501 -0.00000000000E+00  0.00000000000E+00  0.11444455393E+02  0.11444833256E+02  0.93000000000E-01 0.  1.
          3   -1    0    0  501    0  0.00000000000E+00 -0.00000000000E+00 -0.87393221105E+01  0.87398169290E+01  0.93000000000E-01 0. -1.
       1023    2    1    2    0    0  0.00000000000E+00  0.00000000000E+00  0.27051332827E+01  0.20184650185E+02  0.20002558761E+02 0.  0.
        -11    1    3    3    0    0 -0.28220769059E+01  0.95946426705E+01  0.12863726080E+01  0.10083453812E+02  0.51100000000E-03 0.  1.
         11    1    3    3    0    0  0.28220769059E+01 -0.95946426705E+01  0.14187606747E+01  0.10101196372E+02  0.51100000000E-03 0. -1.
<mgrwt>
<rscale>  0 0.20002559E+02</rscale>
<asrwt>0</asrwt>
<pdfrwt beam="2">  1        3 0.13445782E-02 0.20002559E+02</pdfrwt>
<pdfrwt beam="1">  1       -3 0.17607526E-02 0.20002559E+02</pdfrwt>
<totfact> 0.17868749E+06</totfact>
</mgrwt>
</event>
<event>
 5    1  0.4133473E-007  0.2000007E+02  0.7818608E-02  0.1745327E+00
          3   -1    0    0  501    0  0.00000000000E+00  0.00000000000E+00  0.29128040848E+01  0.29142883584E+01  0.93000000000E-01 0.  1.
         -3   -1    0    0    0  501 -0.00000000000E+00 -0.00000000000E+00 -0.34321114024E+02  0.34321240025E+02  0.93000000000E-01 0. -1.
       1023    2    1    2    0    0  0.00000000000E+00  0.00000000000E+00 -0.31408309939E+02  0.37235528384E+02  0.20000066019E+02 0.  0.
        -11    1    3    3    0    0  0.11291434982E+00  0.99993867537E+01 -0.15728771576E+02  0.18638528393E+02  0.51100000000E-03 0. -1.
         11    1    3    3    0    0 -0.11291434982E+00 -0.99993867537E+01 -0.15679538363E+02  0.18596999990E+02  0.51100000000E-03 0.  1.
<mgrwt>
<rscale>  0 0.20000066E+02</rscale>
<asrwt>0</asrwt>
<pdfrwt beam="1">  1        3 0.44824760E-03 0.20000066E+02</pdfrwt>
<pdfrwt beam="2">  1       -3 0.52802950E-02 0.20000066E+02</pdfrwt>
<totfact> 0.16861619E+06</totfact>
</mgrwt>
</event>
<event>
 4    1  0.4358710E-007  0.2033375E+02  0.7818608E-02  0.1738771E+00
         -3   -1    0    0    0  501 -0.00000000000E+00  0.00000000000E+00  0.61697184713E+01  0.61704193549E+01  0.93000000000E-01 0.  1.
          3   -1    0    0  501    0  0.00000000000E+00 -0.00000000000E+00 -0.16751879024E+02  0.16752137172E+02  0.93000000000E-01 0. -1.
        -11    1    1    2    0    0  0.22310705526E+00  0.10099564384E+02 -0.39986478525E+01  0.10864628959E+02  0.51100000000E-03 0.  1.
         11    1    1    2    0    0 -0.22310705526E+00 -0.10099564384E+02 -0.65835127002E+01  0.12057927568E+02  0.51100000000E-03 0. -1.
<mgrwt>
<rscale>  0 0.20333752E+02</rscale>
<asrwt>0</asrwt>
<pdfrwt beam="2">  1        3 0.25772859E-02 0.20333752E+02</pdfrwt>
<pdfrwt beam="1">  1       -3 0.94926124E-03 0.20333752E+02</pdfrwt>
<totfact> 0.17075280E+06</totfact>
</mgrwt>
</event>
<event>
 4    1  0.4133473E-007  0.2004471E+02  0.7818608E-02  0.1744440E+00
         -3   -1    0    0    0  501 -0.00000000000E+00  0.00000000000E+00  0.29770488590E+01  0.29785011178E+01  0.93000000000E-01 0.  1.
          3   -1    0    0  501    0  0.00000000000E+00 -0.00000000000E+00 -0.33730907132E+02  0.33731035338E+02  0.93000000000E-01 0. -1.
        -11    1    1    2    0    0  0.78923877511E+01  0.61754736518E+01 -0.15109600365E+02  0.18130810316E+02  0.51100000000E-03 0.  1.
         11    1    1    2    0    0 -0.78923877511E+01 -0.61754736518E+01 -0.15644257908E+02  0.18578726140E+02  0.51100000000E-03 0. -1.
<mgrwt>
<rscale>  0 0.20044707E+02</rscale>
<asrwt>0</asrwt>
<pdfrwt beam="2">  1        3 0.51894916E-02 0.20044707E+02</pdfrwt>
<pdfrwt beam="1">  1       -3 0.45812911E-03 0.20044707E+02</pdfrwt>
<totfact> 0.16807303E+06</totfact>
</mgrwt>
</event>
<event>
 4    1  0.4133473E-007  0.2001619E+02  0.7818608E-02  0.1745006E+00
          3   -1    0    0  501    0  0.00000000000E+00  0.00000000000E+00  0.23051440081E+02  0.23051627683E+02  0.93000000000E-01 0. -1.
         -3   -1    0    0    0  501 -0.00000000000E+00 -0.00000000000E+00 -0.43444466609E+01  0.43454419556E+01  0.93000000000E-01 0.  1.
        -11    1    1    2    0    0  0.94380162517E+01  0.33232390917E+01  0.96336264451E+01  0.13889810207E+02  0.51100000000E-03 0. -1.
         11    1    1    2    0    0 -0.94380162517E+01 -0.33232390917E+01  0.90733669754E+01  0.13507259432E+02  0.51100000000E-03 0.  1.
<mgrwt>
<rscale>  0 0.20016189E+02</rscale>
<asrwt>0</asrwt>
<pdfrwt beam="1">  1        3 0.35464663E-02 0.20016189E+02</pdfrwt>
<pdfrwt beam="2">  1       -3 0.66846742E-03 0.20016189E+02</pdfrwt>
<totfact> 0.17390238E+06</totfact>
</mgrwt>
</event>
<event>
 5    1  0.4133473E-007  0.2000565E+02  0.7818608E-02  0.1745216E+00
          3   -1    0    0  501    0  0.00000000000E+00  0.00000000000E+00  0.52635666903E+02  0.52635749062E+02  0.93000000000E-01 0.  1.
         -3   -1    0    0    0  501 -0.00000000000E+00 -0.00000000000E+00 -0.18997044504E+01  0.19019794948E+01  0.93000000000E-01 0. -1.
       1023    2    1    2    0    0  0.00000000000E+00  0.00000000000E+00  0.50735962452E+02  0.54537728556E+02  0.20005647956E+02 0.  0.
        -11    1    3    3    0    0 -0.96272964095E+01 -0.27148349087E+01  0.25467121091E+02  0.27361093210E+02  0.51100000000E-03 0.  1.
         11    1    3    3    0    0  0.96272964095E+01  0.27148349087E+01  0.25268841361E+02  0.27176635346E+02  0.51100000000E-03 0. -1.
<mgrwt>
<rscale>  0 0.20005648E+02</rscale>
<asrwt>0</asrwt>
<pdfrwt beam="1">  1        3 0.80979745E-02 0.20005648E+02</pdfrwt>
<pdfrwt beam="2">  1       -3 0.29244361E-03 0.20005648E+02</pdfrwt>
<totfact> 0.15982535E+06</totfact>
</mgrwt>
</event>
<event>
 5    1  0.4133473E-007  0.2000044E+02  0.7818608E-02  0.1745319E+00
         -3   -1    0    0    0  501 -0.00000000000E+00  0.00000000000E+00  0.46981953406E+02  0.46982045452E+02  0.93000000000E-01 0.  1.
          3   -1    0    0  501    0  0.00000000000E+00 -0.00000000000E+00 -0.21274605989E+01  0.21294923338E+01  0.93000000000E-01 0. -1.
       1023    2    1    2    0    0  0.00000000000E+00  0.00000000000E+00  0.44854492807E+02  0.49111537786E+02  0.20000440463E+02 0.  0.
        -11    1    3    3    0    0  0.99373418375E+01 -0.11181978299E+01  0.22567775054E+02  0.24684116357E+02  0.51100000000E-03 0. -1.
         11    1    3    3    0    0 -0.99373418375E+01  0.11181978299E+01  0.22286717753E+02  0.24427421429E+02  0.51100000000E-03 0.  1.
<mgrwt>
<rscale>  0 0.20000440E+02</rscale>
<asrwt>0</asrwt>
<pdfrwt beam="2">  1        3 0.32746497E-03 0.20000440E+02</pdfrwt>
<pdfrwt beam="1">  1       -3 0.72281568E-02 0.20000440E+02</pdfrwt>
<totfact> 0.16252022E+06</totfact>
</mgrwt>
</event>
<event>
 4    1  0.4133473E-007  0.2004857E+02  0.7818608E-02  0.1744364E+00
         -3   -1    0    0    0  501 -0.00000000000E+00  0.00000000000E+00  0.91317778693E+01  0.91322514231E+01  0.93000000000E-01 0. -1.
          3   -1    0    0  501    0  0.00000000000E+00 -0.00000000000E+00 -0.11003062509E+02  0.11003455529E+02  0.93000000000E-01 0.  1.
        -11    1    1    2    0    0  0.57431168942E+01  0.82143377227E+01 -0.76905723858E+00  0.10052372117E+02  0.51100000000E-03 0. -1.
         11    1    1    2    0    0 -0.57431168942E+01 -0.82143377227E+01 -0.11022274009E+01  0.10083334835E+02  0.51100000000E-03 0.  1.
<mgrwt>
<rscale>  0 0.20048566E+02</rscale>
<asrwt>0</asrwt>
<pdfrwt beam="2">  1        3 0.16928455E-02 0.20048566E+02</pdfrwt>
<pdfrwt beam="1">  1       -3 0.14049556E-02 0.20048566E+02</pdfrwt>
<totfact> 0.17783484E+06</totfact>
</mgrwt>
</event>
<event>
 5    1  0.4133473E-007  0.2000066E+02  0.7818608E-02  0.1745315E+00
          3   -1    0    0  501    0  0.00000000000E+00  0.00000000000E+00  0.87465264242E+00  0.87958299489E+00  0.93000000000E-01 0. -1.
         -3   -1    0    0    0  501 -0.00000000000E+00 -0.00000000000E+00 -0.11401236649E+03  0.11401240442E+03  0.93000000000E-01 0.  1.
       1023    2    1    2    0    0  0.00000000000E+00  0.00000000000E+00 -0.11313771385E+03  0.11489198742E+03  0.20000661927E+02 0.  0.
        -11    1    3    3    0    0  0.98598045792E+01  0.16705658144E+01 -0.56516637007E+02  0.57394571131E+02  0.51100000000E-03 0.  1.
         11    1    3    3    0    0 -0.98598045792E+01 -0.16705658144E+01 -0.56621076845E+02  0.57497416288E+02  0.51100000000E-03 0. -1.
<mgrwt>
<rscale>  0 0.20000662E+02</rscale>
<asrwt>0</asrwt>
<pdfrwt beam="1">  1        3 0.13494421E-03 0.20000662E+02</pdfrwt>
<pdfrwt beam="2">  1       -3 0.17540735E-01 0.20000662E+02</pdfrwt>
<totfact> 0.13684151E+06</totfact>
</mgrwt>
</event>
<event>
 5    1  0.4133473E-007  0.2000026E+02  0.7818608E-02  0.1745323E+00
          3   -1    0    0  501    0  0.00000000000E+00  0.00000000000E+00  0.77740410716E+02  0.77740466343E+02  0.93000000000E-01 0.  1.
         -3   -1    0    0    0  501 -0.00000000000E+00 -0.00000000000E+00 -0.12846289676E+01  0.12879909100E+01  0.93000000000E-01 0. -1.
       1023    2    1    2    0    0  0.00000000000E+00  0.00000000000E+00  0.76455781748E+02  0.79028457253E+02  0.20000262326E+02 0.  0.
        -11    1    3    3    0    0  0.99345660691E+01 -0.11427309346E+01  0.38363972023E+02  0.39645879819E+02  0.51100000000E-03 0.  1.
         11    1    3    3    0    0 -0.99345660691E+01  0.11427309346E+01  0.38091809725E+02  0.39382577434E+02  0.51100000000E-03 0. -1.
<mgrwt>
<rscale>  0 0.20000262E+02</rscale>
<asrwt>0</asrwt>
<pdfrwt beam="1">  1        3 0.11960326E-01 0.20000262E+02</pdfrwt>
<pdfrwt beam="2">  1       -3 0.19789813E-03 0.20000262E+02</pdfrwt>
<totfact> 0.14948869E+06</totfact>
</mgrwt>
</event>
<event>
 5    1  0.4133473E-007  0.2000061E+02  0.7818608E-02  0.1745316E+00
          3   -1    0    0  501    0  0.00000000000E+00  0.00000000000E+00  0.69663058966E+02  0.69663121043E+02  0.93000000000E-01 0. -1.
         -3   -1    0    0    0  501 -0.00000000000E+00 -0.00000000000E+00 -0.14340000341E+01  0.14370125601E+01  0.93000000000E-01 0.  1.
       1023    2    1    2    0    0  0.00000000000E+00  0.00000000000E+00  0.68229058932E+02  0.71100133603E+02  0.20000612883E+02 0.  0.
        -11    1    3    3    0    0  0.27396673105E+01  0.96177077276E+01  0.34139605011E+02  0.35574129779E+02  0.51100000000E-03 0. -1.
         11    1    3    3    0    0 -0.27396673105E+01 -0.96177077276E+01  0.34089453920E+02  0.35526003825E+02  0.51100000000E-03 0.  1.
<mgrwt>
<rscale>  0 0.20000613E+02</rscale>
<asrwt>0</asrwt>
<pdfrwt beam="1">  1        3 0.10717633E-01 0.20000613E+02</pdfrwt>
<pdfrwt beam="2">  1       -3 0.22085185E-03 0.20000613E+02</pdfrwt>
<totfact> 0.15266538E+06</totfact>
</mgrwt>
</event>
<event>
 5    1  0.4133473E-007  0.2000021E+02  0.7818608E-02  0.1745324E+00
         -3   -1    0    0    0  501 -0.00000000000E+00  0.00000000000E+00  0.94953846875E+01  0.94958401084E+01  0.93000000000E-01 0. -1.
          3   -1    0    0  501    0  0.00000000000E+00 -0.00000000000E+00 -0.10530735801E+02  0.10531146448E+02  0.93000000000E-01 0.  1.
       1023    2    1    2    0    0  0.00000000000E+00  0.00000000000E+00 -0.10353511130E+01  0.20026986556E+02  0.20000205964E+02 0.  0.
        -11    1    3    3    0    0  0.73774342469E+01  0.67509643079E+01 -0.51561599906E+00  0.10013386803E+02  0.51100000000E-03 0. -1.
         11    1    3    3    0    0 -0.73774342469E+01 -0.67509643079E+01 -0.51973511395E+00  0.10013599753E+02  0.51100000000E-03 0.  1.
<mgrwt>
<rscale>  0 0.20000206E+02</rscale>
<asrwt>0</asrwt>
<pdfrwt beam="2">  1        3 0.16201798E-02 0.20000206E+02</pdfrwt>
<pdfrwt beam="1">  1       -3 0.14608950E-02 0.20000206E+02</pdfrwt>
<totfact> 0.17883431E+06</totfact>
</mgrwt>
</event>
<event>
 4    1  0.4133473E-007  0.2004293E+02  0.7818608E-02  0.1744476E+00
          3   -1    0    0  501    0  0.00000000000E+00  0.00000000000E+00  0.84060154215E+01  0.84065298588E+01  0.93000000000E-01 0. -1.
         -3   -1    0    0    0  501 -0.00000000000E+00 -0.00000000000E+00 -0.11946308979E+02  0.11946670968E+02  0.93000000000E-01 0.  1.
        -11    1    1    2    0    0  0.92243034918E+01  0.39091762259E+01 -0.15206971695E+01  0.10133210440E+02  0.51100000000E-03 0. -1.
         11    1    1    2    0    0 -0.92243034918E+01 -0.39091762259E+01 -0.20195963876E+01  0.10219990387E+02  0.51100000000E-03 0.  1.
<mgrwt>
<rscale>  0 0.20042932E+02</rscale>
<asrwt>0</asrwt>
<pdfrwt beam="1">  1        3 0.12933006E-02 0.20042932E+02</pdfrwt>
<pdfrwt beam="2">  1       -3 0.18379611E-02 0.20042932E+02</pdfrwt>
<totfact> 0.17780303E+06</totfact>
</mgrwt>
</event>
<event>
 4    1  0.4133473E-007  0.2016097E+02  0.7818608E-02  0.1742146E+00
         -3   -1    0    0    0  501 -0.00000000000E+00  0.00000000000E+00  0.11780475907E+02  0.11780842991E+02  0.93000000000E-01 0. -1.
          3   -1    0    0  501    0  0.00000000000E+00 -0.00000000000E+00 -0.86250612944E+01  0.86255626675E+01  0.93000000000E-01 0.  1.
        -11    1    1    2    0    0  0.54755881237E+01  0.84636852155E+01  0.15902943967E+01  0.10205149154E+02  0.51100000000E-03 0.  1.
         11    1    1    2    0    0 -0.54755881237E+01 -0.84636852155E+01  0.15651202157E+01  0.10201256505E+02  0.51100000000E-03 0. -1.
<mgrwt>
<rscale>  0 0.20160971E+02</rscale>
<asrwt>0</asrwt>
<pdfrwt beam="2">  1        3 0.13269993E-02 0.20160971E+02</pdfrwt>
<pdfrwt beam="1">  1       -3 0.18124477E-02 0.20160971E+02</pdfrwt>
<totfact> 0.17553107E+06</totfact>
</mgrwt>
</event>
<event>
 5    1  0.4365974E-007  0.2000105E+02  0.7818608E-02  0.1745307E+00
         -3   -1    0    0    0  501 -0.00000000000E+00  0.00000000000E+00  0.13034278296E+02  0.13034610070E+02  0.93000000000E-01 0. -1.
          3   -1    0    0  501    0  0.00000000000E+00 -0.00000000000E+00 -0.76721722586E+01  0.76727358983E+01  0.93000000000E-01 0.  1.
       1023    2    1    2    0    0  0.00000000000E+00  0.00000000000E+00  0.53621060371E+01  0.20707345969E+02  0.20001049870E+02 0.  0.
        -11    1    3    3    0    0  0.63775797721E+01  0.77030495581E+01  0.26826813887E+01  0.10354094646E+02  0.51100000000E-03 0.  1.
         11    1    3    3    0    0 -0.63775797721E+01 -0.77030495581E+01  0.26794246484E+01  0.10353251323E+02  0.51100000000E-03 0. -1.
<mgrwt>
<rscale>  0 0.20001050E+02</rscale>
<asrwt>0</asrwt>
<pdfrwt beam="2">  1        3 0.11804031E-02 0.20001050E+02</pdfrwt>
<pdfrwt beam="1">  1       -3 0.20053425E-02 0.20001050E+02</pdfrwt>
<totfact> 0.17837659E+06</totfact>
</mgrwt>
</event>
<event>
 5    1  0.4133473E-007  0.2000138E+02  0.7818608E-02  0.1745301E+00
          3   -1    0    0  501    0  0.00000000000E+00  0.00000000000E+00  0.11030890759E+01  0.11070024884E+01  0.93000000000E-01 0. -1.
         -3   -1    0    0    0  501 -0.00000000000E+00 -0.00000000000E+00 -0.90502567836E+02  0.90502615619E+02  0.93000000000E-01 0.  1.
       1023    2    1    2    0    0  0.00000000000E+00  0.00000000000E+00 -0.89399478760E+02  0.91609618107E+02  0.20001383133E+02 0.  0.
        -11    1    3    3    0    0 -0.13892044424E+01 -0.99036039242E+01 -0.44932016413E+02  0.46031482258E+02  0.51100000000E-03 0. -1.
         11    1    3    3    0    0  0.13892044424E+01  0.99036039242E+01 -0.44467462346E+02  0.45578135849E+02  0.51100000000E-03 0.  1.
<mgrwt>
<rscale>  0 0.20001383E+02</rscale>
<asrwt>0</asrwt>
<pdfrwt beam="1">  1        3 0.17001079E-03 0.20001383E+02</pdfrwt>
<pdfrwt beam="2">  1       -3 0.13923771E-01 0.20001383E+02</pdfrwt>
<totfact> 0.14476165E+06</totfact>
</mgrwt>
</event>
<event>
 5    1  0.4632081E-007  0.2000110E+02  0.7818608E-02  0.1745306E+00
         -3   -1    0    0    0  501 -0.00000000000E+00  0.00000000000E+00  0.28132015992E+01  0.28147383960E+01  0.93000000000E-01 0.  1.
          3   -1    0    0  501    0  0.00000000000E+00 -0.00000000000E+00 -0.35539291656E+02  0.35539413338E+02  0.93000000000E-01 0. -1.
       1023    2    1    2    0    0  0.00000000000E+00  0.00000000000E+00 -0.32726090057E+02  0.38354151734E+02  0.20001099591E+02 0.  0.
        -11    1    3    3    0    0 -0.99973971354E+01  0.25035377703E+00 -0.16326186647E+02  0.19145626059E+02  0.51100000000E-03 0.  1.
         11    1    3    3    0    0  0.99973971354E+01 -0.25035377703E+00 -0.16399903410E+02  0.19208525675E+02  0.51100000000E-03 0. -1.
<mgrwt>
<rscale>  0 0.20001100E+02</rscale>
<asrwt>0</asrwt>
<pdfrwt beam="2">  1        3 0.54677106E-02 0.20001100E+02</pdfrwt>
<pdfrwt beam="1">  1       -3 0.43292785E-03 0.20001100E+02</pdfrwt>
<totfact> 0.16797342E+06</totfact>
</mgrwt>
</event>
<event>
 5    1  0.4133473E-007  0.2000055E+02  0.7818608E-02  0.1745317E+00
          3   -1    0    0  501    0  0.00000000000E+00  0.00000000000E+00  0.17998974642E+01  0.18022984996E+01  0.93000000000E-01 0. -1.
         -3   -1    0    0    0  501 -0.00000000000E+00 -0.00000000000E+00 -0.55522313753E+02  0.55522391641E+02  0.93000000000E-01 0.  1.
       1023    2    1    2    0    0  0.00000000000E+00  0.00000000000E+00 -0.53722416289E+02  0.57324690141E+02  0.20000552187E+02 0.  0.
        -11    1    3    3    0    0 -0.89123640122E+01  0.45354399916E+01 -0.26657056631E+02  0.28471022404E+02  0.51100000000E-03 0. -1.
         11    1    3    3    0    0  0.89123640122E+01 -0.45354399916E+01 -0.27065359658E+02  0.28853667737E+02  0.51100000000E-03 0.  1.
<mgrwt>
<rscale>  0 0.20000552E+02</rscale>
<asrwt>0</asrwt>
<pdfrwt beam="1">  1        3 0.27709803E-03 0.20000552E+02</pdfrwt>
<pdfrwt beam="2">  1       -3 0.85420838E-02 0.20000552E+02</pdfrwt>
<totfact> 0.15865873E+06</totfact>
</mgrwt>
</event>
<event>
 5    1  0.4133473E-007  0.2000405E+02  0.7818608E-02  0.1745248E+00
          3   -1    0    0  501    0  0.00000000000E+00  0.00000000000E+00  0.32613130409E+02  0.32613263009E+02  0.93000000000E-01 0.  1.
         -3   -1    0    0    0  501 -0.00000000000E+00 -0.00000000000E+00 -0.30666480621E+01  0.30680579096E+01  0.93000000000E-01 0. -1.
       1023    2    1    2    0    0  0.00000000000E+00  0.00000000000E+00  0.29546482347E+02  0.35681320918E+02  0.20004050675E+02 0.  0.
        -11    1    3    3    0    0  0.20332387446E+01  0.97929819215E+01  0.14661053641E+02  0.17747761798E+02  0.51100000000E-03 0.  1.
         11    1    3    3    0    0 -0.20332387446E+01 -0.97929819215E+01  0.14885428706E+02  0.17933559121E+02  0.51100000000E-03 0. -1.
<mgrwt>
<rscale>  0 0.20004051E+02</rscale>
<asrwt>0</asrwt>
<pdfrwt beam="1">  1        3 0.50175234E-02 0.20004051E+02</pdfrwt>
<pdfrwt beam="2">  1       -3 0.47191065E-03 0.20004051E+02</pdfrwt>
<totfact> 0.16937072E+06</totfact>
</mgrwt>
</event>
<event>
 5    1  0.4133473E-007  0.2000033E+02  0.7818608E-02  0.1745322E+00
         -3   -1    0    0    0  501 -0.00000000000E+00  0.00000000000E+00  0.82122376584E+01  0.82127642336E+01  0.93000000000E-01 0.  1.
          3   -1    0    0  501    0  0.00000000000E+00 -0.00000000000E+00 -0.12176254398E+02  0.12176609552E+02  0.93000000000E-01 0. -1.
       1023    2    1    2    0    0  0.00000000000E+00  0.00000000000E+00 -0.39640167399E+01  0.20389373785E+02  0.20000328363E+02 0.  0.
        -11    1    3    3    0    0 -0.63791663200E+01 -0.77011777565E+01 -0.20199015886E+01  0.10202053934E+02  0.51100000000E-03 0.  1.
         11    1    3    3    0    0  0.63791663200E+01  0.77011777565E+01 -0.19441151513E+01  0.10187319852E+02  0.51100000000E-03 0. -1.
<mgrwt>
<rscale>  0 0.20000328E+02</rscale>
<asrwt>0</asrwt>
<pdfrwt beam="2">  1        3 0.18733377E-02 0.20000328E+02</pdfrwt>
<pdfrwt beam="1">  1       -3 0.12634890E-02 0.20000328E+02</pdfrwt>
<totfact> 0.17859333E+06</totfact>
</mgrwt>
</event>
<event>
 5    1  0.4133473E-007  0.2000278E+02  0.7818608E-02  0.1745273E+00
          3   -1    0    0  501    0  0.00000000000E+00  0.00000000000E+00  0.20087179137E+01  0.20108696270E+01  0.93000000000E-01 0.  1.
         -3   -1    0    0    0  501 -0.00000000000E+00 -0.00000000000E+00 -0.49767980894E+02  0.49768067787E+02  0.93000000000E-01 0. -1.
       1023    2    1    2    0    0  0.00000000000E+00  0.00000000000E+00 -0.47759262981E+02  0.51778937414E+02  0.20002778790E+02 0.  0.
        -11    1    3    3    0    0  0.84515953766E+01  0.53475927457E+01 -0.23982427651E+02  0.25984284652E+02  0.51100000000E-03 0.  1.
         11    1    3    3    0    0 -0.84515953766E+01 -0.53475927457E+01 -0.23776835329E+02  0.25794652762E+02  0.51100000000E-03 0. -1.
<mgrwt>
<rscale>  0 0.20002779E+02</rscale>
<asrwt>0</asrwt>
<pdfrwt beam="1">  1        3 0.30920576E-03 0.20002779E+02</pdfrwt>
<pdfrwt beam="2">  1       -3 0.76567837E-02 0.20002779E+02</pdfrwt>
<totfact> 0.16119750E+06</totfact>
</mgrwt>
</event>
<event>
 4    1  0.4133473E-007  0.2001467E+02  0.7818608E-02  0.1745036E+00
          3   -1    0    0  501    0  0.00000000000E+00  0.00000000000E+00  0.18023489637E+02  0.18023729572E+02  0.93000000000E-01 0.  1.
         -3   -1    0    0    0  501 -0.00000000000E+00 -0.00000000000E+00 -0.55557938719E+01  0.55565721940E+01  0.93000000000E-01 0. -1.
        -11    1    1    2    0    0  0.95418511328E+01  0.30155937313E+01  0.63256345986E+01  0.11838681596E+02  0.51100000000E-03 0.  1.
         11    1    1    2    0    0 -0.95418511328E+01 -0.30155937313E+01  0.61420611666E+01  0.11741620170E+02  0.51100000000E-03 0. -1.
<mgrwt>
<rscale>  0 0.20014674E+02</rscale>
<asrwt>0</asrwt>
<pdfrwt beam="1">  1        3 0.27729229E-02 0.20014674E+02</pdfrwt>
<pdfrwt beam="2">  1       -3 0.85481586E-03 0.20014674E+02</pdfrwt>
<totfact> 0.17627248E+06</totfact>
</mgrwt>
</event>
<event>
 5    1  0.4281499E-007  0.2000115E+02  0.7818608E-02  0.1745305E+00
         -3   -1    0    0    0  501 -0.00000000000E+00  0.00000000000E+00  0.50683426640E+01  0.50691958297E+01  0.93000000000E-01 0.  1.
          3   -1    0    0  501    0  0.00000000000E+00 -0.00000000000E+00 -0.19729969879E+02  0.19730189062E+02  0.93000000000E-01 0. -1.
       1023    2    1    2    0    0  0.00000000000E+00  0.00000000000E+00 -0.14661627215E+02  0.24799384892E+02  0.20001154427E+02 0.  0.
        -11    1    3    3    0    0  0.68862130524E+01  0.72517309006E+01 -0.74093598090E+01  0.12446129691E+02  0.51100000000E-03 0.  1.
         11    1    3    3    0    0 -0.68862130524E+01 -0.72517309006E+01 -0.72522674062E+01  0.12353255201E+02  0.51100000000E-03 0. -1.
<mgrwt>
<rscale>  0 0.20001154E+02</rscale>
<asrwt>0</asrwt>
<pdfrwt beam="2">  1        3 0.30354624E-02 0.20001154E+02</pdfrwt>
<pdfrwt beam="1">  1       -3 0.77982752E-03 0.20001154E+02</pdfrwt>
<totfact> 0.17576854E+06</totfact>
</mgrwt>
</event>
<event>
 5    1  0.4133473E-007  0.2000036E+02  0.7818608E-02  0.1745321E+00
          3   -1    0    0  501    0  0.00000000000E+00  0.00000000000E+00  0.63169772881E+01  0.63176618348E+01  0.93000000000E-01 0. -1.
         -3   -1    0    0    0  501 -0.00000000000E+00 -0.00000000000E+00 -0.15829245997E+02  0.15829519191E+02  0.93000000000E-01 0.  1.
       1023    2    1    2    0    0  0.00000000000E+00  0.00000000000E+00 -0.95122687086E+01  0.22147181026E+02  0.20000359282E+02 0.  0.
        -11    1    3    3    0    0  0.17007817898E+01  0.98544870704E+01 -0.47608938999E+01  0.11075634750E+02  0.51100000000E-03 0. -1.
         11    1    3    3    0    0 -0.17007817898E+01 -0.98544870704E+01 -0.47513748087E+01  0.11071546276E+02  0.51100000000E-03 0.  1.
<mgrwt>
<rscale>  0 0.20000359E+02</rscale>
<asrwt>0</asrwt>
<pdfrwt beam="1">  1        3 0.97191634E-03 0.20000359E+02</pdfrwt>
<pdfrwt beam="2">  1       -3 0.24353423E-02 0.20000359E+02</pdfrwt>
<totfact> 0.17746152E+06</totfact>
</mgrwt>
</event>
<event>
 4    1  0.4133473E-007  0.2012643E+02  0.7818608E-02  0.1742826E+00
         -3   -1    0    0    0  501 -0.00000000000E+00  0.00000000000E+00  0.10917670950E+01  0.10957209452E+01  0.93000000000E-01 0.  1.
          3   -1    0    0  501    0  0.00000000000E+00 -0.00000000000E+00 -0.92584673315E+02  0.92584720024E+02  0.93000000000E-01 0. -1.
        -11    1    1    2    0    0 -0.81413197871E+01  0.59136198271E+01 -0.46340626411E+02  0.47420519227E+02  0.51100000000E-03 0. -1.
         11    1    1    2    0    0  0.81413197871E+01 -0.59136198271E+01 -0.45152279809E+02  0.46259921742E+02  0.51100000000E-03 0.  1.
<mgrwt>
<rscale>  0 0.20126429E+02</rscale>
<asrwt>0</asrwt>
<pdfrwt beam="2">  1        3 0.14244097E-01 0.20126429E+02</pdfrwt>
<pdfrwt beam="1">  1       -3 0.16827198E-03 0.20126429E+02</pdfrwt>
<totfact> 0.14207084E+06</totfact>
</mgrwt>
</event>
<event>
 4    1  0.4133473E-007  0.2004557E+02  0.7818608E-02  0.1744423E+00
         -3   -1    0    0    0  501 -0.00000000000E+00  0.00000000000E+00  0.12949002537E+02  0.12949336497E+02  0.93000000000E-01 0.  1.
          3   -1    0    0  501    0  0.00000000000E+00 -0.00000000000E+00 -0.77571241572E+01  0.77576816247E+01  0.93000000000E-01 0. -1.
        -11    1    1    2    0    0 -0.10015283484E+02  0.25265212302E+00  0.22921028636E+01  0.10277328065E+02  0.51100000000E-03 0.  1.
         11    1    1    2    0    0  0.10015283484E+02 -0.25265212302E+00  0.28997755161E+01  0.10429690056E+02  0.51100000000E-03 0. -1.
<mgrwt>
<rscale>  0 0.20045573E+02</rscale>
<asrwt>0</asrwt>
<pdfrwt beam="2">  1        3 0.11934723E-02 0.20045573E+02</pdfrwt>
<pdfrwt beam="1">  1       -3 0.19922228E-02 0.20045573E+02</pdfrwt>
<totfact> 0.17752392E+06</totfact>
</mgrwt>
</event>
<event>
 5    1  0.4133473E-007  0.2000036E+02  0.7818608E-02  0.1745321E+00
          3   -1    0    0  501    0  0.00000000000E+00  0.00000000000E+00  0.27438331771E+02  0.27438489379E+02  0.93000000000E-01 0.  1.
         -3   -1    0    0    0  501 -0.00000000000E+00 -0.00000000000E+00 -0.36439059091E+01  0.36450924919E+01  0.93000000000E-01 0. -1.
       1023    2    1    2    0    0  0.00000000000E+00  0.00000000000E+00  0.23794425862E+02  0.31083581871E+02  0.20000358992E+02 0.  0.
        -11    1    3    3    0    0 -0.99888411575E+01  0.47369901835E+00  0.11823472444E+02  0.15485342726E+02  0.51100000000E-03 0. -1.
         11    1    3    3    0    0  0.99888411575E+01 -0.47369901835E+00  0.11970953418E+02  0.15598239145E+02  0.51100000000E-03 0.  1.
<mgrwt>
<rscale>  0 0.20000359E+02</rscale>
<asrwt>0</asrwt>
<pdfrwt beam="1">  1        3 0.42213851E-02 0.20000359E+02</pdfrwt>
<pdfrwt beam="2">  1       -3 0.56070432E-03 0.20000359E+02</pdfrwt>
<totfact> 0.17202898E+06</totfact>
</mgrwt>
</event>
<event>
 4    1  0.4133473E-007  0.2014897E+02  0.7818608E-02  0.1742382E+00
          3   -1    0    0  501    0  0.00000000000E+00  0.00000000000E+00  0.93072252592E+01  0.93076898866E+01  0.93000000000E-01 0. -1.
         -3   -1    0    0    0  501 -0.00000000000E+00 -0.00000000000E+00 -0.10904060663E+02  0.10904457251E+02  0.93000000000E-01 0.  1.
        -11    1    1    2    0    0 -0.11309695007E+01  0.99664389474E+01 -0.17427804331E+01  0.10180681765E+02  0.51100000000E-03 0.  1.
         11    1    1    2    0    0  0.11309695007E+01 -0.99664389474E+01  0.14594502962E+00  0.10031465372E+02  0.51100000000E-03 0. -1.
<mgrwt>
<rscale>  0 0.20148970E+02</rscale>
<asrwt>0</asrwt>
<pdfrwt beam="1">  1        3 0.14319471E-02 0.20148970E+02</pdfrwt>
<pdfrwt beam="2">  1       -3 0.16776140E-02 0.20148970E+02</pdfrwt>
<totfact> 0.17588096E+06</totfact>
</mgrwt>
</event>
<event>
 5    1  0.4133473E-007  0.2000111E+02  0.7818608E-02  0.1745306E+00
         -3   -1    0    0    0  501 -0.00000000000E+00  0.00000000000E+00  0.16904175239E+01  0.16929738347E+01  0.93000000000E-01 0. -1.
          3   -1    0    0  501    0  0.00000000000E+00 -0.00000000000E+00 -0.59116257171E+02  0.59116330323E+02  0.93000000000E-01 0.  1.
       1023    2    1    2    0    0  0.00000000000E+00  0.00000000000E+00 -0.57425839647E+02  0.60809304158E+02  0.20001110295E+02 0.  0.
        -11    1    3    3    0    0  0.72659140987E+01 -0.68707091032E+01 -0.29031088273E+02  0.30705117453E+02  0.51100000000E-03 0.  1.
         11    1    3    3    0    0 -0.72659140987E+01  0.68707091032E+01 -0.28394751374E+02  0.30104186705E+02  0.51100000000E-03 0. -1.
<mgrwt>
<rscale>  0 0.20001110E+02</rscale>
<asrwt>0</asrwt>
<pdfrwt beam="2">  1        3 0.90950095E-02 0.20001110E+02</pdfrwt>
<pdfrwt beam="1">  1       -3 0.26026655E-03 0.20001110E+02</pdfrwt>
<totfact> 0.15705733E+06</totfact>
</mgrwt>
</event>
<event>
 5    1  0.4408598E-007  0.2000104E+02  0.7818608E-02  0.1745307E+00
         -3   -1    0    0    0  501 -0.00000000000E+00  0.00000000000E+00  0.66919600696E+01  0.66926062616E+01  0.93000000000E-01 0. -1.
          3   -1    0    0  501    0  0.00000000000E+00 -0.00000000000E+00 -0.14943343252E+02  0.14943632643E+02  0.93000000000E-01 0.  1.
       1023    2    1    2    0    0  0.00000000000E+00  0.00000000000E+00 -0.82513831828E+01  0.21636238904E+02  0.20001037710E+02 0.  0.
        -11    1    3    3    0    0 -0.48747063402E+01 -0.87315548290E+01 -0.42197824459E+01  0.10854002754E+02  0.51100000000E-03 0. -1.
         11    1    3    3    0    0  0.48747063402E+01  0.87315548290E+01 -0.40316007370E+01  0.10782236150E+02  0.51100000000E-03 0.  1.
<mgrwt>
<rscale>  0 0.20001038E+02</rscale>
<asrwt>0</asrwt>
<pdfrwt beam="2">  1        3 0.22990478E-02 0.20001038E+02</pdfrwt>
<pdfrwt beam="1">  1       -3 0.10296043E-02 0.20001038E+02</pdfrwt>
<totfact> 0.17776841E+06</totfact>
</mgrwt>
</event>
<event>
 5    1  0.4133473E-007  0.2000015E+02  0.7818608E-02  0.1745325E+00
         -3   -1    0    0    0  501 -0.00000000000E+00  0.00000000000E+00  0.33931665072E+02  0.33931792519E+02  0.93000000000E-01 0.  1.
          3   -1    0    0  501    0  0.00000000000E+00 -0.00000000000E+00 -0.29462778691E+01  0.29477452878E+01  0.93000000000E-01 0. -1.
       1023    2    1    2    0    0  0.00000000000E+00  0.00000000000E+00  0.30985387203E+02  0.36879537807E+02  0.20000152218E+02 0.  0.
        -11    1    3    3    0    0  0.83387814044E+01 -0.55195662862E+01  0.15446240908E+02  0.18400740358E+02  0.51100000000E-03 0.  1.
         11    1    3    3    0    0 -0.83387814044E+01  0.55195662862E+01  0.15539146296E+02  0.18478797449E+02  0.51100000000E-03 0. -1.
<mgrwt>
<rscale>  0 0.20000152E+02</rscale>
<asrwt>0</asrwt>
<pdfrwt beam="2">  1        3 0.45339619E-03 0.20000152E+02</pdfrwt>
<pdfrwt beam="1">  1       -3 0.52203790E-02 0.20000152E+02</pdfrwt>
<totfact> 0.16880778E+06</totfact>
</mgrwt>
</event>
<event>
 5    1  0.4133473E-007  0.2000022E+02  0.7818608E-02  0.1745324E+00
          3   -1    0    0  501    0  0.00000000000E+00  0.00000000000E+00  0.62164186436E+01  0.62171142624E+01  0.93000000000E-01 0.  1.
         -3   -1    0    0    0  501 -0.00000000000E+00 -0.00000000000E+00 -0.16085049701E+02  0.16085318551E+02  0.93000000000E-01 0. -1.
       1023    2    1    2    0    0  0.00000000000E+00  0.00000000000E+00 -0.98686310573E+01  0.22302432813E+02  0.20000215760E+02 0.  0.
        -11    1    3    3    0    0  0.16075919693E+01  0.98699807077E+01 -0.49743080159E+01  0.11168912732E+02  0.51100000000E-03 0.  1.
         11    1    3    3    0    0 -0.16075919693E+01 -0.98699807077E+01 -0.48943230414E+01  0.11133520081E+02  0.51100000000E-03 0. -1.
<mgrwt>
<rscale>  0 0.20000216E+02</rscale>
<asrwt>0</asrwt>
<pdfrwt beam="1">  1        3 0.95644630E-03 0.20000216E+02</pdfrwt>
<pdfrwt beam="2">  1       -3 0.24746972E-02 0.20000216E+02</pdfrwt>
<totfact> 0.17736538E+06</totfact>
</mgrwt>
</event>
<event>
 5    1  0.4133473E-007  0.2000602E+02  0.7818608E-02  0.1745208E+00
          3   -1    0    0  501    0  0.00000000000E+00  0.00000000000E+00  0.39350972454E+01  0.39361960483E+01  0.93000000000E-01 0.  1.
         -3   -1    0    0    0  501 -0.00000000000E+00 -0.00000000000E+00 -0.25422894589E+02  0.25423064691E+02  0.93000000000E-01 0. -1.
       1023    2    1    2    0    0  0.00000000000E+00  0.00000000000E+00 -0.21487797344E+02  0.29359260740E+02  0.20006018007E+02 0.  0.
        -11    1    3    3    0    0 -0.82433835466E+01 -0.56615140960E+01 -0.11085155647E+02  0.14929393495E+02  0.51100000000E-03 0. -1.
         11    1    3    3    0    0  0.82433835466E+01  0.56615140960E+01 -0.10402641697E+02  0.14429867245E+02  0.51100000000E-03 0.  1.
<mgrwt>
<rscale>  0 0.20006018E+02</rscale>
<asrwt>0</asrwt>
<pdfrwt beam="1">  1        3 0.60549720E-03 0.20006018E+02</pdfrwt>
<pdfrwt beam="2">  1       -3 0.39113120E-02 0.20006018E+02</pdfrwt>
<totfact> 0.17294343E+06</totfact>
</mgrwt>
</event>
<event>
 4    1  0.4133473E-007  0.2009466E+02  0.7818608E-02  0.1743452E+00
          3   -1    0    0  501    0  0.00000000000E+00  0.00000000000E+00  0.10473211051E+03  0.10473215180E+03  0.93000000000E-01 0.  1.
         -3   -1    0    0    0  501 -0.00000000000E+00 -0.00000000000E+00 -0.96159223252E+00  0.96607899348E+00  0.93000000000E-01 0. -1.
        -11    1    1    2    0    0  0.93136509442E+01  0.37483356238E+01  0.53954580374E+02  0.54880696583E+02  0.51100000000E-03 0.  1.
         11    1    1    2    0    0 -0.93136509442E+01 -0.37483356238E+01  0.49815937903E+02  0.50817534211E+02  0.51100000000E-03 0. -1.
<mgrwt>
<rscale>  0 0.20094664E+02</rscale>
<asrwt>0</asrwt>
<pdfrwt beam="1">  1        3 0.16112973E-01 0.20094664E+02</pdfrwt>
<pdfrwt beam="2">  1       -3 0.14828565E-03 0.20094664E+02</pdfrwt>
<totfact> 0.13842738E+06</totfact>
</mgrwt>
</event>
<event>
 5    1  0.4194837E-007  0.2000183E+02  0.7818608E-02  0.1745292E+00
          3   -1    0    0  501    0  0.00000000000E+00  0.00000000000E+00  0.18750763922E+02  0.18750994551E+02  0.93000000000E-01 0. -1.
         -3   -1    0    0    0  501 -0.00000000000E+00 -0.00000000000E+00 -0.53334235424E+01  0.53342343108E+01  0.93000000000E-01 0.  1.
       1023    2    1    2    0    0  0.00000000000E+00  0.00000000000E+00  0.13417340379E+02  0.24085228862E+02  0.20001830578E+02 0.  0.
        -11    1    3    3    0    0 -0.79624470113E+01  0.60512234661E+01  0.67338859315E+01  0.12056661555E+02  0.51100000000E-03 0.  1.
         11    1    3    3    0    0  0.79624470113E+01 -0.60512234661E+01  0.66834544479E+01  0.12028567307E+02  0.51100000000E-03 0. -1.
<mgrwt>
<rscale>  0 0.20001831E+02</rscale>
<asrwt>0</asrwt>
<pdfrwt beam="1">  1        3 0.28848130E-02 0.20001831E+02</pdfrwt>
<pdfrwt beam="2">  1       -3 0.82060682E-03 0.20001831E+02</pdfrwt>
<totfact> 0.17620036E+06</totfact>
</mgrwt>
</event>
<event>
 5    1  0.4133473E-007  0.2000050E+02  0.7818608E-02  0.1745318E+00
         -3   -1    0    0    0  501 -0.00000000000E+00  0.00000000000E+00  0.41910221869E+02  0.41910325054E+02  0.93000000000E-01 0.  1.
          3   -1    0    0  501    0  0.00000000000E+00 -0.00000000000E+00 -0.23851594574E+01  0.23869718551E+01  0.93000000000E-01 0. -1.
       1023    2    1    2    0    0  0.00000000000E+00  0.00000000000E+00  0.39525062411E+02  0.44297296909E+02  0.20000498863E+02 0.  0.
        -11    1    3    3    0    0 -0.41643394116E+01  0.90918907804E+01  0.19824693470E+02  0.22204113856E+02  0.51100000000E-03 0.  1.
         11    1    3    3    0    0  0.41643394116E+01 -0.90918907804E+01  0.19700368942E+02  0.22093183053E+02  0.51100000000E-03 0. -1.
<mgrwt>
<rscale>  0 0.20000499E+02</rscale>
<asrwt>0</asrwt>
<pdfrwt beam="2">  1        3 0.36709499E-03 0.20000499E+02</pdfrwt>
<pdfrwt beam="1">  1       -3 0.64478733E-02 0.20000499E+02</pdfrwt>
<totfact> 0.16491011E+06</totfact>
</mgrwt>
</event>
<event>
 5    1  0.4133473E-007  0.2000350E+02  0.7818608E-02  0.1745259E+00
          3   -1    0    0  501    0  0.00000000000E+00  0.00000000000E+00  0.24137259088E+02  0.24137438250E+02  0.93000000000E-01 0. -1.
         -3   -1    0    0    0  501 -0.00000000000E+00 -0.00000000000E+00 -0.41437051879E+01  0.41447486877E+01  0.93000000000E-01 0.  1.
       1023    2    1    2    0    0  0.00000000000E+00  0.00000000000E+00  0.19993553900E+02  0.28282186938E+02  0.20003497205E+02 0.  0.
        -11    1    3    3    0    0 -0.87481603753E+01  0.48453124154E+01  0.97618353748E+01  0.13975005993E+02  0.51100000000E-03 0. -1.
         11    1    3    3    0    0  0.87481603753E+01 -0.48453124154E+01  0.10231718525E+02  0.14307180945E+02  0.51100000000E-03 0.  1.
<mgrwt>
<rscale>  0 0.20003497E+02</rscale>
<asrwt>0</asrwt>
<pdfrwt beam="1">  1        3 0.37135185E-02 0.20003497E+02</pdfrwt>
<pdfrwt beam="2">  1       -3 0.63758716E-03 0.20003497E+02</pdfrwt>
<totfact> 0.17361084E+06</totfact>
</mgrwt>
</event>
<event>
 5    1  0.4133473E-007  0.2000042E+02  0.7818608E-02  0.1745320E+00
          3   -1    0    0  501    0  0.00000000000E+00  0.00000000000E+00  0.14863620695E+02  0.14863911637E+02  0.93000000000E-01 0. -1.
         -3   -1    0    0    0  501 -0.00000000000E+00 -0.00000000000E+00 -0.67274382741E+01  0.67280810586E+01  0.93000000000E-01 0.  1.
       1023    2    1    2    0    0  0.00000000000E+00  0.00000000000E+00  0.81361824207E+01  0.21591992696E+02  0.20000417100E+02 0.  0.
        -11    1    3    3    0    0 -0.99172254644E+01  0.12845921167E+01  0.41234869653E+01  0.10816870288E+02  0.51100000000E-03 0.  1.
         11    1    3    3    0    0  0.99172254644E+01 -0.12845921167E+01  0.40126954554E+01  0.10775122408E+02  0.51100000000E-03 0. -1.
<mgrwt>
<rscale>  0 0.20000417E+02</rscale>
<asrwt>0</asrwt>
<pdfrwt beam="1">  1        3 0.22867827E-02 0.20000417E+02</pdfrwt>
<pdfrwt beam="2">  1       -3 0.10350623E-02 0.20000417E+02</pdfrwt>
<totfact> 0.17780883E+06</totfact>
</mgrwt>
</event>
<event>
 5    1  0.4133473E-007  0.2000016E+02  0.7818608E-02  0.1745325E+00
          3   -1    0    0  501    0  0.00000000000E+00  0.00000000000E+00  0.74810302283E+01  0.74816082680E+01  0.93000000000E-01 0.  1.
         -3   -1    0    0    0  501 -0.00000000000E+00 -0.00000000000E+00 -0.13366099977E+02  0.13366423516E+02  0.93000000000E-01 0. -1.
       1023    2    1    2    0    0  0.00000000000E+00  0.00000000000E+00 -0.58850697490E+01  0.20848031784E+02  0.20000159582E+02 0.  0.
        -11    1    3    3    0    0 -0.99379251797E+01  0.11126002414E+01 -0.29809678200E+01  0.10434864905E+02  0.51100000000E-03 0. -1.
         11    1    3    3    0    0  0.99379251797E+01 -0.11126002414E+01 -0.29041019291E+01  0.10413166879E+02  0.51100000000E-03 0.  1.
<mgrwt>
<rscale>  0 0.20000160E+02</rscale>
<asrwt>0</asrwt>
<pdfrwt beam="1">  1        3 0.11509971E-02 0.20000160E+02</pdfrwt>
<pdfrwt beam="2">  1       -3 0.20563924E-02 0.20000160E+02</pdfrwt>
<totfact> 0.17830204E+06</totfact>
</mgrwt>
</event>
<event>
 5    1  0.4133473E-007  0.2000045E+02  0.7818608E-02  0.1745319E+00
          3   -1    0    0  501    0  0.00000000000E+00  0.00000000000E+00  0.15834776722E+02  0.15835049821E+02  0.93000000000E-01 0. -1.
         -3   -1    0    0    0  501 -0.00000000000E+00 -0.00000000000E+00 -0.63148287311E+01  0.63155135106E+01  0.93000000000E-01 0.  1.
       1023    2    1    2    0    0  0.00000000000E+00  0.00000000000E+00  0.95199479910E+01  0.22150563332E+02  0.20000451149E+02 0.  0.
        -11    1    3    3    0    0 -0.26904611087E+01 -0.96315017008E+01  0.47486098015E+01  0.11070397522E+02  0.51100000000E-03 0.  1.
         11    1    3    3    0    0  0.26904611087E+01  0.96315017008E+01  0.47713381894E+01  0.11080165810E+02  0.51100000000E-03 0. -1.
<mgrwt>
<rscale>  0 0.20000451E+02</rscale>
<asrwt>0</asrwt>
<pdfrwt beam="1">  1        3 0.24361931E-02 0.20000451E+02</pdfrwt>
<pdfrwt beam="2">  1       -3 0.97158581E-03 0.20000451E+02</pdfrwt>
<totfact> 0.17744946E+06</totfact>
</mgrwt>
</event>
<event>
 5    1  0.4252962E-007  0.2000211E+02  0.7818608E-02  0.1745286E+00
         -3   -1    0    0    0  501 -0.00000000000E+00  0.00000000000E+00  0.13304731607E+02  0.13305056638E+02  0.93000000000E-01 0. -1.
          3   -1    0    0  501    0  0.00000000000E+00 -0.00000000000E+00 -0.75170043994E+01  0.75175796730E+01  0.93000000000E-01 0.  1.
       1023    2    1    2    0    0  0.00000000000E+00  0.00000000000E+00  0.57877272076E+01  0.20822636311E+02  0.20002109806E+02 0.  0.
        -11    1    3    3    0    0 -0.68690927590E+01  0.72687089256E+01  0.28414583409E+01  0.10396751923E+02  0.51100000000E-03 0.  1.
         11    1    3    3    0    0  0.68690927590E+01 -0.72687089256E+01  0.29462688667E+01  0.10425884388E+02  0.51100000000E-03 0. -1.
<mgrwt>
<rscale>  0 0.20002110E+02</rscale>
<asrwt>0</asrwt>
<pdfrwt beam="2">  1        3 0.11565315E-02 0.20002110E+02</pdfrwt>
<pdfrwt beam="1">  1       -3 0.20469510E-02 0.20002110E+02</pdfrwt>
<totfact> 0.17828112E+06</totfact>
</mgrwt>
</event>
<event>
 5    1  0.4133473E-007  0.2000159E+02  0.7818608E-02  0.1745297E+00
          3   -1    0    0  501    0  0.00000000000E+00  0.00000000000E+00  0.11146812867E+03  0.11146816747E+03  0.93000000000E-01 0.  1.
         -3   -1    0    0    0  501 -0.00000000000E+00 -0.00000000000E+00 -0.89481075329E+00  0.89963063765E+00  0.93000000000E-01 0. -1.
       1023    2    1    2    0    0  0.00000000000E+00  0.00000000000E+00  0.11057331792E+03  0.11236779810E+03  0.20001585325E+02 0.  0.
        -11    1    3    3    0    0  0.27083738705E+01  0.96270397553E+01  0.55141226253E+02  0.56040788863E+02  0.51100000000E-03 0.  1.
         11    1    3    3    0    0 -0.27083738705E+01 -0.96270397553E+01  0.55432091663E+02  0.56327009240E+02  0.51100000000E-03 0. -1.
<mgrwt>
<rscale>  0 0.20001585E+02</rscale>
<asrwt>0</asrwt>
<pdfrwt beam="1">  1        3 0.17149304E-01 0.20001585E+02</pdfrwt>
<pdfrwt beam="2">  1       -3 0.13803704E-03 0.20001585E+02</pdfrwt>
<totfact> 0.13761412E+06</totfact>
</mgrwt>
</event>
<event>
 4    1  0.4133473E-007  0.2002875E+02  0.7818608E-02  0.1744757E+00
         -3   -1    0    0    0  501 -0.00000000000E+00  0.00000000000E+00  0.12939308911E+01  0.12972687273E+01  0.93000000000E-01 0. -1.
          3   -1    0    0  501    0  0.00000000000E+00 -0.00000000000E+00 -0.77402999134E+02  0.77403055004E+02  0.93000000000E-01 0.  1.
        -11    1    1    2    0    0  0.22250832957E+00 -0.10002658942E+02 -0.36364560702E+02  0.37715831837E+02  0.51100000000E-03 0. -1.
         11    1    1    2    0    0 -0.22250832957E+00  0.10002658942E+02 -0.39744507541E+02  0.40984491894E+02  0.51100000000E-03 0.  1.
<mgrwt>
<rscale>  0 0.20028747E+02</rscale>
<asrwt>0</asrwt>
<pdfrwt beam="2">  1        3 0.11908411E-01 0.20028747E+02</pdfrwt>
<pdfrwt beam="1">  1       -3 0.19932740E-03 0.20028747E+02</pdfrwt>
<totfact> 0.14916056E+06</totfact>
</mgrwt>
</event>
<event>
 5    1  0.4133473E-007  0.2000034E+02  0.7818608E-02  0.1745321E+00
         -3   -1    0    0    0  501 -0.00000000000E+00  0.00000000000E+00  0.22903339572E+02  0.22903528386E+02  0.93000000000E-01 0.  1.
          3   -1    0    0  501    0  0.00000000000E+00 -0.00000000000E+00 -0.43656224827E+01  0.43666129508E+01  0.93000000000E-01 0. -1.
       1023    2    1    2    0    0  0.00000000000E+00  0.00000000000E+00  0.18537717089E+02  0.27270141337E+02  0.20000341339E+02 0.  0.
        -11    1    3    3    0    0  0.14684057281E+01  0.98916877839E+01  0.92124663626E+01  0.13596736349E+02  0.51100000000E-03 0. -1.
         11    1    3    3    0    0 -0.14684057281E+01 -0.98916877839E+01  0.93252507262E+01  0.13673404988E+02  0.51100000000E-03 0.  1.
<mgrwt>
<rscale>  0 0.20000341E+02</rscale>
<asrwt>0</asrwt>
<pdfrwt beam="2">  1        3 0.67172496E-03 0.20000341E+02</pdfrwt>
<pdfrwt beam="1">  1       -3 0.35236813E-02 0.20000341E+02</pdfrwt>
<totfact> 0.17428994E+06</totfact>
</mgrwt>
</event>
<event>
 5    1  0.4172487E-007  0.2000059E+02  0.7818608E-02  0.1745316E+00
          3   -1    0    0  501    0  0.00000000000E+00  0.00000000000E+00  0.23166035481E+02  0.23166222155E+02  0.93000000000E-01 0. -1.
         -3   -1    0    0    0  501 -0.00000000000E+00 -0.00000000000E+00 -0.43162126588E+01  0.43172144626E+01  0.93000000000E-01 0.  1.
       1023    2    1    2    0    0  0.00000000000E+00  0.00000000000E+00  0.18849822823E+02  0.27483436617E+02  0.20000586688E+02 0.  0.
        -11    1    3    3    0    0 -0.71015863158E+01  0.70408166934E+01  0.94461457806E+01  0.13756282139E+02  0.51100000000E-03 0. -1.
         11    1    3    3    0    0  0.71015863158E+01 -0.70408166934E+01  0.94036770419E+01  0.13727154479E+02  0.51100000000E-03 0.  1.
<mgrwt>
<rscale>  0 0.20000587E+02</rscale>
<asrwt>0</asrwt>
<pdfrwt beam="1">  1        3 0.35640969E-02 0.20000587E+02</pdfrwt>
<pdfrwt beam="2">  1       -3 0.66412414E-03 0.20000587E+02</pdfrwt>
<totfact> 0.17414271E+06</totfact>
</mgrwt>
</event>
<event>
 5    1  0.4133473E-007  0.2000052E+02  0.7818608E-02  0.1745318E+00
          3   -1    0    0  501    0  0.00000000000E+00  0.00000000000E+00  0.18438908047E+01  0.18462346275E+01  0.93000000000E-01 0. -1.
         -3   -1    0    0    0  501 -0.00000000000E+00 -0.00000000000E+00 -0.54199136723E+02  0.54199216512E+02  0.93000000000E-01 0.  1.
       1023    2    1    2    0    0  0.00000000000E+00  0.00000000000E+00 -0.52355245918E+02  0.56045451140E+02  0.20000520450E+02 0.  0.
        -11    1    3    3    0    0 -0.96064474509E+01 -0.27783223358E+01 -0.26043331253E+02  0.27897276044E+02  0.51100000000E-03 0. -1.
         11    1    3    3    0    0  0.96064474509E+01  0.27783223358E+01 -0.26311914665E+02  0.28148175096E+02  0.51100000000E-03 0.  1.
<mgrwt>
<rscale>  0 0.20000520E+02</rscale>
<asrwt>0</asrwt>
<pdfrwt beam="1">  1        3 0.28386198E-03 0.20000520E+02</pdfrwt>
<pdfrwt beam="2">  1       -3 0.83385139E-02 0.20000520E+02</pdfrwt>
<totfact> 0.15924367E+06</totfact>
</mgrwt>
</event>
<event>
 5    1  0.4143910E-007  0.2000068E+02  0.7818608E-02  0.1745315E+00
          3   -1    0    0  501    0  0.00000000000E+00  0.00000000000E+00  0.37863339676E+01  0.37874759292E+01  0.93000000000E-01 0.  1.
         -3   -1    0    0    0  501 -0.00000000000E+00 -0.00000000000E+00 -0.26407366089E+02  0.26407529850E+02  0.93000000000E-01 0. -1.
       1023    2    1    2    0    0  0.00000000000E+00  0.00000000000E+00 -0.22621032122E+02  0.30195005779E+02  0.20000681982E+02 0.  0.
        -11    1    3    3    0    0 -0.58060866917E+01  0.81420305721E+01 -0.11221007736E+02  0.15030446413E+02  0.51100000000E-03 0. -1.
         11    1    3    3    0    0  0.58060866917E+01 -0.81420305721E+01 -0.11400024386E+02  0.15164559366E+02  0.51100000000E-03 0.  1.
<mgrwt>
<rscale>  0 0.20000682E+02</rscale>
<asrwt>0</asrwt>
<pdfrwt beam="1">  1        3 0.58261338E-03 0.20000682E+02</pdfrwt>
<pdfrwt beam="2">  1       -3 0.40627720E-02 0.20000682E+02</pdfrwt>
<totfact> 0.17255456E+06</totfact>
</mgrwt>
</event>
<event>
 5    1  0.4133473E-007  0.2000089E+02  0.7818608E-02  0.1745310E+00
          3   -1    0    0  501    0  0.00000000000E+00  0.00000000000E+00  0.11625216868E+03  0.11625220588E+03  0.93000000000E-01 0. -1.
         -3   -1    0    0    0  501 -0.00000000000E+00 -0.00000000000E+00 -0.85772459548E+00  0.86275169179E+00  0.93000000000E-01 0.  1.
       1023    2    1    2    0    0  0.00000000000E+00  0.00000000000E+00  0.11539444409E+03  0.11711495758E+03  0.20000889013E+02 0.  0.
        -11    1    3    3    0    0  0.65725139804E+01  0.75372633322E+01  0.57552423661E+02  0.58414807609E+02  0.51100000000E-03 0.  1.
         11    1    3    3    0    0 -0.65725139804E+01 -0.75372633322E+01  0.57842020428E+02  0.58700149966E+02  0.51100000000E-03 0. -1.
<mgrwt>
<rscale>  0 0.20000889E+02</rscale>
<asrwt>0</asrwt>
<pdfrwt beam="1">  1        3 0.17885350E-01 0.20000889E+02</pdfrwt>
<pdfrwt beam="2">  1       -3 0.13234710E-03 0.20000889E+02</pdfrwt>
<totfact> 0.13610389E+06</totfact>
</mgrwt>
</event>
<event>
 5    1  0.4133473E-007  0.2000042E+02  0.7818608E-02  0.1745320E+00
         -3   -1    0    0    0  501 -0.00000000000E+00  0.00000000000E+00  0.46178360527E+01  0.46187724353E+01  0.93000000000E-01 0.  1.
          3   -1    0    0  501    0  0.00000000000E+00 -0.00000000000E+00 -0.21652846084E+02  0.21653045803E+02  0.93000000000E-01 0. -1.
       1023    2    1    2    0    0  0.00000000000E+00  0.00000000000E+00 -0.17035010032E+02  0.26271818238E+02  0.20000421665E+02 0.  0.
        -11    1    3    3    0    0  0.80153756457E+01  0.59797798830E+01 -0.84988246504E+01  0.13123796512E+02  0.51100000000E-03 0. -1.
         11    1    3    3    0    0 -0.80153756457E+01 -0.59797798830E+01 -0.85361853812E+01  0.13148021726E+02  0.51100000000E-03 0.  1.
<mgrwt>
<rscale>  0 0.20000422E+02</rscale>
<asrwt>0</asrwt>
<pdfrwt beam="2">  1        3 0.33312944E-02 0.20000422E+02</pdfrwt>
<pdfrwt beam="1">  1       -3 0.71052372E-03 0.20000422E+02</pdfrwt>
<totfact> 0.17487779E+06</totfact>
</mgrwt>
</event>
<event>
 4    1  0.4133473E-007  0.2001352E+02  0.7818608E-02  0.1745059E+00
         -3   -1    0    0    0  501 -0.00000000000E+00  0.00000000000E+00  0.48515142167E+02  0.48515231304E+02  0.93000000000E-01 0. -1.
          3   -1    0    0  501    0  0.00000000000E+00 -0.00000000000E+00 -0.20628612066E+01  0.20649565026E+01  0.93000000000E-01 0.  1.
        -11    1    1    2    0    0  0.60976671719E+01 -0.79321091479E+01  0.22750985752E+02  0.24853717094E+02  0.51100000000E-03 0. -1.
         11    1    1    2    0    0 -0.60976671719E+01  0.79321091479E+01  0.23701295209E+02  0.25726470712E+02  0.51100000000E-03 0.  1.
<mgrwt>
<rscale>  0 0.20013520E+02</rscale>
<asrwt>0</asrwt>
<pdfrwt beam="2">  1        3 0.31753131E-03 0.20013520E+02</pdfrwt>
<pdfrwt beam="1">  1       -3 0.74640356E-02 0.20013520E+02</pdfrwt>
<totfact> 0.16158353E+06</totfact>
</mgrwt>
</event>
<event>
 5    1  0.4133473E-007  0.2000033E+02  0.7818608E-02  0.1745322E+00
         -3   -1    0    0    0  501 -0.00000000000E+00  0.00000000000E+00  0.36227684255E+02  0.36227803625E+02  0.93000000000E-01 0. -1.
          3   -1    0    0  501    0  0.00000000000E+00 -0.00000000000E+00 -0.27595039482E+01  0.27610706329E+01  0.93000000000E-01 0.  1.
       1023    2    1    2    0    0  0.00000000000E+00  0.00000000000E+00  0.33468180307E+02  0.38988874258E+02  0.20000330568E+02 0.  0.
        -11    1    3    3    0    0  0.91593567687E+01  0.40136608909E+01  0.16741711956E+02  0.19500979710E+02  0.51100000000E-03 0.  1.
         11    1    3    3    0    0 -0.91593567687E+01 -0.40136608909E+01  0.16726468352E+02  0.19487894549E+02  0.51100000000E-03 0. -1.
<mgrwt>
<rscale>  0 0.20000331E+02</rscale>
<asrwt>0</asrwt>
<pdfrwt beam="2">  1        3 0.42466874E-03 0.20000331E+02</pdfrwt>
<pdfrwt beam="1">  1       -3 0.55736199E-02 0.20000331E+02</pdfrwt>
<totfact> 0.16767008E+06</totfact>
</mgrwt>
</event>
<event>
 5    1  0.4133473E-007  0.2000130E+02  0.7818608E-02  0.1745302E+00
         -3   -1    0    0    0  501 -0.00000000000E+00  0.00000000000E+00  0.50472399782E+02  0.50472485463E+02  0.93000000000E-01 0. -1.
          3   -1    0    0  501    0  0.00000000000E+00 -0.00000000000E+00 -0.19803600547E+01  0.19825425459E+01  0.93000000000E-01 0.  1.
       1023    2    1    2    0    0  0.00000000000E+00  0.00000000000E+00  0.48492039727E+02  0.52455028008E+02  0.20001301119E+02 0.  0.
        -11    1    3    3    0    0 -0.80347960049E+01 -0.59544060210E+01  0.24218086339E+02  0.26201690864E+02  0.51100000000E-03 0.  1.
         11    1    3    3    0    0  0.80347960049E+01  0.59544060210E+01  0.24273953388E+02  0.26253337145E+02  0.51100000000E-03 0. -1.
<mgrwt>
<rscale>  0 0.20001301E+02</rscale>
<asrwt>0</asrwt>
<pdfrwt beam="2">  1        3 0.30484527E-03 0.20001301E+02</pdfrwt>
<pdfrwt beam="1">  1       -3 0.77651585E-02 0.20001301E+02</pdfrwt>
<totfact> 0.16090265E+06</totfact>
</mgrwt>
</event>
<event>
 5    1  0.4133473E-007  0.2000032E+02  0.7818608E-02  0.1745322E+00
          3   -1    0    0  501    0  0.00000000000E+00  0.00000000000E+00  0.66779402641E+02  0.66779467399E+02  0.93000000000E-01 0.  1.
         -3   -1    0    0    0  501 -0.00000000000E+00 -0.00000000000E+00 -0.14960068511E+01  0.14988947590E+01  0.93000000000E-01 0. -1.
       1023    2    1    2    0    0  0.00000000000E+00  0.00000000000E+00  0.65283395790E+02  0.68278362158E+02  0.20000324325E+02 0.  0.
        -11    1    3    3    0    0  0.99776702157E+01 -0.66972819687E+00  0.32544884481E+02  0.34046614295E+02  0.51100000000E-03 0.  1.
         11    1    3    3    0    0 -0.99776702157E+01  0.66972819687E+00  0.32738511309E+02  0.34231747863E+02  0.51100000000E-03 0. -1.
<mgrwt>
<rscale>  0 0.20000324E+02</rscale>
<asrwt>0</asrwt>
<pdfrwt beam="1">  1        3 0.10273982E-01 0.20000324E+02</pdfrwt>
<pdfrwt beam="2">  1       -3 0.23038202E-03 0.20000324E+02</pdfrwt>
<totfact> 0.15384480E+06</totfact>
</mgrwt>
</event>
<event>
 5    1  0.4318813E-007  0.2000067E+02  0.7818608E-02  0.1745315E+00
          3   -1    0    0  501    0  0.00000000000E+00  0.00000000000E+00  0.50151802709E+01  0.50160424789E+01  0.93000000000E-01 0.  1.
         -3   -1    0    0    0  501 -0.00000000000E+00 -0.00000000000E+00 -0.19938122766E+02  0.19938339661E+02  0.93000000000E-01 0. -1.
       1023    2    1    2    0    0  0.00000000000E+00  0.00000000000E+00 -0.14922942495E+02  0.24954382140E+02  0.20000674370E+02 0.  0.
        -11    1    3    3    0    0  0.29968873366E+01  0.95407110764E+01 -0.74808807986E+01  0.12488798154E+02  0.51100000000E-03 0. -1.
         11    1    3    3    0    0 -0.29968873366E+01 -0.95407110764E+01 -0.74420616967E+01  0.12465583986E+02  0.51100000000E-03 0.  1.
<mgrwt>
<rscale>  0 0.20000674E+02</rscale>
<asrwt>0</asrwt>
<pdfrwt beam="1">  1        3 0.77164921E-03 0.20000674E+02</pdfrwt>
<pdfrwt beam="2">  1       -3 0.30674865E-02 0.20000674E+02</pdfrwt>
<totfact> 0.17569375E+06</totfact>
</mgrwt>
</event>
<event>
 5    1  0.4133473E-007  0.2000022E+02  0.7818608E-02  0.1745324E+00
         -3   -1    0    0    0  501 -0.00000000000E+00  0.00000000000E+00  0.69599790069E+02  0.69599852203E+02  0.93000000000E-01 0. -1.
          3   -1    0    0  501    0  0.00000000000E+00 -0.00000000000E+00 -0.14352491538E+01  0.14382590634E+01  0.93000000000E-01 0.  1.
       1023    2    1    2    0    0  0.00000000000E+00  0.00000000000E+00  0.68164540915E+02  0.71038111266E+02  0.20000215351E+02 0.  0.
        -11    1    3    3    0    0  0.88886933041E+01 -0.45817851434E+01  0.34000538699E+02  0.35440630015E+02  0.51100000000E-03 0.  1.
         11    1    3    3    0    0 -0.88886933041E+01  0.45817851434E+01  0.34164002216E+02  0.35597481251E+02  0.51100000000E-03 0. -1.
<mgrwt>
<rscale>  0 0.20000215E+02</rscale>
<asrwt>0</asrwt>
<pdfrwt beam="2">  1        3 0.22104383E-03 0.20000215E+02</pdfrwt>
<pdfrwt beam="1">  1       -3 0.10707898E-01 0.20000215E+02</pdfrwt>
<totfact> 0.15272629E+06</totfact>
</mgrwt>
</event>
<event>
 5    1  0.4133473E-007  0.2000034E+02  0.7818608E-02  0.1745321E+00
          3   -1    0    0  501    0  0.00000000000E+00  0.00000000000E+00  0.66872701238E+02  0.66872765905E+02  0.93000000000E-01 0. -1.
         -3   -1    0    0    0  501 -0.00000000000E+00 -0.00000000000E+00 -0.14939180788E+01  0.14968100167E+01  0.93000000000E-01 0.  1.
       1023    2    1    2    0    0  0.00000000000E+00  0.00000000000E+00  0.65378783159E+02  0.68369575922E+02  0.20000340608E+02 0.  0.
        -11    1    3    3    0    0 -0.52806712000E+01  0.84921860584E+01  0.32779411637E+02  0.34270870136E+02  0.51100000000E-03 0.  1.
         11    1    3    3    0    0  0.52806712000E+01 -0.84921860584E+01  0.32599371522E+02  0.34098705786E+02  0.51100000000E-03 0. -1.
<mgrwt>
<rscale>  0 0.20000341E+02</rscale>
<asrwt>0</asrwt>
<pdfrwt beam="1">  1        3 0.10288336E-01 0.20000341E+02</pdfrwt>
<pdfrwt beam="2">  1       -3 0.23006096E-03 0.20000341E+02</pdfrwt>
<totfact> 0.15380620E+06</totfact>
</mgrwt>
</event>
<event>
 4    1  0.4133473E-007  0.2003209E+02  0.7818608E-02  0.1744691E+00
         -3   -1    0    0    0  501 -0.00000000000E+00  0.00000000000E+00  0.12308583349E+02  0.12308934684E+02  0.93000000000E-01 0. -1.
          3   -1    0    0  501    0  0.00000000000E+00 -0.00000000000E+00 -0.81497696190E+01  0.81503002302E+01  0.93000000000E-01 0.  1.
        -11    1    1    2    0    0  0.62576053117E+01  0.78204752860E+01  0.20174316974E+01  0.10217019568E+02  0.51100000000E-03 0. -1.
         11    1    1    2    0    0 -0.62576053117E+01 -0.78204752860E+01  0.21413820327E+01  0.10242215347E+02  0.51100000000E-03 0.  1.
<mgrwt>
<rscale>  0 0.20032088E+02</rscale>
<asrwt>0</asrwt>
<pdfrwt beam="2">  1        3 0.12538785E-02 0.20032088E+02</pdfrwt>
<pdfrwt beam="1">  1       -3 0.18936961E-02 0.20032088E+02</pdfrwt>
<totfact> 0.17794180E+06</totfact>
</mgrwt>
</event>
<event>
 5    1  0.4133473E-007  0.2000156E+02  0.7818608E-02  0.1745297E+00
          3   -1    0    0  501    0  0.00000000000E+00  0.00000000000E+00  0.99798867816E+02  0.99798911148E+02  0.93000000000E-01 0. -1.
         -3   -1    0    0    0  501 -0.00000000000E+00 -0.00000000000E+00 -0.99997093450E+00  0.10042862490E+01  0.93000000000E-01 0.  1.
       1023    2    1    2    0    0  0.00000000000E+00  0.00000000000E+00  0.98798896882E+02  0.10080319740E+03  0.20001564451E+02 0.  0.
        -11    1    3    3    0    0 -0.68037806137E+01 -0.73288133968E+01  0.49967589301E+02  0.50958443042E+02  0.51100000000E-03 0. -1.
         11    1    3    3    0    0  0.68037806137E+01  0.73288133968E+01  0.48831307581E+02  0.49844754355E+02  0.51100000000E-03 0.  1.
<mgrwt>
<rscale>  0 0.20001564E+02</rscale>
<asrwt>0</asrwt>
<pdfrwt beam="1">  1        3 0.15354011E-01 0.20001564E+02</pdfrwt>
<pdfrwt beam="2">  1       -3 0.15417693E-03 0.20001564E+02</pdfrwt>
<totfact> 0.14147908E+06</totfact>
</mgrwt>
</event>
<event>
 5    1  0.4133473E-007  0.2000047E+02  0.7818608E-02  0.1745319E+00
          3   -1    0    0  501    0  0.00000000000E+00  0.00000000000E+00  0.16860528887E+01  0.16886158070E+01  0.93000000000E-01 0. -1.
         -3   -1    0    0    0  501 -0.00000000000E+00 -0.00000000000E+00 -0.59265238097E+02  0.59265311065E+02  0.93000000000E-01 0.  1.
       1023    2    1    2    0    0  0.00000000000E+00  0.00000000000E+00 -0.57579185208E+02  0.60953926872E+02  0.20000465793E+02 0.  0.
        -11    1    3    3    0    0  0.65686841054E+01  0.75403363578E+01 -0.28730618321E+02  0.30421254291E+02  0.51100000000E-03 0. -1.
         11    1    3    3    0    0 -0.65686841054E+01 -0.75403363578E+01 -0.28848566887E+02  0.30532672581E+02  0.51100000000E-03 0.  1.
<mgrwt>
<rscale>  0 0.20000466E+02</rscale>
<asrwt>0</asrwt>
<pdfrwt beam="1">  1        3 0.25959556E-03 0.20000466E+02</pdfrwt>
<pdfrwt beam="2">  1       -3 0.91179301E-02 0.20000466E+02</pdfrwt>
<totfact> 0.15703185E+06</totfact>
</mgrwt>
</event>
<event>
 5    1  0.4133473E-007  0.2000018E+02  0.7818608E-02  0.1745325E+00
          3   -1    0    0  501    0  0.00000000000E+00  0.00000000000E+00  0.79735232219E+02  0.79735286455E+02  0.93000000000E-01 0. -1.
         -3   -1    0    0    0  501 -0.00000000000E+00 -0.00000000000E+00 -0.12523944051E+01  0.12558426438E+01  0.93000000000E-01 0.  1.
       1023    2    1    2    0    0  0.00000000000E+00  0.00000000000E+00  0.78482837814E+02  0.80991129098E+02  0.20000179032E+02 0.  0.
        -11    1    3    3    0    0 -0.98179318184E+01 -0.18999551550E+01  0.39295033415E+02  0.40547518618E+02  0.51100000000E-03 0. -1.
         11    1    3    3    0    0  0.98179318184E+01  0.18999551550E+01  0.39187804399E+02  0.40443610480E+02  0.51100000000E-03 0.  1.
<mgrwt>
<rscale>  0 0.20000179E+02</rscale>
<asrwt>0</asrwt>
<pdfrwt beam="1">  1        3 0.12267231E-01 0.20000179E+02</pdfrwt>
<pdfrwt beam="2">  1       -3 0.19294544E-03 0.20000179E+02</pdfrwt>
<totfact> 0.14872725E+06</totfact>
</mgrwt>
</event>
<event>
 5    1  0.4133473E-007  0.2000395E+02  0.7818608E-02  0.1745250E+00
         -3   -1    0    0    0  501 -0.00000000000E+00  0.00000000000E+00  0.18227338785E+02  0.18227576037E+02  0.93000000000E-01 0.  1.
          3   -1    0    0  501    0  0.00000000000E+00 -0.00000000000E+00 -0.54877629447E+01  0.54885509142E+01  0.93000000000E-01 0. -1.
       1023    2    1    2    0    0  0.00000000000E+00  0.00000000000E+00  0.12739575840E+02  0.23716126951E+02  0.20003946735E+02 0.  0.
        -11    1    3    3    0    0  0.45898073865E+01  0.88852999979E+01  0.61839020959E+01  0.11758211313E+02  0.51100000000E-03 0.  1.
         11    1    3    3    0    0 -0.45898073865E+01 -0.88852999979E+01  0.65556737445E+01  0.11957915638E+02  0.51100000000E-03 0. -1.
<mgrwt>
<rscale>  0 0.20003947E+02</rscale>
<asrwt>0</asrwt>
<pdfrwt beam="2">  1        3 0.84435009E-03 0.20003947E+02</pdfrwt>
<pdfrwt beam="1">  1       -3 0.28042848E-02 0.20003947E+02</pdfrwt>
<totfact> 0.17640155E+06</totfact>
</mgrwt>
</event>
<event>
 5    1  0.4133473E-007  0.2000236E+02  0.7818608E-02  0.1745281E+00
          3   -1    0    0  501    0  0.00000000000E+00  0.00000000000E+00  0.22220725471E+01  0.22240178517E+01  0.93000000000E-01 0. -1.
         -3   -1    0    0    0  501 -0.00000000000E+00 -0.00000000000E+00 -0.44991972456E+02  0.44992068573E+02  0.93000000000E-01 0.  1.
       1023    2    1    2    0    0  0.00000000000E+00  0.00000000000E+00 -0.42769899909E+02  0.47216086424E+02  0.20002361837E+02 0.  0.
        -11    1    3    3    0    0  0.93174267992E+01  0.36315262959E+01 -0.21041300038E+02  0.23296753700E+02  0.51100000000E-03 0.  1.
         11    1    3    3    0    0 -0.93174267992E+01 -0.36315262959E+01 -0.21728599870E+02  0.23919332724E+02  0.51100000000E-03 0. -1.
<mgrwt>
<rscale>  0 0.20002362E+02</rscale>
<asrwt>0</asrwt>
<pdfrwt beam="1">  1        3 0.34201438E-03 0.20002362E+02</pdfrwt>
<pdfrwt beam="2">  1       -3 0.69219983E-02 0.20002362E+02</pdfrwt>
<totfact> 0.16341567E+06</totfact>
</mgrwt>
</event>
<event>
 4    1  0.4133473E-007  0.2012920E+02  0.7818608E-02  0.1742771E+00
         -3   -1    0    0    0  501 -0.00000000000E+00  0.00000000000E+00  0.20655189841E+02  0.20655399207E+02  0.93000000000E-01 0. -1.
          3   -1    0    0  501    0  0.00000000000E+00 -0.00000000000E+00 -0.49034767937E+01  0.49043586396E+01  0.93000000000E-01 0.  1.
        -11    1    1    2    0    0  0.96840479197E+01  0.27325181152E+01  0.75954965037E+01  0.12607101442E+02  0.51100000000E-03 0.  1.
         11    1    1    2    0    0 -0.96840479197E+01 -0.27325181152E+01  0.81562165440E+01  0.12952656405E+02  0.51100000000E-03 0. -1.
<mgrwt>
<rscale>  0 0.20129202E+02</rscale>
<asrwt>0</asrwt>
<pdfrwt beam="2">  1        3 0.75446498E-03 0.20129202E+02</pdfrwt>
<pdfrwt beam="1">  1       -3 0.31778055E-02 0.20129202E+02</pdfrwt>
<totfact> 0.17291838E+06</totfact>
</mgrwt>
</event>
<event>
 5    1  0.4133473E-007  0.2000079E+02  0.7818608E-02  0.1745312E+00
          3   -1    0    0  501    0  0.00000000000E+00  0.00000000000E+00  0.22231033122E+01  0.22250477156E+01  0.93000000000E-01 0. -1.
         -3   -1    0    0    0  501 -0.00000000000E+00 -0.00000000000E+00 -0.44964066767E+02  0.44964162943E+02  0.93000000000E-01 0.  1.
       1023    2    1    2    0    0  0.00000000000E+00  0.00000000000E+00 -0.42740963454E+02  0.47189210659E+02  0.20000791124E+02 0.  0.
        -11    1    3    3    0    0 -0.53722132812E+00 -0.99857185994E+01 -0.21532720376E+02  0.23741550703E+02  0.51100000000E-03 0. -1.
         11    1    3    3    0    0  0.53722132812E+00  0.99857185994E+01 -0.21208243078E+02  0.23447659956E+02  0.51100000000E-03 0.  1.
<mgrwt>
<rscale>  0 0.20000791E+02</rscale>
<asrwt>0</asrwt>
<pdfrwt beam="1">  1        3 0.34217289E-03 0.20000791E+02</pdfrwt>
<pdfrwt beam="2">  1       -3 0.69177050E-02 0.20000791E+02</pdfrwt>
<totfact> 0.16345653E+06</totfact>
</mgrwt>
</event>
<event>
 5    1  0.4133473E-007  0.2000098E+02  0.7818608E-02  0.1745309E+00
          3   -1    0    0  501    0  0.00000000000E+00  0.00000000000E+00  0.10378877476E+01  0.10420460530E+01  0.93000000000E-01 0. -1.
         -3   -1    0    0    0  501 -0.00000000000E+00 -0.00000000000E+00 -0.96162177779E+02  0.96162222750E+02  0.93000000000E-01 0.  1.
       1023    2    1    2    0    0  0.00000000000E+00  0.00000000000E+00 -0.95124290031E+02  0.97204268803E+02  0.20000982964E+02 0.  0.
        -11    1    3    3    0    0 -0.87035095863E+01 -0.49248032705E+01 -0.47907963913E+02  0.48940553460E+02  0.51100000000E-03 0.  1.
         11    1    3    3    0    0  0.87035095863E+01  0.49248032705E+01 -0.47216326118E+02  0.48263715343E+02  0.51100000000E-03 0. -1.
<mgrwt>
<rscale>  0 0.20000983E+02</rscale>
<asrwt>0</asrwt>
<pdfrwt beam="1">  1        3 0.15999844E-03 0.20000983E+02</pdfrwt>
<pdfrwt beam="2">  1       -3 0.14794497E-01 0.20000983E+02</pdfrwt>
<totfact> 0.14276914E+06</totfact>
</mgrwt>
</event>
<event>
 4    1  0.4133473E-007  0.2011505E+02  0.7818608E-02  0.1743050E+00
          3   -1    0    0  501    0  0.00000000000E+00  0.00000000000E+00  0.60740395412E+01  0.60747514639E+01  0.93000000000E-01 0.  1.
         -3   -1    0    0    0  501 -0.00000000000E+00 -0.00000000000E+00 -0.16651646833E+02  0.16651906535E+02  0.93000000000E-01 0. -1.
        -11    1    1    2    0    0  0.95438715443E+00 -0.10009823723E+02 -0.55321139858E+01  0.11476572276E+02  0.51100000000E-03 0. -1.
         11    1    1    2    0    0 -0.95438715443E+00  0.10009823723E+02 -0.50454933060E+01  0.11250085723E+02  0.51100000000E-03 0.  1.
<mgrwt>
<rscale>  0 0.20115049E+02</rscale>
<asrwt>0</asrwt>
<pdfrwt beam="1">  1        3 0.93454237E-03 0.20115049E+02</pdfrwt>
<pdfrwt beam="2">  1       -3 0.25618665E-02 0.20115049E+02</pdfrwt>
<totfact> 0.17492393E+06</totfact>
</mgrwt>
</event>
<event>
 5    1  0.4133473E-007  0.2000017E+02  0.7818608E-02  0.1745325E+00
         -3   -1    0    0    0  501 -0.00000000000E+00  0.00000000000E+00  0.15676244749E+02  0.15676520610E+02  0.93000000000E-01 0. -1.
          3   -1    0    0  501    0  0.00000000000E+00 -0.00000000000E+00 -0.63785181591E+01  0.63791961019E+01  0.93000000000E-01 0.  1.
       1023    2    1    2    0    0  0.00000000000E+00  0.00000000000E+00  0.92977265903E+01  0.22055716712E+02  0.20000172998E+02 0.  0.
        -11    1    3    3    0    0  0.99277081905E+01 -0.12009108141E+01  0.46625049084E+01  0.11033609064E+02  0.51100000000E-03 0.  1.
         11    1    3    3    0    0 -0.99277081905E+01  0.12009108141E+01  0.46352216819E+01  0.11022107648E+02  0.51100000000E-03 0. -1.
<mgrwt>
<rscale>  0 0.20000173E+02</rscale>
<asrwt>0</asrwt>
<pdfrwt beam="2">  1        3 0.98138386E-03 0.20000173E+02</pdfrwt>
<pdfrwt beam="1">  1       -3 0.24118033E-02 0.20000173E+02</pdfrwt>
<totfact> 0.17752343E+06</totfact>
</mgrwt>
</event>
<event>
 5    1  0.4133473E-007  0.2000466E+02  0.7818608E-02  0.1745235E+00
         -3   -1    0    0    0  501 -0.00000000000E+00  0.00000000000E+00  0.13931627932E+01  0.13962634309E+01  0.93000000000E-01 0. -1.
          3   -1    0    0  501    0  0.00000000000E+00 -0.00000000000E+00 -0.71729635591E+02  0.71729695880E+02  0.93000000000E-01 0.  1.
       1023    2    1    2    0    0  0.00000000000E+00  0.00000000000E+00 -0.70336472798E+02  0.73125959311E+02  0.20004662444E+02 0.  0.
        -11    1    3    3    0    0  0.98413039654E+01 -0.17874280721E+01 -0.35089262103E+02  0.36487017939E+02  0.51100000000E-03 0.  1.
         11    1    3    3    0    0 -0.98413039654E+01  0.17874280721E+01 -0.35247210694E+02  0.36638941372E+02  0.51100000000E-03 0. -1.
<mgrwt>
<rscale>  0 0.20004662E+02</rscale>
<asrwt>0</asrwt>
<pdfrwt beam="2">  1        3 0.11035569E-01 0.20004662E+02</pdfrwt>
<pdfrwt beam="1">  1       -3 0.21457594E-03 0.20004662E+02</pdfrwt>
<totfact> 0.15177005E+06</totfact>
</mgrwt>
</event>
<event>
 5    1  0.4174011E-007  0.2000120E+02  0.7818608E-02  0.1745304E+00
         -3   -1    0    0    0  501 -0.00000000000E+00  0.00000000000E+00  0.26141895775E+01  0.26158432956E+01  0.93000000000E-01 0. -1.
          3   -1    0    0  501    0  0.00000000000E+00 -0.00000000000E+00 -0.38243557693E+02  0.38243670771E+02  0.93000000000E-01 0.  1.
       1023    2    1    2    0    0  0.00000000000E+00  0.00000000000E+00 -0.35629368116E+02  0.40859514066E+02  0.20001200400E+02 0.  0.
        -11    1    3    3    0    0  0.74988830858E+01  0.66158194340E+01 -0.17613592412E+02  0.20254405749E+02  0.51100000000E-03 0.  1.
         11    1    3    3    0    0 -0.74988830858E+01 -0.66158194340E+01 -0.18015775703E+02  0.20605108317E+02  0.51100000000E-03 0. -1.
<mgrwt>
<rscale>  0 0.20001200E+02</rscale>
<asrwt>0</asrwt>
<pdfrwt beam="2">  1        3 0.58837598E-02 0.20001200E+02</pdfrwt>
<pdfrwt beam="1">  1       -3 0.40231895E-03 0.20001200E+02</pdfrwt>
<totfact> 0.16664527E+06</totfact>
</mgrwt>
</event>
<event>
 5    1  0.4272695E-007  0.2000122E+02  0.7818608E-02  0.1745304E+00
         -3   -1    0    0    0  501 -0.00000000000E+00  0.00000000000E+00  0.35738377872E+02  0.35738498876E+02  0.93000000000E-01 0.  1.
          3   -1    0    0  501    0  0.00000000000E+00 -0.00000000000E+00 -0.27975567416E+01  0.27991021279E+01  0.93000000000E-01 0. -1.
       1023    2    1    2    0    0  0.00000000000E+00  0.00000000000E+00  0.32940821130E+02  0.38537601004E+02  0.20001224822E+02 0.  0.
        -11    1    3    3    0    0  0.27588066630E+01  0.96122109462E+01  0.16313466836E+02  0.19134649565E+02  0.51100000000E-03 0.  1.
         11    1    3    3    0    0 -0.27588066630E+01 -0.96122109462E+01  0.16627354294E+02  0.19402951439E+02  0.51100000000E-03 0. -1.
<mgrwt>
<rscale>  0 0.20001225E+02</rscale>
<asrwt>0</asrwt>
<pdfrwt beam="2">  1        3 0.43052154E-03 0.20001225E+02</pdfrwt>
<pdfrwt beam="1">  1       -3 0.54983400E-02 0.20001225E+02</pdfrwt>
<totfact> 0.16789465E+06</totfact>
</mgrwt>
</event>
<event>
 5    1  0.4133473E-007  0.2000985E+02  0.7818608E-02  0.1745132E+00
          3   -1    0    0  501    0  0.00000000000E+00  0.00000000000E+00  0.79299054716E+02  0.79299109250E+02  0.93000000000E-01 0. -1.
         -3   -1    0    0    0  501 -0.00000000000E+00 -0.00000000000E+00 -0.12605240088E+01  0.12639500690E+01  0.93000000000E-01 0.  1.
       1023    2    1    2    0    0  0.00000000000E+00  0.00000000000E+00  0.78038530707E+02  0.80563059319E+02  0.20009853870E+02 0.  0.
        -11    1    3    3    0    0 -0.87560117264E+01 -0.48384412415E+01  0.38445515533E+02  0.39725758896E+02  0.51100000000E-03 0. -1.
         11    1    3    3    0    0  0.87560117264E+01  0.48384412415E+01  0.39593015174E+02  0.40837300423E+02  0.51100000000E-03 0.  1.
<mgrwt>
<rscale>  0 0.20009854E+02</rscale>
<asrwt>0</asrwt>
<pdfrwt beam="1">  1        3 0.12200117E-01 0.20009854E+02</pdfrwt>
<pdfrwt beam="2">  1       -3 0.19419459E-03 0.20009854E+02</pdfrwt>
<totfact> 0.14873828E+06</totfact>
</mgrwt>
</event>
<event>
 5    1  0.4133473E-007  0.2000009E+02  0.7818608E-02  0.1745326E+00
          3   -1    0    0  501    0  0.00000000000E+00  0.00000000000E+00  0.53013604375E+01  0.53021761088E+01  0.93000000000E-01 0. -1.
         -3   -1    0    0    0  501 -0.00000000000E+00 -0.00000000000E+00 -0.18860866186E+02  0.18861095469E+02  0.93000000000E-01 0.  1.
       1023    2    1    2    0    0  0.00000000000E+00  0.00000000000E+00 -0.13559505748E+02  0.24163271577E+02  0.20000087430E+02 0.  0.
        -11    1    3    3    0    0  0.95039595455E+01 -0.31105511201E+01 -0.67677487340E+01  0.12074899523E+02  0.51100000000E-03 0. -1.
         11    1    3    3    0    0 -0.95039595455E+01  0.31105511201E+01 -0.67917570143E+01  0.12088372054E+02  0.51100000000E-03 0.  1.
<mgrwt>
<rscale>  0 0.20000087E+02</rscale>
<asrwt>0</asrwt>
<pdfrwt beam="1">  1        3 0.81567431E-03 0.20000087E+02</pdfrwt>
<pdfrwt beam="2">  1       -3 0.29017521E-02 0.20000087E+02</pdfrwt>
<totfact> 0.17619598E+06</totfact>
</mgrwt>
</event>
<event>
 5    1  0.4133473E-007  0.2000022E+02  0.7818608E-02  0.1745324E+00
         -3   -1    0    0    0  501 -0.00000000000E+00  0.00000000000E+00  0.75158469054E+01  0.75164222677E+01  0.93000000000E-01 0.  1.
          3   -1    0    0  501    0  0.00000000000E+00 -0.00000000000E+00 -0.13304267400E+02  0.13304592442E+02  0.93000000000E-01 0. -1.
       1023    2    1    2    0    0  0.00000000000E+00  0.00000000000E+00 -0.57884204941E+01  0.20821014709E+02  0.20000221042E+02 0.  0.
        -11    1    3    3    0    0 -0.78675722959E+01  0.61727580613E+01 -0.28692632498E+01  0.10403571876E+02  0.51100000000E-03 0.  1.
         11    1    3    3    0    0  0.78675722959E+01 -0.61727580613E+01 -0.29191572443E+01  0.10417442834E+02  0.51100000000E-03 0. -1.
<mgrwt>
<rscale>  0 0.20000221E+02</rscale>
<asrwt>0</asrwt>
<pdfrwt beam="2">  1        3 0.20468796E-02 0.20000221E+02</pdfrwt>
<pdfrwt beam="1">  1       -3 0.11563534E-02 0.20000221E+02</pdfrwt>
<totfact> 0.17831339E+06</totfact>
</mgrwt>
</event>
<event>
 5    1  0.4133473E-007  0.2000077E+02  0.7818608E-02  0.1745313E+00
          3   -1    0    0  501    0  0.00000000000E+00  0.00000000000E+00  0.28640307524E+02  0.28640458517E+02  0.93000000000E-01 0.  1.
         -3   -1    0    0    0  501 -0.00000000000E+00 -0.00000000000E+00 -0.34910723432E+01  0.34923108546E+01  0.93000000000E-01 0. -1.
       1023    2    1    2    0    0  0.00000000000E+00  0.00000000000E+00  0.25149235181E+02  0.32132769372E+02  0.20000770918E+02 0.  0.
        -11    1    3    3    0    0 -0.99814494821E+01  0.61506197443E+00  0.12560790559E+02  0.16055562734E+02  0.51100000000E-03 0.  1.
         11    1    3    3    0    0  0.99814494821E+01 -0.61506197443E+00  0.12588444622E+02  0.16077206637E+02  0.51100000000E-03 0. -1.
<mgrwt>
<rscale>  0 0.20000771E+02</rscale>
<asrwt>0</asrwt>
<pdfrwt beam="1">  1        3 0.44063080E-02 0.20000771E+02</pdfrwt>
<pdfrwt beam="2">  1       -3 0.53719494E-03 0.20000771E+02</pdfrwt>
<totfact> 0.17141875E+06</totfact>
</mgrwt>
</event>
<event>
 4    1  0.4133473E-007  0.2005644E+02  0.7818608E-02  0.1744208E+00
          3   -1    0    0  501    0  0.00000000000E+00  0.00000000000E+00  0.14931958401E+01  0.14960891741E+01  0.93000000000E-01 0.  1.
         -3   -1    0    0    0  501 -0.00000000000E+00 -0.00000000000E+00 -0.67280870650E+02  0.67280934926E+02  0.93000000000E-01 0. -1.
        -11    1    1    2    0    0 -0.95806604038E+01  0.29179768877E+01 -0.31139994865E+02  0.32710899152E+02  0.51100000000E-03 0. -1.
         11    1    1    2    0    0  0.95806604038E+01 -0.29179768877E+01 -0.34647679945E+02  0.36066124947E+02  0.51100000000E-03 0.  1.
<mgrwt>
<rscale>  0 0.20056443E+02</rscale>
<asrwt>0</asrwt>
<pdfrwt beam="1">  1        3 0.22995000E-03 0.20056443E+02</pdfrwt>
<pdfrwt beam="2">  1       -3 0.10351128E-01 0.20056443E+02</pdfrwt>
<totfact> 0.15274206E+06</totfact>
</mgrwt>
</event>
<event>
 5    1  0.4133473E-007  0.2000050E+02  0.7818608E-02  0.1745318E+00
          3   -1    0    0  501    0  0.00000000000E+00  0.00000000000E+00  0.73453745807E+01  0.73459632949E+01  0.93000000000E-01 0.  1.
         -3   -1    0    0    0  501 -0.00000000000E+00 -0.00000000000E+00 -0.13613401495E+02  0.13613719156E+02  0.93000000000E-01 0. -1.
       1023    2    1    2    0    0  0.00000000000E+00  0.00000000000E+00 -0.62680269143E+01  0.20959682451E+02  0.20000503170E+02 0.  0.
        -11    1    3    3    0    0  0.73788522812E+01  0.67495210504E+01 -0.31750862646E+01  0.10492124115E+02  0.51100000000E-03 0. -1.
         11    1    3    3    0    0 -0.73788522812E+01 -0.67495210504E+01 -0.30929406497E+01  0.10467558336E+02  0.51100000000E-03 0.  1.
<mgrwt>
<rscale>  0 0.20000503E+02</rscale>
<asrwt>0</asrwt>
<pdfrwt beam="1">  1        3 0.11301273E-02 0.20000503E+02</pdfrwt>
<pdfrwt beam="2">  1       -3 0.20944392E-02 0.20000503E+02</pdfrwt>
<totfact> 0.17822282E+06</totfact>
</mgrwt>
</event>
<event>
 5    1  0.4133473E-007  0.2000350E+02  0.7818608E-02  0.1745259E+00
         -3   -1    0    0    0  501 -0.00000000000E+00  0.00000000000E+00  0.42167376035E+02  0.42167478590E+02  0.93000000000E-01 0. -1.
          3   -1    0    0  501    0  0.00000000000E+00 -0.00000000000E+00 -0.23713140752E+01  0.23731370469E+01  0.93000000000E-01 0.  1.
       1023    2    1    2    0    0  0.00000000000E+00  0.00000000000E+00  0.39796061960E+02  0.44540615637E+02  0.20003497040E+02 0.  0.
        -11    1    3    3    0    0  0.86953123037E+01 -0.49423187349E+01  0.19901665548E+02  0.22273555226E+02  0.51100000000E-03 0.  1.
         11    1    3    3    0    0 -0.86953123037E+01  0.49423187349E+01  0.19894396411E+02  0.22267060411E+02  0.51100000000E-03 0. -1.
<mgrwt>
<rscale>  0 0.20003497E+02</rscale>
<asrwt>0</asrwt>
<pdfrwt beam="2">  1        3 0.36496568E-03 0.20003497E+02</pdfrwt>
<pdfrwt beam="1">  1       -3 0.64874365E-02 0.20003497E+02</pdfrwt>
<totfact> 0.16473371E+06</totfact>
</mgrwt>
</event>
<event>
 5    1  0.4215927E-007  0.2000159E+02  0.7818608E-02  0.1745296E+00
          3   -1    0    0  501    0  0.00000000000E+00  0.00000000000E+00  0.16833697677E+02  0.16833954570E+02  0.93000000000E-01 0. -1.
         -3   -1    0    0    0  501 -0.00000000000E+00 -0.00000000000E+00 -0.59407458724E+01  0.59414737668E+01  0.93000000000E-01 0.  1.
       1023    2    1    2    0    0  0.00000000000E+00  0.00000000000E+00  0.10892951804E+02  0.22775428337E+02  0.20001593360E+02 0.  0.
        -11    1    3    3    0    0 -0.32395855966E+01  0.94614950874E+01  0.54847505146E+01  0.11406020016E+02  0.51100000000E-03 0. -1.
         11    1    3    3    0    0  0.32395855966E+01 -0.94614950874E+01  0.54082012896E+01  0.11369408321E+02  0.51100000000E-03 0.  1.
<mgrwt>
<rscale>  0 0.20001593E+02</rscale>
<asrwt>0</asrwt>
<pdfrwt beam="1">  1        3 0.25898753E-02 0.20001593E+02</pdfrwt>
<pdfrwt beam="2">  1       -3 0.91403668E-03 0.20001593E+02</pdfrwt>
<totfact> 0.17702917E+06</totfact>
</mgrwt>
</event>
<event>
 5    1  0.4133473E-007  0.2000046E+02  0.7818608E-02  0.1745319E+00
          3   -1    0    0  501    0  0.00000000000E+00  0.00000000000E+00  0.36909437520E+02  0.36909554685E+02  0.93000000000E-01 0.  1.
         -3   -1    0    0    0  501 -0.00000000000E+00 -0.00000000000E+00 -0.27085395613E+01  0.27101357079E+01  0.93000000000E-01 0. -1.
       1023    2    1    2    0    0  0.00000000000E+00  0.00000000000E+00  0.34200897959E+02  0.39619690393E+02  0.20000461136E+02 0.  0.
        -11    1    3    3    0    0 -0.41758251074E+01 -0.90864810404E+01  0.17208189582E+02  0.19902850097E+02  0.51100000000E-03 0.  1.
         11    1    3    3    0    0  0.41758251074E+01  0.90864810404E+01  0.16992708377E+02  0.19716840296E+02  0.51100000000E-03 0. -1.
<mgrwt>
<rscale>  0 0.20000461E+02</rscale>
<asrwt>0</asrwt>
<pdfrwt beam="1">  1        3 0.56785065E-02 0.20000461E+02</pdfrwt>
<pdfrwt beam="2">  1       -3 0.41683021E-03 0.20000461E+02</pdfrwt>
<totfact> 0.16731085E+06</totfact>
</mgrwt>
</event>
<event>
 5    1  0.4133473E-007  0.2000026E+02  0.7818608E-02  0.1745323E+00
         -3   -1    0    0    0  501 -0.00000000000E+00  0.00000000000E+00  0.19238872552E+02  0.19239097330E+02  0.93000000000E-01 0. -1.
          3   -1    0    0  501    0  0.00000000000E+00 -0.00000000000E+00 -0.51972723217E+01  0.51981043262E+01  0.93000000000E-01 0.  1.
       1023    2    1    2    0    0  0.00000000000E+00  0.00000000000E+00  0.14041600230E+02  0.24437201656E+02  0.20000257192E+02 0.  0.
        -11    1    3    3    0    0  0.97465558766E+01  0.22374126640E+01  0.69783897738E+01  0.12194231873E+02  0.51100000000E-03 0. -1.
         11    1    3    3    0    0 -0.97465558766E+01 -0.22374126640E+01  0.70632104561E+01  0.12242969782E+02  0.51100000000E-03 0.  1.
<mgrwt>
<rscale>  0 0.20000257E+02</rscale>
<asrwt>0</asrwt>
<pdfrwt beam="2">  1        3 0.79966165E-03 0.20000257E+02</pdfrwt>
<pdfrwt beam="1">  1       -3 0.29599078E-02 0.20000257E+02</pdfrwt>
<totfact> 0.17602223E+06</totfact>
</mgrwt>
</event>
<event>
 5    1  0.4133473E-007  0.2001173E+02  0.7818608E-02  0.1745095E+00
         -3   -1    0    0    0  501 -0.00000000000E+00  0.00000000000E+00  0.82900320332E+02  0.82900372497E+02  0.93000000000E-01 0. -1.
          3   -1    0    0  501    0  0.00000000000E+00 -0.00000000000E+00 -0.12058403536E+01  0.12094213321E+01  0.93000000000E-01 0.  1.
       1023    2    1    2    0    0  0.00000000000E+00  0.00000000000E+00  0.81694479979E+02  0.84109793829E+02  0.20011730536E+02 0.  0.
        -11    1    3    3    0    0  0.49861630130E+01  0.86747554026E+01  0.40576916197E+02  0.41792335795E+02  0.51100000000E-03 0. -1.
         11    1    3    3    0    0 -0.49861630130E+01 -0.86747554026E+01  0.41117563782E+02  0.42317458035E+02  0.51100000000E-03 0.  1.
<mgrwt>
<rscale>  0 0.20011731E+02</rscale>
<asrwt>0</asrwt>
<pdfrwt beam="2">  1        3 0.18579334E-03 0.20011731E+02</pdfrwt>
<pdfrwt beam="1">  1       -3 0.12754177E-01 0.20011731E+02</pdfrwt>
<totfact> 0.14738060E+06</totfact>
</mgrwt>
</event>
<event>
 5    1  0.4178656E-007  0.2000135E+02  0.7818608E-02  0.1745301E+00
          3   -1    0    0  501    0  0.00000000000E+00  0.00000000000E+00  0.21405925325E+01  0.21426118151E+01  0.93000000000E-01 0. -1.
         -3   -1    0    0    0  501 -0.00000000000E+00 -0.00000000000E+00 -0.46698236330E+02  0.46698328935E+02  0.93000000000E-01 0.  1.
       1023    2    1    2    0    0  0.00000000000E+00  0.00000000000E+00 -0.44557643797E+02  0.48840940750E+02  0.20001346769E+02 0.  0.
        -11    1    3    3    0    0  0.59569648403E+01 -0.80328555080E+01 -0.22191794827E+02  0.24341075482E+02  0.51100000000E-03 0.  1.
         11    1    3    3    0    0 -0.59569648403E+01  0.80328555080E+01 -0.22365848971E+02  0.24499865268E+02  0.51100000000E-03 0. -1.
<mgrwt>
<rscale>  0 0.20001347E+02</rscale>
<asrwt>0</asrwt>
<pdfrwt beam="1">  1        3 0.32948441E-03 0.20001347E+02</pdfrwt>
<pdfrwt beam="2">  1       -3 0.71845058E-02 0.20001347E+02</pdfrwt>
<totfact> 0.16263610E+06</totfact>
</mgrwt>
</event>
<event>
 5    1  0.4133473E-007  0.2000278E+02  0.7818608E-02  0.1745273E+00
         -3   -1    0    0    0  501 -0.00000000000E+00  0.00000000000E+00  0.41394061520E+02  0.41394165991E+02  0.93000000000E-01 0. -1.
          3   -1    0    0  501    0  0.00000000000E+00 -0.00000000000E+00 -0.24154752518E+01  0.24172649197E+01  0.93000000000E-01 0.  1.
       1023    2    1    2    0    0  0.00000000000E+00  0.00000000000E+00  0.38978586268E+02  0.43811430911E+02  0.20002782082E+02 0.  0.
        -11    1    3    3    0    0  0.90247553737E+00 -0.99605395815E+01  0.19558957443E+02  0.21967695085E+02  0.51100000000E-03 0. -1.
         11    1    3    3    0    0 -0.90247553737E+00  0.99605395815E+01  0.19419628825E+02  0.21843735826E+02  0.51100000000E-03 0.  1.
<mgrwt>
<rscale>  0 0.20002782E+02</rscale>
<asrwt>0</asrwt>
<pdfrwt beam="2">  1        3 0.37175731E-03 0.20002782E+02</pdfrwt>
<pdfrwt beam="1">  1       -3 0.63684623E-02 0.20002782E+02</pdfrwt>
<totfact> 0.16511670E+06</totfact>
</mgrwt>
</event>
<event>
 4    1  0.4133473E-007  0.2001266E+02  0.7818608E-02  0.1745076E+00
          3   -1    0    0  501    0  0.00000000000E+00  0.00000000000E+00  0.11721304216E+02  0.11721673154E+02  0.93000000000E-01 0.  1.
         -3   -1    0    0    0  501 -0.00000000000E+00 -0.00000000000E+00 -0.85415195690E+01  0.85420258456E+01  0.93000000000E-01 0. -1.
        -11    1    1    2    0    0  0.78038506586E+01  0.62559381862E+01  0.18932650291E+01  0.10179454820E+02  0.51100000000E-03 0.  1.
         11    1    1    2    0    0 -0.78038506586E+01 -0.62559381862E+01  0.12865196180E+01  0.10084244180E+02  0.51100000000E-03 0. -1.
<mgrwt>
<rscale>  0 0.20012658E+02</rscale>
<asrwt>0</asrwt>
<pdfrwt beam="1">  1        3 0.18033449E-02 0.20012658E+02</pdfrwt>
<pdfrwt beam="2">  1       -3 0.13141473E-02 0.20012658E+02</pdfrwt>
<totfact> 0.17843881E+06</totfact>
</mgrwt>
</event>
<event>
 5    1  0.4133473E-007  0.2000017E+02  0.7818608E-02  0.1745325E+00
         -3   -1    0    0    0  501 -0.00000000000E+00  0.00000000000E+00  0.37973303131E+01  0.37984689688E+01  0.93000000000E-01 0.  1.
          3   -1    0    0  501    0  0.00000000000E+00 -0.00000000000E+00 -0.26329565547E+02  0.26329729791E+02  0.93000000000E-01 0. -1.
       1023    2    1    2    0    0  0.00000000000E+00  0.00000000000E+00 -0.22532235234E+02  0.30128198760E+02  0.20000168397E+02 0.  0.
        -11    1    3    3    0    0 -0.35421561832E+01 -0.93517205629E+01 -0.11248562996E+02  0.15050970654E+02  0.51100000000E-03 0.  1.
         11    1    3    3    0    0  0.35421561832E+01  0.93517205629E+01 -0.11283672238E+02  0.15077228106E+02  0.51100000000E-03 0. -1.
<mgrwt>
<rscale>  0 0.20000168E+02</rscale>
<asrwt>0</asrwt>
<pdfrwt beam="2">  1        3 0.40508025E-02 0.20000168E+02</pdfrwt>
<pdfrwt beam="1">  1       -3 0.58430490E-03 0.20000168E+02</pdfrwt>
<totfact> 0.17258605E+06</totfact>
</mgrwt>
</event>
<event>
 5    1  0.4133473E-007  0.2000049E+02  0.7818608E-02  0.1745318E+00
         -3   -1    0    0    0  501 -0.00000000000E+00  0.00000000000E+00  0.39249590318E+01  0.39260606721E+01  0.93000000000E-01 0. -1.
          3   -1    0    0  501    0  0.00000000000E+00 -0.00000000000E+00 -0.25474448510E+02  0.25474618267E+02  0.93000000000E-01 0.  1.
       1023    2    1    2    0    0  0.00000000000E+00  0.00000000000E+00 -0.21549489478E+02  0.29400678939E+02  0.20000485628E+02 0.  0.
        -11    1    3    3    0    0  0.98138441618E+01  0.19217773816E+01 -0.10788732105E+02  0.14710591634E+02  0.51100000000E-03 0.  1.
         11    1    3    3    0    0 -0.98138441618E+01 -0.19217773816E+01 -0.10760757373E+02  0.14690087305E+02  0.51100000000E-03 0. -1.
<mgrwt>
<rscale>  0 0.20000486E+02</rscale>
<asrwt>0</asrwt>
<pdfrwt beam="2">  1        3 0.39192436E-02 0.20000486E+02</pdfrwt>
<pdfrwt beam="1">  1       -3 0.60393767E-03 0.20000486E+02</pdfrwt>
<totfact> 0.17300573E+06</totfact>
</mgrwt>
</event>
<event>
 5    1  0.4133473E-007  0.2000257E+02  0.7818608E-02  0.1745277E+00
          3   -1    0    0  501    0  0.00000000000E+00  0.00000000000E+00  0.23104958872E+02  0.23105146039E+02  0.93000000000E-01 0. -1.
         -3   -1    0    0    0  501 -0.00000000000E+00 -0.00000000000E+00 -0.43284823529E+01  0.43294813176E+01  0.93000000000E-01 0.  1.
       1023    2    1    2    0    0  0.00000000000E+00  0.00000000000E+00  0.18776476519E+02  0.27434627356E+02  0.20002567528E+02 0.  0.
        -11    1    3    3    0    0  0.68389350038E+01 -0.72969307147E+01  0.92549302340E+01  0.13626076608E+02  0.51100000000E-03 0. -1.
         11    1    3    3    0    0 -0.68389350038E+01  0.72969307147E+01  0.95215462850E+01  0.13808550748E+02  0.51100000000E-03 0.  1.
<mgrwt>
<rscale>  0 0.20002568E+02</rscale>
<asrwt>0</asrwt>
<pdfrwt beam="1">  1        3 0.35547002E-02 0.20002568E+02</pdfrwt>
<pdfrwt beam="2">  1       -3 0.66601162E-03 0.20002568E+02</pdfrwt>
<totfact> 0.17413487E+06</totfact>
</mgrwt>
</event>
<event>
 5    1  0.4133473E-007  0.2000094E+02  0.7818608E-02  0.1745309E+00
          3   -1    0    0  501    0  0.00000000000E+00  0.00000000000E+00  0.12157786760E+01  0.12193304675E+01  0.93000000000E-01 0. -1.
         -3   -1    0    0    0  501 -0.00000000000E+00 -0.00000000000E+00 -0.82136008133E+02  0.82136060783E+02  0.93000000000E-01 0.  1.
       1023    2    1    2    0    0  0.00000000000E+00  0.00000000000E+00 -0.80920229457E+02  0.83355391250E+02  0.20000942858E+02 0.  0.
        -11    1    3    3    0    0  0.68888579657E+01  0.72487151290E+01 -0.40060517480E+02  0.41289772294E+02  0.51100000000E-03 0.  1.
         11    1    3    3    0    0 -0.68888579657E+01 -0.72487151290E+01 -0.40859711977E+02  0.42065618956E+02  0.51100000000E-03 0. -1.
<mgrwt>
<rscale>  0 0.20000943E+02</rscale>
<asrwt>0</asrwt>
<pdfrwt beam="1">  1        3 0.18732020E-03 0.20000943E+02</pdfrwt>
<pdfrwt beam="2">  1       -3 0.12636582E-01 0.20000943E+02</pdfrwt>
<totfact> 0.14783782E+06</totfact>
</mgrwt>
</event>
<event>
 5    1  0.4133473E-007  0.2000038E+02  0.7818608E-02  0.1745321E+00
         -3   -1    0    0    0  501 -0.00000000000E+00  0.00000000000E+00  0.63019093556E+02  0.63019162178E+02  0.93000000000E-01 0. -1.
          3   -1    0    0  501    0  0.00000000000E+00 -0.00000000000E+00 -0.15854480484E+01  0.15881733262E+01  0.93000000000E-01 0.  1.
       1023    2    1    2    0    0  0.00000000000E+00  0.00000000000E+00  0.61433645507E+02  0.64607335504E+02  0.20000375011E+02 0.  0.
        -11    1    3    3    0    0 -0.91691203722E+01  0.39913583646E+01  0.30737225786E+02  0.32323068532E+02  0.51100000000E-03 0. -1.
         11    1    3    3    0    0  0.91691203722E+01 -0.39913583646E+01  0.30696419721E+02  0.32284266972E+02  0.51100000000E-03 0.  1.
<mgrwt>
<rscale>  0 0.20000375E+02</rscale>
<asrwt>0</asrwt>
<pdfrwt beam="2">  1        3 0.24413003E-03 0.20000375E+02</pdfrwt>
<pdfrwt beam="1">  1       -3 0.96954588E-02 0.20000375E+02</pdfrwt>
<totfact> 0.15543583E+06</totfact>
</mgrwt>
</event>
<event>
 5    1  0.4145659E-007  0.2000105E+02  0.7818608E-02  0.1745307E+00
         -3   -1    0    0    0  501 -0.00000000000E+00  0.00000000000E+00  0.11916799493E+01  0.11953033513E+01  0.93000000000E-01 0. -1.
          3   -1    0    0  501    0  0.00000000000E+00 -0.00000000000E+00 -0.83792890995E+02  0.83792942604E+02  0.93000000000E-01 0.  1.
       1023    2    1    2    0    0  0.00000000000E+00  0.00000000000E+00 -0.82601211046E+02  0.84988245956E+02  0.20001047083E+02 0.  0.
        -11    1    3    3    0    0 -0.78623388118E+01 -0.61800976713E+01 -0.41206351651E+02  0.42402516382E+02  0.51100000000E-03 0. -1.
         11    1    3    3    0    0  0.78623388118E+01  0.61800976713E+01 -0.41394859394E+02  0.42585729574E+02  0.51100000000E-03 0.  1.
<mgrwt>
<rscale>  0 0.20001047E+02</rscale>
<asrwt>0</asrwt>
<pdfrwt beam="2">  1        3 0.12891492E-01 0.20001047E+02</pdfrwt>
<pdfrwt beam="1">  1       -3 0.18361814E-03 0.20001047E+02</pdfrwt>
<totfact> 0.14718869E+06</totfact>
</mgrwt>
</event>
<event>
 5    1  0.4144732E-007  0.2000075E+02  0.7818608E-02  0.1745313E+00
         -3   -1    0    0    0  501 -0.00000000000E+00  0.00000000000E+00  0.32790766960E+02  0.32790898841E+02  0.93000000000E-01 0. -1.
          3   -1    0    0  501    0  0.00000000000E+00 -0.00000000000E+00 -0.30490191993E+01  0.30504371945E+01  0.93000000000E-01 0.  1.
       1023    2    1    2    0    0  0.00000000000E+00  0.00000000000E+00  0.29741747760E+02  0.35841336036E+02  0.20000745210E+02 0.  0.
        -11    1    3    3    0    0  0.76590398055E+01 -0.64296305625E+01  0.15014369003E+02  0.18039742701E+02  0.51100000000E-03 0. -1.
         11    1    3    3    0    0 -0.76590398055E+01  0.64296305625E+01  0.14727378758E+02  0.17801593334E+02  0.51100000000E-03 0.  1.
<mgrwt>
<rscale>  0 0.20000745E+02</rscale>
<asrwt>0</asrwt>
<pdfrwt beam="2">  1        3 0.46919909E-03 0.20000745E+02</pdfrwt>
<pdfrwt beam="1">  1       -3 0.50448527E-02 0.20000745E+02</pdfrwt>
<totfact> 0.16936342E+06</totfact>
</mgrwt>
</event>
<event>
 5    1  0.4133473E-007  0.2000306E+02  0.7818608E-02  0.1745267E+00
         -3   -1    0    0    0  501 -0.00000000000E+00  0.00000000000E+00  0.56963983477E+01  0.56971574610E+01  0.93000000000E-01 0. -1.
          3   -1    0    0  501    0  0.00000000000E+00 -0.00000000000E+00 -0.17558264068E+02  0.17558510360E+02  0.93000000000E-01 0.  1.
       1023    2    1    2    0    0  0.00000000000E+00  0.00000000000E+00 -0.11861865720E+02  0.23255667821E+02  0.20003055453E+02 0.  0.
        -11    1    3    3    0    0  0.92366818461E+01 -0.38325379153E+01 -0.57437634291E+01  0.11532365629E+02  0.51100000000E-03 0.  1.
         11    1    3    3    0    0 -0.92366818461E+01  0.38325379153E+01 -0.61181022907E+01  0.11723302193E+02  0.51100000000E-03 0. -1.
<mgrwt>
<rscale>  0 0.20003055E+02</rscale>
<asrwt>0</asrwt>
<pdfrwt beam="2">  1        3 0.27013487E-02 0.20003055E+02</pdfrwt>
<pdfrwt beam="1">  1       -3 0.87644632E-03 0.20003055E+02</pdfrwt>
<totfact> 0.17669736E+06</totfact>
</mgrwt>
</event>
<event>
 5    1  0.4133473E-007  0.2000120E+02  0.7818608E-02  0.1745304E+00
          3   -1    0    0  501    0  0.00000000000E+00  0.00000000000E+00  0.15726919345E+01  0.15754392787E+01  0.93000000000E-01 0. -1.
         -3   -1    0    0    0  501 -0.00000000000E+00 -0.00000000000E+00 -0.63534618634E+02  0.63534686699E+02  0.93000000000E-01 0.  1.
       1023    2    1    2    0    0  0.00000000000E+00  0.00000000000E+00 -0.61961926699E+02  0.65110125978E+02  0.20001203577E+02 0.  0.
        -11    1    3    3    0    0  0.65987813046E+01  0.75144707479E+01 -0.31075901659E+02  0.32645410849E+02  0.51100000000E-03 0. -1.
         11    1    3    3    0    0 -0.65987813046E+01 -0.75144707479E+01 -0.30886025040E+02  0.32464715129E+02  0.51100000000E-03 0.  1.
<mgrwt>
<rscale>  0 0.20001204E+02</rscale>
<asrwt>0</asrwt>
<pdfrwt beam="1">  1        3 0.24216922E-03 0.20001204E+02</pdfrwt>
<pdfrwt beam="2">  1       -3 0.97747713E-02 0.20001204E+02</pdfrwt>
<totfact> 0.15520549E+06</totfact>
</mgrwt>
</event>
<event>
 5    1  0.4133473E-007  0.2000068E+02  0.7818608E-02  0.1745315E+00
          3   -1    0    0  501    0  0.00000000000E+00  0.00000000000E+00  0.19747258554E+01  0.19769145666E+01  0.93000000000E-01 0. -1.
         -3   -1    0    0    0  501 -0.00000000000E+00 -0.00000000000E+00 -0.50613083720E+02  0.50613169162E+02  0.93000000000E-01 0.  1.
       1023    2    1    2    0    0  0.00000000000E+00  0.00000000000E+00 -0.48638357864E+02  0.52590083728E+02  0.20000676260E+02 0.  0.
        -11    1    3    3    0    0  0.99892242173E+01  0.47124198986E+00 -0.24344532395E+02  0.26318490217E+02  0.51100000000E-03 0.  1.
         11    1    3    3    0    0 -0.99892242173E+01 -0.47124198986E+00 -0.24293825469E+02  0.26271593512E+02  0.51100000000E-03 0. -1.
<mgrwt>
<rscale>  0 0.20000676E+02</rscale>
<asrwt>0</asrwt>
<pdfrwt beam="1">  1        3 0.30397895E-03 0.20000676E+02</pdfrwt>
<pdfrwt beam="2">  1       -3 0.77868022E-02 0.20000676E+02</pdfrwt>
<totfact> 0.16084965E+06</totfact>
</mgrwt>
</event>
<event>
 5    1  0.4302312E-007  0.2000077E+02  0.7818608E-02  0.1745313E+00
          3   -1    0    0  501    0  0.00000000000E+00  0.00000000000E+00  0.11616934677E+02  0.11617306929E+02  0.93000000000E-01 0.  1.
         -3   -1    0    0    0  501 -0.00000000000E+00 -0.00000000000E+00 -0.86080274848E+01  0.86085298500E+01  0.93000000000E-01 0. -1.
       1023    2    1    2    0    0  0.00000000000E+00  0.00000000000E+00  0.30089071918E+01  0.20225836779E+02  0.20000773758E+02 0.  0.
        -11    1    3    3    0    0  0.92873096365E+01  0.37076835286E+01  0.14216787763E+01  0.10100604350E+02  0.51100000000E-03 0.  1.
         11    1    3    3    0    0 -0.92873096365E+01 -0.37076835286E+01  0.15872284154E+01  0.10125232429E+02  0.51100000000E-03 0. -1.
<mgrwt>
<rscale>  0 0.20000774E+02</rscale>
<asrwt>0</asrwt>
<pdfrwt beam="1">  1        3 0.17872880E-02 0.20000774E+02</pdfrwt>
<pdfrwt beam="2">  1       -3 0.13243792E-02 0.20000774E+02</pdfrwt>
<totfact> 0.17869226E+06</totfact>
</mgrwt>
</event>
<event>
 5    1  0.4133473E-007  0.2000282E+02  0.7818608E-02  0.1745272E+00
         -3   -1    0    0    0  501 -0.00000000000E+00  0.00000000000E+00  0.92055810868E+02  0.92055857844E+02  0.93000000000E-01 0. -1.
          3   -1    0    0  501    0  0.00000000000E+00 -0.00000000000E+00 -0.10845669272E+01  0.10885469303E+01  0.93000000000E-01 0.  1.
       1023    2    1    2    0    0  0.00000000000E+00  0.00000000000E+00  0.90971243940E+02  0.93144404775E+02  0.20002822721E+02 0.  0.
        -11    1    3    3    0    0 -0.97496284615E+01  0.22275543950E+01  0.45973455970E+02  0.47048654686E+02  0.51100000000E-03 0. -1.
         11    1    3    3    0    0  0.97496284615E+01 -0.22275543950E+01  0.44997787971E+02  0.46095750089E+02  0.51100000000E-03 0.  1.
<mgrwt>
<rscale>  0 0.20002823E+02</rscale>
<asrwt>0</asrwt>
<pdfrwt beam="2">  1        3 0.16716613E-03 0.20002823E+02</pdfrwt>
<pdfrwt beam="1">  1       -3 0.14162749E-01 0.20002823E+02</pdfrwt>
<totfact> 0.14418468E+06</totfact>
</mgrwt>
</event>
<event>
 5    1  0.4133473E-007  0.2000254E+02  0.7818608E-02  0.1745278E+00
          3   -1    0    0  501    0  0.00000000000E+00  0.00000000000E+00  0.80587473571E+01  0.80592839611E+01  0.93000000000E-01 0. -1.
         -3   -1    0    0    0  501 -0.00000000000E+00 -0.00000000000E+00 -0.12410898774E+02  0.12411247213E+02  0.93000000000E-01 0.  1.
       1023    2    1    2    0    0  0.00000000000E+00  0.00000000000E+00 -0.43521514166E+01  0.20470531174E+02  0.20002535454E+02 0.  0.
        -11    1    3    3    0    0 -0.28235929077E+01 -0.95939435075E+01 -0.20793825786E+01  0.10214708077E+02  0.51100000000E-03 0. -1.
         11    1    3    3    0    0  0.28235929077E+01  0.95939435075E+01 -0.22727688380E+01  0.10255823096E+02  0.51100000000E-03 0.  1.
<mgrwt>
<rscale>  0 0.20002535E+02</rscale>
<asrwt>0</asrwt>
<pdfrwt beam="1">  1        3 0.12398754E-02 0.20002535E+02</pdfrwt>
<pdfrwt beam="2">  1       -3 0.19094371E-02 0.20002535E+02</pdfrwt>
<totfact> 0.17850159E+06</totfact>
</mgrwt>
</event>
<event>
 5    1  0.4206912E-007  0.2000135E+02  0.7818608E-02  0.1745301E+00
         -3   -1    0    0    0  501 -0.00000000000E+00  0.00000000000E+00  0.25777905222E+02  0.25778072982E+02  0.93000000000E-01 0. -1.
          3   -1    0    0  501    0  0.00000000000E+00 -0.00000000000E+00 -0.38790756596E+01  0.38801903269E+01  0.93000000000E-01 0.  1.
       1023    2    1    2    0    0  0.00000000000E+00  0.00000000000E+00  0.21898829563E+02  0.29658263309E+02  0.20001346111E+02 0.  0.
        -11    1    3    3    0    0  0.68498851095E+01 -0.72857881604E+01  0.11096401719E+02  0.14937662686E+02  0.51100000000E-03 0.  1.
         11    1    3    3    0    0 -0.68498851095E+01  0.72857881604E+01  0.10802427844E+02  0.14720600623E+02  0.51100000000E-03 0. -1.
<mgrwt>
<rscale>  0 0.20001346E+02</rscale>
<asrwt>0</asrwt>
<pdfrwt beam="2">  1        3 0.59687953E-03 0.20001346E+02</pdfrwt>
<pdfrwt beam="1">  1       -3 0.39659302E-02 0.20001346E+02</pdfrwt>
<totfact> 0.17285519E+06</totfact>
</mgrwt>
</event>
<event>
 5    1  0.4209912E-007  0.2000073E+02  0.7818608E-02  0.1745314E+00
          3   -1    0    0  501    0  0.00000000000E+00  0.00000000000E+00  0.75995013223E+01  0.76000703515E+01  0.93000000000E-01 0. -1.
         -3   -1    0    0    0  501 -0.00000000000E+00 -0.00000000000E+00 -0.13158489792E+02  0.13158818435E+02  0.93000000000E-01 0.  1.
       1023    2    1    2    0    0  0.00000000000E+00  0.00000000000E+00 -0.55589884700E+01  0.20758888787E+02  0.20000727758E+02 0.  0.
        -11    1    3    3    0    0 -0.56135545345E+00 -0.99843555611E+01 -0.27075744482E+01  0.10360185113E+02  0.51100000000E-03 0. -1.
         11    1    3    3    0    0  0.56135545345E+00  0.99843555611E+01 -0.28514140218E+01  0.10398703674E+02  0.51100000000E-03 0.  1.
<mgrwt>
<rscale>  0 0.20000728E+02</rscale>
<asrwt>0</asrwt>
<pdfrwt beam="1">  1        3 0.11692231E-02 0.20000728E+02</pdfrwt>
<pdfrwt beam="2">  1       -3 0.20244521E-02 0.20000728E+02</pdfrwt>
<totfact> 0.17834921E+06</totfact>
</mgrwt>
</event>
<event>
 5    1  0.4133473E-007  0.2000167E+02  0.7818608E-02  0.1745295E+00
         -3   -1    0    0    0  501 -0.00000000000E+00  0.00000000000E+00  0.17260107407E+01  0.17285144133E+01  0.93000000000E-01 0. -1.
          3   -1    0    0  501    0  0.00000000000E+00 -0.00000000000E+00 -0.57902194700E+02  0.57902269386E+02  0.93000000000E-01 0.  1.
       1023    2    1    2    0    0  0.00000000000E+00  0.00000000000E+00 -0.56176183959E+02  0.59630783800E+02  0.20001668239E+02 0.  0.
        -11    1    3    3    0    0 -0.97652907700E+01  0.21574712879E+01 -0.28186819043E+02  0.29908399392E+02  0.51100000000E-03 0. -1.
         11    1    3    3    0    0  0.97652907700E+01 -0.21574712879E+01 -0.27989364917E+02  0.29722384408E+02  0.51100000000E-03 0.  1.
<mgrwt>
<rscale>  0 0.20001668E+02</rscale>
<asrwt>0</asrwt>
<pdfrwt beam="2">  1        3 0.89082268E-02 0.20001668E+02</pdfrwt>
<pdfrwt beam="1">  1       -3 0.26573849E-03 0.20001668E+02</pdfrwt>
<totfact> 0.15757323E+06</totfact>
</mgrwt>
</event>
<event>
 5    1  0.4133473E-007  0.2000033E+02  0.7818608E-02  0.1745322E+00
         -3   -1    0    0    0  501 -0.00000000000E+00  0.00000000000E+00  0.10165081348E+02  0.10165506766E+02  0.93000000000E-01 0. -1.
          3   -1    0    0  501    0  0.00000000000E+00 -0.00000000000E+00 -0.98370725394E+01  0.98375121421E+01  0.93000000000E-01 0.  1.
       1023    2    1    2    0    0  0.00000000000E+00  0.00000000000E+00  0.32800880822E+00  0.20003018908E+02  0.20000329389E+02 0.  0.
        -11    1    3    3    0    0 -0.98940145164E+01  0.14523230105E+01  0.21429310276E+00  0.10002334086E+02  0.51100000000E-03 0.  1.
         11    1    3    3    0    0  0.98940145164E+01 -0.14523230105E+01  0.11371570546E+00  0.10000684822E+02  0.51100000000E-03 0. -1.
<mgrwt>
<rscale>  0 0.20000329E+02</rscale>
<asrwt>0</asrwt>
<pdfrwt beam="2">  1        3 0.15134623E-02 0.20000329E+02</pdfrwt>
<pdfrwt beam="1">  1       -3 0.15639252E-02 0.20000329E+02</pdfrwt>
<totfact> 0.17884812E+06</totfact>
</mgrwt>
</event>
<event>
 5    1  0.4146791E-007  0.2000238E+02  0.7818608E-02  0.1745281E+00
          3   -1    0    0  501    0  0.00000000000E+00  0.00000000000E+00  0.67548513601E+01  0.67554915363E+01  0.93000000000E-01 0. -1.
         -3   -1    0    0    0  501 -0.00000000000E+00 -0.00000000000E+00 -0.14806212651E+02  0.14806504721E+02  0.93000000000E-01 0.  1.
       1023    2    1    2    0    0  0.00000000000E+00  0.00000000000E+00 -0.80513612908E+01  0.21561996258E+02  0.20002381458E+02 0.  0.
        -11    1    3    3    0    0 -0.99991547356E+01  0.15889597972E+00 -0.38915939301E+01  0.10730929453E+02  0.51100000000E-03 0.  1.
         11    1    3    3    0    0  0.99991547356E+01 -0.15889597972E+00 -0.41597673607E+01  0.10831066804E+02  0.51100000000E-03 0. -1.
<mgrwt>
<rscale>  0 0.20002381E+02</rscale>
<asrwt>0</asrwt>
<pdfrwt beam="1">  1        3 0.10392796E-02 0.20002381E+02</pdfrwt>
<pdfrwt beam="2">  1       -3 0.22779506E-02 0.20002381E+02</pdfrwt>
<totfact> 0.17779751E+06</totfact>
</mgrwt>
</event>
<event>
 5    1  0.4147683E-007  0.2000141E+02  0.7818608E-02  0.1745300E+00
          3   -1    0    0  501    0  0.00000000000E+00  0.00000000000E+00  0.27593616562E+02  0.27593773282E+02  0.93000000000E-01 0.  1.
         -3   -1    0    0    0  501 -0.00000000000E+00 -0.00000000000E+00 -0.36237753165E+01  0.36249684887E+01  0.93000000000E-01 0. -1.
       1023    2    1    2    0    0  0.00000000000E+00  0.00000000000E+00  0.23969841245E+02  0.31218741771E+02  0.20001413661E+02 0.  0.
        -11    1    3    3    0    0 -0.58217134870E+01 -0.81315063360E+01  0.11953953563E+02  0.15585594287E+02  0.51100000000E-03 0. -1.
         11    1    3    3    0    0  0.58217134870E+01  0.81315063360E+01  0.12015887682E+02  0.15633147484E+02  0.51100000000E-03 0.  1.
<mgrwt>
<rscale>  0 0.20001414E+02</rscale>
<asrwt>0</asrwt>
<pdfrwt beam="1">  1        3 0.42452756E-02 0.20001414E+02</pdfrwt>
<pdfrwt beam="2">  1       -3 0.55760774E-03 0.20001414E+02</pdfrwt>
<totfact> 0.17193151E+06</totfact>
</mgrwt>
</event>
<event>
 5    1  0.4133473E-007  0.2000042E+02  0.7818608E-02  0.1745320E+00
         -3   -1    0    0    0  501 -0.00000000000E+00  0.00000000000E+00  0.12474372133E+02  0.12474718799E+02  0.93000000000E-01 0. -1.
          3   -1    0    0  501    0  0.00000000000E+00 -0.00000000000E+00 -0.80160477368E+01  0.80165871990E+01  0.93000000000E-01 0.  1.
       1023    2    1    2    0    0  0.00000000000E+00  0.00000000000E+00  0.44583243962E+01  0.20491305998E+02  0.20000424123E+02 0.  0.
        -11    1    3    3    0    0  0.28927689262E+01 -0.95725805977E+01  0.21853379594E+01  0.10236118093E+02  0.51100000000E-03 0. -1.
         11    1    3    3    0    0 -0.28927689262E+01  0.95725805977E+01  0.22729864368E+01  0.10255187905E+02  0.51100000000E-03 0.  1.
<mgrwt>
<rscale>  0 0.20000424E+02</rscale>
<asrwt>0</asrwt>
<pdfrwt beam="2">  1        3 0.12333063E-02 0.20000424E+02</pdfrwt>
<pdfrwt beam="1">  1       -3 0.19192023E-02 0.20000424E+02</pdfrwt>
<totfact> 0.17852870E+06</totfact>
</mgrwt>
</event>
<event>
 5    1  0.4133473E-007  0.2000289E+02  0.7818608E-02  0.1745271E+00
         -3   -1    0    0    0  501 -0.00000000000E+00  0.00000000000E+00  0.76532026589E+01  0.76537676956E+01  0.93000000000E-01 0. -1.
          3   -1    0    0  501    0  0.00000000000E+00 -0.00000000000E+00 -0.13068987926E+02  0.13069318820E+02  0.93000000000E-01 0.  1.
       1023    2    1    2    0    0  0.00000000000E+00  0.00000000000E+00 -0.54157852673E+01  0.20723086515E+02  0.20002889408E+02 0.  0.
        -11    1    3    3    0    0  0.26857171398E+01  0.96334940880E+01 -0.25962585995E+01  0.10332368745E+02  0.51100000000E-03 0.  1.
         11    1    3    3    0    0 -0.26857171398E+01 -0.96334940880E+01 -0.28195266678E+01  0.10390717771E+02  0.51100000000E-03 0. -1.
<mgrwt>
<rscale>  0 0.20002889E+02</rscale>
<asrwt>0</asrwt>
<pdfrwt beam="2">  1        3 0.20106824E-02 0.20002889E+02</pdfrwt>
<pdfrwt beam="1">  1       -3 0.11774847E-02 0.20002889E+02</pdfrwt>
<totfact> 0.17832629E+06</totfact>
</mgrwt>
</event>
<event>
 5    1  0.4133473E-007  0.2000115E+02  0.7818608E-02  0.1745305E+00
         -3   -1    0    0    0  501 -0.00000000000E+00  0.00000000000E+00  0.11263317813E+01  0.11301647143E+01  0.93000000000E-01 0.  1.
          3   -1    0    0  501    0  0.00000000000E+00 -0.00000000000E+00 -0.88639277306E+02  0.88639326093E+02  0.93000000000E-01 0. -1.
       1023    2    1    2    0    0  0.00000000000E+00  0.00000000000E+00 -0.87512945524E+02  0.89769490808E+02  0.20001146105E+02 0.  0.
        -11    1    3    3    0    0 -0.67637102506E+01 -0.73662010024E+01 -0.43520358722E+02  0.44654566587E+02  0.51100000000E-03 0.  1.
         11    1    3    3    0    0  0.67637102506E+01  0.73662010024E+01 -0.43992586802E+02  0.45114924220E+02  0.51100000000E-03 0. -1.
<mgrwt>
<rscale>  0 0.20001146E+02</rscale>
<asrwt>0</asrwt>
<pdfrwt beam="2">  1        3 0.13637105E-01 0.20001146E+02</pdfrwt>
<pdfrwt beam="1">  1       -3 0.17358048E-03 0.20001146E+02</pdfrwt>
<totfact> 0.14540792E+06</totfact>
</mgrwt>
</event>
<event>
 5    1  0.4133473E-007  0.2000102E+02  0.7818608E-02  0.1745308E+00
         -3   -1    0    0    0  501 -0.00000000000E+00  0.00000000000E+00  0.23713992753E+01  0.23732221815E+01  0.93000000000E-01 0.  1.
          3   -1    0    0  501    0  0.00000000000E+00 -0.00000000000E+00 -0.42155438535E+02  0.42155541120E+02  0.93000000000E-01 0. -1.
       1023    2    1    2    0    0  0.00000000000E+00  0.00000000000E+00 -0.39784039260E+02  0.44528763301E+02  0.20001024506E+02 0.  0.
        -11    1    3    3    0    0  0.52857979019E+01 -0.84893821450E+01 -0.19961586463E+02  0.22326535850E+02  0.51100000000E-03 0. -1.
         11    1    3    3    0    0 -0.52857979019E+01  0.84893821450E+01 -0.19822452797E+02  0.22202227452E+02  0.51100000000E-03 0.  1.
<mgrwt>
<rscale>  0 0.20001025E+02</rscale>
<asrwt>0</asrwt>
<pdfrwt beam="2">  1        3 0.64855997E-02 0.20001025E+02</pdfrwt>
<pdfrwt beam="1">  1       -3 0.36497880E-03 0.20001025E+02</pdfrwt>
<totfact> 0.16475943E+06</totfact>
</mgrwt>
</event>
<event>
 5    1  0.4367709E-007  0.2000155E+02  0.7818608E-02  0.1745297E+00
          3   -1    0    0  501    0  0.00000000000E+00  0.00000000000E+00  0.12199374547E+02  0.12199729027E+02  0.93000000000E-01 0. -1.
         -3   -1    0    0    0  501 -0.00000000000E+00 -0.00000000000E+00 -0.81976745017E+01  0.81982020124E+01  0.93000000000E-01 0.  1.
       1023    2    1    2    0    0  0.00000000000E+00  0.00000000000E+00  0.40017000453E+01  0.20397931040E+02  0.20001549626E+02 0.  0.
        -11    1    3    3    0    0  0.13190327592E+01  0.99134075234E+01  0.20015371135E+01  0.10199100314E+02  0.51100000000E-03 0. -1.
         11    1    3    3    0    0 -0.13190327592E+01 -0.99134075234E+01  0.20001629318E+01  0.10198830725E+02  0.51100000000E-03 0.  1.
<mgrwt>
<rscale>  0 0.20001550E+02</rscale>
<asrwt>0</asrwt>
<pdfrwt beam="1">  1        3 0.18768947E-02 0.20001550E+02</pdfrwt>
<pdfrwt beam="2">  1       -3 0.12612485E-02 0.20001550E+02</pdfrwt>
<totfact> 0.17856423E+06</totfact>
</mgrwt>
</event>
<event>
 5    1  0.4133473E-007  0.2000420E+02  0.7818608E-02  0.1745245E+00
         -3   -1    0    0    0  501 -0.00000000000E+00  0.00000000000E+00  0.10289358766E+02  0.10289779046E+02  0.93000000000E-01 0.  1.
          3   -1    0    0  501    0  0.00000000000E+00 -0.00000000000E+00 -0.97220152540E+01  0.97224600590E+01  0.93000000000E-01 0. -1.
       1023    2    1    2    0    0  0.00000000000E+00  0.00000000000E+00  0.56734351149E+00  0.20012239105E+02  0.20004195443E+02 0.  0.
        -11    1    3    3    0    0 -0.93516203490E+01  0.35480536481E+01  0.26196681464E+00  0.10005504221E+02  0.51100000000E-03 0.  1.
         11    1    3    3    0    0  0.93516203490E+01 -0.35480536481E+01  0.30537669685E+00  0.10006734884E+02  0.51100000000E-03 0. -1.
<mgrwt>
<rscale>  0 0.20004195E+02</rscale>
<asrwt>0</asrwt>
<pdfrwt beam="2">  1        3 0.14957612E-02 0.20004195E+02</pdfrwt>
<pdfrwt beam="1">  1       -3 0.15830448E-02 0.20004195E+02</pdfrwt>
<totfact> 0.17876773E+06</totfact>
</mgrwt>
</event>
<event>
 5    1  0.4133473E-007  0.2000031E+02  0.7818608E-02  0.1745322E+00
          3   -1    0    0  501    0  0.00000000000E+00  0.00000000000E+00  0.60363113112E+01  0.60370276830E+01  0.93000000000E-01 0. -1.
         -3   -1    0    0    0  501 -0.00000000000E+00 -0.00000000000E+00 -0.16565092389E+02  0.16565353448E+02  0.93000000000E-01 0.  1.
       1023    2    1    2    0    0  0.00000000000E+00  0.00000000000E+00 -0.10528781077E+02  0.22602381131E+02  0.20000310043E+02 0.  0.
        -11    1    3    3    0    0 -0.25618314146E+01 -0.96664230659E+01 -0.52865676851E+01  0.11311521261E+02  0.51100000000E-03 0. -1.
         11    1    3    3    0    0  0.25618314146E+01  0.96664230659E+01 -0.52422133923E+01  0.11290859870E+02  0.51100000000E-03 0.  1.
<mgrwt>
<rscale>  0 0.20000310E+02</rscale>
<asrwt>0</asrwt>
<pdfrwt beam="1">  1        3 0.92873847E-03 0.20000310E+02</pdfrwt>
<pdfrwt beam="2">  1       -3 0.25485509E-02 0.20000310E+02</pdfrwt>
<totfact> 0.17717264E+06</totfact>
</mgrwt>
</event>
<event>
 5    1  0.4133473E-007  0.2000344E+02  0.7818608E-02  0.1745260E+00
         -3   -1    0    0    0  501 -0.00000000000E+00  0.00000000000E+00  0.29999349007E+01  0.30013760858E+01  0.93000000000E-01 0.  1.
          3   -1    0    0  501    0  0.00000000000E+00 -0.00000000000E+00 -0.33336006804E+02  0.33336136529E+02  0.93000000000E-01 0. -1.
       1023    2    1    2    0    0  0.00000000000E+00  0.00000000000E+00 -0.30336071904E+02  0.36337512614E+02  0.20003438816E+02 0.  0.
        -11    1    3    3    0    0  0.88727492275E+01  0.46157941891E+01 -0.15270087427E+02  0.18253953137E+02  0.51100000000E-03 0. -1.
         11    1    3    3    0    0 -0.88727492275E+01 -0.46157941891E+01 -0.15065984477E+02  0.18083559477E+02  0.51100000000E-03 0.  1.
<mgrwt>
<rscale>  0 0.20003439E+02</rscale>
<asrwt>0</asrwt>
<pdfrwt beam="2">  1        3 0.51287370E-02 0.20003439E+02</pdfrwt>
<pdfrwt beam="1">  1       -3 0.46164931E-03 0.20003439E+02</pdfrwt>
<totfact> 0.16902236E+06</totfact>
</mgrwt>
</event>
<event>
 5    1  0.4133473E-007  0.2000281E+02  0.7818608E-02  0.1745272E+00
         -3   -1    0    0    0  501 -0.00000000000E+00  0.00000000000E+00  0.40793888175E+01  0.40804487651E+01  0.93000000000E-01 0.  1.
          3   -1    0    0  501    0  0.00000000000E+00 -0.00000000000E+00 -0.24516020397E+02  0.24516196791E+02  0.93000000000E-01 0. -1.
       1023    2    1    2    0    0  0.00000000000E+00  0.00000000000E+00 -0.20436631579E+02  0.28596645556E+02  0.20002805472E+02 0.  0.
        -11    1    3    3    0    0 -0.21050819748E+01 -0.97766877299E+01 -0.10054916091E+02  0.14181548961E+02  0.51100000000E-03 0. -1.
         11    1    3    3    0    0  0.21050819748E+01  0.97766877299E+01 -0.10381715489E+02  0.14415096595E+02  0.51100000000E-03 0.  1.
<mgrwt>
<rscale>  0 0.20002805E+02</rscale>
<asrwt>0</asrwt>
<pdfrwt beam="2">  1        3 0.37717905E-02 0.20002805E+02</pdfrwt>
<pdfrwt beam="1">  1       -3 0.62769340E-03 0.20002805E+02</pdfrwt>
<totfact> 0.17343698E+06</totfact>
</mgrwt>
</event>
<event>
 5    1  0.4133473E-007  0.2000130E+02  0.7818608E-02  0.1745302E+00
         -3   -1    0    0    0  501 -0.00000000000E+00  0.00000000000E+00  0.39146590324E+02  0.39146700793E+02  0.93000000000E-01 0.  1.
          3   -1    0    0  501    0  0.00000000000E+00 -0.00000000000E+00 -0.25538721458E+01  0.25555648959E+01  0.93000000000E-01 0. -1.
       1023    2    1    2    0    0  0.00000000000E+00  0.00000000000E+00  0.36592718178E+02  0.41702265689E+02  0.20001298456E+02 0.  0.
        -11    1    3    3    0    0 -0.86728237581E+01  0.49784841387E+01  0.18089867666E+02  0.20669941671E+02  0.51100000000E-03 0. -1.
         11    1    3    3    0    0  0.86728237581E+01 -0.49784841387E+01  0.18502850512E+02  0.21032324018E+02  0.51100000000E-03 0.  1.
<mgrwt>
<rscale>  0 0.20001298E+02</rscale>
<asrwt>0</asrwt>
<pdfrwt beam="2">  1        3 0.39304215E-03 0.20001298E+02</pdfrwt>
<pdfrwt beam="1">  1       -3 0.60226906E-02 0.20001298E+02</pdfrwt>
<totfact> 0.16622759E+06</totfact>
</mgrwt>
</event>
<event>
 5    1  0.4133473E-007  0.2000742E+02  0.7818608E-02  0.1745181E+00
         -3   -1    0    0    0  501 -0.00000000000E+00  0.00000000000E+00  0.43005316261E+02  0.43005416819E+02  0.93000000000E-01 0.  1.
          3   -1    0    0  501    0  0.00000000000E+00 -0.00000000000E+00 -0.23259878012E+01  0.23278462688E+01  0.93000000000E-01 0. -1.
       1023    2    1    2    0    0  0.00000000000E+00  0.00000000000E+00  0.40679328460E+02  0.45333263087E+02  0.20007423077E+02 0.  0.
        -11    1    3    3    0    0  0.93409052469E+01  0.35797682527E+01  0.20529137739E+02  0.22836653611E+02  0.51100000000E-03 0.  1.
         11    1    3    3    0    0 -0.93409052469E+01 -0.35797682527E+01  0.20150190721E+02  0.22496609476E+02  0.51100000000E-03 0. -1.
<mgrwt>
<rscale>  0 0.20007423E+02</rscale>
<asrwt>0</asrwt>
<pdfrwt beam="2">  1        3 0.35799497E-03 0.20007423E+02</pdfrwt>
<pdfrwt beam="1">  1       -3 0.66163532E-02 0.20007423E+02</pdfrwt>
<totfact> 0.16426467E+06</totfact>
</mgrwt>
</event>
<event>
 5    1  0.4133473E-007  0.2000238E+02  0.7818608E-02  0.1745281E+00
         -3   -1    0    0    0  501 -0.00000000000E+00  0.00000000000E+00  0.36720905398E+02  0.36721023164E+02  0.93000000000E-01 0.  1.
          3   -1    0    0  501    0  0.00000000000E+00 -0.00000000000E+00 -0.27229771238E+01  0.27245648123E+01  0.93000000000E-01 0. -1.
       1023    2    1    2    0    0  0.00000000000E+00  0.00000000000E+00  0.33997928274E+02  0.39445587977E+02  0.20002381956E+02 0.  0.
        -11    1    3    3    0    0 -0.99314085221E+01 -0.11782101698E+01  0.17102684605E+02  0.19812190071E+02  0.51100000000E-03 0.  1.
         11    1    3    3    0    0  0.99314085221E+01  0.11782101698E+01  0.16895243669E+02  0.19633397906E+02  0.51100000000E-03 0. -1.
<mgrwt>
<rscale>  0 0.20002382E+02</rscale>
<asrwt>0</asrwt>
<pdfrwt beam="2">  1        3 0.41905076E-03 0.20002382E+02</pdfrwt>
<pdfrwt beam="1">  1       -3 0.56495011E-02 0.20002382E+02</pdfrwt>
<totfact> 0.16739066E+06</totfact>
</mgrwt>
</event>
<event>
 5    1  0.4133473E-007  0.2000890E+02  0.7818608E-02  0.1745151E+00
          3   -1    0    0  501    0  0.00000000000E+00  0.00000000000E+00  0.58017118075E+02  0.58017192613E+02  0.93000000000E-01 0.  1.
         -3   -1    0    0    0  501 -0.00000000000E+00 -0.00000000000E+00 -0.17238338657E+01  0.17263406954E+01  0.93000000000E-01 0. -1.
       1023    2    1    2    0    0  0.00000000000E+00  0.00000000000E+00  0.56293284209E+02  0.59743533308E+02  0.20008896150E+02 0.  0.
        -11    1    3    3    0    0 -0.88241861825E+01 -0.47097095169E+01  0.27539438379E+02  0.29299629554E+02  0.51100000000E-03 0.  1.
         11    1    3    3    0    0  0.88241861825E+01  0.47097095169E+01  0.28753845830E+02  0.30443903754E+02  0.51100000000E-03 0. -1.
<mgrwt>
<rscale>  0 0.20008896E+02</rscale>
<asrwt>0</asrwt>
<pdfrwt beam="1">  1        3 0.89259087E-02 0.20008896E+02</pdfrwt>
<pdfrwt beam="2">  1       -3 0.26540379E-03 0.20008896E+02</pdfrwt>
<totfact> 0.15740057E+06</totfact>
</mgrwt>
</event>
<event>
 5    1  0.4133473E-007  0.2000007E+02  0.7818608E-02  0.1745327E+00
          3   -1    0    0  501    0  0.00000000000E+00  0.00000000000E+00  0.35268509779E+02  0.35268632395E+02  0.93000000000E-01 0. -1.
         -3   -1    0    0    0  501 -0.00000000000E+00 -0.00000000000E+00 -0.28345213005E+01  0.28360465446E+01  0.93000000000E-01 0.  1.
       1023    2    1    2    0    0  0.00000000000E+00  0.00000000000E+00  0.32433988478E+02  0.38104678940E+02  0.20000073712E+02 0.  0.
        -11    1    3    3    0    0  0.93433261837E+00 -0.99562791248E+01  0.16185955543E+02  0.19025919914E+02  0.51100000000E-03 0. -1.
         11    1    3    3    0    0 -0.93433261837E+00  0.99562791248E+01  0.16248032935E+02  0.19078759026E+02  0.51100000000E-03 0.  1.
<mgrwt>
<rscale>  0 0.20000074E+02</rscale>
<asrwt>0</asrwt>
<pdfrwt beam="1">  1        3 0.54260512E-02 0.20000074E+02</pdfrwt>
<pdfrwt beam="2">  1       -3 0.43620697E-03 0.20000074E+02</pdfrwt>
<totfact> 0.16812583E+06</totfact>
</mgrwt>
</event>
<event>
 5    1  0.4133473E-007  0.2000276E+02  0.7818608E-02  0.1745273E+00
         -3   -1    0    0    0  501 -0.00000000000E+00  0.00000000000E+00  0.14587642982E+02  0.14587939429E+02  0.93000000000E-01 0. -1.
          3   -1    0    0  501    0  0.00000000000E+00 -0.00000000000E+00 -0.68563268784E+01  0.68569575807E+01  0.93000000000E-01 0.  1.
       1023    2    1    2    0    0  0.00000000000E+00  0.00000000000E+00  0.77313161037E+01  0.21444897009E+02  0.20002758786E+02 0.  0.
        -11    1    3    3    0    0  0.99977790141E+01 -0.25528325160E+00  0.37770250779E+01  0.10690494537E+02  0.51100000000E-03 0. -1.
         11    1    3    3    0    0 -0.99977790141E+01  0.25528325160E+00  0.39542910258E+01  0.10754402472E+02  0.51100000000E-03 0.  1.
<mgrwt>
<rscale>  0 0.20002759E+02</rscale>
<asrwt>0</asrwt>
<pdfrwt beam="2">  1        3 0.10548908E-02 0.20002759E+02</pdfrwt>
<pdfrwt beam="1">  1       -3 0.22443241E-02 0.20002759E+02</pdfrwt>
<totfact> 0.17786566E+06</totfact>
</mgrwt>
</event>
<event>
 5    1  0.4133473E-007  0.2000013E+02  0.7818608E-02  0.1745326E+00
         -3   -1    0    0    0  501 -0.00000000000E+00  0.00000000000E+00  0.38454464704E+01  0.38465708829E+01  0.93000000000E-01 0.  1.
          3   -1    0    0  501    0  0.00000000000E+00 -0.00000000000E+00 -0.26000109610E+02  0.26000275936E+02  0.93000000000E-01 0. -1.
       1023    2    1    2    0    0  0.00000000000E+00  0.00000000000E+00 -0.22154663140E+02  0.29846846819E+02  0.20000129154E+02 0.  0.
        -11    1    3    3    0    0  0.99918939565E+01 -0.40401634985E+00 -0.11061173265E+02  0.14911429452E+02  0.51100000000E-03 0. -1.
         11    1    3    3    0    0 -0.99918939565E+01  0.40401634985E+00 -0.11093489875E+02  0.14935417366E+02  0.51100000000E-03 0.  1.
<mgrwt>
<rscale>  0 0.20000129E+02</rscale>
<asrwt>0</asrwt>
<pdfrwt beam="2">  1        3 0.40001160E-02 0.20000129E+02</pdfrwt>
<pdfrwt beam="1">  1       -3 0.59170645E-03 0.20000129E+02</pdfrwt>
<totfact> 0.17275094E+06</totfact>
</mgrwt>
</event>
<event>
 5    1  0.4323818E-007  0.2000128E+02  0.7818608E-02  0.1745303E+00
          3   -1    0    0  501    0  0.00000000000E+00  0.00000000000E+00  0.10877192837E+02  0.10877590405E+02  0.93000000000E-01 0. -1.
         -3   -1    0    0    0  501 -0.00000000000E+00 -0.00000000000E+00 -0.91939264657E+01  0.91943968185E+01  0.93000000000E-01 0.  1.
       1023    2    1    2    0    0  0.00000000000E+00  0.00000000000E+00  0.16832663716E+01  0.20071987223E+02  0.20001282094E+02 0.  0.
        -11    1    3    3    0    0 -0.10796168996E+01  0.99419379376E+01  0.76983665543E+00  0.10029972649E+02  0.51100000000E-03 0. -1.
         11    1    3    3    0    0  0.10796168996E+01 -0.99419379376E+01  0.91342971613E+00  0.10042014574E+02  0.51100000000E-03 0.  1.
<mgrwt>
<rscale>  0 0.20001282E+02</rscale>
<asrwt>0</asrwt>
<pdfrwt beam="1">  1        3 0.16734810E-02 0.20001282E+02</pdfrwt>
<pdfrwt beam="2">  1       -3 0.14145170E-02 0.20001282E+02</pdfrwt>
<totfact> 0.17878403E+06</totfact>
</mgrwt>
</event>
<event>
 5    1  0.4133473E-007  0.2000444E+02  0.7818608E-02  0.1745240E+00
         -3   -1    0    0    0  501 -0.00000000000E+00  0.00000000000E+00  0.31611884399E+01  0.31625561422E+01  0.93000000000E-01 0. -1.
          3   -1    0    0  501    0  0.00000000000E+00 -0.00000000000E+00 -0.31639431499E+02  0.31639568179E+02  0.93000000000E-01 0.  1.
       1023    2    1    2    0    0  0.00000000000E+00  0.00000000000E+00 -0.28478243059E+02  0.34802124321E+02  0.20004437747E+02 0.  0.
        -11    1    3    3    0    0  0.75978751614E+01  0.65039842841E+01 -0.14451221834E+02  0.17574621796E+02  0.51100000000E-03 0.  1.
         11    1    3    3    0    0 -0.75978751614E+01 -0.65039842841E+01 -0.14027021225E+02  0.17227502525E+02  0.51100000000E-03 0. -1.
<mgrwt>
<rscale>  0 0.20004438E+02</rscale>
<asrwt>0</asrwt>
<pdfrwt beam="2">  1        3 0.48677203E-02 0.20004438E+02</pdfrwt>
<pdfrwt beam="1">  1       -3 0.48645243E-03 0.20004438E+02</pdfrwt>
<totfact> 0.16984914E+06</totfact>
</mgrwt>
</event>
<event>
 5    1  0.4133473E-007  0.2000198E+02  0.7818608E-02  0.1745289E+00
         -3   -1    0    0    0  501 -0.00000000000E+00  0.00000000000E+00  0.60793086661E+02  0.60793157795E+02  0.93000000000E-01 0.  1.
          3   -1    0    0  501    0  0.00000000000E+00 -0.00000000000E+00 -0.16438631362E+01  0.16464917281E+01  0.93000000000E-01 0. -1.
       1023    2    1    2    0    0  0.00000000000E+00  0.00000000000E+00  0.59149223524E+02  0.62439649524E+02  0.20001979629E+02 0.  0.
        -11    1    3    3    0    0 -0.89767474465E+01 -0.44079723408E+01  0.29846432812E+02  0.31477321467E+02  0.51100000000E-03 0. -1.
         11    1    3    3    0    0  0.89767474465E+01  0.44079723408E+01  0.29302790713E+02  0.30962328057E+02  0.51100000000E-03 0.  1.
<mgrwt>
<rscale>  0 0.20001980E+02</rscale>
<asrwt>0</asrwt>
<pdfrwt beam="2">  1        3 0.25310973E-03 0.20001980E+02</pdfrwt>
<pdfrwt beam="1">  1       -3 0.93529889E-02 0.20001980E+02</pdfrwt>
<totfact> 0.15635158E+06</totfact>
</mgrwt>
</event>
<event>
 4    1  0.4133473E-007  0.2002389E+02  0.7818608E-02  0.1744853E+00
          3   -1    0    0  501    0  0.00000000000E+00  0.00000000000E+00  0.23029684454E+02  0.23029872233E+02  0.93000000000E-01 0.  1.
         -3   -1    0    0    0  501 -0.00000000000E+00 -0.00000000000E+00 -0.43518999191E+01  0.43528935096E+01  0.93000000000E-01 0. -1.
        -11    1    1    2    0    0  0.59729606798E+00  0.99863060201E+01  0.87987965280E+01  0.13322983567E+02  0.51100000000E-03 0. -1.
         11    1    1    2    0    0 -0.59729606798E+00 -0.99863060201E+01  0.98789880068E+01  0.14059782175E+02  0.51100000000E-03 0.  1.
<mgrwt>
<rscale>  0 0.20023891E+02</rscale>
<asrwt>0</asrwt>
<pdfrwt beam="1">  1        3 0.35431192E-02 0.20023891E+02</pdfrwt>
<pdfrwt beam="2">  1       -3 0.66961394E-03 0.20023891E+02</pdfrwt>
<totfact> 0.17376697E+06</totfact>
</mgrwt>
</event>
<event>
 5    1  0.4133473E-007  0.2000199E+02  0.7818608E-02  0.1745288E+00
         -3   -1    0    0    0  501 -0.00000000000E+00  0.00000000000E+00  0.53033759283E+02  0.53033840825E+02  0.93000000000E-01 0. -1.
          3   -1    0    0  501    0  0.00000000000E+00 -0.00000000000E+00 -0.18847380013E+01  0.18870310897E+01  0.93000000000E-01 0.  1.
       1023    2    1    2    0    0  0.00000000000E+00  0.00000000000E+00  0.51149021281E+02  0.54920871915E+02  0.20001994746E+02 0.  0.
        -11    1    3    3    0    0  0.99974594146E+01  0.26516471736E+00  0.25516841277E+02  0.27406727205E+02  0.51100000000E-03 0. -1.
         11    1    3    3    0    0 -0.99974594146E+01 -0.26516471736E+00  0.25632180004E+02  0.27514144710E+02  0.51100000000E-03 0.  1.
<mgrwt>
<rscale>  0 0.20001995E+02</rscale>
<asrwt>0</asrwt>
<pdfrwt beam="2">  1        3 0.29014236E-03 0.20001995E+02</pdfrwt>
<pdfrwt beam="1">  1       -3 0.81592225E-02 0.20001995E+02</pdfrwt>
<totfact> 0.15973701E+06</totfact>
</mgrwt>
</event>
<event>
 5    1  0.4133473E-007  0.2000596E+02  0.7818608E-02  0.1745209E+00
          3   -1    0    0  501    0  0.00000000000E+00  0.00000000000E+00  0.13353346524E+02  0.13353670371E+02  0.93000000000E-01 0.  1.
         -3   -1    0    0    0  501 -0.00000000000E+00 -0.00000000000E+00 -0.74925233331E+01  0.74931004863E+01  0.93000000000E-01 0. -1.
       1023    2    1    2    0    0  0.00000000000E+00  0.00000000000E+00  0.58608231905E+01  0.20846770857E+02  0.20005964278E+02 0.  0.
        -11    1    3    3    0    0 -0.84855375992E+01 -0.52955693913E+01  0.28150901793E+01  0.10390964176E+02  0.51100000000E-03 0. -1.
         11    1    3    3    0    0  0.84855375992E+01  0.52955693913E+01  0.30457330112E+01  0.10455806682E+02  0.51100000000E-03 0.  1.
<mgrwt>
<rscale>  0 0.20005964E+02</rscale>
<asrwt>0</asrwt>
<pdfrwt beam="1">  1        3 0.20544303E-02 0.20005964E+02</pdfrwt>
<pdfrwt beam="2">  1       -3 0.11527652E-02 0.20005964E+02</pdfrwt>
<totfact> 0.17818629E+06</totfact>
</mgrwt>
</event>
<event>
 5    1  0.4133473E-007  0.2000254E+02  0.7818608E-02  0.1745278E+00
         -3   -1    0    0    0  501 -0.00000000000E+00  0.00000000000E+00  0.28462416478E+01  0.28477606146E+01  0.93000000000E-01 0.  1.
          3   -1    0    0  501    0  0.00000000000E+00 -0.00000000000E+00 -0.35132029028E+02  0.35132152120E+02  0.93000000000E-01 0. -1.
       1023    2    1    2    0    0  0.00000000000E+00  0.00000000000E+00 -0.32285787380E+02  0.37979912735E+02  0.20002542454E+02 0.  0.
        -11    1    3    3    0    0 -0.18426187985E+01 -0.98300585475E+01 -0.16121177555E+02  0.18971496017E+02  0.51100000000E-03 0. -1.
         11    1    3    3    0    0  0.18426187985E+01  0.98300585475E+01 -0.16164609824E+02  0.19008416718E+02  0.51100000000E-03 0.  1.
<mgrwt>
<rscale>  0 0.20002542E+02</rscale>
<asrwt>0</asrwt>
<pdfrwt beam="2">  1        3 0.54050536E-02 0.20002542E+02</pdfrwt>
<pdfrwt beam="1">  1       -3 0.43800967E-03 0.20002542E+02</pdfrwt>
<totfact> 0.16814829E+06</totfact>
</mgrwt>
</event>
<event>
 5    1  0.4133473E-007  0.2000038E+02  0.7818608E-02  0.1745320E+00
         -3   -1    0    0    0  501 -0.00000000000E+00  0.00000000000E+00  0.10220369689E+02  0.10220792805E+02  0.93000000000E-01 0. -1.
          3   -1    0    0  501    0  0.00000000000E+00 -0.00000000000E+00 -0.97839105564E+01  0.97843525476E+01  0.93000000000E-01 0.  1.
       1023    2    1    2    0    0  0.00000000000E+00  0.00000000000E+00  0.43645913213E+00  0.20005145353E+02  0.20000383597E+02 0.  0.
        -11    1    3    3    0    0 -0.48058564196E+00  0.99884464366E+01  0.15648183186E+00  0.10001225505E+02  0.51100000000E-03 0. -1.
         11    1    3    3    0    0  0.48058564196E+00 -0.99884464366E+01  0.27997730027E+00  0.10003919848E+02  0.51100000000E-03 0.  1.
<mgrwt>
<rscale>  0 0.20000384E+02</rscale>
<asrwt>0</asrwt>
<pdfrwt beam="2">  1        3 0.15052836E-02 0.20000384E+02</pdfrwt>
<pdfrwt beam="1">  1       -3 0.15724311E-02 0.20000384E+02</pdfrwt>
<totfact> 0.17884574E+06</totfact>
</mgrwt>
</event>
<event>
 5    1  0.4237012E-007  0.2000134E+02  0.7818608E-02  0.1745301E+00
         -3   -1    0    0    0  501 -0.00000000000E+00  0.00000000000E+00  0.42610911363E+01  0.42621058964E+01  0.93000000000E-01 0. -1.
          3   -1    0    0  501    0  0.00000000000E+00 -0.00000000000E+00 -0.23467420322E+02  0.23467604598E+02  0.93000000000E-01 0.  1.
       1023    2    1    2    0    0  0.00000000000E+00  0.00000000000E+00 -0.19206329186E+02  0.27729710495E+02  0.20001344038E+02 0.  0.
        -11    1    3    3    0    0  0.69276171179E+01  0.72122021215E+01 -0.97078550830E+01  0.13937366643E+02  0.51100000000E-03 0. -1.
         11    1    3    3    0    0 -0.69276171179E+01 -0.72122021215E+01 -0.94984741031E+01  0.13792343852E+02  0.51100000000E-03 0.  1.
<mgrwt>
<rscale>  0 0.20001344E+02</rscale>
<asrwt>0</asrwt>
<pdfrwt beam="2">  1        3 0.36104645E-02 0.20001344E+02</pdfrwt>
<pdfrwt beam="1">  1       -3 0.65564473E-03 0.20001344E+02</pdfrwt>
<totfact> 0.17398097E+06</totfact>
</mgrwt>
</event>
<event>
 4    1  0.4133473E-007  0.2001594E+02  0.7818608E-02  0.1745011E+00
          3   -1    0    0  501    0  0.00000000000E+00  0.00000000000E+00  0.74364186451E+01  0.74370001523E+01  0.93000000000E-01 0. -1.
         -3   -1    0    0    0  501 -0.00000000000E+00 -0.00000000000E+00 -0.13467514317E+02  0.13467835419E+02  0.93000000000E-01 0.  1.
        -11    1    1    2    0    0  0.32262863047E+01  0.94659967960E+01 -0.26171774194E+01  0.10337486956E+02  0.51100000000E-03 0. -1.
         11    1    1    2    0    0 -0.32262863047E+01 -0.94659967960E+01 -0.34139182525E+01  0.10567348615E+02  0.51100000000E-03 0.  1.
<mgrwt>
<rscale>  0 0.20015945E+02</rscale>
<asrwt>0</asrwt>
<pdfrwt beam="1">  1        3 0.11441338E-02 0.20015945E+02</pdfrwt>
<pdfrwt beam="2">  1       -3 0.20719947E-02 0.20015945E+02</pdfrwt>
<totfact> 0.17796230E+06</totfact>
</mgrwt>
</event>
<event>
 5    1  0.4133473E-007  0.2000068E+02  0.7818608E-02  0.1745315E+00
          3   -1    0    0  501    0  0.00000000000E+00  0.00000000000E+00  0.34431154915E+02  0.34431280513E+02  0.93000000000E-01 0. -1.
         -3   -1    0    0    0  501 -0.00000000000E+00 -0.00000000000E+00 -0.29036685140E+01  0.29051574552E+01  0.93000000000E-01 0.  1.
       1023    2    1    2    0    0  0.00000000000E+00  0.00000000000E+00  0.31527486400E+02  0.37336437968E+02  0.20000680023E+02 0.  0.
        -11    1    3    3    0    0 -0.99990568841E+01  0.15954703687E+00  0.15736933272E+02  0.18645580251E+02  0.51100000000E-03 0.  1.
         11    1    3    3    0    0  0.99990568841E+01 -0.15954703687E+00  0.15790553128E+02  0.18690857717E+02  0.51100000000E-03 0. -1.
<mgrwt>
<rscale>  0 0.20000680E+02</rscale>
<asrwt>0</asrwt>
<pdfrwt beam="1">  1        3 0.52972254E-02 0.20000680E+02</pdfrwt>
<pdfrwt beam="2">  1       -3 0.44684239E-03 0.20000680E+02</pdfrwt>
<totfact> 0.16852927E+06</totfact>
</mgrwt>
</event>
<event>
 4    1  0.4133473E-007  0.2003173E+02  0.7818608E-02  0.1744698E+00
         -3   -1    0    0    0  501 -0.00000000000E+00  0.00000000000E+00  0.56977461886E+02  0.56977537785E+02  0.93000000000E-01 0.  1.
          3   -1    0    0  501    0  0.00000000000E+00 -0.00000000000E+00 -0.17593473806E+01  0.17618036796E+01  0.93000000000E-01 0. -1.
        -11    1    1    2    0    0 -0.41512402887E+01 -0.90989196624E+01  0.26018073278E+02  0.27874060923E+02  0.51100000000E-03 0. -1.
         11    1    1    2    0    0  0.41512402887E+01  0.90989196624E+01  0.29200041227E+02  0.30865280541E+02  0.51100000000E-03 0.  1.
<mgrwt>
<rscale>  0 0.20031726E+02</rscale>
<asrwt>0</asrwt>
<pdfrwt beam="2">  1        3 0.27086367E-03 0.20031726E+02</pdfrwt>
<pdfrwt beam="1">  1       -3 0.87659564E-02 0.20031726E+02</pdfrwt>
<totfact> 0.15749137E+06</totfact>
</mgrwt>
</event>
<event>
 5    1  0.4133473E-007  0.2000304E+02  0.7818608E-02  0.1745268E+00
         -3   -1    0    0    0  501 -0.00000000000E+00  0.00000000000E+00  0.71921293509E+02  0.71921353637E+02  0.93000000000E-01 0.  1.
          3   -1    0    0  501    0  0.00000000000E+00 -0.00000000000E+00 -0.13892160679E+01  0.13923254948E+01  0.93000000000E-01 0. -1.
       1023    2    1    2    0    0  0.00000000000E+00  0.00000000000E+00  0.70532077441E+02  0.73313679132E+02  0.20003039762E+02 0.  0.
        -11    1    3    3    0    0 -0.82737620278E+01 -0.56191808156E+01  0.35296381423E+02  0.36686031033E+02  0.51100000000E-03 0.  1.
         11    1    3    3    0    0  0.82737620278E+01  0.56191808156E+01  0.35235696018E+02  0.36627648099E+02  0.51100000000E-03 0. -1.
<mgrwt>
<rscale>  0 0.20003040E+02</rscale>
<asrwt>0</asrwt>
<pdfrwt beam="2">  1        3 0.21396931E-03 0.20003040E+02</pdfrwt>
<pdfrwt beam="1">  1       -3 0.11065061E-01 0.20003040E+02</pdfrwt>
<totfact> 0.15174919E+06</totfact>
</mgrwt>
</event>
<event>
 5    1  0.4133473E-007  0.2000030E+02  0.7818608E-02  0.1745322E+00
         -3   -1    0    0    0  501 -0.00000000000E+00  0.00000000000E+00  0.43729467068E+02  0.43729565960E+02  0.93000000000E-01 0. -1.
          3   -1    0    0  501    0  0.00000000000E+00 -0.00000000000E+00 -0.22858094240E+01  0.22877005317E+01  0.93000000000E-01 0.  1.
       1023    2    1    2    0    0  0.00000000000E+00  0.00000000000E+00  0.41443657644E+02  0.46017266491E+02  0.20000301409E+02 0.  0.
        -11    1    3    3    0    0  0.68754280583E+01  0.72616067352E+01  0.20776783999E+02  0.23058126484E+02  0.51100000000E-03 0. -1.
         11    1    3    3    0    0 -0.68754280583E+01 -0.72616067352E+01  0.20666873645E+02  0.22959140007E+02  0.51100000000E-03 0.  1.
<mgrwt>
<rscale>  0 0.20000301E+02</rscale>
<asrwt>0</asrwt>
<pdfrwt beam="2">  1        3 0.35181604E-03 0.20000301E+02</pdfrwt>
<pdfrwt beam="1">  1       -3 0.67277638E-02 0.20000301E+02</pdfrwt>
<totfact> 0.16404760E+06</totfact>
</mgrwt>
</event>
<event>
 5    1  0.4231418E-007  0.2000208E+02  0.7818608E-02  0.1745287E+00
         -3   -1    0    0    0  501 -0.00000000000E+00  0.00000000000E+00  0.10062401246E+02  0.10062831005E+02  0.93000000000E-01 0. -1.
          3   -1    0    0  501    0  0.00000000000E+00 -0.00000000000E+00 -0.99391947747E+01  0.99396298608E+01  0.93000000000E-01 0.  1.
       1023    2    1    2    0    0  0.00000000000E+00  0.00000000000E+00  0.12320647172E+00  0.20002460866E+02  0.20002081413E+02 0.  0.
        -11    1    3    3    0    0 -0.95341746194E+01 -0.30192444467E+01 -0.54223123862E-02  0.10000817585E+02  0.51100000000E-03 0.  1.
         11    1    3    3    0    0  0.95341746194E+01  0.30192444467E+01  0.12862878410E+00  0.10001643281E+02  0.51100000000E-03 0. -1.
<mgrwt>
<rscale>  0 0.20002081E+02</rscale>
<asrwt>0</asrwt>
<pdfrwt beam="2">  1        3 0.15291734E-02 0.20002081E+02</pdfrwt>
<pdfrwt beam="1">  1       -3 0.15481283E-02 0.20002081E+02</pdfrwt>
<totfact> 0.17881462E+06</totfact>
</mgrwt>
</event>
<event>
 5    1  0.4241964E-007  0.2000127E+02  0.7818608E-02  0.1745303E+00
         -3   -1    0    0    0  501 -0.00000000000E+00  0.00000000000E+00  0.25390640188E+02  0.25390810506E+02  0.93000000000E-01 0.  1.
          3   -1    0    0  501    0  0.00000000000E+00 -0.00000000000E+00 -0.39382264017E+01  0.39393243318E+01  0.93000000000E-01 0. -1.
       1023    2    1    2    0    0  0.00000000000E+00  0.00000000000E+00  0.21452413787E+02  0.29330134838E+02  0.20001268769E+02 0.  0.
        -11    1    3    3    0    0 -0.58986183274E+01 -0.80757862012E+01  0.10764075871E+02  0.14692765245E+02  0.51100000000E-03 0. -1.
         11    1    3    3    0    0  0.58986183274E+01  0.80757862012E+01  0.10688337916E+02  0.14637369593E+02  0.51100000000E-03 0.  1.
<mgrwt>
<rscale>  0 0.20001269E+02</rscale>
<asrwt>0</asrwt>
<pdfrwt beam="2">  1        3 0.60597855E-03 0.20001269E+02</pdfrwt>
<pdfrwt beam="1">  1       -3 0.39063498E-02 0.20001269E+02</pdfrwt>
<totfact> 0.17304890E+06</totfact>
</mgrwt>
</event>
<event>
 5    1  0.4316114E-007  0.2000161E+02  0.7818608E-02  0.1745296E+00
         -3   -1    0    0    0  501 -0.00000000000E+00  0.00000000000E+00  0.10202395685E+02  0.10202819547E+02  0.93000000000E-01 0.  1.
          3   -1    0    0  501    0  0.00000000000E+00 -0.00000000000E+00 -0.98023453221E+01  0.98027864821E+01  0.93000000000E-01 0. -1.
       1023    2    1    2    0    0  0.00000000000E+00  0.00000000000E+00  0.40005036308E+00  0.20005606030E+02  0.20001605743E+02 0.  0.
        -11    1    3    3    0    0  0.10484691171E+01 -0.99456826617E+01  0.21293979975E+00  0.10003061267E+02  0.51100000000E-03 0.  1.
         11    1    3    3    0    0 -0.10484691171E+01  0.99456826617E+01  0.18711056333E+00  0.10002544762E+02  0.51100000000E-03 0. -1.
<mgrwt>
<rscale>  0 0.20001606E+02</rscale>
<asrwt>0</asrwt>
<pdfrwt beam="2">  1        3 0.15081197E-02 0.20001606E+02</pdfrwt>
<pdfrwt beam="1">  1       -3 0.15696659E-02 0.20001606E+02</pdfrwt>
<totfact> 0.17882187E+06</totfact>
</mgrwt>
</event>
<event>
 5    1  0.4133473E-007  0.2000037E+02  0.7818608E-02  0.1745321E+00
          3   -1    0    0  501    0  0.00000000000E+00  0.00000000000E+00  0.97660843710E+00  0.98102652330E+00  0.93000000000E-01 0. -1.
         -3   -1    0    0    0  501 -0.00000000000E+00 -0.00000000000E+00 -0.10216340693E+03  0.10216344926E+03  0.93000000000E-01 0.  1.
       1023    2    1    2    0    0  0.00000000000E+00  0.00000000000E+00 -0.10118679849E+03  0.10314447578E+03  0.20000367377E+02 0.  0.
        -11    1    3    3    0    0  0.48899524740E+00  0.99882157719E+01 -0.50645708552E+02  0.51623554368E+02  0.51100000000E-03 0. -1.
         11    1    3    3    0    0 -0.48899524740E+00 -0.99882157719E+01 -0.50541089941E+02  0.51520921414E+02  0.51100000000E-03 0.  1.
<mgrwt>
<rscale>  0 0.20000367E+02</rscale>
<asrwt>0</asrwt>
<pdfrwt beam="1">  1        3 0.15059064E-03 0.20000367E+02</pdfrwt>
<pdfrwt beam="2">  1       -3 0.15717782E-01 0.20000367E+02</pdfrwt>
<totfact> 0.14072368E+06</totfact>
</mgrwt>
</event>
<event>
 5    1  0.4133473E-007  0.2000056E+02  0.7818608E-02  0.1745317E+00
         -3   -1    0    0    0  501 -0.00000000000E+00  0.00000000000E+00  0.56893146375E+02  0.56893222386E+02  0.93000000000E-01 0. -1.
          3   -1    0    0  501    0  0.00000000000E+00 -0.00000000000E+00 -0.17564718099E+01  0.17589321246E+01  0.93000000000E-01 0.  1.
       1023    2    1    2    0    0  0.00000000000E+00  0.00000000000E+00  0.55136674565E+02  0.58652154510E+02  0.20000558658E+02 0.  0.
        -11    1    3    3    0    0 -0.15112570475E+00  0.99989304757E+01  0.27379724163E+02  0.29148769188E+02  0.51100000000E-03 0.  1.
         11    1    3    3    0    0  0.15112570475E+00 -0.99989304757E+01  0.27756950402E+02  0.29503385323E+02  0.51100000000E-03 0. -1.
<mgrwt>
<rscale>  0 0.20000559E+02</rscale>
<asrwt>0</asrwt>
<pdfrwt beam="2">  1        3 0.27042154E-03 0.20000559E+02</pdfrwt>
<pdfrwt beam="1">  1       -3 0.87529867E-02 0.20000559E+02</pdfrwt>
<totfact> 0.15805831E+06</totfact>
</mgrwt>
</event>
<event>
 5    1  0.4269924E-007  0.2000085E+02  0.7818608E-02  0.1745311E+00
          3   -1    0    0  501    0  0.00000000000E+00  0.00000000000E+00  0.96059438481E+01  0.96063940276E+01  0.93000000000E-01 0.  1.
         -3   -1    0    0    0  501 -0.00000000000E+00 -0.00000000000E+00 -0.10410207703E+02  0.10410623104E+02  0.93000000000E-01 0. -1.
       1023    2    1    2    0    0  0.00000000000E+00  0.00000000000E+00 -0.80426385468E+00  0.20017017132E+02  0.20000853344E+02 0.  0.
        -11    1    3    3    0    0  0.94169875849E+01  0.33658262796E+01 -0.41171290067E+00  0.10008893520E+02  0.51100000000E-03 0.  1.
         11    1    3    3    0    0 -0.94169875849E+01 -0.33658262796E+01 -0.39255095401E+00  0.10008123612E+02  0.51100000000E-03 0. -1.
<mgrwt>
<rscale>  0 0.20000853E+02</rscale>
<asrwt>0</asrwt>
<pdfrwt beam="1">  1        3 0.14779041E-02 0.20000853E+02</pdfrwt>
<pdfrwt beam="2">  1       -3 0.16016370E-02 0.20000853E+02</pdfrwt>
<totfact> 0.17882913E+06</totfact>
</mgrwt>
</event>
<event>
 5    1  0.4171689E-007  0.2000222E+02  0.7818608E-02  0.1745284E+00
         -3   -1    0    0    0  501 -0.00000000000E+00  0.00000000000E+00  0.51230254679E+01  0.51238695285E+01  0.93000000000E-01 0. -1.
          3   -1    0    0  501    0  0.00000000000E+00 -0.00000000000E+00 -0.19521484990E+02  0.19521706514E+02  0.93000000000E-01 0.  1.
       1023    2    1    2    0    0  0.00000000000E+00  0.00000000000E+00 -0.14398459522E+02  0.24645576042E+02  0.20002219423E+02 0.  0.
        -11    1    3    3    0    0 -0.69317087750E+01 -0.72086332552E+01 -0.70809489194E+01  0.12253685887E+02  0.51100000000E-03 0.  1.
         11    1    3    3    0    0  0.69317087750E+01  0.72086332552E+01 -0.73175106024E+01  0.12391890156E+02  0.51100000000E-03 0. -1.
<mgrwt>
<rscale>  0 0.20002219E+02</rscale>
<asrwt>0</asrwt>
<pdfrwt beam="2">  1        3 0.30033873E-02 0.20002219E+02</pdfrwt>
<pdfrwt beam="1">  1       -3 0.78823975E-03 0.20002219E+02</pdfrwt>
<totfact> 0.17584386E+06</totfact>
</mgrwt>
</event>
<event>
 5    1  0.4133473E-007  0.2000454E+02  0.7818608E-02  0.1745238E+00
          3   -1    0    0  501    0  0.00000000000E+00  0.00000000000E+00  0.65715884501E+02  0.65715950307E+02  0.93000000000E-01 0. -1.
         -3   -1    0    0    0  501 -0.00000000000E+00 -0.00000000000E+00 -0.15209064936E+01  0.15237472107E+01  0.93000000000E-01 0.  1.
       1023    2    1    2    0    0  0.00000000000E+00  0.00000000000E+00  0.64194978007E+02  0.67239697518E+02  0.20004542507E+02 0.  0.
        -11    1    3    3    0    0 -0.81544632001E+01  0.57921166367E+01  0.31965382009E+02  0.33493723777E+02  0.51100000000E-03 0. -1.
         11    1    3    3    0    0  0.81544632001E+01 -0.57921166367E+01  0.32229595998E+02  0.33745973740E+02  0.51100000000E-03 0.  1.
<mgrwt>
<rscale>  0 0.20004543E+02</rscale>
<asrwt>0</asrwt>
<pdfrwt beam="1">  1        3 0.10110361E-01 0.20004543E+02</pdfrwt>
<pdfrwt beam="2">  1       -3 0.23420915E-03 0.20004543E+02</pdfrwt>
<totfact> 0.15421320E+06</totfact>
</mgrwt>
</event>
<event>
 5    1  0.4133473E-007  0.2000031E+02  0.7818608E-02  0.1745322E+00
          3   -1    0    0  501    0  0.00000000000E+00  0.00000000000E+00  0.38603533198E+02  0.38603645222E+02  0.93000000000E-01 0.  1.
         -3   -1    0    0    0  501 -0.00000000000E+00 -0.00000000000E+00 -0.25895673552E+01  0.25912367872E+01  0.93000000000E-01 0. -1.
       1023    2    1    2    0    0  0.00000000000E+00  0.00000000000E+00  0.36013965843E+02  0.41194882009E+02  0.20000314197E+02 0.  0.
        -11    1    3    3    0    0 -0.78654796346E+01 -0.61755453151E+01  0.17999875078E+02  0.20591227086E+02  0.51100000000E-03 0. -1.
         11    1    3    3    0    0  0.78654796346E+01  0.61755453151E+01  0.18014090765E+02  0.20603654923E+02  0.51100000000E-03 0.  1.
<mgrwt>
<rscale>  0 0.20000314E+02</rscale>
<asrwt>0</asrwt>
<pdfrwt beam="1">  1        3 0.59391416E-02 0.20000314E+02</pdfrwt>
<pdfrwt beam="2">  1       -3 0.39853205E-03 0.20000314E+02</pdfrwt>
<totfact> 0.16648602E+06</totfact>
</mgrwt>
</event>
<event>
 5    1  0.4133473E-007  0.2000028E+02  0.7818608E-02  0.1745323E+00
         -3   -1    0    0    0  501 -0.00000000000E+00  0.00000000000E+00  0.11888075259E+01  0.11924396562E+01  0.93000000000E-01 0. -1.
          3   -1    0    0  501    0  0.00000000000E+00 -0.00000000000E+00 -0.83988297401E+02  0.83988348890E+02  0.93000000000E-01 0.  1.
       1023    2    1    2    0    0  0.00000000000E+00  0.00000000000E+00 -0.82799489875E+02  0.85180788546E+02  0.20000280343E+02 0.  0.
        -11    1    3    3    0    0  0.25157575367E+01 -0.96783924006E+01 -0.41187318338E+02  0.42383906233E+02  0.51100000000E-03 0.  1.
         11    1    3    3    0    0 -0.25157575367E+01  0.96783924006E+01 -0.41612171537E+02  0.42796882313E+02  0.51100000000E-03 0. -1.
<mgrwt>
<rscale>  0 0.20000280E+02</rscale>
<asrwt>0</asrwt>
<pdfrwt beam="2">  1        3 0.12921555E-01 0.20000280E+02</pdfrwt>
<pdfrwt beam="1">  1       -3 0.18317689E-03 0.20000280E+02</pdfrwt>
<totfact> 0.14712827E+06</totfact>
</mgrwt>
</event>
<event>
 5    1  0.4150756E-007  0.2000068E+02  0.7818608E-02  0.1745314E+00
         -3   -1    0    0    0  501 -0.00000000000E+00  0.00000000000E+00  0.18919424675E+02  0.18919653248E+02  0.93000000000E-01 0.  1.
          3   -1    0    0  501    0  0.00000000000E+00 -0.00000000000E+00 -0.52852648086E+01  0.52860829635E+01  0.93000000000E-01 0. -1.
       1023    2    1    2    0    0  0.00000000000E+00  0.00000000000E+00  0.13634159866E+02  0.24205736211E+02  0.20000683745E+02 0.  0.
        -11    1    3    3    0    0 -0.85079354561E+00 -0.99638544094E+01  0.67350599306E+01  0.12056669394E+02  0.51100000000E-03 0.  1.
         11    1    3    3    0    0  0.85079354561E+00  0.99638544094E+01  0.68990999355E+01  0.12149066817E+02  0.51100000000E-03 0. -1.
<mgrwt>
<rscale>  0 0.20000684E+02</rscale>
<asrwt>0</asrwt>
<pdfrwt beam="2">  1        3 0.81319818E-03 0.20000684E+02</pdfrwt>
<pdfrwt beam="1">  1       -3 0.29107612E-02 0.20000684E+02</pdfrwt>
<totfact> 0.17615826E+06</totfact>
</mgrwt>
</event>
<event>
 5    1  0.4133473E-007  0.2000024E+02  0.7818608E-02  0.1745323E+00
          3   -1    0    0  501    0  0.00000000000E+00  0.00000000000E+00  0.35684461830E+01  0.35696578493E+01  0.93000000000E-01 0. -1.
         -3   -1    0    0    0  501 -0.00000000000E+00 -0.00000000000E+00 -0.28018017051E+02  0.28018171398E+02  0.93000000000E-01 0.  1.
       1023    2    1    2    0    0  0.00000000000E+00  0.00000000000E+00 -0.24449570869E+02  0.31587829247E+02  0.20000236021E+02 0.  0.
        -11    1    3    3    0    0 -0.96604501504E+01 -0.25841873513E+01 -0.12234596886E+02  0.15801508871E+02  0.51100000000E-03 0.  1.
         11    1    3    3    0    0  0.96604501504E+01  0.25841873513E+01 -0.12214973982E+02  0.15786320376E+02  0.51100000000E-03 0. -1.
<mgrwt>
<rscale>  0 0.20000236E+02</rscale>
<asrwt>0</asrwt>
<pdfrwt beam="1">  1        3 0.54909682E-03 0.20000236E+02</pdfrwt>
<pdfrwt beam="2">  1       -3 0.43105691E-02 0.20000236E+02</pdfrwt>
<totfact> 0.17175870E+06</totfact>
</mgrwt>
</event>
<event>
 5    1  0.4133473E-007  0.2000388E+02  0.7818608E-02  0.1745251E+00
          3   -1    0    0  501    0  0.00000000000E+00  0.00000000000E+00  0.11741245652E+01  0.11778019760E+01  0.93000000000E-01 0. -1.
         -3   -1    0    0    0  501 -0.00000000000E+00 -0.00000000000E+00 -0.85065979458E+02  0.85066030295E+02  0.93000000000E-01 0.  1.
       1023    2    1    2    0    0  0.00000000000E+00  0.00000000000E+00 -0.83891854893E+02  0.86243832271E+02  0.20003881809E+02 0.  0.
        -11    1    3    3    0    0 -0.33790877368E+01  0.94132260849E+01 -0.42413512491E+02  0.43576749550E+02  0.51100000000E-03 0. -1.
         11    1    3    3    0    0  0.33790877368E+01 -0.94132260849E+01 -0.41478342402E+02  0.42667082721E+02  0.51100000000E-03 0.  1.
<mgrwt>
<rscale>  0 0.20003882E+02</rscale>
<asrwt>0</asrwt>
<pdfrwt beam="1">  1        3 0.18092140E-03 0.20003882E+02</pdfrwt>
<pdfrwt beam="2">  1       -3 0.13087356E-01 0.20003882E+02</pdfrwt>
<totfact> 0.14670106E+06</totfact>
</mgrwt>
</event>
<event>
 5    1  0.4232526E-007  0.2000135E+02  0.7818608E-02  0.1745301E+00
         -3   -1    0    0    0  501 -0.00000000000E+00  0.00000000000E+00  0.39035099477E+02  0.39035210262E+02  0.93000000000E-01 0.  1.
          3   -1    0    0  501    0  0.00000000000E+00 -0.00000000000E+00 -0.25611832891E+01  0.25628712103E+01  0.93000000000E-01 0. -1.
       1023    2    1    2    0    0  0.00000000000E+00  0.00000000000E+00  0.36473916188E+02  0.41598081472E+02  0.20001345457E+02 0.  0.
        -11    1    3    3    0    0  0.82741012389E+01 -0.56171507537E+01  0.18199704421E+02  0.20766376072E+02  0.51100000000E-03 0.  1.
         11    1    3    3    0    0 -0.82741012389E+01  0.56171507537E+01  0.18274211767E+02  0.20831705400E+02  0.51100000000E-03 0. -1.
<mgrwt>
<rscale>  0 0.20001345E+02</rscale>
<asrwt>0</asrwt>
<pdfrwt beam="2">  1        3 0.39416662E-03 0.20001345E+02</pdfrwt>
<pdfrwt beam="1">  1       -3 0.60055373E-02 0.20001345E+02</pdfrwt>
<totfact> 0.16628079E+06</totfact>
</mgrwt>
</event>
<event>
 5    1  0.4133473E-007  0.2000010E+02  0.7818608E-02  0.1745326E+00
          3   -1    0    0  501    0  0.00000000000E+00  0.00000000000E+00  0.10496485154E+03  0.10496489274E+03  0.93000000000E-01 0. -1.
         -3   -1    0    0    0  501 -0.00000000000E+00 -0.00000000000E+00 -0.95039788384E+00  0.95493724276E+00  0.93000000000E-01 0.  1.
       1023    2    1    2    0    0  0.00000000000E+00  0.00000000000E+00  0.10401445366E+03  0.10591982999E+03  0.20000095352E+02 0.  0.
        -11    1    3    3    0    0 -0.39280921131E+01 -0.91962484110E+01  0.51965939714E+02  0.52919370585E+02  0.51100000000E-03 0. -1.
         11    1    3    3    0    0  0.39280921131E+01  0.91962484110E+01  0.52048513945E+02  0.53000459400E+02  0.51100000000E-03 0.  1.
<mgrwt>
<rscale>  0 0.20000095E+02</rscale>
<asrwt>0</asrwt>
<pdfrwt beam="1">  1        3 0.16148802E-01 0.20000095E+02</pdfrwt>
<pdfrwt beam="2">  1       -3 0.14656731E-03 0.20000095E+02</pdfrwt>
<totfact> 0.13976212E+06</totfact>
</mgrwt>
</event>
<event>
 5    1  0.4232090E-007  0.2000107E+02  0.7818608E-02  0.1745307E+00
         -3   -1    0    0    0  501 -0.00000000000E+00  0.00000000000E+00  0.34299529252E+02  0.34299655332E+02  0.93000000000E-01 0. -1.
          3   -1    0    0  501    0  0.00000000000E+00 -0.00000000000E+00 -0.29149306476E+01  0.29164138390E+01  0.93000000000E-01 0.  1.
       1023    2    1    2    0    0  0.00000000000E+00  0.00000000000E+00  0.31384598604E+02  0.37216069171E+02  0.20001069346E+02 0.  0.
        -11    1    3    3    0    0 -0.16048313070E+01 -0.98704039377E+01  0.15503128132E+02  0.18448505076E+02  0.51100000000E-03 0.  1.
         11    1    3    3    0    0  0.16048313070E+01  0.98704039377E+01  0.15881470472E+02  0.18767564094E+02  0.51100000000E-03 0. -1.
<mgrwt>
<rscale>  0 0.20001069E+02</rscale>
<asrwt>0</asrwt>
<pdfrwt beam="2">  1        3 0.44857463E-03 0.20001069E+02</pdfrwt>
<pdfrwt beam="1">  1       -3 0.52769747E-02 0.20001069E+02</pdfrwt>
<totfact> 0.16860854E+06</totfact>
</mgrwt>
</event>
<event>
 5    1  0.4133473E-007  0.2000123E+02  0.7818608E-02  0.1745304E+00
          3   -1    0    0  501    0  0.00000000000E+00  0.00000000000E+00  0.18480419079E+01  0.18503804726E+01  0.93000000000E-01 0. -1.
         -3   -1    0    0    0  501 -0.00000000000E+00 -0.00000000000E+00 -0.54081369279E+02  0.54081449242E+02  0.93000000000E-01 0.  1.
       1023    2    1    2    0    0  0.00000000000E+00  0.00000000000E+00 -0.52233327372E+02  0.55931829715E+02  0.20001227136E+02 0.  0.
        -11    1    3    3    0    0 -0.99997488942E+01  0.74039971992E-01 -0.26420582042E+02  0.28249736557E+02  0.51100000000E-03 0.  1.
         11    1    3    3    0    0  0.99997488942E+01 -0.74039971992E-01 -0.25812745330E+02  0.27682093158E+02  0.51100000000E-03 0. -1.
<mgrwt>
<rscale>  0 0.20001227E+02</rscale>
<asrwt>0</asrwt>
<pdfrwt beam="1">  1        3 0.28450022E-03 0.20001227E+02</pdfrwt>
<pdfrwt beam="2">  1       -3 0.83203955E-02 0.20001227E+02</pdfrwt>
<totfact> 0.15928377E+06</totfact>
</mgrwt>
</event>
<event>
 5    1  0.4133473E-007  0.2000008E+02  0.7818608E-02  0.1745326E+00
         -3   -1    0    0    0  501 -0.00000000000E+00  0.00000000000E+00  0.30890860375E+01  0.30904856491E+01  0.93000000000E-01 0.  1.
          3   -1    0    0  501    0  0.00000000000E+00 -0.00000000000E+00 -0.32363499878E+02  0.32363633500E+02  0.93000000000E-01 0. -1.
       1023    2    1    2    0    0  0.00000000000E+00  0.00000000000E+00 -0.29274413840E+02  0.35454119150E+02  0.20000081474E+02 0.  0.
        -11    1    3    3    0    0 -0.53839744614E+01  0.84269571816E+01 -0.14628143665E+02  0.17719576058E+02  0.51100000000E-03 0. -1.
         11    1    3    3    0    0  0.53839744614E+01 -0.84269571816E+01 -0.14646270176E+02  0.17734543091E+02  0.51100000000E-03 0.  1.
<mgrwt>
<rscale>  0 0.20000081E+02</rscale>
<asrwt>0</asrwt>
<pdfrwt beam="2">  1        3 0.49791177E-02 0.20000081E+02</pdfrwt>
<pdfrwt beam="1">  1       -3 0.47536197E-03 0.20000081E+02</pdfrwt>
<totfact> 0.16956809E+06</totfact>
</mgrwt>
</event>
<event>
 5    1  0.4356664E-007  0.2000175E+02  0.7818608E-02  0.1745293E+00
         -3   -1    0    0    0  501 -0.00000000000E+00  0.00000000000E+00  0.16909449627E+02  0.16909705370E+02  0.93000000000E-01 0. -1.
          3   -1    0    0  501    0  0.00000000000E+00 -0.00000000000E+00 -0.59142226973E+01  0.59149538556E+01  0.93000000000E-01 0.  1.
       1023    2    1    2    0    0  0.00000000000E+00  0.00000000000E+00  0.10995226930E+02  0.22824659225E+02  0.20001751261E+02 0.  0.
        -11    1    3    3    0    0 -0.30687284281E+01 -0.95177385095E+01  0.56280855264E+01  0.11475181369E+02  0.51100000000E-03 0.  1.
         11    1    3    3    0    0  0.30687284281E+01  0.95177385095E+01  0.53671414034E+01  0.11349477856E+02  0.51100000000E-03 0. -1.
<mgrwt>
<rscale>  0 0.20001751E+02</rscale>
<asrwt>0</asrwt>
<pdfrwt beam="2">  1        3 0.90995634E-03 0.20001751E+02</pdfrwt>
<pdfrwt beam="1">  1       -3 0.26015297E-02 0.20001751E+02</pdfrwt>
<totfact> 0.17700419E+06</totfact>
</mgrwt>
</event>
<event>
 4    1  0.4133473E-007  0.2014290E+02  0.7818608E-02  0.1742501E+00
          3   -1    0    0  501    0  0.00000000000E+00  0.00000000000E+00  0.47063610884E+02  0.47063702770E+02  0.93000000000E-01 0. -1.
         -3   -1    0    0    0  501 -0.00000000000E+00 -0.00000000000E+00 -0.21541577412E+01  0.21561643198E+01  0.93000000000E-01 0.  1.
        -11    1    1    2    0    0 -0.58193660937E+01  0.82174848922E+01  0.22955524471E+02  0.25066874231E+02  0.51100000000E-03 0. -1.
         11    1    1    2    0    0  0.58193660937E+01 -0.82174848922E+01  0.21953928671E+02  0.24152992859E+02  0.51100000000E-03 0.  1.
<mgrwt>
<rscale>  0 0.20142898E+02</rscale>
<asrwt>0</asrwt>
<pdfrwt beam="1">  1        3 0.72407159E-02 0.20142898E+02</pdfrwt>
<pdfrwt beam="2">  1       -3 0.33157035E-03 0.20142898E+02</pdfrwt>
<totfact> 0.15998227E+06</totfact>
</mgrwt>
</event>
<event>
 5    1  0.4133473E-007  0.2000030E+02  0.7818608E-02  0.1745322E+00
         -3   -1    0    0    0  501 -0.00000000000E+00  0.00000000000E+00  0.68802112574E+02  0.68802175428E+02  0.93000000000E-01 0. -1.
          3   -1    0    0  501    0  0.00000000000E+00 -0.00000000000E+00 -0.14519359456E+01  0.14549113342E+01  0.93000000000E-01 0.  1.
       1023    2    1    2    0    0  0.00000000000E+00  0.00000000000E+00  0.67350176628E+02  0.70257086762E+02  0.20000298709E+02 0.  0.
        -11    1    3    3    0    0 -0.85892057669E+01 -0.51212495690E+01  0.33803389702E+02  0.35251536256E+02  0.51100000000E-03 0. -1.
         11    1    3    3    0    0  0.85892057669E+01  0.51212495690E+01  0.33546786927E+02  0.35005550506E+02  0.51100000000E-03 0.  1.
<mgrwt>
<rscale>  0 0.20000299E+02</rscale>
<asrwt>0</asrwt>
<pdfrwt beam="2">  1        3 0.22360851E-03 0.20000299E+02</pdfrwt>
<pdfrwt beam="1">  1       -3 0.10585172E-01 0.20000299E+02</pdfrwt>
<totfact> 0.15304786E+06</totfact>
</mgrwt>
</event>
<event>
 5    1  0.4133473E-007  0.2000177E+02  0.7818608E-02  0.1745293E+00
         -3   -1    0    0    0  501 -0.00000000000E+00  0.00000000000E+00  0.80387095720E+02  0.80387149516E+02  0.93000000000E-01 0. -1.
          3   -1    0    0  501    0  0.00000000000E+00 -0.00000000000E+00 -0.12424084020E+01  0.12458842793E+01  0.93000000000E-01 0.  1.
       1023    2    1    2    0    0  0.00000000000E+00  0.00000000000E+00  0.79144687318E+02  0.81633033795E+02  0.20001766821E+02 0.  0.
        -11    1    3    3    0    0 -0.19840796772E+01  0.98020950806E+01  0.39594167080E+02  0.40837675095E+02  0.51100000000E-03 0.  1.
         11    1    3    3    0    0  0.19840796772E+01 -0.98020950806E+01  0.39550520238E+02  0.40795358701E+02  0.51100000000E-03 0. -1.
<mgrwt>
<rscale>  0 0.20001767E+02</rscale>
<asrwt>0</asrwt>
<pdfrwt beam="2">  1        3 0.19141119E-03 0.20001767E+02</pdfrwt>
<pdfrwt beam="1">  1       -3 0.12367522E-01 0.20001767E+02</pdfrwt>
<totfact> 0.14848365E+06</totfact>
</mgrwt>
</event>
<event>
 5    1  0.4133473E-007  0.2000034E+02  0.7818608E-02  0.1745321E+00
          3   -1    0    0  501    0  0.00000000000E+00  0.00000000000E+00  0.36998746773E+01  0.37010433161E+01  0.93000000000E-01 0.  1.
         -3   -1    0    0    0  501 -0.00000000000E+00 -0.00000000000E+00 -0.27023352711E+02  0.27023512739E+02  0.93000000000E-01 0. -1.
       1023    2    1    2    0    0  0.00000000000E+00  0.00000000000E+00 -0.23323478034E+02  0.30724556055E+02  0.20000342927E+02 0.  0.
        -11    1    3    3    0    0 -0.16984262501E+01  0.98548793199E+01 -0.11644163258E+02  0.15348936002E+02  0.51100000000E-03 0. -1.
         11    1    3    3    0    0  0.16984262501E+01 -0.98548793199E+01 -0.11679314776E+02  0.15375620054E+02  0.51100000000E-03 0.  1.
<mgrwt>
<rscale>  0 0.20000343E+02</rscale>
<asrwt>0</asrwt>
<pdfrwt beam="1">  1        3 0.56931371E-03 0.20000343E+02</pdfrwt>
<pdfrwt beam="2">  1       -3 0.41575410E-02 0.20000343E+02</pdfrwt>
<totfact> 0.17225392E+06</totfact>
</mgrwt>
</event>
<event>
 5    1  0.4133473E-007  0.2000475E+02  0.7818608E-02  0.1745234E+00
          3   -1    0    0  501    0  0.00000000000E+00  0.00000000000E+00  0.31537127060E+01  0.31550836490E+01  0.93000000000E-01 0. -1.
         -3   -1    0    0    0  501 -0.00000000000E+00 -0.00000000000E+00 -0.31715382814E+02  0.31715519167E+02  0.93000000000E-01 0.  1.
       1023    2    1    2    0    0  0.00000000000E+00  0.00000000000E+00 -0.28561670108E+02  0.34870602816E+02  0.20004747971E+02 0.  0.
        -11    1    3    3    0    0  0.35456901475E+01  0.93527035112E+01 -0.14368051818E+02  0.17506738557E+02  0.51100000000E-03 0. -1.
         11    1    3    3    0    0 -0.35456901475E+01 -0.93527035112E+01 -0.14193618290E+02  0.17363864260E+02  0.51100000000E-03 0.  1.
<mgrwt>
<rscale>  0 0.20004748E+02</rscale>
<asrwt>0</asrwt>
<pdfrwt beam="1">  1        3 0.48530254E-03 0.20004748E+02</pdfrwt>
<pdfrwt beam="2">  1       -3 0.48794054E-02 0.20004748E+02</pdfrwt>
<totfact> 0.16982539E+06</totfact>
</mgrwt>
</event>
<event>
 5    1  0.4133473E-007  0.2000151E+02  0.7818608E-02  0.1745298E+00
         -3   -1    0    0    0  501 -0.00000000000E+00  0.00000000000E+00  0.45794066632E+02  0.45794161066E+02  0.93000000000E-01 0.  1.
          3   -1    0    0  501    0  0.00000000000E+00 -0.00000000000E+00 -0.21829324423E+01  0.21849125950E+01  0.93000000000E-01 0. -1.
       1023    2    1    2    0    0  0.00000000000E+00  0.00000000000E+00  0.43611134190E+02  0.47979073661E+02  0.20001512043E+02 0.  0.
        -11    1    3    3    0    0 -0.61131937191E+01 -0.79147088236E+01  0.21716860052E+02  0.23908905537E+02  0.51100000000E-03 0.  1.
         11    1    3    3    0    0  0.61131937191E+01  0.79147088236E+01  0.21894274138E+02  0.24070168124E+02  0.51100000000E-03 0. -1.
<mgrwt>
<rscale>  0 0.20001512E+02</rscale>
<asrwt>0</asrwt>
<pdfrwt beam="2">  1        3 0.33599537E-03 0.20001512E+02</pdfrwt>
<pdfrwt beam="1">  1       -3 0.70454001E-02 0.20001512E+02</pdfrwt>
<totfact> 0.16305475E+06</totfact>
</mgrwt>
</event>
<event>
 5    1  0.4133473E-007  0.2000035E+02  0.7818608E-02  0.1745321E+00
          3   -1    0    0  501    0  0.00000000000E+00  0.00000000000E+00  0.38401156002E+02  0.38401268616E+02  0.93000000000E-01 0.  1.
         -3   -1    0    0    0  501 -0.00000000000E+00 -0.00000000000E+00 -0.26032315582E+01  0.26048922330E+01  0.93000000000E-01 0. -1.
       1023    2    1    2    0    0  0.00000000000E+00  0.00000000000E+00  0.35797924444E+02  0.41006160849E+02  0.20000345824E+02 0.  0.
        -11    1    3    3    0    0 -0.74253544231E+01  0.66981796605E+01  0.17808217488E+02  0.20423861276E+02  0.51100000000E-03 0. -1.
         11    1    3    3    0    0  0.74253544231E+01 -0.66981796605E+01  0.17989706957E+02  0.20582299573E+02  0.51100000000E-03 0.  1.
<mgrwt>
<rscale>  0 0.20000346E+02</rscale>
<asrwt>0</asrwt>
<pdfrwt beam="1">  1        3 0.59080056E-02 0.20000346E+02</pdfrwt>
<pdfrwt beam="2">  1       -3 0.40063363E-03 0.20000346E+02</pdfrwt>
<totfact> 0.16658393E+06</totfact>
</mgrwt>
</event>
<event>
 5    1  0.4133473E-007  0.2000073E+02  0.7818608E-02  0.1745314E+00
         -3   -1    0    0    0  501 -0.00000000000E+00  0.00000000000E+00  0.14751500086E+01  0.14780786677E+01  0.93000000000E-01 0.  1.
          3   -1    0    0  501    0  0.00000000000E+00 -0.00000000000E+00 -0.67724460785E+02  0.67724524639E+02  0.93000000000E-01 0. -1.
       1023    2    1    2    0    0  0.00000000000E+00  0.00000000000E+00 -0.66249310776E+02  0.69202603307E+02  0.20000728140E+02 0.  0.
        -11    1    3    3    0    0  0.45730614508E+00 -0.99899006595E+01 -0.33145750292E+02  0.34621496311E+02  0.51100000000E-03 0.  1.
         11    1    3    3    0    0 -0.45730614508E+00  0.99899006595E+01 -0.33103560484E+02  0.34581106996E+02  0.51100000000E-03 0. -1.
<mgrwt>
<rscale>  0 0.20000728E+02</rscale>
<asrwt>0</asrwt>
<pdfrwt beam="2">  1        3 0.10419376E-01 0.20000728E+02</pdfrwt>
<pdfrwt beam="1">  1       -3 0.22717640E-03 0.20000728E+02</pdfrwt>
<totfact> 0.15345086E+06</totfact>
</mgrwt>
</event>
<event>
 5    1  0.4133473E-007  0.2000046E+02  0.7818608E-02  0.1745319E+00
          3   -1    0    0  501    0  0.00000000000E+00  0.00000000000E+00  0.91651486267E+00  0.92122119683E+00  0.93000000000E-01 0.  1.
         -3   -1    0    0    0  501 -0.00000000000E+00 -0.00000000000E+00 -0.10882981541E+03  0.10882985514E+03  0.93000000000E-01 0. -1.
       1023    2    1    2    0    0  0.00000000000E+00  0.00000000000E+00 -0.10791330054E+03  0.10975107634E+03  0.20000458081E+02 0.  0.
        -11    1    3    3    0    0  0.75332851738E+01  0.65764456596E+01 -0.53586194786E+02  0.54511285941E+02  0.51100000000E-03 0. -1.
         11    1    3    3    0    0 -0.75332851738E+01 -0.65764456596E+01 -0.54327105758E+02  0.55239790399E+02  0.51100000000E-03 0.  1.
<mgrwt>
<rscale>  0 0.20000458E+02</rscale>
<asrwt>0</asrwt>
<pdfrwt beam="1">  1        3 0.14136746E-03 0.20000458E+02</pdfrwt>
<pdfrwt beam="2">  1       -3 0.16743403E-01 0.20000458E+02</pdfrwt>
<totfact> 0.13851231E+06</totfact>
</mgrwt>
</event>
<event>
 5    1  0.4133473E-007  0.2000236E+02  0.7818608E-02  0.1745281E+00
          3   -1    0    0  501    0  0.00000000000E+00  0.00000000000E+00  0.42556445428E+02  0.42556547046E+02  0.93000000000E-01 0. -1.
         -3   -1    0    0    0  501 -0.00000000000E+00 -0.00000000000E+00 -0.23493494297E+01  0.23511894315E+01  0.93000000000E-01 0.  1.
       1023    2    1    2    0    0  0.00000000000E+00  0.00000000000E+00  0.40207095998E+02  0.44907736477E+02  0.20002355534E+02 0.  0.
        -11    1    3    3    0    0 -0.16128455785E+01  0.98692931749E+01  0.20415755905E+02  0.22733396316E+02  0.51100000000E-03 0.  1.
         11    1    3    3    0    0  0.16128455785E+01 -0.98692931749E+01  0.19791340093E+02  0.22174340161E+02  0.51100000000E-03 0. -1.
<mgrwt>
<rscale>  0 0.20002356E+02</rscale>
<asrwt>0</asrwt>
<pdfrwt beam="1">  1        3 0.65472941E-02 0.20002356E+02</pdfrwt>
<pdfrwt beam="2">  1       -3 0.36158777E-03 0.20002356E+02</pdfrwt>
<totfact> 0.16454421E+06</totfact>
</mgrwt>
</event>
<event>
 5    1  0.4133473E-007  0.2000626E+02  0.7818608E-02  0.1745204E+00
         -3   -1    0    0    0  501 -0.00000000000E+00  0.00000000000E+00  0.46979357955E+02  0.46979450006E+02  0.93000000000E-01 0. -1.
          3   -1    0    0  501    0  0.00000000000E+00 -0.00000000000E+00 -0.21288185973E+01  0.21308490374E+01  0.93000000000E-01 0.  1.
       1023    2    1    2    0    0  0.00000000000E+00  0.00000000000E+00  0.44850539358E+02  0.49110299044E+02  0.20006263806E+02 0.  0.
        -11    1    3    3    0    0  0.26863685117E+01 -0.96334000394E+01  0.22938279350E+02  0.25023661440E+02  0.51100000000E-03 0. -1.
         11    1    3    3    0    0 -0.26863685117E+01  0.96334000394E+01  0.21912260008E+02  0.24086637603E+02  0.51100000000E-03 0.  1.
<mgrwt>
<rscale>  0 0.20006264E+02</rscale>
<asrwt>0</asrwt>
<pdfrwt beam="2">  1        3 0.32767384E-03 0.20006264E+02</pdfrwt>
<pdfrwt beam="1">  1       -3 0.72277564E-02 0.20006264E+02</pdfrwt>
<totfact> 0.16241920E+06</totfact>
</mgrwt>
</event>
<event>
 5    1  0.4215436E-007  0.2000121E+02  0.7818608E-02  0.1745304E+00
         -3   -1    0    0    0  501 -0.00000000000E+00  0.00000000000E+00  0.12891107058E+02  0.12891442518E+02  0.93000000000E-01 0.  1.
          3   -1    0    0  501    0  0.00000000000E+00 -0.00000000000E+00 -0.77575081722E+01  0.77580656121E+01  0.93000000000E-01 0. -1.
       1023    2    1    2    0    0  0.00000000000E+00  0.00000000000E+00  0.51335988862E+01  0.20649508130E+02  0.20001208676E+02 0.  0.
        -11    1    3    3    0    0  0.97412676580E+01 -0.22626629569E+01  0.25542557457E+01  0.10321635622E+02  0.51100000000E-03 0.  1.
         11    1    3    3    0    0 -0.97412676580E+01  0.22626629569E+01  0.25793431405E+01  0.10327872508E+02  0.51100000000E-03 0. -1.
<mgrwt>
<rscale>  0 0.20001209E+02</rscale>
<asrwt>0</asrwt>
<pdfrwt beam="2">  1        3 0.11935315E-02 0.20001209E+02</pdfrwt>
<pdfrwt beam="1">  1       -3 0.19833159E-02 0.20001209E+02</pdfrwt>
<totfact> 0.17841099E+06</totfact>
</mgrwt>
</event>
<event>
 5    1  0.4133473E-007  0.2000016E+02  0.7818608E-02  0.1745325E+00
         -3   -1    0    0    0  501 -0.00000000000E+00  0.00000000000E+00  0.20646289104E+01  0.20667224143E+01  0.93000000000E-01 0. -1.
          3   -1    0    0  501    0  0.00000000000E+00 -0.00000000000E+00 -0.48408935416E+02  0.48409024749E+02  0.93000000000E-01 0.  1.
       1023    2    1    2    0    0  0.00000000000E+00  0.00000000000E+00 -0.46344306506E+02  0.50475747163E+02  0.20000157654E+02 0.  0.
        -11    1    3    3    0    0 -0.57420945309E+00  0.99835123674E+01 -0.23079747677E+02  0.25153031404E+02  0.51100000000E-03 0. -1.
         11    1    3    3    0    0  0.57420945309E+00 -0.99835123674E+01 -0.23264558828E+02  0.25322715759E+02  0.51100000000E-03 0.  1.
<mgrwt>
<rscale>  0 0.20000158E+02</rscale>
<asrwt>0</asrwt>
<pdfrwt beam="2">  1        3 0.74476956E-02 0.20000158E+02</pdfrwt>
<pdfrwt beam="1">  1       -3 0.31780316E-03 0.20000158E+02</pdfrwt>
<totfact> 0.16183996E+06</totfact>
</mgrwt>
</event>
<event>
 5    1  0.4133473E-007  0.2000027E+02  0.7818608E-02  0.1745323E+00
          3   -1    0    0  501    0  0.00000000000E+00  0.00000000000E+00  0.26383623832E+01  0.26400009593E+01  0.93000000000E-01 0. -1.
         -3   -1    0    0    0  501 -0.00000000000E+00 -0.00000000000E+00 -0.37889876126E+02  0.37889990259E+02  0.93000000000E-01 0.  1.
       1023    2    1    2    0    0  0.00000000000E+00  0.00000000000E+00 -0.35251513743E+02  0.40529991219E+02  0.20000274173E+02 0.  0.
        -11    1    3    3    0    0  0.96125829309E+01  0.27566243947E+01 -0.17534839965E+02  0.20185919388E+02  0.51100000000E-03 0. -1.
         11    1    3    3    0    0 -0.96125829309E+01 -0.27566243947E+01 -0.17716673778E+02  0.20344071831E+02  0.51100000000E-03 0.  1.
<mgrwt>
<rscale>  0 0.20000274E+02</rscale>
<asrwt>0</asrwt>
<pdfrwt beam="1">  1        3 0.40603676E-03 0.20000274E+02</pdfrwt>
<pdfrwt beam="2">  1       -3 0.58293461E-02 0.20000274E+02</pdfrwt>
<totfact> 0.16685706E+06</totfact>
</mgrwt>
</event>
<event>
 5    1  0.4133473E-007  0.2000049E+02  0.7818608E-02  0.1745318E+00
          3   -1    0    0  501    0  0.00000000000E+00  0.00000000000E+00  0.37300881205E+01  0.37312472964E+01  0.93000000000E-01 0. -1.
         -3   -1    0    0    0  501 -0.00000000000E+00 -0.00000000000E+00 -0.26804917691E+02  0.26805079023E+02  0.93000000000E-01 0.  1.
       1023    2    1    2    0    0  0.00000000000E+00  0.00000000000E+00 -0.23074829570E+02  0.30536326319E+02  0.20000486628E+02 0.  0.
        -11    1    3    3    0    0  0.25590649383E+01 -0.96671418235E+01 -0.11612548568E+02  0.15324938137E+02  0.51100000000E-03 0.  1.
         11    1    3    3    0    0 -0.25590649383E+01  0.96671418235E+01 -0.11462281002E+02  0.15211388182E+02  0.51100000000E-03 0. -1.
<mgrwt>
<rscale>  0 0.20000487E+02</rscale>
<asrwt>0</asrwt>
<pdfrwt beam="1">  1        3 0.57396130E-03 0.20000487E+02</pdfrwt>
<pdfrwt beam="2">  1       -3 0.41239349E-02 0.20000487E+02</pdfrwt>
<totfact> 0.17236015E+06</totfact>
</mgrwt>
</event>
<event>
 5    1  0.4186640E-007  0.2000120E+02  0.7818608E-02  0.1745304E+00
          3   -1    0    0  501    0  0.00000000000E+00  0.00000000000E+00  0.55512486637E+01  0.55520276230E+01  0.93000000000E-01 0.  1.
         -3   -1    0    0    0  501 -0.00000000000E+00 -0.00000000000E+00 -0.18013968317E+02  0.18014208379E+02  0.93000000000E-01 0. -1.
       1023    2    1    2    0    0  0.00000000000E+00  0.00000000000E+00 -0.12462719653E+02  0.23566236002E+02  0.20001202418E+02 0.  0.
        -11    1    3    3    0    0 -0.80727726406E+01 -0.59026289621E+01 -0.61882692987E+01  0.11760330095E+02  0.51100000000E-03 0. -1.
         11    1    3    3    0    0  0.80727726406E+01  0.59026289621E+01 -0.62744503547E+01  0.11805905907E+02  0.51100000000E-03 0.  1.
<mgrwt>
<rscale>  0 0.20001202E+02</rscale>
<asrwt>0</asrwt>
<pdfrwt beam="1">  1        3 0.85411665E-03 0.20001202E+02</pdfrwt>
<pdfrwt beam="2">  1       -3 0.27714581E-02 0.20001202E+02</pdfrwt>
<totfact> 0.17654752E+06</totfact>
</mgrwt>
</event>
<event>
 5    1  0.4133473E-007  0.2000368E+02  0.7818608E-02  0.1745255E+00
         -3   -1    0    0    0  501 -0.00000000000E+00  0.00000000000E+00  0.16644655376E+02  0.16644915187E+02  0.93000000000E-01 0.  1.
          3   -1    0    0  501    0  0.00000000000E+00 -0.00000000000E+00 -0.60094764651E+01  0.60101960354E+01  0.93000000000E-01 0. -1.
       1023    2    1    2    0    0  0.00000000000E+00  0.00000000000E+00  0.10635178910E+02  0.22655111222E+02  0.20003675513E+02 0.  0.
        -11    1    3    3    0    0 -0.99140133591E+01 -0.13191287455E+01  0.54250127243E+01  0.11377984217E+02  0.51100000000E-03 0. -1.
         11    1    3    3    0    0  0.99140133591E+01  0.13191287455E+01  0.52101661862E+01  0.11277127005E+02  0.51100000000E-03 0.  1.
<mgrwt>
<rscale>  0 0.20003676E+02</rscale>
<asrwt>0</asrwt>
<pdfrwt beam="2">  1        3 0.92461019E-03 0.20003676E+02</pdfrwt>
<pdfrwt beam="1">  1       -3 0.25607915E-02 0.20003676E+02</pdfrwt>
<totfact> 0.17707497E+06</totfact>
</mgrwt>
</event>
<event>
 5    1  0.4489064E-007  0.2000304E+02  0.7818608E-02  0.1745268E+00
         -3   -1    0    0    0  501 -0.00000000000E+00  0.00000000000E+00  0.13795960287E+02  0.13796273744E+02  0.93000000000E-01 0. -1.
          3   -1    0    0  501    0  0.00000000000E+00 -0.00000000000E+00 -0.72500063118E+01  0.72506027695E+01  0.93000000000E-01 0.  1.
       1023    2    1    2    0    0  0.00000000000E+00  0.00000000000E+00  0.65459539748E+01  0.21046876514E+02  0.20003037208E+02 0.  0.
        -11    1    3    3    0    0 -0.99978798109E+01  0.26565288514E+00  0.32236032269E+01  0.10508082137E+02  0.51100000000E-03 0.  1.
         11    1    3    3    0    0  0.99978798109E+01 -0.26565288514E+00  0.33223507479E+01  0.10538794377E+02  0.51100000000E-03 0. -1.
<mgrwt>
<rscale>  0 0.20003037E+02</rscale>
<asrwt>0</asrwt>
<pdfrwt beam="2">  1        3 0.11154556E-02 0.20003037E+02</pdfrwt>
<pdfrwt beam="1">  1       -3 0.21225254E-02 0.20003037E+02</pdfrwt>
<totfact> 0.17811758E+06</totfact>
</mgrwt>
</event>
<event>
 5    1  0.4133473E-007  0.2000978E+02  0.7818608E-02  0.1745134E+00
          3   -1    0    0  501    0  0.00000000000E+00  0.00000000000E+00  0.56559426238E+02  0.56559502698E+02  0.93000000000E-01 0.  1.
         -3   -1    0    0    0  501 -0.00000000000E+00 -0.00000000000E+00 -0.17684827216E+01  0.17709263499E+01  0.93000000000E-01 0. -1.
       1023    2    1    2    0    0  0.00000000000E+00  0.00000000000E+00  0.54790943517E+02  0.58330429047E+02  0.20009784142E+02 0.  0.
        -11    1    3    3    0    0  0.57991384099E+01 -0.81514605198E+01  0.27823407271E+02  0.29567182945E+02  0.51100000000E-03 0. -1.
         11    1    3    3    0    0 -0.57991384099E+01  0.81514605198E+01  0.26967536246E+02  0.28763246102E+02  0.51100000000E-03 0.  1.
<mgrwt>
<rscale>  0 0.20009784E+02</rscale>
<asrwt>0</asrwt>
<pdfrwt beam="1">  1        3 0.87016429E-02 0.20009784E+02</pdfrwt>
<pdfrwt beam="2">  1       -3 0.27226815E-03 0.20009784E+02</pdfrwt>
<totfact> 0.15801923E+06</totfact>
</mgrwt>
</event>
<event>
 5    1  0.4133473E-007  0.2000122E+02  0.7818608E-02  0.1745304E+00
         -3   -1    0    0    0  501 -0.00000000000E+00  0.00000000000E+00  0.68026029394E+02  0.68026092965E+02  0.93000000000E-01 0.  1.
          3   -1    0    0  501    0  0.00000000000E+00 -0.00000000000E+00 -0.14686699125E+01  0.14716114677E+01  0.93000000000E-01 0. -1.
       1023    2    1    2    0    0  0.00000000000E+00  0.00000000000E+00  0.66557359481E+02  0.69497704433E+02  0.20001220470E+02 0.  0.
        -11    1    3    3    0    0  0.99648600261E+01  0.84397288437E+00  0.33412318787E+02  0.34876837192E+02  0.51100000000E-03 0. -1.
         11    1    3    3    0    0 -0.99648600261E+01 -0.84397288437E+00  0.33145040695E+02  0.34620867240E+02  0.51100000000E-03 0.  1.
<mgrwt>
<rscale>  0 0.20001220E+02</rscale>
<asrwt>0</asrwt>
<pdfrwt beam="2">  1        3 0.22618040E-03 0.20001220E+02</pdfrwt>
<pdfrwt beam="1">  1       -3 0.10465773E-01 0.20001220E+02</pdfrwt>
<totfact> 0.15334833E+06</totfact>
</mgrwt>
</event>
<event>
 5    1  0.4133473E-007  0.2000495E+02  0.7818608E-02  0.1745230E+00
          3   -1    0    0  501    0  0.00000000000E+00  0.00000000000E+00  0.39974661497E+01  0.39985478137E+01  0.93000000000E-01 0. -1.
         -3   -1    0    0    0  501 -0.00000000000E+00 -0.00000000000E+00 -0.25023673760E+02  0.25023846576E+02  0.93000000000E-01 0.  1.
       1023    2    1    2    0    0  0.00000000000E+00  0.00000000000E+00 -0.21026207610E+02  0.29022394389E+02  0.20004948628E+02 0.  0.
        -11    1    3    3    0    0 -0.87318114425E-01 -0.10001645921E+02 -0.10650325816E+02  0.14610612097E+02  0.51100000000E-03 0. -1.
         11    1    3    3    0    0  0.87318114425E-01  0.10001645921E+02 -0.10375881794E+02  0.14411782293E+02  0.51100000000E-03 0.  1.
<mgrwt>
<rscale>  0 0.20004949E+02</rscale>
<asrwt>0</asrwt>
<pdfrwt beam="1">  1        3 0.61509131E-03 0.20004949E+02</pdfrwt>
<pdfrwt beam="2">  1       -3 0.38498924E-02 0.20004949E+02</pdfrwt>
<totfact> 0.17316133E+06</totfact>
</mgrwt>
</event>
<event>
 5    1  0.4133473E-007  0.2000042E+02  0.7818608E-02  0.1745320E+00
          3   -1    0    0  501    0  0.00000000000E+00  0.00000000000E+00  0.64854365452E+01  0.64861033126E+01  0.93000000000E-01 0. -1.
         -3   -1    0    0    0  501 -0.00000000000E+00 -0.00000000000E+00 -0.15418207340E+02  0.15418487817E+02  0.93000000000E-01 0.  1.
       1023    2    1    2    0    0  0.00000000000E+00  0.00000000000E+00 -0.89327707947E+01  0.21904591130E+02  0.20000417958E+02 0.  0.
        -11    1    3    3    0    0 -0.14783151178E+00 -0.99991162050E+01 -0.44670129547E+01  0.10952551485E+02  0.51100000000E-03 0. -1.
         11    1    3    3    0    0  0.14783151178E+00  0.99991162050E+01 -0.44657578400E+01  0.10952039645E+02  0.51100000000E-03 0.  1.
<mgrwt>
<rscale>  0 0.20000418E+02</rscale>
<asrwt>0</asrwt>
<pdfrwt beam="1">  1        3 0.99783234E-03 0.20000418E+02</pdfrwt>
<pdfrwt beam="2">  1       -3 0.23721047E-02 0.20000418E+02</pdfrwt>
<totfact> 0.17761534E+06</totfact>
</mgrwt>
</event>
<event>
 5    1  0.4133473E-007  0.2000006E+02  0.7818608E-02  0.1745327E+00
          3   -1    0    0  501    0  0.00000000000E+00  0.00000000000E+00  0.21040494730E+02  0.21040700261E+02  0.93000000000E-01 0.  1.
         -3   -1    0    0    0  501 -0.00000000000E+00 -0.00000000000E+00 -0.47520861349E+01  0.47529960691E+01  0.93000000000E-01 0. -1.
       1023    2    1    2    0    0  0.00000000000E+00  0.00000000000E+00  0.16288408595E+02  0.25793696330E+02  0.20000062895E+02 0.  0.
        -11    1    3    3    0    0  0.15901808886E+01 -0.98727882372E+01  0.81473256412E+01  0.12898819256E+02  0.51100000000E-03 0. -1.
         11    1    3    3    0    0 -0.15901808886E+01  0.98727882372E+01  0.81410829537E+01  0.12894877074E+02  0.51100000000E-03 0.  1.
<mgrwt>
<rscale>  0 0.20000063E+02</rscale>
<asrwt>0</asrwt>
<pdfrwt beam="1">  1        3 0.32370850E-02 0.20000063E+02</pdfrwt>
<pdfrwt beam="2">  1       -3 0.73117598E-03 0.20000063E+02</pdfrwt>
<totfact> 0.17517644E+06</totfact>
</mgrwt>
</event>
<event>
 5    1  0.4357471E-007  0.2000090E+02  0.7818608E-02  0.1745310E+00
          3   -1    0    0  501    0  0.00000000000E+00  0.00000000000E+00  0.84919104938E+01  0.84924197279E+01  0.93000000000E-01 0.  1.
         -3   -1    0    0    0  501 -0.00000000000E+00 -0.00000000000E+00 -0.11775926645E+02  0.11776293872E+02  0.93000000000E-01 0. -1.
       1023    2    1    2    0    0  0.00000000000E+00  0.00000000000E+00 -0.32840161517E+01  0.20268713600E+02  0.20000899703E+02 0.  0.
        -11    1    3    3    0    0 -0.63858444615E+01 -0.76960140030E+01 -0.16046918543E+01  0.10128310680E+02  0.51100000000E-03 0.  1.
         11    1    3    3    0    0  0.63858444615E+01  0.76960140030E+01 -0.16793242974E+01  0.10140402920E+02  0.51100000000E-03 0. -1.
<mgrwt>
<rscale>  0 0.20000900E+02</rscale>
<asrwt>0</asrwt>
<pdfrwt beam="1">  1        3 0.13065152E-02 0.20000900E+02</pdfrwt>
<pdfrwt beam="2">  1       -3 0.18117484E-02 0.20000900E+02</pdfrwt>
<totfact> 0.17866448E+06</totfact>
</mgrwt>
</event>
<event>
 4    1  0.4133473E-007  0.2002053E+02  0.7818608E-02  0.1744920E+00
          3   -1    0    0  501    0  0.00000000000E+00  0.00000000000E+00  0.20868493904E+02  0.20868701130E+02  0.93000000000E-01 0. -1.
         -3   -1    0    0    0  501 -0.00000000000E+00 -0.00000000000E+00 -0.48010762527E+01  0.48019769038E+01  0.93000000000E-01 0.  1.
        -11    1    1    2    0    0 -0.87927323521E+01  0.47677293839E+01  0.75175239888E+01  0.12512256107E+02  0.51100000000E-03 0.  1.
         11    1    1    2    0    0  0.87927323521E+01 -0.47677293839E+01  0.85498936628E+01  0.13158421927E+02  0.51100000000E-03 0. -1.
<mgrwt>
<rscale>  0 0.20020534E+02</rscale>
<asrwt>0</asrwt>
<pdfrwt beam="1">  1        3 0.32106228E-02 0.20020534E+02</pdfrwt>
<pdfrwt beam="2">  1       -3 0.73871233E-03 0.20020534E+02</pdfrwt>
<totfact> 0.17486622E+06</totfact>
</mgrwt>
</event>
<event>
 5    1  0.4133473E-007  0.2000069E+02  0.7818608E-02  0.1745314E+00
          3   -1    0    0  501    0  0.00000000000E+00  0.00000000000E+00  0.98749030260E+00  0.99185991840E+00  0.93000000000E-01 0. -1.
         -3   -1    0    0    0  501 -0.00000000000E+00 -0.00000000000E+00 -0.10104585114E+03  0.10104589394E+03  0.93000000000E-01 0.  1.
       1023    2    1    2    0    0  0.00000000000E+00  0.00000000000E+00 -0.10005836084E+03  0.10203775386E+03  0.20000690950E+02 0.  0.
        -11    1    3    3    0    0  0.96551847814E+01 -0.26046658721E+01 -0.50057991757E+02  0.51047129366E+02  0.51100000000E-03 0.  1.
         11    1    3    3    0    0 -0.96551847814E+01  0.26046658721E+01 -0.50000369084E+02  0.50990624494E+02  0.51100000000E-03 0. -1.
<mgrwt>
<rscale>  0 0.20000691E+02</rscale>
<asrwt>0</asrwt>
<pdfrwt beam="1">  1        3 0.15226108E-03 0.20000691E+02</pdfrwt>
<pdfrwt beam="2">  1       -3 0.15545847E-01 0.20000691E+02</pdfrwt>
<totfact> 0.14109658E+06</totfact>
</mgrwt>
</event>
<event>
 5    1  0.4260073E-007  0.2000111E+02  0.7818608E-02  0.1745306E+00
          3   -1    0    0  501    0  0.00000000000E+00  0.00000000000E+00  0.24883073419E+01  0.24900446638E+01  0.93000000000E-01 0.  1.
         -3   -1    0    0    0  501 -0.00000000000E+00 -0.00000000000E+00 -0.40176609885E+02  0.40176717522E+02  0.93000000000E-01 0. -1.
       1023    2    1    2    0    0  0.00000000000E+00  0.00000000000E+00 -0.37688302543E+02  0.42666762186E+02  0.20001111140E+02 0.  0.
        -11    1    3    3    0    0  0.71026850064E+01 -0.70400832349E+01 -0.18874708909E+02  0.21360373192E+02  0.51100000000E-03 0. -1.
         11    1    3    3    0    0 -0.71026850064E+01  0.70400832349E+01 -0.18813593634E+02  0.21306388993E+02  0.51100000000E-03 0.  1.
<mgrwt>
<rscale>  0 0.20001111E+02</rscale>
<asrwt>0</asrwt>
<pdfrwt beam="1">  1        3 0.38295846E-03 0.20001111E+02</pdfrwt>
<pdfrwt beam="2">  1       -3 0.61811584E-02 0.20001111E+02</pdfrwt>
<totfact> 0.16573282E+06</totfact>
</mgrwt>
</event>
<event>
 5    1  0.4133473E-007  0.2000020E+02  0.7818608E-02  0.1745324E+00
          3   -1    0    0  501    0  0.00000000000E+00  0.00000000000E+00  0.75055155089E+01  0.75060916630E+01  0.93000000000E-01 0.  1.
         -3   -1    0    0    0  501 -0.00000000000E+00 -0.00000000000E+00 -0.13322556863E+02  0.13322881459E+02  0.93000000000E-01 0. -1.
       1023    2    1    2    0    0  0.00000000000E+00  0.00000000000E+00 -0.58170413543E+01  0.20828973122E+02  0.20000203779E+02 0.  0.
        -11    1    3    3    0    0 -0.24194626736E+01 -0.97030010874E+01 -0.29056104009E+01  0.10413673790E+02  0.51100000000E-03 0. -1.
         11    1    3    3    0    0  0.24194626736E+01  0.97030010874E+01 -0.29114309534E+01  0.10415299333E+02  0.51100000000E-03 0.  1.
<mgrwt>
<rscale>  0 0.20000204E+02</rscale>
<asrwt>0</asrwt>
<pdfrwt beam="1">  1        3 0.11547640E-02 0.20000204E+02</pdfrwt>
<pdfrwt beam="2">  1       -3 0.20496934E-02 0.20000204E+02</pdfrwt>
<totfact> 0.17831360E+06</totfact>
</mgrwt>
</event>
<event>
 5    1  0.4133473E-007  0.2000063E+02  0.7818608E-02  0.1745316E+00
         -3   -1    0    0    0  501 -0.00000000000E+00  0.00000000000E+00  0.13858086857E+02  0.13858398910E+02  0.93000000000E-01 0. -1.
          3   -1    0    0  501    0  0.00000000000E+00 -0.00000000000E+00 -0.72157632460E+01  0.72163625340E+01  0.93000000000E-01 0.  1.
       1023    2    1    2    0    0  0.00000000000E+00  0.00000000000E+00  0.66423236110E+01  0.21074761444E+02  0.20000627664E+02 0.  0.
        -11    1    3    3    0    0 -0.96171283849E+01  0.27409233481E+01  0.33915103568E+01  0.10559553112E+02  0.51100000000E-03 0.  1.
         11    1    3    3    0    0  0.96171283849E+01 -0.27409233481E+01  0.32508132542E+01  0.10515208331E+02  0.51100000000E-03 0. -1.
<mgrwt>
<rscale>  0 0.20000628E+02</rscale>
<asrwt>0</asrwt>
<pdfrwt beam="2">  1        3 0.11101875E-02 0.20000628E+02</pdfrwt>
<pdfrwt beam="1">  1       -3 0.21320835E-02 0.20000628E+02</pdfrwt>
<totfact> 0.17814574E+06</totfact>
</mgrwt>
</event>
<event>
 5    1  0.4133473E-007  0.2000203E+02  0.7818608E-02  0.1745288E+00
         -3   -1    0    0    0  501 -0.00000000000E+00  0.00000000000E+00  0.86505801890E+02  0.86505851881E+02  0.93000000000E-01 0.  1.
          3   -1    0    0  501    0  0.00000000000E+00 -0.00000000000E+00 -0.11543058264E+01  0.11580461739E+01  0.93000000000E-01 0. -1.
       1023    2    1    2    0    0  0.00000000000E+00  0.00000000000E+00  0.85351496064E+02  0.87663898055E+02  0.20002028444E+02 0.  0.
        -11    1    3    3    0    0 -0.56022767397E+01 -0.82841718451E+01  0.42301866429E+02  0.43467929689E+02  0.51100000000E-03 0. -1.
         11    1    3    3    0    0  0.56022767397E+01  0.82841718451E+01  0.43049629635E+02  0.44195968366E+02  0.51100000000E-03 0.  1.
<mgrwt>
<rscale>  0 0.20002028E+02</rscale>
<asrwt>0</asrwt>
<pdfrwt beam="2">  1        3 0.17787705E-03 0.20002028E+02</pdfrwt>
<pdfrwt beam="1">  1       -3 0.13308879E-01 0.20002028E+02</pdfrwt>
<totfact> 0.14620046E+06</totfact>
</mgrwt>
</event>
<event>
 5    1  0.4134361E-007  0.2000207E+02  0.7818608E-02  0.1745287E+00
          3   -1    0    0  501    0  0.00000000000E+00  0.00000000000E+00  0.26160829536E+02  0.26160994840E+02  0.93000000000E-01 0.  1.
         -3   -1    0    0    0  501 -0.00000000000E+00 -0.00000000000E+00 -0.38225580736E+01  0.38236892167E+01  0.93000000000E-01 0. -1.
       1023    2    1    2    0    0  0.00000000000E+00  0.00000000000E+00  0.22338271462E+02  0.29984684056E+02  0.20002072544E+02 0.  0.
        -11    1    3    3    0    0 -0.99097181228E+01  0.13425637318E+01  0.10981088841E+02  0.14852249090E+02  0.51100000000E-03 0. -1.
         11    1    3    3    0    0  0.99097181228E+01 -0.13425637318E+01  0.11357182622E+02  0.15132434966E+02  0.51100000000E-03 0.  1.
<mgrwt>
<rscale>  0 0.20002073E+02</rscale>
<asrwt>0</asrwt>
<pdfrwt beam="1">  1        3 0.40248428E-02 0.20002073E+02</pdfrwt>
<pdfrwt beam="2">  1       -3 0.58818557E-03 0.20002073E+02</pdfrwt>
<totfact> 0.17263436E+06</totfact>
</mgrwt>
</event>
<event>
 5    1  0.4269470E-007  0.2000100E+02  0.7818608E-02  0.1745308E+00
          3   -1    0    0  501    0  0.00000000000E+00  0.00000000000E+00  0.30357099872E+01  0.30371341963E+01  0.93000000000E-01 0. -1.
         -3   -1    0    0    0  501 -0.00000000000E+00 -0.00000000000E+00 -0.32935286156E+02  0.32935417458E+02  0.93000000000E-01 0.  1.
       1023    2    1    2    0    0  0.00000000000E+00  0.00000000000E+00 -0.29899576168E+02  0.35972551655E+02  0.20000995413E+02 0.  0.
        -11    1    3    3    0    0  0.76580041133E+01 -0.64315559638E+01 -0.14956753691E+02  0.17992065483E+02  0.51100000000E-03 0.  1.
         11    1    3    3    0    0 -0.76580041133E+01  0.64315559638E+01 -0.14942822478E+02  0.17980486172E+02  0.51100000000E-03 0. -1.
<mgrwt>
<rscale>  0 0.20000995E+02</rscale>
<asrwt>0</asrwt>
<pdfrwt beam="1">  1        3 0.46715198E-03 0.20000995E+02</pdfrwt>
<pdfrwt beam="2">  1       -3 0.50670865E-02 0.20000995E+02</pdfrwt>
<totfact> 0.16928695E+06</totfact>
</mgrwt>
</event>
<event>
 5    1  0.4133473E-007  0.2000008E+02  0.7818608E-02  0.1745326E+00
          3   -1    0    0  501    0  0.00000000000E+00  0.00000000000E+00  0.37758623978E+01  0.37770075254E+01  0.93000000000E-01 0. -1.
         -3   -1    0    0    0  501 -0.00000000000E+00 -0.00000000000E+00 -0.26478992541E+02  0.26479155858E+02  0.93000000000E-01 0.  1.
       1023    2    1    2    0    0  0.00000000000E+00  0.00000000000E+00 -0.22703130143E+02  0.30256163384E+02  0.20000082610E+02 0.  0.
        -11    1    3    3    0    0 -0.72212152430E+01  0.69177209320E+01 -0.11346034346E+02  0.15123931636E+02  0.51100000000E-03 0. -1.
         11    1    3    3    0    0  0.72212152430E+01 -0.69177209320E+01 -0.11357095797E+02  0.15132231748E+02  0.51100000000E-03 0.  1.
<mgrwt>
<rscale>  0 0.20000083E+02</rscale>
<asrwt>0</asrwt>
<pdfrwt beam="1">  1        3 0.58100258E-03 0.20000083E+02</pdfrwt>
<pdfrwt beam="2">  1       -3 0.40737917E-02 0.20000083E+02</pdfrwt>
<totfact> 0.17253014E+06</totfact>
</mgrwt>
</event>
<event>
 5    1  0.4133473E-007  0.2000022E+02  0.7818608E-02  0.1745324E+00
          3   -1    0    0  501    0  0.00000000000E+00  0.00000000000E+00  0.22187495113E+01  0.22206977268E+01  0.93000000000E-01 0.  1.
         -3   -1    0    0    0  501 -0.00000000000E+00 -0.00000000000E+00 -0.45049654554E+02  0.45049750548E+02  0.93000000000E-01 0. -1.
       1023    2    1    2    0    0  0.00000000000E+00  0.00000000000E+00 -0.42830905043E+02  0.47270448275E+02  0.20000221332E+02 0.  0.
        -11    1    3    3    0    0  0.41249925193E+00  0.99915389271E+01 -0.21333329774E+02  0.23560814189E+02  0.51100000000E-03 0. -1.
         11    1    3    3    0    0 -0.41249925193E+00 -0.99915389271E+01 -0.21497575269E+02  0.23709634086E+02  0.51100000000E-03 0.  1.
<mgrwt>
<rscale>  0 0.20000221E+02</rscale>
<asrwt>0</asrwt>
<pdfrwt beam="1">  1        3 0.34150336E-03 0.20000221E+02</pdfrwt>
<pdfrwt beam="2">  1       -3 0.69308727E-02 0.20000221E+02</pdfrwt>
<totfact> 0.16342639E+06</totfact>
</mgrwt>
</event>
<event>
 5    1  0.4133473E-007  0.2000936E+02  0.7818608E-02  0.1745142E+00
          3   -1    0    0  501    0  0.00000000000E+00  0.00000000000E+00  0.17256111723E+01  0.17281154238E+01  0.93000000000E-01 0. -1.
         -3   -1    0    0    0  501 -0.00000000000E+00 -0.00000000000E+00 -0.57960135818E+02  0.57960210429E+02  0.93000000000E-01 0.  1.
       1023    2    1    2    0    0  0.00000000000E+00  0.00000000000E+00 -0.56234524646E+02  0.59688325853E+02  0.20009359836E+02 0.  0.
        -11    1    3    3    0    0  0.66486828748E+01  0.74703156162E+01 -0.28976768893E+02  0.30653935068E+02  0.51100000000E-03 0. -1.
         11    1    3    3    0    0 -0.66486828748E+01 -0.74703156162E+01 -0.27257755752E+02  0.29034390786E+02  0.51100000000E-03 0.  1.
<mgrwt>
<rscale>  0 0.20009360E+02</rscale>
<asrwt>0</asrwt>
<pdfrwt beam="1">  1        3 0.26567706E-03 0.20009360E+02</pdfrwt>
<pdfrwt beam="2">  1       -3 0.89171408E-02 0.20009360E+02</pdfrwt>
<totfact> 0.15744500E+06</totfact>
</mgrwt>
</event>
<event>
 5    1  0.4306714E-007  0.2000117E+02  0.7818608E-02  0.1745305E+00
          3   -1    0    0  501    0  0.00000000000E+00  0.00000000000E+00  0.75801111569E+01  0.75806816416E+01  0.93000000000E-01 0. -1.
         -3   -1    0    0    0  501 -0.00000000000E+00 -0.00000000000E+00 -0.13192734596E+02  0.13193062386E+02  0.93000000000E-01 0.  1.
       1023    2    1    2    0    0  0.00000000000E+00  0.00000000000E+00 -0.56126234393E+01  0.20773744028E+02  0.20001172442E+02 0.  0.
        -11    1    3    3    0    0 -0.75982166264E+01 -0.65013494097E+01 -0.29166432438E+01  0.10416681243E+02  0.51100000000E-03 0. -1.
         11    1    3    3    0    0  0.75982166264E+01  0.65013494097E+01 -0.26959801955E+01  0.10357062785E+02  0.51100000000E-03 0.  1.
<mgrwt>
<rscale>  0 0.20001172E+02</rscale>
<asrwt>0</asrwt>
<pdfrwt beam="1">  1        3 0.11662400E-02 0.20001172E+02</pdfrwt>
<pdfrwt beam="2">  1       -3 0.20297206E-02 0.20001172E+02</pdfrwt>
<totfact> 0.17833098E+06</totfact>
</mgrwt>
</event>
<event>
 5    1  0.4133473E-007  0.2000076E+02  0.7818608E-02  0.1745313E+00
          3   -1    0    0  501    0  0.00000000000E+00  0.00000000000E+00  0.24995615905E+01  0.25012910955E+01  0.93000000000E-01 0. -1.
         -3   -1    0    0    0  501 -0.00000000000E+00 -0.00000000000E+00 -0.39994454392E+02  0.39994562519E+02  0.93000000000E-01 0.  1.
       1023    2    1    2    0    0  0.00000000000E+00  0.00000000000E+00 -0.37494892801E+02  0.42495853615E+02  0.20000764692E+02 0.  0.
        -11    1    3    3    0    0 -0.71953489787E+01 -0.69449455556E+01 -0.18850030779E+02  0.21338438938E+02  0.51100000000E-03 0.  1.
         11    1    3    3    0    0  0.71953489787E+01  0.69449455556E+01 -0.18644862022E+02  0.21157414676E+02  0.51100000000E-03 0. -1.
<mgrwt>
<rscale>  0 0.20000765E+02</rscale>
<asrwt>0</asrwt>
<pdfrwt beam="1">  1        3 0.38468932E-03 0.20000765E+02</pdfrwt>
<pdfrwt beam="2">  1       -3 0.61531339E-02 0.20000765E+02</pdfrwt>
<totfact> 0.16582709E+06</totfact>
</mgrwt>
</event>
<event>
 4    1  0.4133473E-007  0.2001440E+02  0.7818608E-02  0.1745042E+00
         -3   -1    0    0    0  501 -0.00000000000E+00  0.00000000000E+00  0.11233394700E+02  0.11233779662E+02  0.93000000000E-01 0. -1.
          3   -1    0    0  501    0  0.00000000000E+00 -0.00000000000E+00 -0.89140717986E+01  0.89145569172E+01  0.93000000000E-01 0.  1.
        -11    1    1    2    0    0  0.99019794047E+01  0.14465530363E+01  0.12083583395E+01  0.10079773904E+02  0.51100000000E-03 0.  1.
         11    1    1    2    0    0 -0.99019794047E+01 -0.14465530363E+01  0.11109645619E+01  0.10068562675E+02  0.51100000000E-03 0. -1.
<mgrwt>
<rscale>  0 0.20014400E+02</rscale>
<asrwt>0</asrwt>
<pdfrwt beam="2">  1        3 0.13714626E-02 0.20014400E+02</pdfrwt>
<pdfrwt beam="1">  1       -3 0.17282815E-02 0.20014400E+02</pdfrwt>
<totfact> 0.17848351E+06</totfact>
</mgrwt>
</event>
<event>
 5    1  0.4133473E-007  0.2000563E+02  0.7818608E-02  0.1745216E+00
         -3   -1    0    0    0  501 -0.00000000000E+00  0.00000000000E+00  0.30635238471E+02  0.30635379632E+02  0.93000000000E-01 0.  1.
          3   -1    0    0  501    0  0.00000000000E+00 -0.00000000000E+00 -0.32652407964E+01  0.32665649325E+01  0.93000000000E-01 0. -1.
       1023    2    1    2    0    0  0.00000000000E+00  0.00000000000E+00  0.27369997675E+02  0.33901944564E+02  0.20005626022E+02 0.  0.
        -11    1    3    3    0    0 -0.93994230332E+01 -0.34137120010E+01  0.13292355274E+02  0.16633980040E+02  0.51100000000E-03 0. -1.
         11    1    3    3    0    0  0.93994230332E+01  0.34137120010E+01  0.14077642401E+02  0.17267964524E+02  0.51100000000E-03 0.  1.
<mgrwt>
<rscale>  0 0.20005626E+02</rscale>
<asrwt>0</asrwt>
<pdfrwt beam="2">  1        3 0.50245747E-03 0.20005626E+02</pdfrwt>
<pdfrwt beam="1">  1       -3 0.47132262E-02 0.20005626E+02</pdfrwt>
<totfact> 0.17034844E+06</totfact>
</mgrwt>
</event>
<event>
 5    1  0.4133473E-007  0.2000038E+02  0.7818608E-02  0.1745320E+00
         -3   -1    0    0    0  501 -0.00000000000E+00  0.00000000000E+00  0.43628925917E+02  0.43629025037E+02  0.93000000000E-01 0. -1.
          3   -1    0    0  501    0  0.00000000000E+00 -0.00000000000E+00 -0.22911002298E+01  0.22929869740E+01  0.93000000000E-01 0.  1.
       1023    2    1    2    0    0  0.00000000000E+00  0.00000000000E+00  0.41337825688E+02  0.45922012011E+02  0.20000383861E+02 0.  0.
        -11    1    3    3    0    0  0.67514096017E+01 -0.73770749311E+01  0.20744097298E+02  0.23028685137E+02  0.51100000000E-03 0.  1.
         11    1    3    3    0    0 -0.67514096017E+01  0.73770749311E+01  0.20593728389E+02  0.22893326875E+02  0.51100000000E-03 0. -1.
<mgrwt>
<rscale>  0 0.20000384E+02</rscale>
<asrwt>0</asrwt>
<pdfrwt beam="2">  1        3 0.35262972E-03 0.20000384E+02</pdfrwt>
<pdfrwt beam="1">  1       -3 0.67122951E-02 0.20000384E+02</pdfrwt>
<totfact> 0.16409375E+06</totfact>
</mgrwt>
</event>
<event>
 4    1  0.4133473E-007  0.2010612E+02  0.7818608E-02  0.1743226E+00
          3   -1    0    0  501    0  0.00000000000E+00  0.00000000000E+00  0.33312326499E+01  0.33325305652E+01  0.93000000000E-01 0. -1.
         -3   -1    0    0    0  501 -0.00000000000E+00 -0.00000000000E+00 -0.30331033890E+02  0.30331176467E+02  0.93000000000E-01 0.  1.
        -11    1    1    2    0    0  0.35191208642E+01  0.94050716634E+01 -0.14293016383E+02  0.17467967891E+02  0.51100000000E-03 0.  1.
         11    1    1    2    0    0 -0.35191208642E+01 -0.94050716634E+01 -0.12706784857E+02  0.16195739141E+02  0.51100000000E-03 0. -1.
<mgrwt>
<rscale>  0 0.20106116E+02</rscale>
<asrwt>0</asrwt>
<pdfrwt beam="1">  1        3 0.51260816E-03 0.20106116E+02</pdfrwt>
<pdfrwt beam="2">  1       -3 0.46664235E-02 0.20106116E+02</pdfrwt>
<totfact> 0.16865359E+06</totfact>
</mgrwt>
</event>
<event>
 5    1  0.4133473E-007  0.2000045E+02  0.7818608E-02  0.1745319E+00
          3   -1    0    0  501    0  0.00000000000E+00  0.00000000000E+00  0.35288208247E+02  0.35288330795E+02  0.93000000000E-01 0.  1.
         -3   -1    0    0    0  501 -0.00000000000E+00 -0.00000000000E+00 -0.28330455231E+01  0.28345715612E+01  0.93000000000E-01 0. -1.
       1023    2    1    2    0    0  0.00000000000E+00  0.00000000000E+00  0.32455162724E+02  0.38122902356E+02  0.20000452410E+02 0.  0.
        -11    1    3    3    0    0 -0.85943643544E+01  0.51128393643E+01  0.16260533827E+02  0.19089504594E+02  0.51100000000E-03 0. -1.
         11    1    3    3    0    0  0.85943643544E+01 -0.51128393643E+01  0.16194628897E+02  0.19033397762E+02  0.51100000000E-03 0.  1.
<mgrwt>
<rscale>  0 0.20000452E+02</rscale>
<asrwt>0</asrwt>
<pdfrwt beam="1">  1        3 0.54290820E-02 0.20000452E+02</pdfrwt>
<pdfrwt beam="2">  1       -3 0.43597997E-03 0.20000452E+02</pdfrwt>
<totfact> 0.16810919E+06</totfact>
</mgrwt>
</event>
<event>
 5    1  0.4133473E-007  0.2000024E+02  0.7818608E-02  0.1745323E+00
         -3   -1    0    0    0  501 -0.00000000000E+00  0.00000000000E+00  0.94693712511E+02  0.94693758179E+02  0.93000000000E-01 0.  1.
          3   -1    0    0  501    0  0.00000000000E+00 -0.00000000000E+00 -0.10539681766E+01  0.10580632861E+01  0.93000000000E-01 0. -1.
       1023    2    1    2    0    0  0.00000000000E+00  0.00000000000E+00  0.93639744334E+02  0.95751821465E+02  0.20000239872E+02 0.  0.
        -11    1    3    3    0    0  0.76210748502E+01 -0.64746833521E+01  0.46773930103E+02  0.47830982051E+02  0.51100000000E-03 0. -1.
         11    1    3    3    0    0 -0.76210748502E+01  0.64746833521E+01  0.46865814231E+02  0.47920839414E+02  0.51100000000E-03 0.  1.
<mgrwt>
<rscale>  0 0.20000240E+02</rscale>
<asrwt>0</asrwt>
<pdfrwt beam="2">  1        3 0.16246737E-03 0.20000240E+02</pdfrwt>
<pdfrwt beam="1">  1       -3 0.14568591E-01 0.20000240E+02</pdfrwt>
<totfact> 0.14329334E+06</totfact>
</mgrwt>
</event>
<event>
 5    1  0.4133473E-007  0.2000030E+02  0.7818608E-02  0.1745322E+00
          3   -1    0    0  501    0  0.00000000000E+00  0.00000000000E+00  0.48959599163E+01  0.48968431159E+01  0.93000000000E-01 0.  1.
         -3   -1    0    0    0  501 -0.00000000000E+00 -0.00000000000E+00 -0.20422783019E+02  0.20422994767E+02  0.93000000000E-01 0. -1.
       1023    2    1    2    0    0  0.00000000000E+00  0.00000000000E+00 -0.15526823103E+02  0.25319837883E+02  0.20000298866E+02 0.  0.
        -11    1    3    3    0    0 -0.98332230478E+01 -0.18192537422E+01 -0.77228068065E+01  0.12635018992E+02  0.51100000000E-03 0.  1.
         11    1    3    3    0    0  0.98332230478E+01  0.18192537422E+01 -0.78040162961E+01  0.12684818891E+02  0.51100000000E-03 0. -1.
<mgrwt>
<rscale>  0 0.20000299E+02</rscale>
<asrwt>0</asrwt>
<pdfrwt beam="1">  1        3 0.75330884E-03 0.20000299E+02</pdfrwt>
<pdfrwt beam="2">  1       -3 0.31420508E-02 0.20000299E+02</pdfrwt>
<totfact> 0.17547560E+06</totfact>
</mgrwt>
</event>
<event>
 5    1  0.4133473E-007  0.2000114E+02  0.7818608E-02  0.1745305E+00
          3   -1    0    0  501    0  0.00000000000E+00  0.00000000000E+00  0.60789939599E+02  0.60790010737E+02  0.93000000000E-01 0.  1.
         -3   -1    0    0    0  501 -0.00000000000E+00 -0.00000000000E+00 -0.16438105967E+01  0.16464392725E+01  0.93000000000E-01 0. -1.
       1023    2    1    2    0    0  0.00000000000E+00  0.00000000000E+00  0.59146129002E+02  0.62436450010E+02  0.20001142814E+02 0.  0.
        -11    1    3    3    0    0 -0.28528665062E+01 -0.95846230715E+01  0.29844871416E+02  0.31475708043E+02  0.51100000000E-03 0.  1.
         11    1    3    3    0    0  0.28528665062E+01  0.95846230715E+01  0.29301257586E+02  0.30960741966E+02  0.51100000000E-03 0. -1.
<mgrwt>
<rscale>  0 0.20001143E+02</rscale>
<asrwt>0</asrwt>
<pdfrwt beam="1">  1        3 0.93525044E-02 0.20001143E+02</pdfrwt>
<pdfrwt beam="2">  1       -3 0.25310166E-03 0.20001143E+02</pdfrwt>
<totfact> 0.15633903E+06</totfact>
</mgrwt>
</event>
<event>
 5    1  0.4133473E-007  0.2000004E+02  0.7818608E-02  0.1745327E+00
         -3   -1    0    0    0  501 -0.00000000000E+00  0.00000000000E+00  0.94962719654E+01  0.94967273437E+01  0.93000000000E-01 0.  1.
          3   -1    0    0  501    0  0.00000000000E+00 -0.00000000000E+00 -0.10529580801E+02  0.10529991493E+02  0.93000000000E-01 0. -1.
       1023    2    1    2    0    0  0.00000000000E+00  0.00000000000E+00 -0.10333088355E+01  0.20026718837E+02  0.20000043505E+02 0.  0.
        -11    1    3    3    0    0 -0.90991412439E+01 -0.41480155895E+01 -0.51116199331E+00  0.10013076028E+02  0.51100000000E-03 0.  1.
         11    1    3    3    0    0  0.90991412439E+01  0.41480155895E+01 -0.52214684222E+00  0.10013642808E+02  0.51100000000E-03 0. -1.
<mgrwt>
<rscale>  0 0.20000044E+02</rscale>
<asrwt>0</asrwt>
<pdfrwt beam="2">  1        3 0.16200021E-02 0.20000044E+02</pdfrwt>
<pdfrwt beam="1">  1       -3 0.14610315E-02 0.20000044E+02</pdfrwt>
<totfact> 0.17883762E+06</totfact>
</mgrwt>
</event>
<event>
 5    1  0.4262141E-007  0.2000136E+02  0.7818608E-02  0.1745301E+00
          3   -1    0    0  501    0  0.00000000000E+00  0.00000000000E+00  0.75018458190E+01  0.75024222550E+01  0.93000000000E-01 0. -1.
         -3   -1    0    0    0  501 -0.00000000000E+00 -0.00000000000E+00 -0.13330617276E+02  0.13330941675E+02  0.93000000000E-01 0.  1.
       1023    2    1    2    0    0  0.00000000000E+00  0.00000000000E+00 -0.58287714565E+01  0.20833363930E+02  0.20001361852E+02 0.  0.
        -11    1    3    3    0    0  0.95794492894E+01  0.28709479521E+01 -0.29911246267E+01  0.10438152022E+02  0.51100000000E-03 0.  1.
         11    1    3    3    0    0 -0.95794492894E+01 -0.28709479521E+01 -0.28376468298E+01  0.10395211909E+02  0.51100000000E-03 0. -1.
<mgrwt>
<rscale>  0 0.20001362E+02</rscale>
<asrwt>0</asrwt>
<pdfrwt beam="1">  1        3 0.11541994E-02 0.20001362E+02</pdfrwt>
<pdfrwt beam="2">  1       -3 0.20509335E-02 0.20001362E+02</pdfrwt>
<totfact> 0.17828850E+06</totfact>
</mgrwt>
</event>
<event>
 5    1  0.4296020E-007  0.2000172E+02  0.7818608E-02  0.1745294E+00
          3   -1    0    0  501    0  0.00000000000E+00  0.00000000000E+00  0.15921062054E+02  0.15921333673E+02  0.93000000000E-01 0. -1.
         -3   -1    0    0    0  501 -0.00000000000E+00 -0.00000000000E+00 -0.62814011559E+01  0.62820895793E+01  0.93000000000E-01 0.  1.
       1023    2    1    2    0    0  0.00000000000E+00  0.00000000000E+00  0.96396608976E+01  0.22203423252E+02  0.20001723473E+02 0.  0.
        -11    1    3    3    0    0  0.88310778565E+01  0.46929209994E+01  0.47353509032E+01  0.11065034661E+02  0.51100000000E-03 0.  1.
         11    1    3    3    0    0 -0.88310778565E+01 -0.46929209994E+01  0.49043099944E+01  0.11138388591E+02  0.51100000000E-03 0. -1.
<mgrwt>
<rscale>  0 0.20001723E+02</rscale>
<asrwt>0</asrwt>
<pdfrwt beam="1">  1        3 0.24494680E-02 0.20001723E+02</pdfrwt>
<pdfrwt beam="2">  1       -3 0.96644327E-03 0.20001723E+02</pdfrwt>
<totfact> 0.17739137E+06</totfact>
</mgrwt>
</event>
<event>
 5    1  0.4133473E-007  0.2000017E+02  0.7818608E-02  0.1745325E+00
         -3   -1    0    0    0  501 -0.00000000000E+00  0.00000000000E+00  0.45329069893E+02  0.45329165295E+02  0.93000000000E-01 0. -1.
          3   -1    0    0  501    0  0.00000000000E+00 -0.00000000000E+00 -0.22050496619E+01  0.22070099709E+01  0.93000000000E-01 0.  1.
       1023    2    1    2    0    0  0.00000000000E+00  0.00000000000E+00  0.43124020231E+02  0.47536175266E+02  0.20000170950E+02 0.  0.
        -11    1    3    3    0    0 -0.57314427761E+00  0.99836265490E+01  0.21513543667E+02  0.23724119685E+02  0.51100000000E-03 0.  1.
         11    1    3    3    0    0  0.57314427761E+00 -0.99836265490E+01  0.21610476564E+02  0.23812055581E+02  0.51100000000E-03 0. -1.
<mgrwt>
<rscale>  0 0.20000171E+02</rscale>
<asrwt>0</asrwt>
<pdfrwt beam="2">  1        3 0.33939650E-03 0.20000171E+02</pdfrwt>
<pdfrwt beam="1">  1       -3 0.69738619E-02 0.20000171E+02</pdfrwt>
<totfact> 0.16329613E+06</totfact>
</mgrwt>
</event>
<event>
 5    1  0.4362748E-007  0.2000164E+02  0.7818608E-02  0.1745296E+00
          3   -1    0    0  501    0  0.00000000000E+00  0.00000000000E+00  0.51500386056E+01  0.51508782396E+01  0.93000000000E-01 0.  1.
         -3   -1    0    0    0  501 -0.00000000000E+00 -0.00000000000E+00 -0.19417976309E+02  0.19418199014E+02  0.93000000000E-01 0. -1.
       1023    2    1    2    0    0  0.00000000000E+00  0.00000000000E+00 -0.14267937704E+02  0.24569077254E+02  0.20001637702E+02 0.  0.
        -11    1    3    3    0    0 -0.61757134107E+01 -0.78655398820E+01 -0.72581702977E+01  0.12356665816E+02  0.51100000000E-03 0.  1.
         11    1    3    3    0    0  0.61757134107E+01  0.78655398820E+01 -0.70097674060E+01  0.12212411437E+02  0.51100000000E-03 0. -1.
<mgrwt>
<rscale>  0 0.20001638E+02</rscale>
<asrwt>0</asrwt>
<pdfrwt beam="1">  1        3 0.79239536E-03 0.20001638E+02</pdfrwt>
<pdfrwt beam="2">  1       -3 0.29874627E-02 0.20001638E+02</pdfrwt>
<totfact> 0.17591413E+06</totfact>
</mgrwt>
</event>
<event>
 5    1  0.4133473E-007  0.2000288E+02  0.7818608E-02  0.1745271E+00
          3   -1    0    0  501    0  0.00000000000E+00  0.00000000000E+00  0.34250632039E+01  0.34263255757E+01  0.93000000000E-01 0.  1.
         -3   -1    0    0    0  501 -0.00000000000E+00 -0.00000000000E+00 -0.29198235646E+02  0.29198383754E+02  0.93000000000E-01 0. -1.
       1023    2    1    2    0    0  0.00000000000E+00  0.00000000000E+00 -0.25773172442E+02  0.32624709330E+02  0.20002880820E+02 0.  0.
        -11    1    3    3    0    0 -0.42121377746E+01 -0.90709463580E+01 -0.12775515751E+02  0.16224610178E+02  0.51100000000E-03 0.  1.
         11    1    3    3    0    0  0.42121377746E+01  0.90709463580E+01 -0.12997656691E+02  0.16400099151E+02  0.51100000000E-03 0. -1.
<mgrwt>
<rscale>  0 0.20002881E+02</rscale>
<asrwt>0</asrwt>
<pdfrwt beam="1">  1        3 0.52704132E-03 0.20002881E+02</pdfrwt>
<pdfrwt beam="2">  1       -3 0.44921446E-02 0.20002881E+02</pdfrwt>
<totfact> 0.17111831E+06</totfact>
</mgrwt>
</event>
<event>
 5    1  0.4133473E-007  0.2000030E+02  0.7818608E-02  0.1745322E+00
          3   -1    0    0  501    0  0.00000000000E+00  0.00000000000E+00  0.14274319289E+01  0.14304582873E+01  0.93000000000E-01 0.  1.
         -3   -1    0    0    0  501 -0.00000000000E+00 -0.00000000000E+00 -0.69980746345E+02  0.69980808141E+02  0.93000000000E-01 0. -1.
       1023    2    1    2    0    0  0.00000000000E+00  0.00000000000E+00 -0.68553314416E+02  0.71411266428E+02  0.20000301383E+02 0.  0.
        -11    1    3    3    0    0  0.95541756096E+00 -0.99543668050E+01 -0.34375888238E+02  0.35800892916E+02  0.51100000000E-03 0. -1.
         11    1    3    3    0    0 -0.95541756096E+00  0.99543668050E+01 -0.34177426178E+02  0.35610373512E+02  0.51100000000E-03 0.  1.
<mgrwt>
<rscale>  0 0.20000301E+02</rscale>
<asrwt>0</asrwt>
<pdfrwt beam="1">  1        3 0.21984252E-03 0.20000301E+02</pdfrwt>
<pdfrwt beam="2">  1       -3 0.10766504E-01 0.20000301E+02</pdfrwt>
<totfact> 0.15257122E+06</totfact>
</mgrwt>
</event>
<event>
 5    1  0.4163308E-007  0.2000133E+02  0.7818608E-02  0.1745302E+00
          3   -1    0    0  501    0  0.00000000000E+00  0.00000000000E+00  0.73409977033E+01  0.73415867685E+01  0.93000000000E-01 0.  1.
         -3   -1    0    0    0  501 -0.00000000000E+00 -0.00000000000E+00 -0.13622645571E+02  0.13622963017E+02  0.93000000000E-01 0. -1.
       1023    2    1    2    0    0  0.00000000000E+00  0.00000000000E+00 -0.62816478678E+01  0.20964549785E+02  0.20001331150E+02 0.  0.
        -11    1    3    3    0    0 -0.93777322607E+01 -0.34741595166E+01 -0.31835931288E+01  0.10495089908E+02  0.51100000000E-03 0. -1.
         11    1    3    3    0    0  0.93777322607E+01  0.34741595166E+01 -0.30980547390E+01  0.10469459878E+02  0.51100000000E-03 0.  1.
<mgrwt>
<rscale>  0 0.20001331E+02</rscale>
<asrwt>0</asrwt>
<pdfrwt beam="1">  1        3 0.11294540E-02 0.20001331E+02</pdfrwt>
<pdfrwt beam="2">  1       -3 0.20958614E-02 0.20001331E+02</pdfrwt>
<totfact> 0.17820376E+06</totfact>
</mgrwt>
</event>
<event>
 5    1  0.4133473E-007  0.2001000E+02  0.7818608E-02  0.1745129E+00
         -3   -1    0    0    0  501 -0.00000000000E+00  0.00000000000E+00  0.35787543422E+01  0.35799625196E+01  0.93000000000E-01 0. -1.
          3   -1    0    0  501    0  0.00000000000E+00 -0.00000000000E+00 -0.27964614517E+02  0.27964769159E+02  0.93000000000E-01 0.  1.
       1023    2    1    2    0    0  0.00000000000E+00  0.00000000000E+00 -0.24385860175E+02  0.31544731678E+02  0.20009995507E+02 0.  0.
        -11    1    3    3    0    0 -0.35593739348E+01  0.93497542448E+01 -0.12372205906E+02  0.15910956178E+02  0.51100000000E-03 0. -1.
         11    1    3    3    0    0  0.35593739348E+01 -0.93497542448E+01 -0.12013654269E+02  0.15633775501E+02  0.51100000000E-03 0.  1.
<mgrwt>
<rscale>  0 0.20009996E+02</rscale>
<asrwt>0</asrwt>
<pdfrwt beam="2">  1        3 0.43023531E-02 0.20009996E+02</pdfrwt>
<pdfrwt beam="1">  1       -3 0.55068244E-03 0.20009996E+02</pdfrwt>
<totfact> 0.17158539E+06</totfact>
</mgrwt>
</event>
<event>
 5    1  0.4133473E-007  0.2000082E+02  0.7818608E-02  0.1745312E+00
         -3   -1    0    0    0  501 -0.00000000000E+00  0.00000000000E+00  0.20684951403E+01  0.20705847352E+01  0.93000000000E-01 0.  1.
          3   -1    0    0  501    0  0.00000000000E+00 -0.00000000000E+00 -0.48321726920E+02  0.48321816414E+02  0.93000000000E-01 0. -1.
       1023    2    1    2    0    0  0.00000000000E+00  0.00000000000E+00 -0.46253231780E+02  0.50392401149E+02  0.20000816071E+02 0.  0.
        -11    1    3    3    0    0  0.82390419866E+01  0.56678871186E+01 -0.23221000871E+02  0.25282832890E+02  0.51100000000E-03 0. -1.
         11    1    3    3    0    0 -0.82390419866E+01 -0.56678871186E+01 -0.23032230909E+02  0.25109568259E+02  0.51100000000E-03 0.  1.
<mgrwt>
<rscale>  0 0.20000816E+02</rscale>
<asrwt>0</asrwt>
<pdfrwt beam="2">  1        3 0.74342786E-02 0.20000816E+02</pdfrwt>
<pdfrwt beam="1">  1       -3 0.31839768E-03 0.20000816E+02</pdfrwt>
<totfact> 0.16186860E+06</totfact>
</mgrwt>
</event>
<event>
 4    1  0.4133473E-007  0.2002096E+02  0.7818608E-02  0.1744912E+00
          3   -1    0    0  501    0  0.00000000000E+00  0.00000000000E+00  0.88456018135E+02  0.88456067024E+02  0.93000000000E-01 0. -1.
         -3   -1    0    0    0  501 -0.00000000000E+00 -0.00000000000E+00 -0.11309176884E+01  0.11347351311E+01  0.93000000000E-01 0.  1.
        -11    1    1    2    0    0 -0.19640600944E+01  0.98122452788E+01  0.42462022078E+02  0.43625233624E+02  0.51100000000E-03 0. -1.
         11    1    1    2    0    0  0.19640600944E+01 -0.98122452788E+01  0.44863078368E+02  0.45965568531E+02  0.51100000000E-03 0.  1.
<mgrwt>
<rscale>  0 0.20020956E+02</rscale>
<asrwt>0</asrwt>
<pdfrwt beam="1">  1        3 0.13608911E-01 0.20020956E+02</pdfrwt>
<pdfrwt beam="2">  1       -3 0.17428481E-03 0.20020956E+02</pdfrwt>
<totfact> 0.14516463E+06</totfact>
</mgrwt>
</event>
<event>
 5    1  0.4133473E-007  0.2000590E+02  0.7818608E-02  0.1745211E+00
         -3   -1    0    0    0  501 -0.00000000000E+00  0.00000000000E+00  0.41754960083E+01  0.41765315652E+01  0.93000000000E-01 0.  1.
          3   -1    0    0  501    0  0.00000000000E+00 -0.00000000000E+00 -0.23959275461E+02  0.23959455954E+02  0.93000000000E-01 0. -1.
       1023    2    1    2    0    0  0.00000000000E+00  0.00000000000E+00 -0.19783779453E+02  0.28135987519E+02  0.20005895737E+02 0.  0.
        -11    1    3    3    0    0 -0.42879161688E+01 -0.90370153130E+01 -0.99922760963E+01  0.14138580292E+02  0.51100000000E-03 0.  1.
         11    1    3    3    0    0  0.42879161688E+01  0.90370153130E+01 -0.97915033563E+01  0.13997407227E+02  0.51100000000E-03 0. -1.
<mgrwt>
<rscale>  0 0.20005896E+02</rscale>
<asrwt>0</asrwt>
<pdfrwt beam="2">  1        3 0.36861358E-02 0.20005896E+02</pdfrwt>
<pdfrwt beam="1">  1       -3 0.64247756E-03 0.20005896E+02</pdfrwt>
<totfact> 0.17365310E+06</totfact>
</mgrwt>
</event>
<event>
 5    1  0.4148148E-007  0.2000067E+02  0.7818608E-02  0.1745315E+00
         -3   -1    0    0    0  501 -0.00000000000E+00  0.00000000000E+00  0.39201765802E+01  0.39212795641E+01  0.93000000000E-01 0. -1.
          3   -1    0    0  501    0  0.00000000000E+00 -0.00000000000E+00 -0.25505999853E+02  0.25506169401E+02  0.93000000000E-01 0.  1.
       1023    2    1    2    0    0  0.00000000000E+00  0.00000000000E+00 -0.21585823273E+02  0.29427448965E+02  0.20000674644E+02 0.  0.
        -11    1    3    3    0    0  0.12997754993E+01 -0.99152284532E+01 -0.10683057232E+02  0.14633143330E+02  0.51100000000E-03 0. -1.
         11    1    3    3    0    0 -0.12997754993E+01  0.99152284532E+01 -0.10902766041E+02  0.14794305636E+02  0.51100000000E-03 0.  1.
<mgrwt>
<rscale>  0 0.20000675E+02</rscale>
<asrwt>0</asrwt>
<pdfrwt beam="2">  1        3 0.39240978E-02 0.20000675E+02</pdfrwt>
<pdfrwt beam="1">  1       -3 0.60320199E-03 0.20000675E+02</pdfrwt>
<totfact> 0.17298649E+06</totfact>
</mgrwt>
</event>
<event>
 4    1  0.4133473E-007  0.2001815E+02  0.7818608E-02  0.1744967E+00
         -3   -1    0    0    0  501 -0.00000000000E+00  0.00000000000E+00  0.11580932473E+03  0.11580936207E+03  0.93000000000E-01 0.  1.
          3   -1    0    0  501    0  0.00000000000E+00 -0.00000000000E+00 -0.86251928392E+00  0.86751859642E+00  0.93000000000E-01 0. -1.
        -11    1    1    2    0    0 -0.86898404422E+01 -0.49578138290E+01  0.59205914367E+02  0.60045262437E+02  0.51100000000E-03 0. -1.
         11    1    1    2    0    0  0.86898404422E+01  0.49578138290E+01  0.55740891081E+02  0.56631618233E+02  0.51100000000E-03 0.  1.
<mgrwt>
<rscale>  0 0.20018152E+02</rscale>
<asrwt>0</asrwt>
<pdfrwt beam="2">  1        3 0.13308281E-03 0.20018152E+02</pdfrwt>
<pdfrwt beam="1">  1       -3 0.17817193E-01 0.20018152E+02</pdfrwt>
<totfact> 0.13601724E+06</totfact>
</mgrwt>
</event>
<event>
 5    1  0.4151464E-007  0.2000223E+02  0.7818608E-02  0.1745284E+00
         -3   -1    0    0    0  501 -0.00000000000E+00  0.00000000000E+00  0.12733430317E+02  0.12733769930E+02  0.93000000000E-01 0.  1.
          3   -1    0    0  501    0  0.00000000000E+00 -0.00000000000E+00 -0.78543767274E+01  0.78549272929E+01  0.93000000000E-01 0. -1.
       1023    2    1    2    0    0  0.00000000000E+00  0.00000000000E+00  0.48790535897E+01  0.20588697223E+02  0.20002232111E+02 0.  0.
        -11    1    3    3    0    0  0.62546369298E+01 -0.78032232072E+01  0.25501322439E+01  0.10320559591E+02  0.51100000000E-03 0. -1.
         11    1    3    3    0    0 -0.62546369298E+01  0.78032232072E+01  0.23289213458E+01  0.10268137633E+02  0.51100000000E-03 0.  1.
<mgrwt>
<rscale>  0 0.20002232E+02</rscale>
<asrwt>0</asrwt>
<pdfrwt beam="2">  1        3 0.12084341E-02 0.20002232E+02</pdfrwt>
<pdfrwt beam="1">  1       -3 0.19590578E-02 0.20002232E+02</pdfrwt>
<totfact> 0.17843073E+06</totfact>
</mgrwt>
</event>
<event>
 5    1  0.4133473E-007  0.2000141E+02  0.7818608E-02  0.1745300E+00
         -3   -1    0    0    0  501 -0.00000000000E+00  0.00000000000E+00  0.11533862449E+03  0.11533866199E+03  0.93000000000E-01 0.  1.
          3   -1    0    0  501    0  0.00000000000E+00 -0.00000000000E+00 -0.86460324468E+00  0.86959057649E+00  0.93000000000E-01 0. -1.
       1023    2    1    2    0    0  0.00000000000E+00  0.00000000000E+00  0.11447402125E+03  0.11620825256E+03  0.20001410527E+02 0.  0.
        -11    1    3    3    0    0 -0.90926577110E+01 -0.41635789921E+01  0.56958904039E+02  0.57830170014E+02  0.51100000000E-03 0. -1.
         11    1    3    3    0    0  0.90926577110E+01  0.41635789921E+01  0.57515117209E+02  0.58378082549E+02  0.51100000000E-03 0.  1.
<mgrwt>
<rscale>  0 0.20001411E+02</rscale>
<asrwt>0</asrwt>
<pdfrwt beam="2">  1        3 0.13340241E-03 0.20001411E+02</pdfrwt>
<pdfrwt beam="1">  1       -3 0.17744790E-01 0.20001411E+02</pdfrwt>
<totfact> 0.13641051E+06</totfact>
</mgrwt>
</event>
<event>
 5    1  0.4235195E-007  0.2000111E+02  0.7818608E-02  0.1745306E+00
          3   -1    0    0  501    0  0.00000000000E+00  0.00000000000E+00  0.45277084877E+01  0.45286635059E+01  0.93000000000E-01 0. -1.
         -3   -1    0    0    0  501 -0.00000000000E+00 -0.00000000000E+00 -0.22085286826E+02  0.22085482635E+02  0.93000000000E-01 0.  1.
       1023    2    1    2    0    0  0.00000000000E+00  0.00000000000E+00 -0.17557578339E+02  0.26614146140E+02  0.20001105411E+02 0.  0.
        -11    1    3    3    0    0  0.84726864306E+01 -0.53126802072E+01 -0.87678309394E+01  0.13299843833E+02  0.51100000000E-03 0.  1.
         11    1    3    3    0    0 -0.84726864306E+01  0.53126802072E+01 -0.87897473993E+01  0.13314302308E+02  0.51100000000E-03 0. -1.
<mgrwt>
<rscale>  0 0.20001105E+02</rscale>
<asrwt>0</asrwt>
<pdfrwt beam="1">  1        3 0.69665907E-03 0.20001105E+02</pdfrwt>
<pdfrwt beam="2">  1       -3 0.33978249E-02 0.20001105E+02</pdfrwt>
<totfact> 0.17467095E+06</totfact>
</mgrwt>
</event>
<event>
 5    1  0.4133473E-007  0.2000333E+02  0.7818608E-02  0.1745262E+00
          3   -1    0    0  501    0  0.00000000000E+00  0.00000000000E+00  0.37858360228E+01  0.37869781345E+01  0.93000000000E-01 0.  1.
         -3   -1    0    0    0  501 -0.00000000000E+00 -0.00000000000E+00 -0.26417834052E+02  0.26417997748E+02  0.93000000000E-01 0. -1.
       1023    2    1    2    0    0  0.00000000000E+00  0.00000000000E+00 -0.22631998029E+02  0.30204975882E+02  0.20003330554E+02 0.  0.
        -11    1    3    3    0    0  0.99428933414E+01  0.10824886188E+01 -0.11346140147E+02  0.15125072103E+02  0.51100000000E-03 0. -1.
         11    1    3    3    0    0 -0.99428933414E+01 -0.10824886188E+01 -0.11285857882E+02  0.15079903780E+02  0.51100000000E-03 0.  1.
<mgrwt>
<rscale>  0 0.20003331E+02</rscale>
<asrwt>0</asrwt>
<pdfrwt beam="1">  1        3 0.58253677E-03 0.20003331E+02</pdfrwt>
<pdfrwt beam="2">  1       -3 0.40643825E-02 0.20003331E+02</pdfrwt>
<totfact> 0.17249961E+06</totfact>
</mgrwt>
</event>
<event>
 5    1  0.4133473E-007  0.2000108E+02  0.7818608E-02  0.1745307E+00
          3   -1    0    0  501    0  0.00000000000E+00  0.00000000000E+00  0.50169396898E+02  0.50169483096E+02  0.93000000000E-01 0. -1.
         -3   -1    0    0    0  501 -0.00000000000E+00 -0.00000000000E+00 -0.19922888098E+01  0.19944582477E+01  0.93000000000E-01 0.  1.
       1023    2    1    2    0    0  0.00000000000E+00  0.00000000000E+00  0.48177108088E+02  0.52163941343E+02  0.20001075790E+02 0.  0.
        -11    1    3    3    0    0  0.71116798195E+01  0.70306224763E+01  0.23902015657E+02  0.25909689211E+02  0.51100000000E-03 0.  1.
         11    1    3    3    0    0 -0.71116798195E+01 -0.70306224763E+01  0.24275092431E+02  0.26254252133E+02  0.51100000000E-03 0. -1.
<mgrwt>
<rscale>  0 0.20001076E+02</rscale>
<asrwt>0</asrwt>
<pdfrwt beam="1">  1        3 0.77185426E-02 0.20001076E+02</pdfrwt>
<pdfrwt beam="2">  1       -3 0.30667947E-03 0.20001076E+02</pdfrwt>
<totfact> 0.16101810E+06</totfact>
</mgrwt>
</event>
<event>
 5    1  0.4387342E-007  0.2000203E+02  0.7818608E-02  0.1745288E+00
         -3   -1    0    0    0  501 -0.00000000000E+00  0.00000000000E+00  0.64544767500E+01  0.64551467154E+01  0.93000000000E-01 0.  1.
          3   -1    0    0  501    0  0.00000000000E+00 -0.00000000000E+00 -0.15494651989E+02  0.15494931083E+02  0.93000000000E-01 0. -1.
       1023    2    1    2    0    0  0.00000000000E+00  0.00000000000E+00 -0.90401752387E+01  0.21950077798E+02  0.20002028572E+02 0.  0.
        -11    1    3    3    0    0  0.35017355104E+01 -0.93678422301E+01 -0.45648909887E+01  0.10993491239E+02  0.51100000000E-03 0. -1.
         11    1    3    3    0    0 -0.35017355104E+01  0.93678422301E+01 -0.44752842500E+01  0.10956586558E+02  0.51100000000E-03 0.  1.
<mgrwt>
<rscale>  0 0.20002029E+02</rscale>
<asrwt>0</asrwt>
<pdfrwt beam="2">  1        3 0.23838656E-02 0.20002029E+02</pdfrwt>
<pdfrwt beam="1">  1       -3 0.99306943E-03 0.20002029E+02</pdfrwt>
<totfact> 0.17754769E+06</totfact>
</mgrwt>
</event>
<event>
 5    1  0.4440685E-007  0.2000099E+02  0.7818608E-02  0.1745308E+00
         -3   -1    0    0    0  501 -0.00000000000E+00  0.00000000000E+00  0.17224885157E+02  0.17225136216E+02  0.93000000000E-01 0.  1.
          3   -1    0    0  501    0  0.00000000000E+00 -0.00000000000E+00 -0.58054647662E+01  0.58062096200E+01  0.93000000000E-01 0. -1.
       1023    2    1    2    0    0  0.00000000000E+00  0.00000000000E+00  0.11419420391E+02  0.23031345836E+02  0.20000993200E+02 0.  0.
        -11    1    3    3    0    0  0.37917151948E+01 -0.92535611848E+01  0.57863808897E+01  0.11553687843E+02  0.51100000000E-03 0.  1.
         11    1    3    3    0    0 -0.37917151948E+01  0.92535611848E+01  0.56330395010E+01  0.11477657993E+02  0.51100000000E-03 0. -1.
<mgrwt>
<rscale>  0 0.20000993E+02</rscale>
<asrwt>0</asrwt>
<pdfrwt beam="2">  1        3 0.89322506E-03 0.20000993E+02</pdfrwt>
<pdfrwt beam="1">  1       -3 0.26500588E-02 0.20000993E+02</pdfrwt>
<totfact> 0.17688796E+06</totfact>
</mgrwt>
</event>
<event>
 4    1  0.4133473E-007  0.2004103E+02  0.7818608E-02  0.1744513E+00
         -3   -1    0    0    0  501 -0.00000000000E+00  0.00000000000E+00  0.31032892405E+02  0.31033031757E+02  0.93000000000E-01 0. -1.
          3   -1    0    0  501    0  0.00000000000E+00 -0.00000000000E+00 -0.32348086772E+01  0.32361452653E+01  0.93000000000E-01 0.  1.
        -11    1    1    2    0    0 -0.30332023191E+01  0.95498529346E+01  0.13721741637E+02  0.16990768117E+02  0.51100000000E-03 0.  1.
         11    1    1    2    0    0  0.30332023191E+01 -0.95498529346E+01  0.14076342091E+02  0.17278408905E+02  0.51100000000E-03 0. -1.
<mgrwt>
<rscale>  0 0.20041034E+02</rscale>
<asrwt>0</asrwt>
<pdfrwt beam="2">  1        3 0.49777639E-03 0.20041034E+02</pdfrwt>
<pdfrwt beam="1">  1       -3 0.47744048E-02 0.20041034E+02</pdfrwt>
<totfact> 0.16949745E+06</totfact>
</mgrwt>
</event>
<event>
 5    1  0.4133473E-007  0.2000257E+02  0.7818608E-02  0.1745277E+00
          3   -1    0    0  501    0  0.00000000000E+00  0.00000000000E+00  0.43961490311E+02  0.43961588681E+02  0.93000000000E-01 0.  1.
         -3   -1    0    0    0  501 -0.00000000000E+00 -0.00000000000E+00 -0.22742510949E+01  0.22761518058E+01  0.93000000000E-01 0. -1.
       1023    2    1    2    0    0  0.00000000000E+00  0.00000000000E+00  0.41687239216E+02  0.46237740487E+02  0.20002568132E+02 0.  0.
        -11    1    3    3    0    0 -0.96833275780E+01 -0.25015531322E+01  0.20767595001E+02  0.23050327621E+02  0.51100000000E-03 0.  1.
         11    1    3    3    0    0  0.96833275780E+01  0.25015531322E+01  0.20919644215E+02  0.23187412865E+02  0.51100000000E-03 0. -1.
<mgrwt>
<rscale>  0 0.20002568E+02</rscale>
<asrwt>0</asrwt>
<pdfrwt beam="1">  1        3 0.67634600E-02 0.20002568E+02</pdfrwt>
<pdfrwt beam="2">  1       -3 0.35003856E-03 0.20002568E+02</pdfrwt>
<totfact> 0.16387304E+06</totfact>
</mgrwt>
</event>
<event>
 5    1  0.4243242E-007  0.2000058E+02  0.7818608E-02  0.1745317E+00
         -3   -1    0    0    0  501 -0.00000000000E+00  0.00000000000E+00  0.16125932366E+02  0.16126200534E+02  0.93000000000E-01 0. -1.
          3   -1    0    0  501    0  0.00000000000E+00 -0.00000000000E+00 -0.62008835819E+01  0.62015809433E+01  0.93000000000E-01 0.  1.
       1023    2    1    2    0    0  0.00000000000E+00  0.00000000000E+00  0.99250487843E+01  0.22327781478E+02  0.20000580800E+02 0.  0.
        -11    1    3    3    0    0  0.92353974089E+01  0.38350807641E+01  0.48805040218E+01  0.11127431399E+02  0.51100000000E-03 0.  1.
         11    1    3    3    0    0 -0.92353974089E+01 -0.38350807641E+01  0.50445447625E+01  0.11200350079E+02  0.51100000000E-03 0. -1.
<mgrwt>
<rscale>  0 0.20000581E+02</rscale>
<asrwt>0</asrwt>
<pdfrwt beam="2">  1        3 0.95405636E-03 0.20000581E+02</pdfrwt>
<pdfrwt beam="1">  1       -3 0.24809869E-02 0.20000581E+02</pdfrwt>
<totfact> 0.17734227E+06</totfact>
</mgrwt>
</event>
<event>
 5    1  0.4163533E-007  0.2000105E+02  0.7818608E-02  0.1745307E+00
         -3   -1    0    0    0  501 -0.00000000000E+00  0.00000000000E+00  0.34328718623E+01  0.34341313636E+01  0.93000000000E-01 0.  1.
          3   -1    0    0  501    0  0.00000000000E+00 -0.00000000000E+00 -0.29126520178E+02  0.29126668650E+02  0.93000000000E-01 0. -1.
       1023    2    1    2    0    0  0.00000000000E+00  0.00000000000E+00 -0.25693648315E+02  0.32560800014E+02  0.20001053317E+02 0.  0.
        -11    1    3    3    0    0  0.86157571483E+01  0.50768914420E+01 -0.12955241919E+02  0.16365952200E+02  0.51100000000E-03 0.  1.
         11    1    3    3    0    0 -0.86157571483E+01 -0.50768914420E+01 -0.12738406396E+02  0.16194847814E+02  0.51100000000E-03 0. -1.
<mgrwt>
<rscale>  0 0.20001053E+02</rscale>
<asrwt>0</asrwt>
<pdfrwt beam="2">  1        3 0.44811113E-02 0.20001053E+02</pdfrwt>
<pdfrwt beam="1">  1       -3 0.52824246E-03 0.20001053E+02</pdfrwt>
<totfact> 0.17116967E+06</totfact>
</mgrwt>
</event>
<event>
 5    1  0.4133473E-007  0.2000765E+02  0.7818608E-02  0.1745176E+00
         -3   -1    0    0    0  501 -0.00000000000E+00  0.00000000000E+00  0.33296153324E+01  0.33309138779E+01  0.93000000000E-01 0. -1.
          3   -1    0    0  501    0  0.00000000000E+00 -0.00000000000E+00 -0.30049235132E+02  0.30049379045E+02  0.93000000000E-01 0.  1.
       1023    2    1    2    0    0  0.00000000000E+00  0.00000000000E+00 -0.26719619799E+02  0.33380292923E+02  0.20007645374E+02 0.  0.
        -11    1    3    3    0    0  0.91566223883E+01 -0.40250746249E+01 -0.13063661051E+02  0.16453090884E+02  0.51100000000E-03 0. -1.
         11    1    3    3    0    0 -0.91566223883E+01  0.40250746249E+01 -0.13655958748E+02  0.16927202040E+02  0.51100000000E-03 0.  1.
<mgrwt>
<rscale>  0 0.20007645E+02</rscale>
<asrwt>0</asrwt>
<pdfrwt beam="2">  1        3 0.46230700E-02 0.20007645E+02</pdfrwt>
<pdfrwt beam="1">  1       -3 0.51235949E-03 0.20007645E+02</pdfrwt>
<totfact> 0.17058499E+06</totfact>
</mgrwt>
</event>
<event>
 5    1  0.4133473E-007  0.2001165E+02  0.7818608E-02  0.1745097E+00
         -3   -1    0    0    0  501 -0.00000000000E+00  0.00000000000E+00  0.22068064483E+02  0.22068260444E+02  0.93000000000E-01 0. -1.
          3   -1    0    0  501    0  0.00000000000E+00 -0.00000000000E+00 -0.45360225817E+01  0.45369758498E+01  0.93000000000E-01 0.  1.
       1023    2    1    2    0    0  0.00000000000E+00  0.00000000000E+00  0.17532041901E+02  0.26605236293E+02  0.20011649233E+02 0.  0.
        -11    1    3    3    0    0  0.99824736077E+01 -0.63532888159E+00  0.84320472545E+01  0.13082539634E+02  0.51100000000E-03 0. -1.
         11    1    3    3    0    0 -0.99824736077E+01  0.63532888159E+00  0.90999946464E+01  0.13522696659E+02  0.51100000000E-03 0.  1.
<mgrwt>
<rscale>  0 0.20011649E+02</rscale>
<asrwt>0</asrwt>
<pdfrwt beam="2">  1        3 0.69793802E-03 0.20011649E+02</pdfrwt>
<pdfrwt beam="1">  1       -3 0.33951753E-02 0.20011649E+02</pdfrwt>
<totfact> 0.17447826E+06</totfact>
</mgrwt>
</event>
<event>
 5    1  0.4264629E-007  0.2000122E+02  0.7818608E-02  0.1745304E+00
          3   -1    0    0  501    0  0.00000000000E+00  0.00000000000E+00  0.26511326091E+02  0.26511489210E+02  0.93000000000E-01 0.  1.
         -3   -1    0    0    0  501 -0.00000000000E+00 -0.00000000000E+00 -0.37716851871E+01  0.37728315826E+01  0.93000000000E-01 0. -1.
       1023    2    1    2    0    0  0.00000000000E+00  0.00000000000E+00  0.22739640904E+02  0.30284320793E+02  0.20001220398E+02 0.  0.
        -11    1    3    3    0    0  0.99625847825E+01 -0.86903331782E+00  0.11275389210E+02  0.15071254644E+02  0.51100000000E-03 0. -1.
         11    1    3    3    0    0 -0.99625847825E+01  0.86903331782E+00  0.11464251694E+02  0.15213066148E+02  0.51100000000E-03 0.  1.
<mgrwt>
<rscale>  0 0.20001220E+02</rscale>
<asrwt>0</asrwt>
<pdfrwt beam="1">  1        3 0.40787664E-02 0.20001220E+02</pdfrwt>
<pdfrwt beam="2">  1       -3 0.58035998E-03 0.20001220E+02</pdfrwt>
<totfact> 0.17247567E+06</totfact>
</mgrwt>
</event>
<event>
 5    1  0.4133473E-007  0.2000213E+02  0.7818608E-02  0.1745286E+00
         -3   -1    0    0    0  501 -0.00000000000E+00  0.00000000000E+00  0.18141457676E+01  0.18165279701E+01  0.93000000000E-01 0. -1.
          3   -1    0    0  501    0  0.00000000000E+00 -0.00000000000E+00 -0.55095529469E+02  0.55095607960E+02  0.93000000000E-01 0.  1.
       1023    2    1    2    0    0  0.00000000000E+00  0.00000000000E+00 -0.53281383701E+02  0.56912135930E+02  0.20002134060E+02 0.  0.
        -11    1    3    3    0    0 -0.63082091691E+01 -0.77602027950E+01 -0.26401091976E+02  0.28231753543E+02  0.51100000000E-03 0.  1.
         11    1    3    3    0    0  0.63082091691E+01  0.77602027950E+01 -0.26880291725E+02  0.28680382386E+02  0.51100000000E-03 0. -1.
<mgrwt>
<rscale>  0 0.20002134E+02</rscale>
<asrwt>0</asrwt>
<pdfrwt beam="2">  1        3 0.84764233E-02 0.20002134E+02</pdfrwt>
<pdfrwt beam="1">  1       -3 0.27928868E-03 0.20002134E+02</pdfrwt>
<totfact> 0.15879242E+06</totfact>
</mgrwt>
</event>
<event>
 5    1  0.4198793E-007  0.2000116E+02  0.7818608E-02  0.1745305E+00
          3   -1    0    0  501    0  0.00000000000E+00  0.00000000000E+00  0.24852589761E+02  0.24852763766E+02  0.93000000000E-01 0.  1.
         -3   -1    0    0    0  501 -0.00000000000E+00 -0.00000000000E+00 -0.40234682105E+01  0.40245428860E+01  0.93000000000E-01 0. -1.
       1023    2    1    2    0    0  0.00000000000E+00  0.00000000000E+00  0.20829121551E+02  0.28877306652E+02  0.20001163339E+02 0.  0.
        -11    1    3    3    0    0  0.91467377252E+01  0.40431054307E+01  0.10481052084E+02  0.14486613324E+02  0.51100000000E-03 0.  1.
         11    1    3    3    0    0 -0.91467377252E+01 -0.40431054307E+01  0.10348069466E+02  0.14390693329E+02  0.51100000000E-03 0. -1.
<mgrwt>
<rscale>  0 0.20001163E+02</rscale>
<asrwt>0</asrwt>
<pdfrwt beam="1">  1        3 0.38235714E-02 0.20001163E+02</pdfrwt>
<pdfrwt beam="2">  1       -3 0.61909116E-03 0.20001163E+02</pdfrwt>
<totfact> 0.17330148E+06</totfact>
</mgrwt>
</event>
<event>
 4    1  0.4133473E-007  0.2005716E+02  0.7818608E-02  0.1744194E+00
          3   -1    0    0  501    0  0.00000000000E+00  0.00000000000E+00  0.29282064811E+01  0.29296829515E+01  0.93000000000E-01 0. -1.
         -3   -1    0    0    0  501 -0.00000000000E+00 -0.00000000000E+00 -0.34335897028E+02  0.34336022975E+02  0.93000000000E-01 0.  1.
        -11    1    1    2    0    0 -0.96622807751E+01  0.26760771542E+01 -0.16125053534E+02  0.18987849021E+02  0.51100000000E-03 0. -1.
         11    1    1    2    0    0  0.96622807751E+01 -0.26760771542E+01 -0.15282637012E+02  0.18277856905E+02  0.51100000000E-03 0.  1.
<mgrwt>
<rscale>  0 0.20057164E+02</rscale>
<asrwt>0</asrwt>
<pdfrwt beam="1">  1        3 0.45061659E-03 0.20057164E+02</pdfrwt>
<pdfrwt beam="2">  1       -3 0.52825687E-02 0.20057164E+02</pdfrwt>
<totfact> 0.16756945E+06</totfact>
</mgrwt>
</event>
<event>
 5    1  0.4328960E-007  0.2000070E+02  0.7818608E-02  0.1745314E+00
          3   -1    0    0  501    0  0.00000000000E+00  0.00000000000E+00  0.41722314359E+01  0.41732678029E+01  0.93000000000E-01 0. -1.
         -3   -1    0    0    0  501 -0.00000000000E+00 -0.00000000000E+00 -0.23965557555E+02  0.23965738000E+02  0.93000000000E-01 0.  1.
       1023    2    1    2    0    0  0.00000000000E+00  0.00000000000E+00 -0.19793326119E+02  0.28139005803E+02  0.20000697207E+02 0.  0.
        -11    1    3    3    0    0  0.51475415511E+01 -0.85734850942E+01 -0.99975413841E+01  0.14140461968E+02  0.51100000000E-03 0.  1.
         11    1    3    3    0    0 -0.51475415511E+01  0.85734850942E+01 -0.97957847346E+01  0.13998543835E+02  0.51100000000E-03 0. -1.
<mgrwt>
<rscale>  0 0.20000697E+02</rscale>
<asrwt>0</asrwt>
<pdfrwt beam="1">  1        3 0.64197537E-03 0.20000697E+02</pdfrwt>
<pdfrwt beam="2">  1       -3 0.36871024E-02 0.20000697E+02</pdfrwt>
<totfact> 0.17376376E+06</totfact>
</mgrwt>
</event>
<event>
 5    1  0.4133473E-007  0.2000234E+02  0.7818608E-02  0.1745281E+00
         -3   -1    0    0    0  501 -0.00000000000E+00  0.00000000000E+00  0.34101719727E+01  0.34114398549E+01  0.93000000000E-01 0. -1.
          3   -1    0    0  501    0  0.00000000000E+00 -0.00000000000E+00 -0.29324113259E+02  0.29324260731E+02  0.93000000000E-01 0.  1.
       1023    2    1    2    0    0  0.00000000000E+00  0.00000000000E+00 -0.25913941286E+02  0.32735700586E+02  0.20002343359E+02 0.  0.
        -11    1    3    3    0    0 -0.95849935055E+01 -0.28546801728E+01 -0.12881344517E+02  0.16307983819E+02  0.51100000000E-03 0.  1.
         11    1    3    3    0    0  0.95849935055E+01  0.28546801728E+01 -0.13032596769E+02  0.16427716767E+02  0.51100000000E-03 0. -1.
<mgrwt>
<rscale>  0 0.20002343E+02</rscale>
<asrwt>0</asrwt>
<pdfrwt beam="2">  1        3 0.45115107E-02 0.20002343E+02</pdfrwt>
<pdfrwt beam="1">  1       -3 0.52475073E-03 0.20002343E+02</pdfrwt>
<totfact> 0.17104662E+06</totfact>
</mgrwt>
</event>
<event>
 5    1  0.4142159E-007  0.2000098E+02  0.7818608E-02  0.1745309E+00
         -3   -1    0    0    0  501 -0.00000000000E+00  0.00000000000E+00  0.17034227109E+01  0.17059595341E+01  0.93000000000E-01 0.  1.
          3   -1    0    0  501    0  0.00000000000E+00 -0.00000000000E+00 -0.58664836248E+02  0.58664909963E+02  0.93000000000E-01 0. -1.
       1023    2    1    2    0    0  0.00000000000E+00  0.00000000000E+00 -0.56961413537E+02  0.60370869497E+02  0.20000981269E+02 0.  0.
        -11    1    3    3    0    0  0.33171061687E+01  0.94343228947E+01 -0.28520160708E+02  0.30222660519E+02  0.51100000000E-03 0.  1.
         11    1    3    3    0    0 -0.33171061687E+01 -0.94343228947E+01 -0.28441252829E+02  0.30148208978E+02  0.51100000000E-03 0. -1.
<mgrwt>
<rscale>  0 0.20000981E+02</rscale>
<asrwt>0</asrwt>
<pdfrwt beam="2">  1        3 0.90255587E-02 0.20000981E+02</pdfrwt>
<pdfrwt beam="1">  1       -3 0.26226589E-03 0.20000981E+02</pdfrwt>
<totfact> 0.15725440E+06</totfact>
</mgrwt>
</event>
<event>
 5    1  0.4133473E-007  0.2000295E+02  0.7818608E-02  0.1745269E+00
          3   -1    0    0  501    0  0.00000000000E+00  0.00000000000E+00  0.31621644577E+01  0.31635317380E+01  0.93000000000E-01 0.  1.
         -3   -1    0    0    0  501 -0.00000000000E+00 -0.00000000000E+00 -0.31624974879E+02  0.31625111622E+02  0.93000000000E-01 0. -1.
       1023    2    1    2    0    0  0.00000000000E+00  0.00000000000E+00 -0.28462810421E+02  0.34788643360E+02  0.20002953026E+02 0.  0.
        -11    1    3    3    0    0 -0.57941207952E+00 -0.99846572676E+01 -0.14195212559E+02  0.17364710161E+02  0.51100000000E-03 0.  1.
         11    1    3    3    0    0  0.57941207952E+00  0.99846572676E+01 -0.14267597862E+02  0.17423933199E+02  0.51100000000E-03 0. -1.
<mgrwt>
<rscale>  0 0.20002953E+02</rscale>
<asrwt>0</asrwt>
<pdfrwt beam="1">  1        3 0.48660255E-03 0.20002953E+02</pdfrwt>
<pdfrwt beam="2">  1       -3 0.48654962E-02 0.20002953E+02</pdfrwt>
<totfact> 0.16990358E+06</totfact>
</mgrwt>
</event>
<event>
 5    1  0.4133473E-007  0.2000039E+02  0.7818608E-02  0.1745320E+00
         -3   -1    0    0    0  501 -0.00000000000E+00  0.00000000000E+00  0.70209513160E+02  0.70209574754E+02  0.93000000000E-01 0. -1.
          3   -1    0    0  501    0  0.00000000000E+00 -0.00000000000E+00 -0.14227841926E+01  0.14258204160E+01  0.93000000000E-01 0.  1.
       1023    2    1    2    0    0  0.00000000000E+00  0.00000000000E+00  0.68786728968E+02  0.71635395170E+02  0.20000393975E+02 0.  0.
        -11    1    3    3    0    0 -0.48835072698E+01  0.87264938427E+01  0.34608310804E+02  0.36024096311E+02  0.51100000000E-03 0.  1.
         11    1    3    3    0    0  0.48835072698E+01 -0.87264938427E+01  0.34178418164E+02  0.35611298860E+02  0.51100000000E-03 0. -1.
<mgrwt>
<rscale>  0 0.20000394E+02</rscale>
<asrwt>0</asrwt>
<pdfrwt beam="2">  1        3 0.21912818E-03 0.20000394E+02</pdfrwt>
<pdfrwt beam="1">  1       -3 0.10801701E-01 0.20000394E+02</pdfrwt>
<totfact> 0.15247758E+06</totfact>
</mgrwt>
</event>
<event>
 5    1  0.4133473E-007  0.2000022E+02  0.7818608E-02  0.1745324E+00
          3   -1    0    0  501    0  0.00000000000E+00  0.00000000000E+00  0.99811457638E+01  0.99815790213E+01  0.93000000000E-01 0. -1.
         -3   -1    0    0    0  501 -0.00000000000E+00 -0.00000000000E+00 -0.10018241225E+02  0.10018672879E+02  0.93000000000E-01 0.  1.
       1023    2    1    2    0    0  0.00000000000E+00  0.00000000000E+00 -0.37095461501E-01  0.20000251900E+02  0.20000217498E+02 0.  0.
        -11    1    3    3    0    0  0.77423294131E+01  0.63291283336E+01  0.68399342158E-02  0.10000078862E+02  0.51100000000E-03 0.  1.
         11    1    3    3    0    0 -0.77423294131E+01 -0.63291283336E+01 -0.43935395717E-01  0.10000173038E+02  0.51100000000E-03 0. -1.
<mgrwt>
<rscale>  0 0.20000217E+02</rscale>
<asrwt>0</asrwt>
<pdfrwt beam="1">  1        3 0.15356274E-02 0.20000217E+02</pdfrwt>
<pdfrwt beam="2">  1       -3 0.15413344E-02 0.20000217E+02</pdfrwt>
<totfact> 0.17885195E+06</totfact>
</mgrwt>
</event>
<event>
 5    1  0.4133473E-007  0.2000445E+02  0.7818608E-02  0.1745240E+00
          3   -1    0    0  501    0  0.00000000000E+00  0.00000000000E+00  0.94096705409E+00  0.94555168917E+00  0.93000000000E-01 0. -1.
         -3   -1    0    0    0  501 -0.00000000000E+00 -0.00000000000E+00 -0.10605790718E+03  0.10605794795E+03  0.93000000000E-01 0.  1.
       1023    2    1    2    0    0  0.00000000000E+00  0.00000000000E+00 -0.10511694012E+03  0.10700349964E+03  0.20004445372E+02 0.  0.
        -11    1    3    3    0    0  0.75264581661E+01  0.65875725968E+01 -0.52409738103E+02  0.53355640129E+02  0.51100000000E-03 0. -1.
         11    1    3    3    0    0 -0.75264581661E+01 -0.65875725968E+01 -0.52707202020E+02  0.53647859512E+02  0.51100000000E-03 0.  1.
<mgrwt>
<rscale>  0 0.20004445E+02</rscale>
<asrwt>0</asrwt>
<pdfrwt beam="1">  1        3 0.14512005E-03 0.20004445E+02</pdfrwt>
<pdfrwt beam="2">  1       -3 0.16316948E-01 0.20004445E+02</pdfrwt>
<totfact> 0.13936247E+06</totfact>
</mgrwt>
</event>
<event>
 5    1  0.4133473E-007  0.2000021E+02  0.7818608E-02  0.1745324E+00
          3   -1    0    0  501    0  0.00000000000E+00  0.00000000000E+00  0.55208893940E+01  0.55216726361E+01  0.93000000000E-01 0.  1.
         -3   -1    0    0    0  501 -0.00000000000E+00 -0.00000000000E+00 -0.18111222710E+02  0.18111461483E+02  0.93000000000E-01 0. -1.
       1023    2    1    2    0    0  0.00000000000E+00  0.00000000000E+00 -0.12590333316E+02  0.23633134119E+02  0.20000213381E+02 0.  0.
        -11    1    3    3    0    0 -0.99670322520E+01  0.81179411963E+00 -0.63392525399E+01  0.11840053405E+02  0.51100000000E-03 0. -1.
         11    1    3    3    0    0  0.99670322520E+01 -0.81179411963E+00 -0.62510807763E+01  0.11793080714E+02  0.51100000000E-03 0.  1.
<mgrwt>
<rscale>  0 0.20000213E+02</rscale>
<asrwt>0</asrwt>
<pdfrwt beam="1">  1        3 0.84944623E-03 0.20000213E+02</pdfrwt>
<pdfrwt beam="2">  1       -3 0.27864205E-02 0.20000213E+02</pdfrwt>
<totfact> 0.17652441E+06</totfact>
</mgrwt>
</event>
<event>
 5    1  0.4133473E-007  0.2000171E+02  0.7818608E-02  0.1745294E+00
          3   -1    0    0  501    0  0.00000000000E+00  0.00000000000E+00  0.93528956495E+02  0.93529002732E+02  0.93000000000E-01 0.  1.
         -3   -1    0    0    0  501 -0.00000000000E+00 -0.00000000000E+00 -0.10673018029E+01  0.10713459472E+01  0.93000000000E-01 0. -1.
       1023    2    1    2    0    0  0.00000000000E+00  0.00000000000E+00  0.92461654692E+02  0.94600348679E+02  0.20001709473E+02 0.  0.
        -11    1    3    3    0    0  0.19248103537E+01 -0.98138691288E+01  0.46168615279E+02  0.47239368743E+02  0.51100000000E-03 0. -1.
         11    1    3    3    0    0 -0.19248103537E+01  0.98138691288E+01  0.46293039413E+02  0.47360979936E+02  0.51100000000E-03 0.  1.
<mgrwt>
<rscale>  0 0.20001709E+02</rscale>
<asrwt>0</asrwt>
<pdfrwt beam="1">  1        3 0.14389387E-01 0.20001709E+02</pdfrwt>
<pdfrwt beam="2">  1       -3 0.16451490E-03 0.20001709E+02</pdfrwt>
<totfact> 0.14365151E+06</totfact>
</mgrwt>
</event>
<event>
 5    1  0.4133473E-007  0.2000462E+02  0.7818608E-02  0.1745236E+00
         -3   -1    0    0    0  501 -0.00000000000E+00  0.00000000000E+00  0.18178756716E+01  0.18202529926E+01  0.93000000000E-01 0. -1.
          3   -1    0    0  501    0  0.00000000000E+00 -0.00000000000E+00 -0.54996327353E+02  0.54996405985E+02  0.93000000000E-01 0.  1.
       1023    2    1    2    0    0  0.00000000000E+00  0.00000000000E+00 -0.53178451681E+02  0.56816658978E+02  0.20004624820E+02 0.  0.
        -11    1    3    3    0    0  0.14483592662E+01 -0.98949151331E+01 -0.27151288264E+02  0.28934400715E+02  0.51100000000E-03 0.  1.
         11    1    3    3    0    0 -0.14483592662E+01  0.98949151331E+01 -0.26027163417E+02  0.27882258263E+02  0.51100000000E-03 0. -1.
<mgrwt>
<rscale>  0 0.20004625E+02</rscale>
<asrwt>0</asrwt>
<pdfrwt beam="2">  1        3 0.84611611E-02 0.20004625E+02</pdfrwt>
<pdfrwt beam="1">  1       -3 0.27986214E-03 0.20004625E+02</pdfrwt>
<totfact> 0.15879351E+06</totfact>
</mgrwt>
</event>
<event>
 5    1  0.4133473E-007  0.2000043E+02  0.7818608E-02  0.1745319E+00
          3   -1    0    0  501    0  0.00000000000E+00  0.00000000000E+00  0.57244225835E+01  0.57251779810E+01  0.93000000000E-01 0.  1.
         -3   -1    0    0    0  501 -0.00000000000E+00 -0.00000000000E+00 -0.17467735581E+02  0.17467983150E+02  0.93000000000E-01 0. -1.
       1023    2    1    2    0    0  0.00000000000E+00  0.00000000000E+00 -0.11743312998E+02  0.23193161131E+02  0.20000433073E+02 0.  0.
        -11    1    3    3    0    0 -0.67183595238E+01 -0.74072893167E+01 -0.58642494663E+01  0.11592830188E+02  0.51100000000E-03 0.  1.
         11    1    3    3    0    0  0.67183595238E+01  0.74072893167E+01 -0.58790635314E+01  0.11600330943E+02  0.51100000000E-03 0. -1.
<mgrwt>
<rscale>  0 0.20000433E+02</rscale>
<asrwt>0</asrwt>
<pdfrwt beam="1">  1        3 0.88075756E-03 0.20000433E+02</pdfrwt>
<pdfrwt beam="2">  1       -3 0.26874211E-02 0.20000433E+02</pdfrwt>
<totfact> 0.17679657E+06</totfact>
</mgrwt>
</event>
<event>
 5    1  0.4133473E-007  0.2000342E+02  0.7818608E-02  0.1745260E+00
          3   -1    0    0  501    0  0.00000000000E+00  0.00000000000E+00  0.53041834541E+02  0.53041916071E+02  0.93000000000E-01 0.  1.
         -3   -1    0    0    0  501 -0.00000000000E+00 -0.00000000000E+00 -0.18847199558E+01  0.18870130661E+01  0.93000000000E-01 0. -1.
       1023    2    1    2    0    0  0.00000000000E+00  0.00000000000E+00  0.51157114585E+02  0.54928929137E+02  0.20003421794E+02 0.  0.
        -11    1    3    3    0    0 -0.54507335769E+01  0.83840893442E+01  0.26060239052E+02  0.27913070601E+02  0.51100000000E-03 0. -1.
         11    1    3    3    0    0  0.54507335769E+01 -0.83840893442E+01  0.25096875532E+02  0.27015858535E+02  0.51100000000E-03 0.  1.
<mgrwt>
<rscale>  0 0.20003422E+02</rscale>
<asrwt>0</asrwt>
<pdfrwt beam="1">  1        3 0.81604640E-02 0.20003422E+02</pdfrwt>
<pdfrwt beam="2">  1       -3 0.29013961E-03 0.20003422E+02</pdfrwt>
<totfact> 0.15968204E+06</totfact>
</mgrwt>
</event>
<event>
 5    1  0.4133473E-007  0.2000032E+02  0.7818608E-02  0.1745322E+00
         -3   -1    0    0    0  501 -0.00000000000E+00  0.00000000000E+00  0.94838456514E+00  0.95293351468E+00  0.93000000000E-01 0.  1.
          3   -1    0    0  501    0  0.00000000000E+00 -0.00000000000E+00 -0.10518903117E+03  0.10518907228E+03  0.93000000000E-01 0. -1.
       1023    2    1    2    0    0  0.00000000000E+00  0.00000000000E+00 -0.10424064661E+03  0.10614200580E+03  0.20000324745E+02 0.  0.
        -11    1    3    3    0    0 -0.23979411577E+01  0.97082914217E+01 -0.51871227728E+02  0.52826369461E+02  0.51100000000E-03 0.  1.
         11    1    3    3    0    0  0.23979411577E+01 -0.97082914217E+01 -0.52369418880E+02  0.53315636339E+02  0.51100000000E-03 0. -1.
<mgrwt>
<rscale>  0 0.20000325E+02</rscale>
<asrwt>0</asrwt>
<pdfrwt beam="2">  1        3 0.16183272E-01 0.20000325E+02</pdfrwt>
<pdfrwt beam="1">  1       -3 0.14625848E-03 0.20000325E+02</pdfrwt>
<totfact> 0.13968426E+06</totfact>
</mgrwt>
</event>
<event>
 5    1  0.4133473E-007  0.2000385E+02  0.7818608E-02  0.1745251E+00
          3   -1    0    0  501    0  0.00000000000E+00  0.00000000000E+00  0.20955208239E+01  0.20975834961E+01  0.93000000000E-01 0. -1.
         -3   -1    0    0    0  501 -0.00000000000E+00 -0.00000000000E+00 -0.47713633998E+02  0.47713724633E+02  0.93000000000E-01 0.  1.
       1023    2    1    2    0    0  0.00000000000E+00  0.00000000000E+00 -0.45618113174E+02  0.49811308129E+02  0.20003853826E+02 0.  0.
        -11    1    3    3    0    0  0.95895520485E+01  0.28421953086E+01 -0.22886170947E+02  0.24976276815E+02  0.51100000000E-03 0. -1.
         11    1    3    3    0    0 -0.95895520485E+01 -0.28421953086E+01 -0.22731942227E+02  0.24835031313E+02  0.51100000000E-03 0.  1.
<mgrwt>
<rscale>  0 0.20003854E+02</rscale>
<asrwt>0</asrwt>
<pdfrwt beam="1">  1        3 0.32255349E-03 0.20003854E+02</pdfrwt>
<pdfrwt beam="2">  1       -3 0.73407239E-02 0.20003854E+02</pdfrwt>
<totfact> 0.16212157E+06</totfact>
</mgrwt>
</event>
<event>
 5    1  0.4201601E-007  0.2000060E+02  0.7818608E-02  0.1745316E+00
          3   -1    0    0  501    0  0.00000000000E+00  0.00000000000E+00  0.68395341981E+01  0.68401664488E+01  0.93000000000E-01 0. -1.
         -3   -1    0    0    0  501 -0.00000000000E+00 -0.00000000000E+00 -0.14620297156E+02  0.14620592941E+02  0.93000000000E-01 0.  1.
       1023    2    1    2    0    0  0.00000000000E+00  0.00000000000E+00 -0.77807629579E+01  0.21460759389E+02  0.20000598025E+02 0.  0.
        -11    1    3    3    0    0  0.12779855616E+01  0.99182232463E+01 -0.38477219842E+01  0.10714913168E+02  0.51100000000E-03 0. -1.
         11    1    3    3    0    0 -0.12779855616E+01 -0.99182232463E+01 -0.39330409738E+01  0.10745846222E+02  0.51100000000E-03 0.  1.
<mgrwt>
<rscale>  0 0.20000598E+02</rscale>
<asrwt>0</asrwt>
<pdfrwt beam="1">  1        3 0.10523074E-02 0.20000598E+02</pdfrwt>
<pdfrwt beam="2">  1       -3 0.22493479E-02 0.20000598E+02</pdfrwt>
<totfact> 0.17789684E+06</totfact>
</mgrwt>
</event>
<event>
 5    1  0.4358361E-007  0.2000098E+02  0.7818608E-02  0.1745309E+00
         -3   -1    0    0    0  501 -0.00000000000E+00  0.00000000000E+00  0.10532529433E+02  0.10532940011E+02  0.93000000000E-01 0. -1.
          3   -1    0    0  501    0  0.00000000000E+00 -0.00000000000E+00 -0.94945030016E+01  0.94949584648E+01  0.93000000000E-01 0.  1.
       1023    2    1    2    0    0  0.00000000000E+00  0.00000000000E+00  0.10380264318E+01  0.20027898475E+02  0.20000980438E+02 0.  0.
        -11    1    3    3    0    0  0.92283813980E+01 -0.38522718674E+01  0.60148052176E+00  0.10018223438E+02  0.51100000000E-03 0. -1.
         11    1    3    3    0    0 -0.92283813980E+01  0.38522718674E+01  0.43654591008E+00  0.10009675038E+02  0.51100000000E-03 0.  1.
<mgrwt>
<rscale>  0 0.20000980E+02</rscale>
<asrwt>0</asrwt>
<pdfrwt beam="2">  1        3 0.14607594E-02 0.20000980E+02</pdfrwt>
<pdfrwt beam="1">  1       -3 0.16204558E-02 0.20000980E+02</pdfrwt>
<totfact> 0.17881971E+06</totfact>
</mgrwt>
</event>
<event>
 5    1  0.4133473E-007  0.2000044E+02  0.7818608E-02  0.1745319E+00
         -3   -1    0    0    0  501 -0.00000000000E+00  0.00000000000E+00  0.29992215814E+01  0.30006631092E+01  0.93000000000E-01 0.  1.
          3   -1    0    0  501    0  0.00000000000E+00 -0.00000000000E+00 -0.33333925650E+02  0.33334055383E+02  0.93000000000E-01 0. -1.
       1023    2    1    2    0    0  0.00000000000E+00  0.00000000000E+00 -0.30334704069E+02  0.36334718492E+02  0.20000437419E+02 0.  0.
        -11    1    3    3    0    0 -0.69760083107E+01 -0.71651057852E+01 -0.15223083749E+02  0.18213887887E+02  0.51100000000E-03 0. -1.
         11    1    3    3    0    0  0.69760083107E+01  0.71651057852E+01 -0.15111620320E+02  0.18120830605E+02  0.51100000000E-03 0.  1.
<mgrwt>
<rscale>  0 0.20000437E+02</rscale>
<asrwt>0</asrwt>
<pdfrwt beam="2">  1        3 0.51284169E-02 0.20000437E+02</pdfrwt>
<pdfrwt beam="1">  1       -3 0.46153959E-03 0.20000437E+02</pdfrwt>
<totfact> 0.16907843E+06</totfact>
</mgrwt>
</event>
<event>
 5    1  0.4199717E-007  0.2000128E+02  0.7818608E-02  0.1745303E+00
          3   -1    0    0  501    0  0.00000000000E+00  0.00000000000E+00  0.15910265897E+02  0.15910537700E+02  0.93000000000E-01 0.  1.
         -3   -1    0    0    0  501 -0.00000000000E+00 -0.00000000000E+00 -0.62853828287E+01  0.62860708159E+01  0.93000000000E-01 0. -1.
       1023    2    1    2    0    0  0.00000000000E+00  0.00000000000E+00  0.96248830682E+01  0.22196608516E+02  0.20001276348E+02 0.  0.
        -11    1    3    3    0    0 -0.81146604716E+01 -0.58450875722E+01  0.48118065180E+01  0.11098028903E+02  0.51100000000E-03 0. -1.
         11    1    3    3    0    0  0.81146604716E+01  0.58450875722E+01  0.48130765502E+01  0.11098579613E+02  0.51100000000E-03 0.  1.
<mgrwt>
<rscale>  0 0.20001276E+02</rscale>
<asrwt>0</asrwt>
<pdfrwt beam="1">  1        3 0.24478070E-02 0.20001276E+02</pdfrwt>
<pdfrwt beam="2">  1       -3 0.96705581E-03 0.20001276E+02</pdfrwt>
<totfact> 0.17740426E+06</totfact>
</mgrwt>
</event>
<event>
 5    1  0.4158229E-007  0.2000041E+02  0.7818608E-02  0.1745320E+00
          3   -1    0    0  501    0  0.00000000000E+00  0.00000000000E+00  0.13362927390E+02  0.13363251005E+02  0.93000000000E-01 0. -1.
         -3   -1    0    0    0  501 -0.00000000000E+00 -0.00000000000E+00 -0.74829934399E+01  0.74835713280E+01  0.93000000000E-01 0.  1.
       1023    2    1    2    0    0  0.00000000000E+00  0.00000000000E+00  0.58799339502E+01  0.20846822333E+02  0.20000409449E+02 0.  0.
        -11    1    3    3    0    0 -0.70783772514E+01  0.70638734132E+01  0.28893080414E+01  0.10409122601E+02  0.51100000000E-03 0.  1.
         11    1    3    3    0    0  0.70783772514E+01 -0.70638734132E+01  0.29906259089E+01  0.10437699732E+02  0.51100000000E-03 0. -1.
<mgrwt>
<rscale>  0 0.20000409E+02</rscale>
<asrwt>0</asrwt>
<pdfrwt beam="1">  1        3 0.20559043E-02 0.20000409E+02</pdfrwt>
<pdfrwt beam="2">  1       -3 0.11512991E-02 0.20000409E+02</pdfrwt>
<totfact> 0.17829288E+06</totfact>
</mgrwt>
</event>
<event>
 5    1  0.4189402E-007  0.2000128E+02  0.7818608E-02  0.1745303E+00
          3   -1    0    0  501    0  0.00000000000E+00  0.00000000000E+00  0.45076494970E+01  0.45086087641E+01  0.93000000000E-01 0.  1.
         -3   -1    0    0    0  501 -0.00000000000E+00 -0.00000000000E+00 -0.22183929970E+02  0.22184124908E+02  0.93000000000E-01 0. -1.
       1023    2    1    2    0    0  0.00000000000E+00  0.00000000000E+00 -0.17676280473E+02  0.26692733672E+02  0.20001278447E+02 0.  0.
        -11    1    3    3    0    0  0.97463859769E+01  0.22405144281E+01 -0.88768216185E+01  0.13371982158E+02  0.51100000000E-03 0. -1.
         11    1    3    3    0    0 -0.97463859769E+01 -0.22405144281E+01 -0.87994588548E+01  0.13320751514E+02  0.51100000000E-03 0.  1.
<mgrwt>
<rscale>  0 0.20001278E+02</rscale>
<asrwt>0</asrwt>
<pdfrwt beam="1">  1        3 0.69357333E-03 0.20001278E+02</pdfrwt>
<pdfrwt beam="2">  1       -3 0.34130010E-02 0.20001278E+02</pdfrwt>
<totfact> 0.17462017E+06</totfact>
</mgrwt>
</event>
<event>
 5    1  0.4312245E-007  0.2000134E+02  0.7818608E-02  0.1745301E+00
          3   -1    0    0  501    0  0.00000000000E+00  0.00000000000E+00  0.12864132992E+02  0.12864469155E+02  0.93000000000E-01 0.  1.
         -3   -1    0    0    0  501 -0.00000000000E+00 -0.00000000000E+00 -0.77738749725E+01  0.77744312389E+01  0.93000000000E-01 0. -1.
       1023    2    1    2    0    0  0.00000000000E+00  0.00000000000E+00  0.50902580196E+01  0.20638900394E+02  0.20001337024E+02 0.  0.
        -11    1    3    3    0    0 -0.71456795249E+01 -0.69964258410E+01  0.24919097234E+01  0.10306324503E+02  0.51100000000E-03 0.  1.
         11    1    3    3    0    0  0.71456795249E+01  0.69964258410E+01  0.25983482962E+01  0.10332575891E+02  0.51100000000E-03 0. -1.
<mgrwt>
<rscale>  0 0.20001337E+02</rscale>
<asrwt>0</asrwt>
<pdfrwt beam="1">  1        3 0.19791660E-02 0.20001337E+02</pdfrwt>
<pdfrwt beam="2">  1       -3 0.11960494E-02 0.20001337E+02</pdfrwt>
<totfact> 0.17841093E+06</totfact>
</mgrwt>
</event>
<event>
 5    1  0.4133473E-007  0.2000252E+02  0.7818608E-02  0.1745278E+00
          3   -1    0    0  501    0  0.00000000000E+00  0.00000000000E+00  0.40868142516E+02  0.40868248332E+02  0.93000000000E-01 0. -1.
         -3   -1    0    0    0  501 -0.00000000000E+00 -0.00000000000E+00 -0.24465183473E+01  0.24482853232E+01  0.93000000000E-01 0.  1.
       1023    2    1    2    0    0  0.00000000000E+00  0.00000000000E+00  0.38421624169E+02  0.43316533655E+02  0.20002521944E+02 0.  0.
        -11    1    3    3    0    0 -0.97802521396E+01 -0.20898889364E+01  0.19069583952E+02  0.21532997934E+02  0.51100000000E-03 0.  1.
         11    1    3    3    0    0  0.97802521396E+01  0.20898889364E+01  0.19352040217E+02  0.21783535721E+02  0.51100000000E-03 0. -1.
<mgrwt>
<rscale>  0 0.20002522E+02</rscale>
<asrwt>0</asrwt>
<pdfrwt beam="1">  1        3 0.62875506E-02 0.20002522E+02</pdfrwt>
<pdfrwt beam="2">  1       -3 0.37653150E-03 0.20002522E+02</pdfrwt>
<totfact> 0.16535045E+06</totfact>
</mgrwt>
</event>
<event>
 5    1  0.4133473E-007  0.2000519E+02  0.7818608E-02  0.1745225E+00
         -3   -1    0    0    0  501 -0.00000000000E+00  0.00000000000E+00  0.23933941989E+02  0.23934122673E+02  0.93000000000E-01 0.  1.
          3   -1    0    0  501    0  0.00000000000E+00 -0.00000000000E+00 -0.41796217842E+01  0.41806563191E+01  0.93000000000E-01 0. -1.
       1023    2    1    2    0    0  0.00000000000E+00  0.00000000000E+00  0.19754320205E+02  0.28114778993E+02  0.20005190102E+02 0.  0.
        -11    1    3    3    0    0  0.12599139932E+01  0.99229071051E+01  0.99065995872E+01  0.14078074596E+02  0.51100000000E-03 0.  1.
         11    1    3    3    0    0 -0.12599139932E+01 -0.99229071051E+01  0.98477206179E+01  0.14036704397E+02  0.51100000000E-03 0. -1.
<mgrwt>
<rscale>  0 0.20005190E+02</rscale>
<asrwt>0</asrwt>
<pdfrwt beam="2">  1        3 0.64311221E-03 0.20005190E+02</pdfrwt>
<pdfrwt beam="1">  1       -3 0.36822384E-02 0.20005190E+02</pdfrwt>
<totfact> 0.17369420E+06</totfact>
</mgrwt>
</event>
<event>
 5    1  0.4139833E-007  0.2000060E+02  0.7818608E-02  0.1745316E+00
         -3   -1    0    0    0  501 -0.00000000000E+00  0.00000000000E+00  0.11006674385E+02  0.11007067276E+02  0.93000000000E-01 0.  1.
          3   -1    0    0  501    0  0.00000000000E+00 -0.00000000000E+00 -0.90851455726E+01  0.90856215569E+01  0.93000000000E-01 0. -1.
       1023    2    1    2    0    0  0.00000000000E+00  0.00000000000E+00  0.19215288119E+01  0.20092688832E+02  0.20000596780E+02 0.  0.
        -11    1    3    3    0    0  0.60271884924E+01 -0.79796348167E+01  0.89416667451E+00  0.10039975460E+02  0.51100000000E-03 0.  1.
         11    1    3    3    0    0 -0.60271884924E+01  0.79796348167E+01  0.10273621374E+01  0.10052713373E+02  0.51100000000E-03 0. -1.
<mgrwt>
<rscale>  0 0.20000597E+02</rscale>
<asrwt>0</asrwt>
<pdfrwt beam="2">  1        3 0.13977815E-02 0.20000597E+02</pdfrwt>
<pdfrwt beam="1">  1       -3 0.16934014E-02 0.20000597E+02</pdfrwt>
<totfact> 0.17878538E+06</totfact>
</mgrwt>
</event>
<event>
 5    1  0.4133473E-007  0.2000077E+02  0.7818608E-02  0.1745313E+00
          3   -1    0    0  501    0  0.00000000000E+00  0.00000000000E+00  0.99796167889E+02  0.99796211223E+02  0.93000000000E-01 0. -1.
         -3   -1    0    0    0  501 -0.00000000000E+00 -0.00000000000E+00 -0.99991846477E+00  0.10042340047E+01  0.93000000000E-01 0.  1.
       1023    2    1    2    0    0  0.00000000000E+00  0.00000000000E+00  0.98796249425E+02  0.10080044523E+03  0.20000771427E+02 0.  0.
        -11    1    3    3    0    0 -0.94528638741E+01  0.32635026317E+01  0.49524553882E+02  0.50524138017E+02  0.51100000000E-03 0. -1.
         11    1    3    3    0    0  0.94528638741E+01 -0.32635026317E+01  0.49271695543E+02  0.50276307211E+02  0.51100000000E-03 0.  1.
<mgrwt>
<rscale>  0 0.20000771E+02</rscale>
<asrwt>0</asrwt>
<pdfrwt beam="1">  1        3 0.15353592E-01 0.20000771E+02</pdfrwt>
<pdfrwt beam="2">  1       -3 0.15416891E-03 0.20000771E+02</pdfrwt>
<totfact> 0.14149208E+06</totfact>
</mgrwt>
</event>
<event>
 5    1  0.4133473E-007  0.2000205E+02  0.7818608E-02  0.1745287E+00
         -3   -1    0    0    0  501 -0.00000000000E+00  0.00000000000E+00  0.12374395962E+01  0.12409293913E+01  0.93000000000E-01 0. -1.
          3   -1    0    0  501    0  0.00000000000E+00 -0.00000000000E+00 -0.80711241345E+02  0.80711294925E+02  0.93000000000E-01 0.  1.
       1023    2    1    2    0    0  0.00000000000E+00  0.00000000000E+00 -0.79473801749E+02  0.81952224317E+02  0.20002047544E+02 0.  0.
        -11    1    3    3    0    0 -0.41168785811E+01  0.91142494631E+01 -0.39542826122E+02  0.40787906670E+02  0.51100000000E-03 0. -1.
         11    1    3    3    0    0  0.41168785811E+01 -0.91142494631E+01 -0.39930975627E+02  0.41164317646E+02  0.51100000000E-03 0.  1.
<mgrwt>
<rscale>  0 0.20002048E+02</rscale>
<asrwt>0</asrwt>
<pdfrwt beam="2">  1        3 0.12417382E-01 0.20002048E+02</pdfrwt>
<pdfrwt beam="1">  1       -3 0.19064795E-03 0.20002048E+02</pdfrwt>
<totfact> 0.14832741E+06</totfact>
</mgrwt>
</event>
<event>
 5    1  0.4314650E-007  0.2000072E+02  0.7818608E-02  0.1745314E+00
          3   -1    0    0  501    0  0.00000000000E+00  0.00000000000E+00  0.94932574182E+01  0.94937129412E+01  0.93000000000E-01 0. -1.
         -3   -1    0    0    0  501 -0.00000000000E+00 -0.00000000000E+00 -0.10533632265E+02  0.10534042799E+02  0.93000000000E-01 0.  1.
       1023    2    1    2    0    0  0.00000000000E+00  0.00000000000E+00 -0.10403748466E+01  0.20027755740E+02  0.20000715491E+02 0.  0.
        -11    1    3    3    0    0  0.97458211799E+01 -0.22417371006E+01 -0.49296462404E+00  0.10012463737E+02  0.51100000000E-03 0.  1.
         11    1    3    3    0    0 -0.97458211799E+01  0.22417371006E+01 -0.54741022254E+00  0.10015292003E+02  0.51100000000E-03 0. -1.
<mgrwt>
<rscale>  0 0.20000715E+02</rscale>
<asrwt>0</asrwt>
<pdfrwt beam="1">  1        3 0.14605678E-02 0.20000715E+02</pdfrwt>
<pdfrwt beam="2">  1       -3 0.16206254E-02 0.20000715E+02</pdfrwt>
<totfact> 0.17882491E+06</totfact>
</mgrwt>
</event>
<event>
 5    1  0.4133473E-007  0.2000250E+02  0.7818608E-02  0.1745278E+00
         -3   -1    0    0    0  501 -0.00000000000E+00  0.00000000000E+00  0.54491034412E+01  0.54498970002E+01  0.93000000000E-01 0. -1.
          3   -1    0    0  501    0  0.00000000000E+00 -0.00000000000E+00 -0.18353990623E+02  0.18354226237E+02  0.93000000000E-01 0.  1.
       1023    2    1    2    0    0  0.00000000000E+00  0.00000000000E+00 -0.12904887181E+02  0.23804123238E+02  0.20002504092E+02 0.  0.
        -11    1    3    3    0    0  0.84659273082E+01 -0.53233751157E+01 -0.63076942113E+01  0.11823588894E+02  0.51100000000E-03 0. -1.
         11    1    3    3    0    0 -0.84659273082E+01  0.53233751157E+01 -0.65971929701E+01  0.11980534344E+02  0.51100000000E-03 0.  1.
<mgrwt>
<rscale>  0 0.20002504E+02</rscale>
<asrwt>0</asrwt>
<pdfrwt beam="2">  1        3 0.28237700E-02 0.20002504E+02</pdfrwt>
<pdfrwt beam="1">  1       -3 0.83840278E-03 0.20002504E+02</pdfrwt>
<totfact> 0.17636323E+06</totfact>
</mgrwt>
</event>
<event>
 5    1  0.4192030E-007  0.2000057E+02  0.7818608E-02  0.1745317E+00
         -3   -1    0    0    0  501 -0.00000000000E+00  0.00000000000E+00  0.13238616866E+02  0.13238943520E+02  0.93000000000E-01 0.  1.
          3   -1    0    0  501    0  0.00000000000E+00 -0.00000000000E+00 -0.75533820897E+01  0.75539545930E+01  0.93000000000E-01 0. -1.
       1023    2    1    2    0    0  0.00000000000E+00  0.00000000000E+00  0.56852347762E+01  0.20792898113E+02  0.20000567929E+02 0.  0.
        -11    1    3    3    0    0 -0.46914153338E+01  0.88315466432E+01  0.28522112246E+01  0.10399072222E+02  0.51100000000E-03 0.  1.
         11    1    3    3    0    0  0.46914153338E+01 -0.88315466432E+01  0.28330235516E+01  0.10393825891E+02  0.51100000000E-03 0. -1.
<mgrwt>
<rscale>  0 0.20000568E+02</rscale>
<asrwt>0</asrwt>
<pdfrwt beam="2">  1        3 0.11621280E-02 0.20000568E+02</pdfrwt>
<pdfrwt beam="1">  1       -3 0.20367794E-02 0.20000568E+02</pdfrwt>
<totfact> 0.17833011E+06</totfact>
</mgrwt>
</event>
<event>
 5    1  0.4133473E-007  0.2001176E+02  0.7818608E-02  0.1745094E+00
          3   -1    0    0  501    0  0.00000000000E+00  0.00000000000E+00  0.18567241879E+01  0.18590518309E+01  0.93000000000E-01 0. -1.
         -3   -1    0    0    0  501 -0.00000000000E+00 -0.00000000000E+00 -0.53885530073E+02  0.53885610327E+02  0.93000000000E-01 0.  1.
       1023    2    1    2    0    0  0.00000000000E+00  0.00000000000E+00 -0.52028805885E+02  0.55744662158E+02  0.20011764470E+02 0.  0.
        -11    1    3    3    0    0 -0.94104212068E+01 -0.33947022811E+01 -0.26554895696E+02  0.28376795389E+02  0.51100000000E-03 0.  1.
         11    1    3    3    0    0  0.94104212068E+01  0.33947022811E+01 -0.25473910189E+02  0.27367866769E+02  0.51100000000E-03 0. -1.
<mgrwt>
<rscale>  0 0.20011764E+02</rscale>
<asrwt>0</asrwt>
<pdfrwt beam="1">  1        3 0.28583514E-03 0.20011764E+02</pdfrwt>
<pdfrwt beam="2">  1       -3 0.82902656E-02 0.20011764E+02</pdfrwt>
<totfact> 0.15918961E+06</totfact>
</mgrwt>
</event>
<event>
 5    1  0.4367430E-007  0.2000033E+02  0.7818608E-02  0.1745322E+00
          3   -1    0    0  501    0  0.00000000000E+00  0.00000000000E+00  0.61583108563E+01  0.61590130380E+01  0.93000000000E-01 0. -1.
         -3   -1    0    0    0  501 -0.00000000000E+00 -0.00000000000E+00 -0.16236992555E+02  0.16237258889E+02  0.93000000000E-01 0.  1.
       1023    2    1    2    0    0  0.00000000000E+00  0.00000000000E+00 -0.10078681699E+02  0.22396271927E+02  0.20000329284E+02 0.  0.
        -11    1    3    3    0    0 -0.99809588180E+01 -0.61891828353E+00 -0.50098446308E+01  0.11184862192E+02  0.51100000000E-03 0.  1.
         11    1    3    3    0    0  0.99809588180E+01  0.61891828353E+00 -0.50688370679E+01  0.11211409735E+02  0.51100000000E-03 0. -1.
<mgrwt>
<rscale>  0 0.20000329E+02</rscale>
<asrwt>0</asrwt>
<pdfrwt beam="1">  1        3 0.94750695E-03 0.20000329E+02</pdfrwt>
<pdfrwt beam="2">  1       -3 0.24980733E-02 0.20000329E+02</pdfrwt>
<totfact> 0.17730341E+06</totfact>
</mgrwt>
</event>
<event>
 4    1  0.4133473E-007  0.2002440E+02  0.7818608E-02  0.1744843E+00
         -3   -1    0    0    0  501 -0.00000000000E+00  0.00000000000E+00  0.36470232315E+01  0.36482088004E+01  0.93000000000E-01 0.  1.
          3   -1    0    0  501    0  0.00000000000E+00 -0.00000000000E+00 -0.27480834792E+02  0.27480992156E+02  0.93000000000E-01 0. -1.
        -11    1    1    2    0    0  0.96855228315E+01  0.25181006903E+01 -0.12393426537E+02  0.15929444597E+02  0.51100000000E-03 0. -1.
         11    1    1    2    0    0 -0.96855228315E+01 -0.25181006903E+01 -0.11440385024E+02  0.15199756359E+02  0.51100000000E-03 0.  1.
<mgrwt>
<rscale>  0 0.20024400E+02</rscale>
<asrwt>0</asrwt>
<pdfrwt beam="2">  1        3 0.42279239E-02 0.20024400E+02</pdfrwt>
<pdfrwt beam="1">  1       -3 0.56118382E-03 0.20024400E+02</pdfrwt>
<totfact> 0.17155873E+06</totfact>
</mgrwt>
</event>
<event>
 5    1  0.4133473E-007  0.2000078E+02  0.7818608E-02  0.1745313E+00
          3   -1    0    0  501    0  0.00000000000E+00  0.00000000000E+00  0.11561747544E+03  0.11561751284E+03  0.93000000000E-01 0.  1.
         -3   -1    0    0    0  501 -0.00000000000E+00 -0.00000000000E+00 -0.86245119272E+00  0.86745089764E+00  0.93000000000E-01 0. -1.
       1023    2    1    2    0    0  0.00000000000E+00  0.00000000000E+00  0.11475502424E+03  0.11648496374E+03  0.20000779679E+02 0.  0.
        -11    1    3    3    0    0  0.99902581288E+01 -0.44874219309E+00  0.57576694151E+02  0.58438705809E+02  0.51100000000E-03 0. -1.
         11    1    3    3    0    0 -0.99902581288E+01  0.44874219309E+00  0.57178330094E+02  0.58046257930E+02  0.51100000000E-03 0.  1.
<mgrwt>
<rscale>  0 0.20000780E+02</rscale>
<asrwt>0</asrwt>
<pdfrwt beam="1">  1        3 0.17787693E-01 0.20000780E+02</pdfrwt>
<pdfrwt beam="2">  1       -3 0.13307226E-03 0.20000780E+02</pdfrwt>
<totfact> 0.13630519E+06</totfact>
</mgrwt>
</event>
<event>
 5    1  0.4133473E-007  0.2000671E+02  0.7818608E-02  0.1745195E+00
          3   -1    0    0  501    0  0.00000000000E+00  0.00000000000E+00  0.62942721027E+01  0.62949591184E+01  0.93000000000E-01 0.  1.
         -3   -1    0    0    0  501 -0.00000000000E+00 -0.00000000000E+00 -0.15896424592E+02  0.15896696632E+02  0.93000000000E-01 0. -1.
       1023    2    1    2    0    0  0.00000000000E+00  0.00000000000E+00 -0.96021524892E+01  0.22191655750E+02  0.20006705189E+02 0.  0.
        -11    1    3    3    0    0  0.59066768792E+01 -0.80723164234E+01 -0.49411124100E+01  0.11156420407E+02  0.51100000000E-03 0.  1.
         11    1    3    3    0    0 -0.59066768792E+01  0.80723164234E+01 -0.46610400792E+01  0.11035235343E+02  0.51100000000E-03 0. -1.
<mgrwt>
<rscale>  0 0.20006705E+02</rscale>
<asrwt>0</asrwt>
<pdfrwt beam="1">  1        3 0.96842333E-03 0.20006705E+02</pdfrwt>
<pdfrwt beam="2">  1       -3 0.24456775E-02 0.20006705E+02</pdfrwt>
<totfact> 0.17731194E+06</totfact>
</mgrwt>
</event>
<event>
 5    1  0.4133473E-007  0.2000025E+02  0.7818608E-02  0.1745323E+00
         -3   -1    0    0    0  501 -0.00000000000E+00  0.00000000000E+00  0.88991914495E+00  0.89476537961E+00  0.93000000000E-01 0.  1.
          3   -1    0    0  501    0  0.00000000000E+00 -0.00000000000E+00 -0.11206252953E+03  0.11206256812E+03  0.93000000000E-01 0. -1.
       1023    2    1    2    0    0  0.00000000000E+00  0.00000000000E+00 -0.11117261039E+03  0.11295733350E+03  0.20000247287E+02 0.  0.
        -11    1    3    3    0    0 -0.85416569146E+01 -0.52001305405E+01 -0.55782937814E+02  0.56672192580E+02  0.51100000000E-03 0.  1.
         11    1    3    3    0    0  0.85416569146E+01  0.52001305405E+01 -0.55389672576E+02  0.56285140924E+02  0.51100000000E-03 0. -1.
<mgrwt>
<rscale>  0 0.20000247E+02</rscale>
<asrwt>0</asrwt>
<pdfrwt beam="2">  1        3 0.17240754E-01 0.20000247E+02</pdfrwt>
<pdfrwt beam="1">  1       -3 0.13728648E-03 0.20000247E+02</pdfrwt>
<totfact> 0.13744303E+06</totfact>
</mgrwt>
</event>
<event>
 5    1  0.4133473E-007  0.2000028E+02  0.7818608E-02  0.1745323E+00
         -3   -1    0    0    0  501 -0.00000000000E+00  0.00000000000E+00  0.13922996822E+01  0.13954022377E+01  0.93000000000E-01 0. -1.
          3   -1    0    0  501    0  0.00000000000E+00 -0.00000000000E+00 -0.71742532149E+02  0.71742592427E+02  0.93000000000E-01 0.  1.
       1023    2    1    2    0    0  0.00000000000E+00  0.00000000000E+00 -0.70350232467E+02  0.73137994665E+02  0.20000276384E+02 0.  0.
        -11    1    3    3    0    0  0.99481897746E+01  0.10168967696E+01 -0.35003408939E+02  0.36403834914E+02  0.51100000000E-03 0. -1.
         11    1    3    3    0    0 -0.99481897746E+01 -0.10168967696E+01 -0.35346823528E+02  0.36734159751E+02  0.51100000000E-03 0.  1.
<mgrwt>
<rscale>  0 0.20000276E+02</rscale>
<asrwt>0</asrwt>
<pdfrwt beam="2">  1        3 0.11037553E-01 0.20000276E+02</pdfrwt>
<pdfrwt beam="1">  1       -3 0.21444330E-03 0.20000276E+02</pdfrwt>
<totfact> 0.15183665E+06</totfact>
</mgrwt>
</event>
<event>
 5    1  0.4133473E-007  0.2000043E+02  0.7818608E-02  0.1745320E+00
         -3   -1    0    0    0  501 -0.00000000000E+00  0.00000000000E+00  0.77992742007E+01  0.77998286557E+01  0.93000000000E-01 0.  1.
          3   -1    0    0  501    0  0.00000000000E+00 -0.00000000000E+00 -0.12821078965E+02  0.12821416257E+02  0.93000000000E-01 0. -1.
       1023    2    1    2    0    0  0.00000000000E+00  0.00000000000E+00 -0.50218047641E+01  0.20621244912E+02  0.20000430461E+02 0.  0.
        -11    1    3    3    0    0  0.23561957216E+01  0.97186187936E+01 -0.24767865780E+01  0.10302314378E+02  0.51100000000E-03 0.  1.
         11    1    3    3    0    0 -0.23561957216E+01 -0.97186187936E+01 -0.25450181861E+01  0.10318930534E+02  0.51100000000E-03 0. -1.
<mgrwt>
<rscale>  0 0.20000430E+02</rscale>
<asrwt>0</asrwt>
<pdfrwt beam="2">  1        3 0.19725423E-02 0.20000430E+02</pdfrwt>
<pdfrwt beam="1">  1       -3 0.11999569E-02 0.20000430E+02</pdfrwt>
<totfact> 0.17843986E+06</totfact>
</mgrwt>
</event>
<event>
 5    1  0.4196732E-007  0.2000121E+02  0.7818608E-02  0.1745304E+00
          3   -1    0    0  501    0  0.00000000000E+00  0.00000000000E+00  0.19879039762E+02  0.19879257301E+02  0.93000000000E-01 0. -1.
         -3   -1    0    0    0  501 -0.00000000000E+00 -0.00000000000E+00 -0.50303561719E+01  0.50312157792E+01  0.93000000000E-01 0.  1.
       1023    2    1    2    0    0  0.00000000000E+00  0.00000000000E+00  0.14848683590E+02  0.24910473081E+02  0.20001206582E+02 0.  0.
        -11    1    3    3    0    0  0.49723516329E+01  0.86767161293E+01  0.73635519928E+01  0.12419000836E+02  0.51100000000E-03 0. -1.
         11    1    3    3    0    0 -0.49723516329E+01 -0.86767161293E+01  0.74851315971E+01  0.12491472245E+02  0.51100000000E-03 0.  1.
<mgrwt>
<rscale>  0 0.20001207E+02</rscale>
<asrwt>0</asrwt>
<pdfrwt beam="1">  1        3 0.30583967E-02 0.20001207E+02</pdfrwt>
<pdfrwt beam="2">  1       -3 0.77398380E-03 0.20001207E+02</pdfrwt>
<totfact> 0.17569871E+06</totfact>
</mgrwt>
</event>
<event>
 5    1  0.4133473E-007  0.2000040E+02  0.7818608E-02  0.1745320E+00
          3   -1    0    0  501    0  0.00000000000E+00  0.00000000000E+00  0.98025559890E+01  0.98029971396E+01  0.93000000000E-01 0. -1.
         -3   -1    0    0    0  501 -0.00000000000E+00 -0.00000000000E+00 -0.10200946512E+02  0.10201370434E+02  0.93000000000E-01 0.  1.
       1023    2    1    2    0    0  0.00000000000E+00  0.00000000000E+00 -0.39839052293E+00  0.20004367574E+02  0.20000400172E+02 0.  0.
        -11    1    3    3    0    0  0.99583934169E+01  0.91288001557E+00 -0.16675231738E+00  0.10001537680E+02  0.51100000000E-03 0. -1.
         11    1    3    3    0    0 -0.99583934169E+01 -0.91288001557E+00 -0.23163820556E+00  0.10002829894E+02  0.51100000000E-03 0.  1.
<mgrwt>
<rscale>  0 0.20000400E+02</rscale>
<asrwt>0</asrwt>
<pdfrwt beam="1">  1        3 0.15081521E-02 0.20000400E+02</pdfrwt>
<pdfrwt beam="2">  1       -3 0.15694429E-02 0.20000400E+02</pdfrwt>
<totfact> 0.17884591E+06</totfact>
</mgrwt>
</event>
<event>
 5    1  0.4133473E-007  0.2000557E+02  0.7818608E-02  0.1745217E+00
         -3   -1    0    0    0  501 -0.00000000000E+00  0.00000000000E+00  0.98197477796E+00  0.98636882785E+00  0.93000000000E-01 0.  1.
          3   -1    0    0  501    0  0.00000000000E+00 -0.00000000000E+00 -0.10166041819E+03  0.10166046073E+03  0.93000000000E-01 0. -1.
       1023    2    1    2    0    0  0.00000000000E+00  0.00000000000E+00 -0.10067844341E+03  0.10264682956E+03  0.20005565479E+02 0.  0.
        -11    1    3    3    0    0 -0.75983778056E+01  0.65038198586E+01 -0.51076436764E+02  0.52046492781E+02  0.51100000000E-03 0.  1.
         11    1    3    3    0    0  0.75983778056E+01 -0.65038198586E+01 -0.49602006649E+02  0.50600336777E+02  0.51100000000E-03 0. -1.
<mgrwt>
<rscale>  0 0.20005565E+02</rscale>
<asrwt>0</asrwt>
<pdfrwt beam="2">  1        3 0.15640397E-01 0.20005565E+02</pdfrwt>
<pdfrwt beam="1">  1       -3 0.15141440E-03 0.20005565E+02</pdfrwt>
<totfact> 0.14078657E+06</totfact>
</mgrwt>
</event>
<event>
 5    1  0.4133473E-007  0.2000976E+02  0.7818608E-02  0.1745134E+00
         -3   -1    0    0    0  501 -0.00000000000E+00  0.00000000000E+00  0.11892424822E+01  0.11928732881E+01  0.93000000000E-01 0.  1.
          3   -1    0    0  501    0  0.00000000000E+00 -0.00000000000E+00 -0.84037241387E+02  0.84037292846E+02  0.93000000000E-01 0. -1.
       1023    2    1    2    0    0  0.00000000000E+00  0.00000000000E+00 -0.82847998904E+02  0.85230166134E+02  0.20009755040E+02 0.  0.
        -11    1    3    3    0    0 -0.39008279059E+01 -0.92130226065E+01 -0.41268659719E+02  0.42464085050E+02  0.51100000000E-03 0. -1.
         11    1    3    3    0    0  0.39008279059E+01  0.92130226065E+01 -0.41579339186E+02  0.42766081084E+02  0.51100000000E-03 0.  1.
<mgrwt>
<rscale>  0 0.20009755E+02</rscale>
<asrwt>0</asrwt>
<pdfrwt beam="2">  1        3 0.12929085E-01 0.20009755E+02</pdfrwt>
<pdfrwt beam="1">  1       -3 0.18324370E-03 0.20009755E+02</pdfrwt>
<totfact> 0.14696012E+06</totfact>
</mgrwt>
</event>
<event>
 4    1  0.4133473E-007  0.2001256E+02  0.7818608E-02  0.1745078E+00
          3   -1    0    0  501    0  0.00000000000E+00  0.00000000000E+00  0.21824773529E+01  0.21844579181E+01  0.93000000000E-01 0. -1.
         -3   -1    0    0    0  501 -0.00000000000E+00 -0.00000000000E+00 -0.45854224565E+02  0.45854318875E+02  0.93000000000E-01 0.  1.
        -11    1    1    2    0    0  0.91721629179E+01 -0.39995612011E+01 -0.21778056581E+02  0.23966827306E+02  0.51100000000E-03 0. -1.
         11    1    1    2    0    0 -0.91721629179E+01  0.39995612011E+01 -0.21893690631E+02  0.24071949487E+02  0.51100000000E-03 0.  1.
<mgrwt>
<rscale>  0 0.20012560E+02</rscale>
<asrwt>0</asrwt>
<pdfrwt beam="1">  1        3 0.33592539E-03 0.20012560E+02</pdfrwt>
<pdfrwt beam="2">  1       -3 0.70546550E-02 0.20012560E+02</pdfrwt>
<totfact> 0.16283212E+06</totfact>
</mgrwt>
</event>
<event>
 5    1  0.4472890E-007  0.2000094E+02  0.7818608E-02  0.1745309E+00
         -3   -1    0    0    0  501 -0.00000000000E+00  0.00000000000E+00  0.89115725377E+01  0.89120577924E+01  0.93000000000E-01 0.  1.
          3   -1    0    0  501    0  0.00000000000E+00 -0.00000000000E+00 -0.11221432225E+02  0.11221817597E+02  0.93000000000E-01 0. -1.
       1023    2    1    2    0    0  0.00000000000E+00  0.00000000000E+00 -0.23098596874E+01  0.20133875390E+02  0.20000937139E+02 0.  0.
        -11    1    3    3    0    0 -0.74472970159E+01 -0.66737929458E+01 -0.10670211837E+01  0.10056852370E+02  0.51100000000E-03 0.  1.
         11    1    3    3    0    0  0.74472970159E+01  0.66737929458E+01 -0.12428385037E+01  0.10077023019E+02  0.51100000000E-03 0. -1.
<mgrwt>
<rscale>  0 0.20000937E+02</rscale>
<asrwt>0</asrwt>
<pdfrwt beam="2">  1        3 0.17264412E-02 0.20000937E+02</pdfrwt>
<pdfrwt beam="1">  1       -3 0.13710781E-02 0.20000937E+02</pdfrwt>
<totfact> 0.17874994E+06</totfact>
</mgrwt>
</event>
<event>
 5    1  0.4133473E-007  0.2000190E+02  0.7818608E-02  0.1745290E+00
         -3   -1    0    0    0  501 -0.00000000000E+00  0.00000000000E+00  0.11601292971E+03  0.11601296699E+03  0.93000000000E-01 0. -1.
          3   -1    0    0  501    0  0.00000000000E+00 -0.00000000000E+00 -0.85959107745E+00  0.86460732152E+00  0.93000000000E-01 0.  1.
       1023    2    1    2    0    0  0.00000000000E+00  0.00000000000E+00  0.11515333863E+03  0.11687757431E+03  0.20001899355E+02 0.  0.
        -11    1    3    3    0    0  0.97832102232E+00 -0.99528910947E+01  0.57325949082E+02  0.58191765668E+02  0.51100000000E-03 0.  1.
         11    1    3    3    0    0 -0.97832102232E+00  0.99528910947E+01  0.57827389551E+02  0.58685808640E+02  0.51100000000E-03 0. -1.
<mgrwt>
<rscale>  0 0.20001899E+02</rscale>
<asrwt>0</asrwt>
<pdfrwt beam="2">  1        3 0.13263351E-03 0.20001899E+02</pdfrwt>
<pdfrwt beam="1">  1       -3 0.17848532E-01 0.20001899E+02</pdfrwt>
<totfact> 0.13619087E+06</totfact>
</mgrwt>
</event>
<event>
 5    1  0.4133473E-007  0.2000036E+02  0.7818608E-02  0.1745321E+00
          3   -1    0    0  501    0  0.00000000000E+00  0.00000000000E+00  0.53536706583E+02  0.53536787359E+02  0.93000000000E-01 0.  1.
         -3   -1    0    0    0  501 -0.00000000000E+00 -0.00000000000E+00 -0.18667042445E+01  0.18690194586E+01  0.93000000000E-01 0. -1.
       1023    2    1    2    0    0  0.00000000000E+00  0.00000000000E+00  0.51670002338E+02  0.55405806817E+02  0.20000357184E+02 0.  0.
        -11    1    3    3    0    0 -0.99062531939E+01 -0.13672422343E+01  0.25888139127E+02  0.27752458474E+02  0.51100000000E-03 0. -1.
         11    1    3    3    0    0  0.99062531939E+01  0.13672422343E+01  0.25781863211E+02  0.27653348343E+02  0.51100000000E-03 0.  1.
<mgrwt>
<rscale>  0 0.20000357E+02</rscale>
<asrwt>0</asrwt>
<pdfrwt beam="1">  1        3 0.82366023E-02 0.20000357E+02</pdfrwt>
<pdfrwt beam="2">  1       -3 0.28736952E-03 0.20000357E+02</pdfrwt>
<totfact> 0.15951401E+06</totfact>
</mgrwt>
</event>
<event>
 5    1  0.4133473E-007  0.2001170E+02  0.7818608E-02  0.1745095E+00
          3   -1    0    0  501    0  0.00000000000E+00  0.00000000000E+00  0.13872643865E+02  0.13872955591E+02  0.93000000000E-01 0. -1.
         -3   -1    0    0    0  501 -0.00000000000E+00 -0.00000000000E+00 -0.72161758512E+01  0.72167751050E+01  0.93000000000E-01 0.  1.
       1023    2    1    2    0    0  0.00000000000E+00  0.00000000000E+00  0.66564680143E+01  0.21089730696E+02  0.20011700937E+02 0.  0.
        -11    1    3    3    0    0 -0.68751402204E+01  0.72668088646E+01  0.31097517123E+01  0.10475906648E+02  0.51100000000E-03 0. -1.
         11    1    3    3    0    0  0.68751402204E+01 -0.72668088646E+01  0.35467163020E+01  0.10613824048E+02  0.51100000000E-03 0.  1.
<mgrwt>
<rscale>  0 0.20011701E+02</rscale>
<asrwt>0</asrwt>
<pdfrwt beam="1">  1        3 0.21343230E-02 0.20011701E+02</pdfrwt>
<pdfrwt beam="2">  1       -3 0.11102510E-02 0.20011701E+02</pdfrwt>
<totfact> 0.17791793E+06</totfact>
</mgrwt>
</event>
<event>
 5    1  0.4133473E-007  0.2000040E+02  0.7818608E-02  0.1745320E+00
         -3   -1    0    0    0  501 -0.00000000000E+00  0.00000000000E+00  0.70670117629E+02  0.70670178821E+02  0.93000000000E-01 0. -1.
          3   -1    0    0  501    0  0.00000000000E+00 -0.00000000000E+00 -0.14134915609E+01  0.14165477023E+01  0.93000000000E-01 0.  1.
       1023    2    1    2    0    0  0.00000000000E+00  0.00000000000E+00  0.69256626068E+02  0.72086726524E+02  0.20000397161E+02 0.  0.
        -11    1    3    3    0    0  0.11558570585E+01 -0.99330090614E+01  0.34421363008E+02  0.35844538024E+02  0.51100000000E-03 0.  1.
         11    1    3    3    0    0 -0.11558570585E+01  0.99330090614E+01  0.34835263060E+02  0.36242188500E+02  0.51100000000E-03 0. -1.
<mgrwt>
<rscale>  0 0.20000397E+02</rscale>
<asrwt>0</asrwt>
<pdfrwt beam="2">  1        3 0.21770006E-03 0.20000397E+02</pdfrwt>
<pdfrwt beam="1">  1       -3 0.10872564E-01 0.20000397E+02</pdfrwt>
<totfact> 0.15229246E+06</totfact>
</mgrwt>
</event>
<event>
 5    1  0.4133473E-007  0.2000193E+02  0.7818608E-02  0.1745290E+00
         -3   -1    0    0    0  501 -0.00000000000E+00  0.00000000000E+00  0.23277802751E+01  0.23296373128E+01  0.93000000000E-01 0.  1.
          3   -1    0    0  501    0  0.00000000000E+00 -0.00000000000E+00 -0.42948626747E+02  0.42948727437E+02  0.93000000000E-01 0. -1.
       1023    2    1    2    0    0  0.00000000000E+00  0.00000000000E+00 -0.40620846472E+02  0.45278364749E+02  0.20001928565E+02 0.  0.
        -11    1    3    3    0    0  0.42283236893E+01  0.90630619857E+01 -0.20397289727E+02  0.22717113422E+02  0.51100000000E-03 0. -1.
         11    1    3    3    0    0 -0.42283236893E+01 -0.90630619857E+01 -0.20223556745E+02  0.22561251327E+02  0.51100000000E-03 0.  1.
<mgrwt>
<rscale>  0 0.20001929E+02</rscale>
<asrwt>0</asrwt>
<pdfrwt beam="2">  1        3 0.66076310E-02 0.20001929E+02</pdfrwt>
<pdfrwt beam="1">  1       -3 0.35827067E-03 0.20001929E+02</pdfrwt>
<totfact> 0.16436496E+06</totfact>
</mgrwt>
</event>
<event>
 5    1  0.4133473E-007  0.2000614E+02  0.7818608E-02  0.1745206E+00
          3   -1    0    0  501    0  0.00000000000E+00  0.00000000000E+00  0.16478969042E+02  0.16479231465E+02  0.93000000000E-01 0. -1.
         -3   -1    0    0    0  501 -0.00000000000E+00 -0.00000000000E+00 -0.60714011977E+01  0.60721134297E+01  0.93000000000E-01 0.  1.
       1023    2    1    2    0    0  0.00000000000E+00  0.00000000000E+00  0.10407567844E+02  0.22551344895E+02  0.20006141260E+02 0.  0.
        -11    1    3    3    0    0 -0.70038147602E+01 -0.71405623436E+01  0.53646648465E+01  0.11349919866E+02  0.51100000000E-03 0. -1.
         11    1    3    3    0    0  0.70038147602E+01  0.71405623436E+01  0.50429029974E+01  0.11201425029E+02  0.51100000000E-03 0.  1.
<mgrwt>
<rscale>  0 0.20006141E+02</rscale>
<asrwt>0</asrwt>
<pdfrwt beam="1">  1        3 0.25353010E-02 0.20006141E+02</pdfrwt>
<pdfrwt beam="2">  1       -3 0.93413669E-03 0.20006141E+02</pdfrwt>
<totfact> 0.17708501E+06</totfact>
</mgrwt>
</event>
<event>
 5    1  0.4373430E-007  0.2000096E+02  0.7818608E-02  0.1745309E+00
          3   -1    0    0  501    0  0.00000000000E+00  0.00000000000E+00  0.19114698707E+02  0.19114924945E+02  0.93000000000E-01 0. -1.
         -3   -1    0    0    0  501 -0.00000000000E+00 -0.00000000000E+00 -0.52314096621E+01  0.52322362382E+01  0.93000000000E-01 0.  1.
       1023    2    1    2    0    0  0.00000000000E+00  0.00000000000E+00  0.13883289045E+02  0.24347161184E+02  0.20000963552E+02 0.  0.
        -11    1    3    3    0    0  0.15156183317E+01  0.98846576829E+01  0.68467338032E+01  0.12119460403E+02  0.51100000000E-03 0.  1.
         11    1    3    3    0    0 -0.15156183317E+01 -0.98846576829E+01  0.70365552420E+01  0.12227700780E+02  0.51100000000E-03 0. -1.
<mgrwt>
<rscale>  0 0.20000964E+02</rscale>
<asrwt>0</asrwt>
<pdfrwt beam="1">  1        3 0.29408039E-02 0.20000964E+02</pdfrwt>
<pdfrwt beam="2">  1       -3 0.80491324E-03 0.20000964E+02</pdfrwt>
<totfact> 0.17605344E+06</totfact>
</mgrwt>
</event>
<event>
 5    1  0.4365138E-007  0.2000155E+02  0.7818608E-02  0.1745297E+00
          3   -1    0    0  501    0  0.00000000000E+00  0.00000000000E+00  0.71598434234E+01  0.71604473916E+01  0.93000000000E-01 0.  1.
         -3   -1    0    0    0  501 -0.00000000000E+00 -0.00000000000E+00 -0.13967597779E+02  0.13967907385E+02  0.93000000000E-01 0. -1.
       1023    2    1    2    0    0  0.00000000000E+00  0.00000000000E+00 -0.68077543554E+01  0.21128354776E+02  0.20001546345E+02 0.  0.
        -11    1    3    3    0    0 -0.74133346722E+01  0.67123819656E+01 -0.34494489044E+01  0.10578861027E+02  0.51100000000E-03 0. -1.
         11    1    3    3    0    0  0.74133346722E+01 -0.67123819656E+01 -0.33583054510E+01  0.10549493750E+02  0.51100000000E-03 0.  1.
<mgrwt>
<rscale>  0 0.20001546E+02</rscale>
<asrwt>0</asrwt>
<pdfrwt beam="1">  1        3 0.11015846E-02 0.20001546E+02</pdfrwt>
<pdfrwt beam="2">  1       -3 0.21489315E-02 0.20001546E+02</pdfrwt>
<totfact> 0.17809338E+06</totfact>
</mgrwt>
</event>
<event>
 5    1  0.4292341E-007  0.2000172E+02  0.7818608E-02  0.1745294E+00
         -3   -1    0    0    0  501 -0.00000000000E+00  0.00000000000E+00  0.57889870949E+01  0.57897340686E+01  0.93000000000E-01 0.  1.
          3   -1    0    0  501    0  0.00000000000E+00 -0.00000000000E+00 -0.17275155739E+02  0.17275406068E+02  0.93000000000E-01 0. -1.
       1023    2    1    2    0    0  0.00000000000E+00  0.00000000000E+00 -0.11486168644E+02  0.23065140136E+02  0.20001715411E+02 0.  0.
        -11    1    3    3    0    0  0.63563138002E+01  0.77204823876E+01 -0.56362620225E+01  0.11479373819E+02  0.51100000000E-03 0.  1.
         11    1    3    3    0    0 -0.63563138002E+01 -0.77204823876E+01 -0.58499066214E+01  0.11585766318E+02  0.51100000000E-03 0. -1.
<mgrwt>
<rscale>  0 0.20001715E+02</rscale>
<asrwt>0</asrwt>
<pdfrwt beam="2">  1        3 0.26577930E-02 0.20001715E+02</pdfrwt>
<pdfrwt beam="1">  1       -3 0.89069012E-03 0.20001715E+02</pdfrwt>
<totfact> 0.17684320E+06</totfact>
</mgrwt>
</event>
<event>
 5    1  0.4133473E-007  0.2000014E+02  0.7818608E-02  0.1745325E+00
          3   -1    0    0  501    0  0.00000000000E+00  0.00000000000E+00  0.22721768989E+02  0.22721959312E+02  0.93000000000E-01 0. -1.
         -3   -1    0    0    0  501 -0.00000000000E+00 -0.00000000000E+00 -0.44004285258E+01  0.44014111613E+01  0.93000000000E-01 0.  1.
       1023    2    1    2    0    0  0.00000000000E+00  0.00000000000E+00  0.18321340463E+02  0.27123370474E+02  0.20000142736E+02 0.  0.
        -11    1    3    3    0    0 -0.99891450103E+01 -0.46671269411E+00  0.91277758428E+01  0.13539465679E+02  0.51100000000E-03 0. -1.
         11    1    3    3    0    0  0.99891450103E+01  0.46671269411E+00  0.91935646203E+01  0.13583904794E+02  0.51100000000E-03 0.  1.
<mgrwt>
<rscale>  0 0.20000143E+02</rscale>
<asrwt>0</asrwt>
<pdfrwt beam="1">  1        3 0.34957470E-02 0.20000143E+02</pdfrwt>
<pdfrwt beam="2">  1       -3 0.67707923E-03 0.20000143E+02</pdfrwt>
<totfact> 0.17436744E+06</totfact>
</mgrwt>
</event>
<event>
 5    1  0.4133473E-007  0.2000257E+02  0.7818608E-02  0.1745277E+00
          3   -1    0    0  501    0  0.00000000000E+00  0.00000000000E+00  0.14745652064E+01  0.14774950247E+01  0.93000000000E-01 0.  1.
         -3   -1    0    0    0  501 -0.00000000000E+00 -0.00000000000E+00 -0.67763713245E+02  0.67763777062E+02  0.93000000000E-01 0. -1.
       1023    2    1    2    0    0  0.00000000000E+00  0.00000000000E+00 -0.66289148038E+02  0.69241272087E+02  0.20002565149E+02 0.  0.
        -11    1    3    3    0    0 -0.79084491130E+01  0.61203125358E+01 -0.32609869035E+02  0.34108728380E+02  0.51100000000E-03 0.  1.
         11    1    3    3    0    0  0.79084491130E+01 -0.61203125358E+01 -0.33679279003E+02  0.35132543707E+02  0.51100000000E-03 0. -1.
<mgrwt>
<rscale>  0 0.20002565E+02</rscale>
<asrwt>0</asrwt>
<pdfrwt beam="1">  1        3 0.22708652E-03 0.20002565E+02</pdfrwt>
<pdfrwt beam="2">  1       -3 0.10425415E-01 0.20002565E+02</pdfrwt>
<totfact> 0.15343314E+06</totfact>
</mgrwt>
</event>
<event>
 5    1  0.4133473E-007  0.2000417E+02  0.7818608E-02  0.1745245E+00
          3   -1    0    0  501    0  0.00000000000E+00  0.00000000000E+00  0.46099924297E+01  0.46109304052E+01  0.93000000000E-01 0. -1.
         -3   -1    0    0    0  501 -0.00000000000E+00 -0.00000000000E+00 -0.21697820848E+02  0.21698020153E+02  0.93000000000E-01 0.  1.
       1023    2    1    2    0    0  0.00000000000E+00  0.00000000000E+00 -0.17087828418E+02  0.26308950558E+02  0.20004174550E+02 0.  0.
        -11    1    3    3    0    0  0.97847570473E+01 -0.20735679940E+01 -0.85118366221E+01  0.13133640685E+02  0.51100000000E-03 0. -1.
         11    1    3    3    0    0 -0.97847570473E+01  0.20735679940E+01 -0.85759917963E+01  0.13175309873E+02  0.51100000000E-03 0.  1.
<mgrwt>
<rscale>  0 0.20004175E+02</rscale>
<asrwt>0</asrwt>
<pdfrwt beam="1">  1        3 0.70931710E-03 0.20004175E+02</pdfrwt>
<pdfrwt beam="2">  1       -3 0.33382137E-02 0.20004175E+02</pdfrwt>
<totfact> 0.17479820E+06</totfact>
</mgrwt>
</event>
<event>
 5    1  0.4292974E-007  0.2000062E+02  0.7818608E-02  0.1745316E+00
          3   -1    0    0  501    0  0.00000000000E+00  0.00000000000E+00  0.13947130852E+02  0.13947440912E+02  0.93000000000E-01 0.  1.
         -3   -1    0    0    0  501 -0.00000000000E+00 -0.00000000000E+00 -0.71696858641E+01  0.71702890032E+01  0.93000000000E-01 0. -1.
       1023    2    1    2    0    0  0.00000000000E+00  0.00000000000E+00  0.67774449875E+01  0.21117729915E+02  0.20000618896E+02 0.  0.
        -11    1    3    3    0    0  0.99408062705E+01 -0.10891743718E+01  0.34057040615E+01  0.10564314958E+02  0.51100000000E-03 0.  1.
         11    1    3    3    0    0 -0.99408062705E+01  0.10891743718E+01  0.33717409260E+01  0.10553414957E+02  0.51100000000E-03 0. -1.
<mgrwt>
<rscale>  0 0.20000619E+02</rscale>
<asrwt>0</asrwt>
<pdfrwt beam="1">  1        3 0.21457827E-02 0.20000619E+02</pdfrwt>
<pdfrwt beam="2">  1       -3 0.11030989E-02 0.20000619E+02</pdfrwt>
<totfact> 0.17811215E+06</totfact>
</mgrwt>
</event>
<event>
 5    1  0.4246060E-007  0.2000137E+02  0.7818608E-02  0.1745301E+00
          3   -1    0    0  501    0  0.00000000000E+00  0.00000000000E+00  0.23140733500E+02  0.23140920378E+02  0.93000000000E-01 0. -1.
         -3   -1    0    0    0  501 -0.00000000000E+00 -0.00000000000E+00 -0.43212710801E+01  0.43222717115E+01  0.93000000000E-01 0.  1.
       1023    2    1    2    0    0  0.00000000000E+00  0.00000000000E+00  0.18819462420E+02  0.27463192089E+02  0.20001368802E+02 0.  0.
        -11    1    3    3    0    0  0.45295415010E+01  0.89155869930E+01  0.95417926268E+01  0.13822092621E+02  0.51100000000E-03 0.  1.
         11    1    3    3    0    0 -0.45295415010E+01 -0.89155869930E+01  0.92776697934E+01  0.13641099468E+02  0.51100000000E-03 0. -1.
<mgrwt>
<rscale>  0 0.20001369E+02</rscale>
<asrwt>0</asrwt>
<pdfrwt beam="1">  1        3 0.35602042E-02 0.20001369E+02</pdfrwt>
<pdfrwt beam="2">  1       -3 0.66490228E-03 0.20001369E+02</pdfrwt>
<totfact> 0.17414020E+06</totfact>
</mgrwt>
</event>
<event>
 5    1  0.4133473E-007  0.2000024E+02  0.7818608E-02  0.1745323E+00
         -3   -1    0    0    0  501 -0.00000000000E+00  0.00000000000E+00  0.90778263274E+00  0.91253400391E+00  0.93000000000E-01 0.  1.
          3   -1    0    0  501    0  0.00000000000E+00 -0.00000000000E+00 -0.10986890881E+03  0.10986894817E+03  0.93000000000E-01 0. -1.
       1023    2    1    2    0    0  0.00000000000E+00  0.00000000000E+00 -0.10896112618E+03  0.11078148218E+03  0.20000244373E+02 0.  0.
        -11    1    3    3    0    0  0.98017611401E+01  0.19818983294E+01 -0.54486225058E+02  0.55396310020E+02  0.51100000000E-03 0.  1.
         11    1    3    3    0    0 -0.98017611401E+01 -0.19818983294E+01 -0.54474901123E+02  0.55385172159E+02  0.51100000000E-03 0. -1.
<mgrwt>
<rscale>  0 0.20000244E+02</rscale>
<asrwt>0</asrwt>
<pdfrwt beam="2">  1        3 0.16903267E-01 0.20000244E+02</pdfrwt>
<pdfrwt beam="1">  1       -3 0.14002747E-03 0.20000244E+02</pdfrwt>
<totfact> 0.13815032E+06</totfact>
</mgrwt>
</event>
<event>
 5    1  0.4133473E-007  0.2000003E+02  0.7818608E-02  0.1745328E+00
          3   -1    0    0  501    0  0.00000000000E+00  0.00000000000E+00  0.12352893219E+02  0.12353243294E+02  0.93000000000E-01 0.  1.
         -3   -1    0    0    0  501 -0.00000000000E+00 -0.00000000000E+00 -0.80945597090E+01  0.80950939391E+01  0.93000000000E-01 0. -1.
       1023    2    1    2    0    0  0.00000000000E+00  0.00000000000E+00  0.42583335098E+01  0.20448337233E+02  0.20000027283E+02 0.  0.
        -11    1    3    3    0    0 -0.85760777684E+01 -0.51430584716E+01  0.21399982786E+01  0.10226424264E+02  0.51100000000E-03 0.  1.
         11    1    3    3    0    0  0.85760777684E+01  0.51430584716E+01  0.21183352312E+01  0.10221912969E+02  0.51100000000E-03 0. -1.
<mgrwt>
<rscale>  0 0.20000027E+02</rscale>
<asrwt>0</asrwt>
<pdfrwt beam="1">  1        3 0.19005131E-02 0.20000027E+02</pdfrwt>
<pdfrwt beam="2">  1       -3 0.12453849E-02 0.20000027E+02</pdfrwt>
<totfact> 0.17856051E+06</totfact>
</mgrwt>
</event>
<event>
 4    1  0.4133473E-007  0.2004633E+02  0.7818608E-02  0.1744408E+00
         -3   -1    0    0    0  501 -0.00000000000E+00  0.00000000000E+00  0.15878994154E+02  0.15879266492E+02  0.93000000000E-01 0.  1.
          3   -1    0    0  501    0  0.00000000000E+00 -0.00000000000E+00 -0.63261735698E+01  0.63268571215E+01  0.93000000000E-01 0. -1.
        -11    1    1    2    0    0  0.86304700073E+01  0.50849668141E+01  0.51633048239E+01  0.11269499413E+02  0.51100000000E-03 0. -1.
         11    1    1    2    0    0 -0.86304700073E+01 -0.50849668141E+01  0.43895157599E+01  0.10936624201E+02  0.51100000000E-03 0.  1.
<mgrwt>
<rscale>  0 0.20046335E+02</rscale>
<asrwt>0</asrwt>
<pdfrwt beam="2">  1        3 0.97333101E-03 0.20046335E+02</pdfrwt>
<pdfrwt beam="1">  1       -3 0.24429957E-02 0.20046335E+02</pdfrwt>
<totfact> 0.17654827E+06</totfact>
</mgrwt>
</event>
<event>
 5    1  0.4133473E-007  0.2000503E+02  0.7818608E-02  0.1745228E+00
          3   -1    0    0  501    0  0.00000000000E+00  0.00000000000E+00  0.67038005500E+01  0.67044456008E+01  0.93000000000E-01 0.  1.
         -3   -1    0    0    0  501 -0.00000000000E+00 -0.00000000000E+00 -0.14922902355E+02  0.14923192142E+02  0.93000000000E-01 0. -1.
       1023    2    1    2    0    0  0.00000000000E+00  0.00000000000E+00 -0.82191018052E+01  0.21627637743E+02  0.20005026364E+02 0.  0.
        -11    1    3    3    0    0  0.75913036052E+01  0.65118803489E+01 -0.42537630386E+01  0.10868623480E+02  0.51100000000E-03 0. -1.
         11    1    3    3    0    0 -0.75913036052E+01 -0.65118803489E+01 -0.39653387666E+01  0.10759014262E+02  0.51100000000E-03 0.  1.
<mgrwt>
<rscale>  0 0.20005026E+02</rscale>
<asrwt>0</asrwt>
<pdfrwt beam="1">  1        3 0.10314258E-02 0.20005026E+02</pdfrwt>
<pdfrwt beam="2">  1       -3 0.22959030E-02 0.20005026E+02</pdfrwt>
<totfact> 0.17770469E+06</totfact>
</mgrwt>
</event>
<event>
 5    1  0.4222595E-007  0.2000076E+02  0.7818608E-02  0.1745313E+00
         -3   -1    0    0    0  501 -0.00000000000E+00  0.00000000000E+00  0.20013231463E+02  0.20013447544E+02  0.93000000000E-01 0.  1.
          3   -1    0    0  501    0  0.00000000000E+00 -0.00000000000E+00 -0.49963985671E+01  0.49972640156E+01  0.93000000000E-01 0. -1.
       1023    2    1    2    0    0  0.00000000000E+00  0.00000000000E+00  0.15016832896E+02  0.25010711559E+02  0.20000760548E+02 0.  0.
        -11    1    3    3    0    0 -0.81352683764E+01 -0.58159218327E+01  0.74981777788E+01  0.12499208318E+02  0.51100000000E-03 0. -1.
         11    1    3    3    0    0  0.81352683764E+01  0.58159218327E+01  0.75186551168E+01  0.12511503241E+02  0.51100000000E-03 0.  1.
<mgrwt>
<rscale>  0 0.20000761E+02</rscale>
<asrwt>0</asrwt>
<pdfrwt beam="2">  1        3 0.76875990E-03 0.20000761E+02</pdfrwt>
<pdfrwt beam="1">  1       -3 0.30790419E-02 0.20000761E+02</pdfrwt>
<totfact> 0.17565734E+06</totfact>
</mgrwt>
</event>
<event>
 4    1  0.4133473E-007  0.2001733E+02  0.7818608E-02  0.1744984E+00
          3   -1    0    0  501    0  0.00000000000E+00  0.00000000000E+00  0.48446303563E+01  0.48455229119E+01  0.93000000000E-01 0.  1.
         -3   -1    0    0    0  501 -0.00000000000E+00 -0.00000000000E+00 -0.20674291389E+02  0.20674500561E+02  0.93000000000E-01 0. -1.
        -11    1    1    2    0    0  0.47517782747E+01 -0.88081079311E+01 -0.80497230767E+01  0.12843683427E+02  0.51100000000E-03 0. -1.
         11    1    1    2    0    0 -0.47517782747E+01  0.88081079311E+01 -0.77799379560E+01  0.12676340046E+02  0.51100000000E-03 0.  1.
<mgrwt>
<rscale>  0 0.20017328E+02</rscale>
<asrwt>0</asrwt>
<pdfrwt beam="1">  1        3 0.74541251E-03 0.20017328E+02</pdfrwt>
<pdfrwt beam="2">  1       -3 0.31807449E-02 0.20017328E+02</pdfrwt>
<totfact> 0.17503160E+06</totfact>
</mgrwt>
</event>
<event>
 5    1  0.4133473E-007  0.2000035E+02  0.7818608E-02  0.1745321E+00
          3   -1    0    0  501    0  0.00000000000E+00  0.00000000000E+00  0.12414366749E+01  0.12449152653E+01  0.93000000000E-01 0.  1.
         -3   -1    0    0    0  501 -0.00000000000E+00 -0.00000000000E+00 -0.80438453815E+02  0.80438507576E+02  0.93000000000E-01 0. -1.
       1023    2    1    2    0    0  0.00000000000E+00  0.00000000000E+00 -0.79197017140E+02  0.81683422841E+02  0.20000351078E+02 0.  0.
        -11    1    3    3    0    0  0.99967143874E+01  0.26219591781E+00 -0.39686607011E+02  0.40927128186E+02  0.51100000000E-03 0.  1.
         11    1    3    3    0    0 -0.99967143874E+01 -0.26219591781E+00 -0.39510410129E+02  0.40756294656E+02  0.51100000000E-03 0. -1.
<mgrwt>
<rscale>  0 0.20000351E+02</rscale>
<asrwt>0</asrwt>
<pdfrwt beam="1">  1        3 0.19126204E-03 0.20000351E+02</pdfrwt>
<pdfrwt beam="2">  1       -3 0.12375414E-01 0.20000351E+02</pdfrwt>
<totfact> 0.14848687E+06</totfact>
</mgrwt>
</event>
<event>
 5    1  0.4133473E-007  0.2000019E+02  0.7818608E-02  0.1745324E+00
         -3   -1    0    0    0  501 -0.00000000000E+00  0.00000000000E+00  0.83467362322E+00  0.83983870910E+00  0.93000000000E-01 0. -1.
          3   -1    0    0  501    0  0.00000000000E+00 -0.00000000000E+00 -0.11943478653E+03  0.11943482274E+03  0.93000000000E-01 0.  1.
       1023    2    1    2    0    0  0.00000000000E+00  0.00000000000E+00 -0.11860011291E+03  0.12027466145E+03  0.20000185117E+02 0.  0.
        -11    1    3    3    0    0 -0.99860283023E+01  0.52988634951E+00 -0.59194153939E+02  0.60032902658E+02  0.51100000000E-03 0. -1.
         11    1    3    3    0    0  0.99860283023E+01 -0.52988634951E+00 -0.59405958967E+02  0.60241758788E+02  0.51100000000E-03 0.  1.
<mgrwt>
<rscale>  0 0.20000185E+02</rscale>
<asrwt>0</asrwt>
<pdfrwt beam="2">  1        3 0.18374969E-01 0.20000185E+02</pdfrwt>
<pdfrwt beam="1">  1       -3 0.12881152E-03 0.20000185E+02</pdfrwt>
<totfact> 0.13512209E+06</totfact>
</mgrwt>
</event>
<event>
 5    1  0.4133473E-007  0.2000024E+02  0.7818608E-02  0.1745323E+00
         -3   -1    0    0    0  501 -0.00000000000E+00  0.00000000000E+00  0.11160811469E+03  0.11160815344E+03  0.93000000000E-01 0. -1.
          3   -1    0    0  501    0  0.00000000000E+00 -0.00000000000E+00 -0.89356160207E+00  0.89838818820E+00  0.93000000000E-01 0.  1.
       1023    2    1    2    0    0  0.00000000000E+00  0.00000000000E+00  0.11071455309E+03  0.11250654163E+03  0.20000241075E+02 0.  0.
        -11    1    3    3    0    0 -0.61731371367E+01  0.78673150627E+01  0.55424331785E+02  0.56319258007E+02  0.51100000000E-03 0. -1.
         11    1    3    3    0    0  0.61731371367E+01 -0.78673150627E+01  0.55290221305E+02  0.56187283620E+02  0.51100000000E-03 0.  1.
<mgrwt>
<rscale>  0 0.20000241E+02</rscale>
<asrwt>0</asrwt>
<pdfrwt beam="2">  1        3 0.13784517E-03 0.20000241E+02</pdfrwt>
<pdfrwt beam="1">  1       -3 0.17170866E-01 0.20000241E+02</pdfrwt>
<totfact> 0.13761606E+06</totfact>
</mgrwt>
</event>
<event>
 5    1  0.4133473E-007  0.2000033E+02  0.7818608E-02  0.1745322E+00
         -3   -1    0    0    0  501 -0.00000000000E+00  0.00000000000E+00  0.12037826433E+02  0.12038185670E+02  0.93000000000E-01 0. -1.
          3   -1    0    0  501    0  0.00000000000E+00 -0.00000000000E+00 -0.83066773605E+01  0.83071979495E+01  0.93000000000E-01 0.  1.
       1023    2    1    2    0    0  0.00000000000E+00  0.00000000000E+00  0.37311490724E+01  0.20345383620E+02  0.20000329028E+02 0.  0.
        -11    1    3    3    0    0  0.70298875720E+01 -0.71121773036E+01  0.18349761431E+01  0.10167080357E+02  0.51100000000E-03 0. -1.
         11    1    3    3    0    0 -0.70298875720E+01  0.71121773036E+01  0.18961729293E+01  0.10178303263E+02  0.51100000000E-03 0.  1.
<mgrwt>
<rscale>  0 0.20000329E+02</rscale>
<asrwt>0</asrwt>
<pdfrwt beam="2">  1        3 0.12780180E-02 0.20000329E+02</pdfrwt>
<pdfrwt beam="1">  1       -3 0.18520410E-02 0.20000329E+02</pdfrwt>
<totfact> 0.17862546E+06</totfact>
</mgrwt>
</event>
<event>
 5    1  0.4322671E-007  0.2000073E+02  0.7818608E-02  0.1745314E+00
         -3   -1    0    0    0  501 -0.00000000000E+00  0.00000000000E+00  0.78654670571E+01  0.78660168463E+01  0.93000000000E-01 0.  1.
          3   -1    0    0  501    0  0.00000000000E+00 -0.00000000000E+00 -0.12713562898E+02  0.12713903042E+02  0.93000000000E-01 0. -1.
       1023    2    1    2    0    0  0.00000000000E+00  0.00000000000E+00 -0.48480958411E+01  0.20579919889E+02  0.20000726720E+02 0.  0.
        -11    1    3    3    0    0 -0.62398614268E+00  0.99805939699E+01 -0.23466884711E+01  0.10271736063E+02  0.51100000000E-03 0.  1.
         11    1    3    3    0    0  0.62398614268E+00 -0.99805939699E+01 -0.25014073700E+01  0.10308183826E+02  0.51100000000E-03 0. -1.
<mgrwt>
<rscale>  0 0.20000727E+02</rscale>
<asrwt>0</asrwt>
<pdfrwt beam="2">  1        3 0.19560012E-02 0.20000727E+02</pdfrwt>
<pdfrwt beam="1">  1       -3 0.12101403E-02 0.20000727E+02</pdfrwt>
<totfact> 0.17846110E+06</totfact>
</mgrwt>
</event>
<event>
 5    1  0.4253119E-007  0.2000098E+02  0.7818608E-02  0.1745309E+00
         -3   -1    0    0    0  501 -0.00000000000E+00  0.00000000000E+00  0.12684643881E+02  0.12684984801E+02  0.93000000000E-01 0. -1.
          3   -1    0    0  501    0  0.00000000000E+00 -0.00000000000E+00 -0.78836002277E+01  0.78841487524E+01  0.93000000000E-01 0.  1.
       1023    2    1    2    0    0  0.00000000000E+00  0.00000000000E+00  0.48010436538E+01  0.20569133553E+02  0.20000980850E+02 0.  0.
        -11    1    3    3    0    0  0.68103111064E+01 -0.73231062406E+01  0.23595646022E+01  0.10275006947E+02  0.51100000000E-03 0.  1.
         11    1    3    3    0    0 -0.68103111064E+01  0.73231062406E+01  0.24414790515E+01  0.10294126607E+02  0.51100000000E-03 0. -1.
<mgrwt>
<rscale>  0 0.20000981E+02</rscale>
<asrwt>0</asrwt>
<pdfrwt beam="2">  1        3 0.12129300E-02 0.20000981E+02</pdfrwt>
<pdfrwt beam="1">  1       -3 0.19515521E-02 0.20000981E+02</pdfrwt>
<totfact> 0.17846747E+06</totfact>
</mgrwt>
</event>
<event>
 5    1  0.4133473E-007  0.2000897E+02  0.7818608E-02  0.1745150E+00
         -3   -1    0    0    0  501 -0.00000000000E+00  0.00000000000E+00  0.32176655520E+02  0.32176789918E+02  0.93000000000E-01 0. -1.
          3   -1    0    0  501    0  0.00000000000E+00 -0.00000000000E+00 -0.31097963306E+01  0.31111866253E+01  0.93000000000E-01 0.  1.
       1023    2    1    2    0    0  0.00000000000E+00  0.00000000000E+00  0.29066859189E+02  0.35287976544E+02  0.20008972623E+02 0.  0.
        -11    1    3    3    0    0 -0.87777983082E+01 -0.47964439525E+01  0.14207623132E+02  0.17375620077E+02  0.51100000000E-03 0.  1.
         11    1    3    3    0    0  0.87777983082E+01  0.47964439525E+01  0.14859236057E+02  0.17912356467E+02  0.51100000000E-03 0. -1.
<mgrwt>
<rscale>  0 0.20008973E+02</rscale>
<asrwt>0</asrwt>
<pdfrwt beam="2">  1        3 0.47854751E-03 0.20008973E+02</pdfrwt>
<pdfrwt beam="1">  1       -3 0.49503717E-02 0.20008973E+02</pdfrwt>
<totfact> 0.16951778E+06</totfact>
</mgrwt>
</event>
<event>
 5    1  0.4133473E-007  0.2000040E+02  0.7818608E-02  0.1745320E+00
         -3   -1    0    0    0  501 -0.00000000000E+00  0.00000000000E+00  0.35777150002E+02  0.35777270875E+02  0.93000000000E-01 0. -1.
          3   -1    0    0  501    0  0.00000000000E+00 -0.00000000000E+00 -0.27942918452E+01  0.27958390362E+01  0.93000000000E-01 0.  1.
       1023    2    1    2    0    0  0.00000000000E+00  0.00000000000E+00  0.32982858157E+02  0.38573109911E+02  0.20000396897E+02 0.  0.
        -11    1    3    3    0    0  0.53830856532E+01 -0.84277112545E+01  0.16503718901E+02  0.19297063662E+02  0.51100000000E-03 0. -1.
         11    1    3    3    0    0 -0.53830856532E+01  0.84277112545E+01  0.16479139255E+02  0.19276046249E+02  0.51100000000E-03 0.  1.
<mgrwt>
<rscale>  0 0.20000397E+02</rscale>
<asrwt>0</asrwt>
<pdfrwt beam="2">  1        3 0.43001937E-03 0.20000397E+02</pdfrwt>
<pdfrwt beam="1">  1       -3 0.55043052E-02 0.20000397E+02</pdfrwt>
<totfact> 0.16789061E+06</totfact>
</mgrwt>
</event>
<event>
 5    1  0.4133473E-007  0.2000160E+02  0.7818608E-02  0.1745296E+00
          3   -1    0    0  501    0  0.00000000000E+00  0.00000000000E+00  0.13146491039E+02  0.13146819982E+02  0.93000000000E-01 0. -1.
         -3   -1    0    0    0  501 -0.00000000000E+00 -0.00000000000E+00 -0.76071039914E+01  0.76076724519E+01  0.93000000000E-01 0.  1.
       1023    2    1    2    0    0  0.00000000000E+00  0.00000000000E+00  0.55393870481E+01  0.20754492434E+02  0.20001603619E+02 0.  0.
        -11    1    3    3    0    0 -0.99202669050E+01 -0.12621643032E+01  0.28799102898E+01  0.10406663141E+02  0.51100000000E-03 0.  1.
         11    1    3    3    0    0  0.99202669050E+01  0.12621643032E+01  0.26594767583E+01  0.10347829293E+02  0.51100000000E-03 0. -1.
<mgrwt>
<rscale>  0 0.20001604E+02</rscale>
<asrwt>0</asrwt>
<pdfrwt beam="1">  1        3 0.20226061E-02 0.20001604E+02</pdfrwt>
<pdfrwt beam="2">  1       -3 0.11703927E-02 0.20001604E+02</pdfrwt>
<totfact> 0.17833040E+06</totfact>
</mgrwt>
</event>
<event>
 5    1  0.4133473E-007  0.2000021E+02  0.7818608E-02  0.1745324E+00
         -3   -1    0    0    0  501 -0.00000000000E+00  0.00000000000E+00  0.27165418448E+02  0.27165577639E+02  0.93000000000E-01 0.  1.
          3   -1    0    0  501    0  0.00000000000E+00 -0.00000000000E+00 -0.36804694440E+01  0.36816442425E+01  0.93000000000E-01 0. -1.
       1023    2    1    2    0    0  0.00000000000E+00  0.00000000000E+00  0.23484949004E+02  0.30847221881E+02  0.20000206701E+02 0.  0.
        -11    1    3    3    0    0  0.76900654872E+00 -0.99704885048E+01  0.11731071253E+02  0.15414929293E+02  0.51100000000E-03 0. -1.
         11    1    3    3    0    0 -0.76900654872E+00  0.99704885048E+01  0.11753877751E+02  0.15432292589E+02  0.51100000000E-03 0.  1.
<mgrwt>
<rscale>  0 0.20000207E+02</rscale>
<asrwt>0</asrwt>
<pdfrwt beam="2">  1        3 0.56632867E-03 0.20000207E+02</pdfrwt>
<pdfrwt beam="1">  1       -3 0.41793978E-02 0.20000207E+02</pdfrwt>
<totfact> 0.17218560E+06</totfact>
</mgrwt>
</event>
<event>
 5    1  0.4133473E-007  0.2000110E+02  0.7818608E-02  0.1745306E+00
          3   -1    0    0  501    0  0.00000000000E+00  0.00000000000E+00  0.60916586328E+02  0.60916657319E+02  0.93000000000E-01 0.  1.
         -3   -1    0    0    0  501 -0.00000000000E+00 -0.00000000000E+00 -0.16403798608E+01  0.16430140254E+01  0.93000000000E-01 0. -1.
       1023    2    1    2    0    0  0.00000000000E+00  0.00000000000E+00  0.59276206467E+02  0.62559671344E+02  0.20001095608E+02 0.  0.
        -11    1    3    3    0    0 -0.80030796073E+01 -0.59968043771E+01  0.29628124281E+02  0.31270380468E+02  0.51100000000E-03 0.  1.
         11    1    3    3    0    0  0.80030796073E+01  0.59968043771E+01  0.29648082187E+02  0.31289290876E+02  0.51100000000E-03 0. -1.
<mgrwt>
<rscale>  0 0.20001096E+02</rscale>
<asrwt>0</asrwt>
<pdfrwt beam="1">  1        3 0.93719900E-02 0.20001096E+02</pdfrwt>
<pdfrwt beam="2">  1       -3 0.25257424E-03 0.20001096E+02</pdfrwt>
<totfact> 0.15628582E+06</totfact>
</mgrwt>
</event>
<event>
 5    1  0.4133473E-007  0.2000751E+02  0.7818608E-02  0.1745179E+00
         -3   -1    0    0    0  501 -0.00000000000E+00  0.00000000000E+00  0.18160397893E+02  0.18160636019E+02  0.93000000000E-01 0. -1.
          3   -1    0    0  501    0  0.00000000000E+00 -0.00000000000E+00 -0.55099543331E+01  0.55107391294E+01  0.93000000000E-01 0.  1.
       1023    2    1    2    0    0  0.00000000000E+00  0.00000000000E+00  0.12650443560E+02  0.23671375149E+02  0.20007505571E+02 0.  0.
        -11    1    3    3    0    0  0.40848713675E+01  0.91312126812E+01  0.62077975337E+01  0.11772933772E+02  0.51100000000E-03 0.  1.
         11    1    3    3    0    0 -0.40848713675E+01 -0.91312126812E+01  0.64426460261E+01  0.11898441377E+02  0.51100000000E-03 0. -1.
<mgrwt>
<rscale>  0 0.20007506E+02</rscale>
<asrwt>0</asrwt>
<pdfrwt beam="2">  1        3 0.84776398E-03 0.20007506E+02</pdfrwt>
<pdfrwt beam="1">  1       -3 0.27939860E-02 0.20007506E+02</pdfrwt>
<totfact> 0.17636195E+06</totfact>
</mgrwt>
</event>
<event>
 5    1  0.4133473E-007  0.2000036E+02  0.7818608E-02  0.1745321E+00
          3   -1    0    0  501    0  0.00000000000E+00  0.00000000000E+00  0.10610808131E+02  0.10611215680E+02  0.93000000000E-01 0. -1.
         -3   -1    0    0    0  501 -0.00000000000E+00 -0.00000000000E+00 -0.94238757211E+01  0.94243345975E+01  0.93000000000E-01 0.  1.
       1023    2    1    2    0    0  0.00000000000E+00  0.00000000000E+00  0.11869324104E+01  0.20035550277E+02  0.20000361656E+02 0.  0.
        -11    1    3    3    0    0  0.96216265615E+01  0.27254198288E+01  0.59113854176E+00  0.10017637245E+02  0.51100000000E-03 0.  1.
         11    1    3    3    0    0 -0.96216265615E+01 -0.27254198288E+01  0.59579386865E+00  0.10017913033E+02  0.51100000000E-03 0. -1.
<mgrwt>
<rscale>  0 0.20000362E+02</rscale>
<asrwt>0</asrwt>
<pdfrwt beam="1">  1        3 0.16324987E-02 0.20000362E+02</pdfrwt>
<pdfrwt beam="2">  1       -3 0.14498937E-02 0.20000362E+02</pdfrwt>
<totfact> 0.17882567E+06</totfact>
</mgrwt>
</event>
<event>
 5    1  0.4315426E-007  0.2000093E+02  0.7818608E-02  0.1745310E+00
         -3   -1    0    0    0  501 -0.00000000000E+00  0.00000000000E+00  0.11507641947E+02  0.11508017735E+02  0.93000000000E-01 0.  1.
          3   -1    0    0  501    0  0.00000000000E+00 -0.00000000000E+00 -0.86899210764E+01  0.86904187076E+01  0.93000000000E-01 0. -1.
       1023    2    1    2    0    0  0.00000000000E+00  0.00000000000E+00  0.28177208708E+01  0.20198436442E+02  0.20000932074E+02 0.  0.
        -11    1    3    3    0    0 -0.47156589415E+01 -0.88188074223E+01  0.13858963034E+01  0.10096014681E+02  0.51100000000E-03 0. -1.
         11    1    3    3    0    0  0.47156589415E+01  0.88188074223E+01  0.14318245674E+01  0.10102421762E+02  0.51100000000E-03 0.  1.
<mgrwt>
<rscale>  0 0.20000932E+02</rscale>
<asrwt>0</asrwt>
<pdfrwt beam="2">  1        3 0.13369781E-02 0.20000932E+02</pdfrwt>
<pdfrwt beam="1">  1       -3 0.17704736E-02 0.20000932E+02</pdfrwt>
<totfact> 0.17870979E+06</totfact>
</mgrwt>
</event>
<event>
 5    1  0.4133473E-007  0.2000023E+02  0.7818608E-02  0.1745324E+00
          3   -1    0    0  501    0  0.00000000000E+00  0.00000000000E+00  0.16617286844E+01  0.16643290601E+01  0.93000000000E-01 0. -1.
         -3   -1    0    0    0  501 -0.00000000000E+00 -0.00000000000E+00 -0.60129990732E+02  0.60130062651E+02  0.93000000000E-01 0.  1.
       1023    2    1    2    0    0  0.00000000000E+00  0.00000000000E+00 -0.58468262048E+02  0.61794391712E+02  0.20000229501E+02 0.  0.
        -11    1    3    3    0    0  0.44125960556E+01 -0.89738671979E+01 -0.29136508334E+02  0.30804827780E+02  0.51100000000E-03 0.  1.
         11    1    3    3    0    0 -0.44125960556E+01  0.89738671979E+01 -0.29331753714E+02  0.30989563931E+02  0.51100000000E-03 0. -1.
<mgrwt>
<rscale>  0 0.20000230E+02</rscale>
<asrwt>0</asrwt>
<pdfrwt beam="1">  1        3 0.25585617E-03 0.20000230E+02</pdfrwt>
<pdfrwt beam="2">  1       -3 0.92509717E-02 0.20000230E+02</pdfrwt>
<totfact> 0.15666449E+06</totfact>
</mgrwt>
</event>
<event>
 5    1  0.4156683E-007  0.2000249E+02  0.7818608E-02  0.1745279E+00
         -3   -1    0    0    0  501 -0.00000000000E+00  0.00000000000E+00  0.36912963145E+02  0.36913080298E+02  0.93000000000E-01 0.  1.
          3   -1    0    0  501    0  0.00000000000E+00 -0.00000000000E+00 -0.27088313315E+01  0.27104273063E+01  0.93000000000E-01 0. -1.
       1023    2    1    2    0    0  0.00000000000E+00  0.00000000000E+00  0.34204131813E+02  0.39623507605E+02  0.20002492890E+02 0.  0.
        -11    1    3    3    0    0  0.58282083217E+00  0.99831483764E+01  0.16808256316E+02  0.19558129059E+02  0.51100000000E-03 0. -1.
         11    1    3    3    0    0 -0.58282083217E+00 -0.99831483764E+01  0.17395875497E+02  0.20065378546E+02  0.51100000000E-03 0.  1.
<mgrwt>
<rscale>  0 0.20002493E+02</rscale>
<asrwt>0</asrwt>
<pdfrwt beam="2">  1        3 0.41687506E-03 0.20002493E+02</pdfrwt>
<pdfrwt beam="1">  1       -3 0.56790492E-02 0.20002493E+02</pdfrwt>
<totfact> 0.16729450E+06</totfact>
</mgrwt>
</event>
<event>
 5    1  0.4165824E-007  0.2000154E+02  0.7818608E-02  0.1745297E+00
         -3   -1    0    0    0  501 -0.00000000000E+00  0.00000000000E+00  0.32441548060E+02  0.32441681361E+02  0.93000000000E-01 0. -1.
          3   -1    0    0  501    0  0.00000000000E+00 -0.00000000000E+00 -0.30821003760E+01  0.30835031584E+01  0.93000000000E-01 0.  1.
       1023    2    1    2    0    0  0.00000000000E+00  0.00000000000E+00  0.29359447684E+02  0.35525184519E+02  0.20001539111E+02 0.  0.
        -11    1    3    3    0    0 -0.49326426903E+01 -0.86993229358E+01  0.14819666008E+02  0.17878246119E+02  0.51100000000E-03 0. -1.
         11    1    3    3    0    0  0.49326426903E+01  0.86993229358E+01  0.14539781675E+02  0.17646938400E+02  0.51100000000E-03 0.  1.
<mgrwt>
<rscale>  0 0.20001539E+02</rscale>
<asrwt>0</asrwt>
<pdfrwt beam="2">  1        3 0.47428746E-03 0.20001539E+02</pdfrwt>
<pdfrwt beam="1">  1       -3 0.49911255E-02 0.20001539E+02</pdfrwt>
<totfact> 0.16952262E+06</totfact>
</mgrwt>
</event>
<event>
 5    1  0.4133473E-007  0.2000008E+02  0.7818608E-02  0.1745327E+00
         -3   -1    0    0    0  501 -0.00000000000E+00  0.00000000000E+00  0.11055318719E+02  0.11055709881E+02  0.93000000000E-01 0.  1.
          3   -1    0    0  501    0  0.00000000000E+00 -0.00000000000E+00 -0.90447008642E+01  0.90451789769E+01  0.93000000000E-01 0. -1.
       1023    2    1    2    0    0  0.00000000000E+00  0.00000000000E+00  0.20106178543E+01  0.20100888858E+02  0.20000078718E+02 0.  0.
        -11    1    3    3    0    0  0.52970879199E+00  0.99859876001E+01  0.98950824160E+00  0.10048863944E+02  0.51100000000E-03 0.  1.
         11    1    3    3    0    0 -0.52970879199E+00 -0.99859876001E+01  0.10211096127E+01  0.10052024913E+02  0.51100000000E-03 0. -1.
<mgrwt>
<rscale>  0 0.20000079E+02</rscale>
<asrwt>0</asrwt>
<pdfrwt beam="2">  1        3 0.13915593E-02 0.20000079E+02</pdfrwt>
<pdfrwt beam="1">  1       -3 0.17008851E-02 0.20000079E+02</pdfrwt>
<totfact> 0.17879007E+06</totfact>
</mgrwt>
</event>
<event>
 5    1  0.4133473E-007  0.2000639E+02  0.7818608E-02  0.1745201E+00
         -3   -1    0    0    0  501 -0.00000000000E+00  0.00000000000E+00  0.13295758530E+01  0.13328244254E+01  0.93000000000E-01 0.  1.
          3   -1    0    0  501    0  0.00000000000E+00 -0.00000000000E+00 -0.75164887367E+02  0.75164944900E+02  0.93000000000E-01 0. -1.
       1023    2    1    2    0    0  0.00000000000E+00  0.00000000000E+00 -0.73835311514E+02  0.76497769326E+02  0.20006386117E+02 0.  0.
        -11    1    3    3    0    0  0.80568305775E+01  0.59236882175E+01 -0.35971191425E+02  0.37335361440E+02  0.51100000000E-03 0.  1.
         11    1    3    3    0    0 -0.80568305775E+01 -0.59236882175E+01 -0.37864120089E+02  0.39162407886E+02  0.51100000000E-03 0. -1.
<mgrwt>
<rscale>  0 0.20006386E+02</rscale>
<asrwt>0</asrwt>
<pdfrwt beam="2">  1        3 0.11564080E-01 0.20006386E+02</pdfrwt>
<pdfrwt beam="1">  1       -3 0.20480451E-03 0.20006386E+02</pdfrwt>
<totfact> 0.15038755E+06</totfact>
</mgrwt>
</event>
<event>
 5    1  0.4133473E-007  0.2000063E+02  0.7818608E-02  0.1745316E+00
         -3   -1    0    0    0  501 -0.00000000000E+00  0.00000000000E+00  0.44361093301E+02  0.44361190785E+02  0.93000000000E-01 0. -1.
          3   -1    0    0  501    0  0.00000000000E+00 -0.00000000000E+00 -0.22533095681E+01  0.22552279285E+01  0.93000000000E-01 0.  1.
       1023    2    1    2    0    0  0.00000000000E+00  0.00000000000E+00  0.42107783733E+02  0.46616418714E+02  0.20000626060E+02 0.  0.
        -11    1    3    3    0    0  0.80899953619E+01 -0.58781825239E+01  0.20885727275E+02  0.23156309265E+02  0.51100000000E-03 0. -1.
         11    1    3    3    0    0 -0.80899953619E+01  0.58781825239E+01  0.21222056459E+02  0.23460109448E+02  0.51100000000E-03 0.  1.
<mgrwt>
<rscale>  0 0.20000626E+02</rscale>
<asrwt>0</asrwt>
<pdfrwt beam="2">  1        3 0.34681807E-03 0.20000626E+02</pdfrwt>
<pdfrwt beam="1">  1       -3 0.68249387E-02 0.20000626E+02</pdfrwt>
<totfact> 0.16374334E+06</totfact>
</mgrwt>
</event>
<event>
 5    1  0.4133473E-007  0.2000041E+02  0.7818608E-02  0.1745320E+00
         -3   -1    0    0    0  501 -0.00000000000E+00  0.00000000000E+00  0.46309470901E+01  0.46318808222E+01  0.93000000000E-01 0.  1.
          3   -1    0    0  501    0  0.00000000000E+00 -0.00000000000E+00 -0.21591536794E+02  0.21591737079E+02  0.93000000000E-01 0. -1.
       1023    2    1    2    0    0  0.00000000000E+00  0.00000000000E+00 -0.16960589703E+02  0.26223617902E+02  0.20000413315E+02 0.  0.
        -11    1    3    3    0    0  0.80351994190E+01 -0.59531179872E+01 -0.84926959439E+01  0.13119829577E+02  0.51100000000E-03 0.  1.
         11    1    3    3    0    0 -0.80351994190E+01  0.59531179872E+01 -0.84678937596E+01  0.13103788325E+02  0.51100000000E-03 0. -1.
<mgrwt>
<rscale>  0 0.20000413E+02</rscale>
<asrwt>0</asrwt>
<pdfrwt beam="2">  1        3 0.33218621E-02 0.20000413E+02</pdfrwt>
<pdfrwt beam="1">  1       -3 0.71254064E-03 0.20000413E+02</pdfrwt>
<totfact> 0.17490729E+06</totfact>
</mgrwt>
</event>
<event>
 5    1  0.4133473E-007  0.2000643E+02  0.7818608E-02  0.1745200E+00
          3   -1    0    0  501    0  0.00000000000E+00  0.00000000000E+00  0.92888312385E+01  0.92892967859E+01  0.93000000000E-01 0.  1.
         -3   -1    0    0    0  501 -0.00000000000E+00 -0.00000000000E+00 -0.10771605605E+02  0.10772007070E+02  0.93000000000E-01 0. -1.
       1023    2    1    2    0    0  0.00000000000E+00  0.00000000000E+00 -0.14827743666E+01  0.20061303856E+02  0.20006431280E+02 0.  0.
        -11    1    3    3    0    0 -0.62369686774E+01  0.78195679896E+01 -0.60352900668E+00  0.10020462532E+02  0.51100000000E-03 0.  1.
         11    1    3    3    0    0  0.62369686774E+01 -0.78195679896E+01 -0.87924535988E+00  0.10040841324E+02  0.51100000000E-03 0. -1.
<mgrwt>
<rscale>  0 0.20006431E+02</rscale>
<asrwt>0</asrwt>
<pdfrwt beam="1">  1        3 0.14291177E-02 0.20006431E+02</pdfrwt>
<pdfrwt beam="2">  1       -3 0.16572368E-02 0.20006431E+02</pdfrwt>
<totfact> 0.17869319E+06</totfact>
</mgrwt>
</event>
<event>
 5    1  0.4355868E-007  0.2000077E+02  0.7818608E-02  0.1745313E+00
          3   -1    0    0  501    0  0.00000000000E+00  0.00000000000E+00  0.11840645440E+02  0.11841010660E+02  0.93000000000E-01 0. -1.
         -3   -1    0    0    0  501 -0.00000000000E+00 -0.00000000000E+00 -0.84453868776E+01  0.84458989167E+01  0.93000000000E-01 0.  1.
       1023    2    1    2    0    0  0.00000000000E+00  0.00000000000E+00  0.33952585627E+01  0.20286909576E+02  0.20000772971E+02 0.  0.
        -11    1    3    3    0    0  0.93844953869E+01 -0.34551253495E+01  0.17310360755E+01  0.10149045817E+02  0.51100000000E-03 0. -1.
         11    1    3    3    0    0 -0.93844953869E+01  0.34551253495E+01  0.16642224872E+01  0.10137863759E+02  0.51100000000E-03 0.  1.
<mgrwt>
<rscale>  0 0.20000773E+02</rscale>
<asrwt>0</asrwt>
<pdfrwt beam="1">  1        3 0.18217052E-02 0.20000773E+02</pdfrwt>
<pdfrwt beam="2">  1       -3 0.12993578E-02 0.20000773E+02</pdfrwt>
<totfact> 0.17865205E+06</totfact>
</mgrwt>
</event>
<event>
 5    1  0.4133473E-007  0.2000042E+02  0.7818608E-02  0.1745320E+00
         -3   -1    0    0    0  501 -0.00000000000E+00  0.00000000000E+00  0.14473202093E+02  0.14473500884E+02  0.93000000000E-01 0. -1.
          3   -1    0    0  501    0  0.00000000000E+00 -0.00000000000E+00 -0.69089266460E+01  0.69095525470E+01  0.93000000000E-01 0.  1.
       1023    2    1    2    0    0  0.00000000000E+00  0.00000000000E+00  0.75642754475E+01  0.21383053431E+02  0.20000417770E+02 0.  0.
        -11    1    3    3    0    0 -0.95641471822E+01  0.29207680412E+01  0.38029847346E+01  0.10698901365E+02  0.51100000000E-03 0.  1.
         11    1    3    3    0    0  0.95641471822E+01 -0.29207680412E+01  0.37612907129E+01  0.10684152066E+02  0.51100000000E-03 0. -1.
<mgrwt>
<rscale>  0 0.20000418E+02</rscale>
<asrwt>0</asrwt>
<pdfrwt beam="2">  1        3 0.10629829E-02 0.20000418E+02</pdfrwt>
<pdfrwt beam="1">  1       -3 0.22267176E-02 0.20000418E+02</pdfrwt>
<totfact> 0.17795039E+06</totfact>
</mgrwt>
</event>
<event>
 5    1  0.4205485E-007  0.2000228E+02  0.7818608E-02  0.1745283E+00
         -3   -1    0    0    0  501 -0.00000000000E+00  0.00000000000E+00  0.61923197939E+01  0.61930181197E+01  0.93000000000E-01 0. -1.
          3   -1    0    0  501    0  0.00000000000E+00 -0.00000000000E+00 -0.16150971294E+02  0.16151239047E+02  0.93000000000E-01 0.  1.
       1023    2    1    2    0    0  0.00000000000E+00  0.00000000000E+00 -0.99586515001E+01  0.22344257166E+02  0.20002277086E+02 0.  0.
        -11    1    3    3    0    0 -0.71718195165E+01  0.69701844826E+01 -0.49060310172E+01  0.11139461724E+02  0.51100000000E-03 0. -1.
         11    1    3    3    0    0  0.71718195165E+01 -0.69701844826E+01 -0.50526204829E+01  0.11204795442E+02  0.51100000000E-03 0.  1.
<mgrwt>
<rscale>  0 0.20002277E+02</rscale>
<asrwt>0</asrwt>
<pdfrwt beam="2">  1        3 0.24848391E-02 0.20002277E+02</pdfrwt>
<pdfrwt beam="1">  1       -3 0.95273890E-03 0.20002277E+02</pdfrwt>
<totfact> 0.17729088E+06</totfact>
</mgrwt>
</event>
<event>
 5    1  0.4234094E-007  0.2000057E+02  0.7818608E-02  0.1745317E+00
         -3   -1    0    0    0  501 -0.00000000000E+00  0.00000000000E+00  0.36619477964E+01  0.36631285349E+01  0.93000000000E-01 0. -1.
          3   -1    0    0  501    0  0.00000000000E+00 -0.00000000000E+00 -0.27303775510E+02  0.27303933894E+02  0.93000000000E-01 0.  1.
       1023    2    1    2    0    0  0.00000000000E+00  0.00000000000E+00 -0.23641827714E+02  0.30967062429E+02  0.20000573438E+02 0.  0.
        -11    1    3    3    0    0  0.97267034606E+01  0.23225805805E+01 -0.11899762737E+02  0.15543728453E+02  0.51100000000E-03 0. -1.
         11    1    3    3    0    0 -0.97267034606E+01 -0.23225805805E+01 -0.11742064977E+02  0.15423333976E+02  0.51100000000E-03 0.  1.
<mgrwt>
<rscale>  0 0.20000573E+02</rscale>
<asrwt>0</asrwt>
<pdfrwt beam="2">  1        3 0.42006837E-02 0.20000573E+02</pdfrwt>
<pdfrwt beam="1">  1       -3 0.56347961E-03 0.20000573E+02</pdfrwt>
<totfact> 0.17209221E+06</totfact>
</mgrwt>
</event>
<event>
 5    1  0.4133473E-007  0.2000373E+02  0.7818608E-02  0.1745254E+00
          3   -1    0    0  501    0  0.00000000000E+00  0.00000000000E+00  0.11731984967E+03  0.11731988653E+03  0.93000000000E-01 0. -1.
         -3   -1    0    0    0  501 -0.00000000000E+00 -0.00000000000E+00 -0.85011547134E+00  0.85518729797E+00  0.93000000000E-01 0.  1.
       1023    2    1    2    0    0  0.00000000000E+00  0.00000000000E+00  0.11646973420E+03  0.11817507383E+03  0.20003726906E+02 0.  0.
        -11    1    3    3    0    0  0.79559793407E+01 -0.60583245044E+01  0.59361498432E+02  0.60197910258E+02  0.51100000000E-03 0. -1.
         11    1    3    3    0    0 -0.79559793407E+01  0.60583245044E+01  0.57108235766E+02  0.57977163570E+02  0.51100000000E-03 0.  1.
<mgrwt>
<rscale>  0 0.20003727E+02</rscale>
<asrwt>0</asrwt>
<pdfrwt beam="1">  1        3 0.18049603E-01 0.20003727E+02</pdfrwt>
<pdfrwt beam="2">  1       -3 0.13117995E-03 0.20003727E+02</pdfrwt>
<totfact> 0.13572800E+06</totfact>
</mgrwt>
</event>
<event>
 5    1  0.4133473E-007  0.2000030E+02  0.7818608E-02  0.1745322E+00
         -3   -1    0    0    0  501 -0.00000000000E+00  0.00000000000E+00  0.10931303439E+02  0.10931699039E+02  0.93000000000E-01 0.  1.
          3   -1    0    0  501    0  0.00000000000E+00 -0.00000000000E+00 -0.91475123799E+01  0.91479851192E+01  0.93000000000E-01 0. -1.
       1023    2    1    2    0    0  0.00000000000E+00  0.00000000000E+00  0.17837910590E+01  0.20079684158E+02  0.20000295131E+02 0.  0.
        -11    1    3    3    0    0 -0.87145899207E+01  0.49049297470E+01  0.91517732261E+00  0.10041910331E+02  0.51100000000E-03 0.  1.
         11    1    3    3    0    0  0.87145899207E+01 -0.49049297470E+01  0.86861373634E+00  0.10037773827E+02  0.51100000000E-03 0. -1.
<mgrwt>
<rscale>  0 0.20000295E+02</rscale>
<asrwt>0</asrwt>
<pdfrwt beam="2">  1        3 0.14073764E-02 0.20000295E+02</pdfrwt>
<pdfrwt beam="1">  1       -3 0.16818058E-02 0.20000295E+02</pdfrwt>
<totfact> 0.17879958E+06</totfact>
</mgrwt>
</event>
<event>
 5    1  0.4133473E-007  0.2000028E+02  0.7818608E-02  0.1745322E+00
         -3   -1    0    0    0  501 -0.00000000000E+00  0.00000000000E+00  0.13932046241E+02  0.13932356638E+02  0.93000000000E-01 0.  1.
          3   -1    0    0  501    0  0.00000000000E+00 -0.00000000000E+00 -0.71772088582E+01  0.71778113652E+01  0.93000000000E-01 0. -1.
       1023    2    1    2    0    0  0.00000000000E+00  0.00000000000E+00  0.67548373833E+01  0.21110168003E+02  0.20000284124E+02 0.  0.
        -11    1    3    3    0    0 -0.44847434680E+00  0.99900682036E+01  0.33940755365E+01  0.10560413863E+02  0.51100000000E-03 0. -1.
         11    1    3    3    0    0  0.44847434680E+00 -0.99900682036E+01  0.33607618468E+01  0.10549754140E+02  0.51100000000E-03 0.  1.
<mgrwt>
<rscale>  0 0.20000284E+02</rscale>
<asrwt>0</asrwt>
<pdfrwt beam="2">  1        3 0.11042562E-02 0.20000284E+02</pdfrwt>
<pdfrwt beam="1">  1       -3 0.21434619E-02 0.20000284E+02</pdfrwt>
<totfact> 0.17812938E+06</totfact>
</mgrwt>
</event>
<event>
 5    1  0.4133473E-007  0.2000016E+02  0.7818608E-02  0.1745325E+00
          3   -1    0    0  501    0  0.00000000000E+00  0.00000000000E+00  0.33373075435E+02  0.33373205015E+02  0.93000000000E-01 0.  1.
         -3   -1    0    0    0  501 -0.00000000000E+00 -0.00000000000E+00 -0.29956190521E+01  0.29970623126E+01  0.93000000000E-01 0. -1.
       1023    2    1    2    0    0  0.00000000000E+00  0.00000000000E+00  0.30377456382E+02  0.36370267327E+02  0.20000162229E+02 0.  0.
        -11    1    3    3    0    0 -0.91631620437E+01 -0.40046463529E+01  0.15134447046E+02  0.18139796545E+02  0.51100000000E-03 0. -1.
         11    1    3    3    0    0  0.91631620437E+01  0.40046463529E+01  0.15243009336E+02  0.18230470782E+02  0.51100000000E-03 0.  1.
<mgrwt>
<rscale>  0 0.20000162E+02</rscale>
<asrwt>0</asrwt>
<pdfrwt beam="1">  1        3 0.51344402E-02 0.20000162E+02</pdfrwt>
<pdfrwt beam="2">  1       -3 0.46098546E-03 0.20000162E+02</pdfrwt>
<totfact> 0.16906402E+06</totfact>
</mgrwt>
</event>
<event>
 5    1  0.4133473E-007  0.2000037E+02  0.7818608E-02  0.1745321E+00
         -3   -1    0    0    0  501 -0.00000000000E+00  0.00000000000E+00  0.10496956837E+01  0.10538073962E+01  0.93000000000E-01 0. -1.
          3   -1    0    0  501    0  0.00000000000E+00 -0.00000000000E+00 -0.95078865565E+02  0.95078911048E+02  0.93000000000E-01 0.  1.
       1023    2    1    2    0    0  0.00000000000E+00  0.00000000000E+00 -0.94029169881E+02  0.96132718444E+02  0.20000369171E+02 0.  0.
        -11    1    3    3    0    0  0.99133912443E+01 -0.13139400759E+01 -0.47225580563E+02  0.48272737899E+02  0.51100000000E-03 0. -1.
         11    1    3    3    0    0 -0.99133912443E+01  0.13139400759E+01 -0.46803589318E+02  0.47859980545E+02  0.51100000000E-03 0.  1.
<mgrwt>
<rscale>  0 0.20000369E+02</rscale>
<asrwt>0</asrwt>
<pdfrwt beam="2">  1        3 0.14627831E-01 0.20000369E+02</pdfrwt>
<pdfrwt beam="1">  1       -3 0.16181150E-03 0.20000369E+02</pdfrwt>
<totfact> 0.14312782E+06</totfact>
</mgrwt>
</event>
<event>
 5    1  0.4252999E-007  0.2000077E+02  0.7818608E-02  0.1745313E+00
          3   -1    0    0  501    0  0.00000000000E+00  0.00000000000E+00  0.10970351140E+02  0.10970745332E+02  0.93000000000E-01 0. -1.
         -3   -1    0    0    0  501 -0.00000000000E+00 -0.00000000000E+00 -0.91153812359E+01  0.91158556415E+01  0.93000000000E-01 0.  1.
       1023    2    1    2    0    0  0.00000000000E+00  0.00000000000E+00  0.18549699043E+01  0.20086600974E+02  0.20000765618E+02 0.  0.
        -11    1    3    3    0    0  0.99686514371E+01  0.79599118152E+00  0.92092747263E+00  0.10042694913E+02  0.51100000000E-03 0. -1.
         11    1    3    3    0    0 -0.99686514371E+01 -0.79599118152E+00  0.93404243167E+00  0.10043906061E+02  0.51100000000E-03 0.  1.
<mgrwt>
<rscale>  0 0.20000766E+02</rscale>
<asrwt>0</asrwt>
<pdfrwt beam="1">  1        3 0.16878131E-02 0.20000766E+02</pdfrwt>
<pdfrwt beam="2">  1       -3 0.14024332E-02 0.20000766E+02</pdfrwt>
<totfact> 0.17878441E+06</totfact>
</mgrwt>
</event>
<event>
 5    1  0.4133473E-007  0.2000410E+02  0.7818608E-02  0.1745247E+00
         -3   -1    0    0    0  501 -0.00000000000E+00  0.00000000000E+00  0.10789366621E+02  0.10789767425E+02  0.93000000000E-01 0.  1.
          3   -1    0    0  501    0  0.00000000000E+00 -0.00000000000E+00 -0.92713755783E+01  0.92718420022E+01  0.93000000000E-01 0. -1.
       1023    2    1    2    0    0  0.00000000000E+00  0.00000000000E+00  0.15179910429E+01  0.20061609427E+02  0.20004096481E+02 0.  0.
        -11    1    3    3    0    0 -0.22503429007E+01 -0.97448799281E+01  0.87867325409E+00  0.10039860304E+02  0.51100000000E-03 0. -1.
         11    1    3    3    0    0  0.22503429007E+01  0.97448799281E+01  0.63931778883E+00  0.10021749123E+02  0.51100000000E-03 0.  1.
<mgrwt>
<rscale>  0 0.20004096E+02</rscale>
<asrwt>0</asrwt>
<pdfrwt beam="2">  1        3 0.14264322E-02 0.20004096E+02</pdfrwt>
<pdfrwt beam="1">  1       -3 0.16599693E-02 0.20004096E+02</pdfrwt>
<totfact> 0.17873797E+06</totfact>
</mgrwt>
</event>
<event>
 5    1  0.4133473E-007  0.2000107E+02  0.7818608E-02  0.1745307E+00
         -3   -1    0    0    0  501 -0.00000000000E+00  0.00000000000E+00  0.11438318208E+03  0.11438321989E+03  0.93000000000E-01 0.  1.
          3   -1    0    0  501    0  0.00000000000E+00 -0.00000000000E+00 -0.87183717204E+00  0.87678335668E+00  0.93000000000E-01 0. -1.
       1023    2    1    2    0    0  0.00000000000E+00  0.00000000000E+00  0.11351134491E+03  0.11526000324E+03  0.20001073095E+02 0.  0.
        -11    1    3    3    0    0 -0.88640077368E+01 -0.46294195719E+01  0.56222125556E+02  0.57104549389E+02  0.51100000000E-03 0.  1.
         11    1    3    3    0    0  0.88640077368E+01  0.46294195719E+01  0.57289219351E+02  0.58155453853E+02  0.51100000000E-03 0. -1.
<mgrwt>
<rscale>  0 0.20001073E+02</rscale>
<asrwt>0</asrwt>
<pdfrwt beam="2">  1        3 0.13451209E-03 0.20001073E+02</pdfrwt>
<pdfrwt beam="1">  1       -3 0.17597808E-01 0.20001073E+02</pdfrwt>
<totfact> 0.13671771E+06</totfact>
</mgrwt>
</event>
<event>
 5    1  0.4133473E-007  0.2000333E+02  0.7818608E-02  0.1745262E+00
         -3   -1    0    0    0  501 -0.00000000000E+00  0.00000000000E+00  0.89792171814E+00  0.90272499240E+00  0.93000000000E-01 0. -1.
          3   -1    0    0  501    0  0.00000000000E+00 -0.00000000000E+00 -0.11110338018E+03  0.11110341910E+03  0.93000000000E-01 0.  1.
       1023    2    1    2    0    0  0.00000000000E+00  0.00000000000E+00 -0.11020545846E+03  0.11200614410E+03  0.20003330732E+02 0.  0.
        -11    1    3    3    0    0 -0.10001593313E+02  0.34725556339E-01 -0.55188597085E+02  0.56087559433E+02  0.51100000000E-03 0.  1.
         11    1    3    3    0    0  0.10001593313E+02 -0.34725556339E-01 -0.55016861377E+02  0.55918584663E+02  0.51100000000E-03 0. -1.
<mgrwt>
<rscale>  0 0.20003331E+02</rscale>
<asrwt>0</asrwt>
<pdfrwt beam="2">  1        3 0.17093189E-01 0.20003331E+02</pdfrwt>
<pdfrwt beam="1">  1       -3 0.13851437E-03 0.20003331E+02</pdfrwt>
<totfact> 0.13770567E+06</totfact>
</mgrwt>
</event>
<event>
 5    1  0.4133473E-007  0.2000370E+02  0.7818608E-02  0.1745255E+00
          3   -1    0    0  501    0  0.00000000000E+00  0.00000000000E+00  0.19018002406E+02  0.19018229794E+02  0.93000000000E-01 0. -1.
         -3   -1    0    0    0  501 -0.00000000000E+00 -0.00000000000E+00 -0.52594516171E+01  0.52602737868E+01  0.93000000000E-01 0.  1.
       1023    2    1    2    0    0  0.00000000000E+00  0.00000000000E+00  0.13758550789E+02  0.24278503581E+02  0.20003700066E+02 0.  0.
        -11    1    3    3    0    0 -0.69912909995E+01 -0.71523205800E+01  0.69475486478E+01  0.12177942026E+02  0.51100000000E-03 0.  1.
         11    1    3    3    0    0  0.69912909995E+01  0.71523205800E+01  0.68110021410E+01  0.12100561555E+02  0.51100000000E-03 0. -1.
<mgrwt>
<rscale>  0 0.20003700E+02</rscale>
<asrwt>0</asrwt>
<pdfrwt beam="1">  1        3 0.29259272E-02 0.20003700E+02</pdfrwt>
<pdfrwt beam="2">  1       -3 0.80922715E-03 0.20003700E+02</pdfrwt>
<totfact> 0.17604442E+06</totfact>
</mgrwt>
</event>
<event>
 5    1  0.4133473E-007  0.2000965E+02  0.7818608E-02  0.1745136E+00
          3   -1    0    0  501    0  0.00000000000E+00  0.00000000000E+00  0.15332208502E+01  0.15360387936E+01  0.93000000000E-01 0. -1.
         -3   -1    0    0    0  501 -0.00000000000E+00 -0.00000000000E+00 -0.65222331355E+02  0.65222397659E+02  0.93000000000E-01 0.  1.
       1023    2    1    2    0    0  0.00000000000E+00  0.00000000000E+00 -0.63689110505E+02  0.66758436453E+02  0.20009648690E+02 0.  0.
        -11    1    3    3    0    0 -0.70742068988E+01  0.70716663274E+01 -0.32541533298E+02  0.34044151591E+02  0.51100000000E-03 0. -1.
         11    1    3    3    0    0  0.70742068988E+01 -0.70716663274E+01 -0.31147577207E+02  0.32714284862E+02  0.51100000000E-03 0.  1.
<mgrwt>
<rscale>  0 0.20009649E+02</rscale>
<asrwt>0</asrwt>
<pdfrwt beam="1">  1        3 0.23610205E-03 0.20009649E+02</pdfrwt>
<pdfrwt beam="2">  1       -3 0.10034425E-01 0.20009649E+02</pdfrwt>
<totfact> 0.15436111E+06</totfact>
</mgrwt>
</event>
<event>
 5    1  0.4266240E-007  0.2000056E+02  0.7818608E-02  0.1745317E+00
         -3   -1    0    0    0  501 -0.00000000000E+00  0.00000000000E+00  0.16474028940E+02  0.16474291442E+02  0.93000000000E-01 0. -1.
          3   -1    0    0  501    0  0.00000000000E+00 -0.00000000000E+00 -0.60698335758E+01  0.60705459918E+01  0.93000000000E-01 0.  1.
       1023    2    1    2    0    0  0.00000000000E+00  0.00000000000E+00  0.10404195364E+02  0.22544837434E+02  0.20000560336E+02 0.  0.
        -11    1    3    3    0    0  0.47342639948E+01  0.88083452742E+01  0.52849390533E+01  0.11310649102E+02  0.51100000000E-03 0.  1.
         11    1    3    3    0    0 -0.47342639948E+01 -0.88083452742E+01  0.51192563107E+01  0.11234188332E+02  0.51100000000E-03 0. -1.
<mgrwt>
<rscale>  0 0.20000560E+02</rscale>
<asrwt>0</asrwt>
<pdfrwt beam="2">  1        3 0.93389554E-03 0.20000560E+02</pdfrwt>
<pdfrwt beam="1">  1       -3 0.25345410E-02 0.20000560E+02</pdfrwt>
<totfact> 0.17720444E+06</totfact>
</mgrwt>
</event>
<event>
 5    1  0.4133473E-007  0.2000040E+02  0.7818608E-02  0.1745320E+00
         -3   -1    0    0    0  501 -0.00000000000E+00  0.00000000000E+00  0.68096404726E+02  0.68096468231E+02  0.93000000000E-01 0. -1.
          3   -1    0    0  501    0  0.00000000000E+00 -0.00000000000E+00 -0.14670287275E+01  0.14699735669E+01  0.93000000000E-01 0.  1.
       1023    2    1    2    0    0  0.00000000000E+00  0.00000000000E+00  0.66629375998E+02  0.69566441798E+02  0.20000401960E+02 0.  0.
        -11    1    3    3    0    0  0.99731802393E+01  0.73206499566E+00  0.33100948599E+02  0.34578505486E+02  0.51100000000E-03 0.  1.
         11    1    3    3    0    0 -0.99731802393E+01 -0.73206499566E+00  0.33528427399E+02  0.34987936312E+02  0.51100000000E-03 0. -1.
<mgrwt>
<rscale>  0 0.20000402E+02</rscale>
<asrwt>0</asrwt>
<pdfrwt beam="2">  1        3 0.22592822E-03 0.20000402E+02</pdfrwt>
<pdfrwt beam="1">  1       -3 0.10476598E-01 0.20000402E+02</pdfrwt>
<totfact> 0.15333318E+06</totfact>
</mgrwt>
</event>
<event>
 4    1  0.4133473E-007  0.2002242E+02  0.7818608E-02  0.1744883E+00
          3   -1    0    0  501    0  0.00000000000E+00  0.00000000000E+00  0.10477143802E+02  0.10477556549E+02  0.93000000000E-01 0. -1.
         -3   -1    0    0    0  501 -0.00000000000E+00 -0.00000000000E+00 -0.95651728997E+01  0.95656249979E+01  0.93000000000E-01 0.  1.
        -11    1    1    2    0    0 -0.81456307644E+01 -0.58181964189E+01  0.30869853993E+00  0.10014889174E+02  0.51100000000E-03 0.  1.
         11    1    1    2    0    0  0.81456307644E+01  0.58181964189E+01  0.60327236213E+00  0.10028292373E+02  0.51100000000E-03 0. -1.
<mgrwt>
<rscale>  0 0.20022423E+02</rscale>
<asrwt>0</asrwt>
<pdfrwt beam="1">  1        3 0.16119348E-02 0.20022423E+02</pdfrwt>
<pdfrwt beam="2">  1       -3 0.14716316E-02 0.20022423E+02</pdfrwt>
<totfact> 0.17839631E+06</totfact>
</mgrwt>
</event>
<event>
 5    1  0.4438264E-007  0.2000100E+02  0.7818608E-02  0.1745308E+00
          3   -1    0    0  501    0  0.00000000000E+00  0.00000000000E+00  0.68926929937E+01  0.68933203686E+01  0.93000000000E-01 0. -1.
         -3   -1    0    0    0  501 -0.00000000000E+00 -0.00000000000E+00 -0.14508125599E+02  0.14508423671E+02  0.93000000000E-01 0.  1.
       1023    2    1    2    0    0  0.00000000000E+00  0.00000000000E+00 -0.76154326056E+01  0.21401744039E+02  0.20000995829E+02 0.  0.
        -11    1    3    3    0    0  0.57832994652E+01 -0.81581655582E+01 -0.37135758349E+01  0.10667373797E+02  0.51100000000E-03 0. -1.
         11    1    3    3    0    0 -0.57832994652E+01  0.81581655582E+01 -0.39018567707E+01  0.10734370242E+02  0.51100000000E-03 0.  1.
<mgrwt>
<rscale>  0 0.20000996E+02</rscale>
<asrwt>0</asrwt>
<pdfrwt beam="1">  1        3 0.10604855E-02 0.20000996E+02</pdfrwt>
<pdfrwt beam="2">  1       -3 0.22320905E-02 0.20000996E+02</pdfrwt>
<totfact> 0.17792725E+06</totfact>
</mgrwt>
</event>
<event>
 5    1  0.4133473E-007  0.2000045E+02  0.7818608E-02  0.1745319E+00
         -3   -1    0    0    0  501 -0.00000000000E+00  0.00000000000E+00  0.48740896856E+01  0.48749768475E+01  0.93000000000E-01 0. -1.
          3   -1    0    0  501    0  0.00000000000E+00 -0.00000000000E+00 -0.20514710729E+02  0.20514921528E+02  0.93000000000E-01 0.  1.
       1023    2    1    2    0    0  0.00000000000E+00  0.00000000000E+00 -0.15640621043E+02  0.25389898375E+02  0.20000447817E+02 0.  0.
        -11    1    3    3    0    0  0.99540774720E+01  0.95836180482E+00 -0.77586100989E+01  0.12656940649E+02  0.51100000000E-03 0.  1.
         11    1    3    3    0    0 -0.99540774720E+01 -0.95836180482E+00 -0.78820109441E+01  0.12732957726E+02  0.51100000000E-03 0. -1.
<mgrwt>
<rscale>  0 0.20000448E+02</rscale>
<asrwt>0</asrwt>
<pdfrwt beam="2">  1        3 0.31561938E-02 0.20000448E+02</pdfrwt>
<pdfrwt beam="1">  1       -3 0.74994442E-03 0.20000448E+02</pdfrwt>
<totfact> 0.17541707E+06</totfact>
</mgrwt>
</event>
<event>
 5    1  0.4133473E-007  0.2000425E+02  0.7818608E-02  0.1745243E+00
         -3   -1    0    0    0  501 -0.00000000000E+00  0.00000000000E+00  0.28890132552E+02  0.28890282239E+02  0.93000000000E-01 0. -1.
          3   -1    0    0  501    0  0.00000000000E+00 -0.00000000000E+00 -0.34620790974E+01  0.34633279771E+01  0.93000000000E-01 0.  1.
       1023    2    1    2    0    0  0.00000000000E+00  0.00000000000E+00  0.25428053454E+02  0.32353610216E+02  0.20004254336E+02 0.  0.
        -11    1    3    3    0    0 -0.71863133616E+01 -0.69567271026E+01  0.12808276167E+02  0.16250879679E+02  0.51100000000E-03 0. -1.
         11    1    3    3    0    0  0.71863133616E+01  0.69567271026E+01  0.12619777288E+02  0.16102730537E+02  0.51100000000E-03 0.  1.
<mgrwt>
<rscale>  0 0.20004254E+02</rscale>
<asrwt>0</asrwt>
<pdfrwt beam="2">  1        3 0.53273513E-03 0.20004254E+02</pdfrwt>
<pdfrwt beam="1">  1       -3 0.44447434E-02 0.20004254E+02</pdfrwt>
<totfact> 0.17124703E+06</totfact>
</mgrwt>
</event>
<event>
 5    1  0.4133473E-007  0.2000072E+02  0.7818608E-02  0.1745314E+00
         -3   -1    0    0    0  501 -0.00000000000E+00  0.00000000000E+00  0.99624006974E+02  0.99624050382E+02  0.93000000000E-01 0. -1.
          3   -1    0    0  501    0  0.00000000000E+00 -0.00000000000E+00 -0.10016482053E+01  0.10059563247E+01  0.93000000000E-01 0.  1.
       1023    2    1    2    0    0  0.00000000000E+00  0.00000000000E+00  0.98622358769E+02  0.10063000671E+03  0.20000715005E+02 0.  0.
        -11    1    3    3    0    0 -0.45000432070E+00  0.99899578756E+01  0.48941876562E+02  0.49953068414E+02  0.51100000000E-03 0. -1.
         11    1    3    3    0    0  0.45000432070E+00 -0.99899578756E+01  0.49680482206E+02  0.50676938293E+02  0.51100000000E-03 0.  1.
<mgrwt>
<rscale>  0 0.20000715E+02</rscale>
<asrwt>0</asrwt>
<pdfrwt beam="2">  1        3 0.15443446E-03 0.20000715E+02</pdfrwt>
<pdfrwt beam="1">  1       -3 0.15327105E-01 0.20000715E+02</pdfrwt>
<totfact> 0.14158003E+06</totfact>
</mgrwt>
</event>
<event>
 4    1  0.4133473E-007  0.2004339E+02  0.7818608E-02  0.1744467E+00
         -3   -1    0    0    0  501 -0.00000000000E+00  0.00000000000E+00  0.38328220072E+01  0.38339501222E+01  0.93000000000E-01 0.  1.
          3   -1    0    0  501    0  0.00000000000E+00 -0.00000000000E+00 -0.26198705842E+02  0.26198870907E+02  0.93000000000E-01 0. -1.
        -11    1    1    2    0    0  0.98561970981E+01  0.18114225144E+01 -0.11321263604E+02  0.15119420710E+02  0.51100000000E-03 0.  1.
         11    1    1    2    0    0 -0.98561970981E+01 -0.18114225144E+01 -0.11044620230E+02  0.14913400318E+02  0.51100000000E-03 0. -1.
<mgrwt>
<rscale>  0 0.20043392E+02</rscale>
<asrwt>0</asrwt>
<pdfrwt beam="2">  1        3 0.40306695E-02 0.20043392E+02</pdfrwt>
<pdfrwt beam="1">  1       -3 0.58976441E-03 0.20043392E+02</pdfrwt>
<totfact> 0.17184148E+06</totfact>
</mgrwt>
</event>
<event>
 5    1  0.4133473E-007  0.2000116E+02  0.7818608E-02  0.1745305E+00
         -3   -1    0    0    0  501 -0.00000000000E+00  0.00000000000E+00  0.48060334597E+02  0.48060424578E+02  0.93000000000E-01 0. -1.
          3   -1    0    0  501    0  0.00000000000E+00 -0.00000000000E+00 -0.20798280755E+01  0.20819062956E+01  0.93000000000E-01 0.  1.
       1023    2    1    2    0    0  0.00000000000E+00  0.00000000000E+00  0.45980506522E+02  0.50142330874E+02  0.20001159102E+02 0.  0.
        -11    1    3    3    0    0 -0.33187230674E+01 -0.94338384194E+01  0.22942622475E+02  0.25027488016E+02  0.51100000000E-03 0.  1.
         11    1    3    3    0    0  0.33187230674E+01  0.94338384194E+01  0.23037884047E+02  0.25114842858E+02  0.51100000000E-03 0. -1.
<mgrwt>
<rscale>  0 0.20001159E+02</rscale>
<asrwt>0</asrwt>
<pdfrwt beam="2">  1        3 0.32014036E-03 0.20001159E+02</pdfrwt>
<pdfrwt beam="1">  1       -3 0.73940638E-02 0.20001159E+02</pdfrwt>
<totfact> 0.16200877E+06</totfact>
</mgrwt>
</event>
<event>
 5    1  0.4207718E-007  0.2000122E+02  0.7818608E-02  0.1745304E+00
         -3   -1    0    0    0  501 -0.00000000000E+00  0.00000000000E+00  0.13336345510E+02  0.13336669770E+02  0.93000000000E-01 0.  1.
          3   -1    0    0  501    0  0.00000000000E+00 -0.00000000000E+00 -0.74985203351E+01  0.74990970267E+01  0.93000000000E-01 0. -1.
       1023    2    1    2    0    0  0.00000000000E+00  0.00000000000E+00  0.58378251751E+01  0.20835766797E+02  0.20001224344E+02 0.  0.
        -11    1    3    3    0    0 -0.92472445456E+01 -0.38073974525E+01  0.29882988343E+01  0.10437324237E+02  0.51100000000E-03 0.  1.
         11    1    3    3    0    0  0.92472445456E+01  0.38073974525E+01  0.28495263407E+01  0.10398442560E+02  0.51100000000E-03 0. -1.
<mgrwt>
<rscale>  0 0.20001224E+02</rscale>
<asrwt>0</asrwt>
<pdfrwt beam="2">  1        3 0.11536878E-02 0.20001224E+02</pdfrwt>
<pdfrwt beam="1">  1       -3 0.20518147E-02 0.20001224E+02</pdfrwt>
<totfact> 0.17828957E+06</totfact>
</mgrwt>
</event>
<event>
 5    1  0.4133473E-007  0.2000015E+02  0.7818608E-02  0.1745325E+00
          3   -1    0    0  501    0  0.00000000000E+00  0.00000000000E+00  0.31390078499E+01  0.31403852123E+01  0.93000000000E-01 0.  1.
         -3   -1    0    0    0  501 -0.00000000000E+00 -0.00000000000E+00 -0.31849230636E+02  0.31849366416E+02  0.93000000000E-01 0. -1.
       1023    2    1    2    0    0  0.00000000000E+00  0.00000000000E+00 -0.28710222786E+02  0.34989751629E+02  0.20000145664E+02 0.  0.
        -11    1    3    3    0    0 -0.50003681837E+01 -0.86600969698E+01 -0.14316192367E+02  0.17462941495E+02  0.51100000000E-03 0. -1.
         11    1    3    3    0    0  0.50003681837E+01  0.86600969698E+01 -0.14394030419E+02  0.17526810134E+02  0.51100000000E-03 0.  1.
<mgrwt>
<rscale>  0 0.20000146E+02</rscale>
<asrwt>0</asrwt>
<pdfrwt beam="1">  1        3 0.48304070E-03 0.20000146E+02</pdfrwt>
<pdfrwt beam="2">  1       -3 0.48999978E-02 0.20000146E+02</pdfrwt>
<totfact> 0.16984348E+06</totfact>
</mgrwt>
</event>
<event>
 4    1  0.4133473E-007  0.2002352E+02  0.7818608E-02  0.1744861E+00
         -3   -1    0    0    0  501 -0.00000000000E+00  0.00000000000E+00  0.80117265571E+01  0.80122663102E+01  0.93000000000E-01 0. -1.
          3   -1    0    0  501    0  0.00000000000E+00 -0.00000000000E+00 -0.12509947196E+02  0.12510292876E+02  0.93000000000E-01 0.  1.
        -11    1    1    2    0    0 -0.96712994181E+01  0.25472059064E+01 -0.17760099911E+01  0.10157583478E+02  0.51100000000E-03 0.  1.
         11    1    1    2    0    0  0.96712994181E+01 -0.25472059064E+01 -0.27222106479E+01  0.10364975708E+02  0.51100000000E-03 0. -1.
<mgrwt>
<rscale>  0 0.20023522E+02</rscale>
<asrwt>0</asrwt>
<pdfrwt beam="2">  1        3 0.19246754E-02 0.20023522E+02</pdfrwt>
<pdfrwt beam="1">  1       -3 0.12326414E-02 0.20023522E+02</pdfrwt>
<totfact> 0.17806095E+06</totfact>
</mgrwt>
</event>
<event>
 5    1  0.4133473E-007  0.2000332E+02  0.7818608E-02  0.1745262E+00
         -3   -1    0    0    0  501 -0.00000000000E+00  0.00000000000E+00  0.12107747688E+02  0.12108104850E+02  0.93000000000E-01 0.  1.
          3   -1    0    0  501    0  0.00000000000E+00 -0.00000000000E+00 -0.82611772758E+01  0.82617007318E+01  0.93000000000E-01 0. -1.
       1023    2    1    2    0    0  0.00000000000E+00  0.00000000000E+00  0.38465704118E+01  0.20369805582E+02  0.20003321612E+02 0.  0.
        -11    1    3    3    0    0 -0.57837595422E+01  0.81595769619E+01  0.19756865228E+01  0.10194798092E+02  0.51100000000E-03 0. -1.
         11    1    3    3    0    0  0.57837595422E+01 -0.81595769619E+01  0.18708838890E+01  0.10175007490E+02  0.51100000000E-03 0.  1.
<mgrwt>
<rscale>  0 0.20003322E+02</rscale>
<asrwt>0</asrwt>
<pdfrwt beam="2">  1        3 0.12710181E-02 0.20003322E+02</pdfrwt>
<pdfrwt beam="1">  1       -3 0.18627981E-02 0.20003322E+02</pdfrwt>
<totfact> 0.17855197E+06</totfact>
</mgrwt>
</event>
<event>
 5    1  0.4251920E-007  0.2000516E+02  0.7818608E-02  0.1745225E+00
         -3   -1    0    0    0  501 -0.00000000000E+00  0.00000000000E+00  0.26227826255E+02  0.26227991137E+02  0.93000000000E-01 0.  1.
          3   -1    0    0  501    0  0.00000000000E+00 -0.00000000000E+00 -0.38139685178E+01  0.38151022077E+01  0.93000000000E-01 0. -1.
       1023    2    1    2    0    0  0.00000000000E+00  0.00000000000E+00  0.22413857737E+02  0.30043093344E+02  0.20005160310E+02 0.  0.
        -11    1    3    3    0    0 -0.10000575531E+02  0.99408732277E-01  0.10945878457E+02  0.14826788206E+02  0.51100000000E-03 0.  1.
         11    1    3    3    0    0  0.10000575531E+02 -0.99408732277E-01  0.11467979280E+02  0.15216305139E+02  0.51100000000E-03 0. -1.
<mgrwt>
<rscale>  0 0.20005160E+02</rscale>
<asrwt>0</asrwt>
<pdfrwt beam="2">  1        3 0.58686426E-03 0.20005160E+02</pdfrwt>
<pdfrwt beam="1">  1       -3 0.40351502E-02 0.20005160E+02</pdfrwt>
<totfact> 0.17255980E+06</totfact>
</mgrwt>
</event>
<event>
 5    1  0.4133473E-007  0.2000401E+02  0.7818608E-02  0.1745248E+00
          3   -1    0    0  501    0  0.00000000000E+00  0.00000000000E+00  0.63497743660E+02  0.63497811765E+02  0.93000000000E-01 0.  1.
         -3   -1    0    0    0  501 -0.00000000000E+00 -0.00000000000E+00 -0.15740485495E+01  0.15767935299E+01  0.93000000000E-01 0. -1.
       1023    2    1    2    0    0  0.00000000000E+00  0.00000000000E+00  0.61923695110E+02  0.65074605295E+02  0.20004005552E+02 0.  0.
        -11    1    3    3    0    0 -0.14608891453E+01  0.98947370167E+01  0.30982814887E+02  0.32557254742E+02  0.51100000000E-03 0. -1.
         11    1    3    3    0    0  0.14608891453E+01 -0.98947370167E+01  0.30940880223E+02  0.32517350553E+02  0.51100000000E-03 0.  1.
<mgrwt>
<rscale>  0 0.20004006E+02</rscale>
<asrwt>0</asrwt>
<pdfrwt beam="1">  1        3 0.97690998E-02 0.20004006E+02</pdfrwt>
<pdfrwt beam="2">  1       -3 0.24237771E-03 0.20004006E+02</pdfrwt>
<totfact> 0.15514576E+06</totfact>
</mgrwt>
</event>
<event>
 5    1  0.4278889E-007  0.2000112E+02  0.7818608E-02  0.1745306E+00
          3   -1    0    0  501    0  0.00000000000E+00  0.00000000000E+00  0.27687358359E+02  0.27687514549E+02  0.93000000000E-01 0.  1.
         -3   -1    0    0    0  501 -0.00000000000E+00 -0.00000000000E+00 -0.36113968922E+01  0.36125941528E+01  0.93000000000E-01 0. -1.
       1023    2    1    2    0    0  0.00000000000E+00  0.00000000000E+00  0.24075961467E+02  0.31300108702E+02  0.20001122073E+02 0.  0.
        -11    1    3    3    0    0 -0.78235382905E+01  0.62289823208E+01  0.11948785241E+02  0.15581445412E+02  0.51100000000E-03 0.  1.
         11    1    3    3    0    0  0.78235382905E+01 -0.62289823208E+01  0.12127176225E+02  0.15718663289E+02  0.51100000000E-03 0. -1.
<mgrwt>
<rscale>  0 0.20001122E+02</rscale>
<asrwt>0</asrwt>
<pdfrwt beam="1">  1        3 0.42596977E-02 0.20001122E+02</pdfrwt>
<pdfrwt beam="2">  1       -3 0.55570363E-03 0.20001122E+02</pdfrwt>
<totfact> 0.17188999E+06</totfact>
</mgrwt>
</event>
<event>
 5    1  0.4228852E-007  0.2000073E+02  0.7818608E-02  0.1745314E+00
         -3   -1    0    0    0  501 -0.00000000000E+00  0.00000000000E+00  0.16667249325E+02  0.16667508784E+02  0.93000000000E-01 0. -1.
          3   -1    0    0  501    0  0.00000000000E+00 -0.00000000000E+00 -0.59995635034E+01  0.60002842625E+01  0.93000000000E-01 0.  1.
       1023    2    1    2    0    0  0.00000000000E+00  0.00000000000E+00  0.10667685821E+02  0.22667793046E+02  0.20000733007E+02 0.  0.
        -11    1    3    3    0    0  0.47136918330E+01 -0.88194164368E+01  0.54240346147E+01  0.11376341624E+02  0.51100000000E-03 0.  1.
         11    1    3    3    0    0 -0.47136918330E+01  0.88194164368E+01  0.52436512068E+01  0.11291451422E+02  0.51100000000E-03 0. -1.
<mgrwt>
<rscale>  0 0.20000733E+02</rscale>
<asrwt>0</asrwt>
<pdfrwt beam="2">  1        3 0.92308518E-03 0.20000733E+02</pdfrwt>
<pdfrwt beam="1">  1       -3 0.25642676E-02 0.20000733E+02</pdfrwt>
<totfact> 0.17712304E+06</totfact>
</mgrwt>
</event>
<event>
 5    1  0.4245750E-007  0.2000057E+02  0.7818608E-02  0.1745317E+00
         -3   -1    0    0    0  501 -0.00000000000E+00  0.00000000000E+00  0.56680814700E+01  0.56688443753E+01  0.93000000000E-01 0. -1.
          3   -1    0    0  501    0  0.00000000000E+00 -0.00000000000E+00 -0.17641585729E+02  0.17641830858E+02  0.93000000000E-01 0.  1.
       1023    2    1    2    0    0  0.00000000000E+00  0.00000000000E+00 -0.11973504259E+02  0.23310675234E+02  0.20000569382E+02 0.  0.
        -11    1    3    3    0    0  0.62939481553E+01  0.77711607782E+01 -0.59504449995E+01  0.11636688497E+02  0.51100000000E-03 0. -1.
         11    1    3    3    0    0 -0.62939481553E+01 -0.77711607782E+01 -0.60230592594E+01  0.11673986737E+02  0.51100000000E-03 0.  1.
<mgrwt>
<rscale>  0 0.20000569E+02</rscale>
<asrwt>0</asrwt>
<pdfrwt beam="2">  1        3 0.27141676E-02 0.20000569E+02</pdfrwt>
<pdfrwt beam="1">  1       -3 0.87209008E-03 0.20000569E+02</pdfrwt>
<totfact> 0.17670997E+06</totfact>
</mgrwt>
</event>
<event>
 5    1  0.4133473E-007  0.2000284E+02  0.7818608E-02  0.1745272E+00
          3   -1    0    0  501    0  0.00000000000E+00  0.00000000000E+00  0.13338950501E+02  0.13339274698E+02  0.93000000000E-01 0. -1.
         -3   -1    0    0    0  501 -0.00000000000E+00 -0.00000000000E+00 -0.74982686102E+01  0.74988453212E+01  0.93000000000E-01 0.  1.
       1023    2    1    2    0    0  0.00000000000E+00  0.00000000000E+00  0.58406818908E+01  0.20838120019E+02  0.20002841823E+02 0.  0.
        -11    1    3    3    0    0 -0.96588158174E+01  0.25945860540E+01  0.29847296787E+01  0.10437107420E+02  0.51100000000E-03 0. -1.
         11    1    3    3    0    0  0.96588158174E+01 -0.25945860540E+01  0.28559522121E+01  0.10401012599E+02  0.51100000000E-03 0.  1.
<mgrwt>
<rscale>  0 0.20002842E+02</rscale>
<asrwt>0</asrwt>
<pdfrwt beam="1">  1        3 0.20522155E-02 0.20002842E+02</pdfrwt>
<pdfrwt beam="2">  1       -3 0.11536491E-02 0.20002842E+02</pdfrwt>
<totfact> 0.17825187E+06</totfact>
</mgrwt>
</event>
<event>
 5    1  0.4133473E-007  0.2000243E+02  0.7818608E-02  0.1745280E+00
         -3   -1    0    0    0  501 -0.00000000000E+00  0.00000000000E+00  0.11259680941E+03  0.11259684781E+03  0.93000000000E-01 0. -1.
          3   -1    0    0  501    0  0.00000000000E+00 -0.00000000000E+00 -0.88586798836E+00  0.89073626444E+00  0.93000000000E-01 0.  1.
       1023    2    1    2    0    0  0.00000000000E+00  0.00000000000E+00  0.11171094142E+03  0.11348758408E+03  0.20002432535E+02 0.  0.
        -11    1    3    3    0    0  0.58174371086E+01 -0.81344416764E+01  0.56492610248E+02  0.57370957189E+02  0.51100000000E-03 0. -1.
         11    1    3    3    0    0 -0.58174371086E+01  0.81344416764E+01  0.55218331171E+02  0.56116626890E+02  0.51100000000E-03 0.  1.
<mgrwt>
<rscale>  0 0.20002433E+02</rscale>
<asrwt>0</asrwt>
<pdfrwt beam="2">  1        3 0.13666484E-03 0.20002433E+02</pdfrwt>
<pdfrwt beam="1">  1       -3 0.17322961E-01 0.20002433E+02</pdfrwt>
<totfact> 0.13726666E+06</totfact>
</mgrwt>
</event>
<event>
 5    1  0.4133473E-007  0.2000128E+02  0.7818608E-02  0.1745303E+00
         -3   -1    0    0    0  501 -0.00000000000E+00  0.00000000000E+00  0.25871336392E+01  0.25888046406E+01  0.93000000000E-01 0.  1.
          3   -1    0    0  501    0  0.00000000000E+00 -0.00000000000E+00 -0.38643542411E+02  0.38643654318E+02  0.93000000000E-01 0. -1.
       1023    2    1    2    0    0  0.00000000000E+00  0.00000000000E+00 -0.36056408772E+02  0.41232458959E+02  0.20001276416E+02 0.  0.
        -11    1    3    3    0    0  0.64101281415E+01  0.76761330974E+01 -0.18031254162E+02  0.20618896407E+02  0.51100000000E-03 0.  1.
         11    1    3    3    0    0 -0.64101281415E+01 -0.76761330974E+01 -0.18025154610E+02  0.20613562552E+02  0.51100000000E-03 0. -1.
<mgrwt>
<rscale>  0 0.20001276E+02</rscale>
<asrwt>0</asrwt>
<pdfrwt beam="2">  1        3 0.59452971E-02 0.20001276E+02</pdfrwt>
<pdfrwt beam="1">  1       -3 0.39815773E-03 0.20001276E+02</pdfrwt>
<totfact> 0.16644922E+06</totfact>
</mgrwt>
</event>
<event>
 5    1  0.4167761E-007  0.2000170E+02  0.7818608E-02  0.1745294E+00
         -3   -1    0    0    0  501 -0.00000000000E+00  0.00000000000E+00  0.13290573826E+01  0.13323072192E+01  0.93000000000E-01 0.  1.
          3   -1    0    0  501    0  0.00000000000E+00 -0.00000000000E+00 -0.75158882293E+02  0.75158939831E+02  0.93000000000E-01 0. -1.
       1023    2    1    2    0    0  0.00000000000E+00  0.00000000000E+00 -0.73829824910E+02  0.76491247050E+02  0.20001695653E+02 0.  0.
        -11    1    3    3    0    0 -0.64615530865E+01  0.76322452570E+01 -0.37369354245E+02  0.38684253552E+02  0.51100000000E-03 0. -1.
         11    1    3    3    0    0  0.64615530865E+01 -0.76322452570E+01 -0.36460470665E+02  0.37806993497E+02  0.51100000000E-03 0.  1.
<mgrwt>
<rscale>  0 0.20001696E+02</rscale>
<asrwt>0</asrwt>
<pdfrwt beam="2">  1        3 0.11563156E-01 0.20001696E+02</pdfrwt>
<pdfrwt beam="1">  1       -3 0.20472484E-03 0.20001696E+02</pdfrwt>
<totfact> 0.15046589E+06</totfact>
</mgrwt>
</event>
<event>
 5    1  0.4133473E-007  0.2000028E+02  0.7818608E-02  0.1745322E+00
         -3   -1    0    0    0  501 -0.00000000000E+00  0.00000000000E+00  0.23691386508E+02  0.23691569042E+02  0.93000000000E-01 0. -1.
          3   -1    0    0  501    0  0.00000000000E+00 -0.00000000000E+00 -0.42203524610E+01  0.42213770141E+01  0.93000000000E-01 0.  1.
       1023    2    1    2    0    0  0.00000000000E+00  0.00000000000E+00  0.19471034047E+02  0.27912946056E+02  0.20000284765E+02 0.  0.
        -11    1    3    3    0    0 -0.75958134788E+01 -0.65041800662E+01  0.96714598647E+01  0.13911789134E+02  0.51100000000E-03 0.  1.
         11    1    3    3    0    0  0.75958134788E+01  0.65041800662E+01  0.97995741825E+01  0.14001156922E+02  0.51100000000E-03 0. -1.
<mgrwt>
<rscale>  0 0.20000285E+02</rscale>
<asrwt>0</asrwt>
<pdfrwt beam="2">  1        3 0.64937784E-03 0.20000285E+02</pdfrwt>
<pdfrwt beam="1">  1       -3 0.36449216E-02 0.20000285E+02</pdfrwt>
<totfact> 0.17390625E+06</totfact>
</mgrwt>
</event>
<event>
 5    1  0.4133473E-007  0.2000300E+02  0.7818608E-02  0.1745268E+00
          3   -1    0    0  501    0  0.00000000000E+00  0.00000000000E+00  0.40766217376E+02  0.40766323456E+02  0.93000000000E-01 0. -1.
         -3   -1    0    0    0  501 -0.00000000000E+00 -0.00000000000E+00 -0.24527567779E+01  0.24545192628E+01  0.93000000000E-01 0.  1.
       1023    2    1    2    0    0  0.00000000000E+00  0.00000000000E+00  0.38313460598E+02  0.43220842719E+02  0.20002999334E+02 0.  0.
        -11    1    3    3    0    0 -0.96307152595E+01  0.26937204983E+01  0.19485761583E+02  0.21902093764E+02  0.51100000000E-03 0. -1.
         11    1    3    3    0    0  0.96307152595E+01 -0.26937204983E+01  0.18827699015E+02  0.21318748955E+02  0.51100000000E-03 0.  1.
<mgrwt>
<rscale>  0 0.20002999E+02</rscale>
<asrwt>0</asrwt>
<pdfrwt beam="1">  1        3 0.62718695E-02 0.20002999E+02</pdfrwt>
<pdfrwt beam="2">  1       -3 0.37749093E-03 0.20002999E+02</pdfrwt>
<totfact> 0.16539100E+06</totfact>
</mgrwt>
</event>
<event>
 5    1  0.4133473E-007  0.2000699E+02  0.7818608E-02  0.1745189E+00
         -3   -1    0    0    0  501 -0.00000000000E+00  0.00000000000E+00  0.14778643752E+02  0.14778936367E+02  0.93000000000E-01 0.  1.
          3   -1    0    0  501    0  0.00000000000E+00 -0.00000000000E+00 -0.67705719757E+01  0.67712106656E+01  0.93000000000E-01 0. -1.
       1023    2    1    2    0    0  0.00000000000E+00  0.00000000000E+00  0.80080717761E+01  0.21550147033E+02  0.20006989368E+02 0.  0.
        -11    1    3    3    0    0 -0.60292609638E+01 -0.79815341004E+01  0.41269952990E+01  0.10820765445E+02  0.51100000000E-03 0. -1.
         11    1    3    3    0    0  0.60292609638E+01  0.79815341004E+01  0.38810764771E+01  0.10729381587E+02  0.51100000000E-03 0.  1.
<mgrwt>
<rscale>  0 0.20006989E+02</rscale>
<asrwt>0</asrwt>
<pdfrwt beam="2">  1        3 0.10416981E-02 0.20006989E+02</pdfrwt>
<pdfrwt beam="1">  1       -3 0.22737091E-02 0.20006989E+02</pdfrwt>
<totfact> 0.17771691E+06</totfact>
</mgrwt>
</event>
<event>
 5    1  0.4133473E-007  0.2000047E+02  0.7818608E-02  0.1745319E+00
         -3   -1    0    0    0  501 -0.00000000000E+00  0.00000000000E+00  0.21798187923E+02  0.21798386310E+02  0.93000000000E-01 0. -1.
          3   -1    0    0  501    0  0.00000000000E+00 -0.00000000000E+00 -0.45870622157E+01  0.45880048791E+01  0.93000000000E-01 0.  1.
       1023    2    1    2    0    0  0.00000000000E+00  0.00000000000E+00  0.17211125707E+02  0.26386391189E+02  0.20000469792E+02 0.  0.
        -11    1    3    3    0    0 -0.38096260132E+01 -0.92459397042E+01  0.86894838880E+01  0.13247935004E+02  0.51100000000E-03 0. -1.
         11    1    3    3    0    0  0.38096260132E+01  0.92459397042E+01  0.85216418194E+01  0.13138456185E+02  0.51100000000E-03 0.  1.
<mgrwt>
<rscale>  0 0.20000470E+02</rscale>
<asrwt>0</asrwt>
<pdfrwt beam="2">  1        3 0.70578967E-03 0.20000470E+02</pdfrwt>
<pdfrwt beam="1">  1       -3 0.33536551E-02 0.20000470E+02</pdfrwt>
<totfact> 0.17482090E+06</totfact>
</mgrwt>
</event>
<event>
 5    1  0.4285064E-007  0.2000097E+02  0.7818608E-02  0.1745309E+00
          3   -1    0    0  501    0  0.00000000000E+00  0.00000000000E+00  0.15190784931E+02  0.15191069608E+02  0.93000000000E-01 0.  1.
         -3   -1    0    0    0  501 -0.00000000000E+00 -0.00000000000E+00 -0.65828992009E+01  0.65835560976E+01  0.93000000000E-01 0. -1.
       1023    2    1    2    0    0  0.00000000000E+00  0.00000000000E+00  0.86078857303E+01  0.21774625705E+02  0.20000965673E+02 0.  0.
        -11    1    3    3    0    0  0.99321825540E+01  0.11657000867E+01  0.42489702474E+01  0.10865581227E+02  0.51100000000E-03 0. -1.
         11    1    3    3    0    0 -0.99321825540E+01 -0.11657000867E+01  0.43589154829E+01  0.10909044478E+02  0.51100000000E-03 0.  1.
<mgrwt>
<rscale>  0 0.20000966E+02</rscale>
<asrwt>0</asrwt>
<pdfrwt beam="1">  1        3 0.23371162E-02 0.20000966E+02</pdfrwt>
<pdfrwt beam="2">  1       -3 0.10128262E-02 0.20000966E+02</pdfrwt>
<totfact> 0.17768069E+06</totfact>
</mgrwt>
</event>
<event>
 5    1  0.4133473E-007  0.2000031E+02  0.7818608E-02  0.1745322E+00
         -3   -1    0    0    0  501 -0.00000000000E+00  0.00000000000E+00  0.11377244405E+01  0.11415191205E+01  0.93000000000E-01 0. -1.
          3   -1    0    0  501    0  0.00000000000E+00 -0.00000000000E+00 -0.87747271543E+02  0.87747320826E+02  0.93000000000E-01 0.  1.
       1023    2    1    2    0    0  0.00000000000E+00  0.00000000000E+00 -0.86609547102E+02  0.88888839947E+02  0.20000305443E+02 0.  0.
        -11    1    3    3    0    0 -0.64829490609E+01  0.76140888813E+01 -0.43265983307E+02  0.44406624391E+02  0.51100000000E-03 0. -1.
         11    1    3    3    0    0  0.64829490609E+01 -0.76140888813E+01 -0.43343563795E+02  0.44482215555E+02  0.51100000000E-03 0.  1.
<mgrwt>
<rscale>  0 0.20000305E+02</rscale>
<asrwt>0</asrwt>
<pdfrwt beam="2">  1        3 0.13499871E-01 0.20000305E+02</pdfrwt>
<pdfrwt beam="1">  1       -3 0.17533029E-03 0.20000305E+02</pdfrwt>
<totfact> 0.14574501E+06</totfact>
</mgrwt>
</event>
<event>
 5    1  0.4158826E-007  0.2000054E+02  0.7818608E-02  0.1745317E+00
         -3   -1    0    0    0  501 -0.00000000000E+00  0.00000000000E+00  0.22113030840E+02  0.22113226403E+02  0.93000000000E-01 0. -1.
          3   -1    0    0  501    0  0.00000000000E+00 -0.00000000000E+00 -0.45217696009E+01  0.45227258732E+01  0.93000000000E-01 0.  1.
       1023    2    1    2    0    0  0.00000000000E+00  0.00000000000E+00  0.17591261239E+02  0.26635952276E+02  0.20000537034E+02 0.  0.
        -11    1    3    3    0    0 -0.68135032040E+01  0.73199179505E+01  0.87708784677E+01  0.13301629001E+02  0.51100000000E-03 0.  1.
         11    1    3    3    0    0  0.68135032040E+01 -0.73199179505E+01  0.88203827715E+01  0.13334323275E+02  0.51100000000E-03 0. -1.
<mgrwt>
<rscale>  0 0.20000537E+02</rscale>
<asrwt>0</asrwt>
<pdfrwt beam="2">  1        3 0.69574546E-03 0.20000537E+02</pdfrwt>
<pdfrwt beam="1">  1       -3 0.34020933E-02 0.20000537E+02</pdfrwt>
<totfact> 0.17466844E+06</totfact>
</mgrwt>
</event>
<event>
 5    1  0.4133473E-007  0.2000279E+02  0.7818608E-02  0.1745273E+00
          3   -1    0    0  501    0  0.00000000000E+00  0.00000000000E+00  0.98533464997E+02  0.98533508886E+02  0.93000000000E-01 0.  1.
         -3   -1    0    0    0  501 -0.00000000000E+00 -0.00000000000E+00 -0.10129930174E+01  0.10172530921E+01  0.93000000000E-01 0. -1.
       1023    2    1    2    0    0  0.00000000000E+00  0.00000000000E+00  0.97520471980E+02  0.99550761978E+02  0.20002793686E+02 0.  0.
        -11    1    3    3    0    0  0.10000715000E+02  0.11610013826E+00  0.48822949707E+02  0.49836815690E+02  0.51100000000E-03 0.  1.
         11    1    3    3    0    0 -0.10000715000E+02 -0.11610013826E+00  0.48697522273E+02  0.49713946288E+02  0.51100000000E-03 0. -1.
<mgrwt>
<rscale>  0 0.20002794E+02</rscale>
<asrwt>0</asrwt>
<pdfrwt beam="1">  1        3 0.15159325E-01 0.20002794E+02</pdfrwt>
<pdfrwt beam="2">  1       -3 0.15617616E-03 0.20002794E+02</pdfrwt>
<totfact> 0.14189342E+06</totfact>
</mgrwt>
</event>
<event>
 5    1  0.4134906E-007  0.2000172E+02  0.7818608E-02  0.1745294E+00
         -3   -1    0    0    0  501 -0.00000000000E+00  0.00000000000E+00  0.36225084512E+02  0.36225203891E+02  0.93000000000E-01 0.  1.
          3   -1    0    0  501    0  0.00000000000E+00 -0.00000000000E+00 -0.27600852622E+01  0.27616516172E+01  0.93000000000E-01 0. -1.
       1023    2    1    2    0    0  0.00000000000E+00  0.00000000000E+00  0.33464999250E+02  0.38986855508E+02  0.20001718116E+02 0.  0.
        -11    1    3    3    0    0  0.64081512938E-01 -0.99999562958E+01  0.16962710988E+02  0.19691033409E+02  0.51100000000E-03 0. -1.
         11    1    3    3    0    0 -0.64081512938E-01  0.99999562958E+01  0.16502288262E+02  0.19295822099E+02  0.51100000000E-03 0.  1.
<mgrwt>
<rscale>  0 0.20001718E+02</rscale>
<asrwt>0</asrwt>
<pdfrwt beam="2">  1        3 0.42475821E-03 0.20001718E+02</pdfrwt>
<pdfrwt beam="1">  1       -3 0.55732191E-02 0.20001718E+02</pdfrwt>
<totfact> 0.16764615E+06</totfact>
</mgrwt>
</event>
<event>
 5    1  0.4133473E-007  0.2000016E+02  0.7818608E-02  0.1745325E+00
          3   -1    0    0  501    0  0.00000000000E+00  0.00000000000E+00  0.73279139642E+01  0.73285040811E+01  0.93000000000E-01 0.  1.
         -3   -1    0    0    0  501 -0.00000000000E+00 -0.00000000000E+00 -0.13645362096E+02  0.13645679013E+02  0.93000000000E-01 0. -1.
       1023    2    1    2    0    0  0.00000000000E+00  0.00000000000E+00 -0.63174481315E+01  0.20974183094E+02  0.20000155139E+02 0.  0.
        -11    1    3    3    0    0  0.50022846292E+01 -0.86589954590E+01 -0.31353387689E+01  0.10480047869E+02  0.51100000000E-03 0. -1.
         11    1    3    3    0    0 -0.50022846292E+01  0.86589954590E+01 -0.31821093626E+01  0.10494135225E+02  0.51100000000E-03 0.  1.
<mgrwt>
<rscale>  0 0.20000155E+02</rscale>
<asrwt>0</asrwt>
<pdfrwt beam="1">  1        3 0.11274412E-02 0.20000155E+02</pdfrwt>
<pdfrwt beam="2">  1       -3 0.20993562E-02 0.20000155E+02</pdfrwt>
<totfact> 0.17822008E+06</totfact>
</mgrwt>
</event>
<event>
 5    1  0.4133473E-007  0.2000244E+02  0.7818608E-02  0.1745280E+00
          3   -1    0    0  501    0  0.00000000000E+00  0.00000000000E+00  0.83628801932E+00  0.84144319550E+00  0.93000000000E-01 0.  1.
         -3   -1    0    0    0  501 -0.00000000000E+00 -0.00000000000E+00 -0.11923250705E+03  0.11923254332E+03  0.93000000000E-01 0. -1.
       1023    2    1    2    0    0  0.00000000000E+00  0.00000000000E+00 -0.11839621903E+03  0.12007398651E+03  0.20002438772E+02 0.  0.
        -11    1    3    3    0    0  0.97168876653E+01 -0.23641418930E+01 -0.58408173849E+02  0.59258095189E+02  0.51100000000E-03 0. -1.
         11    1    3    3    0    0 -0.97168876653E+01  0.23641418930E+01 -0.59988045179E+02  0.60815891323E+02  0.51100000000E-03 0.  1.
<mgrwt>
<rscale>  0 0.20002439E+02</rscale>
<asrwt>0</asrwt>
<pdfrwt beam="1">  1        3 0.12905913E-03 0.20002439E+02</pdfrwt>
<pdfrwt beam="2">  1       -3 0.18343849E-01 0.20002439E+02</pdfrwt>
<totfact> 0.13517806E+06</totfact>
</mgrwt>
</event>
<event>
 5    1  0.4214893E-007  0.2000172E+02  0.7818608E-02  0.1745294E+00
          3   -1    0    0  501    0  0.00000000000E+00  0.00000000000E+00  0.84948685361E+01  0.84953775929E+01  0.93000000000E-01 0. -1.
         -3   -1    0    0    0  501 -0.00000000000E+00 -0.00000000000E+00 -0.11772789789E+02  0.11773157114E+02  0.93000000000E-01 0.  1.
       1023    2    1    2    0    0  0.00000000000E+00  0.00000000000E+00 -0.32779212533E+01  0.20268534707E+02  0.20001718212E+02 0.  0.
        -11    1    3    3    0    0 -0.99951134164E+01  0.33236791674E+00 -0.17063454543E+01  0.10145165140E+02  0.51100000000E-03 0. -1.
         11    1    3    3    0    0  0.99951134164E+01 -0.33236791674E+00 -0.15715757990E+01  0.10123369567E+02  0.51100000000E-03 0.  1.
<mgrwt>
<rscale>  0 0.20001718E+02</rscale>
<asrwt>0</asrwt>
<pdfrwt beam="1">  1        3 0.13069703E-02 0.20001718E+02</pdfrwt>
<pdfrwt beam="2">  1       -3 0.18112658E-02 0.20001718E+02</pdfrwt>
<totfact> 0.17864884E+06</totfact>
</mgrwt>
</event>
<event>
 5    1  0.4133473E-007  0.2000090E+02  0.7818608E-02  0.1745310E+00
          3   -1    0    0  501    0  0.00000000000E+00  0.00000000000E+00  0.22662375729E+01  0.22681449991E+01  0.93000000000E-01 0. -1.
         -3   -1    0    0    0  501 -0.00000000000E+00 -0.00000000000E+00 -0.44109455525E+02  0.44109553565E+02  0.93000000000E-01 0.  1.
       1023    2    1    2    0    0  0.00000000000E+00  0.00000000000E+00 -0.41843217952E+02  0.46377698564E+02  0.20000900868E+02 0.  0.
        -11    1    3    3    0    0  0.76599812004E+01  0.64290610371E+01 -0.20853182941E+02  0.23127113457E+02  0.51100000000E-03 0. -1.
         11    1    3    3    0    0 -0.76599812004E+01 -0.64290610371E+01 -0.20990035011E+02  0.23250585107E+02  0.51100000000E-03 0.  1.
<mgrwt>
<rscale>  0 0.20000901E+02</rscale>
<asrwt>0</asrwt>
<pdfrwt beam="1">  1        3 0.34880623E-03 0.20000901E+02</pdfrwt>
<pdfrwt beam="2">  1       -3 0.67862237E-02 0.20000901E+02</pdfrwt>
<totfact> 0.16385726E+06</totfact>
</mgrwt>
</event>
<event>
 4    1  0.4133473E-007  0.2003827E+02  0.7818608E-02  0.1744568E+00
         -3   -1    0    0    0  501 -0.00000000000E+00  0.00000000000E+00  0.27742014566E+02  0.27742170449E+02  0.93000000000E-01 0.  1.
          3   -1    0    0  501    0  0.00000000000E+00 -0.00000000000E+00 -0.36176853813E+01  0.36188805614E+01  0.93000000000E-01 0. -1.
        -11    1    1    2    0    0  0.65897040307E+01  0.75319994239E+01  0.12809224677E+02  0.16255197680E+02  0.51100000000E-03 0. -1.
         11    1    1    2    0    0 -0.65897040307E+01 -0.75319994239E+01  0.11315104508E+02  0.15105853330E+02  0.51100000000E-03 0.  1.
<mgrwt>
<rscale>  0 0.20038270E+02</rscale>
<asrwt>0</asrwt>
<pdfrwt beam="2">  1        3 0.55667090E-03 0.20038270E+02</pdfrwt>
<pdfrwt beam="1">  1       -3 0.42681062E-02 0.20038270E+02</pdfrwt>
<totfact> 0.17118781E+06</totfact>
</mgrwt>
</event>
<event>
 5    1  0.4133473E-007  0.2001195E+02  0.7818608E-02  0.1745091E+00
          3   -1    0    0  501    0  0.00000000000E+00  0.00000000000E+00  0.10922174645E+03  0.10922178604E+03  0.93000000000E-01 0. -1.
         -3   -1    0    0    0  501 -0.00000000000E+00 -0.00000000000E+00 -0.91426417145E+00  0.91898203203E+00  0.93000000000E-01 0.  1.
       1023    2    1    2    0    0  0.00000000000E+00  0.00000000000E+00  0.10830748227E+03  0.11014076807E+03  0.20011948301E+02 0.  0.
        -11    1    3    3    0    0  0.33035457463E+01 -0.94432713587E+01  0.55118546905E+02  0.56019130675E+02  0.51100000000E-03 0. -1.
         11    1    3    3    0    0 -0.33035457463E+01  0.94432713587E+01  0.53188935369E+02  0.54121637396E+02  0.51100000000E-03 0.  1.
<mgrwt>
<rscale>  0 0.20011948E+02</rscale>
<asrwt>0</asrwt>
<pdfrwt beam="1">  1        3 0.16803709E-01 0.20011948E+02</pdfrwt>
<pdfrwt beam="2">  1       -3 0.14102201E-03 0.20011948E+02</pdfrwt>
<totfact> 0.13818649E+06</totfact>
</mgrwt>
</event>
<event>
 5    1  0.4133473E-007  0.2000080E+02  0.7818608E-02  0.1745312E+00
          3   -1    0    0  501    0  0.00000000000E+00  0.00000000000E+00  0.17974541470E+01  0.17998584418E+01  0.93000000000E-01 0.  1.
         -3   -1    0    0    0  501 -0.00000000000E+00 -0.00000000000E+00 -0.55599041808E+02  0.55599119588E+02  0.93000000000E-01 0. -1.
       1023    2    1    2    0    0  0.00000000000E+00  0.00000000000E+00 -0.53801587661E+02  0.57398978030E+02  0.20000796085E+02 0.  0.
        -11    1    3    3    0    0 -0.91770589135E+01  0.39735206295E+01 -0.26825724120E+02  0.28629124180E+02  0.51100000000E-03 0. -1.
         11    1    3    3    0    0  0.91770589135E+01 -0.39735206295E+01 -0.26975863542E+02  0.28769853850E+02  0.51100000000E-03 0.  1.
<mgrwt>
<rscale>  0 0.20000796E+02</rscale>
<asrwt>0</asrwt>
<pdfrwt beam="1">  1        3 0.27672238E-03 0.20000796E+02</pdfrwt>
<pdfrwt beam="2">  1       -3 0.85538884E-02 0.20000796E+02</pdfrwt>
<totfact> 0.15862082E+06</totfact>
</mgrwt>
</event>
<event>
 5    1  0.4230544E-007  0.2000139E+02  0.7818608E-02  0.1745300E+00
         -3   -1    0    0    0  501 -0.00000000000E+00  0.00000000000E+00  0.22796395501E+02  0.22796585201E+02  0.93000000000E-01 0.  1.
          3   -1    0    0  501    0  0.00000000000E+00 -0.00000000000E+00 -0.43865672513E+01  0.43875529911E+01  0.93000000000E-01 0. -1.
       1023    2    1    2    0    0  0.00000000000E+00  0.00000000000E+00  0.18409828250E+02  0.27184138192E+02  0.20001389779E+02 0.  0.
        -11    1    3    3    0    0 -0.88396945303E+01 -0.46767850737E+01  0.92554027953E+01  0.13626261379E+02  0.51100000000E-03 0.  1.
         11    1    3    3    0    0  0.88396945303E+01  0.46767850737E+01  0.91544254544E+01  0.13557876813E+02  0.51100000000E-03 0. -1.
<mgrwt>
<rscale>  0 0.20001390E+02</rscale>
<asrwt>0</asrwt>
<pdfrwt beam="2">  1        3 0.67494692E-03 0.20001390E+02</pdfrwt>
<pdfrwt beam="1">  1       -3 0.35072282E-02 0.20001390E+02</pdfrwt>
<totfact> 0.17432193E+06</totfact>
</mgrwt>
</event>
<event>
 5    1  0.4133473E-007  0.2000132E+02  0.7818608E-02  0.1745302E+00
         -3   -1    0    0    0  501 -0.00000000000E+00  0.00000000000E+00  0.82780427743E+02  0.82780479984E+02  0.93000000000E-01 0.  1.
          3   -1    0    0  501    0  0.00000000000E+00 -0.00000000000E+00 -0.12063324922E+01  0.12099120141E+01  0.93000000000E-01 0. -1.
       1023    2    1    2    0    0  0.00000000000E+00  0.00000000000E+00  0.81574095251E+02  0.83990391998E+02  0.20001323255E+02 0.  0.
        -11    1    3    3    0    0 -0.23900197145E+01  0.97108095316E+01  0.40640571139E+02  0.41852933454E+02  0.51100000000E-03 0. -1.
         11    1    3    3    0    0  0.23900197145E+01 -0.97108095316E+01  0.40933524112E+02  0.42137458543E+02  0.51100000000E-03 0.  1.
<mgrwt>
<rscale>  0 0.20001323E+02</rscale>
<asrwt>0</asrwt>
<pdfrwt beam="2">  1        3 0.18586899E-03 0.20001323E+02</pdfrwt>
<pdfrwt beam="1">  1       -3 0.12735729E-01 0.20001323E+02</pdfrwt>
<totfact> 0.14759058E+06</totfact>
</mgrwt>
</event>
<event>
 5    1  0.4133473E-007  0.2000271E+02  0.7818608E-02  0.1745274E+00
          3   -1    0    0  501    0  0.00000000000E+00  0.00000000000E+00  0.23546846849E+01  0.23565205208E+01  0.93000000000E-01 0.  1.
         -3   -1    0    0    0  501 -0.00000000000E+00 -0.00000000000E+00 -0.42461609572E+02  0.42461711417E+02  0.93000000000E-01 0. -1.
       1023    2    1    2    0    0  0.00000000000E+00  0.00000000000E+00 -0.40106924887E+02  0.44818231938E+02  0.20002712069E+02 0.  0.
        -11    1    3    3    0    0 -0.61239384933E+01 -0.79061123514E+01 -0.20353127165E+02  0.22677279838E+02  0.51100000000E-03 0.  1.
         11    1    3    3    0    0  0.61239384933E+01  0.79061123514E+01 -0.19753797722E+02  0.22140952100E+02  0.51100000000E-03 0. -1.
<mgrwt>
<rscale>  0 0.20002712E+02</rscale>
<asrwt>0</asrwt>
<pdfrwt beam="1">  1        3 0.36240827E-03 0.20002712E+02</pdfrwt>
<pdfrwt beam="2">  1       -3 0.65327038E-02 0.20002712E+02</pdfrwt>
<totfact> 0.16460725E+06</totfact>
</mgrwt>
</event>
<event>
 5    1  0.4258170E-007  0.2000117E+02  0.7818608E-02  0.1745305E+00
          3   -1    0    0  501    0  0.00000000000E+00  0.00000000000E+00  0.29918875792E+01  0.29933326388E+01  0.93000000000E-01 0. -1.
         -3   -1    0    0    0  501 -0.00000000000E+00 -0.00000000000E+00 -0.33418054330E+02  0.33418183736E+02  0.93000000000E-01 0.  1.
       1023    2    1    2    0    0  0.00000000000E+00  0.00000000000E+00 -0.30426166751E+02  0.36411516375E+02  0.20001172504E+02 0.  0.
        -11    1    3    3    0    0  0.11364098812E+01  0.99353578991E+01 -0.15040751913E+02  0.18061754687E+02  0.51100000000E-03 0.  1.
         11    1    3    3    0    0 -0.11364098812E+01 -0.99353578991E+01 -0.15385414838E+02  0.18349761688E+02  0.51100000000E-03 0. -1.
<mgrwt>
<rscale>  0 0.20001173E+02</rscale>
<asrwt>0</asrwt>
<pdfrwt beam="1">  1        3 0.46041153E-03 0.20001173E+02</pdfrwt>
<pdfrwt beam="2">  1       -3 0.51413600E-02 0.20001173E+02</pdfrwt>
<totfact> 0.16904385E+06</totfact>
</mgrwt>
</event>
<event>
 5    1  0.4133473E-007  0.2000438E+02  0.7818608E-02  0.1745241E+00
          3   -1    0    0  501    0  0.00000000000E+00  0.00000000000E+00  0.28214069593E+02  0.28214222867E+02  0.93000000000E-01 0. -1.
         -3   -1    0    0    0  501 -0.00000000000E+00 -0.00000000000E+00 -0.35451097774E+01  0.35463294170E+01  0.93000000000E-01 0.  1.
       1023    2    1    2    0    0  0.00000000000E+00  0.00000000000E+00  0.24668959816E+02  0.31760552284E+02  0.20004377096E+02 0.  0.
        -11    1    3    3    0    0 -0.62247572816E+01 -0.78285583240E+01  0.12492027424E+02  0.16002645971E+02  0.51100000000E-03 0. -1.
         11    1    3    3    0    0  0.62247572816E+01  0.78285583240E+01  0.12176932391E+02  0.15757906313E+02  0.51100000000E-03 0.  1.
<mgrwt>
<rscale>  0 0.20004377E+02</rscale>
<asrwt>0</asrwt>
<pdfrwt beam="1">  1        3 0.43407318E-02 0.20004377E+02</pdfrwt>
<pdfrwt beam="2">  1       -3 0.54550710E-03 0.20004377E+02</pdfrwt>
<totfact> 0.17156521E+06</totfact>
</mgrwt>
</event>
<event>
 5    1  0.4133473E-007  0.2000677E+02  0.7818608E-02  0.1745194E+00
          3   -1    0    0  501    0  0.00000000000E+00  0.00000000000E+00  0.95973892769E+01  0.95978398576E+01  0.93000000000E-01 0. -1.
         -3   -1    0    0    0  501 -0.00000000000E+00 -0.00000000000E+00 -0.10425648471E+02  0.10426063257E+02  0.93000000000E-01 0.  1.
       1023    2    1    2    0    0  0.00000000000E+00  0.00000000000E+00 -0.82825919405E+00  0.20023903115E+02  0.20006765922E+02 0.  0.
        -11    1    3    3    0    0 -0.58767533772E+01  0.80939627011E+01 -0.27541817610E+00  0.10006213964E+02  0.51100000000E-03 0.  1.
         11    1    3    3    0    0  0.58767533772E+01 -0.80939627011E+01 -0.55284101795E+00  0.10017689150E+02  0.51100000000E-03 0. -1.
<mgrwt>
<rscale>  0 0.20006766E+02</rscale>
<asrwt>0</asrwt>
<pdfrwt beam="1">  1        3 0.14765880E-02 0.20006766E+02</pdfrwt>
<pdfrwt beam="2">  1       -3 0.16040125E-02 0.20006766E+02</pdfrwt>
<totfact> 0.17871075E+06</totfact>
</mgrwt>
</event>
<event>
 5    1  0.4133473E-007  0.2000286E+02  0.7818608E-02  0.1745271E+00
         -3   -1    0    0    0  501 -0.00000000000E+00  0.00000000000E+00  0.84349001791E+01  0.84354128548E+01  0.93000000000E-01 0.  1.
          3   -1    0    0  501    0  0.00000000000E+00 -0.00000000000E+00 -0.11857842331E+02  0.11858207020E+02  0.93000000000E-01 0. -1.
       1023    2    1    2    0    0  0.00000000000E+00  0.00000000000E+00 -0.34229421515E+01  0.20293619875E+02  0.20002861662E+02 0.  0.
        -11    1    3    3    0    0 -0.98623107970E+01 -0.16569948589E+01 -0.15760687884E+01  0.10123971518E+02  0.51100000000E-03 0.  1.
         11    1    3    3    0    0  0.98623107970E+01  0.16569948589E+01 -0.18468733631E+01  0.10169648357E+02  0.51100000000E-03 0. -1.
<mgrwt>
<rscale>  0 0.20002862E+02</rscale>
<asrwt>0</asrwt>
<pdfrwt beam="2">  1        3 0.18243509E-02 0.20002862E+02</pdfrwt>
<pdfrwt beam="1">  1       -3 0.12977444E-02 0.20002862E+02</pdfrwt>
<totfact> 0.17860745E+06</totfact>
</mgrwt>
</event>
<event>
 5    1  0.4133473E-007  0.2000363E+02  0.7818608E-02  0.1745256E+00
         -3   -1    0    0    0  501 -0.00000000000E+00  0.00000000000E+00  0.20094792206E+02  0.20095007409E+02  0.93000000000E-01 0. -1.
          3   -1    0    0  501    0  0.00000000000E+00 -0.00000000000E+00 -0.49775439285E+01  0.49784126546E+01  0.93000000000E-01 0.  1.
       1023    2    1    2    0    0  0.00000000000E+00  0.00000000000E+00  0.15117248277E+02  0.25073420064E+02  0.20003629627E+02 0.  0.
        -11    1    3    3    0    0 -0.46003097554E+01  0.88810675203E+01  0.75704592598E+01  0.12543845655E+02  0.51100000000E-03 0.  1.
         11    1    3    3    0    0  0.46003097554E+01 -0.88810675203E+01  0.75467890173E+01  0.12529574409E+02  0.51100000000E-03 0. -1.
<mgrwt>
<rscale>  0 0.20003630E+02</rscale>
<asrwt>0</asrwt>
<pdfrwt beam="2">  1        3 0.76585937E-03 0.20003630E+02</pdfrwt>
<pdfrwt beam="1">  1       -3 0.30915899E-02 0.20003630E+02</pdfrwt>
<totfact> 0.17556441E+06</totfact>
</mgrwt>
</event>
<event>
 5    1  0.4226948E-007  0.2000125E+02  0.7818608E-02  0.1745303E+00
         -3   -1    0    0    0  501 -0.00000000000E+00  0.00000000000E+00  0.53215856828E+02  0.53215938091E+02  0.93000000000E-01 0.  1.
          3   -1    0    0  501    0  0.00000000000E+00 -0.00000000000E+00 -0.18781410265E+01  0.18804421595E+01  0.93000000000E-01 0. -1.
       1023    2    1    2    0    0  0.00000000000E+00  0.00000000000E+00  0.51337715802E+02  0.55096380251E+02  0.20001251287E+02 0.  0.
        -11    1    3    3    0    0  0.82515271032E+01 -0.56496679209E+01  0.25883399520E+02  0.27748095757E+02  0.51100000000E-03 0.  1.
         11    1    3    3    0    0 -0.82515271032E+01  0.56496679209E+01  0.25454316281E+02  0.27348284494E+02  0.51100000000E-03 0. -1.
<mgrwt>
<rscale>  0 0.20001251E+02</rscale>
<asrwt>0</asrwt>
<pdfrwt beam="2">  1        3 0.28912807E-03 0.20001251E+02</pdfrwt>
<pdfrwt beam="1">  1       -3 0.81872372E-02 0.20001251E+02</pdfrwt>
<totfact> 0.15966853E+06</totfact>
</mgrwt>
</event>
<event>
 5    1  0.4133473E-007  0.2000078E+02  0.7818608E-02  0.1745313E+00
          3   -1    0    0  501    0  0.00000000000E+00  0.00000000000E+00  0.26687056753E+01  0.26703256321E+01  0.93000000000E-01 0. -1.
         -3   -1    0    0    0  501 -0.00000000000E+00 -0.00000000000E+00 -0.37461205168E+02  0.37461320607E+02  0.93000000000E-01 0.  1.
       1023    2    1    2    0    0  0.00000000000E+00  0.00000000000E+00 -0.34792499493E+02  0.40131646239E+02  0.20000775208E+02 0.  0.
        -11    1    3    3    0    0 -0.36863213555E+01  0.92961535775E+01 -0.17431889814E+02  0.20096721604E+02  0.51100000000E-03 0.  1.
         11    1    3    3    0    0  0.36863213555E+01 -0.92961535775E+01 -0.17360609679E+02  0.20034924635E+02  0.51100000000E-03 0. -1.
<mgrwt>
<rscale>  0 0.20000775E+02</rscale>
<asrwt>0</asrwt>
<pdfrwt beam="1">  1        3 0.41070362E-03 0.20000775E+02</pdfrwt>
<pdfrwt beam="2">  1       -3 0.57633954E-02 0.20000775E+02</pdfrwt>
<totfact> 0.16705731E+06</totfact>
</mgrwt>
</event>
<event>
 5    1  0.4133473E-007  0.2000068E+02  0.7818608E-02  0.1745315E+00
         -3   -1    0    0    0  501 -0.00000000000E+00  0.00000000000E+00  0.14026148413E+01  0.14056946301E+01  0.93000000000E-01 0.  1.
          3   -1    0    0  501    0  0.00000000000E+00 -0.00000000000E+00 -0.71218922842E+02  0.71218983564E+02  0.93000000000E-01 0. -1.
       1023    2    1    2    0    0  0.00000000000E+00  0.00000000000E+00 -0.69816308001E+02  0.72624678194E+02  0.20000675484E+02 0.  0.
        -11    1    3    3    0    0 -0.14679181892E+01 -0.98918088404E+01 -0.34675968591E+02  0.36089132214E+02  0.51100000000E-03 0. -1.
         11    1    3    3    0    0  0.14679181892E+01  0.98918088404E+01 -0.35140339410E+02  0.36535545980E+02  0.51100000000E-03 0.  1.
<mgrwt>
<rscale>  0 0.20000675E+02</rscale>
<asrwt>0</asrwt>
<pdfrwt beam="2">  1        3 0.10956996E-01 0.20000675E+02</pdfrwt>
<pdfrwt beam="1">  1       -3 0.21602853E-03 0.20000675E+02</pdfrwt>
<totfact> 0.15203915E+06</totfact>
</mgrwt>
</event>
<event>
 5    1  0.4133473E-007  0.2000052E+02  0.7818608E-02  0.1745318E+00
         -3   -1    0    0    0  501 -0.00000000000E+00  0.00000000000E+00  0.27673277741E+01  0.27688900320E+01  0.93000000000E-01 0.  1.
          3   -1    0    0  501    0  0.00000000000E+00 -0.00000000000E+00 -0.36125997714E+02  0.36126117420E+02  0.93000000000E-01 0. -1.
       1023    2    1    2    0    0  0.00000000000E+00  0.00000000000E+00 -0.33358669940E+02  0.38895007452E+02  0.20000518606E+02 0.  0.
        -11    1    3    3    0    0 -0.92208003490E+01  0.38699958975E+01 -0.16819009195E+02  0.19567296642E+02  0.51100000000E-03 0.  1.
         11    1    3    3    0    0  0.92208003490E+01 -0.38699958975E+01 -0.16539660745E+02  0.19327710810E+02  0.51100000000E-03 0. -1.
<mgrwt>
<rscale>  0 0.20000519E+02</rscale>
<asrwt>0</asrwt>
<pdfrwt beam="2">  1        3 0.55579749E-02 0.20000519E+02</pdfrwt>
<pdfrwt beam="1">  1       -3 0.42587214E-03 0.20000519E+02</pdfrwt>
<totfact> 0.16769479E+06</totfact>
</mgrwt>
</event>
<event>
 5    1  0.4133473E-007  0.2000041E+02  0.7818608E-02  0.1745320E+00
         -3   -1    0    0    0  501 -0.00000000000E+00  0.00000000000E+00  0.31252491120E+02  0.31252629493E+02  0.93000000000E-01 0.  1.
          3   -1    0    0  501    0  0.00000000000E+00 -0.00000000000E+00 -0.31990554835E+01  0.32004070033E+01  0.93000000000E-01 0. -1.
       1023    2    1    2    0    0  0.00000000000E+00  0.00000000000E+00  0.28053435637E+02  0.34453036496E+02  0.20000411815E+02 0.  0.
        -11    1    3    3    0    0 -0.72007809140E+01 -0.69391171800E+01  0.13959449147E+02  0.17171744633E+02  0.51100000000E-03 0. -1.
         11    1    3    3    0    0  0.72007809140E+01  0.69391171800E+01  0.14093986490E+02  0.17281291863E+02  0.51100000000E-03 0.  1.
<mgrwt>
<rscale>  0 0.20000412E+02</rscale>
<asrwt>0</asrwt>
<pdfrwt beam="2">  1        3 0.49227701E-03 0.20000412E+02</pdfrwt>
<pdfrwt beam="1">  1       -3 0.48081900E-02 0.20000412E+02</pdfrwt>
<totfact> 0.17013643E+06</totfact>
</mgrwt>
</event>
<event>
 4    1  0.4133473E-007  0.2001991E+02  0.7818608E-02  0.1744932E+00
         -3   -1    0    0    0  501 -0.00000000000E+00  0.00000000000E+00  0.79359782014E+01  0.79365231061E+01  0.93000000000E-01 0.  1.
          3   -1    0    0  501    0  0.00000000000E+00 -0.00000000000E+00 -0.12624789117E+02  0.12625131653E+02  0.93000000000E-01 0. -1.
        -11    1    1    2    0    0 -0.56824558538E+01  0.82393018982E+01 -0.21894108655E+01  0.10245482932E+02  0.51100000000E-03 0.  1.
         11    1    1    2    0    0  0.56824558538E+01 -0.82393018982E+01 -0.24994000502E+01  0.10316171827E+02  0.51100000000E-03 0. -1.
<mgrwt>
<rscale>  0 0.20019908E+02</rscale>
<asrwt>0</asrwt>
<pdfrwt beam="2">  1        3 0.19423435E-02 0.20019908E+02</pdfrwt>
<pdfrwt beam="1">  1       -3 0.12209880E-02 0.20019908E+02</pdfrwt>
<totfact> 0.17810477E+06</totfact>
</mgrwt>
</event>
<event>
 4    1  0.4133473E-007  0.2002205E+02  0.7818608E-02  0.1744890E+00
         -3   -1    0    0    0  501 -0.00000000000E+00  0.00000000000E+00  0.99130867244E+01  0.99135229563E+01  0.93000000000E-01 0. -1.
          3   -1    0    0  501    0  0.00000000000E+00 -0.00000000000E+00 -0.10109060980E+02  0.10109488755E+02  0.93000000000E-01 0.  1.
        -11    1    1    2    0    0  0.56019282820E+01 -0.82947181446E+01 -0.28956401011E+00  0.10013380905E+02  0.51100000000E-03 0.  1.
         11    1    1    2    0    0 -0.56019282820E+01  0.82947181446E+01  0.93589754833E-01  0.10009630806E+02  0.51100000000E-03 0. -1.
<mgrwt>
<rscale>  0 0.20022053E+02</rscale>
<asrwt>0</asrwt>
<pdfrwt beam="2">  1        3 0.15553066E-02 0.20022053E+02</pdfrwt>
<pdfrwt beam="1">  1       -3 0.15251567E-02 0.20022053E+02</pdfrwt>
<totfact> 0.17841683E+06</totfact>
</mgrwt>
</event>
<event>
 5    1  0.4133473E-007  0.2000242E+02  0.7818608E-02  0.1745280E+00
         -3   -1    0    0    0  501 -0.00000000000E+00  0.00000000000E+00  0.81234209493E+02  0.81234262728E+02  0.93000000000E-01 0.  1.
          3   -1    0    0  501    0  0.00000000000E+00 -0.00000000000E+00 -0.12294961079E+01  0.12330083857E+01  0.93000000000E-01 0. -1.
       1023    2    1    2    0    0  0.00000000000E+00  0.00000000000E+00  0.80004713386E+02  0.82467271114E+02  0.20002415882E+02 0.  0.
        -11    1    3    3    0    0  0.72095147228E+01 -0.69300079597E+01  0.39390181880E+02  0.40639740915E+02  0.51100000000E-03 0. -1.
         11    1    3    3    0    0 -0.72095147228E+01  0.69300079597E+01  0.40614531506E+02  0.41827530199E+02  0.51100000000E-03 0.  1.
<mgrwt>
<rscale>  0 0.20002416E+02</rscale>
<asrwt>0</asrwt>
<pdfrwt beam="2">  1        3 0.18942754E-03 0.20002416E+02</pdfrwt>
<pdfrwt beam="1">  1       -3 0.12497843E-01 0.20002416E+02</pdfrwt>
<totfact> 0.14815331E+06</totfact>
</mgrwt>
</event>
<event>
 5    1  0.4254229E-007  0.2000087E+02  0.7818608E-02  0.1745311E+00
         -3   -1    0    0    0  501 -0.00000000000E+00  0.00000000000E+00  0.15969521673E+02  0.15969792468E+02  0.93000000000E-01 0.  1.
          3   -1    0    0  501    0  0.00000000000E+00 -0.00000000000E+00 -0.62618017715E+01  0.62624923493E+01  0.93000000000E-01 0. -1.
       1023    2    1    2    0    0  0.00000000000E+00  0.00000000000E+00  0.97077199018E+01  0.22232284817E+02  0.20000866544E+02 0.  0.
        -11    1    3    3    0    0 -0.60757099421E+01 -0.79431965233E+01  0.48611538122E+01  0.11119327271E+02  0.51100000000E-03 0.  1.
         11    1    3    3    0    0  0.60757099421E+01  0.79431965233E+01  0.48465660896E+01  0.11112957547E+02  0.51100000000E-03 0. -1.
<mgrwt>
<rscale>  0 0.20000867E+02</rscale>
<asrwt>0</asrwt>
<pdfrwt beam="2">  1        3 0.96342808E-03 0.20000867E+02</pdfrwt>
<pdfrwt beam="1">  1       -3 0.24569234E-02 0.20000867E+02</pdfrwt>
<totfact> 0.17739759E+06</totfact>
</mgrwt>
</event>
<event>
 5    1  0.4133473E-007  0.2000058E+02  0.7818608E-02  0.1745317E+00
         -3   -1    0    0    0  501 -0.00000000000E+00  0.00000000000E+00  0.35204964121E+01  0.35217245758E+01  0.93000000000E-01 0. -1.
          3   -1    0    0  501    0  0.00000000000E+00 -0.00000000000E+00 -0.28400475923E+02  0.28400628191E+02  0.93000000000E-01 0.  1.
       1023    2    1    2    0    0  0.00000000000E+00  0.00000000000E+00 -0.24879979511E+02  0.31922352767E+02  0.20000580634E+02 0.  0.
        -11    1    3    3    0    0 -0.99958277879E+01 -0.29421862330E+00 -0.12357542147E+02  0.15896917498E+02  0.51100000000E-03 0.  1.
         11    1    3    3    0    0  0.99958277879E+01  0.29421862330E+00 -0.12522437364E+02  0.16025435269E+02  0.51100000000E-03 0. -1.
<mgrwt>
<rscale>  0 0.20000581E+02</rscale>
<asrwt>0</asrwt>
<pdfrwt beam="2">  1        3 0.43694100E-02 0.20000581E+02</pdfrwt>
<pdfrwt beam="1">  1       -3 0.54172104E-03 0.20000581E+02</pdfrwt>
<totfact> 0.17154257E+06</totfact>
</mgrwt>
</event>
<event>
 5    1  0.4192608E-007  0.2000134E+02  0.7818608E-02  0.1745301E+00
          3   -1    0    0  501    0  0.00000000000E+00  0.00000000000E+00  0.21806631870E+02  0.21806830180E+02  0.93000000000E-01 0. -1.
         -3   -1    0    0    0  501 -0.00000000000E+00 -0.00000000000E+00 -0.45856856522E+01  0.45866285985E+01  0.93000000000E-01 0.  1.
       1023    2    1    2    0    0  0.00000000000E+00  0.00000000000E+00  0.17220946217E+02  0.26393458778E+02  0.20001341897E+02 0.  0.
        -11    1    3    3    0    0 -0.69465998756E+01  0.71940426674E+01  0.86930860791E+01  0.13250631893E+02  0.51100000000E-03 0. -1.
         11    1    3    3    0    0  0.69465998756E+01 -0.71940426674E+01  0.85278601382E+01  0.13142826885E+02  0.51100000000E-03 0.  1.
<mgrwt>
<rscale>  0 0.20001342E+02</rscale>
<asrwt>0</asrwt>
<pdfrwt beam="1">  1        3 0.33549543E-02 0.20001342E+02</pdfrwt>
<pdfrwt beam="2">  1       -3 0.70557788E-03 0.20001342E+02</pdfrwt>
<totfact> 0.17478650E+06</totfact>
</mgrwt>
</event>
<event>
 5    1  0.4133473E-007  0.2000033E+02  0.7818608E-02  0.1745321E+00
          3   -1    0    0  501    0  0.00000000000E+00  0.00000000000E+00  0.13970818570E+01  0.14001738161E+01  0.93000000000E-01 0.  1.
         -3   -1    0    0    0  501 -0.00000000000E+00 -0.00000000000E+00 -0.71497916884E+02  0.71497977369E+02  0.93000000000E-01 0. -1.
       1023    2    1    2    0    0  0.00000000000E+00  0.00000000000E+00 -0.70100835027E+02  0.72898151185E+02  0.20000334363E+02 0.  0.
        -11    1    3    3    0    0  0.32378876765E+01  0.94614623360E+01 -0.35004710877E+02  0.36405122854E+02  0.51100000000E-03 0.  1.
         11    1    3    3    0    0 -0.32378876765E+01 -0.94614623360E+01 -0.35096124150E+02  0.36493028331E+02  0.51100000000E-03 0. -1.
<mgrwt>
<rscale>  0 0.20000334E+02</rscale>
<asrwt>0</asrwt>
<pdfrwt beam="1">  1        3 0.21517822E-03 0.20000334E+02</pdfrwt>
<pdfrwt beam="2">  1       -3 0.10999919E-01 0.20000334E+02</pdfrwt>
<totfact> 0.15196220E+06</totfact>
</mgrwt>
</event>
<event>
 4    1  0.4133473E-007  0.2021459E+02  0.7818608E-02  0.1741094E+00
         -3   -1    0    0    0  501 -0.00000000000E+00  0.00000000000E+00  0.17162557844E+01  0.17187736667E+01  0.93000000000E-01 0.  1.
          3   -1    0    0  501    0  0.00000000000E+00 -0.00000000000E+00 -0.59477222580E+02  0.59477295289E+02  0.93000000000E-01 0. -1.
        -11    1    1    2    0    0 -0.77799406586E+01  0.63396718450E+01 -0.32511347787E+02  0.34025088552E+02  0.51100000000E-03 0. -1.
         11    1    1    2    0    0  0.77799406586E+01 -0.63396718450E+01 -0.25249619008E+02  0.27170980404E+02  0.51100000000E-03 0.  1.
<mgrwt>
<rscale>  0 0.20214588E+02</rscale>
<asrwt>0</asrwt>
<pdfrwt beam="2">  1        3 0.91505396E-02 0.20214588E+02</pdfrwt>
<pdfrwt beam="1">  1       -3 0.26423867E-03 0.20214588E+02</pdfrwt>
<totfact> 0.15334549E+06</totfact>
</mgrwt>
</event>
<event>
 5    1  0.4133473E-007  0.2000028E+02  0.7818608E-02  0.1745323E+00
         -3   -1    0    0    0  501 -0.00000000000E+00  0.00000000000E+00  0.13685790212E+02  0.13686106193E+02  0.93000000000E-01 0. -1.
          3   -1    0    0  501    0  0.00000000000E+00 -0.00000000000E+00 -0.73063559238E+01  0.73069477817E+01  0.93000000000E-01 0.  1.
       1023    2    1    2    0    0  0.00000000000E+00  0.00000000000E+00  0.63794342882E+01  0.20993053975E+02  0.20000278332E+02 0.  0.
        -11    1    3    3    0    0  0.99241043532E+01  0.12299536067E+01  0.31410475504E+01  0.10481737120E+02  0.51100000000E-03 0. -1.
         11    1    3    3    0    0 -0.99241043532E+01 -0.12299536067E+01  0.32383867378E+01  0.10511316854E+02  0.51100000000E-03 0.  1.
<mgrwt>
<rscale>  0 0.20000278E+02</rscale>
<asrwt>0</asrwt>
<pdfrwt beam="2">  1        3 0.11241246E-02 0.20000278E+02</pdfrwt>
<pdfrwt beam="1">  1       -3 0.21055760E-02 0.20000278E+02</pdfrwt>
<totfact> 0.17820546E+06</totfact>
</mgrwt>
</event>
<event>
 5    1  0.4133473E-007  0.2000052E+02  0.7818608E-02  0.1745318E+00
          3   -1    0    0  501    0  0.00000000000E+00  0.00000000000E+00  0.10297998170E+03  0.10298002369E+03  0.93000000000E-01 0. -1.
         -3   -1    0    0    0  501 -0.00000000000E+00 -0.00000000000E+00 -0.96884424198E+00  0.97329757280E+00  0.93000000000E-01 0.  1.
       1023    2    1    2    0    0  0.00000000000E+00  0.00000000000E+00  0.10201113746E+03  0.10395332127E+03  0.20000520914E+02 0.  0.
        -11    1    3    3    0    0 -0.78438343197E+01 -0.62031375379E+01  0.50882924771E+02  0.51856308060E+02  0.51100000000E-03 0.  1.
         11    1    3    3    0    0  0.78438343197E+01  0.62031375379E+01  0.51128212688E+02  0.52097013207E+02  0.51100000000E-03 0. -1.
<mgrwt>
<rscale>  0 0.20000521E+02</rscale>
<asrwt>0</asrwt>
<pdfrwt beam="1">  1        3 0.15843423E-01 0.20000521E+02</pdfrwt>
<pdfrwt beam="2">  1       -3 0.14939873E-03 0.20000521E+02</pdfrwt>
<totfact> 0.14041862E+06</totfact>
</mgrwt>
</event>
<event>
 5    1  0.4133473E-007  0.2000036E+02  0.7818608E-02  0.1745321E+00
         -3   -1    0    0    0  501 -0.00000000000E+00  0.00000000000E+00  0.20826094278E+01  0.20846848751E+01  0.93000000000E-01 0. -1.
          3   -1    0    0  501    0  0.00000000000E+00 -0.00000000000E+00 -0.47992358386E+02  0.47992448494E+02  0.93000000000E-01 0.  1.
       1023    2    1    2    0    0  0.00000000000E+00  0.00000000000E+00 -0.45909748958E+02  0.50077133369E+02  0.20000355923E+02 0.  0.
        -11    1    3    3    0    0 -0.80291526427E+01  0.59611169630E+01 -0.22862830942E+02  0.24954182947E+02  0.51100000000E-03 0. -1.
         11    1    3    3    0    0  0.80291526427E+01 -0.59611169630E+01 -0.23046918016E+02  0.25122950422E+02  0.51100000000E-03 0.  1.
<mgrwt>
<rscale>  0 0.20000356E+02</rscale>
<asrwt>0</asrwt>
<pdfrwt beam="2">  1        3 0.73836055E-02 0.20000356E+02</pdfrwt>
<pdfrwt beam="1">  1       -3 0.32056807E-03 0.20000356E+02</pdfrwt>
<totfact> 0.16202849E+06</totfact>
</mgrwt>
</event>
<event>
 5    1  0.4133473E-007  0.2000020E+02  0.7818608E-02  0.1745324E+00
          3   -1    0    0  501    0  0.00000000000E+00  0.00000000000E+00  0.12706932909E+02  0.12707273231E+02  0.93000000000E-01 0.  1.
         -3   -1    0    0    0  501 -0.00000000000E+00 -0.00000000000E+00 -0.78691584942E+01  0.78697080255E+01  0.93000000000E-01 0. -1.
       1023    2    1    2    0    0  0.00000000000E+00  0.00000000000E+00  0.48377744148E+01  0.20576981256E+02  0.20000202407E+02 0.  0.
        -11    1    3    3    0    0 -0.76870571534E+01  0.63961022821E+01  0.24522529440E+01  0.10296335117E+02  0.51100000000E-03 0.  1.
         11    1    3    3    0    0  0.76870571534E+01 -0.63961022821E+01  0.23855214708E+01  0.10280646139E+02  0.51100000000E-03 0. -1.
<mgrwt>
<rscale>  0 0.20000202E+02</rscale>
<asrwt>0</asrwt>
<pdfrwt beam="1">  1        3 0.19549812E-02 0.20000202E+02</pdfrwt>
<pdfrwt beam="2">  1       -3 0.12107082E-02 0.20000202E+02</pdfrwt>
<totfact> 0.17847310E+06</totfact>
</mgrwt>
</event>
<event>
 5    1  0.4133473E-007  0.2000891E+02  0.7818608E-02  0.1745151E+00
          3   -1    0    0  501    0  0.00000000000E+00  0.00000000000E+00  0.11270072908E+02  0.11270456617E+02  0.93000000000E-01 0.  1.
         -3   -1    0    0    0  501 -0.00000000000E+00 -0.00000000000E+00 -0.88801831678E+01  0.88806701377E+01  0.93000000000E-01 0. -1.
       1023    2    1    2    0    0  0.00000000000E+00  0.00000000000E+00  0.23898897402E+01  0.20151126755E+02  0.20008906430E+02 0.  0.
        -11    1    3    3    0    0 -0.96566092714E+01 -0.26081981454E+01  0.10031081964E+01  0.10052811870E+02  0.51100000000E-03 0.  1.
         11    1    3    3    0    0  0.96566092714E+01  0.26081981454E+01  0.13867815438E+01  0.10098314884E+02  0.51100000000E-03 0. -1.
<mgrwt>
<rscale>  0 0.20008906E+02</rscale>
<asrwt>0</asrwt>
<pdfrwt beam="1">  1        3 0.17339244E-02 0.20008906E+02</pdfrwt>
<pdfrwt beam="2">  1       -3 0.13662490E-02 0.20008906E+02</pdfrwt>
<totfact> 0.17858519E+06</totfact>
</mgrwt>
</event>
<event>
 5    1  0.4296195E-007  0.2000059E+02  0.7818608E-02  0.1745316E+00
          3   -1    0    0  501    0  0.00000000000E+00  0.00000000000E+00  0.32371775091E+01  0.32385131195E+01  0.93000000000E-01 0.  1.
         -3   -1    0    0    0  501 -0.00000000000E+00 -0.00000000000E+00 -0.30885156996E+02  0.30885297014E+02  0.93000000000E-01 0. -1.
       1023    2    1    2    0    0  0.00000000000E+00  0.00000000000E+00 -0.27647979487E+02  0.34123810134E+02  0.20000591200E+02 0.  0.
        -11    1    3    3    0    0  0.53171216325E+01 -0.84695049979E+01 -0.13892543046E+02  0.17117448697E+02  0.51100000000E-03 0.  1.
         11    1    3    3    0    0 -0.53171216325E+01  0.84695049979E+01 -0.13755436441E+02  0.17006361437E+02  0.51100000000E-03 0. -1.
<mgrwt>
<rscale>  0 0.20000591E+02</rscale>
<asrwt>0</asrwt>
<pdfrwt beam="1">  1        3 0.49814084E-03 0.20000591E+02</pdfrwt>
<pdfrwt beam="2">  1       -3 0.47516759E-02 0.20000591E+02</pdfrwt>
<totfact> 0.17031666E+06</totfact>
</mgrwt>
</event>
<event>
 5    1  0.4133473E-007  0.2000042E+02  0.7818608E-02  0.1745320E+00
          3   -1    0    0  501    0  0.00000000000E+00  0.00000000000E+00  0.59573594885E+02  0.59573667475E+02  0.93000000000E-01 0. -1.
         -3   -1    0    0    0  501 -0.00000000000E+00 -0.00000000000E+00 -0.16773049136E+01  0.16798811783E+01  0.93000000000E-01 0.  1.
       1023    2    1    2    0    0  0.00000000000E+00  0.00000000000E+00  0.57896289971E+02  0.61253548654E+02  0.20000420753E+02 0.  0.
        -11    1    3    3    0    0  0.85610733214E+01 -0.51682905904E+01  0.28851138586E+02  0.30535084772E+02  0.51100000000E-03 0. -1.
         11    1    3    3    0    0 -0.85610733214E+01  0.51682905904E+01  0.29045151385E+02  0.30718463882E+02  0.51100000000E-03 0.  1.
<mgrwt>
<rscale>  0 0.20000421E+02</rscale>
<asrwt>0</asrwt>
<pdfrwt beam="1">  1        3 0.91653702E-02 0.20000421E+02</pdfrwt>
<pdfrwt beam="2">  1       -3 0.25825072E-03 0.20000421E+02</pdfrwt>
<totfact> 0.15687212E+06</totfact>
</mgrwt>
</event>
<event>
 5    1  0.4133473E-007  0.2000034E+02  0.7818608E-02  0.1745321E+00
         -3   -1    0    0    0  501 -0.00000000000E+00  0.00000000000E+00  0.38438809222E+01  0.38450057924E+01  0.93000000000E-01 0. -1.
          3   -1    0    0  501    0  0.00000000000E+00 -0.00000000000E+00 -0.26011234515E+02  0.26011400770E+02  0.93000000000E-01 0.  1.
       1023    2    1    2    0    0  0.00000000000E+00  0.00000000000E+00 -0.22167353593E+02  0.29856406562E+02  0.20000336184E+02 0.  0.
        -11    1    3    3    0    0 -0.92900981589E+01  0.37008361110E+01 -0.11136452726E+02  0.14967387591E+02  0.51100000000E-03 0.  1.
         11    1    3    3    0    0  0.92900981589E+01 -0.37008361110E+01 -0.11030900867E+02  0.14889018971E+02  0.51100000000E-03 0. -1.
<mgrwt>
<rscale>  0 0.20000336E+02</rscale>
<asrwt>0</asrwt>
<pdfrwt beam="2">  1        3 0.40018276E-02 0.20000336E+02</pdfrwt>
<pdfrwt beam="1">  1       -3 0.59146563E-03 0.20000336E+02</pdfrwt>
<totfact> 0.17274151E+06</totfact>
</mgrwt>
</event>
<event>
 5    1  0.4133473E-007  0.2000729E+02  0.7818608E-02  0.1745183E+00
          3   -1    0    0  501    0  0.00000000000E+00  0.00000000000E+00  0.95918620630E+02  0.95918665715E+02  0.93000000000E-01 0. -1.
         -3   -1    0    0    0  501 -0.00000000000E+00 -0.00000000000E+00 -0.10411925492E+01  0.10453377083E+01  0.93000000000E-01 0.  1.
       1023    2    1    2    0    0  0.00000000000E+00  0.00000000000E+00  0.94877428080E+02  0.96964003423E+02  0.20007288689E+02 0.  0.
        -11    1    3    3    0    0 -0.89356257518E+01  0.44974747752E+01  0.47509441299E+02  0.48551206985E+02  0.51100000000E-03 0.  1.
         11    1    3    3    0    0  0.89356257518E+01 -0.44974747752E+01  0.47367986782E+02  0.48412796438E+02  0.51100000000E-03 0. -1.
<mgrwt>
<rscale>  0 0.20007289E+02</rscale>
<asrwt>0</asrwt>
<pdfrwt beam="1">  1        3 0.14757027E-01 0.20007289E+02</pdfrwt>
<pdfrwt beam="2">  1       -3 0.16050586E-03 0.20007289E+02</pdfrwt>
<totfact> 0.14272845E+06</totfact>
</mgrwt>
</event>
<event>
 4    1  0.4133473E-007  0.2001503E+02  0.7818608E-02  0.1745029E+00
         -3   -1    0    0    0  501 -0.00000000000E+00  0.00000000000E+00  0.99109600891E+01  0.99113964147E+01  0.93000000000E-01 0. -1.
          3   -1    0    0  501    0  0.00000000000E+00 -0.00000000000E+00 -0.10104134264E+02  0.10104562248E+02  0.93000000000E-01 0.  1.
        -11    1    1    2    0    0  0.21802828043E+01 -0.97645820130E+01 -0.31936634402E+00  0.10010129376E+02  0.51100000000E-03 0.  1.
         11    1    1    2    0    0 -0.21802828043E+01  0.97645820130E+01  0.12619216919E+00  0.10005829287E+02  0.51100000000E-03 0. -1.
<mgrwt>
<rscale>  0 0.20015026E+02</rscale>
<asrwt>0</asrwt>
<pdfrwt beam="2">  1        3 0.15545487E-02 0.20015026E+02</pdfrwt>
<pdfrwt beam="1">  1       -3 0.15248296E-02 0.20015026E+02</pdfrwt>
<totfact> 0.17855648E+06</totfact>
</mgrwt>
</event>
<event>
 5    1  0.4192126E-007  0.2000055E+02  0.7818608E-02  0.1745317E+00
         -3   -1    0    0    0  501 -0.00000000000E+00  0.00000000000E+00  0.30316815825E+02  0.30316958468E+02  0.93000000000E-01 0.  1.
          3   -1    0    0  501    0  0.00000000000E+00 -0.00000000000E+00 -0.32978738848E+01  0.32991849236E+01  0.93000000000E-01 0. -1.
       1023    2    1    2    0    0  0.00000000000E+00  0.00000000000E+00  0.27018941940E+02  0.33616143392E+02  0.20000546817E+02 0.  0.
        -11    1    3    3    0    0 -0.56873814557E+01  0.82254370542E+01  0.13571121421E+02  0.16857623185E+02  0.51100000000E-03 0.  1.
         11    1    3    3    0    0  0.56873814557E+01 -0.82254370542E+01  0.13447820519E+02  0.16758520207E+02  0.51100000000E-03 0. -1.
<mgrwt>
<rscale>  0 0.20000547E+02</rscale>
<asrwt>0</asrwt>
<pdfrwt beam="2">  1        3 0.50747703E-03 0.20000547E+02</pdfrwt>
<pdfrwt beam="1">  1       -3 0.46642374E-02 0.20000547E+02</pdfrwt>
<totfact> 0.17060170E+06</totfact>
</mgrwt>
</event>
<event>
 5    1  0.4133473E-007  0.2000992E+02  0.7818608E-02  0.1745131E+00
         -3   -1    0    0    0  501 -0.00000000000E+00  0.00000000000E+00  0.11896632444E+02  0.11896995945E+02  0.93000000000E-01 0.  1.
          3   -1    0    0  501    0  0.00000000000E+00 -0.00000000000E+00 -0.84133286537E+01  0.84138426439E+01  0.93000000000E-01 0. -1.
       1023    2    1    2    0    0  0.00000000000E+00  0.00000000000E+00  0.34833037904E+01  0.20310838589E+02  0.20009916514E+02 0.  0.
        -11    1    3    3    0    0  0.12891107348E+01  0.99173187370E+01  0.20361391529E+01  0.10205923786E+02  0.51100000000E-03 0. -1.
         11    1    3    3    0    0 -0.12891107348E+01 -0.99173187370E+01  0.14471646376E+01  0.10104914803E+02  0.51100000000E-03 0.  1.
<mgrwt>
<rscale>  0 0.20009917E+02</rscale>
<asrwt>0</asrwt>
<pdfrwt beam="2">  1        3 0.12944258E-02 0.20009917E+02</pdfrwt>
<pdfrwt beam="1">  1       -3 0.18303186E-02 0.20009917E+02</pdfrwt>
<totfact> 0.17846357E+06</totfact>
</mgrwt>
</event>
<event>
 5    1  0.4133473E-007  0.2000126E+02  0.7818608E-02  0.1745303E+00
         -3   -1    0    0    0  501 -0.00000000000E+00  0.00000000000E+00  0.29121329772E+01  0.29136175928E+01  0.93000000000E-01 0. -1.
          3   -1    0    0  501    0  0.00000000000E+00 -0.00000000000E+00 -0.34333120192E+02  0.34333246149E+02  0.93000000000E-01 0.  1.
       1023    2    1    2    0    0  0.00000000000E+00  0.00000000000E+00 -0.31420987215E+02  0.37246863742E+02  0.20001260486E+02 0.  0.
        -11    1    3    3    0    0 -0.98005371314E+01 -0.19895454183E+01 -0.15595910517E+02  0.18526771013E+02  0.51100000000E-03 0.  1.
         11    1    3    3    0    0  0.98005371314E+01  0.19895454183E+01 -0.15825076698E+02  0.18720092729E+02  0.51100000000E-03 0. -1.
<mgrwt>
<rscale>  0 0.20001260E+02</rscale>
<asrwt>0</asrwt>
<pdfrwt beam="2">  1        3 0.52821421E-02 0.20001260E+02</pdfrwt>
<pdfrwt beam="1">  1       -3 0.44814437E-03 0.20001260E+02</pdfrwt>
<totfact> 0.16856728E+06</totfact>
</mgrwt>
</event>
<event>
 5    1  0.4296221E-007  0.2000112E+02  0.7818608E-02  0.1745306E+00
         -3   -1    0    0    0  501 -0.00000000000E+00  0.00000000000E+00  0.15824374219E+02  0.15824647498E+02  0.93000000000E-01 0.  1.
          3   -1    0    0  501    0  0.00000000000E+00 -0.00000000000E+00 -0.63194020262E+01  0.63200863102E+01  0.93000000000E-01 0. -1.
       1023    2    1    2    0    0  0.00000000000E+00  0.00000000000E+00  0.95049721928E+01  0.22144733808E+02  0.20001118444E+02 0.  0.
        -11    1    3    3    0    0  0.14141288987E+00 -0.99990414430E+01  0.46398090275E+01  0.11024003604E+02  0.51100000000E-03 0. -1.
         11    1    3    3    0    0 -0.14141288987E+00  0.99990414430E+01  0.48651631653E+01  0.11120730204E+02  0.51100000000E-03 0.  1.
<mgrwt>
<rscale>  0 0.20001118E+02</rscale>
<asrwt>0</asrwt>
<pdfrwt beam="2">  1        3 0.97228936E-03 0.20001118E+02</pdfrwt>
<pdfrwt beam="1">  1       -3 0.24345927E-02 0.20001118E+02</pdfrwt>
<totfact> 0.17744856E+06</totfact>
</mgrwt>
</event>
<event>
 4    1  0.4133473E-007  0.2027680E+02  0.7818608E-02  0.1739879E+00
          3   -1    0    0  501    0  0.00000000000E+00  0.00000000000E+00  0.19626734164E+01  0.19648755532E+01  0.93000000000E-01 0. -1.
         -3   -1    0    0    0  501 -0.00000000000E+00 -0.00000000000E+00 -0.52339381275E+02  0.52339463899E+02  0.93000000000E-01 0.  1.
        -11    1    1    2    0    0  0.62564654568E+01 -0.78951174305E+01 -0.22122007750E+02  0.24307601001E+02  0.51100000000E-03 0. -1.
         11    1    1    2    0    0 -0.62564654568E+01  0.78951174305E+01 -0.28254700108E+02  0.29996738452E+02  0.51100000000E-03 0.  1.
<mgrwt>
<rscale>  0 0.20276799E+02</rscale>
<asrwt>0</asrwt>
<pdfrwt beam="1">  1        3 0.30212555E-03 0.20276799E+02</pdfrwt>
<pdfrwt beam="2">  1       -3 0.80523872E-02 0.20276799E+02</pdfrwt>
<totfact> 0.15539250E+06</totfact>
</mgrwt>
</event>
<event>
 5    1  0.4133473E-007  0.2000021E+02  0.7818608E-02  0.1745324E+00
         -3   -1    0    0    0  501 -0.00000000000E+00  0.00000000000E+00  0.12677198315E+01  0.12711264969E+01  0.93000000000E-01 0.  1.
          3   -1    0    0  501    0  0.00000000000E+00 -0.00000000000E+00 -0.78774148971E+02  0.78774203868E+02  0.93000000000E-01 0. -1.
       1023    2    1    2    0    0  0.00000000000E+00  0.00000000000E+00 -0.77506429139E+02  0.80045330365E+02  0.20000208883E+02 0.  0.
        -11    1    3    3    0    0 -0.61453237628E+01 -0.78889516047E+01 -0.38909609156E+02  0.40174099200E+02  0.51100000000E-03 0. -1.
         11    1    3    3    0    0  0.61453237628E+01  0.78889516047E+01 -0.38596819983E+02  0.39871231165E+02  0.51100000000E-03 0.  1.
<mgrwt>
<rscale>  0 0.20000209E+02</rscale>
<asrwt>0</asrwt>
<pdfrwt beam="2">  1        3 0.12119362E-01 0.20000209E+02</pdfrwt>
<pdfrwt beam="1">  1       -3 0.19530016E-03 0.20000209E+02</pdfrwt>
<totfact> 0.14909318E+06</totfact>
</mgrwt>
</event>
<event>
 5    1  0.4364658E-007  0.2000172E+02  0.7818608E-02  0.1745294E+00
         -3   -1    0    0    0  501 -0.00000000000E+00  0.00000000000E+00  0.22602494426E+02  0.22602685754E+02  0.93000000000E-01 0.  1.
          3   -1    0    0  501    0  0.00000000000E+00 -0.00000000000E+00 -0.44243516995E+01  0.44253290229E+01  0.93000000000E-01 0. -1.
       1023    2    1    2    0    0  0.00000000000E+00  0.00000000000E+00  0.18178142727E+02  0.27028014777E+02  0.20001717671E+02 0.  0.
        -11    1    3    3    0    0  0.99914760816E+01  0.41862238478E+00  0.89389741427E+01  0.13413056996E+02  0.51100000000E-03 0. -1.
         11    1    3    3    0    0 -0.99914760816E+01 -0.41862238478E+00  0.92391685839E+01  0.13614957781E+02  0.51100000000E-03 0.  1.
<mgrwt>
<rscale>  0 0.20001718E+02</rscale>
<asrwt>0</asrwt>
<pdfrwt beam="2">  1        3 0.68075938E-03 0.20001718E+02</pdfrwt>
<pdfrwt beam="1">  1       -3 0.34773968E-02 0.20001718E+02</pdfrwt>
<totfact> 0.17440967E+06</totfact>
</mgrwt>
</event>
<event>
 4    1  0.4133473E-007  0.2002370E+02  0.7818608E-02  0.1744857E+00
         -3   -1    0    0    0  501 -0.00000000000E+00  0.00000000000E+00  0.17244148296E+02  0.17244399075E+02  0.93000000000E-01 0. -1.
          3   -1    0    0  501    0  0.00000000000E+00 -0.00000000000E+00 -0.58121568681E+01  0.58129008644E+01  0.93000000000E-01 0.  1.
        -11    1    1    2    0    0 -0.78155600785E+01 -0.62396064810E+01  0.62579286195E+01  0.11797344585E+02  0.51100000000E-03 0.  1.
         11    1    1    2    0    0  0.78155600785E+01  0.62396064810E+01  0.51740628080E+01  0.11259955354E+02  0.51100000000E-03 0. -1.
<mgrwt>
<rscale>  0 0.20023702E+02</rscale>
<asrwt>0</asrwt>
<pdfrwt beam="2">  1        3 0.89425451E-03 0.20023702E+02</pdfrwt>
<pdfrwt beam="1">  1       -3 0.26530224E-02 0.20023702E+02</pdfrwt>
<totfact> 0.17643977E+06</totfact>
</mgrwt>
</event>
<event>
 5    1  0.4231994E-007  0.2000093E+02  0.7818608E-02  0.1745309E+00
         -3   -1    0    0    0  501 -0.00000000000E+00  0.00000000000E+00  0.17993779528E+01  0.18017796805E+01  0.93000000000E-01 0.  1.
          3   -1    0    0  501    0  0.00000000000E+00 -0.00000000000E+00 -0.55540446968E+02  0.55540524830E+02  0.93000000000E-01 0. -1.
       1023    2    1    2    0    0  0.00000000000E+00  0.00000000000E+00 -0.53741069016E+02  0.57342304511E+02  0.20000934670E+02 0.  0.
        -11    1    3    3    0    0  0.94331077889E+01  0.33193986882E+01 -0.27117435559E+02  0.28902547323E+02  0.51100000000E-03 0.  1.
         11    1    3    3    0    0 -0.94331077889E+01 -0.33193986882E+01 -0.26623633456E+02  0.28439757187E+02  0.51100000000E-03 0. -1.
<mgrwt>
<rscale>  0 0.20000935E+02</rscale>
<asrwt>0</asrwt>
<pdfrwt beam="2">  1        3 0.85448736E-02 0.20000935E+02</pdfrwt>
<pdfrwt beam="1">  1       -3 0.27701816E-03 0.20000935E+02</pdfrwt>
<totfact> 0.15861698E+06</totfact>
</mgrwt>
</event>
<event>
 5    1  0.4133473E-007  0.2000050E+02  0.7818608E-02  0.1745318E+00
         -3   -1    0    0    0  501 -0.00000000000E+00  0.00000000000E+00  0.10063411429E+01  0.10106292574E+01  0.93000000000E-01 0. -1.
          3   -1    0    0  501    0  0.00000000000E+00 -0.00000000000E+00 -0.99159291357E+02  0.99159334969E+02  0.93000000000E-01 0.  1.
       1023    2    1    2    0    0  0.00000000000E+00  0.00000000000E+00 -0.98152950215E+02  0.10016996423E+03  0.20000502427E+02 0.  0.
        -11    1    3    3    0    0 -0.78220346119E+01 -0.62306305876E+01 -0.49044373513E+02  0.50053526914E+02  0.51100000000E-03 0.  1.
         11    1    3    3    0    0  0.78220346119E+01  0.62306305876E+01 -0.49108576702E+02  0.50116437313E+02  0.51100000000E-03 0. -1.
<mgrwt>
<rscale>  0 0.20000502E+02</rscale>
<asrwt>0</asrwt>
<pdfrwt beam="2">  1        3 0.15255601E-01 0.20000502E+02</pdfrwt>
<pdfrwt beam="1">  1       -3 0.15515500E-03 0.20000502E+02</pdfrwt>
<totfact> 0.14171383E+06</totfact>
</mgrwt>
</event>
<event>
 5    1  0.4133473E-007  0.2000024E+02  0.7818608E-02  0.1745323E+00
         -3   -1    0    0    0  501 -0.00000000000E+00  0.00000000000E+00  0.87124517380E+02  0.87124567016E+02  0.93000000000E-01 0.  1.
          3   -1    0    0  501    0  0.00000000000E+00 -0.00000000000E+00 -0.11458757735E+01  0.11496435484E+01  0.93000000000E-01 0. -1.
       1023    2    1    2    0    0  0.00000000000E+00  0.00000000000E+00  0.85978641606E+02  0.88274210564E+02  0.20000235955E+02 0.  0.
        -11    1    3    3    0    0  0.72865453777E+01  0.68488468800E+01  0.42796318597E+02  0.43949122094E+02  0.51100000000E-03 0.  1.
         11    1    3    3    0    0 -0.72865453777E+01 -0.68488468800E+01  0.43182323010E+02  0.44325088470E+02  0.51100000000E-03 0. -1.
<mgrwt>
<rscale>  0 0.20000236E+02</rscale>
<asrwt>0</asrwt>
<pdfrwt beam="2">  1        3 0.17658222E-03 0.20000236E+02</pdfrwt>
<pdfrwt beam="1">  1       -3 0.13404066E-01 0.20000236E+02</pdfrwt>
<totfact> 0.14600224E+06</totfact>
</mgrwt>
</event>
<event>
 5    1  0.4133473E-007  0.2000027E+02  0.7818608E-02  0.1745323E+00
          3   -1    0    0  501    0  0.00000000000E+00  0.00000000000E+00  0.11739854236E+03  0.11739857920E+03  0.93000000000E-01 0.  1.
         -3   -1    0    0    0  501 -0.00000000000E+00 -0.00000000000E+00 -0.84924673438E+00  0.85432371842E+00  0.93000000000E-01 0. -1.
       1023    2    1    2    0    0  0.00000000000E+00  0.00000000000E+00  0.11654929563E+03  0.11825290292E+03  0.20000268420E+02 0.  0.
        -11    1    3    3    0    0  0.35679986028E+01 -0.93418876071E+01  0.58069330550E+02  0.58924092093E+02  0.51100000000E-03 0.  1.
         11    1    3    3    0    0 -0.35679986028E+01  0.93418876071E+01  0.58479965078E+02  0.59328810825E+02  0.51100000000E-03 0. -1.
<mgrwt>
<rscale>  0 0.20000268E+02</rscale>
<asrwt>0</asrwt>
<pdfrwt beam="1">  1        3 0.18061710E-01 0.20000268E+02</pdfrwt>
<pdfrwt beam="2">  1       -3 0.13104670E-03 0.20000268E+02</pdfrwt>
<totfact> 0.13575387E+06</totfact>
</mgrwt>
</event>
<event>
 5    1  0.4320397E-007  0.2000120E+02  0.7818608E-02  0.1745304E+00
          3   -1    0    0  501    0  0.00000000000E+00  0.00000000000E+00  0.19166791418E+02  0.19167017041E+02  0.93000000000E-01 0.  1.
         -3   -1    0    0    0  501 -0.00000000000E+00 -0.00000000000E+00 -0.52173118545E+01  0.52181406638E+01  0.93000000000E-01 0. -1.
       1023    2    1    2    0    0  0.00000000000E+00  0.00000000000E+00  0.13949479563E+02  0.24385157705E+02  0.20001198369E+02 0.  0.
        -11    1    3    3    0    0  0.98740718324E+01 -0.15830611438E+01  0.70878460708E+01  0.12257281074E+02  0.51100000000E-03 0. -1.
         11    1    3    3    0    0 -0.98740718324E+01  0.15830611438E+01  0.68616334925E+01  0.12127876631E+02  0.51100000000E-03 0.  1.
<mgrwt>
<rscale>  0 0.20001198E+02</rscale>
<asrwt>0</asrwt>
<pdfrwt beam="1">  1        3 0.29488182E-02 0.20001198E+02</pdfrwt>
<pdfrwt beam="2">  1       -3 0.80274447E-03 0.20001198E+02</pdfrwt>
<totfact> 0.17602529E+06</totfact>
</mgrwt>
</event>
<event>
 5    1  0.4134924E-007  0.2000078E+02  0.7818608E-02  0.1745313E+00
          3   -1    0    0  501    0  0.00000000000E+00  0.00000000000E+00  0.41951961563E+01  0.41962268516E+01  0.93000000000E-01 0. -1.
         -3   -1    0    0    0  501 -0.00000000000E+00 -0.00000000000E+00 -0.23834597517E+02  0.23834778954E+02  0.93000000000E-01 0.  1.
       1023    2    1    2    0    0  0.00000000000E+00  0.00000000000E+00 -0.19639401361E+02  0.28031005806E+02  0.20000780002E+02 0.  0.
        -11    1    3    3    0    0 -0.99931006655E+01  0.38102059144E+00 -0.98529343396E+01  0.14038787446E+02  0.51100000000E-03 0. -1.
         11    1    3    3    0    0  0.99931006655E+01 -0.38102059144E+00 -0.97864670211E+01  0.13992218359E+02  0.51100000000E-03 0.  1.
<mgrwt>
<rscale>  0 0.20000780E+02</rscale>
<asrwt>0</asrwt>
<pdfrwt beam="1">  1        3 0.64550805E-03 0.20000780E+02</pdfrwt>
<pdfrwt beam="2">  1       -3 0.36669543E-02 0.20000780E+02</pdfrwt>
<totfact> 0.17382655E+06</totfact>
</mgrwt>
</event>
<event>
 5    1  0.4133473E-007  0.2000021E+02  0.7818608E-02  0.1745324E+00
          3   -1    0    0  501    0  0.00000000000E+00  0.00000000000E+00  0.20436712278E+02  0.20436923881E+02  0.93000000000E-01 0. -1.
         -3   -1    0    0    0  501 -0.00000000000E+00 -0.00000000000E+00 -0.48925794123E+01  0.48934632221E+01  0.93000000000E-01 0.  1.
       1023    2    1    2    0    0  0.00000000000E+00  0.00000000000E+00  0.15544132866E+02  0.25330387103E+02  0.20000211106E+02 0.  0.
        -11    1    3    3    0    0  0.40239651536E+01  0.91547252217E+01  0.77357690911E+01  0.12642919486E+02  0.51100000000E-03 0.  1.
         11    1    3    3    0    0 -0.40239651536E+01 -0.91547252217E+01  0.78083637746E+01  0.12687467617E+02  0.51100000000E-03 0. -1.
<mgrwt>
<rscale>  0 0.20000211E+02</rscale>
<asrwt>0</asrwt>
<pdfrwt beam="1">  1        3 0.31441938E-02 0.20000211E+02</pdfrwt>
<pdfrwt beam="2">  1       -3 0.75278880E-03 0.20000211E+02</pdfrwt>
<totfact> 0.17545818E+06</totfact>
</mgrwt>
</event>
<event>
 5    1  0.4303228E-007  0.2000184E+02  0.7818608E-02  0.1745292E+00
         -3   -1    0    0    0  501 -0.00000000000E+00  0.00000000000E+00  0.12489012675E+02  0.12489358935E+02  0.93000000000E-01 0.  1.
          3   -1    0    0  501    0  0.00000000000E+00 -0.00000000000E+00 -0.80077824878E+01  0.80083225067E+01  0.93000000000E-01 0. -1.
       1023    2    1    2    0    0  0.00000000000E+00  0.00000000000E+00  0.44812301872E+01  0.20497681441E+02  0.20001837928E+02 0.  0.
        -11    1    3    3    0    0 -0.57014162504E+01  0.82162402891E+01  0.23174955845E+01  0.10265648435E+02  0.51100000000E-03 0.  1.
         11    1    3    3    0    0  0.57014162504E+01 -0.82162402891E+01  0.21637346028E+01  0.10232033006E+02  0.51100000000E-03 0. -1.
<mgrwt>
<rscale>  0 0.20001838E+02</rscale>
<asrwt>0</asrwt>
<pdfrwt beam="2">  1        3 0.12320347E-02 0.20001838E+02</pdfrwt>
<pdfrwt beam="1">  1       -3 0.19214547E-02 0.20001838E+02</pdfrwt>
<totfact> 0.17849737E+06</totfact>
</mgrwt>
</event>
<event>
 4    1  0.4133473E-007  0.2001831E+02  0.7818608E-02  0.1744964E+00
          3   -1    0    0  501    0  0.00000000000E+00  0.00000000000E+00  0.43864077935E+01  0.43873935692E+01  0.93000000000E-01 0. -1.
         -3   -1    0    0    0  501 -0.00000000000E+00 -0.00000000000E+00 -0.22835820257E+02  0.22836009629E+02  0.93000000000E-01 0.  1.
        -11    1    1    2    0    0  0.59929416158E+01  0.80164540518E+01 -0.93141964598E+01  0.13672349495E+02  0.51100000000E-03 0. -1.
         11    1    1    2    0    0 -0.59929416158E+01 -0.80164540518E+01 -0.91352160034E+01  0.13551053703E+02  0.51100000000E-03 0.  1.
<mgrwt>
<rscale>  0 0.20018313E+02</rscale>
<asrwt>0</asrwt>
<pdfrwt beam="1">  1        3 0.67492238E-03 0.20018313E+02</pdfrwt>
<pdfrwt beam="2">  1       -3 0.35132934E-02 0.20018313E+02</pdfrwt>
<totfact> 0.17398128E+06</totfact>
</mgrwt>
</event>
<event>
 5    1  0.4133473E-007  0.2000022E+02  0.7818608E-02  0.1745324E+00
         -3   -1    0    0    0  501 -0.00000000000E+00  0.00000000000E+00  0.24002787723E+01  0.24020797624E+01  0.93000000000E-01 0. -1.
          3   -1    0    0  501    0  0.00000000000E+00 -0.00000000000E+00 -0.41645278086E+02  0.41645381927E+02  0.93000000000E-01 0.  1.
       1023    2    1    2    0    0  0.00000000000E+00  0.00000000000E+00 -0.39244999313E+02  0.44047461689E+02  0.20000222753E+02 0.  0.
        -11    1    3    3    0    0  0.94229140674E+01 -0.33481548829E+01 -0.19561124211E+02  0.21969047118E+02  0.51100000000E-03 0.  1.
         11    1    3    3    0    0 -0.94229140674E+01  0.33481548829E+01 -0.19683875103E+02  0.22078414571E+02  0.51100000000E-03 0. -1.
<mgrwt>
<rscale>  0 0.20000223E+02</rscale>
<asrwt>0</asrwt>
<pdfrwt beam="2">  1        3 0.64071119E-02 0.20000223E+02</pdfrwt>
<pdfrwt beam="1">  1       -3 0.36942021E-03 0.20000223E+02</pdfrwt>
<totfact> 0.16501804E+06</totfact>
</mgrwt>
</event>
<event>
 5    1  0.4133473E-007  0.2000427E+02  0.7818608E-02  0.1745243E+00
          3   -1    0    0  501    0  0.00000000000E+00  0.00000000000E+00  0.86626416778E+02  0.86626466700E+02  0.93000000000E-01 0.  1.
         -3   -1    0    0    0  501 -0.00000000000E+00 -0.00000000000E+00 -0.11529529129E+01  0.11566976352E+01  0.93000000000E-01 0. -1.
       1023    2    1    2    0    0  0.00000000000E+00  0.00000000000E+00  0.85473463866E+02  0.87783164335E+02  0.20004272431E+02 0.  0.
        -11    1    3    3    0    0 -0.74652581448E+01  0.66567216450E+01  0.42620102635E+02  0.43778021553E+02  0.51100000000E-03 0.  1.
         11    1    3    3    0    0  0.74652581448E+01 -0.66567216450E+01  0.42853361231E+02  0.44005142782E+02  0.51100000000E-03 0. -1.
<mgrwt>
<rscale>  0 0.20004272E+02</rscale>
<asrwt>0</asrwt>
<pdfrwt beam="1">  1        3 0.13327442E-01 0.20004272E+02</pdfrwt>
<pdfrwt beam="2">  1       -3 0.17766914E-03 0.20004272E+02</pdfrwt>
<totfact> 0.14609190E+06</totfact>
</mgrwt>
</event>
<event>
 5    1  0.4133473E-007  0.2000249E+02  0.7818608E-02  0.1745278E+00
         -3   -1    0    0    0  501 -0.00000000000E+00  0.00000000000E+00  0.52770988435E+02  0.52771070384E+02  0.93000000000E-01 0.  1.
          3   -1    0    0  501    0  0.00000000000E+00 -0.00000000000E+00 -0.18942291877E+01  0.18965108003E+01  0.93000000000E-01 0. -1.
       1023    2    1    2    0    0  0.00000000000E+00  0.00000000000E+00  0.50876759247E+02  0.54667581184E+02  0.20002494868E+02 0.  0.
        -11    1    3    3    0    0 -0.72755089059E+01  0.68620046379E+01  0.25248783002E+02  0.27157341196E+02  0.51100000000E-03 0. -1.
         11    1    3    3    0    0  0.72755089059E+01 -0.68620046379E+01  0.25627976245E+02  0.27510239988E+02  0.51100000000E-03 0.  1.
<mgrwt>
<rscale>  0 0.20002495E+02</rscale>
<asrwt>0</asrwt>
<pdfrwt beam="2">  1        3 0.29160172E-03 0.20002495E+02</pdfrwt>
<pdfrwt beam="1">  1       -3 0.81187946E-02 0.20002495E+02</pdfrwt>
<totfact> 0.15984587E+06</totfact>
</mgrwt>
</event>
<event>
 5    1  0.4133473E-007  0.2000022E+02  0.7818608E-02  0.1745324E+00
          3   -1    0    0  501    0  0.00000000000E+00  0.00000000000E+00  0.18798184692E+01  0.18821175514E+01  0.93000000000E-01 0.  1.
         -3   -1    0    0    0  501 -0.00000000000E+00 -0.00000000000E+00 -0.53162956063E+02  0.53163037407E+02  0.93000000000E-01 0. -1.
       1023    2    1    2    0    0  0.00000000000E+00  0.00000000000E+00 -0.51283137594E+02  0.55045154958E+02  0.20000222073E+02 0.  0.
        -11    1    3    3    0    0 -0.82595776529E+01 -0.56373532638E+01 -0.25523330248E+02  0.27412419850E+02  0.51100000000E-03 0. -1.
         11    1    3    3    0    0  0.82595776529E+01  0.56373532638E+01 -0.25759807345E+02  0.27632735108E+02  0.51100000000E-03 0.  1.
<mgrwt>
<rscale>  0 0.20000222E+02</rscale>
<asrwt>0</asrwt>
<pdfrwt beam="1">  1        3 0.28938599E-03 0.20000222E+02</pdfrwt>
<pdfrwt beam="2">  1       -3 0.81790983E-02 0.20000222E+02</pdfrwt>
<totfact> 0.15970988E+06</totfact>
</mgrwt>
</event>
<event>
 5    1  0.4133473E-007  0.2000689E+02  0.7818608E-02  0.1745191E+00
         -3   -1    0    0    0  501 -0.00000000000E+00  0.00000000000E+00  0.17134492119E+02  0.17134744503E+02  0.93000000000E-01 0. -1.
          3   -1    0    0  501    0  0.00000000000E+00 -0.00000000000E+00 -0.58395373305E+01  0.58402778388E+01  0.93000000000E-01 0.  1.
       1023    2    1    2    0    0  0.00000000000E+00  0.00000000000E+00  0.11294954789E+02  0.22975022342E+02  0.20006890011E+02 0.  0.
        -11    1    3    3    0    0 -0.99333848749E+01  0.11818398335E+01  0.56410573476E+01  0.11484354955E+02  0.51100000000E-03 0.  1.
         11    1    3    3    0    0  0.99333848749E+01 -0.11818398335E+01  0.56538974413E+01  0.11490667387E+02  0.51100000000E-03 0. -1.
<mgrwt>
<rscale>  0 0.20006890E+02</rscale>
<asrwt>0</asrwt>
<pdfrwt beam="2">  1        3 0.89846673E-03 0.20006890E+02</pdfrwt>
<pdfrwt beam="1">  1       -3 0.26361521E-02 0.20006890E+02</pdfrwt>
<totfact> 0.17681123E+06</totfact>
</mgrwt>
</event>
<event>
 5    1  0.4201632E-007  0.2000125E+02  0.7818608E-02  0.1745303E+00
         -3   -1    0    0    0  501 -0.00000000000E+00  0.00000000000E+00  0.29566104747E+02  0.29566251012E+02  0.93000000000E-01 0.  1.
          3   -1    0    0  501    0  0.00000000000E+00 -0.00000000000E+00 -0.33818791498E+01  0.33831576351E+01  0.93000000000E-01 0. -1.
       1023    2    1    2    0    0  0.00000000000E+00  0.00000000000E+00  0.26184225597E+02  0.32949408647E+02  0.20001246463E+02 0.  0.
        -11    1    3    3    0    0  0.68762061716E+01 -0.72614092826E+01  0.13015043541E+02  0.16413458950E+02  0.51100000000E-03 0.  1.
         11    1    3    3    0    0 -0.68762061716E+01  0.72614092826E+01  0.13169182056E+02  0.16535949697E+02  0.51100000000E-03 0. -1.
<mgrwt>
<rscale>  0 0.20001246E+02</rscale>
<asrwt>0</asrwt>
<pdfrwt beam="2">  1        3 0.52039868E-03 0.20001246E+02</pdfrwt>
<pdfrwt beam="1">  1       -3 0.45487413E-02 0.20001246E+02</pdfrwt>
<totfact> 0.17096448E+06</totfact>
</mgrwt>
</event>
<event>
 5    1  0.4133473E-007  0.2000042E+02  0.7818608E-02  0.1745320E+00
          3   -1    0    0  501    0  0.00000000000E+00  0.00000000000E+00  0.25418845899E+02  0.25419016028E+02  0.93000000000E-01 0. -1.
         -3   -1    0    0    0  501 -0.00000000000E+00 -0.00000000000E+00 -0.39335228129E+01  0.39346220555E+01  0.93000000000E-01 0.  1.
       1023    2    1    2    0    0  0.00000000000E+00  0.00000000000E+00  0.21485323086E+02  0.29353638084E+02  0.20000424011E+02 0.  0.
        -11    1    3    3    0    0 -0.68260614444E+01  0.73080934145E+01  0.10786585738E+02  0.14708969248E+02  0.51100000000E-03 0.  1.
         11    1    3    3    0    0  0.68260614444E+01 -0.73080934145E+01  0.10698737348E+02  0.14644668835E+02  0.51100000000E-03 0. -1.
<mgrwt>
<rscale>  0 0.20000424E+02</rscale>
<asrwt>0</asrwt>
<pdfrwt beam="1">  1        3 0.39106892E-02 0.20000424E+02</pdfrwt>
<pdfrwt beam="2">  1       -3 0.60525502E-03 0.20000424E+02</pdfrwt>
<totfact> 0.17303452E+06</totfact>
</mgrwt>
</event>
<event>
 5    1  0.4133473E-007  0.2000221E+02  0.7818608E-02  0.1745284E+00
          3   -1    0    0  501    0  0.00000000000E+00  0.00000000000E+00  0.24511173740E+01  0.24528810369E+01  0.93000000000E-01 0. -1.
         -3   -1    0    0    0  501 -0.00000000000E+00 -0.00000000000E+00 -0.40790234242E+02  0.40790340260E+02  0.93000000000E-01 0.  1.
       1023    2    1    2    0    0  0.00000000000E+00  0.00000000000E+00 -0.38339116868E+02  0.43243221297E+02  0.20002207526E+02 0.  0.
        -11    1    3    3    0    0 -0.12553447986E+01  0.99215942908E+01 -0.18974357287E+02  0.21448546770E+02  0.51100000000E-03 0. -1.
         11    1    3    3    0    0  0.12553447986E+01 -0.99215942908E+01 -0.19364759581E+02  0.21794674527E+02  0.51100000000E-03 0.  1.
<mgrwt>
<rscale>  0 0.20002208E+02</rscale>
<asrwt>0</asrwt>
<pdfrwt beam="1">  1        3 0.37723883E-03 0.20002208E+02</pdfrwt>
<pdfrwt beam="2">  1       -3 0.62755640E-02 0.20002208E+02</pdfrwt>
<totfact> 0.16541720E+06</totfact>
</mgrwt>
</event>
<event>
 5    1  0.4422975E-007  0.2000104E+02  0.7818608E-02  0.1745307E+00
         -3   -1    0    0    0  501 -0.00000000000E+00  0.00000000000E+00  0.11236748958E+02  0.11237133805E+02  0.93000000000E-01 0. -1.
          3   -1    0    0  501    0  0.00000000000E+00 -0.00000000000E+00 -0.88995174060E+01  0.89000033179E+01  0.93000000000E-01 0.  1.
       1023    2    1    2    0    0  0.00000000000E+00  0.00000000000E+00  0.23372315521E+01  0.20137137123E+02  0.20001040977E+02 0.  0.
        -11    1    3    3    0    0 -0.64015720116E+01  0.76830655087E+01  0.11403184547E+01  0.10065284212E+02  0.51100000000E-03 0. -1.
         11    1    3    3    0    0  0.64015720116E+01 -0.76830655087E+01  0.11969130974E+01  0.10071852911E+02  0.51100000000E-03 0.  1.
<mgrwt>
<rscale>  0 0.20001041E+02</rscale>
<asrwt>0</asrwt>
<pdfrwt beam="2">  1        3 0.13692235E-02 0.20001041E+02</pdfrwt>
<pdfrwt beam="1">  1       -3 0.17287976E-02 0.20001041E+02</pdfrwt>
<totfact> 0.17874785E+06</totfact>
</mgrwt>
</event>
<event>
 5    1  0.4323969E-007  0.2000059E+02  0.7818608E-02  0.1745316E+00
         -3   -1    0    0    0  501 -0.00000000000E+00  0.00000000000E+00  0.78140284699E+01  0.78145818780E+01  0.93000000000E-01 0. -1.
          3   -1    0    0  501    0  0.00000000000E+00 -0.00000000000E+00 -0.12797078392E+02  0.12797416316E+02  0.93000000000E-01 0.  1.
       1023    2    1    2    0    0  0.00000000000E+00  0.00000000000E+00 -0.49830499219E+01  0.20611998194E+02  0.20000592067E+02 0.  0.
        -11    1    3    3    0    0  0.44014400189E+01  0.89792854822E+01 -0.24138656499E+01  0.10287224584E+02  0.51100000000E-03 0.  1.
         11    1    3    3    0    0 -0.44014400189E+01 -0.89792854822E+01 -0.25691842720E+01  0.10324773610E+02  0.51100000000E-03 0. -1.
<mgrwt>
<rscale>  0 0.20000592E+02</rscale>
<asrwt>0</asrwt>
<pdfrwt beam="2">  1        3 0.19688499E-02 0.20000592E+02</pdfrwt>
<pdfrwt beam="1">  1       -3 0.12022268E-02 0.20000592E+02</pdfrwt>
<totfact> 0.17844278E+06</totfact>
</mgrwt>
</event>
<event>
 5    1  0.4133473E-007  0.2000177E+02  0.7818608E-02  0.1745293E+00
         -3   -1    0    0    0  501 -0.00000000000E+00  0.00000000000E+00  0.11608341988E+01  0.11645535785E+01  0.93000000000E-01 0. -1.
          3   -1    0    0  501    0  0.00000000000E+00 -0.00000000000E+00 -0.86018677969E+02  0.86018728243E+02  0.93000000000E-01 0.  1.
       1023    2    1    2    0    0  0.00000000000E+00  0.00000000000E+00 -0.84857843770E+02  0.87183281822E+02  0.20001774417E+02 0.  0.
        -11    1    3    3    0    0 -0.66546711097E+01  0.74653309544E+01 -0.42237390342E+02  0.43405218085E+02  0.51100000000E-03 0. -1.
         11    1    3    3    0    0  0.66546711097E+01 -0.74653309544E+01 -0.42620453428E+02  0.43778063737E+02  0.51100000000E-03 0.  1.
<mgrwt>
<rscale>  0 0.20001774E+02</rscale>
<asrwt>0</asrwt>
<pdfrwt beam="2">  1        3 0.13233928E-01 0.20001774E+02</pdfrwt>
<pdfrwt beam="1">  1       -3 0.17887992E-03 0.20001774E+02</pdfrwt>
<totfact> 0.14635418E+06</totfact>
</mgrwt>
</event>
<event>
 5    1  0.4190846E-007  0.2000130E+02  0.7818608E-02  0.1745302E+00
          3   -1    0    0  501    0  0.00000000000E+00  0.00000000000E+00  0.35428953112E+01  0.35441157129E+01  0.93000000000E-01 0.  1.
         -3   -1    0    0    0  501 -0.00000000000E+00 -0.00000000000E+00 -0.28223001870E+02  0.28223155096E+02  0.93000000000E-01 0. -1.
       1023    2    1    2    0    0  0.00000000000E+00  0.00000000000E+00 -0.24680106559E+02  0.31767270809E+02  0.20001295830E+02 0.  0.
        -11    1    3    3    0    0 -0.89058116062E+01  0.45495748536E+01 -0.12386269844E+02  0.15919541219E+02  0.51100000000E-03 0. -1.
         11    1    3    3    0    0  0.89058116062E+01 -0.45495748536E+01 -0.12293836715E+02  0.15847729590E+02  0.51100000000E-03 0.  1.
<mgrwt>
<rscale>  0 0.20001296E+02</rscale>
<asrwt>0</asrwt>
<pdfrwt beam="1">  1        3 0.54516650E-03 0.20001296E+02</pdfrwt>
<pdfrwt beam="2">  1       -3 0.43421058E-02 0.20001296E+02</pdfrwt>
<totfact> 0.17163625E+06</totfact>
</mgrwt>
</event>
<event>
 5    1  0.4133473E-007  0.2000575E+02  0.7818608E-02  0.1745214E+00
         -3   -1    0    0    0  501 -0.00000000000E+00  0.00000000000E+00  0.18236768448E+02  0.18237005578E+02  0.93000000000E-01 0.  1.
          3   -1    0    0  501    0  0.00000000000E+00 -0.00000000000E+00 -0.54859123453E+01  0.54867005805E+01  0.93000000000E-01 0. -1.
       1023    2    1    2    0    0  0.00000000000E+00  0.00000000000E+00  0.12750856103E+02  0.23723706158E+02  0.20005746737E+02 0.  0.
        -11    1    3    3    0    0  0.54711257551E+01  0.83714300423E+01  0.61283355254E+01  0.11729047470E+02  0.51100000000E-03 0. -1.
         11    1    3    3    0    0 -0.54711257551E+01 -0.83714300423E+01  0.66225205777E+01  0.11994658688E+02  0.51100000000E-03 0.  1.
<mgrwt>
<rscale>  0 0.20005747E+02</rscale>
<asrwt>0</asrwt>
<pdfrwt beam="2">  1        3 0.84406539E-03 0.20005747E+02</pdfrwt>
<pdfrwt beam="1">  1       -3 0.28057355E-02 0.20005747E+02</pdfrwt>
<totfact> 0.17636263E+06</totfact>
</mgrwt>
</event>
<event>
 5    1  0.4133473E-007  0.2000059E+02  0.7818608E-02  0.1745316E+00
         -3   -1    0    0    0  501 -0.00000000000E+00  0.00000000000E+00  0.42777109086E+01  0.42787217270E+01  0.93000000000E-01 0. -1.
          3   -1    0    0  501    0  0.00000000000E+00 -0.00000000000E+00 -0.23374496122E+02  0.23374681131E+02  0.93000000000E-01 0.  1.
       1023    2    1    2    0    0  0.00000000000E+00  0.00000000000E+00 -0.19096785214E+02  0.27653402858E+02  0.20000587095E+02 0.  0.
        -11    1    3    3    0    0 -0.82254560360E+01  0.56873053540E+01 -0.96147239833E+01  0.13872508307E+02  0.51100000000E-03 0. -1.
         11    1    3    3    0    0  0.82254560360E+01 -0.56873053540E+01 -0.94820612305E+01  0.13780894551E+02  0.51100000000E-03 0.  1.
<mgrwt>
<rscale>  0 0.20000587E+02</rscale>
<asrwt>0</asrwt>
<pdfrwt beam="2">  1        3 0.35961682E-02 0.20000587E+02</pdfrwt>
<pdfrwt beam="1">  1       -3 0.65820137E-03 0.20000587E+02</pdfrwt>
<totfact> 0.17404088E+06</totfact>
</mgrwt>
</event>
<event>
 5    1  0.4133473E-007  0.2000831E+02  0.7818608E-02  0.1745163E+00
         -3   -1    0    0    0  501 -0.00000000000E+00  0.00000000000E+00  0.12711762403E+01  0.12745736675E+01  0.93000000000E-01 0.  1.
          3   -1    0    0  501    0  0.00000000000E+00 -0.00000000000E+00 -0.78624207308E+02  0.78624262311E+02  0.93000000000E-01 0. -1.
       1023    2    1    2    0    0  0.00000000000E+00  0.00000000000E+00 -0.77353031068E+02  0.79898835978E+02  0.20008312653E+02 0.  0.
        -11    1    3    3    0    0 -0.33767611835E+01 -0.94169100362E+01 -0.38479552212E+02  0.39758730481E+02  0.51100000000E-03 0. -1.
         11    1    3    3    0    0  0.33767611835E+01  0.94169100362E+01 -0.38873478856E+02  0.40140105498E+02  0.51100000000E-03 0.  1.
<mgrwt>
<rscale>  0 0.20008313E+02</rscale>
<asrwt>0</asrwt>
<pdfrwt beam="2">  1        3 0.12096294E-01 0.20008313E+02</pdfrwt>
<pdfrwt beam="1">  1       -3 0.19583121E-03 0.20008313E+02</pdfrwt>
<totfact> 0.14902043E+06</totfact>
</mgrwt>
</event>
<event>
 5    1  0.4326649E-007  0.2000148E+02  0.7818608E-02  0.1745299E+00
          3   -1    0    0  501    0  0.00000000000E+00  0.00000000000E+00  0.98049069113E+01  0.98053479560E+01  0.93000000000E-01 0. -1.
         -3   -1    0    0    0  501 -0.00000000000E+00 -0.00000000000E+00 -0.10199600996E+02  0.10200024975E+02  0.93000000000E-01 0.  1.
       1023    2    1    2    0    0  0.00000000000E+00  0.00000000000E+00 -0.39469408511E+00  0.20005372931E+02  0.20001479012E+02 0.  0.
        -11    1    3    3    0    0  0.99768985820E+01 -0.69013277082E+00 -0.19598633443E+00  0.10002659619E+02  0.51100000000E-03 0. -1.
         11    1    3    3    0    0 -0.99768985820E+01  0.69013277082E+00 -0.19870775068E+00  0.10002713311E+02  0.51100000000E-03 0.  1.
<mgrwt>
<rscale>  0 0.20001479E+02</rscale>
<asrwt>0</asrwt>
<pdfrwt beam="1">  1        3 0.15085138E-02 0.20001479E+02</pdfrwt>
<pdfrwt beam="2">  1       -3 0.15692359E-02 0.20001479E+02</pdfrwt>
<totfact> 0.17882446E+06</totfact>
</mgrwt>
</event>
<event>
 5    1  0.4204026E-007  0.2000130E+02  0.7818608E-02  0.1745302E+00
         -3   -1    0    0    0  501 -0.00000000000E+00  0.00000000000E+00  0.29345541879E+01  0.29360274661E+01  0.93000000000E-01 0.  1.
          3   -1    0    0  501    0  0.00000000000E+00 -0.00000000000E+00 -0.34071071759E+02  0.34071198684E+02  0.93000000000E-01 0. -1.
       1023    2    1    2    0    0  0.00000000000E+00  0.00000000000E+00 -0.31136517571E+02  0.37007226150E+02  0.20001301480E+02 0.  0.
        -11    1    3    3    0    0  0.99621081171E+01  0.87640671307E+00 -0.15500830242E+02  0.18446881181E+02  0.51100000000E-03 0. -1.
         11    1    3    3    0    0 -0.99621081171E+01 -0.87640671307E+00 -0.15635687329E+02  0.18560344969E+02  0.51100000000E-03 0.  1.
<mgrwt>
<rscale>  0 0.20001301E+02</rscale>
<asrwt>0</asrwt>
<pdfrwt beam="2">  1        3 0.52418261E-02 0.20001301E+02</pdfrwt>
<pdfrwt beam="1">  1       -3 0.45159299E-03 0.20001301E+02</pdfrwt>
<totfact> 0.16869657E+06</totfact>
</mgrwt>
</event>
<event>
 5    1  0.4133473E-007  0.2000070E+02  0.7818608E-02  0.1745314E+00
          3   -1    0    0  501    0  0.00000000000E+00  0.00000000000E+00  0.80909969192E+02  0.80910022640E+02  0.93000000000E-01 0.  1.
         -3   -1    0    0    0  501 -0.00000000000E+00 -0.00000000000E+00 -0.12342251435E+01  0.12377240019E+01  0.93000000000E-01 0. -1.
       1023    2    1    2    0    0  0.00000000000E+00  0.00000000000E+00  0.79675744048E+02  0.82147746642E+02  0.20000702205E+02 0.  0.
        -11    1    3    3    0    0 -0.80451192660E+01 -0.59394560037E+01  0.39521313310E+02  0.40766840540E+02  0.51100000000E-03 0. -1.
         11    1    3    3    0    0  0.80451192660E+01  0.59394560037E+01  0.40154430738E+02  0.41380906101E+02  0.51100000000E-03 0.  1.
<mgrwt>
<rscale>  0 0.20000702E+02</rscale>
<asrwt>0</asrwt>
<pdfrwt beam="1">  1        3 0.12447957E-01 0.20000702E+02</pdfrwt>
<pdfrwt beam="2">  1       -3 0.19015411E-03 0.20000702E+02</pdfrwt>
<totfact> 0.14827382E+06</totfact>
</mgrwt>
</event>
<event>
 4    1  0.4133473E-007  0.2006642E+02  0.7818608E-02  0.1744010E+00
          3   -1    0    0  501    0  0.00000000000E+00  0.00000000000E+00  0.37365728115E+02  0.37365843849E+02  0.93000000000E-01 0.  1.
         -3   -1    0    0    0  501 -0.00000000000E+00 -0.00000000000E+00 -0.26931327018E+01  0.26947379742E+01  0.93000000000E-01 0. -1.
        -11    1    1    2    0    0 -0.78235038984E+01  0.62597394957E+01  0.16291695029E+02  0.19126183074E+02  0.51100000000E-03 0.  1.
         11    1    1    2    0    0  0.78235038984E+01 -0.62597394957E+01  0.18380900385E+02  0.20934398750E+02  0.51100000000E-03 0. -1.
<mgrwt>
<rscale>  0 0.20066423E+02</rscale>
<asrwt>0</asrwt>
<pdfrwt beam="1">  1        3 0.57487059E-02 0.20066423E+02</pdfrwt>
<pdfrwt beam="2">  1       -3 0.41446050E-03 0.20066423E+02</pdfrwt>
<totfact> 0.16589941E+06</totfact>
</mgrwt>
</event>
<event>
 5    1  0.4133473E-007  0.2000288E+02  0.7818608E-02  0.1745271E+00
          3   -1    0    0  501    0  0.00000000000E+00  0.00000000000E+00  0.74183087549E+01  0.74188916816E+01  0.93000000000E-01 0.  1.
         -3   -1    0    0    0  501 -0.00000000000E+00 -0.00000000000E+00 -0.13482777629E+02  0.13483098368E+02  0.93000000000E-01 0. -1.
       1023    2    1    2    0    0  0.00000000000E+00  0.00000000000E+00 -0.60644688743E+01  0.20901990050E+02  0.20002884924E+02 0.  0.
        -11    1    3    3    0    0  0.32465786057E+01 -0.94596165500E+01 -0.29642472973E+01  0.10431269348E+02  0.51100000000E-03 0. -1.
         11    1    3    3    0    0 -0.32465786057E+01  0.94596165500E+01 -0.31002215770E+01  0.10470720701E+02  0.51100000000E-03 0.  1.
<mgrwt>
<rscale>  0 0.20002885E+02</rscale>
<asrwt>0</asrwt>
<pdfrwt beam="1">  1        3 0.11413478E-02 0.20002885E+02</pdfrwt>
<pdfrwt beam="2">  1       -3 0.20743430E-02 0.20002885E+02</pdfrwt>
<totfact> 0.17821460E+06</totfact>
</mgrwt>
</event>
<event>
 5    1  0.4286573E-007  0.2000134E+02  0.7818608E-02  0.1745301E+00
          3   -1    0    0  501    0  0.00000000000E+00  0.00000000000E+00  0.39049434925E+01  0.39060507779E+01  0.93000000000E-01 0.  1.
         -3   -1    0    0    0  501 -0.00000000000E+00 -0.00000000000E+00 -0.25607178142E+02  0.25607347019E+02  0.93000000000E-01 0. -1.
       1023    2    1    2    0    0  0.00000000000E+00  0.00000000000E+00 -0.21702234649E+02  0.29513397797E+02  0.20001341475E+02 0.  0.
        -11    1    3    3    0    0  0.90126007119E+01 -0.43339660750E+01 -0.10767889326E+02  0.14695498437E+02  0.51100000000E-03 0. -1.
         11    1    3    3    0    0 -0.90126007119E+01  0.43339660750E+01 -0.10934345323E+02  0.14817899360E+02  0.51100000000E-03 0.  1.
<mgrwt>
<rscale>  0 0.20001341E+02</rscale>
<asrwt>0</asrwt>
<pdfrwt beam="1">  1        3 0.60085872E-03 0.20001341E+02</pdfrwt>
<pdfrwt beam="2">  1       -3 0.39396639E-02 0.20001341E+02</pdfrwt>
<totfact> 0.17294007E+06</totfact>
</mgrwt>
</event>
<event>
 5    1  0.4176552E-007  0.2000211E+02  0.7818608E-02  0.1745286E+00
         -3   -1    0    0    0  501 -0.00000000000E+00  0.00000000000E+00  0.10991595151E+02  0.10991988581E+02  0.93000000000E-01 0. -1.
          3   -1    0    0  501    0  0.00000000000E+00 -0.00000000000E+00 -0.90989884295E+01  0.90994636897E+01  0.93000000000E-01 0.  1.
       1023    2    1    2    0    0  0.00000000000E+00  0.00000000000E+00  0.18926067219E+01  0.20091452271E+02  0.20002112242E+02 0.  0.
        -11    1    3    3    0    0 -0.89323820200E+01 -0.44981047642E+01  0.91919657548E+00  0.10043172687E+02  0.51100000000E-03 0. -1.
         11    1    3    3    0    0  0.89323820200E+01  0.44981047642E+01  0.97341014642E+00  0.10048279584E+02  0.51100000000E-03 0.  1.
<mgrwt>
<rscale>  0 0.20002112E+02</rscale>
<asrwt>0</asrwt>
<pdfrwt beam="2">  1        3 0.13999112E-02 0.20002112E+02</pdfrwt>
<pdfrwt beam="1">  1       -3 0.16910815E-02 0.20002112E+02</pdfrwt>
<totfact> 0.17875697E+06</totfact>
</mgrwt>
</event>
<event>
 5    1  0.4133473E-007  0.2000300E+02  0.7818608E-02  0.1745268E+00
          3   -1    0    0  501    0  0.00000000000E+00  0.00000000000E+00  0.21181138625E+01  0.21201545544E+01  0.93000000000E-01 0. -1.
         -3   -1    0    0    0  501 -0.00000000000E+00 -0.00000000000E+00 -0.47201170351E+02  0.47201261970E+02  0.93000000000E-01 0.  1.
       1023    2    1    2    0    0  0.00000000000E+00  0.00000000000E+00 -0.45083056489E+02  0.49321416524E+02  0.20003003414E+02 0.  0.
        -11    1    3    3    0    0  0.71619114190E+01 -0.69807676085E+01 -0.22731636056E+02  0.24834479451E+02  0.51100000000E-03 0. -1.
         11    1    3    3    0    0 -0.71619114190E+01  0.69807676085E+01 -0.22351420433E+02  0.24486937073E+02  0.51100000000E-03 0.  1.
<mgrwt>
<rscale>  0 0.20003003E+02</rscale>
<asrwt>0</asrwt>
<pdfrwt beam="1">  1        3 0.32602773E-03 0.20003003E+02</pdfrwt>
<pdfrwt beam="2">  1       -3 0.72618817E-02 0.20003003E+02</pdfrwt>
<totfact> 0.16237356E+06</totfact>
</mgrwt>
</event>
<event>
 5    1  0.4133473E-007  0.2000293E+02  0.7818608E-02  0.1745270E+00
          3   -1    0    0  501    0  0.00000000000E+00  0.00000000000E+00  0.10996565224E+01  0.11035821072E+01  0.93000000000E-01 0.  1.
         -3   -1    0    0    0  501 -0.00000000000E+00 -0.00000000000E+00 -0.90798090468E+02  0.90798138096E+02  0.93000000000E-01 0. -1.
       1023    2    1    2    0    0  0.00000000000E+00  0.00000000000E+00 -0.89698433946E+02  0.91901720203E+02  0.20002927885E+02 0.  0.
        -11    1    3    3    0    0  0.62571815819E+00  0.99818350261E+01 -0.44973098124E+02  0.46071771280E+02  0.51100000000E-03 0. -1.
         11    1    3    3    0    0 -0.62571815819E+00 -0.99818350261E+01 -0.44725335821E+02  0.45829948923E+02  0.51100000000E-03 0.  1.
<mgrwt>
<rscale>  0 0.20002928E+02</rscale>
<asrwt>0</asrwt>
<pdfrwt beam="1">  1        3 0.16948363E-03 0.20002928E+02</pdfrwt>
<pdfrwt beam="2">  1       -3 0.13969237E-01 0.20002928E+02</pdfrwt>
<totfact> 0.14463173E+06</totfact>
</mgrwt>
</event>
<event>
 4    1  0.4133473E-007  0.2016007E+02  0.7818608E-02  0.1742163E+00
         -3   -1    0    0    0  501 -0.00000000000E+00  0.00000000000E+00  0.10816306120E+02  0.10816705925E+02  0.93000000000E-01 0.  1.
          3   -1    0    0  501    0  0.00000000000E+00 -0.00000000000E+00 -0.93930830094E+01  0.93935433901E+01  0.93000000000E-01 0. -1.
        -11    1    1    2    0    0 -0.38920097879E+01 -0.92978416892E+01  0.61362980301E+00  0.10098224699E+02  0.51100000000E-03 0. -1.
         11    1    1    2    0    0  0.38920097879E+01  0.92978416892E+01  0.80959330733E+00  0.10112024617E+02  0.51100000000E-03 0.  1.
<mgrwt>
<rscale>  0 0.20160075E+02</rscale>
<asrwt>0</asrwt>
<pdfrwt beam="2">  1        3 0.14451559E-02 0.20160075E+02</pdfrwt>
<pdfrwt beam="1">  1       -3 0.16641133E-02 0.20160075E+02</pdfrwt>
<totfact> 0.17567301E+06</totfact>
</mgrwt>
</event>
<event>
 5    1  0.4133473E-007  0.2000009E+02  0.7818608E-02  0.1745326E+00
         -3   -1    0    0    0  501 -0.00000000000E+00  0.00000000000E+00  0.10708079065E+02  0.10708482911E+02  0.93000000000E-01 0. -1.
          3   -1    0    0  501    0  0.00000000000E+00 -0.00000000000E+00 -0.93380165246E+01  0.93384796200E+01  0.93000000000E-01 0.  1.
       1023    2    1    2    0    0  0.00000000000E+00  0.00000000000E+00  0.13700625405E+01  0.20046962531E+02  0.20000090884E+02 0.  0.
        -11    1    3    3    0    0 -0.37652181420E+01 -0.92640926895E+01  0.71014123436E+00  0.10025197347E+02  0.51100000000E-03 0. -1.
         11    1    3    3    0    0  0.37652181420E+01  0.92640926895E+01  0.65992130614E+00  0.10021765184E+02  0.51100000000E-03 0.  1.
<mgrwt>
<rscale>  0 0.20000091E+02</rscale>
<asrwt>0</asrwt>
<pdfrwt beam="2">  1        3 0.14366846E-02 0.20000091E+02</pdfrwt>
<pdfrwt beam="1">  1       -3 0.16474635E-02 0.20000091E+02</pdfrwt>
<totfact> 0.17882461E+06</totfact>
</mgrwt>
</event>
<event>
 5    1  0.4133473E-007  0.2000326E+02  0.7818608E-02  0.1745263E+00
         -3   -1    0    0    0  501 -0.00000000000E+00  0.00000000000E+00  0.25320675071E+01  0.25337748244E+01  0.93000000000E-01 0. -1.
          3   -1    0    0  501    0  0.00000000000E+00 -0.00000000000E+00 -0.39491233278E+02  0.39491342783E+02  0.93000000000E-01 0.  1.
       1023    2    1    2    0    0  0.00000000000E+00  0.00000000000E+00 -0.36959165771E+02  0.42025117607E+02  0.20003264120E+02 0.  0.
        -11    1    3    3    0    0  0.25656411118E+01 -0.96669578190E+01 -0.18463887596E+02  0.20998755516E+02  0.51100000000E-03 0.  1.
         11    1    3    3    0    0 -0.25656411118E+01  0.96669578190E+01 -0.18495278174E+02  0.21026362091E+02  0.51100000000E-03 0. -1.
<mgrwt>
<rscale>  0 0.20003264E+02</rscale>
<asrwt>0</asrwt>
<pdfrwt beam="2">  1        3 0.60757137E-02 0.20003264E+02</pdfrwt>
<pdfrwt beam="1">  1       -3 0.38968863E-03 0.20003264E+02</pdfrwt>
<totfact> 0.16600226E+06</totfact>
</mgrwt>
</event>
<event>
 5    1  0.4133473E-007  0.2000376E+02  0.7818608E-02  0.1745253E+00
         -3   -1    0    0    0  501 -0.00000000000E+00  0.00000000000E+00  0.30270291741E+02  0.30270434603E+02  0.93000000000E-01 0. -1.
          3   -1    0    0  501    0  0.00000000000E+00 -0.00000000000E+00 -0.33040065040E+01  0.33053151103E+01  0.93000000000E-01 0.  1.
       1023    2    1    2    0    0  0.00000000000E+00  0.00000000000E+00  0.26966285237E+02  0.33575749714E+02  0.20003760381E+02 0.  0.
        -11    1    3    3    0    0  0.78224001695E+01  0.62327685330E+01  0.13510159351E+02  0.16809573283E+02  0.51100000000E-03 0.  1.
         11    1    3    3    0    0 -0.78224001695E+01 -0.62327685330E+01  0.13456125886E+02  0.16766176431E+02  0.51100000000E-03 0. -1.
<mgrwt>
<rscale>  0 0.20003760E+02</rscale>
<asrwt>0</asrwt>
<pdfrwt beam="2">  1        3 0.50842037E-03 0.20003760E+02</pdfrwt>
<pdfrwt beam="1">  1       -3 0.46570794E-02 0.20003760E+02</pdfrwt>
<totfact> 0.17056544E+06</totfact>
</mgrwt>
</event>
<event>
 5    1  0.4133473E-007  0.2000116E+02  0.7818608E-02  0.1745305E+00
         -3   -1    0    0    0  501 -0.00000000000E+00  0.00000000000E+00  0.10092413563E+01  0.10135172003E+01  0.93000000000E-01 0.  1.
          3   -1    0    0  501    0  0.00000000000E+00 -0.00000000000E+00 -0.98882018224E+02  0.98882061958E+02  0.93000000000E-01 0. -1.
       1023    2    1    2    0    0  0.00000000000E+00  0.00000000000E+00 -0.97872776868E+02  0.99895579158E+02  0.20001157056E+02 0.  0.
        -11    1    3    3    0    0  0.45676320705E+01 -0.88962806623E+01 -0.48601411985E+02  0.49619596125E+02  0.51100000000E-03 0.  1.
         11    1    3    3    0    0 -0.45676320705E+01  0.88962806623E+01 -0.49271364883E+02  0.50275983034E+02  0.51100000000E-03 0. -1.
<mgrwt>
<rscale>  0 0.20001157E+02</rscale>
<asrwt>0</asrwt>
<pdfrwt beam="2">  1        3 0.15212943E-01 0.20001157E+02</pdfrwt>
<pdfrwt beam="1">  1       -3 0.15560025E-03 0.20001157E+02</pdfrwt>
<totfact> 0.14179883E+06</totfact>
</mgrwt>
</event>
<event>
 5    1  0.4133473E-007  0.2000228E+02  0.7818608E-02  0.1745283E+00
          3   -1    0    0  501    0  0.00000000000E+00  0.00000000000E+00  0.13123993854E+01  0.13156903689E+01  0.93000000000E-01 0. -1.
         -3   -1    0    0    0  501 -0.00000000000E+00 -0.00000000000E+00 -0.76114966928E+02  0.76115023744E+02  0.93000000000E-01 0.  1.
       1023    2    1    2    0    0  0.00000000000E+00  0.00000000000E+00 -0.74802567543E+02  0.77430714113E+02  0.20002284294E+02 0.  0.
        -11    1    3    3    0    0  0.97234470683E+01 -0.23367773324E+01 -0.36898148969E+02  0.38229299612E+02  0.51100000000E-03 0.  1.
         11    1    3    3    0    0 -0.97234470683E+01  0.23367773324E+01 -0.37904418574E+02  0.39201414501E+02  0.51100000000E-03 0. -1.
<mgrwt>
<rscale>  0 0.20002284E+02</rscale>
<asrwt>0</asrwt>
<pdfrwt beam="1">  1        3 0.20216518E-03 0.20002284E+02</pdfrwt>
<pdfrwt beam="2">  1       -3 0.11710249E-01 0.20002284E+02</pdfrwt>
<totfact> 0.15011324E+06</totfact>
</mgrwt>
</event>
<event>
 5    1  0.4133473E-007  0.2000163E+02  0.7818608E-02  0.1745296E+00
          3   -1    0    0  501    0  0.00000000000E+00  0.00000000000E+00  0.50844797909E+02  0.50844882962E+02  0.93000000000E-01 0.  1.
         -3   -1    0    0    0  501 -0.00000000000E+00 -0.00000000000E+00 -0.19659037905E+01  0.19681023128E+01  0.93000000000E-01 0. -1.
       1023    2    1    2    0    0  0.00000000000E+00  0.00000000000E+00  0.48878894119E+02  0.52812985275E+02  0.20001628018E+02 0.  0.
        -11    1    3    3    0    0 -0.18804355354E+01  0.98222410167E+01  0.24602731626E+02  0.26557613976E+02  0.51100000000E-03 0.  1.
         11    1    3    3    0    0  0.18804355354E+01 -0.98222410167E+01  0.24276162493E+02  0.26255371299E+02  0.51100000000E-03 0. -1.
<mgrwt>
<rscale>  0 0.20001628E+02</rscale>
<asrwt>0</asrwt>
<pdfrwt beam="1">  1        3 0.78224519E-02 0.20001628E+02</pdfrwt>
<pdfrwt beam="2">  1       -3 0.30262241E-03 0.20001628E+02</pdfrwt>
<totfact> 0.16070175E+06</totfact>
</mgrwt>
</event>
<event>
 5    1  0.4133473E-007  0.2000140E+02  0.7818608E-02  0.1745300E+00
         -3   -1    0    0    0  501 -0.00000000000E+00  0.00000000000E+00  0.93290273333E+00  0.93752680487E+00  0.93000000000E-01 0. -1.
          3   -1    0    0  501    0  0.00000000000E+00 -0.00000000000E+00 -0.10693758367E+03  0.10693762410E+03  0.93000000000E-01 0.  1.
       1023    2    1    2    0    0  0.00000000000E+00  0.00000000000E+00 -0.10600468093E+03  0.10787515091E+03  0.20001395059E+02 0.  0.
        -11    1    3    3    0    0  0.32761111571E+01 -0.94488324559E+01 -0.53135734565E+02  0.54068656605E+02  0.51100000000E-03 0.  1.
         11    1    3    3    0    0 -0.32761111571E+01  0.94488324559E+01 -0.52868946368E+02  0.53806494305E+02  0.51100000000E-03 0. -1.
<mgrwt>
<rscale>  0 0.20001395E+02</rscale>
<asrwt>0</asrwt>
<pdfrwt beam="2">  1        3 0.16452285E-01 0.20001395E+02</pdfrwt>
<pdfrwt beam="1">  1       -3 0.14388239E-03 0.20001395E+02</pdfrwt>
<totfact> 0.13909042E+06</totfact>
</mgrwt>
</event>
<event>
 5    1  0.4133473E-007  0.2000543E+02  0.7818608E-02  0.1745220E+00
         -3   -1    0    0    0  501 -0.00000000000E+00  0.00000000000E+00  0.87396285903E+00  0.87889708099E+00  0.93000000000E-01 0. -1.
          3   -1    0    0  501    0  0.00000000000E+00 -0.00000000000E+00 -0.11415623933E+03  0.11415627722E+03  0.93000000000E-01 0.  1.
       1023    2    1    2    0    0  0.00000000000E+00  0.00000000000E+00 -0.11328227647E+03  0.11503517430E+03  0.20005428320E+02 0.  0.
        -11    1    3    3    0    0  0.68711495008E+01  0.72669425740E+01 -0.57687934345E+02  0.58548432251E+02  0.51100000000E-03 0.  1.
         11    1    3    3    0    0 -0.68711495008E+01 -0.72669425740E+01 -0.55594342130E+02  0.56486742046E+02  0.51100000000E-03 0. -1.
<mgrwt>
<rscale>  0 0.20005428E+02</rscale>
<asrwt>0</asrwt>
<pdfrwt beam="2">  1        3 0.17562869E-01 0.20005428E+02</pdfrwt>
<pdfrwt beam="1">  1       -3 0.13483838E-03 0.20005428E+02</pdfrwt>
<totfact> 0.13669897E+06</totfact>
</mgrwt>
</event>
<event>
 5    1  0.4133473E-007  0.2000284E+02  0.7818608E-02  0.1745272E+00
          3   -1    0    0  501    0  0.00000000000E+00  0.00000000000E+00  0.96937560246E+02  0.96937604857E+02  0.93000000000E-01 0.  1.
         -3   -1    0    0    0  501 -0.00000000000E+00 -0.00000000000E+00 -0.10297445103E+01  0.10339355668E+01  0.93000000000E-01 0. -1.
       1023    2    1    2    0    0  0.00000000000E+00  0.00000000000E+00  0.95907815735E+02  0.97971540424E+02  0.20002840145E+02 0.  0.
        -11    1    3    3    0    0  0.99849536807E+01  0.56038809415E+00  0.48555139141E+02  0.49574336829E+02  0.51100000000E-03 0. -1.
         11    1    3    3    0    0 -0.99849536807E+01 -0.56038809415E+00  0.47352676595E+02  0.48397203594E+02  0.51100000000E-03 0.  1.
<mgrwt>
<rscale>  0 0.20002840E+02</rscale>
<asrwt>0</asrwt>
<pdfrwt beam="1">  1        3 0.14913796E-01 0.20002840E+02</pdfrwt>
<pdfrwt beam="2">  1       -3 0.15874806E-03 0.20002840E+02</pdfrwt>
<totfact> 0.14244298E+06</totfact>
</mgrwt>
</event>
<event>
 5    1  0.4133473E-007  0.2000080E+02  0.7818608E-02  0.1745312E+00
          3   -1    0    0  501    0  0.00000000000E+00  0.00000000000E+00  0.39805364088E+02  0.39805472729E+02  0.93000000000E-01 0. -1.
         -3   -1    0    0    0  501 -0.00000000000E+00 -0.00000000000E+00 -0.25114535788E+01  0.25131749001E+01  0.93000000000E-01 0.  1.
       1023    2    1    2    0    0  0.00000000000E+00  0.00000000000E+00  0.37293910509E+02  0.42318647629E+02  0.20000804386E+02 0.  0.
        -11    1    3    3    0    0 -0.99091348564E+01 -0.13467467282E+01  0.18524246878E+02  0.21051185311E+02  0.51100000000E-03 0.  1.
         11    1    3    3    0    0  0.99091348564E+01  0.13467467282E+01  0.18769663631E+02  0.21267462318E+02  0.51100000000E-03 0. -1.
<mgrwt>
<rscale>  0 0.20000804E+02</rscale>
<asrwt>0</asrwt>
<pdfrwt beam="1">  1        3 0.61240434E-02 0.20000804E+02</pdfrwt>
<pdfrwt beam="2">  1       -3 0.38651821E-03 0.20000804E+02</pdfrwt>
<totfact> 0.16589451E+06</totfact>
</mgrwt>
</event>
<event>
 5    1  0.4305049E-007  0.2000121E+02  0.7818608E-02  0.1745304E+00
         -3   -1    0    0    0  501 -0.00000000000E+00  0.00000000000E+00  0.14204451355E+02  0.14204755799E+02  0.93000000000E-01 0. -1.
          3   -1    0    0  501    0  0.00000000000E+00 -0.00000000000E+00 -0.70402117716E+01  0.70408260019E+01  0.93000000000E-01 0.  1.
       1023    2    1    2    0    0  0.00000000000E+00  0.00000000000E+00  0.71642395835E+01  0.21245581801E+02  0.20001210394E+02 0.  0.
        -11    1    3    3    0    0  0.10670307709E+01 -0.99432519979E+01  0.35048690341E+01  0.10596741111E+02  0.51100000000E-03 0.  1.
         11    1    3    3    0    0 -0.10670307709E+01  0.99432519979E+01  0.36593705494E+01  0.10648840690E+02  0.51100000000E-03 0. -1.
<mgrwt>
<rscale>  0 0.20001210E+02</rscale>
<asrwt>0</asrwt>
<pdfrwt beam="2">  1        3 0.10831802E-02 0.20001210E+02</pdfrwt>
<pdfrwt beam="1">  1       -3 0.21853708E-02 0.20001210E+02</pdfrwt>
<totfact> 0.17802396E+06</totfact>
</mgrwt>
</event>
<event>
 5    1  0.4133473E-007  0.2000029E+02  0.7818608E-02  0.1745322E+00
         -3   -1    0    0    0  501 -0.00000000000E+00  0.00000000000E+00  0.11677163761E+03  0.11677167464E+03  0.93000000000E-01 0. -1.
          3   -1    0    0  501    0  0.00000000000E+00 -0.00000000000E+00 -0.85383494312E+00  0.85888480607E+00  0.93000000000E-01 0.  1.
       1023    2    1    2    0    0  0.00000000000E+00  0.00000000000E+00  0.11591780266E+03  0.11763055945E+03  0.20000288532E+02 0.  0.
        -11    1    3    3    0    0  0.99091713898E+01  0.13457473124E+01  0.58035949793E+02  0.58891206323E+02  0.51100000000E-03 0.  1.
         11    1    3    3    0    0 -0.99091713898E+01 -0.13457473124E+01  0.57881852869E+02  0.58739353123E+02  0.51100000000E-03 0. -1.
<mgrwt>
<rscale>  0 0.20000289E+02</rscale>
<asrwt>0</asrwt>
<pdfrwt beam="2">  1        3 0.13175046E-03 0.20000289E+02</pdfrwt>
<pdfrwt beam="1">  1       -3 0.17965267E-01 0.20000289E+02</pdfrwt>
<totfact> 0.13597615E+06</totfact>
</mgrwt>
</event>
<event>
 5    1  0.4133473E-007  0.2000055E+02  0.7818608E-02  0.1745317E+00
         -3   -1    0    0    0  501 -0.00000000000E+00  0.00000000000E+00  0.28306046976E+01  0.28321320509E+01  0.93000000000E-01 0.  1.
          3   -1    0    0  501    0  0.00000000000E+00 -0.00000000000E+00 -0.35318964009E+02  0.35319086450E+02  0.93000000000E-01 0. -1.
       1023    2    1    2    0    0  0.00000000000E+00  0.00000000000E+00 -0.32488359311E+02  0.38151218501E+02  0.20000549551E+02 0.  0.
        -11    1    3    3    0    0 -0.72048301140E-01  0.10000013790E+02 -0.16233983204E+02  0.19066926278E+02  0.51100000000E-03 0. -1.
         11    1    3    3    0    0  0.72048301140E-01 -0.10000013790E+02 -0.16254376107E+02  0.19084292223E+02  0.51100000000E-03 0.  1.
<mgrwt>
<rscale>  0 0.20000550E+02</rscale>
<asrwt>0</asrwt>
<pdfrwt beam="2">  1        3 0.54338134E-02 0.20000550E+02</pdfrwt>
<pdfrwt beam="1">  1       -3 0.43560458E-03 0.20000550E+02</pdfrwt>
<totfact> 0.16809223E+06</totfact>
</mgrwt>
</event>
<event>
 5    1  0.4133473E-007  0.2000800E+02  0.7818608E-02  0.1745169E+00
         -3   -1    0    0    0  501 -0.00000000000E+00  0.00000000000E+00  0.75961011935E+02  0.75961068866E+02  0.93000000000E-01 0.  1.
          3   -1    0    0  501    0  0.00000000000E+00 -0.00000000000E+00 -0.13158195454E+01  0.13191019960E+01  0.93000000000E-01 0. -1.
       1023    2    1    2    0    0  0.00000000000E+00  0.00000000000E+00  0.74645192390E+02  0.77280170862E+02  0.20007999938E+02 0.  0.
        -11    1    3    3    0    0 -0.18922690705E+01 -0.98230854473E+01  0.37629781648E+02  0.38936796955E+02  0.51100000000E-03 0.  1.
         11    1    3    3    0    0  0.18922690705E+01  0.98230854473E+01  0.37015410742E+02  0.38343373907E+02  0.51100000000E-03 0. -1.
<mgrwt>
<rscale>  0 0.20008000E+02</rscale>
<asrwt>0</asrwt>
<pdfrwt beam="2">  1        3 0.20269067E-03 0.20008000E+02</pdfrwt>
<pdfrwt beam="1">  1       -3 0.11686566E-01 0.20008000E+02</pdfrwt>
<totfact> 0.15008061E+06</totfact>
</mgrwt>
</event>
<event>
 5    1  0.4133473E-007  0.2000002E+02  0.7818608E-02  0.1745328E+00
          3   -1    0    0  501    0  0.00000000000E+00  0.00000000000E+00  0.12842003181E+02  0.12842339923E+02  0.93000000000E-01 0. -1.
         -3   -1    0    0    0  501 -0.00000000000E+00 -0.00000000000E+00 -0.77862453236E+01  0.77868007062E+01  0.93000000000E-01 0.  1.
       1023    2    1    2    0    0  0.00000000000E+00  0.00000000000E+00  0.50557578571E+01  0.20629140629E+02  0.20000018890E+02 0.  0.
        -11    1    3    3    0    0 -0.31717395656E+01  0.94836756352E+01  0.25406460042E+01  0.10317699250E+02  0.51100000000E-03 0.  1.
         11    1    3    3    0    0  0.31717395656E+01 -0.94836756352E+01  0.25151118528E+01  0.10311441379E+02  0.51100000000E-03 0. -1.
<mgrwt>
<rscale>  0 0.20000019E+02</rscale>
<asrwt>0</asrwt>
<pdfrwt beam="1">  1        3 0.19757614E-02 0.20000019E+02</pdfrwt>
<pdfrwt beam="2">  1       -3 0.11979525E-02 0.20000019E+02</pdfrwt>
<totfact> 0.17844262E+06</totfact>
</mgrwt>
</event>
<event>
 5    1  0.4133473E-007  0.2000423E+02  0.7818608E-02  0.1745244E+00
         -3   -1    0    0    0  501 -0.00000000000E+00  0.00000000000E+00  0.10175366507E+02  0.10175791496E+02  0.93000000000E-01 0.  1.
          3   -1    0    0  501    0  0.00000000000E+00 -0.00000000000E+00 -0.98309613262E+01  0.98314012021E+01  0.93000000000E-01 0. -1.
       1023    2    1    2    0    0  0.00000000000E+00  0.00000000000E+00  0.34440518127E+00  0.20007192698E+02  0.20004228171E+02 0.  0.
        -11    1    3    3    0    0 -0.23962211894E+01 -0.97104378264E+01  0.26057375772E+00  0.10005117576E+02  0.51100000000E-03 0.  1.
         11    1    3    3    0    0  0.23962211894E+01  0.97104378264E+01  0.83831423552E-01  0.10002075122E+02  0.51100000000E-03 0. -1.
<mgrwt>
<rscale>  0 0.20004228E+02</rscale>
<asrwt>0</asrwt>
<pdfrwt beam="2">  1        3 0.15125221E-02 0.20004228E+02</pdfrwt>
<pdfrwt beam="1">  1       -3 0.15655075E-02 0.20004228E+02</pdfrwt>
<totfact> 0.17877028E+06</totfact>
</mgrwt>
</event>
<event>
 5    1  0.4133473E-007  0.2000330E+02  0.7818608E-02  0.1745262E+00
         -3   -1    0    0    0  501 -0.00000000000E+00  0.00000000000E+00  0.58087953528E+01  0.58095397796E+01  0.93000000000E-01 0.  1.
          3   -1    0    0  501    0  0.00000000000E+00 -0.00000000000E+00 -0.17218988989E+02  0.17219240135E+02  0.93000000000E-01 0. -1.
       1023    2    1    2    0    0  0.00000000000E+00  0.00000000000E+00 -0.11410193637E+02  0.23028779914E+02  0.20003304365E+02 0.  0.
        -11    1    3    3    0    0  0.78567446134E+01  0.61874779479E+01 -0.58667923282E+01  0.11594506102E+02  0.51100000000E-03 0.  1.
         11    1    3    3    0    0 -0.78567446134E+01 -0.61874779479E+01 -0.55434013084E+01  0.11434273812E+02  0.51100000000E-03 0. -1.
<mgrwt>
<rscale>  0 0.20003304E+02</rscale>
<asrwt>0</asrwt>
<pdfrwt beam="2">  1        3 0.26491518E-02 0.20003304E+02</pdfrwt>
<pdfrwt beam="1">  1       -3 0.89373741E-03 0.20003304E+02</pdfrwt>
<totfact> 0.17683595E+06</totfact>
</mgrwt>
</event>
<event>
 5    1  0.4133473E-007  0.2000232E+02  0.7818608E-02  0.1745282E+00
          3   -1    0    0  501    0  0.00000000000E+00  0.00000000000E+00  0.13295773675E+01  0.13328259362E+01  0.93000000000E-01 0. -1.
         -3   -1    0    0    0  501 -0.00000000000E+00 -0.00000000000E+00 -0.75134269355E+02  0.75134326912E+02  0.93000000000E-01 0.  1.
       1023    2    1    2    0    0  0.00000000000E+00  0.00000000000E+00 -0.73804691988E+02  0.76467152848E+02  0.20002322499E+02 0.  0.
        -11    1    3    3    0    0  0.98492921206E+01  0.17351499499E+01 -0.36662827463E+02  0.38002397536E+02  0.51100000000E-03 0. -1.
         11    1    3    3    0    0 -0.98492921206E+01 -0.17351499499E+01 -0.37141864525E+02  0.38464755313E+02  0.51100000000E-03 0.  1.
<mgrwt>
<rscale>  0 0.20002322E+02</rscale>
<asrwt>0</asrwt>
<pdfrwt beam="1">  1        3 0.20480474E-03 0.20002322E+02</pdfrwt>
<pdfrwt beam="2">  1       -3 0.11559369E-01 0.20002322E+02</pdfrwt>
<totfact> 0.15049441E+06</totfact>
</mgrwt>
</event>
<event>
 5    1  0.4133473E-007  0.2000006E+02  0.7818608E-02  0.1745327E+00
          3   -1    0    0  501    0  0.00000000000E+00  0.00000000000E+00  0.12171824903E+02  0.12172180186E+02  0.93000000000E-01 0.  1.
         -3   -1    0    0    0  501 -0.00000000000E+00 -0.00000000000E+00 -0.82150042344E+01  0.82155306324E+01  0.93000000000E-01 0. -1.
       1023    2    1    2    0    0  0.00000000000E+00  0.00000000000E+00  0.39568206687E+01  0.20387710818E+02  0.20000058065E+02 0.  0.
        -11    1    3    3    0    0  0.46221088011E+00  0.99893248776E+01  0.19969277480E+01  0.10197449245E+02  0.51100000000E-03 0.  1.
         11    1    3    3    0    0 -0.46221088011E+00 -0.99893248776E+01  0.19598929207E+01  0.10190261573E+02  0.51100000000E-03 0. -1.
<mgrwt>
<rscale>  0 0.20000058E+02</rscale>
<asrwt>0</asrwt>
<pdfrwt beam="1">  1        3 0.18726563E-02 0.20000058E+02</pdfrwt>
<pdfrwt beam="2">  1       -3 0.12639146E-02 0.20000058E+02</pdfrwt>
<totfact> 0.17859962E+06</totfact>
</mgrwt>
</event>
<event>
 5    1  0.4243543E-007  0.2000093E+02  0.7818608E-02  0.1745310E+00
         -3   -1    0    0    0  501 -0.00000000000E+00  0.00000000000E+00  0.53823516350E+01  0.53831550342E+01  0.93000000000E-01 0. -1.
          3   -1    0    0  501    0  0.00000000000E+00 -0.00000000000E+00 -0.18578664279E+02  0.18578897045E+02  0.93000000000E-01 0.  1.
       1023    2    1    2    0    0  0.00000000000E+00  0.00000000000E+00 -0.13196312644E+02  0.23962052079E+02  0.20000931789E+02 0.  0.
        -11    1    3    3    0    0  0.13420699436E+01 -0.99097991028E+01 -0.65219332847E+01  0.11939048707E+02  0.51100000000E-03 0. -1.
         11    1    3    3    0    0 -0.13420699436E+01  0.99097991028E+01 -0.66743793594E+01  0.12023003372E+02  0.51100000000E-03 0.  1.
<mgrwt>
<rscale>  0 0.20000932E+02</rscale>
<asrwt>0</asrwt>
<pdfrwt beam="2">  1        3 0.28583357E-02 0.20000932E+02</pdfrwt>
<pdfrwt beam="1">  1       -3 0.82813381E-03 0.20000932E+02</pdfrwt>
<totfact> 0.17629431E+06</totfact>
</mgrwt>
</event>
<event>
 5    1  0.4133473E-007  0.2000016E+02  0.7818608E-02  0.1745325E+00
          3   -1    0    0  501    0  0.00000000000E+00  0.00000000000E+00  0.51562756757E+02  0.51562840626E+02  0.93000000000E-01 0. -1.
         -3   -1    0    0    0  501 -0.00000000000E+00 -0.00000000000E+00 -0.19382156127E+01  0.19404455058E+01  0.93000000000E-01 0.  1.
       1023    2    1    2    0    0  0.00000000000E+00  0.00000000000E+00  0.49624541145E+02  0.53503286132E+02  0.20000163576E+02 0.  0.
        -11    1    3    3    0    0  0.36544208735E+01 -0.93084275886E+01  0.24800483166E+02  0.26740710193E+02  0.51100000000E-03 0. -1.
         11    1    3    3    0    0 -0.36544208735E+01  0.93084275886E+01  0.24824057979E+02  0.26762575939E+02  0.51100000000E-03 0.  1.
<mgrwt>
<rscale>  0 0.20000164E+02</rscale>
<asrwt>0</asrwt>
<pdfrwt beam="1">  1        3 0.79329101E-02 0.20000164E+02</pdfrwt>
<pdfrwt beam="2">  1       -3 0.29836499E-03 0.20000164E+02</pdfrwt>
<totfact> 0.16040246E+06</totfact>
</mgrwt>
</event>
<event>
 5    1  0.4256119E-007  0.2000093E+02  0.7818608E-02  0.1745310E+00
         -3   -1    0    0    0  501 -0.00000000000E+00  0.00000000000E+00  0.17017017986E+02  0.17017272112E+02  0.93000000000E-01 0.  1.
          3   -1    0    0  501    0  0.00000000000E+00 -0.00000000000E+00 -0.58763480056E+01  0.58770838758E+01  0.93000000000E-01 0. -1.
       1023    2    1    2    0    0  0.00000000000E+00  0.00000000000E+00  0.11140669980E+02  0.22894355988E+02  0.20000925191E+02 0.  0.
        -11    1    3    3    0    0  0.18514504889E+01  0.98275168409E+01  0.56115379966E+01  0.11467227874E+02  0.51100000000E-03 0. -1.
         11    1    3    3    0    0 -0.18514504889E+01 -0.98275168409E+01  0.55291319839E+01  0.11427128114E+02  0.51100000000E-03 0.  1.
<mgrwt>
<rscale>  0 0.20000925E+02</rscale>
<asrwt>0</asrwt>
<pdfrwt beam="2">  1        3 0.90412970E-03 0.20000925E+02</pdfrwt>
<pdfrwt beam="1">  1       -3 0.26180789E-02 0.20000925E+02</pdfrwt>
<totfact> 0.17697582E+06</totfact>
</mgrwt>
</event>
<event>
 5    1  0.4133473E-007  0.2000220E+02  0.7818608E-02  0.1745284E+00
         -3   -1    0    0    0  501 -0.00000000000E+00  0.00000000000E+00  0.29413409073E+01  0.29428107879E+01  0.93000000000E-01 0.  1.
          3   -1    0    0  501    0  0.00000000000E+00 -0.00000000000E+00 -0.33995546688E+02  0.33995673895E+02  0.93000000000E-01 0. -1.
       1023    2    1    2    0    0  0.00000000000E+00  0.00000000000E+00 -0.31054205780E+02  0.36938484683E+02  0.20002198730E+02 0.  0.
        -11    1    3    3    0    0  0.65001789618E+01 -0.76004290499E+01 -0.15630584728E+02  0.18556239583E+02  0.51100000000E-03 0.  1.
         11    1    3    3    0    0 -0.65001789618E+01  0.76004290499E+01 -0.15423621052E+02  0.18382245100E+02  0.51100000000E-03 0. -1.
<mgrwt>
<rscale>  0 0.20002199E+02</rscale>
<asrwt>0</asrwt>
<pdfrwt beam="2">  1        3 0.52302067E-02 0.20002199E+02</pdfrwt>
<pdfrwt beam="1">  1       -3 0.45263686E-03 0.20002199E+02</pdfrwt>
<totfact> 0.16871766E+06</totfact>
</mgrwt>
</event>
<event>
 5    1  0.4133473E-007  0.2000051E+02  0.7818608E-02  0.1745318E+00
         -3   -1    0    0    0  501 -0.00000000000E+00  0.00000000000E+00  0.60806773477E+01  0.60813884933E+01  0.93000000000E-01 0.  1.
          3   -1    0    0  501    0  0.00000000000E+00 -0.00000000000E+00 -0.16444566043E+02  0.16444829015E+02  0.93000000000E-01 0. -1.
       1023    2    1    2    0    0  0.00000000000E+00  0.00000000000E+00 -0.10363888695E+02  0.22526217509E+02  0.20000507153E+02 0.  0.
        -11    1    3    3    0    0 -0.94176102499E+01 -0.33635567950E+01 -0.51968094477E+01  0.11269947907E+02  0.51100000000E-03 0. -1.
         11    1    3    3    0    0  0.94176102499E+01  0.33635567950E+01 -0.51670792477E+01  0.11256269602E+02  0.51100000000E-03 0.  1.
<mgrwt>
<rscale>  0 0.20000507E+02</rscale>
<asrwt>0</asrwt>
<pdfrwt beam="2">  1        3 0.25300081E-02 0.20000507E+02</pdfrwt>
<pdfrwt beam="1">  1       -3 0.93556376E-03 0.20000507E+02</pdfrwt>
<totfact> 0.17720849E+06</totfact>
</mgrwt>
</event>
<event>
 5    1  0.4310108E-007  0.2000075E+02  0.7818608E-02  0.1745313E+00
          3   -1    0    0  501    0  0.00000000000E+00  0.00000000000E+00  0.13590614533E+02  0.13590932726E+02  0.93000000000E-01 0.  1.
         -3   -1    0    0    0  501 -0.00000000000E+00 -0.00000000000E+00 -0.73578690704E+01  0.73584567850E+01  0.93000000000E-01 0. -1.
       1023    2    1    2    0    0  0.00000000000E+00  0.00000000000E+00  0.62327454622E+01  0.20949389511E+02  0.20000745109E+02 0.  0.
        -11    1    3    3    0    0  0.77879175966E+01  0.62730475256E+01  0.30448307376E+01  0.10453409981E+02  0.51100000000E-03 0.  1.
         11    1    3    3    0    0 -0.77879175966E+01 -0.62730475256E+01  0.31879147246E+01  0.10495979530E+02  0.51100000000E-03 0. -1.
<mgrwt>
<rscale>  0 0.20000745E+02</rscale>
<asrwt>0</asrwt>
<pdfrwt beam="1">  1        3 0.20909334E-02 0.20000745E+02</pdfrwt>
<pdfrwt beam="2">  1       -3 0.11320496E-02 0.20000745E+02</pdfrwt>
<totfact> 0.17821942E+06</totfact>
</mgrwt>
</event>
<event>
 5    1  0.4133473E-007  0.2000026E+02  0.7818608E-02  0.1745323E+00
         -3   -1    0    0    0  501 -0.00000000000E+00  0.00000000000E+00  0.11709455940E+03  0.11709459633E+03  0.93000000000E-01 0.  1.
          3   -1    0    0  501    0  0.00000000000E+00 -0.00000000000E+00 -0.85146404910E+00  0.85652789032E+00  0.93000000000E-01 0. -1.
       1023    2    1    2    0    0  0.00000000000E+00  0.00000000000E+00  0.11624309535E+03  0.11795112422E+03  0.20000262210E+02 0.  0.
        -11    1    3    3    0    0 -0.72988187232E+01 -0.68359154784E+01  0.58055171454E+02  0.58910147072E+02  0.51100000000E-03 0. -1.
         11    1    3    3    0    0  0.72988187232E+01  0.68359154784E+01  0.58187923897E+02  0.59040977150E+02  0.51100000000E-03 0.  1.
<mgrwt>
<rscale>  0 0.20000262E+02</rscale>
<asrwt>0</asrwt>
<pdfrwt beam="2">  1        3 0.13138690E-03 0.20000262E+02</pdfrwt>
<pdfrwt beam="1">  1       -3 0.18014931E-01 0.20000262E+02</pdfrwt>
<totfact> 0.13587542E+06</totfact>
</mgrwt>
</event>
<event>
 5    1  0.4247805E-007  0.2000073E+02  0.7818608E-02  0.1745314E+00
          3   -1    0    0  501    0  0.00000000000E+00  0.00000000000E+00  0.57920560522E+01  0.57928026301E+01  0.93000000000E-01 0. -1.
         -3   -1    0    0    0  501 -0.00000000000E+00 -0.00000000000E+00 -0.17264297916E+02  0.17264548402E+02  0.93000000000E-01 0.  1.
       1023    2    1    2    0    0  0.00000000000E+00  0.00000000000E+00 -0.11472241864E+02  0.23057351033E+02  0.20000727568E+02 0.  0.
        -11    1    3    3    0    0  0.80257013968E+01  0.59658103471E+01 -0.58134508954E+01  0.11567151230E+02  0.51100000000E-03 0.  1.
         11    1    3    3    0    0 -0.80257013968E+01 -0.59658103471E+01 -0.56587909687E+01  0.11490199802E+02  0.51100000000E-03 0. -1.
<mgrwt>
<rscale>  0 0.20000728E+02</rscale>
<asrwt>0</asrwt>
<pdfrwt beam="1">  1        3 0.89116225E-03 0.20000728E+02</pdfrwt>
<pdfrwt beam="2">  1       -3 0.26561225E-02 0.20000728E+02</pdfrwt>
<totfact> 0.17687660E+06</totfact>
</mgrwt>
</event>
<event>
 5    1  0.4133473E-007  0.2000105E+02  0.7818608E-02  0.1745307E+00
         -3   -1    0    0    0  501 -0.00000000000E+00  0.00000000000E+00  0.60607975961E+02  0.60608047313E+02  0.93000000000E-01 0. -1.
          3   -1    0    0  501    0  0.00000000000E+00 -0.00000000000E+00 -0.16487375952E+01  0.16513584280E+01  0.93000000000E-01 0.  1.
       1023    2    1    2    0    0  0.00000000000E+00  0.00000000000E+00  0.58959238366E+02  0.62259405741E+02  0.20001045336E+02 0.  0.
        -11    1    3    3    0    0  0.86446333592E+01 -0.50272965275E+01  0.29218123267E+02  0.30882067998E+02  0.51100000000E-03 0. -1.
         11    1    3    3    0    0 -0.86446333592E+01  0.50272965275E+01  0.29741115099E+02  0.31377337744E+02  0.51100000000E-03 0.  1.
<mgrwt>
<rscale>  0 0.20001045E+02</rscale>
<asrwt>0</asrwt>
<pdfrwt beam="2">  1        3 0.25385899E-03 0.20001045E+02</pdfrwt>
<pdfrwt beam="1">  1       -3 0.93245123E-02 0.20001045E+02</pdfrwt>
<totfact> 0.15644631E+06</totfact>
</mgrwt>
</event>
<event>
 5    1  0.4133473E-007  0.2000055E+02  0.7818608E-02  0.1745317E+00
         -3   -1    0    0    0  501 -0.00000000000E+00  0.00000000000E+00  0.19789182664E+02  0.19789401192E+02  0.93000000000E-01 0. -1.
          3   -1    0    0  501    0  0.00000000000E+00 -0.00000000000E+00 -0.50528689918E+01  0.50537247697E+01  0.93000000000E-01 0.  1.
       1023    2    1    2    0    0  0.00000000000E+00  0.00000000000E+00  0.14736313673E+02  0.24843125961E+02  0.20000549164E+02 0.  0.
        -11    1    3    3    0    0  0.22868244150E+01  0.97352479349E+01  0.73314522251E+01  0.12399790734E+02  0.51100000000E-03 0. -1.
         11    1    3    3    0    0 -0.22868244150E+01 -0.97352479349E+01  0.74048614476E+01  0.12443335227E+02  0.51100000000E-03 0.  1.
<mgrwt>
<rscale>  0 0.20000549E+02</rscale>
<asrwt>0</asrwt>
<pdfrwt beam="2">  1        3 0.77744710E-03 0.20000549E+02</pdfrwt>
<pdfrwt beam="1">  1       -3 0.30445723E-02 0.20000549E+02</pdfrwt>
<totfact> 0.17576490E+06</totfact>
</mgrwt>
</event>
<event>
 5    1  0.4170083E-007  0.2000121E+02  0.7818608E-02  0.1745304E+00
          3   -1    0    0  501    0  0.00000000000E+00  0.00000000000E+00  0.15684585904E+02  0.15684861618E+02  0.93000000000E-01 0.  1.
         -3   -1    0    0    0  501 -0.00000000000E+00 -0.00000000000E+00 -0.63757894265E+01  0.63764676593E+01  0.93000000000E-01 0. -1.
       1023    2    1    2    0    0  0.00000000000E+00  0.00000000000E+00  0.93087964772E+01  0.22061329277E+02  0.20001213904E+02 0.  0.
        -11    1    3    3    0    0 -0.87164827541E+01 -0.49024617811E+01  0.46881440276E+01  0.11044903703E+02  0.51100000000E-03 0.  1.
         11    1    3    3    0    0  0.87164827541E+01  0.49024617811E+01  0.46206524496E+01  0.11016425574E+02  0.51100000000E-03 0. -1.
<mgrwt>
<rscale>  0 0.20001214E+02</rscale>
<asrwt>0</asrwt>
<pdfrwt beam="1">  1        3 0.24130866E-02 0.20001214E+02</pdfrwt>
<pdfrwt beam="2">  1       -3 0.98096408E-03 0.20001214E+02</pdfrwt>
<totfact> 0.17749198E+06</totfact>
</mgrwt>
</event>
<event>
 5    1  0.4133473E-007  0.2000009E+02  0.7818608E-02  0.1745326E+00
         -3   -1    0    0    0  501 -0.00000000000E+00  0.00000000000E+00  0.71747345076E+02  0.71747405350E+02  0.93000000000E-01 0.  1.
          3   -1    0    0  501    0  0.00000000000E+00 -0.00000000000E+00 -0.13921804495E+01  0.13952832701E+01  0.93000000000E-01 0. -1.
       1023    2    1    2    0    0  0.00000000000E+00  0.00000000000E+00  0.70355164626E+02  0.73142688620E+02  0.20000092724E+02 0.  0.
        -11    1    3    3    0    0 -0.83159353762E+01  0.55538530275E+01  0.35284976113E+02  0.36674645250E+02  0.51100000000E-03 0.  1.
         11    1    3    3    0    0  0.83159353762E+01 -0.55538530275E+01  0.35070188513E+02  0.36468043370E+02  0.51100000000E-03 0. -1.
<mgrwt>
<rscale>  0 0.20000093E+02</rscale>
<asrwt>0</asrwt>
<pdfrwt beam="2">  1        3 0.21442492E-03 0.20000093E+02</pdfrwt>
<pdfrwt beam="1">  1       -3 0.11038297E-01 0.20000093E+02</pdfrwt>
<totfact> 0.15186667E+06</totfact>
</mgrwt>
</event>
<event>
 5    1  0.4133473E-007  0.2000536E+02  0.7818608E-02  0.1745222E+00
         -3   -1    0    0    0  501 -0.00000000000E+00  0.00000000000E+00  0.67464021911E+01  0.67470431690E+01  0.93000000000E-01 0.  1.
          3   -1    0    0  501    0  0.00000000000E+00 -0.00000000000E+00 -0.14829170406E+02  0.14829462024E+02  0.93000000000E-01 0. -1.
       1023    2    1    2    0    0  0.00000000000E+00  0.00000000000E+00 -0.80827682146E+01  0.21576505193E+02  0.20005360140E+02 0.  0.
        -11    1    3    3    0    0  0.16832059398E+01  0.98587996843E+01 -0.38725841614E+01  0.10725018499E+02  0.51100000000E-03 0. -1.
         11    1    3    3    0    0 -0.16832059398E+01 -0.98587996843E+01 -0.42101840533E+01  0.10851486694E+02  0.51100000000E-03 0.  1.
<mgrwt>
<rscale>  0 0.20005360E+02</rscale>
<asrwt>0</asrwt>
<pdfrwt beam="2">  1        3 0.22814826E-02 0.20005360E+02</pdfrwt>
<pdfrwt beam="1">  1       -3 0.10379798E-02 0.20005360E+02</pdfrwt>
<totfact> 0.17772418E+06</totfact>
</mgrwt>
</event>
<event>
 5    1  0.4421370E-007  0.2000140E+02  0.7818608E-02  0.1745300E+00
          3   -1    0    0  501    0  0.00000000000E+00  0.00000000000E+00  0.93520420495E+01  0.93525044504E+01  0.93000000000E-01 0.  1.
         -3   -1    0    0    0  501 -0.00000000000E+00 -0.00000000000E+00 -0.10693420512E+02  0.10693824912E+02  0.93000000000E-01 0. -1.
       1023    2    1    2    0    0  0.00000000000E+00  0.00000000000E+00 -0.13413784627E+01  0.20046329362E+02  0.20001400569E+02 0.  0.
        -11    1    3    3    0    0  0.97527340968E+01 -0.22117265492E+01 -0.75117671903E+00  0.10028550414E+02  0.51100000000E-03 0.  1.
         11    1    3    3    0    0 -0.97527340968E+01  0.22117265492E+01 -0.59020174367E+00  0.10017778948E+02  0.51100000000E-03 0. -1.
<mgrwt>
<rscale>  0 0.20001401E+02</rscale>
<asrwt>0</asrwt>
<pdfrwt beam="1">  1        3 0.14388424E-02 0.20001401E+02</pdfrwt>
<pdfrwt beam="2">  1       -3 0.16452083E-02 0.20001401E+02</pdfrwt>
<totfact> 0.17879977E+06</totfact>
</mgrwt>
</event>
<event>
 5    1  0.4169462E-007  0.2000068E+02  0.7818608E-02  0.1745315E+00
         -3   -1    0    0    0  501 -0.00000000000E+00  0.00000000000E+00  0.14900104407E+02  0.14900394637E+02  0.93000000000E-01 0.  1.
          3   -1    0    0  501    0  0.00000000000E+00 -0.00000000000E+00 -0.67111425357E+01  0.67117868809E+01  0.93000000000E-01 0. -1.
       1023    2    1    2    0    0  0.00000000000E+00  0.00000000000E+00  0.81889618715E+01  0.21612181518E+02  0.20000682324E+02 0.  0.
        -11    1    3    3    0    0 -0.96817560862E+01 -0.25027485133E+01  0.41827449995E+01  0.10839534447E+02  0.51100000000E-03 0. -1.
         11    1    3    3    0    0  0.96817560862E+01  0.25027485133E+01  0.40062168721E+01  0.10772647071E+02  0.51100000000E-03 0.  1.
<mgrwt>
<rscale>  0 0.20000682E+02</rscale>
<asrwt>0</asrwt>
<pdfrwt beam="2">  1        3 0.10325554E-02 0.20000682E+02</pdfrwt>
<pdfrwt beam="1">  1       -3 0.22923956E-02 0.20000682E+02</pdfrwt>
<totfact> 0.17779779E+06</totfact>
</mgrwt>
</event>
<event>
 5    1  0.4139865E-007  0.2000096E+02  0.7818608E-02  0.1745309E+00
          3   -1    0    0  501    0  0.00000000000E+00  0.00000000000E+00  0.69031862388E+02  0.69031925033E+02  0.93000000000E-01 0.  1.
         -3   -1    0    0    0  501 -0.00000000000E+00 -0.00000000000E+00 -0.14471898479E+01  0.14501749742E+01  0.93000000000E-01 0. -1.
       1023    2    1    2    0    0  0.00000000000E+00  0.00000000000E+00  0.67584672541E+02  0.70482100008E+02  0.20000961453E+02 0.  0.
        -11    1    3    3    0    0  0.63318660787E+01 -0.77403308196E+01  0.34025163351E+02  0.35464305866E+02  0.51100000000E-03 0.  1.
         11    1    3    3    0    0 -0.63318660787E+01  0.77403308196E+01  0.33559509189E+02  0.35017794141E+02  0.51100000000E-03 0. -1.
<mgrwt>
<rscale>  0 0.20000961E+02</rscale>
<asrwt>0</asrwt>
<pdfrwt beam="1">  1        3 0.10620522E-01 0.20000961E+02</pdfrwt>
<pdfrwt beam="2">  1       -3 0.22287901E-03 0.20000961E+02</pdfrwt>
<totfact> 0.15291497E+06</totfact>
</mgrwt>
</event>
<event>
 5    1  0.4133473E-007  0.2000074E+02  0.7818608E-02  0.1745313E+00
          3   -1    0    0  501    0  0.00000000000E+00  0.00000000000E+00  0.33676143709E+02  0.33676272123E+02  0.93000000000E-01 0.  1.
         -3   -1    0    0    0  501 -0.00000000000E+00 -0.00000000000E+00 -0.29688185811E+01  0.29702748640E+01  0.93000000000E-01 0. -1.
       1023    2    1    2    0    0  0.00000000000E+00  0.00000000000E+00  0.30707325127E+02  0.36646546987E+02  0.20000739725E+02 0.  0.
        -11    1    3    3    0    0  0.36850067066E+01 -0.92964704600E+01  0.15241315207E+02  0.18229134015E+02  0.51100000000E-03 0. -1.
         11    1    3    3    0    0 -0.36850067066E+01  0.92964704600E+01  0.15466009921E+02  0.18417412972E+02  0.51100000000E-03 0.  1.
<mgrwt>
<rscale>  0 0.20000740E+02</rscale>
<asrwt>0</asrwt>
<pdfrwt beam="1">  1        3 0.51810666E-02 0.20000740E+02</pdfrwt>
<pdfrwt beam="2">  1       -3 0.45686327E-03 0.20000740E+02</pdfrwt>
<totfact> 0.16890289E+06</totfact>
</mgrwt>
</event>
<event>
 4    1  0.4133473E-007  0.2001825E+02  0.7818608E-02  0.1744965E+00
          3   -1    0    0  501    0  0.00000000000E+00  0.00000000000E+00  0.29247545101E+01  0.29262327222E+01  0.93000000000E-01 0.  1.
         -3   -1    0    0    0  501 -0.00000000000E+00 -0.00000000000E+00 -0.34243139318E+02  0.34243265605E+02  0.93000000000E-01 0. -1.
        -11    1    1    2    0    0 -0.29514785909E+01 -0.95610939405E+01 -0.16101913945E+02  0.18957778777E+02  0.51100000000E-03 0. -1.
         11    1    1    2    0    0  0.29514785909E+01  0.95610939405E+01 -0.15216470862E+02  0.18211719550E+02  0.51100000000E-03 0.  1.
<mgrwt>
<rscale>  0 0.20018251E+02</rscale>
<asrwt>0</asrwt>
<pdfrwt beam="1">  1        3 0.45008568E-03 0.20018251E+02</pdfrwt>
<pdfrwt beam="2">  1       -3 0.52682984E-02 0.20018251E+02</pdfrwt>
<totfact> 0.16832274E+06</totfact>
</mgrwt>
</event>
<event>
 5    1  0.4133473E-007  0.2000197E+02  0.7818608E-02  0.1745289E+00
          3   -1    0    0  501    0  0.00000000000E+00  0.00000000000E+00  0.16904258015E+02  0.16904513837E+02  0.93000000000E-01 0.  1.
         -3   -1    0    0    0  501 -0.00000000000E+00 -0.00000000000E+00 -0.59161715124E+01  0.59169024298E+01  0.93000000000E-01 0. -1.
       1023    2    1    2    0    0  0.00000000000E+00  0.00000000000E+00  0.10988086503E+02  0.22821416266E+02  0.20001974788E+02 0.  0.
        -11    1    3    3    0    0 -0.81778081129E+01 -0.57565317258E+01  0.55790086234E+01  0.11451617376E+02  0.51100000000E-03 0.  1.
         11    1    3    3    0    0  0.81778081129E+01  0.57565317258E+01  0.54090778796E+01  0.11369798890E+02  0.51100000000E-03 0. -1.
<mgrwt>
<rscale>  0 0.20001975E+02</rscale>
<asrwt>0</asrwt>
<pdfrwt beam="1">  1        3 0.26007309E-02 0.20001975E+02</pdfrwt>
<pdfrwt beam="2">  1       -3 0.91025616E-03 0.20001975E+02</pdfrwt>
<totfact> 0.17699269E+06</totfact>
</mgrwt>
</event>
<event>
 5    1  0.4247857E-007  0.2000203E+02  0.7818608E-02  0.1745288E+00
         -3   -1    0    0    0  501 -0.00000000000E+00  0.00000000000E+00  0.23035026404E+01  0.23053792344E+01  0.93000000000E-01 0.  1.
          3   -1    0    0  501    0  0.00000000000E+00 -0.00000000000E+00 -0.43401362189E+02  0.43401461829E+02  0.93000000000E-01 0. -1.
       1023    2    1    2    0    0  0.00000000000E+00  0.00000000000E+00 -0.41097859549E+02  0.45706841063E+02  0.20002031409E+02 0.  0.
        -11    1    3    3    0    0  0.28064711630E+01  0.95982534324E+01 -0.20851786766E+02  0.23125738062E+02  0.51100000000E-03 0.  1.
         11    1    3    3    0    0 -0.28064711630E+01 -0.95982534324E+01 -0.20246072783E+02  0.22581103001E+02  0.51100000000E-03 0. -1.
<mgrwt>
<rscale>  0 0.20002031E+02</rscale>
<asrwt>0</asrwt>
<pdfrwt beam="2">  1        3 0.66772840E-02 0.20002031E+02</pdfrwt>
<pdfrwt beam="1">  1       -3 0.35453707E-03 0.20002031E+02</pdfrwt>
<totfact> 0.16414796E+06</totfact>
</mgrwt>
</event>
<event>
 4    1  0.4133473E-007  0.2009162E+02  0.7818608E-02  0.1743512E+00
          3   -1    0    0  501    0  0.00000000000E+00  0.00000000000E+00  0.53356132273E+02  0.53356213323E+02  0.93000000000E-01 0. -1.
         -3   -1    0    0    0  501 -0.00000000000E+00 -0.00000000000E+00 -0.18901847401E+01  0.18924712287E+01  0.93000000000E-01 0.  1.
        -11    1    1    2    0    0 -0.28498276030E+00  0.10035720081E+02  0.24774647583E+02  0.26731630251E+02  0.51100000000E-03 0. -1.
         11    1    1    2    0    0  0.28498276030E+00 -0.10035720081E+02  0.26691299950E+02  0.28517054301E+02  0.51100000000E-03 0.  1.
<mgrwt>
<rscale>  0 0.20091625E+02</rscale>
<asrwt>0</asrwt>
<pdfrwt beam="1">  1        3 0.82088181E-02 0.20091625E+02</pdfrwt>
<pdfrwt beam="2">  1       -3 0.29097976E-03 0.20091625E+02</pdfrwt>
<totfact> 0.15803278E+06</totfact>
</mgrwt>
</event>
<event>
 5    1  0.4133473E-007  0.2000061E+02  0.7818608E-02  0.1745316E+00
         -3   -1    0    0    0  501 -0.00000000000E+00  0.00000000000E+00  0.10483528183E+01  0.10524697771E+01  0.93000000000E-01 0. -1.
          3   -1    0    0  501    0  0.00000000000E+00 -0.00000000000E+00 -0.95202484962E+02  0.95202530386E+02  0.93000000000E-01 0.  1.
       1023    2    1    2    0    0  0.00000000000E+00  0.00000000000E+00 -0.94154132144E+02  0.96255000163E+02  0.20000611408E+02 0.  0.
        -11    1    3    3    0    0 -0.99799396748E+01 -0.63440787147E+00 -0.46756218370E+02  0.47813655223E+02  0.51100000000E-03 0. -1.
         11    1    3    3    0    0  0.99799396748E+01  0.63440787147E+00 -0.47397913774E+02  0.48441344940E+02  0.51100000000E-03 0.  1.
<mgrwt>
<rscale>  0 0.20000611E+02</rscale>
<asrwt>0</asrwt>
<pdfrwt beam="2">  1        3 0.14646849E-01 0.20000611E+02</pdfrwt>
<pdfrwt beam="1">  1       -3 0.16160531E-03 0.20000611E+02</pdfrwt>
<totfact> 0.14308087E+06</totfact>
</mgrwt>
</event>
<event>
 5    1  0.4133473E-007  0.2000184E+02  0.7818608E-02  0.1745291E+00
          3   -1    0    0  501    0  0.00000000000E+00  0.00000000000E+00  0.13778380781E+01  0.13809731241E+01  0.93000000000E-01 0.  1.
         -3   -1    0    0    0  501 -0.00000000000E+00 -0.00000000000E+00 -0.72505175543E+02  0.72505235187E+02  0.93000000000E-01 0. -1.
       1023    2    1    2    0    0  0.00000000000E+00  0.00000000000E+00 -0.71127337465E+02  0.73886208311E+02  0.20001841009E+02 0.  0.
        -11    1    3    3    0    0  0.21791437786E+01  0.97603637495E+01 -0.35825980757E+02  0.37195621592E+02  0.51100000000E-03 0. -1.
         11    1    3    3    0    0 -0.21791437786E+01 -0.97603637495E+01 -0.35301356707E+02  0.36690586719E+02  0.51100000000E-03 0.  1.
<mgrwt>
<rscale>  0 0.20001841E+02</rscale>
<asrwt>0</asrwt>
<pdfrwt beam="1">  1        3 0.21222089E-03 0.20001841E+02</pdfrwt>
<pdfrwt beam="2">  1       -3 0.11154885E-01 0.20001841E+02</pdfrwt>
<totfact> 0.15153682E+06</totfact>
</mgrwt>
</event>
<event>
 5    1  0.4365640E-007  0.2000087E+02  0.7818608E-02  0.1745311E+00
          3   -1    0    0  501    0  0.00000000000E+00  0.00000000000E+00  0.15665714651E+02  0.15665990697E+02  0.93000000000E-01 0. -1.
         -3   -1    0    0    0  501 -0.00000000000E+00 -0.00000000000E+00 -0.63832501645E+01  0.63839276047E+01  0.93000000000E-01 0.  1.
       1023    2    1    2    0    0  0.00000000000E+00  0.00000000000E+00  0.92824644865E+01  0.22049918302E+02  0.20000868736E+02 0.  0.
        -11    1    3    3    0    0  0.77016014054E+01  0.63785897060E+01  0.47374453139E+01  0.11065462449E+02  0.51100000000E-03 0.  1.
         11    1    3    3    0    0 -0.77016014054E+01 -0.63785897060E+01  0.45450191725E+01  0.10984455853E+02  0.51100000000E-03 0. -1.
<mgrwt>
<rscale>  0 0.20000869E+02</rscale>
<asrwt>0</asrwt>
<pdfrwt beam="1">  1        3 0.24101833E-02 0.20000869E+02</pdfrwt>
<pdfrwt beam="2">  1       -3 0.98211184E-03 0.20000869E+02</pdfrwt>
<totfact> 0.17750588E+06</totfact>
</mgrwt>
</event>
<event>
 5    1  0.4252938E-007  0.2000110E+02  0.7818608E-02  0.1745306E+00
         -3   -1    0    0    0  501 -0.00000000000E+00  0.00000000000E+00  0.26576117580E+02  0.26576280301E+02  0.93000000000E-01 0. -1.
          3   -1    0    0  501    0  0.00000000000E+00 -0.00000000000E+00 -0.37624429935E+01  0.37635922042E+01  0.93000000000E-01 0.  1.
       1023    2    1    2    0    0  0.00000000000E+00  0.00000000000E+00  0.22813674586E+02  0.30339872505E+02  0.20001102857E+02 0.  0.
        -11    1    3    3    0    0  0.74768583600E+01 -0.66413511824E+01  0.11393952864E+02  0.15160247972E+02  0.51100000000E-03 0.  1.
         11    1    3    3    0    0 -0.74768583600E+01  0.66413511824E+01  0.11419721723E+02  0.15179624533E+02  0.51100000000E-03 0. -1.
<mgrwt>
<rscale>  0 0.20001103E+02</rscale>
<asrwt>0</asrwt>
<pdfrwt beam="2">  1        3 0.57893831E-03 0.20001103E+02</pdfrwt>
<pdfrwt beam="1">  1       -3 0.40887343E-02 0.20001103E+02</pdfrwt>
<totfact> 0.17246261E+06</totfact>
</mgrwt>
</event>
<event>
 5    1  0.4133473E-007  0.2000272E+02  0.7818608E-02  0.1745274E+00
         -3   -1    0    0    0  501 -0.00000000000E+00  0.00000000000E+00  0.84070744987E+00  0.84583569106E+00  0.93000000000E-01 0.  1.
          3   -1    0    0  501    0  0.00000000000E+00 -0.00000000000E+00 -0.11861282668E+03  0.11861286314E+03  0.93000000000E-01 0. -1.
       1023    2    1    2    0    0  0.00000000000E+00  0.00000000000E+00 -0.11777211923E+03  0.11945869883E+03  0.20002716270E+02 0.  0.
        -11    1    3    3    0    0  0.97349935221E+01  0.22899137945E+01 -0.59576356131E+02  0.60409899968E+02  0.51100000000E-03 0.  1.
         11    1    3    3    0    0 -0.97349935221E+01 -0.22899137945E+01 -0.58195763096E+02  0.59048798859E+02  0.51100000000E-03 0. -1.
<mgrwt>
<rscale>  0 0.20002716E+02</rscale>
<asrwt>0</asrwt>
<pdfrwt beam="2">  1        3 0.18248511E-01 0.20002716E+02</pdfrwt>
<pdfrwt beam="1">  1       -3 0.12973699E-03 0.20002716E+02</pdfrwt>
<totfact> 0.13534005E+06</totfact>
</mgrwt>
</event>
<event>
 5    1  0.4133473E-007  0.2000020E+02  0.7818608E-02  0.1745324E+00
          3   -1    0    0  501    0  0.00000000000E+00  0.00000000000E+00  0.66102095396E+02  0.66102160818E+02  0.93000000000E-01 0.  1.
         -3   -1    0    0    0  501 -0.00000000000E+00 -0.00000000000E+00 -0.15113468545E+01  0.15142055061E+01  0.93000000000E-01 0. -1.
       1023    2    1    2    0    0  0.00000000000E+00  0.00000000000E+00  0.64590748542E+02  0.67616366324E+02  0.20000204940E+02 0.  0.
        -11    1    3    3    0    0  0.44487980167E+01 -0.89559291907E+01  0.32161089082E+02  0.33679906809E+02  0.51100000000E-03 0.  1.
         11    1    3    3    0    0 -0.44487980167E+01  0.89559291907E+01  0.32429659460E+02  0.33936459515E+02  0.51100000000E-03 0. -1.
<mgrwt>
<rscale>  0 0.20000205E+02</rscale>
<asrwt>0</asrwt>
<pdfrwt beam="1">  1        3 0.10169775E-01 0.20000205E+02</pdfrwt>
<pdfrwt beam="2">  1       -3 0.23273990E-03 0.20000205E+02</pdfrwt>
<totfact> 0.15412574E+06</totfact>
</mgrwt>
</event>
<event>
 5    1  0.4133473E-007  0.2000020E+02  0.7818608E-02  0.1745324E+00
          3   -1    0    0  501    0  0.00000000000E+00  0.00000000000E+00  0.10398577341E+03  0.10398581500E+03  0.93000000000E-01 0. -1.
         -3   -1    0    0    0  501 -0.00000000000E+00 -0.00000000000E+00 -0.95939855504E+00  0.96389552723E+00  0.93000000000E-01 0.  1.
       1023    2    1    2    0    0  0.00000000000E+00  0.00000000000E+00  0.10302637486E+03  0.10494971053E+03  0.20000195586E+02 0.  0.
        -11    1    3    3    0    0 -0.41673468969E+01 -0.90903291009E+01  0.51339761270E+02  0.52304607358E+02  0.51100000000E-03 0. -1.
         11    1    3    3    0    0  0.41673468969E+01  0.90903291009E+01  0.51686613589E+02  0.52645103171E+02  0.51100000000E-03 0.  1.
<mgrwt>
<rscale>  0 0.20000196E+02</rscale>
<asrwt>0</asrwt>
<pdfrwt beam="1">  1        3 0.15998160E-01 0.20000196E+02</pdfrwt>
<pdfrwt beam="2">  1       -3 0.14794890E-03 0.20000196E+02</pdfrwt>
<totfact> 0.14008683E+06</totfact>
</mgrwt>
</event>
<event>
 5    1  0.4133473E-007  0.2000499E+02  0.7818608E-02  0.1745229E+00
          3   -1    0    0  501    0  0.00000000000E+00  0.00000000000E+00  0.23753934274E+01  0.23772132708E+01  0.93000000000E-01 0.  1.
         -3   -1    0    0    0  501 -0.00000000000E+00 -0.00000000000E+00 -0.42101315361E+02  0.42101418077E+02  0.93000000000E-01 0. -1.
       1023    2    1    2    0    0  0.00000000000E+00  0.00000000000E+00 -0.39725921933E+02  0.44478631348E+02  0.20004993705E+02 0.  0.
        -11    1    3    3    0    0  0.69929244175E+01  0.71515967374E+01 -0.19729276728E+02  0.22119916100E+02  0.51100000000E-03 0.  1.
         11    1    3    3    0    0 -0.69929244175E+01 -0.71515967374E+01 -0.19996645205E+02  0.22358715248E+02  0.51100000000E-03 0. -1.
<mgrwt>
<rscale>  0 0.20004994E+02</rscale>
<asrwt>0</asrwt>
<pdfrwt beam="1">  1        3 0.36559306E-03 0.20004994E+02</pdfrwt>
<pdfrwt beam="2">  1       -3 0.64772728E-02 0.20004994E+02</pdfrwt>
<totfact> 0.16473860E+06</totfact>
</mgrwt>
</event>
<event>
 5    1  0.4133473E-007  0.2000009E+02  0.7818608E-02  0.1745326E+00
         -3   -1    0    0    0  501 -0.00000000000E+00  0.00000000000E+00  0.43087365784E+02  0.43087466150E+02  0.93000000000E-01 0. -1.
          3   -1    0    0  501    0  0.00000000000E+00 -0.00000000000E+00 -0.23198524492E+01  0.23217158280E+01  0.93000000000E-01 0.  1.
       1023    2    1    2    0    0  0.00000000000E+00  0.00000000000E+00  0.40767513335E+02  0.45409181978E+02  0.20000091609E+02 0.  0.
        -11    1    3    3    0    0  0.99823989663E+01 -0.59374049005E+00  0.20406340681E+02  0.22724866494E+02  0.51100000000E-03 0. -1.
         11    1    3    3    0    0 -0.99823989663E+01  0.59374049005E+00  0.20361172654E+02  0.22684315484E+02  0.51100000000E-03 0.  1.
<mgrwt>
<rscale>  0 0.20000092E+02</rscale>
<asrwt>0</asrwt>
<pdfrwt beam="2">  1        3 0.35705145E-03 0.20000092E+02</pdfrwt>
<pdfrwt beam="1">  1       -3 0.66289763E-02 0.20000092E+02</pdfrwt>
<totfact> 0.16435594E+06</totfact>
</mgrwt>
</event>
<event>
 5    1  0.4133473E-007  0.2000039E+02  0.7818608E-02  0.1745320E+00
         -3   -1    0    0    0  501 -0.00000000000E+00  0.00000000000E+00  0.51693612872E+01  0.51701977832E+01  0.93000000000E-01 0.  1.
          3   -1    0    0  501    0  0.00000000000E+00 -0.00000000000E+00 -0.19342995605E+02  0.19343219173E+02  0.93000000000E-01 0. -1.
       1023    2    1    2    0    0  0.00000000000E+00  0.00000000000E+00 -0.14173634318E+02  0.24513416956E+02  0.20000392524E+02 0.  0.
        -11    1    3    3    0    0  0.18738761374E+01 -0.98230363147E+01 -0.71134109936E+01  0.12272085008E+02  0.51100000000E-03 0. -1.
         11    1    3    3    0    0 -0.18738761374E+01  0.98230363147E+01 -0.70602233243E+01  0.12241331948E+02  0.51100000000E-03 0.  1.
<mgrwt>
<rscale>  0 0.20000393E+02</rscale>
<asrwt>0</asrwt>
<pdfrwt beam="2">  1        3 0.29759270E-02 0.20000393E+02</pdfrwt>
<pdfrwt beam="1">  1       -3 0.79536791E-03 0.20000393E+02</pdfrwt>
<totfact> 0.17596065E+06</totfact>
</mgrwt>
</event>
<event>
 5    1  0.4133473E-007  0.2000051E+02  0.7818608E-02  0.1745318E+00
          3   -1    0    0  501    0  0.00000000000E+00  0.00000000000E+00  0.27417387540E+01  0.27433155843E+01  0.93000000000E-01 0. -1.
         -3   -1    0    0    0  501 -0.00000000000E+00 -0.00000000000E+00 -0.36462952170E+02  0.36463070770E+02  0.93000000000E-01 0.  1.
       1023    2    1    2    0    0  0.00000000000E+00  0.00000000000E+00 -0.33721213416E+02  0.39206386354E+02  0.20000512411E+02 0.  0.
        -11    1    3    3    0    0 -0.72170123436E+01  0.69220731449E+01 -0.16995852773E+02  0.19719517629E+02  0.51100000000E-03 0. -1.
         11    1    3    3    0    0  0.72170123436E+01 -0.69220731449E+01 -0.16725360643E+02  0.19486868725E+02  0.51100000000E-03 0.  1.
<mgrwt>
<rscale>  0 0.20000512E+02</rscale>
<asrwt>0</asrwt>
<pdfrwt beam="1">  1        3 0.42193640E-03 0.20000512E+02</pdfrwt>
<pdfrwt beam="2">  1       -3 0.56098150E-02 0.20000512E+02</pdfrwt>
<totfact> 0.16755117E+06</totfact>
</mgrwt>
</event>
<event>
 4    1  0.4133473E-007  0.2001627E+02  0.7818608E-02  0.1745005E+00
          3   -1    0    0  501    0  0.00000000000E+00  0.00000000000E+00  0.30798805045E+02  0.30798945456E+02  0.93000000000E-01 0.  1.
         -3   -1    0    0    0  501 -0.00000000000E+00 -0.00000000000E+00 -0.32513516927E+01  0.32526814830E+01  0.93000000000E-01 0. -1.
        -11    1    1    2    0    0  0.52555837323E+01  0.85170565094E+01  0.13710862015E+02  0.16974956536E+02  0.51100000000E-03 0.  1.
         11    1    1    2    0    0 -0.52555837323E+01 -0.85170565094E+01  0.13836591338E+02  0.17076670403E+02  0.51100000000E-03 0. -1.
<mgrwt>
<rscale>  0 0.20016271E+02</rscale>
<asrwt>0</asrwt>
<pdfrwt beam="1">  1        3 0.47383907E-02 0.20016271E+02</pdfrwt>
<pdfrwt beam="2">  1       -3 0.50032105E-03 0.20016271E+02</pdfrwt>
<totfact> 0.17005068E+06</totfact>
</mgrwt>
</event>
<event>
 5    1  0.4133473E-007  0.2000052E+02  0.7818608E-02  0.1745318E+00
         -3   -1    0    0    0  501 -0.00000000000E+00  0.00000000000E+00  0.14780578789E+01  0.14809807877E+01  0.93000000000E-01 0.  1.
          3   -1    0    0  501    0  0.00000000000E+00 -0.00000000000E+00 -0.67590059877E+02  0.67590123858E+02  0.93000000000E-01 0. -1.
       1023    2    1    2    0    0  0.00000000000E+00  0.00000000000E+00 -0.66112001998E+02  0.69071104646E+02  0.20000517214E+02 0.  0.
        -11    1    3    3    0    0  0.72374881693E+01 -0.69009583978E+01 -0.33148030266E+02  0.34623638927E+02  0.51100000000E-03 0. -1.
         11    1    3    3    0    0 -0.72374881693E+01  0.69009583978E+01 -0.32963971732E+02  0.34447465719E+02  0.51100000000E-03 0.  1.
<mgrwt>
<rscale>  0 0.20000517E+02</rscale>
<asrwt>0</asrwt>
<pdfrwt beam="2">  1        3 0.10398698E-01 0.20000517E+02</pdfrwt>
<pdfrwt beam="1">  1       -3 0.22762333E-03 0.20000517E+02</pdfrwt>
<totfact> 0.15350928E+06</totfact>
</mgrwt>
</event>
<event>
 5    1  0.4133473E-007  0.2000093E+02  0.7818608E-02  0.1745310E+00
         -3   -1    0    0    0  501 -0.00000000000E+00  0.00000000000E+00  0.20237280243E+01  0.20258637951E+01  0.93000000000E-01 0.  1.
          3   -1    0    0  501    0  0.00000000000E+00 -0.00000000000E+00 -0.49390097938E+02  0.49390185496E+02  0.93000000000E-01 0. -1.
       1023    2    1    2    0    0  0.00000000000E+00  0.00000000000E+00 -0.47366369914E+02  0.51416049292E+02  0.20000928126E+02 0.  0.
        -11    1    3    3    0    0  0.98717286649E+01 -0.15976769770E+01 -0.23489398088E+02  0.25529501001E+02  0.51100000000E-03 0.  1.
         11    1    3    3    0    0 -0.98717286649E+01  0.15976769770E+01 -0.23876971826E+02  0.25886548291E+02  0.51100000000E-03 0. -1.
<mgrwt>
<rscale>  0 0.20000928E+02</rscale>
<asrwt>0</asrwt>
<pdfrwt beam="2">  1        3 0.75986467E-02 0.20000928E+02</pdfrwt>
<pdfrwt beam="1">  1       -3 0.31151384E-03 0.20000928E+02</pdfrwt>
<totfact> 0.16137629E+06</totfact>
</mgrwt>
</event>
<event>
 5    1  0.4136467E-007  0.2000049E+02  0.7818608E-02  0.1745318E+00
         -3   -1    0    0    0  501 -0.00000000000E+00  0.00000000000E+00  0.11886094775E+02  0.11886458598E+02  0.93000000000E-01 0. -1.
          3   -1    0    0  501    0  0.00000000000E+00 -0.00000000000E+00 -0.84128545456E+01  0.84133685647E+01  0.93000000000E-01 0.  1.
       1023    2    1    2    0    0  0.00000000000E+00  0.00000000000E+00  0.34732402290E+01  0.20299827162E+02  0.20000489622E+02 0.  0.
        -11    1    3    3    0    0  0.93997863098E+01  0.34127164801E+01  0.16881606211E+01  0.10141622305E+02  0.51100000000E-03 0.  1.
         11    1    3    3    0    0 -0.93997863098E+01 -0.34127164801E+01  0.17850796079E+01  0.10158204857E+02  0.51100000000E-03 0. -1.
<mgrwt>
<rscale>  0 0.20000490E+02</rscale>
<asrwt>0</asrwt>
<pdfrwt beam="2">  1        3 0.12943528E-02 0.20000490E+02</pdfrwt>
<pdfrwt beam="1">  1       -3 0.18286975E-02 0.20000490E+02</pdfrwt>
<totfact> 0.17865207E+06</totfact>
</mgrwt>
</event>
<event>
 5    1  0.4230736E-007  0.2000120E+02  0.7818608E-02  0.1745304E+00
         -3   -1    0    0    0  501 -0.00000000000E+00  0.00000000000E+00  0.34639628246E+02  0.34639753089E+02  0.93000000000E-01 0.  1.
          3   -1    0    0  501    0  0.00000000000E+00 -0.00000000000E+00 -0.28863331244E+01  0.28878310036E+01  0.93000000000E-01 0. -1.
       1023    2    1    2    0    0  0.00000000000E+00  0.00000000000E+00  0.31753295122E+02  0.37527584092E+02  0.20001195382E+02 0.  0.
        -11    1    3    3    0    0  0.86193033981E+01 -0.50714249457E+01  0.15849337346E+02  0.18740683996E+02  0.51100000000E-03 0. -1.
         11    1    3    3    0    0 -0.86193033981E+01  0.50714249457E+01  0.15903957776E+02  0.18786900097E+02  0.51100000000E-03 0.  1.
<mgrwt>
<rscale>  0 0.20001195E+02</rscale>
<asrwt>0</asrwt>
<pdfrwt beam="2">  1        3 0.44417606E-03 0.20001195E+02</pdfrwt>
<pdfrwt beam="1">  1       -3 0.53292986E-02 0.20001195E+02</pdfrwt>
<totfact> 0.16843779E+06</totfact>
</mgrwt>
</event>
<event>
 5    1  0.4133473E-007  0.2000074E+02  0.7818608E-02  0.1745313E+00
          3   -1    0    0  501    0  0.00000000000E+00  0.00000000000E+00  0.51791398637E+02  0.51791482136E+02  0.93000000000E-01 0.  1.
         -3   -1    0    0    0  501 -0.00000000000E+00 -0.00000000000E+00 -0.19297601306E+01  0.19319997830E+01  0.93000000000E-01 0. -1.
       1023    2    1    2    0    0  0.00000000000E+00  0.00000000000E+00  0.49861638507E+02  0.53723481919E+02  0.20000737859E+02 0.  0.
        -11    1    3    3    0    0 -0.95138900065E+01  0.30801887906E+01  0.25133834309E+02  0.27050162539E+02  0.51100000000E-03 0. -1.
         11    1    3    3    0    0  0.95138900065E+01 -0.30801887906E+01  0.24727804198E+02  0.26673319380E+02  0.51100000000E-03 0.  1.
<mgrwt>
<rscale>  0 0.20000738E+02</rscale>
<asrwt>0</asrwt>
<pdfrwt beam="1">  1        3 0.79680870E-02 0.20000738E+02</pdfrwt>
<pdfrwt beam="2">  1       -3 0.29706485E-03 0.20000738E+02</pdfrwt>
<totfact> 0.16028943E+06</totfact>
</mgrwt>
</event>
<event>
 4    1  0.4133473E-007  0.2002514E+02  0.7818608E-02  0.1744829E+00
          3   -1    0    0  501    0  0.00000000000E+00  0.00000000000E+00  0.11613664210E+02  0.11614036567E+02  0.93000000000E-01 0. -1.
         -3   -1    0    0    0  501 -0.00000000000E+00 -0.00000000000E+00 -0.86314441486E+01  0.86319451510E+01  0.93000000000E-01 0.  1.
        -11    1    1    2    0    0  0.43935850003E+01  0.89900234669E+01  0.11302090791E+01  0.10069830382E+02  0.51100000000E-03 0. -1.
         11    1    1    2    0    0 -0.43935850003E+01 -0.89900234669E+01  0.18520109825E+01  0.10176151337E+02  0.51100000000E-03 0.  1.
<mgrwt>
<rscale>  0 0.20025138E+02</rscale>
<asrwt>0</asrwt>
<pdfrwt beam="1">  1        3 0.17867848E-02 0.20025138E+02</pdfrwt>
<pdfrwt beam="2">  1       -3 0.13279817E-02 0.20025138E+02</pdfrwt>
<totfact> 0.17821093E+06</totfact>
</mgrwt>
</event>
<event>
 5    1  0.4133473E-007  0.2000042E+02  0.7818608E-02  0.1745320E+00
         -3   -1    0    0    0  501 -0.00000000000E+00  0.00000000000E+00  0.29551753921E+01  0.29566383949E+01  0.93000000000E-01 0. -1.
          3   -1    0    0  501    0  0.00000000000E+00 -0.00000000000E+00 -0.33830455382E+02  0.33830583211E+02  0.93000000000E-01 0.  1.
       1023    2    1    2    0    0  0.00000000000E+00  0.00000000000E+00 -0.30875279990E+02  0.36787221606E+02  0.20000418970E+02 0.  0.
        -11    1    3    3    0    0 -0.63131780979E+01  0.77552919893E+01 -0.15545172746E+02  0.18483862354E+02  0.51100000000E-03 0.  1.
         11    1    3    3    0    0  0.63131780979E+01 -0.77552919893E+01 -0.15330107244E+02  0.18303359252E+02  0.51100000000E-03 0. -1.
<mgrwt>
<rscale>  0 0.20000419E+02</rscale>
<asrwt>0</asrwt>
<pdfrwt beam="2">  1        3 0.52048075E-02 0.20000419E+02</pdfrwt>
<pdfrwt beam="1">  1       -3 0.45476476E-03 0.20000419E+02</pdfrwt>
<totfact> 0.16883217E+06</totfact>
</mgrwt>
</event>
<event>
 5    1  0.4133473E-007  0.2000017E+02  0.7818608E-02  0.1745325E+00
         -3   -1    0    0    0  501 -0.00000000000E+00  0.00000000000E+00  0.31364496691E+02  0.31364634569E+02  0.93000000000E-01 0.  1.
          3   -1    0    0  501    0  0.00000000000E+00 -0.00000000000E+00 -0.31875496363E+01  0.31889060325E+01  0.93000000000E-01 0. -1.
       1023    2    1    2    0    0  0.00000000000E+00  0.00000000000E+00  0.28176947054E+02  0.34553540602E+02  0.20000170569E+02 0.  0.
        -11    1    3    3    0    0 -0.64201449218E+01  0.76670229354E+01  0.14063801701E+02  0.17256651472E+02  0.51100000000E-03 0.  1.
         11    1    3    3    0    0  0.64201449218E+01 -0.76670229354E+01  0.14113145354E+02  0.17296889129E+02  0.51100000000E-03 0. -1.
<mgrwt>
<rscale>  0 0.20000171E+02</rscale>
<asrwt>0</asrwt>
<pdfrwt beam="2">  1        3 0.49050718E-03 0.20000171E+02</pdfrwt>
<pdfrwt beam="1">  1       -3 0.48254223E-02 0.20000171E+02</pdfrwt>
<totfact> 0.17008494E+06</totfact>
</mgrwt>
</event>
<event>
 4    1  0.4133473E-007  0.2001273E+02  0.7818608E-02  0.1745075E+00
          3   -1    0    0  501    0  0.00000000000E+00  0.00000000000E+00  0.15676550397E+01  0.15704111957E+01  0.93000000000E-01 0.  1.
         -3   -1    0    0    0  501 -0.00000000000E+00 -0.00000000000E+00 -0.63811917357E+02  0.63811985126E+02  0.93000000000E-01 0. -1.
        -11    1    1    2    0    0 -0.94162777228E+01  0.33696371448E+01 -0.32189050688E+02  0.33706909159E+02  0.51100000000E-03 0.  1.
         11    1    1    2    0    0  0.94162777228E+01 -0.33696371448E+01 -0.30055211629E+02  0.31675487162E+02  0.51100000000E-03 0. -1.
<mgrwt>
<rscale>  0 0.20012735E+02</rscale>
<asrwt>0</asrwt>
<pdfrwt beam="1">  1        3 0.24139497E-03 0.20012735E+02</pdfrwt>
<pdfrwt beam="2">  1       -3 0.98174333E-02 0.20012735E+02</pdfrwt>
<totfact> 0.15489669E+06</totfact>
</mgrwt>
</event>
<event>
 5    1  0.4186173E-007  0.2000139E+02  0.7818608E-02  0.1745300E+00
         -3   -1    0    0    0  501 -0.00000000000E+00  0.00000000000E+00  0.25365502662E+02  0.25365673148E+02  0.93000000000E-01 0.  1.
          3   -1    0    0  501    0  0.00000000000E+00 -0.00000000000E+00 -0.39421773572E+01  0.39432741873E+01  0.93000000000E-01 0. -1.
       1023    2    1    2    0    0  0.00000000000E+00  0.00000000000E+00  0.21423325304E+02  0.29308947336E+02  0.20001388123E+02 0.  0.
        -11    1    3    3    0    0 -0.97257463328E+01 -0.23288712096E+01  0.10697111730E+02  0.14643837696E+02  0.51100000000E-03 0. -1.
         11    1    3    3    0    0  0.97257463328E+01  0.23288712096E+01  0.10726213574E+02  0.14665109640E+02  0.51100000000E-03 0.  1.
<mgrwt>
<rscale>  0 0.20001388E+02</rscale>
<asrwt>0</asrwt>
<pdfrwt beam="2">  1        3 0.60658633E-03 0.20001388E+02</pdfrwt>
<pdfrwt beam="1">  1       -3 0.39024824E-02 0.20001388E+02</pdfrwt>
<totfact> 0.17305911E+06</totfact>
</mgrwt>
</event>
<event>
 5    1  0.4269895E-007  0.2000177E+02  0.7818608E-02  0.1745293E+00
         -3   -1    0    0    0  501 -0.00000000000E+00  0.00000000000E+00  0.31811193999E+02  0.31811329942E+02  0.93000000000E-01 0. -1.
          3   -1    0    0  501    0  0.00000000000E+00 -0.00000000000E+00 -0.31432744463E+01  0.31446499400E+01  0.93000000000E-01 0.  1.
       1023    2    1    2    0    0  0.00000000000E+00  0.00000000000E+00  0.28667919553E+02  0.34955979882E+02  0.20001772871E+02 0.  0.
        -11    1    3    3    0    0 -0.68479385010E+01  0.72882245160E+01  0.14207319732E+02  0.17374130555E+02  0.51100000000E-03 0. -1.
         11    1    3    3    0    0  0.68479385010E+01 -0.72882245160E+01  0.14460599821E+02  0.17581849327E+02  0.51100000000E-03 0.  1.
<mgrwt>
<rscale>  0 0.20001773E+02</rscale>
<asrwt>0</asrwt>
<pdfrwt beam="2">  1        3 0.48369692E-03 0.20001773E+02</pdfrwt>
<pdfrwt beam="1">  1       -3 0.48941464E-02 0.20001773E+02</pdfrwt>
<totfact> 0.16983245E+06</totfact>
</mgrwt>
</event>
<event>
 5    1  0.4170072E-007  0.2000215E+02  0.7818608E-02  0.1745285E+00
         -3   -1    0    0    0  501 -0.00000000000E+00  0.00000000000E+00  0.41005563761E+01  0.41016108535E+01  0.93000000000E-01 0.  1.
          3   -1    0    0  501    0  0.00000000000E+00 -0.00000000000E+00 -0.24387889393E+02  0.24388066714E+02  0.93000000000E-01 0. -1.
       1023    2    1    2    0    0  0.00000000000E+00  0.00000000000E+00 -0.20287333017E+02  0.28489677568E+02  0.20002146059E+02 0.  0.
        -11    1    3    3    0    0  0.43451787332E+01 -0.90077886796E+01 -0.10179313563E+02  0.14270222843E+02  0.51100000000E-03 0. -1.
         11    1    3    3    0    0 -0.43451787332E+01  0.90077886796E+01 -0.10108019454E+02  0.14219454725E+02  0.51100000000E-03 0.  1.
<mgrwt>
<rscale>  0 0.20002146E+02</rscale>
<asrwt>0</asrwt>
<pdfrwt beam="2">  1        3 0.37520776E-02 0.20002146E+02</pdfrwt>
<pdfrwt beam="1">  1       -3 0.63094960E-03 0.20002146E+02</pdfrwt>
<totfact> 0.17351275E+06</totfact>
</mgrwt>
</event>
<event>
 5    1  0.4133473E-007  0.2000047E+02  0.7818608E-02  0.1745319E+00
         -3   -1    0    0    0  501 -0.00000000000E+00  0.00000000000E+00  0.72884988556E+02  0.72885047890E+02  0.93000000000E-01 0.  1.
          3   -1    0    0  501    0  0.00000000000E+00 -0.00000000000E+00 -0.13704532827E+01  0.13736051835E+01  0.93000000000E-01 0. -1.
       1023    2    1    2    0    0  0.00000000000E+00  0.00000000000E+00  0.71514535274E+02  0.74258653073E+02  0.20000470015E+02 0.  0.
        -11    1    3    3    0    0  0.52924520060E+01 -0.84847715586E+01  0.35970661212E+02  0.37334834470E+02  0.51100000000E-03 0. -1.
         11    1    3    3    0    0 -0.52924520060E+01  0.84847715586E+01  0.35543874062E+02  0.36923818603E+02  0.51100000000E-03 0.  1.
<mgrwt>
<rscale>  0 0.20000470E+02</rscale>
<asrwt>0</asrwt>
<pdfrwt beam="2">  1        3 0.21108590E-03 0.20000470E+02</pdfrwt>
<pdfrwt beam="1">  1       -3 0.11213326E-01 0.20000470E+02</pdfrwt>
<totfact> 0.15140869E+06</totfact>
</mgrwt>
</event>
<event>
 5    1  0.4211692E-007  0.2000115E+02  0.7818608E-02  0.1745305E+00
         -3   -1    0    0    0  501 -0.00000000000E+00  0.00000000000E+00  0.46487857643E+02  0.46487950667E+02  0.93000000000E-01 0.  1.
          3   -1    0    0  501    0  0.00000000000E+00 -0.00000000000E+00 -0.21502459822E+01  0.21522562078E+01  0.93000000000E-01 0. -1.
       1023    2    1    2    0    0  0.00000000000E+00  0.00000000000E+00  0.44337611660E+02  0.48640206875E+02  0.20001147893E+02 0.  0.
        -11    1    3    3    0    0  0.32495730063E+01  0.94578936213E+01  0.22172672524E+02  0.24323628092E+02  0.51100000000E-03 0.  1.
         11    1    3    3    0    0 -0.32495730063E+01 -0.94578936213E+01  0.22164939137E+02  0.24316578782E+02  0.51100000000E-03 0. -1.
<mgrwt>
<rscale>  0 0.20001148E+02</rscale>
<asrwt>0</asrwt>
<pdfrwt beam="2">  1        3 0.33096889E-03 0.20001148E+02</pdfrwt>
<pdfrwt beam="1">  1       -3 0.71521393E-02 0.20001148E+02</pdfrwt>
<totfact> 0.16273748E+06</totfact>
</mgrwt>
</event>
<event>
 5    1  0.4133473E-007  0.2000065E+02  0.7818608E-02  0.1745315E+00
         -3   -1    0    0    0  501 -0.00000000000E+00  0.00000000000E+00  0.10853565822E+01  0.10893337003E+01  0.93000000000E-01 0.  1.
          3   -1    0    0  501    0  0.00000000000E+00 -0.00000000000E+00 -0.91969123045E+02  0.91969170067E+02  0.93000000000E-01 0. -1.
       1023    2    1    2    0    0  0.00000000000E+00  0.00000000000E+00 -0.90883766463E+02  0.93058503767E+02  0.20000652910E+02 0.  0.
        -11    1    3    3    0    0 -0.39945888405E+01 -0.91677768640E+01 -0.45252525783E+02  0.46344319638E+02  0.51100000000E-03 0. -1.
         11    1    3    3    0    0  0.39945888405E+01  0.91677768640E+01 -0.45631240680E+02  0.46714184129E+02  0.51100000000E-03 0.  1.
<mgrwt>
<rscale>  0 0.20000653E+02</rscale>
<asrwt>0</asrwt>
<pdfrwt beam="2">  1        3 0.14149399E-01 0.20000653E+02</pdfrwt>
<pdfrwt beam="1">  1       -3 0.16728756E-03 0.20000653E+02</pdfrwt>
<totfact> 0.14422036E+06</totfact>
</mgrwt>
</event>
<event>
 5    1  0.4133473E-007  0.2001025E+02  0.7818608E-02  0.1745124E+00
          3   -1    0    0  501    0  0.00000000000E+00  0.00000000000E+00  0.11595292710E+01  0.11632528230E+01  0.93000000000E-01 0. -1.
         -3   -1    0    0    0  501 -0.00000000000E+00 -0.00000000000E+00 -0.86188148493E+02  0.86188198668E+02  0.93000000000E-01 0.  1.
       1023    2    1    2    0    0  0.00000000000E+00  0.00000000000E+00 -0.85028619222E+02  0.87351451491E+02  0.20010247145E+02 0.  0.
        -11    1    3    3    0    0 -0.25031987375E+01  0.96837502842E+01 -0.43596648456E+02  0.44729283253E+02  0.51100000000E-03 0.  1.
         11    1    3    3    0    0  0.25031987375E+01 -0.96837502842E+01 -0.41431970766E+02  0.42622168238E+02  0.51100000000E-03 0. -1.
<mgrwt>
<rscale>  0 0.20010247E+02</rscale>
<asrwt>0</asrwt>
<pdfrwt beam="1">  1        3 0.17867947E-03 0.20010247E+02</pdfrwt>
<pdfrwt beam="2">  1       -3 0.13260000E-01 0.20010247E+02</pdfrwt>
<totfact> 0.14618764E+06</totfact>
</mgrwt>
</event>
<event>
 5    1  0.4133473E-007  0.2000072E+02  0.7818608E-02  0.1745314E+00
         -3   -1    0    0    0  501 -0.00000000000E+00  0.00000000000E+00  0.31218557458E+01  0.31232406724E+01  0.93000000000E-01 0.  1.
          3   -1    0    0  501    0  0.00000000000E+00 -0.00000000000E+00 -0.32025970251E+02  0.32026105282E+02  0.93000000000E-01 0. -1.
       1023    2    1    2    0    0  0.00000000000E+00  0.00000000000E+00 -0.28904114506E+02  0.35149345954E+02  0.20000717129E+02 0.  0.
        -11    1    3    3    0    0  0.61793825471E+00  0.99809990229E+01 -0.14328014185E+02  0.17472669513E+02  0.51100000000E-03 0.  1.
         11    1    3    3    0    0 -0.61793825471E+00 -0.99809990229E+01 -0.14576100321E+02  0.17676676441E+02  0.51100000000E-03 0. -1.
<mgrwt>
<rscale>  0 0.20000717E+02</rscale>
<asrwt>0</asrwt>
<pdfrwt beam="2">  1        3 0.49271890E-02 0.20000717E+02</pdfrwt>
<pdfrwt beam="1">  1       -3 0.48040244E-03 0.20000717E+02</pdfrwt>
<totfact> 0.16972476E+06</totfact>
</mgrwt>
</event>
<event>
 5    1  0.4319097E-007  0.2000120E+02  0.7818608E-02  0.1745304E+00
          3   -1    0    0  501    0  0.00000000000E+00  0.00000000000E+00  0.39296381320E+01  0.39307384609E+01  0.93000000000E-01 0. -1.
         -3   -1    0    0    0  501 -0.00000000000E+00 -0.00000000000E+00 -0.25445932791E+02  0.25446102739E+02  0.93000000000E-01 0.  1.
       1023    2    1    2    0    0  0.00000000000E+00  0.00000000000E+00 -0.21516294659E+02  0.29376841200E+02  0.20001196540E+02 0.  0.
        -11    1    3    3    0    0 -0.91830823485E+01  0.39601634726E+01 -0.10770378330E+02  0.14697378874E+02  0.51100000000E-03 0.  1.
         11    1    3    3    0    0  0.91830823485E+01 -0.39601634726E+01 -0.10745916329E+02  0.14679462326E+02  0.51100000000E-03 0. -1.
<mgrwt>
<rscale>  0 0.20001197E+02</rscale>
<asrwt>0</asrwt>
<pdfrwt beam="1">  1        3 0.60465744E-03 0.20001197E+02</pdfrwt>
<pdfrwt beam="2">  1       -3 0.39148565E-02 0.20001197E+02</pdfrwt>
<totfact> 0.17302283E+06</totfact>
</mgrwt>
</event>
<event>
 4    1  0.4133473E-007  0.2004579E+02  0.7818608E-02  0.1744419E+00
         -3   -1    0    0    0  501 -0.00000000000E+00  0.00000000000E+00  0.19299088690E+02  0.19299312767E+02  0.93000000000E-01 0.  1.
          3   -1    0    0  501    0  0.00000000000E+00 -0.00000000000E+00 -0.52046761924E+01  0.52055070135E+01  0.93000000000E-01 0. -1.
        -11    1    1    2    0    0 -0.92996811944E+01 -0.37232388847E+01  0.66383659008E+01  0.12017257599E+02  0.51100000000E-03 0.  1.
         11    1    1    2    0    0  0.92996811944E+01  0.37232388847E+01  0.74560465970E+01  0.12487562181E+02  0.51100000000E-03 0. -1.
<mgrwt>
<rscale>  0 0.20045791E+02</rscale>
<asrwt>0</asrwt>
<pdfrwt beam="2">  1        3 0.80080056E-03 0.20045791E+02</pdfrwt>
<pdfrwt beam="1">  1       -3 0.29691717E-02 0.20045791E+02</pdfrwt>
<totfact> 0.17512038E+06</totfact>
</mgrwt>
</event>
<event>
 5    1  0.4200069E-007  0.2000153E+02  0.7818608E-02  0.1745298E+00
          3   -1    0    0  501    0  0.00000000000E+00  0.00000000000E+00  0.68912210405E+01  0.68918485495E+01  0.93000000000E-01 0. -1.
         -3   -1    0    0    0  501 -0.00000000000E+00 -0.00000000000E+00 -0.14511997445E+02  0.14512295437E+02  0.93000000000E-01 0.  1.
       1023    2    1    2    0    0  0.00000000000E+00  0.00000000000E+00 -0.76207764045E+01  0.21404143986E+02  0.20001528611E+02 0.  0.
        -11    1    3    3    0    0 -0.25962248802E+01 -0.96572839891E+01 -0.36942968168E+01  0.10660738572E+02  0.51100000000E-03 0. -1.
         11    1    3    3    0    0  0.25962248802E+01  0.96572839891E+01 -0.39264795877E+01  0.10743405414E+02  0.51100000000E-03 0.  1.
<mgrwt>
<rscale>  0 0.20001529E+02</rscale>
<asrwt>0</asrwt>
<pdfrwt beam="1">  1        3 0.10602590E-02 0.20001529E+02</pdfrwt>
<pdfrwt beam="2">  1       -3 0.22326862E-02 0.20001529E+02</pdfrwt>
<totfact> 0.17791550E+06</totfact>
</mgrwt>
</event>
<event>
 5    1  0.4133473E-007  0.2000245E+02  0.7818608E-02  0.1745279E+00
          3   -1    0    0  501    0  0.00000000000E+00  0.00000000000E+00  0.10971058895E+01  0.11010405682E+01  0.93000000000E-01 0. -1.
         -3   -1    0    0    0  501 -0.00000000000E+00 -0.00000000000E+00 -0.91004066737E+02  0.91004114257E+02  0.93000000000E-01 0.  1.
       1023    2    1    2    0    0  0.00000000000E+00  0.00000000000E+00 -0.89906960847E+02  0.92105154825E+02  0.20002448263E+02 0.  0.
        -11    1    3    3    0    0  0.39121397617E+01  0.92043026136E+01 -0.44854747988E+02  0.45956201339E+02  0.51100000000E-03 0.  1.
         11    1    3    3    0    0 -0.39121397617E+01 -0.92043026136E+01 -0.45052212859E+02  0.46148953486E+02  0.51100000000E-03 0. -1.
<mgrwt>
<rscale>  0 0.20002448E+02</rscale>
<asrwt>0</asrwt>
<pdfrwt beam="1">  1        3 0.16909192E-03 0.20002448E+02</pdfrwt>
<pdfrwt beam="2">  1       -3 0.14000926E-01 0.20002448E+02</pdfrwt>
<totfact> 0.14456550E+06</totfact>
</mgrwt>
</event>
<event>
 5    1  0.4133473E-007  0.2001141E+02  0.7818608E-02  0.1745101E+00
          3   -1    0    0  501    0  0.00000000000E+00  0.00000000000E+00  0.31692966251E+02  0.31693102701E+02  0.93000000000E-01 0. -1.
         -3   -1    0    0    0  501 -0.00000000000E+00 -0.00000000000E+00 -0.31580486908E+01  0.31594177523E+01  0.93000000000E-01 0.  1.
       1023    2    1    2    0    0  0.00000000000E+00  0.00000000000E+00  0.28534917560E+02  0.34852520453E+02  0.20011413287E+02 0.  0.
        -11    1    3    3    0    0 -0.94809557433E+01  0.31857625929E+01  0.13785558039E+02  0.17031712064E+02  0.51100000000E-03 0.  1.
         11    1    3    3    0    0  0.94809557433E+01 -0.31857625929E+01  0.14749359521E+02  0.17820808389E+02  0.51100000000E-03 0. -1.
<mgrwt>
<rscale>  0 0.20011413E+02</rscale>
<asrwt>0</asrwt>
<pdfrwt beam="1">  1        3 0.48759566E-02 0.20011413E+02</pdfrwt>
<pdfrwt beam="2">  1       -3 0.48596947E-03 0.20011413E+02</pdfrwt>
<totfact> 0.16969391E+06</totfact>
</mgrwt>
</event>
<event>
 5    1  0.4133473E-007  0.2000000E+02  0.7818608E-02  0.1745328E+00
          3   -1    0    0  501    0  0.00000000000E+00  0.00000000000E+00  0.25180388398E+02  0.25180560138E+02  0.93000000000E-01 0. -1.
         -3   -1    0    0    0  501 -0.00000000000E+00 -0.00000000000E+00 -0.39706160025E+01  0.39717049789E+01  0.93000000000E-01 0.  1.
       1023    2    1    2    0    0  0.00000000000E+00  0.00000000000E+00  0.21209772395E+02  0.29152265117E+02  0.20000002910E+02 0.  0.
        -11    1    3    3    0    0 -0.83727885685E+01  0.54677629518E+01  0.10600580816E+02  0.14573000172E+02  0.51100000000E-03 0. -1.
         11    1    3    3    0    0  0.83727885685E+01 -0.54677629518E+01  0.10609191579E+02  0.14579264945E+02  0.51100000000E-03 0.  1.
<mgrwt>
<rscale>  0 0.20000003E+02</rscale>
<asrwt>0</asrwt>
<pdfrwt beam="1">  1        3 0.38740028E-02 0.20000003E+02</pdfrwt>
<pdfrwt beam="2">  1       -3 0.61096099E-03 0.20000003E+02</pdfrwt>
<totfact> 0.17316086E+06</totfact>
</mgrwt>
</event>
<event>
 5    1  0.4138690E-007  0.2000138E+02  0.7818608E-02  0.1745301E+00
         -3   -1    0    0    0  501 -0.00000000000E+00  0.00000000000E+00  0.21515220219E+02  0.21515421215E+02  0.93000000000E-01 0. -1.
          3   -1    0    0  501    0  0.00000000000E+00 -0.00000000000E+00 -0.46478240451E+01  0.46487543874E+01  0.93000000000E-01 0.  1.
       1023    2    1    2    0    0  0.00000000000E+00  0.00000000000E+00  0.16867396173E+02  0.26164175602E+02  0.20001375735E+02 0.  0.
        -11    1    3    3    0    0 -0.84401370223E+01  0.53644854122E+01  0.84181724906E+01  0.13072078834E+02  0.51100000000E-03 0. -1.
         11    1    3    3    0    0  0.84401370223E+01 -0.53644854122E+01  0.84492236828E+01  0.13092096769E+02  0.51100000000E-03 0.  1.
<mgrwt>
<rscale>  0 0.20001376E+02</rscale>
<asrwt>0</asrwt>
<pdfrwt beam="2">  1        3 0.71513687E-03 0.20001376E+02</pdfrwt>
<pdfrwt beam="1">  1       -3 0.33101209E-02 0.20001376E+02</pdfrwt>
<totfact> 0.17493887E+06</totfact>
</mgrwt>
</event>
<event>
 4    1  0.4133473E-007  0.2001600E+02  0.7818608E-02  0.1745010E+00
          3   -1    0    0  501    0  0.00000000000E+00  0.00000000000E+00  0.23826348006E+02  0.23826529506E+02  0.93000000000E-01 0.  1.
         -3   -1    0    0    0  501 -0.00000000000E+00 -0.00000000000E+00 -0.42030390024E+01  0.42040677749E+01  0.93000000000E-01 0. -1.
        -11    1    1    2    0    0 -0.57369379236E+01 -0.81960858928E+01  0.94365355726E+01  0.13752690085E+02  0.51100000000E-03 0. -1.
         11    1    1    2    0    0  0.57369379236E+01  0.81960858928E+01  0.10186773431E+02  0.14277907196E+02  0.51100000000E-03 0.  1.
<mgrwt>
<rscale>  0 0.20015997E+02</rscale>
<asrwt>0</asrwt>
<pdfrwt beam="1">  1        3 0.36656852E-02 0.20015997E+02</pdfrwt>
<pdfrwt beam="2">  1       -3 0.64671447E-03 0.20015997E+02</pdfrwt>
<totfact> 0.17352733E+06</totfact>
</mgrwt>
</event>
<event>
 5    1  0.4133473E-007  0.2000015E+02  0.7818608E-02  0.1745325E+00
         -3   -1    0    0    0  501 -0.00000000000E+00  0.00000000000E+00  0.14370393774E+02  0.14370694702E+02  0.93000000000E-01 0. -1.
          3   -1    0    0  501    0  0.00000000000E+00 -0.00000000000E+00 -0.69581705468E+01  0.69587920186E+01  0.93000000000E-01 0.  1.
       1023    2    1    2    0    0  0.00000000000E+00  0.00000000000E+00  0.74122232276E+01  0.21329486721E+02  0.20000148765E+02 0.  0.
        -11    1    3    3    0    0 -0.28928514938E+01  0.95725069435E+01  0.37030130034E+01  0.10663666560E+02  0.51100000000E-03 0. -1.
         11    1    3    3    0    0  0.28928514938E+01 -0.95725069435E+01  0.37092102242E+01  0.10665820161E+02  0.51100000000E-03 0.  1.
<mgrwt>
<rscale>  0 0.20000149E+02</rscale>
<asrwt>0</asrwt>
<pdfrwt beam="2">  1        3 0.10705587E-02 0.20000149E+02</pdfrwt>
<pdfrwt beam="1">  1       -3 0.22109007E-02 0.20000149E+02</pdfrwt>
<totfact> 0.17799012E+06</totfact>
</mgrwt>
</event>
<event>
 5    1  0.4289389E-007  0.2000226E+02  0.7818608E-02  0.1745283E+00
          3   -1    0    0  501    0  0.00000000000E+00  0.00000000000E+00  0.60726789885E+01  0.60733910707E+01  0.93000000000E-01 0. -1.
         -3   -1    0    0    0  501 -0.00000000000E+00 -0.00000000000E+00 -0.16469113804E+02  0.16469376384E+02  0.93000000000E-01 0.  1.
       1023    2    1    2    0    0  0.00000000000E+00  0.00000000000E+00 -0.10396434815E+02  0.22542767455E+02  0.20002262564E+02 0.  0.
        -11    1    3    3    0    0 -0.64100237960E+01 -0.76768579666E+01 -0.52078696193E+01  0.11275835204E+02  0.51100000000E-03 0. -1.
         11    1    3    3    0    0  0.64100237960E+01  0.76768579666E+01 -0.51885651962E+01  0.11266932252E+02  0.51100000000E-03 0.  1.
<mgrwt>
<rscale>  0 0.20002263E+02</rscale>
<asrwt>0</asrwt>
<pdfrwt beam="1">  1        3 0.93433329E-03 0.20002263E+02</pdfrwt>
<pdfrwt beam="2">  1       -3 0.25337848E-02 0.20002263E+02</pdfrwt>
<totfact> 0.17717327E+06</totfact>
</mgrwt>
</event>
<event>
 5    1  0.4133473E-007  0.2000232E+02  0.7818608E-02  0.1745282E+00
         -3   -1    0    0    0  501 -0.00000000000E+00  0.00000000000E+00  0.28227660999E+01  0.28242976923E+01  0.93000000000E-01 0.  1.
          3   -1    0    0  501    0  0.00000000000E+00 -0.00000000000E+00 -0.35423261007E+02  0.35423383087E+02  0.93000000000E-01 0. -1.
       1023    2    1    2    0    0  0.00000000000E+00  0.00000000000E+00 -0.32600494907E+02  0.38247680779E+02  0.20002320287E+02 0.  0.
        -11    1    3    3    0    0 -0.55837886909E+01  0.82965607920E+01 -0.16094418210E+02  0.18948401381E+02  0.51100000000E-03 0. -1.
         11    1    3    3    0    0  0.55837886909E+01 -0.82965607920E+01 -0.16506076697E+02  0.19299279398E+02  0.51100000000E-03 0.  1.
<mgrwt>
<rscale>  0 0.20002320E+02</rscale>
<asrwt>0</asrwt>
<pdfrwt beam="2">  1        3 0.54498594E-02 0.20002320E+02</pdfrwt>
<pdfrwt beam="1">  1       -3 0.43439894E-03 0.20002320E+02</pdfrwt>
<totfact> 0.16800847E+06</totfact>
</mgrwt>
</event>
<event>
 5    1  0.4133473E-007  0.2000019E+02  0.7818608E-02  0.1745324E+00
         -3   -1    0    0    0  501 -0.00000000000E+00  0.00000000000E+00  0.15480905223E+02  0.15481184565E+02  0.93000000000E-01 0.  1.
          3   -1    0    0  501    0  0.00000000000E+00 -0.00000000000E+00 -0.64590217707E+01  0.64596912647E+01  0.93000000000E-01 0. -1.
       1023    2    1    2    0    0  0.00000000000E+00  0.00000000000E+00  0.90218834525E+01  0.21940875829E+02  0.20000191277E+02 0.  0.
        -11    1    3    3    0    0  0.25089426364E+01  0.96802025604E+01  0.44799564308E+01  0.10957697050E+02  0.51100000000E-03 0. -1.
         11    1    3    3    0    0 -0.25089426364E+01 -0.96802025604E+01  0.45419270216E+01  0.10983178779E+02  0.51100000000E-03 0.  1.
<mgrwt>
<rscale>  0 0.20000191E+02</rscale>
<asrwt>0</asrwt>
<pdfrwt beam="2">  1        3 0.99376864E-03 0.20000191E+02</pdfrwt>
<pdfrwt beam="1">  1       -3 0.23817507E-02 0.20000191E+02</pdfrwt>
<totfact> 0.17759647E+06</totfact>
</mgrwt>
</event>
<event>
 5    1  0.4133473E-007  0.2000214E+02  0.7818608E-02  0.1745286E+00
         -3   -1    0    0    0  501 -0.00000000000E+00  0.00000000000E+00  0.11224301077E+01  0.11262763190E+01  0.93000000000E-01 0.  1.
          3   -1    0    0  501    0  0.00000000000E+00 -0.00000000000E+00 -0.88955179537E+02  0.88955228151E+02  0.93000000000E-01 0. -1.
       1023    2    1    2    0    0  0.00000000000E+00  0.00000000000E+00 -0.87832749429E+02  0.90081504470E+02  0.20002139269E+02 0.  0.
        -11    1    3    3    0    0  0.91441779264E+01 -0.40495822255E+01 -0.43559270180E+02  0.44692562301E+02  0.51100000000E-03 0. -1.
         11    1    3    3    0    0 -0.91441779264E+01  0.40495822255E+01 -0.44273479250E+02  0.45388942170E+02  0.51100000000E-03 0.  1.
<mgrwt>
<rscale>  0 0.20002139E+02</rscale>
<asrwt>0</asrwt>
<pdfrwt beam="2">  1        3 0.13685706E-01 0.20002139E+02</pdfrwt>
<pdfrwt beam="1">  1       -3 0.17298123E-03 0.20002139E+02</pdfrwt>
<totfact> 0.14527806E+06</totfact>
</mgrwt>
</event>
<event>
 5    1  0.4133473E-007  0.2000047E+02  0.7818608E-02  0.1745319E+00
         -3   -1    0    0    0  501 -0.00000000000E+00  0.00000000000E+00  0.12015860739E+02  0.12016220633E+02  0.93000000000E-01 0.  1.
          3   -1    0    0  501    0  0.00000000000E+00 -0.00000000000E+00 -0.83219769658E+01  0.83224965978E+01  0.93000000000E-01 0. -1.
       1023    2    1    2    0    0  0.00000000000E+00  0.00000000000E+00  0.36938837728E+01  0.20338717230E+02  0.20000466026E+02 0.  0.
        -11    1    3    3    0    0  0.64518065361E+01  0.76405870106E+01  0.18640370582E+01  0.10172463412E+02  0.51100000000E-03 0. -1.
         11    1    3    3    0    0 -0.64518065361E+01 -0.76405870106E+01  0.18298467147E+01  0.10166253819E+02  0.51100000000E-03 0.  1.
<mgrwt>
<rscale>  0 0.20000466E+02</rscale>
<asrwt>0</asrwt>
<pdfrwt beam="2">  1        3 0.12803718E-02 0.20000466E+02</pdfrwt>
<pdfrwt beam="1">  1       -3 0.18486616E-02 0.20000466E+02</pdfrwt>
<totfact> 0.17862717E+06</totfact>
</mgrwt>
</event>
<event>
 4    1  0.4133473E-007  0.2001281E+02  0.7818608E-02  0.1745073E+00
         -3   -1    0    0    0  501 -0.00000000000E+00  0.00000000000E+00  0.10787172948E+02  0.10787573834E+02  0.93000000000E-01 0.  1.
          3   -1    0    0  501    0  0.00000000000E+00 -0.00000000000E+00 -0.92813405363E+01  0.92818064595E+01  0.93000000000E-01 0. -1.
        -11    1    1    2    0    0 -0.96333807511E+01  0.26915611628E+01  0.46645671152E+00  0.10013196708E+02  0.51100000000E-03 0. -1.
         11    1    1    2    0    0  0.96333807511E+01 -0.26915611628E+01  0.10393757004E+01  0.10056183585E+02  0.51100000000E-03 0.  1.
<mgrwt>
<rscale>  0 0.20012808E+02</rscale>
<asrwt>0</asrwt>
<pdfrwt beam="2">  1        3 0.14279652E-02 0.20012808E+02</pdfrwt>
<pdfrwt beam="1">  1       -3 0.16596317E-02 0.20012808E+02</pdfrwt>
<totfact> 0.17856523E+06</totfact>
</mgrwt>
</event>
<event>
 5    1  0.4133473E-007  0.2000227E+02  0.7818608E-02  0.1745283E+00
          3   -1    0    0  501    0  0.00000000000E+00  0.00000000000E+00  0.17346965648E+02  0.17347214941E+02  0.93000000000E-01 0. -1.
         -3   -1    0    0    0  501 -0.00000000000E+00 -0.00000000000E+00 -0.57653387722E+01  0.57660888094E+01  0.93000000000E-01 0.  1.
       1023    2    1    2    0    0  0.00000000000E+00  0.00000000000E+00  0.11581626876E+02  0.23113303750E+02  0.20002268100E+02 0.  0.
        -11    1    3    3    0    0 -0.94162576965E+01  0.33696533292E+01  0.58451291960E+01  0.11583868445E+02  0.51100000000E-03 0. -1.
         11    1    3    3    0    0  0.94162576965E+01 -0.33696533292E+01  0.57364976799E+01  0.11529435305E+02  0.51100000000E-03 0.  1.
<mgrwt>
<rscale>  0 0.20002268E+02</rscale>
<asrwt>0</asrwt>
<pdfrwt beam="1">  1        3 0.26688408E-02 0.20002268E+02</pdfrwt>
<pdfrwt beam="2">  1       -3 0.88705207E-03 0.20002268E+02</pdfrwt>
<totfact> 0.17680223E+06</totfact>
</mgrwt>
</event>
<event>
 5    1  0.4133473E-007  0.2000022E+02  0.7818608E-02  0.1745324E+00
          3   -1    0    0  501    0  0.00000000000E+00  0.00000000000E+00  0.36828540893E+02  0.36828658315E+02  0.93000000000E-01 0.  1.
         -3   -1    0    0    0  501 -0.00000000000E+00 -0.00000000000E+00 -0.27144277361E+01  0.27160204223E+01  0.93000000000E-01 0. -1.
       1023    2    1    2    0    0  0.00000000000E+00  0.00000000000E+00  0.34114113157E+02  0.39544678738E+02  0.20000222498E+02 0.  0.
        -11    1    3    3    0    0  0.86866594355E+01 -0.49542075585E+01  0.17057516032E+02  0.19772735727E+02  0.51100000000E-03 0.  1.
         11    1    3    3    0    0 -0.86866594355E+01  0.49542075585E+01  0.17056597125E+02  0.19771943011E+02  0.51100000000E-03 0. -1.
<mgrwt>
<rscale>  0 0.20000222E+02</rscale>
<asrwt>0</asrwt>
<pdfrwt beam="1">  1        3 0.56660606E-02 0.20000222E+02</pdfrwt>
<pdfrwt beam="2">  1       -3 0.41773584E-03 0.20000222E+02</pdfrwt>
<totfact> 0.16735487E+06</totfact>
</mgrwt>
</event>
<event>
 5    1  0.4133473E-007  0.2000035E+02  0.7818608E-02  0.1745321E+00
         -3   -1    0    0    0  501 -0.00000000000E+00  0.00000000000E+00  0.35060516622E+01  0.35072848841E+01  0.93000000000E-01 0. -1.
          3   -1    0    0  501    0  0.00000000000E+00 -0.00000000000E+00 -0.28516796247E+02  0.28516947894E+02  0.93000000000E-01 0.  1.
       1023    2    1    2    0    0  0.00000000000E+00  0.00000000000E+00 -0.25010744584E+02  0.32024232778E+02  0.20000353505E+02 0.  0.
        -11    1    3    3    0    0  0.77116682143E+01 -0.63665843959E+01 -0.12533623386E+02  0.16034180333E+02  0.51100000000E-03 0.  1.
         11    1    3    3    0    0 -0.77116682143E+01  0.63665843959E+01 -0.12477121198E+02  0.15990052444E+02  0.51100000000E-03 0. -1.
<mgrwt>
<rscale>  0 0.20000354E+02</rscale>
<asrwt>0</asrwt>
<pdfrwt beam="2">  1        3 0.43873058E-02 0.20000354E+02</pdfrwt>
<pdfrwt beam="1">  1       -3 0.53949911E-03 0.20000354E+02</pdfrwt>
<totfact> 0.17148847E+06</totfact>
</mgrwt>
</event>
<event>
 5    1  0.4133473E-007  0.2000058E+02  0.7818608E-02  0.1745317E+00
         -3   -1    0    0    0  501 -0.00000000000E+00  0.00000000000E+00  0.13837126560E+01  0.13868344222E+01  0.93000000000E-01 0.  1.
          3   -1    0    0  501    0  0.00000000000E+00 -0.00000000000E+00 -0.72188930272E+02  0.72188990177E+02  0.93000000000E-01 0. -1.
       1023    2    1    2    0    0  0.00000000000E+00  0.00000000000E+00 -0.70805217616E+02  0.73575824599E+02  0.20000578088E+02 0.  0.
        -11    1    3    3    0    0  0.79622695502E+01  0.60500560150E+01 -0.35659235671E+02  0.37034875497E+02  0.51100000000E-03 0.  1.
         11    1    3    3    0    0 -0.79622695502E+01 -0.60500560150E+01 -0.35145981945E+02  0.36540949102E+02  0.51100000000E-03 0. -1.
<mgrwt>
<rscale>  0 0.20000578E+02</rscale>
<asrwt>0</asrwt>
<pdfrwt beam="2">  1        3 0.11106231E-01 0.20000578E+02</pdfrwt>
<pdfrwt beam="1">  1       -3 0.21312367E-03 0.20000578E+02</pdfrwt>
<totfact> 0.15165404E+06</totfact>
</mgrwt>
</event>
<event>
 5    1  0.4133473E-007  0.2000564E+02  0.7818608E-02  0.1745216E+00
         -3   -1    0    0    0  501 -0.00000000000E+00  0.00000000000E+00  0.44097228921E+01  0.44107034570E+01  0.93000000000E-01 0.  1.
          3   -1    0    0  501    0  0.00000000000E+00 -0.00000000000E+00 -0.22686346769E+02  0.22686537389E+02  0.93000000000E-01 0. -1.
       1023    2    1    2    0    0  0.00000000000E+00  0.00000000000E+00 -0.18276623877E+02  0.27097240846E+02  0.20005636235E+02 0.  0.
        -11    1    3    3    0    0  0.70550576974E+01 -0.70900567957E+01 -0.92964184132E+01  0.13655260527E+02  0.51100000000E-03 0.  1.
         11    1    3    3    0    0 -0.70550576974E+01  0.70900567957E+01 -0.89802054636E+01  0.13441980319E+02  0.51100000000E-03 0. -1.
<mgrwt>
<rscale>  0 0.20005636E+02</rscale>
<asrwt>0</asrwt>
<pdfrwt beam="2">  1        3 0.34902972E-02 0.20005636E+02</pdfrwt>
<pdfrwt beam="1">  1       -3 0.67850901E-03 0.20005636E+02</pdfrwt>
<totfact> 0.17428013E+06</totfact>
</mgrwt>
</event>
<event>
 5    1  0.4133473E-007  0.2000029E+02  0.7818608E-02  0.1745322E+00
         -3   -1    0    0    0  501 -0.00000000000E+00  0.00000000000E+00  0.18779456097E+02  0.18779686374E+02  0.93000000000E-01 0. -1.
          3   -1    0    0  501    0  0.00000000000E+00 -0.00000000000E+00 -0.53244540771E+01  0.53252662111E+01  0.93000000000E-01 0.  1.
       1023    2    1    2    0    0  0.00000000000E+00  0.00000000000E+00  0.13455002020E+02  0.24104952585E+02  0.20000291492E+02 0.  0.
        -11    1    3    3    0    0  0.58444530814E+01  0.81144940812E+01  0.67077460783E+01  0.12041449403E+02  0.51100000000E-03 0.  1.
         11    1    3    3    0    0 -0.58444530814E+01 -0.81144940812E+01  0.67472559417E+01  0.12063503182E+02  0.51100000000E-03 0. -1.
<mgrwt>
<rscale>  0 0.20000291E+02</rscale>
<asrwt>0</asrwt>
<pdfrwt beam="2">  1        3 0.81922697E-03 0.20000291E+02</pdfrwt>
<pdfrwt beam="1">  1       -3 0.28892273E-02 0.20000291E+02</pdfrwt>
<totfact> 0.17622839E+06</totfact>
</mgrwt>
</event>
<event>
 5    1  0.4133473E-007  0.2000559E+02  0.7818608E-02  0.1745217E+00
          3   -1    0    0  501    0  0.00000000000E+00  0.00000000000E+00  0.99250335971E+02  0.99250379542E+02  0.93000000000E-01 0.  1.
         -3   -1    0    0    0  501 -0.00000000000E+00 -0.00000000000E+00 -0.10059280828E+01  0.10102179507E+01  0.93000000000E-01 0. -1.
       1023    2    1    2    0    0  0.00000000000E+00  0.00000000000E+00  0.98244407888E+02  0.10026059749E+03  0.20005592428E+02 0.  0.
        -11    1    3    3    0    0 -0.47306155858E+01  0.88134518307E+01  0.49039118122E+02  0.50048883738E+02  0.51100000000E-03 0.  1.
         11    1    3    3    0    0  0.47306155858E+01 -0.88134518307E+01  0.49205289766E+02  0.50211713755E+02  0.51100000000E-03 0. -1.
<mgrwt>
<rscale>  0 0.20005592E+02</rscale>
<asrwt>0</asrwt>
<pdfrwt beam="1">  1        3 0.15269623E-01 0.20005592E+02</pdfrwt>
<pdfrwt beam="2">  1       -3 0.15509144E-03 0.20005592E+02</pdfrwt>
<totfact> 0.14160510E+06</totfact>
</mgrwt>
</event>
<event>
 5    1  0.4133473E-007  0.2000097E+02  0.7818608E-02  0.1745309E+00
         -3   -1    0    0    0  501 -0.00000000000E+00  0.00000000000E+00  0.66990341047E+02  0.66990405601E+02  0.93000000000E-01 0.  1.
          3   -1    0    0  501    0  0.00000000000E+00 -0.00000000000E+00 -0.14913840628E+01  0.14942809049E+01  0.93000000000E-01 0. -1.
       1023    2    1    2    0    0  0.00000000000E+00  0.00000000000E+00  0.65498956985E+02  0.68484686506E+02  0.20000972971E+02 0.  0.
        -11    1    3    3    0    0  0.99792905379E+01  0.64989232873E+00  0.32864580552E+02  0.34352427204E+02  0.51100000000E-03 0. -1.
         11    1    3    3    0    0 -0.99792905379E+01 -0.64989232873E+00  0.32634376433E+02  0.34132259303E+02  0.51100000000E-03 0.  1.
<mgrwt>
<rscale>  0 0.20000973E+02</rscale>
<asrwt>0</asrwt>
<pdfrwt beam="2">  1        3 0.22967152E-03 0.20000973E+02</pdfrwt>
<pdfrwt beam="1">  1       -3 0.10306433E-01 0.20000973E+02</pdfrwt>
<totfact> 0.15377606E+06</totfact>
</mgrwt>
</event>
<event>
 4    1  0.4133473E-007  0.2001369E+02  0.7818608E-02  0.1745056E+00
         -3   -1    0    0    0  501 -0.00000000000E+00  0.00000000000E+00  0.89592721571E+01  0.89597548284E+01  0.93000000000E-01 0.  1.
          3   -1    0    0  501    0  0.00000000000E+00 -0.00000000000E+00 -0.11175931988E+02  0.11176318929E+02  0.93000000000E-01 0. -1.
        -11    1    1    2    0    0  0.78910791612E+01  0.61455148719E+01 -0.78939346420E+00  0.10032927074E+02  0.51100000000E-03 0.  1.
         11    1    1    2    0    0 -0.78910791612E+01 -0.61455148719E+01 -0.14272663670E+01  0.10103146684E+02  0.51100000000E-03 0. -1.
<mgrwt>
<rscale>  0 0.20013692E+02</rscale>
<asrwt>0</asrwt>
<pdfrwt beam="2">  1        3 0.17194410E-02 0.20013692E+02</pdfrwt>
<pdfrwt beam="1">  1       -3 0.13784165E-02 0.20013692E+02</pdfrwt>
<totfact> 0.17850319E+06</totfact>
</mgrwt>
</event>
<event>
 5    1  0.4390413E-007  0.2000119E+02  0.7818608E-02  0.1745304E+00
         -3   -1    0    0    0  501 -0.00000000000E+00  0.00000000000E+00  0.16546525619E+02  0.16546786971E+02  0.93000000000E-01 0.  1.
          3   -1    0    0  501    0  0.00000000000E+00 -0.00000000000E+00 -0.60436158845E+01  0.60443313906E+01  0.93000000000E-01 0. -1.
       1023    2    1    2    0    0  0.00000000000E+00  0.00000000000E+00  0.10502909735E+02  0.22591118362E+02  0.20001187863E+02 0.  0.
        -11    1    3    3    0    0 -0.10180714184E+01  0.99485111110E+01  0.53083342897E+01  0.11322003177E+02  0.51100000000E-03 0. -1.
         11    1    3    3    0    0  0.10180714184E+01 -0.99485111110E+01  0.51945754449E+01  0.11269115185E+02  0.51100000000E-03 0.  1.
<mgrwt>
<rscale>  0 0.20001188E+02</rscale>
<asrwt>0</asrwt>
<pdfrwt beam="2">  1        3 0.92986220E-03 0.20001188E+02</pdfrwt>
<pdfrwt beam="1">  1       -3 0.25456945E-02 0.20001188E+02</pdfrwt>
<totfact> 0.17716305E+06</totfact>
</mgrwt>
</event>
<event>
 5    1  0.4133473E-007  0.2000518E+02  0.7818608E-02  0.1745225E+00
         -3   -1    0    0    0  501 -0.00000000000E+00  0.00000000000E+00  0.32128989507E+01  0.32142446496E+01  0.93000000000E-01 0. -1.
          3   -1    0    0  501    0  0.00000000000E+00 -0.00000000000E+00 -0.31132738070E+02  0.31132876975E+02  0.93000000000E-01 0.  1.
       1023    2    1    2    0    0  0.00000000000E+00  0.00000000000E+00 -0.27919839120E+02  0.34347121625E+02  0.20005183014E+02 0.  0.
        -11    1    3    3    0    0 -0.43087235797E+01  0.90269778289E+01 -0.13994641484E+02  0.17201785318E+02  0.51100000000E-03 0. -1.
         11    1    3    3    0    0  0.43087235797E+01 -0.90269778289E+01 -0.13925197636E+02  0.17145336307E+02  0.51100000000E-03 0.  1.
<mgrwt>
<rscale>  0 0.20005183E+02</rscale>
<asrwt>0</asrwt>
<pdfrwt beam="2">  1        3 0.47897660E-02 0.20005183E+02</pdfrwt>
<pdfrwt beam="1">  1       -3 0.49440637E-03 0.20005183E+02</pdfrwt>
<totfact> 0.17008851E+06</totfact>
</mgrwt>
</event>
<event>
 5    1  0.4133473E-007  0.2000050E+02  0.7818608E-02  0.1745318E+00
         -3   -1    0    0    0  501 -0.00000000000E+00  0.00000000000E+00  0.45054233168E+01  0.45063830578E+01  0.93000000000E-01 0.  1.
          3   -1    0    0  501    0  0.00000000000E+00 -0.00000000000E+00 -0.22193156111E+02  0.22193350967E+02  0.93000000000E-01 0. -1.
       1023    2    1    2    0    0  0.00000000000E+00  0.00000000000E+00 -0.17687732794E+02  0.26699734025E+02  0.20000497634E+02 0.  0.
        -11    1    3    3    0    0 -0.99671048352E+01  0.81348106382E+00 -0.88348217160E+01  0.13343875196E+02  0.51100000000E-03 0.  1.
         11    1    3    3    0    0  0.99671048352E+01 -0.81348106382E+00 -0.88529110778E+01  0.13355858829E+02  0.51100000000E-03 0. -1.
<mgrwt>
<rscale>  0 0.20000498E+02</rscale>
<asrwt>0</asrwt>
<pdfrwt beam="2">  1        3 0.34144205E-02 0.20000498E+02</pdfrwt>
<pdfrwt beam="1">  1       -3 0.69323088E-03 0.20000498E+02</pdfrwt>
<totfact> 0.17461660E+06</totfact>
</mgrwt>
</event>
<event>
 5    1  0.4133473E-007  0.2000047E+02  0.7818608E-02  0.1745319E+00
          3   -1    0    0  501    0  0.00000000000E+00  0.00000000000E+00  0.81940225962E+02  0.81940278738E+02  0.93000000000E-01 0.  1.
         -3   -1    0    0    0  501 -0.00000000000E+00 -0.00000000000E+00 -0.12186348306E+01  0.12221783218E+01  0.93000000000E-01 0. -1.
       1023    2    1    2    0    0  0.00000000000E+00  0.00000000000E+00  0.80721591131E+02  0.83162457060E+02  0.20000474732E+02 0.  0.
        -11    1    3    3    0    0 -0.99451256977E+01 -0.10470127165E+01  0.40588020796E+02  0.41801784570E+02  0.51100000000E-03 0. -1.
         11    1    3    3    0    0  0.99451256977E+01  0.10470127165E+01  0.40133570334E+02  0.41360672490E+02  0.51100000000E-03 0.  1.
<mgrwt>
<rscale>  0 0.20000475E+02</rscale>
<asrwt>0</asrwt>
<pdfrwt beam="1">  1        3 0.12606472E-01 0.20000475E+02</pdfrwt>
<pdfrwt beam="2">  1       -3 0.18775881E-03 0.20000475E+02</pdfrwt>
<totfact> 0.14788954E+06</totfact>
</mgrwt>
</event>
<event>
 5    1  0.4133473E-007  0.2000043E+02  0.7818608E-02  0.1745320E+00
         -3   -1    0    0    0  501 -0.00000000000E+00  0.00000000000E+00  0.90279499889E+02  0.90279547790E+02  0.93000000000E-01 0. -1.
          3   -1    0    0  501    0  0.00000000000E+00 -0.00000000000E+00 -0.11057180610E+01  0.11096222017E+01  0.93000000000E-01 0.  1.
       1023    2    1    2    0    0  0.00000000000E+00  0.00000000000E+00  0.89173781828E+02  0.91389169992E+02  0.20000425653E+02 0.  0.
        -11    1    3    3    0    0  0.23149323041E+01  0.97285673772E+01  0.44668825083E+02  0.45774532978E+02  0.51100000000E-03 0.  1.
         11    1    3    3    0    0 -0.23149323041E+01 -0.97285673772E+01  0.44504956745E+02  0.45614637014E+02  0.51100000000E-03 0. -1.
<mgrwt>
<rscale>  0 0.20000426E+02</rscale>
<asrwt>0</asrwt>
<pdfrwt beam="2">  1        3 0.17041440E-03 0.20000426E+02</pdfrwt>
<pdfrwt beam="1">  1       -3 0.13889464E-01 0.20000426E+02</pdfrwt>
<totfact> 0.14485659E+06</totfact>
</mgrwt>
</event>
<event>
 5    1  0.4133473E-007  0.2000052E+02  0.7818608E-02  0.1745318E+00
         -3   -1    0    0    0  501 -0.00000000000E+00  0.00000000000E+00  0.19644419846E+02  0.19644639984E+02  0.93000000000E-01 0.  1.
          3   -1    0    0  501    0  0.00000000000E+00 -0.00000000000E+00 -0.50900938256E+01  0.50909433461E+01  0.93000000000E-01 0. -1.
       1023    2    1    2    0    0  0.00000000000E+00  0.00000000000E+00  0.14554326020E+02  0.24735583330E+02  0.20000516912E+02 0.  0.
        -11    1    3    3    0    0  0.44375680740E-01 -0.10000026898E+02  0.73409695581E+01  0.12405335202E+02  0.51100000000E-03 0. -1.
         11    1    3    3    0    0 -0.44375680740E-01  0.10000026898E+02  0.72133564623E+01  0.12330248127E+02  0.51100000000E-03 0.  1.
<mgrwt>
<rscale>  0 0.20000517E+02</rscale>
<asrwt>0</asrwt>
<pdfrwt beam="2">  1        3 0.78317364E-03 0.20000517E+02</pdfrwt>
<pdfrwt beam="1">  1       -3 0.30223007E-02 0.20000517E+02</pdfrwt>
<totfact> 0.17583209E+06</totfact>
</mgrwt>
</event>
<event>
 5    1  0.4133473E-007  0.2000348E+02  0.7818608E-02  0.1745259E+00
          3   -1    0    0  501    0  0.00000000000E+00  0.00000000000E+00  0.14271211377E+02  0.14271514397E+02  0.93000000000E-01 0. -1.
         -3   -1    0    0    0  501 -0.00000000000E+00 -0.00000000000E+00 -0.70088672978E+01  0.70094842747E+01  0.93000000000E-01 0.  1.
       1023    2    1    2    0    0  0.00000000000E+00  0.00000000000E+00  0.72623440794E+01  0.21280998671E+02  0.20003481270E+02 0.  0.
        -11    1    3    3    0    0  0.62935480603E+01  0.77732324932E+01  0.36887082222E+01  0.10660134108E+02  0.51100000000E-03 0.  1.
         11    1    3    3    0    0 -0.62935480603E+01 -0.77732324932E+01  0.35736358572E+01  0.10620864564E+02  0.51100000000E-03 0. -1.
<mgrwt>
<rscale>  0 0.20003481E+02</rscale>
<asrwt>0</asrwt>
<pdfrwt beam="1">  1        3 0.21956418E-02 0.20003481E+02</pdfrwt>
<pdfrwt beam="2">  1       -3 0.10783580E-02 0.20003481E+02</pdfrwt>
<totfact> 0.17795124E+06</totfact>
</mgrwt>
</event>
<event>
 5    1  0.4133473E-007  0.2000028E+02  0.7818608E-02  0.1745323E+00
          3   -1    0    0  501    0  0.00000000000E+00  0.00000000000E+00  0.63352556744E+02  0.63352625005E+02  0.93000000000E-01 0.  1.
         -3   -1    0    0    0  501 -0.00000000000E+00 -0.00000000000E+00 -0.15770731960E+01  0.15798129210E+01  0.93000000000E-01 0. -1.
       1023    2    1    2    0    0  0.00000000000E+00  0.00000000000E+00  0.61775483548E+02  0.64932437926E+02  0.20000278183E+02 0.  0.
        -11    1    3    3    0    0 -0.92203371276E+01 -0.38712564151E+01  0.30760394296E+02  0.32345063000E+02  0.51100000000E-03 0. -1.
         11    1    3    3    0    0  0.92203371276E+01  0.38712564151E+01  0.31015089253E+02  0.32587374926E+02  0.51100000000E-03 0.  1.
<mgrwt>
<rscale>  0 0.20000278E+02</rscale>
<asrwt>0</asrwt>
<pdfrwt beam="1">  1        3 0.97467618E-02 0.20000278E+02</pdfrwt>
<pdfrwt beam="2">  1       -3 0.24284268E-03 0.20000278E+02</pdfrwt>
<totfact> 0.15526905E+06</totfact>
</mgrwt>
</event>
<event>
 5    1  0.4133473E-007  0.2000318E+02  0.7818608E-02  0.1745265E+00
         -3   -1    0    0    0  501 -0.00000000000E+00  0.00000000000E+00  0.19347817613E+01  0.19370156075E+01  0.93000000000E-01 0. -1.
          3   -1    0    0  501    0  0.00000000000E+00 -0.00000000000E+00 -0.51669754315E+02  0.51669838010E+02  0.93000000000E-01 0.  1.
       1023    2    1    2    0    0  0.00000000000E+00  0.00000000000E+00 -0.49734972554E+02  0.53606853618E+02  0.20003181243E+02 0.  0.
        -11    1    3    3    0    0  0.99707899823E+01 -0.78271702549E+00 -0.24733065314E+02  0.26678714716E+02  0.51100000000E-03 0.  1.
         11    1    3    3    0    0 -0.99707899823E+01  0.78271702549E+00 -0.25001907240E+02  0.26928138902E+02  0.51100000000E-03 0. -1.
<mgrwt>
<rscale>  0 0.20003181E+02</rscale>
<asrwt>0</asrwt>
<pdfrwt beam="2">  1        3 0.79493702E-02 0.20003181E+02</pdfrwt>
<pdfrwt beam="1">  1       -3 0.29783704E-03 0.20003181E+02</pdfrwt>
<totfact> 0.16030197E+06</totfact>
</mgrwt>
</event>
<event>
 4    1  0.4133473E-007  0.2017274E+02  0.7818608E-02  0.1741915E+00
          3   -1    0    0  501    0  0.00000000000E+00  0.00000000000E+00  0.15695034144E+01  0.15722563302E+01  0.93000000000E-01 0.  1.
         -3   -1    0    0    0  501 -0.00000000000E+00 -0.00000000000E+00 -0.64760211349E+02  0.64760278126E+02  0.93000000000E-01 0. -1.
        -11    1    1    2    0    0  0.21512707365E+01 -0.98529513640E+01 -0.31062368102E+02  0.32658526126E+02  0.51100000000E-03 0. -1.
         11    1    1    2    0    0 -0.21512707365E+01  0.98529513640E+01 -0.32128339833E+02  0.33674008330E+02  0.51100000000E-03 0.  1.
<mgrwt>
<rscale>  0 0.20172743E+02</rscale>
<asrwt>0</asrwt>
<pdfrwt beam="1">  1        3 0.24167901E-03 0.20172743E+02</pdfrwt>
<pdfrwt beam="2">  1       -3 0.99633243E-02 0.20172743E+02</pdfrwt>
<totfact> 0.15186889E+06</totfact>
</mgrwt>
</event>
<event>
 5    1  0.4133473E-007  0.2000027E+02  0.7818608E-02  0.1745323E+00
          3   -1    0    0  501    0  0.00000000000E+00  0.00000000000E+00  0.14802451473E+02  0.14802743618E+02  0.93000000000E-01 0. -1.
         -3   -1    0    0    0  501 -0.00000000000E+00 -0.00000000000E+00 -0.67551432814E+01  0.67557834300E+01  0.93000000000E-01 0.  1.
       1023    2    1    2    0    0  0.00000000000E+00  0.00000000000E+00  0.80473081919E+01  0.21558527048E+02  0.20000272982E+02 0.  0.
        -11    1    3    3    0    0 -0.50584146427E+01  0.86263276558E+01  0.39799747061E+01  0.10762959000E+02  0.51100000000E-03 0. -1.
         11    1    3    3    0    0  0.50584146427E+01 -0.86263276558E+01  0.40673334858E+01  0.10795568048E+02  0.51100000000E-03 0.  1.
<mgrwt>
<rscale>  0 0.20000273E+02</rscale>
<asrwt>0</asrwt>
<pdfrwt beam="1">  1        3 0.22773719E-02 0.20000273E+02</pdfrwt>
<pdfrwt beam="2">  1       -3 0.10393245E-02 0.20000273E+02</pdfrwt>
<totfact> 0.17783318E+06</totfact>
</mgrwt>
</event>
<event>
 5    1  0.4206543E-007  0.2000084E+02  0.7818608E-02  0.1745311E+00
          3   -1    0    0  501    0  0.00000000000E+00  0.00000000000E+00  0.36339773008E+01  0.36351671245E+01  0.93000000000E-01 0.  1.
         -3   -1    0    0    0  501 -0.00000000000E+00 -0.00000000000E+00 -0.27514588087E+02  0.27514745257E+02  0.93000000000E-01 0. -1.
       1023    2    1    2    0    0  0.00000000000E+00  0.00000000000E+00 -0.23880610786E+02  0.31149912382E+02  0.20000836730E+02 0.  0.
        -11    1    3    3    0    0 -0.48642399870E+01 -0.87372629708E+01 -0.12077609824E+02  0.15680218563E+02  0.51100000000E-03 0.  1.
         11    1    3    3    0    0  0.48642399870E+01  0.87372629708E+01 -0.11803000962E+02  0.15469693819E+02  0.51100000000E-03 0. -1.
<mgrwt>
<rscale>  0 0.20000837E+02</rscale>
<asrwt>0</asrwt>
<pdfrwt beam="1">  1        3 0.55917707E-03 0.20000837E+02</pdfrwt>
<pdfrwt beam="2">  1       -3 0.42331170E-02 0.20000837E+02</pdfrwt>
<totfact> 0.17199952E+06</totfact>
</mgrwt>
</event>
<event>
 5    1  0.4133473E-007  0.2000000E+02  0.7818608E-02  0.1745328E+00
          3   -1    0    0  501    0  0.00000000000E+00  0.00000000000E+00  0.11606322905E+03  0.11606326631E+03  0.93000000000E-01 0. -1.
         -3   -1    0    0    0  501 -0.00000000000E+00 -0.00000000000E+00 -0.85905263079E+00  0.86407200074E+00  0.93000000000E-01 0.  1.
       1023    2    1    2    0    0  0.00000000000E+00  0.00000000000E+00  0.11520417642E+03  0.11692733831E+03  0.20000004499E+02 0.  0.
        -11    1    3    3    0    0  0.92323932134E-01 -0.99995759810E+01  0.57595619241E+02  0.58457295520E+02  0.51100000000E-03 0.  1.
         11    1    3    3    0    0 -0.92323932134E-01  0.99995759810E+01  0.57608557180E+02  0.58470042792E+02  0.51100000000E-03 0. -1.
<mgrwt>
<rscale>  0 0.20000004E+02</rscale>
<asrwt>0</asrwt>
<pdfrwt beam="1">  1        3 0.17856256E-01 0.20000004E+02</pdfrwt>
<pdfrwt beam="2">  1       -3 0.13255102E-03 0.20000004E+02</pdfrwt>
<totfact> 0.13617627E+06</totfact>
</mgrwt>
</event>
<event>
 5    1  0.4312858E-007  0.2000082E+02  0.7818608E-02  0.1745312E+00
          3   -1    0    0  501    0  0.00000000000E+00  0.00000000000E+00  0.14198778026E+02  0.14199082591E+02  0.93000000000E-01 0. -1.
         -3   -1    0    0    0  501 -0.00000000000E+00 -0.00000000000E+00 -0.70427482859E+01  0.70433622950E+01  0.93000000000E-01 0.  1.
       1023    2    1    2    0    0  0.00000000000E+00  0.00000000000E+00  0.71560297401E+01  0.21242444886E+02  0.20000817561E+02 0.  0.
        -11    1    3    3    0    0  0.10000268819E+02  0.52664403768E-01  0.35726495071E+01  0.10619414991E+02  0.51100000000E-03 0. -1.
         11    1    3    3    0    0 -0.10000268819E+02 -0.52664403768E-01  0.35833802330E+01  0.10623029895E+02  0.51100000000E-03 0.  1.
<mgrwt>
<rscale>  0 0.20000818E+02</rscale>
<asrwt>0</asrwt>
<pdfrwt beam="1">  1        3 0.21844981E-02 0.20000818E+02</pdfrwt>
<pdfrwt beam="2">  1       -3 0.10835704E-02 0.20000818E+02</pdfrwt>
<totfact> 0.17802731E+06</totfact>
</mgrwt>
</event>
<event>
 5    1  0.4133473E-007  0.2000126E+02  0.7818608E-02  0.1745303E+00
          3   -1    0    0  501    0  0.00000000000E+00  0.00000000000E+00  0.91123530591E+00  0.91596876734E+00  0.93000000000E-01 0.  1.
         -3   -1    0    0    0  501 -0.00000000000E+00 -0.00000000000E+00 -0.10946587839E+03  0.10946591790E+03  0.93000000000E-01 0. -1.
       1023    2    1    2    0    0  0.00000000000E+00  0.00000000000E+00 -0.10855464309E+03  0.11038188667E+03  0.20001259164E+02 0.  0.
        -11    1    3    3    0    0 -0.28084387327E+01  0.95980420184E+01 -0.54572100670E+02  0.55480842734E+02  0.51100000000E-03 0. -1.
         11    1    3    3    0    0  0.28084387327E+01 -0.95980420184E+01 -0.53982542417E+02  0.54901043931E+02  0.51100000000E-03 0.  1.
<mgrwt>
<rscale>  0 0.20001259E+02</rscale>
<asrwt>0</asrwt>
<pdfrwt beam="1">  1        3 0.14055728E-03 0.20001259E+02</pdfrwt>
<pdfrwt beam="2">  1       -3 0.16841261E-01 0.20001259E+02</pdfrwt>
<totfact> 0.13829339E+06</totfact>
</mgrwt>
</event>
<event>
 5    1  0.4294762E-007  0.2000131E+02  0.7818608E-02  0.1745302E+00
         -3   -1    0    0    0  501 -0.00000000000E+00  0.00000000000E+00  0.12418541133E+02  0.12418889358E+02  0.93000000000E-01 0. -1.
          3   -1    0    0  501    0  0.00000000000E+00 -0.00000000000E+00 -0.80528006119E+01  0.80533376122E+01  0.93000000000E-01 0.  1.
       1023    2    1    2    0    0  0.00000000000E+00  0.00000000000E+00  0.43657405213E+01  0.20472226970E+02  0.20001309627E+02 0.  0.
        -11    1    3    3    0    0  0.75015413110E+00  0.99723943720E+01  0.22252665989E+01  0.10245154583E+02  0.51100000000E-03 0.  1.
         11    1    3    3    0    0 -0.75015413110E+00 -0.99723943720E+01  0.21404739223E+01  0.10227072387E+02  0.51100000000E-03 0. -1.
<mgrwt>
<rscale>  0 0.20001310E+02</rscale>
<asrwt>0</asrwt>
<pdfrwt beam="2">  1        3 0.12389605E-02 0.20001310E+02</pdfrwt>
<pdfrwt beam="1">  1       -3 0.19106129E-02 0.20001310E+02</pdfrwt>
<totfact> 0.17852406E+06</totfact>
</mgrwt>
</event>
<event>
 4    1  0.4133473E-007  0.2006510E+02  0.7818608E-02  0.1744037E+00
         -3   -1    0    0    0  501 -0.00000000000E+00  0.00000000000E+00  0.25246384341E+01  0.25263507720E+01  0.93000000000E-01 0. -1.
          3   -1    0    0  501    0  0.00000000000E+00 -0.00000000000E+00 -0.39852615070E+02  0.39852723582E+02  0.93000000000E-01 0.  1.
        -11    1    1    2    0    0 -0.21995389888E+01 -0.97858134832E+01 -0.19145191610E+02  0.21613386578E+02  0.51100000000E-03 0.  1.
         11    1    1    2    0    0  0.21995389888E+01  0.97858134832E+01 -0.18182785025E+02  0.20765687776E+02  0.51100000000E-03 0. -1.
<mgrwt>
<rscale>  0 0.20065097E+02</rscale>
<asrwt>0</asrwt>
<pdfrwt beam="2">  1        3 0.61313112E-02 0.20065097E+02</pdfrwt>
<pdfrwt beam="1">  1       -3 0.38854601E-03 0.20065097E+02</pdfrwt>
<totfact> 0.16472299E+06</totfact>
</mgrwt>
</event>
<event>
 5    1  0.4133473E-007  0.2000010E+02  0.7818608E-02  0.1745326E+00
          3   -1    0    0  501    0  0.00000000000E+00  0.00000000000E+00  0.26824549878E+02  0.26824711092E+02  0.93000000000E-01 0. -1.
         -3   -1    0    0    0  501 -0.00000000000E+00 -0.00000000000E+00 -0.37272129729E+01  0.37283730427E+01  0.93000000000E-01 0.  1.
       1023    2    1    2    0    0  0.00000000000E+00  0.00000000000E+00  0.23097336905E+02  0.30553084135E+02  0.20000099450E+02 0.  0.
        -11    1    3    3    0    0  0.60248955767E+01 -0.79813227289E+01  0.11532283941E+02  0.15264155803E+02  0.51100000000E-03 0.  1.
         11    1    3    3    0    0 -0.60248955767E+01  0.79813227289E+01  0.11565052964E+02  0.15288928332E+02  0.51100000000E-03 0. -1.
<mgrwt>
<rscale>  0 0.20000099E+02</rscale>
<asrwt>0</asrwt>
<pdfrwt beam="1">  1        3 0.41269554E-02 0.20000099E+02</pdfrwt>
<pdfrwt beam="2">  1       -3 0.57351902E-03 0.20000099E+02</pdfrwt>
<totfact> 0.17234042E+06</totfact>
</mgrwt>
</event>
<event>
 5    1  0.4133473E-007  0.2000052E+02  0.7818608E-02  0.1745318E+00
         -3   -1    0    0    0  501 -0.00000000000E+00  0.00000000000E+00  0.71640126331E+02  0.71640186695E+02  0.93000000000E-01 0. -1.
          3   -1    0    0  501    0  0.00000000000E+00 -0.00000000000E+00 -0.13943282547E+01  0.13974263064E+01  0.93000000000E-01 0.  1.
       1023    2    1    2    0    0  0.00000000000E+00  0.00000000000E+00  0.70245798077E+02  0.73037613002E+02  0.20000519133E+02 0.  0.
        -11    1    3    3    0    0  0.71443833485E+01  0.69973447449E+01  0.35079042869E+02  0.36476626705E+02  0.51100000000E-03 0.  1.
         11    1    3    3    0    0 -0.71443833485E+01 -0.69973447449E+01  0.35166755208E+02  0.36560986297E+02  0.51100000000E-03 0. -1.
<mgrwt>
<rscale>  0 0.20000519E+02</rscale>
<asrwt>0</asrwt>
<pdfrwt beam="2">  1        3 0.21475499E-03 0.20000519E+02</pdfrwt>
<pdfrwt beam="1">  1       -3 0.11021801E-01 0.20000519E+02</pdfrwt>
<totfact> 0.15190243E+06</totfact>
</mgrwt>
</event>
<event>
 5    1  0.4133473E-007  0.2000148E+02  0.7818608E-02  0.1745299E+00
          3   -1    0    0  501    0  0.00000000000E+00  0.00000000000E+00  0.17447099260E+02  0.17447347122E+02  0.93000000000E-01 0. -1.
         -3   -1    0    0    0  501 -0.00000000000E+00 -0.00000000000E+00 -0.57317944120E+01  0.57325488381E+01  0.93000000000E-01 0.  1.
       1023    2    1    2    0    0  0.00000000000E+00  0.00000000000E+00  0.11715304848E+02  0.23179895960E+02  0.20001480171E+02 0.  0.
        -11    1    3    3    0    0 -0.95046032858E+01 -0.31104862404E+01  0.58033723698E+01  0.11562514406E+02  0.51100000000E-03 0. -1.
         11    1    3    3    0    0  0.95046032858E+01  0.31104862404E+01  0.59119324784E+01  0.11617381554E+02  0.51100000000E-03 0.  1.
<mgrwt>
<rscale>  0 0.20001480E+02</rscale>
<asrwt>0</asrwt>
<pdfrwt beam="1">  1        3 0.26842462E-02 0.20001480E+02</pdfrwt>
<pdfrwt beam="2">  1       -3 0.88189163E-03 0.20001480E+02</pdfrwt>
<totfact> 0.17677515E+06</totfact>
</mgrwt>
</event>
<event>
 5    1  0.4133473E-007  0.2000018E+02  0.7818608E-02  0.1745324E+00
         -3   -1    0    0    0  501 -0.00000000000E+00  0.00000000000E+00  0.82260233557E+00  0.82784274019E+00  0.93000000000E-01 0.  1.
          3   -1    0    0  501    0  0.00000000000E+00 -0.00000000000E+00 -0.12117637368E+03  0.12117640937E+03  0.93000000000E-01 0. -1.
       1023    2    1    2    0    0  0.00000000000E+00  0.00000000000E+00 -0.12035377135E+03  0.12200425211E+03  0.20000181389E+02 0.  0.
        -11    1    3    3    0    0  0.33549792189E+01 -0.94205037601E+01 -0.60139789381E+02  0.60965531604E+02  0.51100000000E-03 0. -1.
         11    1    3    3    0    0 -0.33549792189E+01  0.94205037601E+01 -0.60213981967E+02  0.61038720508E+02  0.51100000000E-03 0.  1.
<mgrwt>
<rscale>  0 0.20000181E+02</rscale>
<asrwt>0</asrwt>
<pdfrwt beam="2">  1        3 0.18642911E-01 0.20000181E+02</pdfrwt>
<pdfrwt beam="1">  1       -3 0.12696015E-03 0.20000181E+02</pdfrwt>
<totfact> 0.13458560E+06</totfact>
</mgrwt>
</event>
<event>
 5    1  0.4133473E-007  0.2000022E+02  0.7818608E-02  0.1745324E+00
         -3   -1    0    0    0  501 -0.00000000000E+00  0.00000000000E+00  0.10005469996E+02  0.10005902200E+02  0.93000000000E-01 0.  1.
          3   -1    0    0  501    0  0.00000000000E+00 -0.00000000000E+00 -0.99938931672E+01  0.99943258721E+01  0.93000000000E-01 0. -1.
       1023    2    1    2    0    0  0.00000000000E+00  0.00000000000E+00  0.11576828545E-01  0.20000228072E+02  0.20000224722E+02 0.  0.
        -11    1    3    3    0    0 -0.72228023045E+01 -0.69161572296E+01  0.17747217588E-01  0.10000120958E+02  0.51100000000E-03 0.  1.
         11    1    3    3    0    0  0.72228023045E+01  0.69161572296E+01 -0.61703890431E-02  0.10000107114E+02  0.51100000000E-03 0. -1.
<mgrwt>
<rscale>  0 0.20000225E+02</rscale>
<asrwt>0</asrwt>
<pdfrwt beam="2">  1        3 0.15375886E-02 0.20000225E+02</pdfrwt>
<pdfrwt beam="1">  1       -3 0.15393696E-02 0.20000225E+02</pdfrwt>
<totfact> 0.17885181E+06</totfact>
</mgrwt>
</event>
<event>
 5    1  0.4133473E-007  0.2000123E+02  0.7818608E-02  0.1745304E+00
         -3   -1    0    0    0  501 -0.00000000000E+00  0.00000000000E+00  0.78234029815E+02  0.78234085091E+02  0.93000000000E-01 0.  1.
          3   -1    0    0  501    0  0.00000000000E+00 -0.00000000000E+00 -0.12766257918E+01  0.12800087548E+01  0.93000000000E-01 0. -1.
       1023    2    1    2    0    0  0.00000000000E+00  0.00000000000E+00  0.76957404023E+02  0.79514093846E+02  0.20001227117E+02 0.  0.
        -11    1    3    3    0    0 -0.37309910247E+01 -0.92782006925E+01  0.38810579702E+02  0.40078253445E+02  0.51100000000E-03 0. -1.
         11    1    3    3    0    0  0.37309910247E+01  0.92782006925E+01  0.38146824321E+02  0.39435840401E+02  0.51100000000E-03 0.  1.
<mgrwt>
<rscale>  0 0.20001227E+02</rscale>
<asrwt>0</asrwt>
<pdfrwt beam="2">  1        3 0.19666842E-03 0.20001227E+02</pdfrwt>
<pdfrwt beam="1">  1       -3 0.12036271E-01 0.20001227E+02</pdfrwt>
<totfact> 0.14931274E+06</totfact>
</mgrwt>
</event>
<event>
 5    1  0.4288793E-007  0.2000232E+02  0.7818608E-02  0.1745282E+00
         -3   -1    0    0    0  501 -0.00000000000E+00  0.00000000000E+00  0.74293818023E+01  0.74299638602E+01  0.93000000000E-01 0.  1.
          3   -1    0    0  501    0  0.00000000000E+00 -0.00000000000E+00 -0.13461926292E+02  0.13462247527E+02  0.93000000000E-01 0. -1.
       1023    2    1    2    0    0  0.00000000000E+00  0.00000000000E+00 -0.60325444894E+01  0.20892211387E+02  0.20002322456E+02 0.  0.
        -11    1    3    3    0    0  0.92995063871E+01  0.36779156400E+01 -0.28868939937E+01  0.10408748229E+02  0.51100000000E-03 0. -1.
         11    1    3    3    0    0 -0.92995063871E+01 -0.36779156400E+01 -0.31456504957E+01  0.10483463159E+02  0.51100000000E-03 0.  1.
<mgrwt>
<rscale>  0 0.20002322E+02</rscale>
<asrwt>0</asrwt>
<pdfrwt beam="2">  1        3 0.20711351E-02 0.20002322E+02</pdfrwt>
<pdfrwt beam="1">  1       -3 0.11430513E-02 0.20002322E+02</pdfrwt>
<totfact> 0.17822648E+06</totfact>
</mgrwt>
</event>
<event>
 5    1  0.4191823E-007  0.2000250E+02  0.7818608E-02  0.1745278E+00
         -3   -1    0    0    0  501 -0.00000000000E+00  0.00000000000E+00  0.29424995237E+02  0.29425142204E+02  0.93000000000E-01 0.  1.
          3   -1    0    0  501    0  0.00000000000E+00 -0.00000000000E+00 -0.33985300348E+01  0.33998022586E+01  0.93000000000E-01 0. -1.
       1023    2    1    2    0    0  0.00000000000E+00  0.00000000000E+00  0.26026465202E+02  0.32824944462E+02  0.20002502044E+02 0.  0.
        -11    1    3    3    0    0 -0.76559060672E+01 -0.64347543991E+01  0.12885485541E+02  0.16311183273E+02  0.51100000000E-03 0.  1.
         11    1    3    3    0    0  0.76559060672E+01  0.64347543991E+01  0.13140979662E+02  0.16513761189E+02  0.51100000000E-03 0. -1.
<mgrwt>
<rscale>  0 0.20002502E+02</rscale>
<asrwt>0</asrwt>
<pdfrwt beam="2">  1        3 0.52295993E-03 0.20002502E+02</pdfrwt>
<pdfrwt beam="1">  1       -3 0.45270316E-02 0.20002502E+02</pdfrwt>
<totfact> 0.17101181E+06</totfact>
</mgrwt>
</event>
<event>
 5    1  0.4170360E-007  0.2000090E+02  0.7818608E-02  0.1745310E+00
         -3   -1    0    0    0  501 -0.00000000000E+00  0.00000000000E+00  0.48625738313E+01  0.48634630938E+01  0.93000000000E-01 0.  1.
          3   -1    0    0  501    0  0.00000000000E+00 -0.00000000000E+00 -0.20564209115E+02  0.20564419406E+02  0.93000000000E-01 0. -1.
       1023    2    1    2    0    0  0.00000000000E+00  0.00000000000E+00 -0.15701635284E+02  0.25427882500E+02  0.20000896427E+02 0.  0.
        -11    1    3    3    0    0 -0.76819580981E+01  0.64024308031E+01 -0.77577075362E+01  0.12656446061E+02  0.51100000000E-03 0.  1.
         11    1    3    3    0    0  0.76819580981E+01 -0.64024308031E+01 -0.79439277474E+01  0.12771436439E+02  0.51100000000E-03 0. -1.
<mgrwt>
<rscale>  0 0.20000896E+02</rscale>
<asrwt>0</asrwt>
<pdfrwt beam="2">  1        3 0.31638090E-02 0.20000896E+02</pdfrwt>
<pdfrwt beam="1">  1       -3 0.74817287E-03 0.20000896E+02</pdfrwt>
<totfact> 0.17538523E+06</totfact>
</mgrwt>
</event>
<event>
 5    1  0.4133473E-007  0.2000231E+02  0.7818608E-02  0.1745282E+00
          3   -1    0    0  501    0  0.00000000000E+00  0.00000000000E+00  0.76974322481E+02  0.76974378662E+02  0.93000000000E-01 0.  1.
         -3   -1    0    0    0  501 -0.00000000000E+00 -0.00000000000E+00 -0.12977140064E+01  0.13010421371E+01  0.93000000000E-01 0. -1.
       1023    2    1    2    0    0  0.00000000000E+00  0.00000000000E+00  0.75676608475E+02  0.78275420799E+02  0.20002310643E+02 0.  0.
        -11    1    3    3    0    0 -0.98494409420E+01 -0.17332165638E+01  0.37497576182E+02  0.38808294814E+02  0.51100000000E-03 0.  1.
         11    1    3    3    0    0  0.98494409420E+01  0.17332165638E+01  0.38179032293E+02  0.39467125986E+02  0.51100000000E-03 0. -1.
<mgrwt>
<rscale>  0 0.20002311E+02</rscale>
<asrwt>0</asrwt>
<pdfrwt beam="1">  1        3 0.11842469E-01 0.20002311E+02</pdfrwt>
<pdfrwt beam="2">  1       -3 0.19990855E-03 0.20002311E+02</pdfrwt>
<totfact> 0.14975094E+06</totfact>
</mgrwt>
</event>
<event>
 5    1  0.4133473E-007  0.2000016E+02  0.7818608E-02  0.1745325E+00
         -3   -1    0    0    0  501 -0.00000000000E+00  0.00000000000E+00  0.11526936671E+01  0.11564392289E+01  0.93000000000E-01 0.  1.
          3   -1    0    0  501    0  0.00000000000E+00 -0.00000000000E+00 -0.86610215514E+02  0.86610265444E+02  0.93000000000E-01 0. -1.
       1023    2    1    2    0    0  0.00000000000E+00  0.00000000000E+00 -0.85457521847E+02  0.87766704673E+02  0.20000160225E+02 0.  0.
        -11    1    3    3    0    0 -0.78932597185E+01 -0.61397705948E+01 -0.42572371362E+02  0.43731077458E+02  0.51100000000E-03 0. -1.
         11    1    3    3    0    0  0.78932597185E+01  0.61397705948E+01 -0.42885150484E+02  0.44035627216E+02  0.51100000000E-03 0.  1.
<mgrwt>
<rscale>  0 0.20000160E+02</rscale>
<asrwt>0</asrwt>
<pdfrwt beam="2">  1        3 0.13324935E-01 0.20000160E+02</pdfrwt>
<pdfrwt beam="1">  1       -3 0.17762952E-03 0.20000160E+02</pdfrwt>
<totfact> 0.14616254E+06</totfact>
</mgrwt>
</event>
<event>
 5    1  0.4381156E-007  0.2000102E+02  0.7818608E-02  0.1745308E+00
          3   -1    0    0  501    0  0.00000000000E+00  0.00000000000E+00  0.85972891108E+01  0.85977921034E+01  0.93000000000E-01 0. -1.
         -3   -1    0    0    0  501 -0.00000000000E+00 -0.00000000000E+00 -0.11631736301E+02  0.11632108080E+02  0.93000000000E-01 0.  1.
       1023    2    1    2    0    0  0.00000000000E+00  0.00000000000E+00 -0.30344471902E+01  0.20229900183E+02  0.20001024765E+02 0.  0.
        -11    1    3    3    0    0 -0.25261150640E+01  0.96758809537E+01 -0.15976196970E+01  0.10127009356E+02  0.51100000000E-03 0.  1.
         11    1    3    3    0    0  0.25261150640E+01 -0.96758809537E+01 -0.14368274932E+01  0.10102890827E+02  0.51100000000E-03 0. -1.
<mgrwt>
<rscale>  0 0.20001025E+02</rscale>
<asrwt>0</asrwt>
<pdfrwt beam="1">  1        3 0.13227272E-02 0.20001025E+02</pdfrwt>
<pdfrwt beam="2">  1       -3 0.17895652E-02 0.20001025E+02</pdfrwt>
<totfact> 0.17868743E+06</totfact>
</mgrwt>
</event>
<event>
 5    1  0.4185309E-007  0.2000083E+02  0.7818608E-02  0.1745312E+00
          3   -1    0    0  501    0  0.00000000000E+00  0.00000000000E+00  0.24864862347E+01  0.24882248281E+01  0.93000000000E-01 0.  1.
         -3   -1    0    0    0  501 -0.00000000000E+00 -0.00000000000E+00 -0.40204867859E+02  0.40204975420E+02  0.93000000000E-01 0. -1.
       1023    2    1    2    0    0  0.00000000000E+00  0.00000000000E+00 -0.37718381624E+02  0.42693200249E+02  0.20000825861E+02 0.  0.
        -11    1    3    3    0    0 -0.25734049197E+01 -0.96635751997E+01 -0.18931891599E+02  0.21410829463E+02  0.51100000000E-03 0.  1.
         11    1    3    3    0    0  0.25734049197E+01  0.96635751997E+01 -0.18786490026E+02  0.21282370786E+02  0.51100000000E-03 0. -1.
<mgrwt>
<rscale>  0 0.20000826E+02</rscale>
<asrwt>0</asrwt>
<pdfrwt beam="1">  1        3 0.38267839E-03 0.20000826E+02</pdfrwt>
<pdfrwt beam="2">  1       -3 0.61855058E-02 0.20000826E+02</pdfrwt>
<totfact> 0.16572428E+06</totfact>
</mgrwt>
</event>
<event>
 5    1  0.4133473E-007  0.2000059E+02  0.7818608E-02  0.1745316E+00
         -3   -1    0    0    0  501 -0.00000000000E+00  0.00000000000E+00  0.64074169132E+02  0.64074236624E+02  0.93000000000E-01 0.  1.
          3   -1    0    0  501    0  0.00000000000E+00 -0.00000000000E+00 -0.15593303515E+01  0.15621011956E+01  0.93000000000E-01 0. -1.
       1023    2    1    2    0    0  0.00000000000E+00  0.00000000000E+00  0.62514838780E+02  0.65636337819E+02  0.20000594357E+02 0.  0.
        -11    1    3    3    0    0  0.82639237477E+01  0.56309893016E+01  0.31014767977E+02  0.32587057387E+02  0.51100000000E-03 0. -1.
         11    1    3    3    0    0 -0.82639237477E+01 -0.56309893016E+01  0.31500070803E+02  0.33049280432E+02  0.51100000000E-03 0.  1.
<mgrwt>
<rscale>  0 0.20000594E+02</rscale>
<asrwt>0</asrwt>
<pdfrwt beam="2">  1        3 0.24011530E-03 0.20000594E+02</pdfrwt>
<pdfrwt beam="1">  1       -3 0.98577834E-02 0.20000594E+02</pdfrwt>
<totfact> 0.15498985E+06</totfact>
</mgrwt>
</event>
<event>
 5    1  0.4133473E-007  0.2000013E+02  0.7818608E-02  0.1745326E+00
         -3   -1    0    0    0  501 -0.00000000000E+00  0.00000000000E+00  0.64718939503E+01  0.64725621127E+01  0.93000000000E-01 0. -1.
          3   -1    0    0  501    0  0.00000000000E+00 -0.00000000000E+00 -0.15450019981E+02  0.15450299881E+02  0.93000000000E-01 0.  1.
       1023    2    1    2    0    0  0.00000000000E+00  0.00000000000E+00 -0.89781260311E+01  0.21922861994E+02  0.20000128274E+02 0.  0.
        -11    1    3    3    0    0  0.97094685165E+01  0.23929645170E+01 -0.44507071505E+01  0.10945723021E+02  0.51100000000E-03 0. -1.
         11    1    3    3    0    0 -0.97094685165E+01 -0.23929645170E+01 -0.45274188806E+01  0.10977138973E+02  0.51100000000E-03 0.  1.
<mgrwt>
<rscale>  0 0.20000128E+02</rscale>
<asrwt>0</asrwt>
<pdfrwt beam="2">  1        3 0.23769991E-02 0.20000128E+02</pdfrwt>
<pdfrwt beam="1">  1       -3 0.99574893E-03 0.20000128E+02</pdfrwt>
<totfact> 0.17760149E+06</totfact>
</mgrwt>
</event>
<event>
 5    1  0.4176818E-007  0.2000101E+02  0.7818608E-02  0.1745308E+00
         -3   -1    0    0    0  501 -0.00000000000E+00  0.00000000000E+00  0.34807678473E+01  0.34820100239E+01  0.93000000000E-01 0. -1.
          3   -1    0    0  501    0  0.00000000000E+00 -0.00000000000E+00 -0.28725751948E+02  0.28725902492E+02  0.93000000000E-01 0.  1.
       1023    2    1    2    0    0  0.00000000000E+00  0.00000000000E+00 -0.25244984101E+02  0.32207912516E+02  0.20001010134E+02 0.  0.
        -11    1    3    3    0    0 -0.99992061905E+01 -0.14443990115E+00 -0.12507334751E+02  0.16013694457E+02  0.51100000000E-03 0. -1.
         11    1    3    3    0    0  0.99992061905E+01  0.14443990115E+00 -0.12737649351E+02  0.16194218060E+02  0.51100000000E-03 0.  1.
<mgrwt>
<rscale>  0 0.20001010E+02</rscale>
<asrwt>0</asrwt>
<pdfrwt beam="2">  1        3 0.44194534E-02 0.20001010E+02</pdfrwt>
<pdfrwt beam="1">  1       -3 0.53560990E-03 0.20001010E+02</pdfrwt>
<totfact> 0.17137144E+06</totfact>
</mgrwt>
</event>
<event>
 5    1  0.4133473E-007  0.2000039E+02  0.7818608E-02  0.1745320E+00
          3   -1    0    0  501    0  0.00000000000E+00  0.00000000000E+00  0.10376776836E+01  0.10418368274E+01  0.93000000000E-01 0. -1.
         -3   -1    0    0    0  501 -0.00000000000E+00 -0.00000000000E+00 -0.96175854134E+02  0.96175899098E+02  0.93000000000E-01 0.  1.
       1023    2    1    2    0    0  0.00000000000E+00  0.00000000000E+00 -0.95138176450E+02  0.97217735926E+02  0.20000389003E+02 0.  0.
        -11    1    3    3    0    0  0.90426366209E+01  0.42701631473E+01 -0.47655964769E+02  0.48693886153E+02  0.51100000000E-03 0. -1.
         11    1    3    3    0    0 -0.90426366209E+01 -0.42701631473E+01 -0.47482211682E+02  0.48523849773E+02  0.51100000000E-03 0.  1.
<mgrwt>
<rscale>  0 0.20000389E+02</rscale>
<asrwt>0</asrwt>
<pdfrwt beam="1">  1        3 0.15996619E-03 0.20000389E+02</pdfrwt>
<pdfrwt beam="2">  1       -3 0.14796602E-01 0.20000389E+02</pdfrwt>
<totfact> 0.14277351E+06</totfact>
</mgrwt>
</event>
<event>
 5    1  0.4347948E-007  0.2000075E+02  0.7818608E-02  0.1745313E+00
          3   -1    0    0  501    0  0.00000000000E+00  0.00000000000E+00  0.15437341512E+02  0.15437621642E+02  0.93000000000E-01 0.  1.
         -3   -1    0    0    0  501 -0.00000000000E+00 -0.00000000000E+00 -0.64776150207E+01  0.64782825931E+01  0.93000000000E-01 0. -1.
       1023    2    1    2    0    0  0.00000000000E+00  0.00000000000E+00  0.89597264917E+01  0.21915904235E+02  0.20000753977E+02 0.  0.
        -11    1    3    3    0    0  0.97620313651E+01 -0.21699978349E+01  0.44389712911E+01  0.10941234545E+02  0.51100000000E-03 0.  1.
         11    1    3    3    0    0 -0.97620313651E+01  0.21699978349E+01  0.45207552005E+01  0.10974669691E+02  0.51100000000E-03 0. -1.
<mgrwt>
<rscale>  0 0.20000754E+02</rscale>
<asrwt>0</asrwt>
<pdfrwt beam="1">  1        3 0.23750485E-02 0.20000754E+02</pdfrwt>
<pdfrwt beam="2">  1       -3 0.99662908E-03 0.20000754E+02</pdfrwt>
<totfact> 0.17759398E+06</totfact>
</mgrwt>
</event>
<event>
 5    1  0.4134097E-007  0.2000049E+02  0.7818608E-02  0.1745318E+00
         -3   -1    0    0    0  501 -0.00000000000E+00  0.00000000000E+00  0.97175270033E+01  0.97179720137E+01  0.93000000000E-01 0. -1.
          3   -1    0    0  501    0  0.00000000000E+00 -0.00000000000E+00 -0.10290297057E+02  0.10290717298E+02  0.93000000000E-01 0.  1.
       1023    2    1    2    0    0  0.00000000000E+00  0.00000000000E+00 -0.57277005337E+00  0.20008689312E+02  0.20000489555E+02 0.  0.
        -11    1    3    3    0    0  0.96424240433E+01  0.26510367637E+01 -0.31001668615E+00  0.10005021137E+02  0.51100000000E-03 0.  1.
         11    1    3    3    0    0 -0.96424240433E+01 -0.26510367637E+01 -0.26275336721E+00  0.10003668175E+02  0.51100000000E-03 0. -1.
<mgrwt>
<rscale>  0 0.20000490E+02</rscale>
<asrwt>0</asrwt>
<pdfrwt beam="2">  1        3 0.15831892E-02 0.20000490E+02</pdfrwt>
<pdfrwt beam="1">  1       -3 0.14950707E-02 0.20000490E+02</pdfrwt>
<totfact> 0.17884095E+06</totfact>
</mgrwt>
</event>
<event>
 5    1  0.4133473E-007  0.2000123E+02  0.7818608E-02  0.1745304E+00
         -3   -1    0    0    0  501 -0.00000000000E+00  0.00000000000E+00  0.34294625667E+01  0.34307233197E+01  0.93000000000E-01 0.  1.
          3   -1    0    0  501    0  0.00000000000E+00 -0.00000000000E+00 -0.29155993260E+02  0.29156141582E+02  0.93000000000E-01 0. -1.
       1023    2    1    2    0    0  0.00000000000E+00  0.00000000000E+00 -0.25726530693E+02  0.32586864902E+02  0.20001234528E+02 0.  0.
        -11    1    3    3    0    0  0.27109060656E+00 -0.99969409641E+01 -0.12854855791E+02  0.16286793313E+02  0.51100000000E-03 0. -1.
         11    1    3    3    0    0 -0.27109060656E+00  0.99969409641E+01 -0.12871674902E+02  0.16300071589E+02  0.51100000000E-03 0.  1.
<mgrwt>
<rscale>  0 0.20001235E+02</rscale>
<asrwt>0</asrwt>
<pdfrwt beam="2">  1        3 0.44856457E-02 0.20001235E+02</pdfrwt>
<pdfrwt beam="1">  1       -3 0.52771804E-03 0.20001235E+02</pdfrwt>
<totfact> 0.17115153E+06</totfact>
</mgrwt>
</event>
<event>
 5    1  0.4168502E-007  0.2000064E+02  0.7818608E-02  0.1745315E+00
         -3   -1    0    0    0  501 -0.00000000000E+00  0.00000000000E+00  0.10992073460E+02  0.10992466872E+02  0.93000000000E-01 0.  1.
          3   -1    0    0  501    0  0.00000000000E+00 -0.00000000000E+00 -0.90972496736E+01  0.90977250247E+01  0.93000000000E-01 0. -1.
       1023    2    1    2    0    0  0.00000000000E+00  0.00000000000E+00  0.18948237861E+01  0.20090191897E+02  0.20000636322E+02 0.  0.
        -11    1    3    3    0    0  0.21346382675E+01  0.97695341866E+01  0.10244645838E+01  0.10052363240E+02  0.51100000000E-03 0. -1.
         11    1    3    3    0    0 -0.21346382675E+01 -0.97695341866E+01  0.87035920220E+00  0.10037828658E+02  0.51100000000E-03 0.  1.
<mgrwt>
<rscale>  0 0.20000636E+02</rscale>
<asrwt>0</asrwt>
<pdfrwt beam="2">  1        3 0.13996437E-02 0.20000636E+02</pdfrwt>
<pdfrwt beam="1">  1       -3 0.16911551E-02 0.20000636E+02</pdfrwt>
<totfact> 0.17878623E+06</totfact>
</mgrwt>
</event>
<event>
 4    1  0.4133473E-007  0.2006211E+02  0.7818608E-02  0.1744096E+00
         -3   -1    0    0    0  501 -0.00000000000E+00  0.00000000000E+00  0.38299165103E+02  0.38299278017E+02  0.93000000000E-01 0.  1.
          3   -1    0    0  501    0  0.00000000000E+00 -0.00000000000E+00 -0.26263248182E+01  0.26279708999E+01  0.93000000000E-01 0. -1.
        -11    1    1    2    0    0 -0.10030486490E+02 -0.27373922835E-02  0.17618839135E+02  0.20273977396E+02  0.51100000000E-03 0.  1.
         11    1    1    2    0    0  0.10030486490E+02  0.27373922835E-02  0.18054001150E+02  0.20653271520E+02  0.51100000000E-03 0. -1.
<mgrwt>
<rscale>  0 0.20062108E+02</rscale>
<asrwt>0</asrwt>
<pdfrwt beam="2">  1        3 0.40418528E-03 0.20062108E+02</pdfrwt>
<pdfrwt beam="1">  1       -3 0.58923145E-02 0.20062108E+02</pdfrwt>
<totfact> 0.16554687E+06</totfact>
</mgrwt>
</event>
<event>
 5    1  0.4200433E-007  0.2000122E+02  0.7818608E-02  0.1745304E+00
          3   -1    0    0  501    0  0.00000000000E+00  0.00000000000E+00  0.66142889300E+02  0.66142954681E+02  0.93000000000E-01 0.  1.
         -3   -1    0    0    0  501 -0.00000000000E+00 -0.00000000000E+00 -0.15105672138E+01  0.15134273380E+01  0.93000000000E-01 0. -1.
       1023    2    1    2    0    0  0.00000000000E+00  0.00000000000E+00  0.64632322087E+02  0.67656382019E+02  0.20001224204E+02 0.  0.
        -11    1    3    3    0    0 -0.77244401997E+01  0.63511215941E+01  0.32628393749E+02  0.34126467746E+02  0.51100000000E-03 0.  1.
         11    1    3    3    0    0  0.77244401997E+01 -0.63511215941E+01  0.32003928337E+02  0.33529914273E+02  0.51100000000E-03 0. -1.
<mgrwt>
<rscale>  0 0.20001224E+02</rscale>
<asrwt>0</asrwt>
<pdfrwt beam="1">  1        3 0.10176053E-01 0.20001224E+02</pdfrwt>
<pdfrwt beam="2">  1       -3 0.23262001E-03 0.20001224E+02</pdfrwt>
<totfact> 0.15409197E+06</totfact>
</mgrwt>
</event>
<event>
 5    1  0.4133473E-007  0.2000602E+02  0.7818608E-02  0.1745208E+00
         -3   -1    0    0    0  501 -0.00000000000E+00  0.00000000000E+00  0.89902245806E+01  0.89907055902E+01  0.93000000000E-01 0.  1.
          3   -1    0    0  501    0  0.00000000000E+00 -0.00000000000E+00 -0.11128919578E+02  0.11129308153E+02  0.93000000000E-01 0. -1.
       1023    2    1    2    0    0  0.00000000000E+00  0.00000000000E+00 -0.21386949973E+01  0.20120013744E+02  0.20006022512E+02 0.  0.
        -11    1    3    3    0    0  0.23541269687E+01 -0.97215440783E+01 -0.11694175941E+01  0.10070644012E+02  0.51100000000E-03 0.  1.
         11    1    3    3    0    0 -0.23541269687E+01  0.97215440783E+01 -0.96927740317E+00  0.10049369731E+02  0.51100000000E-03 0. -1.
<mgrwt>
<rscale>  0 0.20006023E+02</rscale>
<asrwt>0</asrwt>
<pdfrwt beam="2">  1        3 0.17122084E-02 0.20006023E+02</pdfrwt>
<pdfrwt beam="1">  1       -3 0.13831784E-02 0.20006023E+02</pdfrwt>
<totfact> 0.17866130E+06</totfact>
</mgrwt>
</event>
<event>
 5    1  0.4133473E-007  0.2000040E+02  0.7818608E-02  0.1745320E+00
          3   -1    0    0  501    0  0.00000000000E+00  0.00000000000E+00  0.81191258269E+02  0.81191311532E+02  0.93000000000E-01 0.  1.
         -3   -1    0    0    0  501 -0.00000000000E+00 -0.00000000000E+00 -0.12298996796E+01  0.12334108082E+01  0.93000000000E-01 0. -1.
       1023    2    1    2    0    0  0.00000000000E+00  0.00000000000E+00  0.79961358589E+02  0.82424722340E+02  0.20000399632E+02 0.  0.
        -11    1    3    3    0    0 -0.74112981101E+01  0.67138499240E+01  0.39858731081E+02  0.41094057528E+02  0.51100000000E-03 0. -1.
         11    1    3    3    0    0  0.74112981101E+01 -0.67138499240E+01  0.40102627508E+02  0.41330664812E+02  0.51100000000E-03 0.  1.
<mgrwt>
<rscale>  0 0.20000400E+02</rscale>
<asrwt>0</asrwt>
<pdfrwt beam="1">  1        3 0.12491235E-01 0.20000400E+02</pdfrwt>
<pdfrwt beam="2">  1       -3 0.18948955E-03 0.20000400E+02</pdfrwt>
<totfact> 0.14817251E+06</totfact>
</mgrwt>
</event>
<event>
 5    1  0.4133473E-007  0.2000040E+02  0.7818608E-02  0.1745320E+00
         -3   -1    0    0    0  501 -0.00000000000E+00  0.00000000000E+00  0.45673766902E+01  0.45683234157E+01  0.93000000000E-01 0. -1.
          3   -1    0    0  501    0  0.00000000000E+00 -0.00000000000E+00 -0.21891976344E+02  0.21892173882E+02  0.93000000000E-01 0.  1.
       1023    2    1    2    0    0  0.00000000000E+00  0.00000000000E+00 -0.17324599654E+02  0.26460497297E+02  0.20000404097E+02 0.  0.
        -11    1    3    3    0    0  0.87973255738E+01 -0.47551009256E+01 -0.86767129939E+01  0.13239685446E+02  0.51100000000E-03 0.  1.
         11    1    3    3    0    0 -0.87973255738E+01  0.47551009256E+01 -0.86478866604E+01  0.13220811852E+02  0.51100000000E-03 0. -1.
<mgrwt>
<rscale>  0 0.20000404E+02</rscale>
<asrwt>0</asrwt>
<pdfrwt beam="2">  1        3 0.33680843E-02 0.20000404E+02</pdfrwt>
<pdfrwt beam="1">  1       -3 0.70276137E-03 0.20000404E+02</pdfrwt>
<totfact> 0.17476342E+06</totfact>
</mgrwt>
</event>
<event>
 5    1  0.4133473E-007  0.2000062E+02  0.7818608E-02  0.1745316E+00
          3   -1    0    0  501    0  0.00000000000E+00  0.00000000000E+00  0.15155125692E+01  0.15183633779E+01  0.93000000000E-01 0.  1.
         -3   -1    0    0    0  501 -0.00000000000E+00 -0.00000000000E+00 -0.65923479867E+02  0.65923545466E+02  0.93000000000E-01 0. -1.
       1023    2    1    2    0    0  0.00000000000E+00  0.00000000000E+00 -0.64407967298E+02  0.67441908844E+02  0.20000620416E+02 0.  0.
        -11    1    3    3    0    0 -0.38039734839E+01  0.92483131643E+01 -0.31972975278E+02  0.33500338193E+02  0.51100000000E-03 0.  1.
         11    1    3    3    0    0  0.38039734839E+01 -0.92483131643E+01 -0.32434992020E+02  0.33941570651E+02  0.51100000000E-03 0. -1.
<mgrwt>
<rscale>  0 0.20000620E+02</rscale>
<asrwt>0</asrwt>
<pdfrwt beam="1">  1        3 0.23338017E-03 0.20000620E+02</pdfrwt>
<pdfrwt beam="2">  1       -3 0.10142296E-01 0.20000620E+02</pdfrwt>
<totfact> 0.15422114E+06</totfact>
</mgrwt>
</event>
<event>
 4    1  0.4133473E-007  0.2003528E+02  0.7818608E-02  0.1744627E+00
         -3   -1    0    0    0  501 -0.00000000000E+00  0.00000000000E+00  0.10065948599E+03  0.10065952895E+03  0.93000000000E-01 0. -1.
          3   -1    0    0  501    0  0.00000000000E+00 -0.00000000000E+00 -0.99474435428E+00  0.99908224405E+00  0.93000000000E-01 0.  1.
        -11    1    1    2    0    0 -0.81012496526E+01 -0.58741675102E+01  0.52196192504E+02  0.53146764737E+02  0.51100000000E-03 0.  1.
         11    1    1    2    0    0  0.81012496526E+01  0.58741675102E+01  0.47468549133E+02  0.48511846459E+02  0.51100000000E-03 0. -1.
<mgrwt>
<rscale>  0 0.20035282E+02</rscale>
<asrwt>0</asrwt>
<pdfrwt beam="2">  1        3 0.15337460E-03 0.20035282E+02</pdfrwt>
<pdfrwt beam="1">  1       -3 0.15486410E-01 0.20035282E+02</pdfrwt>
<totfact> 0.14070355E+06</totfact>
</mgrwt>
</event>
<event>
 4    1  0.4133473E-007  0.2001293E+02  0.7818608E-02  0.1745071E+00
          3   -1    0    0  501    0  0.00000000000E+00  0.00000000000E+00  0.49206313304E+01  0.49215101026E+01  0.93000000000E-01 0. -1.
         -3   -1    0    0    0  501 -0.00000000000E+00 -0.00000000000E+00 -0.20346077142E+02  0.20346289688E+02  0.93000000000E-01 0.  1.
        -11    1    1    2    0    0 -0.99738973755E+01 -0.76866736629E+00 -0.74038350391E+01  0.12445330527E+02  0.51100000000E-03 0. -1.
         11    1    1    2    0    0  0.99738973755E+01  0.76866736629E+00 -0.80216107730E+01  0.12822469264E+02  0.51100000000E-03 0.  1.
<mgrwt>
<rscale>  0 0.20012929E+02</rscale>
<asrwt>0</asrwt>
<pdfrwt beam="1">  1        3 0.75710416E-03 0.20012929E+02</pdfrwt>
<pdfrwt beam="2">  1       -3 0.31302496E-02 0.20012929E+02</pdfrwt>
<totfact> 0.17526920E+06</totfact>
</mgrwt>
</event>
<event>
 5    1  0.4306941E-007  0.2000095E+02  0.7818608E-02  0.1745309E+00
          3   -1    0    0  501    0  0.00000000000E+00  0.00000000000E+00  0.88614666239E+01  0.88619546222E+01  0.93000000000E-01 0.  1.
         -3   -1    0    0    0  501 -0.00000000000E+00 -0.00000000000E+00 -0.11284896171E+02  0.11285279376E+02  0.93000000000E-01 0. -1.
       1023    2    1    2    0    0  0.00000000000E+00  0.00000000000E+00 -0.24234295475E+01  0.20147233998E+02  0.20000950653E+02 0.  0.
        -11    1    3    3    0    0  0.88776111419E+01  0.46040526249E+01 -0.11965603850E+01  0.10071794139E+02  0.51100000000E-03 0. -1.
         11    1    3    3    0    0 -0.88776111419E+01 -0.46040526249E+01 -0.12268691625E+01  0.10075439860E+02  0.51100000000E-03 0.  1.
<mgrwt>
<rscale>  0 0.20000951E+02</rscale>
<asrwt>0</asrwt>
<pdfrwt beam="1">  1        3 0.13633696E-02 0.20000951E+02</pdfrwt>
<pdfrwt beam="2">  1       -3 0.17362049E-02 0.20000951E+02</pdfrwt>
<totfact> 0.17874297E+06</totfact>
</mgrwt>
</event>
<event>
 5    1  0.4133473E-007  0.2000070E+02  0.7818608E-02  0.1745314E+00
          3   -1    0    0  501    0  0.00000000000E+00  0.00000000000E+00  0.38231123053E+02  0.38231236168E+02  0.93000000000E-01 0. -1.
         -3   -1    0    0    0  501 -0.00000000000E+00 -0.00000000000E+00 -0.26149107461E+01  0.26165640084E+01  0.93000000000E-01 0.  1.
       1023    2    1    2    0    0  0.00000000000E+00  0.00000000000E+00  0.35616212307E+02  0.40847800176E+02  0.20000704991E+02 0.  0.
        -11    1    3    3    0    0 -0.21949614409E+01 -0.97563596490E+01  0.17913051161E+02  0.20515404249E+02  0.51100000000E-03 0. -1.
         11    1    3    3    0    0  0.21949614409E+01  0.97563596490E+01  0.17703161146E+02  0.20332395927E+02  0.51100000000E-03 0.  1.
<mgrwt>
<rscale>  0 0.20000705E+02</rscale>
<asrwt>0</asrwt>
<pdfrwt beam="1">  1        3 0.58818465E-02 0.20000705E+02</pdfrwt>
<pdfrwt beam="2">  1       -3 0.40242988E-03 0.20000705E+02</pdfrwt>
<totfact> 0.16666027E+06</totfact>
</mgrwt>
</event>
<event>
 5    1  0.4133473E-007  0.2000044E+02  0.7818608E-02  0.1745319E+00
         -3   -1    0    0    0  501 -0.00000000000E+00  0.00000000000E+00  0.16884372820E+01  0.16909965864E+01  0.93000000000E-01 0.  1.
          3   -1    0    0  501    0  0.00000000000E+00 -0.00000000000E+00 -0.59181513325E+02  0.59181586397E+02  0.93000000000E-01 0. -1.
       1023    2    1    2    0    0  0.00000000000E+00  0.00000000000E+00 -0.57493076043E+02  0.60872582983E+02  0.20000439149E+02 0.  0.
        -11    1    3    3    0    0  0.93299698919E+01 -0.35993101832E+01 -0.28649367855E+02  0.30344515991E+02  0.51100000000E-03 0.  1.
         11    1    3    3    0    0 -0.93299698919E+01  0.35993101832E+01 -0.28843708188E+02  0.30528066992E+02  0.51100000000E-03 0. -1.
<mgrwt>
<rscale>  0 0.20000439E+02</rscale>
<asrwt>0</asrwt>
<pdfrwt beam="2">  1        3 0.91050491E-02 0.20000439E+02</pdfrwt>
<pdfrwt beam="1">  1       -3 0.25996212E-03 0.20000439E+02</pdfrwt>
<totfact> 0.15704057E+06</totfact>
</mgrwt>
</event>
<event>
 4    1  0.4133473E-007  0.2009635E+02  0.7818608E-02  0.1743419E+00
         -3   -1    0    0    0  501 -0.00000000000E+00  0.00000000000E+00  0.58792286861E+02  0.58792360416E+02  0.93000000000E-01 0.  1.
          3   -1    0    0  501    0  0.00000000000E+00 -0.00000000000E+00 -0.17159964569E+01  0.17185147192E+01  0.93000000000E-01 0. -1.
        -11    1    1    2    0    0  0.89278263784E+01  0.45394768515E+01  0.30971013634E+02  0.32550216891E+02  0.51100000000E-03 0.  1.
         11    1    1    2    0    0 -0.89278263784E+01 -0.45394768515E+01  0.26105276770E+02  0.27960658244E+02  0.51100000000E-03 0. -1.
<mgrwt>
<rscale>  0 0.20096345E+02</rscale>
<asrwt>0</asrwt>
<pdfrwt beam="2">  1        3 0.26419882E-03 0.20096345E+02</pdfrwt>
<pdfrwt beam="1">  1       -3 0.90451667E-02 0.20096345E+02</pdfrwt>
<totfact> 0.15562099E+06</totfact>
</mgrwt>
</event>
<event>
 5    1  0.4133473E-007  0.2000042E+02  0.7818608E-02  0.1745320E+00
          3   -1    0    0  501    0  0.00000000000E+00  0.00000000000E+00  0.49010808493E+02  0.49010896728E+02  0.93000000000E-01 0. -1.
         -3   -1    0    0    0  501 -0.00000000000E+00 -0.00000000000E+00 -0.20393029425E+01  0.20414224186E+01  0.93000000000E-01 0.  1.
       1023    2    1    2    0    0  0.00000000000E+00  0.00000000000E+00  0.46971505550E+02  0.51052319147E+02  0.20000423911E+02 0.  0.
        -11    1    3    3    0    0 -0.77850318744E+01 -0.62764488073E+01  0.23641186356E+02  0.25669168734E+02  0.51100000000E-03 0. -1.
         11    1    3    3    0    0  0.77850318744E+01  0.62764488073E+01  0.23330319194E+02  0.25383150412E+02  0.51100000000E-03 0.  1.
<mgrwt>
<rscale>  0 0.20000424E+02</rscale>
<asrwt>0</asrwt>
<pdfrwt beam="1">  1        3 0.75402940E-02 0.20000424E+02</pdfrwt>
<pdfrwt beam="2">  1       -3 0.31390875E-03 0.20000424E+02</pdfrwt>
<totfact> 0.16155879E+06</totfact>
</mgrwt>
</event>
<event>
 5    1  0.4133473E-007  0.2000046E+02  0.7818608E-02  0.1745319E+00
          3   -1    0    0  501    0  0.00000000000E+00  0.00000000000E+00  0.37359945103E+01  0.37371518541E+01  0.93000000000E-01 0.  1.
         -3   -1    0    0    0  501 -0.00000000000E+00 -0.00000000000E+00 -0.26762473653E+02  0.26762635241E+02  0.93000000000E-01 0. -1.
       1023    2    1    2    0    0  0.00000000000E+00  0.00000000000E+00 -0.23026479143E+02  0.30499787095E+02  0.20000456773E+02 0.  0.
        -11    1    3    3    0    0 -0.93041467797E+01 -0.36654298525E+01 -0.11582187364E+02  0.15301947187E+02  0.51100000000E-03 0. -1.
         11    1    3    3    0    0  0.93041467797E+01  0.36654298525E+01 -0.11444291778E+02  0.15197839908E+02  0.51100000000E-03 0.  1.
<mgrwt>
<rscale>  0 0.20000457E+02</rscale>
<asrwt>0</asrwt>
<pdfrwt beam="1">  1        3 0.57486986E-03 0.20000457E+02</pdfrwt>
<pdfrwt beam="2">  1       -3 0.41174050E-02 0.20000457E+02</pdfrwt>
<totfact> 0.17238187E+06</totfact>
</mgrwt>
</event>
<event>
 5    1  0.4133473E-007  0.2000054E+02  0.7818608E-02  0.1745317E+00
         -3   -1    0    0    0  501 -0.00000000000E+00  0.00000000000E+00  0.55069227026E+01  0.55077079309E+01  0.93000000000E-01 0.  1.
          3   -1    0    0  501    0  0.00000000000E+00 -0.00000000000E+00 -0.18157747032E+02  0.18157985194E+02  0.93000000000E-01 0. -1.
       1023    2    1    2    0    0  0.00000000000E+00  0.00000000000E+00 -0.12650824330E+02  0.23665693124E+02  0.20000541864E+02 0.  0.
        -11    1    3    3    0    0  0.99865436051E+01 -0.52378284062E+00 -0.63302634115E+01  0.11835439863E+02  0.51100000000E-03 0.  1.
         11    1    3    3    0    0 -0.99865436051E+01  0.52378284062E+00 -0.63205609182E+01  0.11830253261E+02  0.51100000000E-03 0. -1.
<mgrwt>
<rscale>  0 0.20000542E+02</rscale>
<asrwt>0</asrwt>
<pdfrwt beam="2">  1        3 0.27935782E-02 0.20000542E+02</pdfrwt>
<pdfrwt beam="1">  1       -3 0.84729761E-03 0.20000542E+02</pdfrwt>
<totfact> 0.17648725E+06</totfact>
</mgrwt>
</event>
<event>
 5    1  0.4133473E-007  0.2000041E+02  0.7818608E-02  0.1745320E+00
          3   -1    0    0  501    0  0.00000000000E+00  0.00000000000E+00  0.11829019385E+03  0.11829023041E+03  0.93000000000E-01 0.  1.
         -3   -1    0    0    0  501 -0.00000000000E+00 -0.00000000000E+00 -0.84281912660E+00  0.84793459663E+00  0.93000000000E-01 0. -1.
       1023    2    1    2    0    0  0.00000000000E+00  0.00000000000E+00  0.11744737472E+03  0.11913816500E+03  0.20000413279E+02 0.  0.
        -11    1    3    3    0    0 -0.99379704791E+01  0.11125941494E+01  0.58396899700E+02  0.59246932560E+02  0.51100000000E-03 0.  1.
         11    1    3    3    0    0  0.99379704791E+01 -0.11125941494E+01  0.59050475022E+02  0.59891232444E+02  0.51100000000E-03 0. -1.
<mgrwt>
<rscale>  0 0.20000413E+02</rscale>
<asrwt>0</asrwt>
<pdfrwt beam="1">  1        3 0.18198886E-01 0.20000413E+02</pdfrwt>
<pdfrwt beam="2">  1       -3 0.13006080E-03 0.20000413E+02</pdfrwt>
<totfact> 0.13547381E+06</totfact>
</mgrwt>
</event>
<event>
 4    1  0.4133473E-007  0.2001791E+02  0.7818608E-02  0.1744972E+00
         -3   -1    0    0    0  501 -0.00000000000E+00  0.00000000000E+00  0.51992371075E+01  0.52000687976E+01  0.93000000000E-01 0.  1.
          3   -1    0    0  501    0  0.00000000000E+00 -0.00000000000E+00 -0.19265561088E+02  0.19265785555E+02  0.93000000000E-01 0. -1.
        -11    1    1    2    0    0 -0.98621985601E+01 -0.17076289516E+01 -0.70166564178E+01  0.12223437512E+02  0.51100000000E-03 0.  1.
         11    1    1    2    0    0  0.98621985601E+01  0.17076289516E+01 -0.70496675629E+01  0.12242416840E+02  0.51100000000E-03 0. -1.
<mgrwt>
<rscale>  0 0.20017906E+02</rscale>
<asrwt>0</asrwt>
<pdfrwt beam="2">  1        3 0.29640137E-02 0.20017906E+02</pdfrwt>
<pdfrwt beam="1">  1       -3 0.79996388E-03 0.20017906E+02</pdfrwt>
<totfact> 0.17565888E+06</totfact>
</mgrwt>
</event>
<event>
 5    1  0.4133473E-007  0.2000052E+02  0.7818608E-02  0.1745318E+00
         -3   -1    0    0    0  501 -0.00000000000E+00  0.00000000000E+00  0.57313065080E+01  0.57320609984E+01  0.93000000000E-01 0. -1.
          3   -1    0    0  501    0  0.00000000000E+00 -0.00000000000E+00 -0.17446902241E+02  0.17447150106E+02  0.93000000000E-01 0.  1.
       1023    2    1    2    0    0  0.00000000000E+00  0.00000000000E+00 -0.11715595733E+02  0.23179211104E+02  0.20000516094E+02 0.  0.
        -11    1    3    3    0    0 -0.99308917793E+01  0.11753520912E+01 -0.58194186534E+01  0.11570207336E+02  0.51100000000E-03 0. -1.
         11    1    3    3    0    0  0.99308917793E+01 -0.11753520912E+01 -0.58961770795E+01  0.11609003768E+02  0.51100000000E-03 0.  1.
<mgrwt>
<rscale>  0 0.20000516E+02</rscale>
<asrwt>0</asrwt>
<pdfrwt beam="2">  1        3 0.26842159E-02 0.20000516E+02</pdfrwt>
<pdfrwt beam="1">  1       -3 0.88181658E-03 0.20000516E+02</pdfrwt>
<totfact> 0.17679394E+06</totfact>
</mgrwt>
</event>
<event>
 5    1  0.4196660E-007  0.2000174E+02  0.7818608E-02  0.1745294E+00
         -3   -1    0    0    0  501 -0.00000000000E+00  0.00000000000E+00  0.43395841646E+01  0.43405805743E+01  0.93000000000E-01 0. -1.
          3   -1    0    0  501    0  0.00000000000E+00 -0.00000000000E+00 -0.23043954175E+02  0.23044141837E+02  0.93000000000E-01 0.  1.
       1023    2    1    2    0    0  0.00000000000E+00  0.00000000000E+00 -0.18704370010E+02  0.27384722412E+02  0.20001739026E+02 0.  0.
        -11    1    3    3    0    0  0.33205794119E+01  0.94332835021E+01 -0.94420213971E+01  0.13753721445E+02  0.51100000000E-03 0.  1.
         11    1    3    3    0    0 -0.33205794119E+01 -0.94332835021E+01 -0.92623486133E+01  0.13631000967E+02  0.51100000000E-03 0. -1.
<mgrwt>
<rscale>  0 0.20001739E+02</rscale>
<asrwt>0</asrwt>
<pdfrwt beam="2">  1        3 0.35453147E-02 0.20001739E+02</pdfrwt>
<pdfrwt beam="1">  1       -3 0.66771943E-03 0.20001739E+02</pdfrwt>
<totfact> 0.17418034E+06</totfact>
</mgrwt>
</event>
<event>
 5    1  0.4133473E-007  0.2000514E+02  0.7818608E-02  0.1745226E+00
          3   -1    0    0  501    0  0.00000000000E+00  0.00000000000E+00  0.66998845380E+01  0.67005299658E+01  0.93000000000E-01 0. -1.
         -3   -1    0    0    0  501 -0.00000000000E+00 -0.00000000000E+00 -0.14931796255E+02  0.14932085869E+02  0.93000000000E-01 0.  1.
       1023    2    1    2    0    0  0.00000000000E+00  0.00000000000E+00 -0.82319117168E+01  0.21632615835E+02  0.20005141772E+02 0.  0.
        -11    1    3    3    0    0  0.76778176306E+01  0.64088836382E+01 -0.39326003334E+01  0.10746535195E+02  0.51100000000E-03 0. -1.
         11    1    3    3    0    0 -0.76778176306E+01 -0.64088836382E+01 -0.42993113834E+01  0.10886080639E+02  0.51100000000E-03 0.  1.
<mgrwt>
<rscale>  0 0.20005142E+02</rscale>
<asrwt>0</asrwt>
<pdfrwt beam="1">  1        3 0.10308234E-02 0.20005142E+02</pdfrwt>
<pdfrwt beam="2">  1       -3 0.22972713E-02 0.20005142E+02</pdfrwt>
<totfact> 0.17769929E+06</totfact>
</mgrwt>
</event>
<event>
 5    1  0.4133473E-007  0.2000764E+02  0.7818608E-02  0.1745176E+00
         -3   -1    0    0    0  501 -0.00000000000E+00  0.00000000000E+00  0.44716233882E+01  0.44725903820E+01  0.93000000000E-01 0. -1.
          3   -1    0    0  501    0  0.00000000000E+00 -0.00000000000E+00 -0.22376850766E+02  0.22377044023E+02  0.93000000000E-01 0.  1.
       1023    2    1    2    0    0  0.00000000000E+00  0.00000000000E+00 -0.17905227378E+02  0.26849634405E+02  0.20007641046E+02 0.  0.
        -11    1    3    3    0    0 -0.98108843535E+01 -0.19482137117E+01 -0.91748963054E+01  0.13573050908E+02  0.51100000000E-03 0. -1.
         11    1    3    3    0    0  0.98108843535E+01  0.19482137117E+01 -0.87303310721E+01  0.13276583497E+02  0.51100000000E-03 0.  1.
<mgrwt>
<rscale>  0 0.20007641E+02</rscale>
<asrwt>0</asrwt>
<pdfrwt beam="2">  1        3 0.34426816E-02 0.20007641E+02</pdfrwt>
<pdfrwt beam="1">  1       -3 0.68803132E-03 0.20007641E+02</pdfrwt>
<totfact> 0.17439182E+06</totfact>
</mgrwt>
</event>
<event>
 4    1  0.4133473E-007  0.2008218E+02  0.7818608E-02  0.1743699E+00
          3   -1    0    0  501    0  0.00000000000E+00  0.00000000000E+00  0.25189113733E+02  0.25189285413E+02  0.93000000000E-01 0. -1.
         -3   -1    0    0    0  501 -0.00000000000E+00 -0.00000000000E+00 -0.40019352649E+01  0.40030157212E+01  0.93000000000E-01 0.  1.
        -11    1    1    2    0    0 -0.95175327786E+01  0.31491835474E+01  0.11419343758E+02  0.15195466407E+02  0.51100000000E-03 0.  1.
         11    1    1    2    0    0  0.95175327786E+01 -0.31491835474E+01  0.97678347096E+01  0.13996834727E+02  0.51100000000E-03 0. -1.
<mgrwt>
<rscale>  0 0.20082179E+02</rscale>
<asrwt>0</asrwt>
<pdfrwt beam="1">  1        3 0.38753446E-02 0.20082179E+02</pdfrwt>
<pdfrwt beam="2">  1       -3 0.61577866E-03 0.20082179E+02</pdfrwt>
<totfact> 0.17161590E+06</totfact>
</mgrwt>
</event>
<event>
 5    1  0.4133473E-007  0.2000050E+02  0.7818608E-02  0.1745318E+00
         -3   -1    0    0    0  501 -0.00000000000E+00  0.00000000000E+00  0.14242723796E+01  0.14273054372E+01  0.93000000000E-01 0. -1.
          3   -1    0    0  501    0  0.00000000000E+00 -0.00000000000E+00 -0.70137074030E+02  0.70137135688E+02  0.93000000000E-01 0.  1.
       1023    2    1    2    0    0  0.00000000000E+00  0.00000000000E+00 -0.68712801650E+02  0.71564441125E+02  0.20000503066E+02 0.  0.
        -11    1    3    3    0    0  0.99919493442E+01 -0.40738917704E+00 -0.34369213596E+02  0.35794522781E+02  0.51100000000E-03 0. -1.
         11    1    3    3    0    0 -0.99919493442E+01  0.40738917704E+00 -0.34343588054E+02  0.35769918344E+02  0.51100000000E-03 0.  1.
<mgrwt>
<rscale>  0 0.20000503E+02</rscale>
<asrwt>0</asrwt>
<pdfrwt beam="2">  1        3 0.10790554E-01 0.20000503E+02</pdfrwt>
<pdfrwt beam="1">  1       -3 0.21935694E-03 0.20000503E+02</pdfrwt>
<totfact> 0.15247609E+06</totfact>
</mgrwt>
</event>
<event>
 5    1  0.4133473E-007  0.2000038E+02  0.7818608E-02  0.1745320E+00
          3   -1    0    0  501    0  0.00000000000E+00  0.00000000000E+00  0.19754097739E+01  0.19775977283E+01  0.93000000000E-01 0.  1.
         -3   -1    0    0    0  501 -0.00000000000E+00 -0.00000000000E+00 -0.50594096425E+02  0.50594181899E+02  0.93000000000E-01 0. -1.
       1023    2    1    2    0    0  0.00000000000E+00  0.00000000000E+00 -0.48618686651E+02  0.52571779628E+02  0.20000383035E+02 0.  0.
        -11    1    3    3    0    0 -0.53470694835E+01  0.84505985032E+01 -0.24288480032E+02  0.26266595319E+02  0.51100000000E-03 0. -1.
         11    1    3    3    0    0  0.53470694835E+01 -0.84505985032E+01 -0.24330206619E+02  0.26305184309E+02  0.51100000000E-03 0.  1.
<mgrwt>
<rscale>  0 0.20000383E+02</rscale>
<asrwt>0</asrwt>
<pdfrwt beam="1">  1        3 0.30408411E-03 0.20000383E+02</pdfrwt>
<pdfrwt beam="2">  1       -3 0.77838810E-02 0.20000383E+02</pdfrwt>
<totfact> 0.16086336E+06</totfact>
</mgrwt>
</event>
<event>
 5    1  0.4133473E-007  0.2000139E+02  0.7818608E-02  0.1745300E+00
         -3   -1    0    0    0  501 -0.00000000000E+00  0.00000000000E+00  0.22324615799E+01  0.22343978396E+01  0.93000000000E-01 0.  1.
          3   -1    0    0  501    0  0.00000000000E+00 -0.00000000000E+00 -0.44778442497E+02  0.44778539072E+02  0.93000000000E-01 0. -1.
       1023    2    1    2    0    0  0.00000000000E+00  0.00000000000E+00 -0.42545980917E+02  0.47012936912E+02  0.20001393574E+02 0.  0.
        -11    1    3    3    0    0  0.65771216095E+01 -0.75336144461E+01 -0.21254681825E+02  0.23489899426E+02  0.51100000000E-03 0.  1.
         11    1    3    3    0    0 -0.65771216095E+01  0.75336144461E+01 -0.21291299091E+02  0.23523037486E+02  0.51100000000E-03 0. -1.
<mgrwt>
<rscale>  0 0.20001394E+02</rscale>
<asrwt>0</asrwt>
<pdfrwt beam="2">  1        3 0.68891469E-02 0.20001394E+02</pdfrwt>
<pdfrwt beam="1">  1       -3 0.34361203E-03 0.20001394E+02</pdfrwt>
<totfact> 0.16350834E+06</totfact>
</mgrwt>
</event>
<event>
 5    1  0.4133473E-007  0.2000157E+02  0.7818608E-02  0.1745297E+00
         -3   -1    0    0    0  501 -0.00000000000E+00  0.00000000000E+00  0.86014392804E+00  0.86515696665E+00  0.93000000000E-01 0.  1.
          3   -1    0    0  501    0  0.00000000000E+00 -0.00000000000E+00 -0.11593496297E+03  0.11593500027E+03  0.93000000000E-01 0. -1.
       1023    2    1    2    0    0  0.00000000000E+00  0.00000000000E+00 -0.11507481904E+03  0.11680015724E+03  0.20001568769E+02 0.  0.
        -11    1    3    3    0    0 -0.30857199516E+01 -0.95127211680E+01 -0.57808581172E+02  0.58667244601E+02  0.51100000000E-03 0. -1.
         11    1    3    3    0    0  0.30857199516E+01  0.95127211680E+01 -0.57266237868E+02  0.58132912635E+02  0.51100000000E-03 0.  1.
<mgrwt>
<rscale>  0 0.20001569E+02</rscale>
<asrwt>0</asrwt>
<pdfrwt beam="2">  1        3 0.17836524E-01 0.20001569E+02</pdfrwt>
<pdfrwt beam="1">  1       -3 0.13271841E-03 0.20001569E+02</pdfrwt>
<totfact> 0.13619371E+06</totfact>
</mgrwt>
</event>
<event>
 5    1  0.4133473E-007  0.2000020E+02  0.7818608E-02  0.1745324E+00
         -3   -1    0    0    0  501 -0.00000000000E+00  0.00000000000E+00  0.99280881898E+01  0.99285237626E+01  0.93000000000E-01 0. -1.
          3   -1    0    0  501    0  0.00000000000E+00 -0.00000000000E+00 -0.10071759726E+02  0.10072189086E+02  0.93000000000E-01 0.  1.
       1023    2    1    2    0    0  0.00000000000E+00  0.00000000000E+00 -0.14367153604E+00  0.20000712848E+02  0.20000196822E+02 0.  0.
        -11    1    3    3    0    0 -0.55858975223E+01  0.82945593828E+01 -0.70617215597E-01  0.10000347671E+02  0.51100000000E-03 0.  1.
         11    1    3    3    0    0  0.55858975223E+01 -0.82945593828E+01 -0.73054320445E-01  0.10000365177E+02  0.51100000000E-03 0. -1.
<mgrwt>
<rscale>  0 0.20000197E+02</rscale>
<asrwt>0</asrwt>
<pdfrwt beam="2">  1        3 0.15495680E-02 0.20000197E+02</pdfrwt>
<pdfrwt beam="1">  1       -3 0.15274647E-02 0.20000197E+02</pdfrwt>
<totfact> 0.17885197E+06</totfact>
</mgrwt>
</event>
<event>
 5    1  0.4133473E-007  0.2000251E+02  0.7818608E-02  0.1745278E+00
          3   -1    0    0  501    0  0.00000000000E+00  0.00000000000E+00  0.96316627866E+02  0.96316672765E+02  0.93000000000E-01 0.  1.
         -3   -1    0    0    0  501 -0.00000000000E+00 -0.00000000000E+00 -0.10363756259E+01  0.10405399742E+01  0.93000000000E-01 0. -1.
       1023    2    1    2    0    0  0.00000000000E+00  0.00000000000E+00  0.95280252241E+02  0.97357212739E+02  0.20002509977E+02 0.  0.
        -11    1    3    3    0    0  0.47432226289E+01 -0.88045231635E+01  0.48056326885E+02  0.49085928156E+02  0.51100000000E-03 0. -1.
         11    1    3    3    0    0 -0.47432226289E+01  0.88045231635E+01  0.47223925356E+02  0.48271284583E+02  0.51100000000E-03 0.  1.
<mgrwt>
<rscale>  0 0.20002510E+02</rscale>
<asrwt>0</asrwt>
<pdfrwt beam="1">  1        3 0.14818258E-01 0.20002510E+02</pdfrwt>
<pdfrwt beam="2">  1       -3 0.15976629E-03 0.20002510E+02</pdfrwt>
<totfact> 0.14266343E+06</totfact>
</mgrwt>
</event>
<event>
 4    1  0.4133473E-007  0.2001440E+02  0.7818608E-02  0.1745042E+00
          3   -1    0    0  501    0  0.00000000000E+00  0.00000000000E+00  0.32634549633E+02  0.32634682146E+02  0.93000000000E-01 0. -1.
         -3   -1    0    0    0  501 -0.00000000000E+00 -0.00000000000E+00 -0.30678073876E+01  0.30692167026E+01  0.93000000000E-01 0.  1.
        -11    1    1    2    0    0  0.45439152718E+00  0.99954026925E+01  0.14477028494E+02  0.17598264145E+02  0.51100000000E-03 0.  1.
         11    1    1    2    0    0 -0.45439152718E+00 -0.99954026925E+01  0.15089713751E+02  0.18105634703E+02  0.51100000000E-03 0. -1.
<mgrwt>
<rscale>  0 0.20014398E+02</rscale>
<asrwt>0</asrwt>
<pdfrwt beam="1">  1        3 0.50208186E-02 0.20014398E+02</pdfrwt>
<pdfrwt beam="2">  1       -3 0.47208897E-03 0.20014398E+02</pdfrwt>
<totfact> 0.16917007E+06</totfact>
</mgrwt>
</event>
<event>
 5    1  0.4133473E-007  0.2000029E+02  0.7818608E-02  0.1745322E+00
          3   -1    0    0  501    0  0.00000000000E+00  0.00000000000E+00  0.11271295902E+03  0.11271299739E+03  0.93000000000E-01 0.  1.
         -3   -1    0    0    0  501 -0.00000000000E+00 -0.00000000000E+00 -0.88475953782E+00  0.88963387962E+00  0.93000000000E-01 0. -1.
       1023    2    1    2    0    0  0.00000000000E+00  0.00000000000E+00  0.11182819948E+03  0.11360263127E+03  0.20000290782E+02 0.  0.
        -11    1    3    3    0    0 -0.37200696199E+01  0.92823771770E+01  0.56131397549E+02  0.57015219329E+02  0.51100000000E-03 0.  1.
         11    1    3    3    0    0  0.37200696199E+01 -0.92823771770E+01  0.55696801935E+02  0.56587411940E+02  0.51100000000E-03 0. -1.
<mgrwt>
<rscale>  0 0.20000291E+02</rscale>
<asrwt>0</asrwt>
<pdfrwt beam="1">  1        3 0.17340835E-01 0.20000291E+02</pdfrwt>
<pdfrwt beam="2">  1       -3 0.13649474E-03 0.20000291E+02</pdfrwt>
<totfact> 0.13723413E+06</totfact>
</mgrwt>
</event>
<event>
 5    1  0.4133473E-007  0.2000113E+02  0.7818608E-02  0.1745306E+00
          3   -1    0    0  501    0  0.00000000000E+00  0.00000000000E+00  0.21727724892E+01  0.21747618927E+01  0.93000000000E-01 0. -1.
         -3   -1    0    0    0  501 -0.00000000000E+00 -0.00000000000E+00 -0.46006258557E+02  0.46006352555E+02  0.93000000000E-01 0.  1.
       1023    2    1    2    0    0  0.00000000000E+00  0.00000000000E+00 -0.43833486068E+02  0.48181114448E+02  0.20001132182E+02 0.  0.
        -11    1    3    3    0    0 -0.97414438093E+01  0.22606750184E+01 -0.22086103116E+02  0.24244635080E+02  0.51100000000E-03 0. -1.
         11    1    3    3    0    0  0.97414438093E+01 -0.22606750184E+01 -0.21747382952E+02  0.23936479368E+02  0.51100000000E-03 0.  1.
<mgrwt>
<rscale>  0 0.20001132E+02</rscale>
<asrwt>0</asrwt>
<pdfrwt beam="1">  1        3 0.33443299E-03 0.20001132E+02</pdfrwt>
<pdfrwt beam="2">  1       -3 0.70780455E-02 0.20001132E+02</pdfrwt>
<totfact> 0.16296230E+06</totfact>
</mgrwt>
</event>
<event>
 5    1  0.4133473E-007  0.2000007E+02  0.7818608E-02  0.1745327E+00
          3   -1    0    0  501    0  0.00000000000E+00  0.00000000000E+00  0.35993430297E+01  0.36005442985E+01  0.93000000000E-01 0.  1.
         -3   -1    0    0    0  501 -0.00000000000E+00 -0.00000000000E+00 -0.27777141126E+02  0.27777296811E+02  0.93000000000E-01 0. -1.
       1023    2    1    2    0    0  0.00000000000E+00  0.00000000000E+00 -0.24177798096E+02  0.31377841109E+02  0.20000074798E+02 0.  0.
        -11    1    3    3    0    0 -0.94953718660E+01 -0.31366534469E+01 -0.12076153573E+02  0.15679099690E+02  0.51100000000E-03 0. -1.
         11    1    3    3    0    0  0.94953718660E+01  0.31366534469E+01 -0.12101644523E+02  0.15698741419E+02  0.51100000000E-03 0.  1.
<mgrwt>
<rscale>  0 0.20000075E+02</rscale>
<asrwt>0</asrwt>
<pdfrwt beam="1">  1        3 0.55384948E-03 0.20000075E+02</pdfrwt>
<pdfrwt beam="2">  1       -3 0.42735106E-02 0.20000075E+02</pdfrwt>
<totfact> 0.17188234E+06</totfact>
</mgrwt>
</event>
<event>
 5    1  0.4133473E-007  0.2000120E+02  0.7818608E-02  0.1745304E+00
         -3   -1    0    0    0  501 -0.00000000000E+00  0.00000000000E+00  0.21761456385E+01  0.21781319611E+01  0.93000000000E-01 0. -1.
          3   -1    0    0  501    0  0.00000000000E+00 -0.00000000000E+00 -0.45935333484E+02  0.45935427627E+02  0.93000000000E-01 0.  1.
       1023    2    1    2    0    0  0.00000000000E+00  0.00000000000E+00 -0.43759187845E+02  0.48113559588E+02  0.20001202348E+02 0.  0.
        -11    1    3    3    0    0 -0.95877276632E+01  0.28437330256E+01 -0.21942521095E+02  0.24114011934E+02  0.51100000000E-03 0.  1.
         11    1    3    3    0    0  0.95877276632E+01 -0.28437330256E+01 -0.21816666750E+02  0.23999547654E+02  0.51100000000E-03 0. -1.
<mgrwt>
<rscale>  0 0.20001202E+02</rscale>
<asrwt>0</asrwt>
<pdfrwt beam="2">  1        3 0.70671337E-02 0.20001202E+02</pdfrwt>
<pdfrwt beam="1">  1       -3 0.33495171E-03 0.20001202E+02</pdfrwt>
<totfact> 0.16296904E+06</totfact>
</mgrwt>
</event>
<event>
 5    1  0.4133473E-007  0.2000967E+02  0.7818608E-02  0.1745136E+00
         -3   -1    0    0    0  501 -0.00000000000E+00  0.00000000000E+00  0.10825017840E+02  0.10825417324E+02  0.93000000000E-01 0.  1.
          3   -1    0    0  501    0  0.00000000000E+00 -0.00000000000E+00 -0.92459954964E+01  0.92464632006E+01  0.93000000000E-01 0. -1.
       1023    2    1    2    0    0  0.00000000000E+00  0.00000000000E+00  0.15790223436E+01  0.20071880525E+02  0.20009674566E+02 0.  0.
        -11    1    3    3    0    0  0.34095294873E+01  0.94054128564E+01  0.89025482247E+00  0.10043865602E+02  0.51100000000E-03 0.  1.
         11    1    3    3    0    0 -0.34095294873E+01 -0.94054128564E+01  0.68876752109E+00  0.10028014922E+02  0.51100000000E-03 0. -1.
<mgrwt>
<rscale>  0 0.20009675E+02</rscale>
<asrwt>0</asrwt>
<pdfrwt beam="2">  1        3 0.14225276E-02 0.20009675E+02</pdfrwt>
<pdfrwt beam="1">  1       -3 0.16654541E-02 0.20009675E+02</pdfrwt>
<totfact> 0.17862393E+06</totfact>
</mgrwt>
</event>
<event>
 5    1  0.4133473E-007  0.2000128E+02  0.7818608E-02  0.1745303E+00
          3   -1    0    0  501    0  0.00000000000E+00  0.00000000000E+00  0.16431569724E+01  0.16457866921E+01  0.93000000000E-01 0. -1.
         -3   -1    0    0    0  501 -0.00000000000E+00 -0.00000000000E+00 -0.60814891273E+02  0.60814962382E+02  0.93000000000E-01 0.  1.
       1023    2    1    2    0    0  0.00000000000E+00  0.00000000000E+00 -0.59171734300E+02  0.62460749074E+02  0.20001275829E+02 0.  0.
        -11    1    3    3    0    0 -0.22104221397E+01 -0.97532935633E+01 -0.29609457625E+02  0.31252722801E+02  0.51100000000E-03 0. -1.
         11    1    3    3    0    0  0.22104221397E+01  0.97532935633E+01 -0.29562276676E+02  0.31208026273E+02  0.51100000000E-03 0.  1.
<mgrwt>
<rscale>  0 0.20001276E+02</rscale>
<asrwt>0</asrwt>
<pdfrwt beam="1">  1        3 0.25300118E-03 0.20001276E+02</pdfrwt>
<pdfrwt beam="2">  1       -3 0.93563431E-02 0.20001276E+02</pdfrwt>
<totfact> 0.15635415E+06</totfact>
</mgrwt>
</event>
<event>
 4    1  0.4133473E-007  0.2023066E+02  0.7818608E-02  0.1740780E+00
         -3   -1    0    0    0  501 -0.00000000000E+00  0.00000000000E+00  0.18101423868E+02  0.18101662770E+02  0.93000000000E-01 0.  1.
          3   -1    0    0  501    0  0.00000000000E+00 -0.00000000000E+00 -0.56519302091E+01  0.56526952941E+01  0.93000000000E-01 0. -1.
        -11    1    1    2    0    0  0.10012025124E+02 -0.99728703781E+00  0.74476273451E+01  0.12518082195E+02  0.51100000000E-03 0.  1.
         11    1    1    2    0    0 -0.10012025124E+02  0.99728703781E+00  0.50018663136E+01  0.11236275869E+02  0.51100000000E-03 0. -1.
<mgrwt>
<rscale>  0 0.20230661E+02</rscale>
<asrwt>0</asrwt>
<pdfrwt beam="2">  1        3 0.86960496E-03 0.20230661E+02</pdfrwt>
<pdfrwt beam="1">  1       -3 0.27849117E-02 0.20230661E+02</pdfrwt>
<totfact> 0.17214362E+06</totfact>
</mgrwt>
</event>
<event>
 5    1  0.4133473E-007  0.2001077E+02  0.7818608E-02  0.1745114E+00
         -3   -1    0    0    0  501 -0.00000000000E+00  0.00000000000E+00  0.34010903784E+02  0.34011030934E+02  0.93000000000E-01 0. -1.
          3   -1    0    0  501    0  0.00000000000E+00 -0.00000000000E+00 -0.29425337685E+01  0.29440030534E+01  0.93000000000E-01 0.  1.
       1023    2    1    2    0    0  0.00000000000E+00  0.00000000000E+00  0.31068370015E+02  0.36955033987E+02  0.20010770140E+02 0.  0.
        -11    1    3    3    0    0  0.15900453351E+01 -0.98748222631E+01  0.15054841243E+02  0.18074529150E+02  0.51100000000E-03 0.  1.
         11    1    3    3    0    0 -0.15900453351E+01  0.98748222631E+01  0.16013528773E+02  0.18880504837E+02  0.51100000000E-03 0. -1.
<mgrwt>
<rscale>  0 0.20010770E+02</rscale>
<asrwt>0</asrwt>
<pdfrwt beam="2">  1        3 0.45282030E-03 0.20010770E+02</pdfrwt>
<pdfrwt beam="1">  1       -3 0.52325696E-02 0.20010770E+02</pdfrwt>
<totfact> 0.16857429E+06</totfact>
</mgrwt>
</event>
<event>
 4    1  0.4133473E-007  0.2005774E+02  0.7818608E-02  0.1744182E+00
         -3   -1    0    0    0  501 -0.00000000000E+00  0.00000000000E+00  0.54400876916E+02  0.54400956409E+02  0.93000000000E-01 0.  1.
          3   -1    0    0  501    0  0.00000000000E+00 -0.00000000000E+00 -0.18475842485E+01  0.18499233918E+01  0.93000000000E-01 0. -1.
        -11    1    1    2    0    0 -0.52148383511E+01  0.85648822089E+01  0.26733009371E+02  0.28551804436E+02  0.51100000000E-03 0.  1.
         11    1    1    2    0    0  0.52148383511E+01 -0.85648822089E+01  0.25820283296E+02  0.27699075365E+02  0.51100000000E-03 0. -1.
<mgrwt>
<rscale>  0 0.20057739E+02</rscale>
<asrwt>0</asrwt>
<pdfrwt beam="2">  1        3 0.28442975E-03 0.20057739E+02</pdfrwt>
<pdfrwt beam="1">  1       -3 0.83695527E-02 0.20057739E+02</pdfrwt>
<totfact> 0.15817549E+06</totfact>
</mgrwt>
</event>
<event>
 5    1  0.4133473E-007  0.2000344E+02  0.7818608E-02  0.1745260E+00
         -3   -1    0    0    0  501 -0.00000000000E+00  0.00000000000E+00  0.19844332634E+01  0.19866112798E+01  0.93000000000E-01 0. -1.
          3   -1    0    0  501    0  0.00000000000E+00 -0.00000000000E+00 -0.50379699661E+02  0.50379785499E+02  0.93000000000E-01 0.  1.
       1023    2    1    2    0    0  0.00000000000E+00  0.00000000000E+00 -0.48395266398E+02  0.52366396779E+02  0.20003442251E+02 0.  0.
        -11    1    3    3    0    0  0.99041791759E+01  0.13932235600E+01 -0.24261122762E+02  0.26241873313E+02  0.51100000000E-03 0.  1.
         11    1    3    3    0    0 -0.99041791759E+01 -0.13932235600E+01 -0.24134143636E+02  0.26124523466E+02  0.51100000000E-03 0. -1.
<mgrwt>
<rscale>  0 0.20003442E+02</rscale>
<asrwt>0</asrwt>
<pdfrwt beam="2">  1        3 0.77508962E-02 0.20003442E+02</pdfrwt>
<pdfrwt beam="1">  1       -3 0.30547161E-03 0.20003442E+02</pdfrwt>
<totfact> 0.16088133E+06</totfact>
</mgrwt>
</event>
<event>
 5    1  0.4133473E-007  0.2000786E+02  0.7818608E-02  0.1745172E+00
         -3   -1    0    0    0  501 -0.00000000000E+00  0.00000000000E+00  0.16944452036E+02  0.16944707251E+02  0.93000000000E-01 0.  1.
          3   -1    0    0  501    0  0.00000000000E+00 -0.00000000000E+00 -0.59056085051E+01  0.59063407297E+01  0.93000000000E-01 0. -1.
       1023    2    1    2    0    0  0.00000000000E+00  0.00000000000E+00  0.11038843531E+02  0.22851047980E+02  0.20007856639E+02 0.  0.
        -11    1    3    3    0    0 -0.57729740447E+01 -0.81697582213E+01  0.56108103826E+01  0.11469671840E+02  0.51100000000E-03 0.  1.
         11    1    3    3    0    0  0.57729740447E+01  0.81697582213E+01  0.54280331485E+01  0.11381376140E+02  0.51100000000E-03 0. -1.
<mgrwt>
<rscale>  0 0.20007857E+02</rscale>
<asrwt>0</asrwt>
<pdfrwt beam="2">  1        3 0.90863112E-03 0.20007857E+02</pdfrwt>
<pdfrwt beam="1">  1       -3 0.26069147E-02 0.20007857E+02</pdfrwt>
<totfact> 0.17687117E+06</totfact>
</mgrwt>
</event>
<event>
 5    1  0.4133473E-007  0.2000243E+02  0.7818608E-02  0.1745280E+00
         -3   -1    0    0    0  501 -0.00000000000E+00  0.00000000000E+00  0.14803991877E+01  0.14833174829E+01  0.93000000000E-01 0. -1.
          3   -1    0    0  501    0  0.00000000000E+00 -0.00000000000E+00 -0.67496311308E+02  0.67496375379E+02  0.93000000000E-01 0.  1.
       1023    2    1    2    0    0  0.00000000000E+00  0.00000000000E+00 -0.66015912121E+02  0.68979692861E+02  0.20002434205E+02 0.  0.
        -11    1    3    3    0    0 -0.86764325773E+00 -0.99623054953E+01 -0.33542290771E+02  0.35001222922E+02  0.51100000000E-03 0. -1.
         11    1    3    3    0    0  0.86764325773E+00  0.99623054953E+01 -0.32473621350E+02  0.33978469940E+02  0.51100000000E-03 0.  1.
<mgrwt>
<rscale>  0 0.20002434E+02</rscale>
<asrwt>0</asrwt>
<pdfrwt beam="2">  1        3 0.10384275E-01 0.20002434E+02</pdfrwt>
<pdfrwt beam="1">  1       -3 0.22798319E-03 0.20002434E+02</pdfrwt>
<totfact> 0.15351591E+06</totfact>
</mgrwt>
</event>
<event>
 5    1  0.4133473E-007  0.2000033E+02  0.7818608E-02  0.1745322E+00
          3   -1    0    0  501    0  0.00000000000E+00  0.00000000000E+00  0.35743548884E+02  0.35743669871E+02  0.93000000000E-01 0.  1.
         -3   -1    0    0    0  501 -0.00000000000E+00 -0.00000000000E+00 -0.27969015711E+01  0.27984473192E+01  0.93000000000E-01 0. -1.
       1023    2    1    2    0    0  0.00000000000E+00  0.00000000000E+00  0.32946647313E+02  0.38542117190E+02  0.20000330705E+02 0.  0.
        -11    1    3    3    0    0 -0.93254717006E+00 -0.99565758969E+01  0.16504337249E+02  0.19297569694E+02  0.51100000000E-03 0. -1.
         11    1    3    3    0    0  0.93254717006E+00  0.99565758969E+01  0.16442310064E+02  0.19244547496E+02  0.51100000000E-03 0.  1.
<mgrwt>
<rscale>  0 0.20000331E+02</rscale>
<asrwt>0</asrwt>
<pdfrwt beam="1">  1        3 0.54991358E-02 0.20000331E+02</pdfrwt>
<pdfrwt beam="2">  1       -3 0.43042075E-03 0.20000331E+02</pdfrwt>
<totfact> 0.16788664E+06</totfact>
</mgrwt>
</event>
<event>
 5    1  0.4133473E-007  0.2000064E+02  0.7818608E-02  0.1745315E+00
          3   -1    0    0  501    0  0.00000000000E+00  0.00000000000E+00  0.76935401781E+02  0.76935457991E+02  0.93000000000E-01 0. -1.
         -3   -1    0    0    0  501 -0.00000000000E+00 -0.00000000000E+00 -0.12981546457E+01  0.13014816495E+01  0.93000000000E-01 0.  1.
       1023    2    1    2    0    0  0.00000000000E+00  0.00000000000E+00  0.75637247136E+02  0.78236939641E+02  0.20000639240E+02 0.  0.
        -11    1    3    3    0    0 -0.15309080928E+01 -0.98824354188E+01  0.37871518531E+02  0.39169607166E+02  0.51100000000E-03 0.  1.
         11    1    3    3    0    0  0.15309080928E+01  0.98824354188E+01  0.37765728605E+02  0.39067332475E+02  0.51100000000E-03 0. -1.
<mgrwt>
<rscale>  0 0.20000639E+02</rscale>
<asrwt>0</asrwt>
<pdfrwt beam="1">  1        3 0.11836476E-01 0.20000639E+02</pdfrwt>
<pdfrwt beam="2">  1       -3 0.19997635E-03 0.20000639E+02</pdfrwt>
<totfact> 0.14979295E+06</totfact>
</mgrwt>
</event>
<event>
 5    1  0.4133473E-007  0.2000045E+02  0.7818608E-02  0.1745319E+00
         -3   -1    0    0    0  501 -0.00000000000E+00  0.00000000000E+00  0.14354505488E+01  0.14384600370E+01  0.93000000000E-01 0. -1.
          3   -1    0    0  501    0  0.00000000000E+00 -0.00000000000E+00 -0.69591648101E+02  0.69591710242E+02  0.93000000000E-01 0.  1.
       1023    2    1    2    0    0  0.00000000000E+00  0.00000000000E+00 -0.68156197552E+02  0.71030170279E+02  0.20000445623E+02 0.  0.
        -11    1    3    3    0    0  0.63931223421E+00  0.99796999942E+01 -0.34207319521E+02  0.35639077446E+02  0.51100000000E-03 0. -1.
         11    1    3    3    0    0 -0.63931223421E+00 -0.99796999942E+01 -0.33948878031E+02  0.35391092833E+02  0.51100000000E-03 0.  1.
<mgrwt>
<rscale>  0 0.20000446E+02</rscale>
<asrwt>0</asrwt>
<pdfrwt beam="2">  1        3 0.10706641E-01 0.20000446E+02</pdfrwt>
<pdfrwt beam="1">  1       -3 0.22107488E-03 0.20000446E+02</pdfrwt>
<totfact> 0.15269698E+06</totfact>
</mgrwt>
</event>
<event>
 5    1  0.4133473E-007  0.2000013E+02  0.7818608E-02  0.1745326E+00
         -3   -1    0    0    0  501 -0.00000000000E+00  0.00000000000E+00  0.42516212291E+01  0.42526382489E+01  0.93000000000E-01 0.  1.
          3   -1    0    0  501    0  0.00000000000E+00 -0.00000000000E+00 -0.23516812598E+02  0.23516996487E+02  0.93000000000E-01 0. -1.
       1023    2    1    2    0    0  0.00000000000E+00  0.00000000000E+00 -0.19265191369E+02  0.27769634736E+02  0.20000125372E+02 0.  0.
        -11    1    3    3    0    0  0.72964129465E+01  0.68383577905E+01 -0.96023568015E+01  0.13863839135E+02  0.51100000000E-03 0.  1.
         11    1    3    3    0    0 -0.72964129465E+01 -0.68383577905E+01 -0.96628345675E+01  0.13905795601E+02  0.51100000000E-03 0. -1.
<mgrwt>
<rscale>  0 0.20000125E+02</rscale>
<asrwt>0</asrwt>
<pdfrwt beam="2">  1        3 0.36180635E-02 0.20000125E+02</pdfrwt>
<pdfrwt beam="1">  1       -3 0.65418796E-03 0.20000125E+02</pdfrwt>
<totfact> 0.17397987E+06</totfact>
</mgrwt>
</event>
<event>
 5    1  0.4247684E-007  0.2000162E+02  0.7818608E-02  0.1745296E+00
         -3   -1    0    0    0  501 -0.00000000000E+00  0.00000000000E+00  0.22204399378E+02  0.22204594136E+02  0.93000000000E-01 0. -1.
          3   -1    0    0  501    0  0.00000000000E+00 -0.00000000000E+00 -0.45036452355E+01  0.45046053553E+01  0.93000000000E-01 0.  1.
       1023    2    1    2    0    0  0.00000000000E+00  0.00000000000E+00  0.17700754143E+02  0.26709199491E+02  0.20001615941E+02 0.  0.
        -11    1    3    3    0    0 -0.99957438427E+01 -0.29246062087E+00  0.86828895408E+01  0.13243602200E+02  0.51100000000E-03 0. -1.
         11    1    3    3    0    0  0.99957438427E+01  0.29246062087E+00  0.90178646018E+01  0.13465597292E+02  0.51100000000E-03 0.  1.
<mgrwt>
<rscale>  0 0.20001616E+02</rscale>
<asrwt>0</asrwt>
<pdfrwt beam="2">  1        3 0.69295732E-03 0.20001616E+02</pdfrwt>
<pdfrwt beam="1">  1       -3 0.34161503E-02 0.20001616E+02</pdfrwt>
<totfact> 0.17460387E+06</totfact>
</mgrwt>
</event>
<event>
 5    1  0.4760442E-007  0.2000146E+02  0.7818608E-02  0.1745299E+00
         -3   -1    0    0    0  501 -0.00000000000E+00  0.00000000000E+00  0.10656550469E+02  0.10656956268E+02  0.93000000000E-01 0.  1.
          3   -1    0    0  501    0  0.00000000000E+00 -0.00000000000E+00 -0.93844535019E+01  0.93849143059E+01  0.93000000000E-01 0. -1.
       1023    2    1    2    0    0  0.00000000000E+00  0.00000000000E+00  0.12720969670E+01  0.20041870574E+02  0.20001458582E+02 0.  0.
        -11    1    3    3    0    0 -0.99787401934E+01  0.65873479525E+00  0.56242409809E+00  0.10016262202E+02  0.51100000000E-03 0.  1.
         11    1    3    3    0    0  0.99787401934E+01 -0.65873479525E+00  0.70967286893E+00  0.10025608372E+02  0.51100000000E-03 0. -1.
<mgrwt>
<rscale>  0 0.20001459E+02</rscale>
<asrwt>0</asrwt>
<pdfrwt beam="2">  1        3 0.14438287E-02 0.20001459E+02</pdfrwt>
<pdfrwt beam="1">  1       -3 0.16395360E-02 0.20001459E+02</pdfrwt>
<totfact> 0.17880152E+06</totfact>
</mgrwt>
</event>
<event>
 5    1  0.4133473E-007  0.2000147E+02  0.7818608E-02  0.1745299E+00
         -3   -1    0    0    0  501 -0.00000000000E+00  0.00000000000E+00  0.34903386836E+01  0.34915774552E+01  0.93000000000E-01 0. -1.
          3   -1    0    0  501    0  0.00000000000E+00 -0.00000000000E+00 -0.28648314519E+02  0.28648465470E+02  0.93000000000E-01 0.  1.
       1023    2    1    2    0    0  0.00000000000E+00  0.00000000000E+00 -0.25157975836E+02  0.32140042925E+02  0.20001465224E+02 0.  0.
        -11    1    3    3    0    0 -0.94869839241E+01  0.31630137003E+01 -0.12714699457E+02  0.16176251179E+02  0.51100000000E-03 0. -1.
         11    1    3    3    0    0  0.94869839241E+01 -0.31630137003E+01 -0.12443276379E+02  0.15963791747E+02  0.51100000000E-03 0.  1.
<mgrwt>
<rscale>  0 0.20001465E+02</rscale>
<asrwt>0</asrwt>
<pdfrwt beam="2">  1        3 0.44075398E-02 0.20001465E+02</pdfrwt>
<pdfrwt beam="1">  1       -3 0.53708210E-03 0.20001465E+02</pdfrwt>
<totfact> 0.17140180E+06</totfact>
</mgrwt>
</event>
<event>
 5    1  0.4482699E-007  0.2000110E+02  0.7818608E-02  0.1745306E+00
          3   -1    0    0  501    0  0.00000000000E+00  0.00000000000E+00  0.10557159539E+02  0.10557569158E+02  0.93000000000E-01 0.  1.
         -3   -1    0    0    0  501 -0.00000000000E+00 -0.00000000000E+00 -0.94724607828E+01  0.94729173058E+01  0.93000000000E-01 0. -1.
       1023    2    1    2    0    0  0.00000000000E+00  0.00000000000E+00  0.10846987561E+01  0.20030486464E+02  0.20001095385E+02 0.  0.
        -11    1    3    3    0    0  0.54199514287E+01 -0.84042789389E+01  0.48591131520E+00  0.10012186976E+02  0.51100000000E-03 0. -1.
         11    1    3    3    0    0 -0.54199514287E+01  0.84042789389E+01  0.59878744093E+00  0.10018299488E+02  0.51100000000E-03 0.  1.
<mgrwt>
<rscale>  0 0.20001095E+02</rscale>
<asrwt>0</asrwt>
<pdfrwt beam="1">  1        3 0.16242450E-02 0.20001095E+02</pdfrwt>
<pdfrwt beam="2">  1       -3 0.14573683E-02 0.20001095E+02</pdfrwt>
<totfact> 0.17881487E+06</totfact>
</mgrwt>
</event>
<event>
 5    1  0.4133473E-007  0.2000045E+02  0.7818608E-02  0.1745319E+00
         -3   -1    0    0    0  501 -0.00000000000E+00  0.00000000000E+00  0.15207067744E+01  0.15235478639E+01  0.93000000000E-01 0. -1.
          3   -1    0    0  501    0  0.00000000000E+00 -0.00000000000E+00 -0.65697627507E+02  0.65697693331E+02  0.93000000000E-01 0.  1.
       1023    2    1    2    0    0  0.00000000000E+00  0.00000000000E+00 -0.64176920733E+02  0.67221241195E+02  0.20000452822E+02 0.  0.
        -11    1    3    3    0    0 -0.58715146233E+01 -0.80949685484E+01 -0.32210951691E+02  0.33727564526E+02  0.51100000000E-03 0. -1.
         11    1    3    3    0    0  0.58715146233E+01  0.80949685484E+01 -0.31965969042E+02  0.33493676669E+02  0.51100000000E-03 0.  1.
<mgrwt>
<rscale>  0 0.20000453E+02</rscale>
<asrwt>0</asrwt>
<pdfrwt beam="2">  1        3 0.10107549E-01 0.20000453E+02</pdfrwt>
<pdfrwt beam="1">  1       -3 0.23417855E-03 0.20000453E+02</pdfrwt>
<totfact> 0.15428876E+06</totfact>
</mgrwt>
</event>
<event>
 5    1  0.4133473E-007  0.2000149E+02  0.7818608E-02  0.1745298E+00
         -3   -1    0    0    0  501 -0.00000000000E+00  0.00000000000E+00  0.42061557796E+02  0.42061660610E+02  0.93000000000E-01 0. -1.
          3   -1    0    0  501    0  0.00000000000E+00 -0.00000000000E+00 -0.23768070849E+01  0.23786258467E+01  0.93000000000E-01 0.  1.
       1023    2    1    2    0    0  0.00000000000E+00  0.00000000000E+00  0.39684750711E+02  0.44440286456E+02  0.20001490477E+02 0.  0.
        -11    1    3    3    0    0 -0.57560611899E+01  0.81781580590E+01  0.19798194274E+02  0.22180689945E+02  0.51100000000E-03 0. -1.
         11    1    3    3    0    0  0.57560611899E+01 -0.81781580590E+01  0.19886556437E+02  0.22259596512E+02  0.51100000000E-03 0.  1.
<mgrwt>
<rscale>  0 0.20001490E+02</rscale>
<asrwt>0</asrwt>
<pdfrwt beam="2">  1        3 0.36581047E-03 0.20001490E+02</pdfrwt>
<pdfrwt beam="1">  1       -3 0.64711562E-02 0.20001490E+02</pdfrwt>
<totfact> 0.16482004E+06</totfact>
</mgrwt>
</event>
<event>
 5    1  0.4133473E-007  0.2000064E+02  0.7818608E-02  0.1745315E+00
          3   -1    0    0  501    0  0.00000000000E+00  0.00000000000E+00  0.20218044121E+02  0.20218258013E+02  0.93000000000E-01 0.  1.
         -3   -1    0    0    0  501 -0.00000000000E+00 -0.00000000000E+00 -0.49457182451E+01  0.49465925606E+01  0.93000000000E-01 0. -1.
       1023    2    1    2    0    0  0.00000000000E+00  0.00000000000E+00  0.15272325876E+02  0.25164850574E+02  0.20000644158E+02 0.  0.
        -11    1    3    3    0    0 -0.94050385052E+01  0.33979568201E+01  0.75421626450E+01  0.12525377338E+02  0.51100000000E-03 0.  1.
         11    1    3    3    0    0  0.94050385052E+01 -0.33979568201E+01  0.77301632312E+01  0.12639473236E+02  0.51100000000E-03 0. -1.
<mgrwt>
<rscale>  0 0.20000644E+02</rscale>
<asrwt>0</asrwt>
<pdfrwt beam="1">  1        3 0.31105521E-02 0.20000644E+02</pdfrwt>
<pdfrwt beam="2">  1       -3 0.76096343E-03 0.20000644E+02</pdfrwt>
<totfact> 0.17555207E+06</totfact>
</mgrwt>
</event>
<event>
 5    1  0.4203913E-007  0.2000059E+02  0.7818608E-02  0.1745316E+00
         -3   -1    0    0    0  501 -0.00000000000E+00  0.00000000000E+00  0.57342994481E+01  0.57350535447E+01  0.93000000000E-01 0. -1.
          3   -1    0    0  501    0  0.00000000000E+00 -0.00000000000E+00 -0.17437928138E+02  0.17438176131E+02  0.93000000000E-01 0.  1.
       1023    2    1    2    0    0  0.00000000000E+00  0.00000000000E+00 -0.11703628690E+02  0.23173229675E+02  0.20000591218E+02 0.  0.
        -11    1    3    3    0    0 -0.68481881860E+01 -0.72874722525E+01 -0.58155668724E+01  0.11568308069E+02  0.51100000000E-03 0. -1.
         11    1    3    3    0    0  0.68481881860E+01  0.72874722525E+01 -0.58880618179E+01  0.11604921607E+02  0.51100000000E-03 0.  1.
<mgrwt>
<rscale>  0 0.20000591E+02</rscale>
<asrwt>0</asrwt>
<pdfrwt beam="2">  1        3 0.26828352E-02 0.20000591E+02</pdfrwt>
<pdfrwt beam="1">  1       -3 0.88227700E-03 0.20000591E+02</pdfrwt>
<totfact> 0.17679629E+06</totfact>
</mgrwt>
</event>
<event>
 4    1  0.4133473E-007  0.2003352E+02  0.7818608E-02  0.1744662E+00
          3   -1    0    0  501    0  0.00000000000E+00  0.00000000000E+00  0.36353108322E+01  0.36365002195E+01  0.93000000000E-01 0. -1.
         -3   -1    0    0    0  501 -0.00000000000E+00 -0.00000000000E+00 -0.27594477765E+02  0.27594634480E+02  0.93000000000E-01 0.  1.
        -11    1    1    2    0    0  0.92058027582E+01 -0.39432336634E+01 -0.12289915962E+02  0.15853640931E+02  0.51100000000E-03 0. -1.
         11    1    1    2    0    0 -0.92058027582E+01  0.39432336634E+01 -0.11669250971E+02  0.15377493769E+02  0.51100000000E-03 0.  1.
<mgrwt>
<rscale>  0 0.20033524E+02</rscale>
<asrwt>0</asrwt>
<pdfrwt beam="1">  1        3 0.55938215E-03 0.20033524E+02</pdfrwt>
<pdfrwt beam="2">  1       -3 0.42454077E-02 0.20033524E+02</pdfrwt>
<totfact> 0.17134961E+06</totfact>
</mgrwt>
</event>
<event>
 5    1  0.4133473E-007  0.2000208E+02  0.7818608E-02  0.1745287E+00
          3   -1    0    0  501    0  0.00000000000E+00  0.00000000000E+00  0.31987973924E+02  0.31988109115E+02  0.93000000000E-01 0. -1.
         -3   -1    0    0    0  501 -0.00000000000E+00 -0.00000000000E+00 -0.31259913672E+01  0.31273744623E+01  0.93000000000E-01 0.  1.
       1023    2    1    2    0    0  0.00000000000E+00  0.00000000000E+00  0.28861982557E+02  0.35115483577E+02  0.20002078636E+02 0.  0.
        -11    1    3    3    0    0 -0.57460310665E+01  0.81852278781E+01  0.14295472027E+02  0.17446356330E+02  0.51100000000E-03 0. -1.
         11    1    3    3    0    0  0.57460310665E+01 -0.81852278781E+01  0.14566510529E+02  0.17669127248E+02  0.51100000000E-03 0.  1.
<mgrwt>
<rscale>  0 0.20002079E+02</rscale>
<asrwt>0</asrwt>
<pdfrwt beam="1">  1        3 0.49213436E-02 0.20002079E+02</pdfrwt>
<pdfrwt beam="2">  1       -3 0.48103853E-03 0.20002079E+02</pdfrwt>
<totfact> 0.16971864E+06</totfact>
</mgrwt>
</event>
<event>
 5    1  0.4168057E-007  0.2000137E+02  0.7818608E-02  0.1745301E+00
          3   -1    0    0  501    0  0.00000000000E+00  0.00000000000E+00  0.26179597022E+01  0.26196110402E+01  0.93000000000E-01 0. -1.
         -3   -1    0    0    0  501 -0.00000000000E+00 -0.00000000000E+00 -0.38189174293E+02  0.38189287531E+02  0.93000000000E-01 0.  1.
       1023    2    1    2    0    0  0.00000000000E+00  0.00000000000E+00 -0.35571214590E+02  0.40808898572E+02  0.20001372333E+02 0.  0.
        -11    1    3    3    0    0 -0.68934735440E+01  0.72449847330E+01 -0.17657501943E+02  0.20292785822E+02  0.51100000000E-03 0. -1.
         11    1    3    3    0    0  0.68934735440E+01 -0.72449847330E+01 -0.17913712647E+02  0.20516112749E+02  0.51100000000E-03 0.  1.
<mgrwt>
<rscale>  0 0.20001372E+02</rscale>
<asrwt>0</asrwt>
<pdfrwt beam="1">  1        3 0.40289880E-03 0.20001372E+02</pdfrwt>
<pdfrwt beam="2">  1       -3 0.58753929E-02 0.20001372E+02</pdfrwt>
<totfact> 0.16669136E+06</totfact>
</mgrwt>
</event>
<event>
 5    1  0.4133473E-007  0.2000024E+02  0.7818608E-02  0.1745323E+00
         -3   -1    0    0    0  501 -0.00000000000E+00  0.00000000000E+00  0.47693531782E+02  0.47693622454E+02  0.93000000000E-01 0.  1.
          3   -1    0    0  501    0  0.00000000000E+00 -0.00000000000E+00 -0.20956469314E+01  0.20977094797E+01  0.93000000000E-01 0. -1.
       1023    2    1    2    0    0  0.00000000000E+00  0.00000000000E+00  0.45597884850E+02  0.49791331934E+02  0.20000240822E+02 0.  0.
        -11    1    3    3    0    0  0.99182780455E+01 -0.12760267320E+01  0.22689732464E+02  0.24795653715E+02  0.51100000000E-03 0.  1.
         11    1    3    3    0    0 -0.99182780455E+01  0.12760267320E+01  0.22908152386E+02  0.24995678219E+02  0.51100000000E-03 0. -1.
<mgrwt>
<rscale>  0 0.20000241E+02</rscale>
<asrwt>0</asrwt>
<pdfrwt beam="2">  1        3 0.32257287E-03 0.20000241E+02</pdfrwt>
<pdfrwt beam="1">  1       -3 0.73376316E-02 0.20000241E+02</pdfrwt>
<totfact> 0.16219415E+06</totfact>
</mgrwt>
</event>
<event>
 5    1  0.4133473E-007  0.2000080E+02  0.7818608E-02  0.1745312E+00
         -3   -1    0    0    0  501 -0.00000000000E+00  0.00000000000E+00  0.13664827195E+01  0.13696437576E+01  0.93000000000E-01 0.  1.
          3   -1    0    0  501    0  0.00000000000E+00 -0.00000000000E+00 -0.73098685174E+02  0.73098744334E+02  0.93000000000E-01 0. -1.
       1023    2    1    2    0    0  0.00000000000E+00  0.00000000000E+00 -0.71732202455E+02  0.74468388092E+02  0.20000798883E+02 0.  0.
        -11    1    3    3    0    0 -0.57567769678E+01 -0.81768363650E+01 -0.36174363021E+02  0.37531129402E+02  0.51100000000E-03 0.  1.
         11    1    3    3    0    0  0.57567769678E+01  0.81768363650E+01 -0.35557839434E+02  0.36937258689E+02  0.51100000000E-03 0. -1.
<mgrwt>
<rscale>  0 0.20000799E+02</rscale>
<asrwt>0</asrwt>
<pdfrwt beam="2">  1        3 0.11246196E-01 0.20000799E+02</pdfrwt>
<pdfrwt beam="1">  1       -3 0.21047587E-03 0.20000799E+02</pdfrwt>
<totfact> 0.15128982E+06</totfact>
</mgrwt>
</event>
<event>
 4    1  0.4133473E-007  0.2001461E+02  0.7818608E-02  0.1745038E+00
         -3   -1    0    0    0  501 -0.00000000000E+00  0.00000000000E+00  0.15821223817E+02  0.15821497150E+02  0.93000000000E-01 0. -1.
          3   -1    0    0  501    0  0.00000000000E+00 -0.00000000000E+00 -0.63291909795E+01  0.63298742053E+01  0.93000000000E-01 0.  1.
        -11    1    1    2    0    0 -0.83309161441E+01  0.55359387191E+01  0.44042446179E+01  0.10929233835E+02  0.51100000000E-03 0. -1.
         11    1    1    2    0    0  0.83309161441E+01 -0.55359387191E+01  0.50877882199E+01  0.11222137521E+02  0.51100000000E-03 0.  1.
<mgrwt>
<rscale>  0 0.20014609E+02</rscale>
<asrwt>0</asrwt>
<pdfrwt beam="2">  1        3 0.97379528E-03 0.20014609E+02</pdfrwt>
<pdfrwt beam="1">  1       -3 0.24341080E-02 0.20014609E+02</pdfrwt>
<totfact> 0.17718675E+06</totfact>
</mgrwt>
</event>
<event>
 4    1  0.4133473E-007  0.2013180E+02  0.7818608E-02  0.1742720E+00
         -3   -1    0    0    0  501 -0.00000000000E+00  0.00000000000E+00  0.52930392193E+02  0.52930473895E+02  0.93000000000E-01 0.  1.
          3   -1    0    0  501    0  0.00000000000E+00 -0.00000000000E+00 -0.19130428955E+01  0.19153020962E+01  0.93000000000E-01 0. -1.
        -11    1    1    2    0    0 -0.90150417556E+01  0.44277292340E+01  0.27329174080E+02  0.29116310208E+02  0.51100000000E-03 0.  1.
         11    1    1    2    0    0  0.90150417556E+01 -0.44277292340E+01  0.23688175218E+02  0.25729465782E+02  0.51100000000E-03 0. -1.
<mgrwt>
<rscale>  0 0.20131796E+02</rscale>
<asrwt>0</asrwt>
<pdfrwt beam="2">  1        3 0.29449437E-03 0.20131796E+02</pdfrwt>
<pdfrwt beam="1">  1       -3 0.81433171E-02 0.20131796E+02</pdfrwt>
<totfact> 0.15756568E+06</totfact>
</mgrwt>
</event>
<event>
 5    1  0.4133473E-007  0.2000274E+02  0.7818608E-02  0.1745274E+00
          3   -1    0    0  501    0  0.00000000000E+00  0.00000000000E+00  0.11537772231E+03  0.11537775979E+03  0.93000000000E-01 0.  1.
         -3   -1    0    0    0  501 -0.00000000000E+00 -0.00000000000E+00 -0.86442416710E+00  0.86941252617E+00  0.93000000000E-01 0. -1.
       1023    2    1    2    0    0  0.00000000000E+00  0.00000000000E+00  0.11451329814E+03  0.11624717232E+03  0.20002740318E+02 0.  0.
        -11    1    3    3    0    0  0.99904826201E+01  0.44468605675E+00  0.58076802885E+02  0.58931507043E+02  0.51100000000E-03 0.  1.
         11    1    3    3    0    0 -0.99904826201E+01 -0.44468605675E+00  0.56436495256E+02  0.57315665273E+02  0.51100000000E-03 0. -1.
<mgrwt>
<rscale>  0 0.20002740E+02</rscale>
<asrwt>0</asrwt>
<pdfrwt beam="1">  1        3 0.17750786E-01 0.20002740E+02</pdfrwt>
<pdfrwt beam="2">  1       -3 0.13337508E-03 0.20002740E+02</pdfrwt>
<totfact> 0.13635208E+06</totfact>
</mgrwt>
</event>
<event>
 5    1  0.4133473E-007  0.2000041E+02  0.7818608E-02  0.1745320E+00
         -3   -1    0    0    0  501 -0.00000000000E+00  0.00000000000E+00  0.51515697604E+02  0.51515781549E+02  0.93000000000E-01 0. -1.
          3   -1    0    0  501    0  0.00000000000E+00 -0.00000000000E+00 -0.19400351123E+01  0.19422629165E+01  0.93000000000E-01 0.  1.
       1023    2    1    2    0    0  0.00000000000E+00  0.00000000000E+00  0.49575662491E+02  0.53458044465E+02  0.20000405161E+02 0.  0.
        -11    1    3    3    0    0 -0.69428435817E+01 -0.71971622505E+01  0.24902169430E+02  0.26835056625E+02  0.51100000000E-03 0. -1.
         11    1    3    3    0    0  0.69428435817E+01  0.71971622505E+01  0.24673493061E+02  0.26622987841E+02  0.51100000000E-03 0.  1.
<mgrwt>
<rscale>  0 0.20000405E+02</rscale>
<asrwt>0</asrwt>
<pdfrwt beam="2">  1        3 0.29864478E-03 0.20000405E+02</pdfrwt>
<pdfrwt beam="1">  1       -3 0.79256695E-02 0.20000405E+02</pdfrwt>
<totfact> 0.16044599E+06</totfact>
</mgrwt>
</event>
<event>
 5    1  0.4133473E-007  0.2000045E+02  0.7818608E-02  0.1745319E+00
          3   -1    0    0  501    0  0.00000000000E+00  0.00000000000E+00  0.19629687401E+02  0.19629907704E+02  0.93000000000E-01 0.  1.
         -3   -1    0    0    0  501 -0.00000000000E+00 -0.00000000000E+00 -0.50938806504E+01  0.50947295394E+01  0.93000000000E-01 0. -1.
       1023    2    1    2    0    0  0.00000000000E+00  0.00000000000E+00  0.14535806751E+02  0.24724637243E+02  0.20000450218E+02 0.  0.
        -11    1    3    3    0    0 -0.24626865783E+01 -0.96920787840E+01  0.73387631032E+01  0.12403977607E+02  0.51100000000E-03 0.  1.
         11    1    3    3    0    0  0.24626865783E+01  0.96920787840E+01  0.71970436475E+01  0.12320659636E+02  0.51100000000E-03 0. -1.
<mgrwt>
<rscale>  0 0.20000450E+02</rscale>
<asrwt>0</asrwt>
<pdfrwt beam="1">  1        3 0.30200342E-02 0.20000450E+02</pdfrwt>
<pdfrwt beam="2">  1       -3 0.78375618E-03 0.20000450E+02</pdfrwt>
<totfact> 0.17582824E+06</totfact>
</mgrwt>
</event>
<event>
 5    1  0.4133473E-007  0.2000033E+02  0.7818608E-02  0.1745322E+00
          3   -1    0    0  501    0  0.00000000000E+00  0.00000000000E+00  0.13542593464E+01  0.13574488489E+01  0.93000000000E-01 0.  1.
         -3   -1    0    0    0  501 -0.00000000000E+00 -0.00000000000E+00 -0.73753460596E+02  0.73753519230E+02  0.93000000000E-01 0. -1.
       1023    2    1    2    0    0  0.00000000000E+00  0.00000000000E+00 -0.72399201249E+02  0.75110968079E+02  0.20000329604E+02 0.  0.
        -11    1    3    3    0    0 -0.28148437220E+01 -0.95958091606E+01 -0.36124756384E+02  0.37483341936E+02  0.51100000000E-03 0. -1.
         11    1    3    3    0    0  0.28148437220E+01  0.95958091606E+01 -0.36274444865E+02  0.37627626143E+02  0.51100000000E-03 0.  1.
<mgrwt>
<rscale>  0 0.20000330E+02</rscale>
<asrwt>0</asrwt>
<pdfrwt beam="1">  1        3 0.20859751E-03 0.20000330E+02</pdfrwt>
<pdfrwt beam="2">  1       -3 0.11346933E-01 0.20000330E+02</pdfrwt>
<totfact> 0.15106817E+06</totfact>
</mgrwt>
</event>
<event>
 5    1  0.4145081E-007  0.2000200E+02  0.7818608E-02  0.1745288E+00
          3   -1    0    0  501    0  0.00000000000E+00  0.00000000000E+00  0.49866353929E+01  0.49875025355E+01  0.93000000000E-01 0.  1.
         -3   -1    0    0    0  501 -0.00000000000E+00 -0.00000000000E+00 -0.20054890463E+02  0.20055106095E+02  0.93000000000E-01 0. -1.
       1023    2    1    2    0    0  0.00000000000E+00  0.00000000000E+00 -0.15068255070E+02  0.25042608631E+02  0.20001998304E+02 0.  0.
        -11    1    3    3    0    0  0.80640905214E+01 -0.59147491212E+01 -0.76324771301E+01  0.12580481728E+02  0.51100000000E-03 0. -1.
         11    1    3    3    0    0 -0.80640905214E+01  0.59147491212E+01 -0.74357779403E+01  0.12462126903E+02  0.51100000000E-03 0.  1.
<mgrwt>
<rscale>  0 0.20001998E+02</rscale>
<asrwt>0</asrwt>
<pdfrwt beam="1">  1        3 0.76725797E-03 0.20001998E+02</pdfrwt>
<pdfrwt beam="2">  1       -3 0.30854510E-02 0.20001998E+02</pdfrwt>
<totfact> 0.17561425E+06</totfact>
</mgrwt>
</event>
<event>
 5    1  0.4133473E-007  0.2000098E+02  0.7818608E-02  0.1745309E+00
          3   -1    0    0  501    0  0.00000000000E+00  0.00000000000E+00  0.79112869413E+02  0.79112924075E+02  0.93000000000E-01 0.  1.
         -3   -1    0    0    0  501 -0.00000000000E+00 -0.00000000000E+00 -0.12623747174E+01  0.12657957683E+01  0.93000000000E-01 0. -1.
       1023    2    1    2    0    0  0.00000000000E+00  0.00000000000E+00  0.77850494695E+02  0.80378719843E+02  0.20000976960E+02 0.  0.
        -11    1    3    3    0    0 -0.83288817654E+01  0.55351187119E+01  0.39103117340E+02  0.40361635207E+02  0.51100000000E-03 0.  1.
         11    1    3    3    0    0  0.83288817654E+01 -0.55351187119E+01  0.38747377355E+02  0.40017084636E+02  0.51100000000E-03 0. -1.
<mgrwt>
<rscale>  0 0.20000977E+02</rscale>
<asrwt>0</asrwt>
<pdfrwt beam="1">  1        3 0.12171481E-01 0.20000977E+02</pdfrwt>
<pdfrwt beam="2">  1       -3 0.19447881E-03 0.20000977E+02</pdfrwt>
<totfact> 0.14895148E+06</totfact>
</mgrwt>
</event>
<event>
 5    1  0.4268332E-007  0.2000130E+02  0.7818608E-02  0.1745302E+00
          3   -1    0    0  501    0  0.00000000000E+00  0.00000000000E+00  0.13810416042E+02  0.13810729172E+02  0.93000000000E-01 0.  1.
         -3   -1    0    0    0  501 -0.00000000000E+00 -0.00000000000E+00 -0.72411563726E+01  0.72417535592E+01  0.93000000000E-01 0. -1.
       1023    2    1    2    0    0  0.00000000000E+00  0.00000000000E+00  0.65692596695E+01  0.21052482731E+02  0.20001296371E+02 0.  0.
        -11    1    3    3    0    0  0.97498533249E+01  0.22250665103E+01  0.33362269733E+01  0.10542341842E+02  0.51100000000E-03 0. -1.
         11    1    3    3    0    0 -0.97498533249E+01 -0.22250665103E+01  0.32330326961E+01  0.10510140889E+02  0.51100000000E-03 0.  1.
<mgrwt>
<rscale>  0 0.20001296E+02</rscale>
<asrwt>0</asrwt>
<pdfrwt beam="1">  1        3 0.21247494E-02 0.20001296E+02</pdfrwt>
<pdfrwt beam="2">  1       -3 0.11140941E-02 0.20001296E+02</pdfrwt>
<totfact> 0.17814163E+06</totfact>
</mgrwt>
</event>
<event>
 5    1  0.4133473E-007  0.2000211E+02  0.7818608E-02  0.1745286E+00
          3   -1    0    0  501    0  0.00000000000E+00  0.00000000000E+00  0.20324809395E+01  0.20346075223E+01  0.93000000000E-01 0.  1.
         -3   -1    0    0    0  501 -0.00000000000E+00 -0.00000000000E+00 -0.49183442458E+02  0.49183530383E+02  0.93000000000E-01 0. -1.
       1023    2    1    2    0    0  0.00000000000E+00  0.00000000000E+00 -0.47150961518E+02  0.51218137906E+02  0.20002111850E+02 0.  0.
        -11    1    3    3    0    0 -0.30252861719E+01  0.95314288786E+01 -0.23207724315E+02  0.25270515646E+02  0.51100000000E-03 0. -1.
         11    1    3    3    0    0  0.30252861719E+01 -0.95314288786E+01 -0.23943237203E+02  0.25947622259E+02  0.51100000000E-03 0.  1.
<mgrwt>
<rscale>  0 0.20002112E+02</rscale>
<asrwt>0</asrwt>
<pdfrwt beam="1">  1        3 0.31285976E-03 0.20002112E+02</pdfrwt>
<pdfrwt beam="2">  1       -3 0.75668529E-02 0.20002112E+02</pdfrwt>
<totfact> 0.16147620E+06</totfact>
</mgrwt>
</event>
<event>
 5    1  0.4133473E-007  0.2000015E+02  0.7818608E-02  0.1745325E+00
          3   -1    0    0  501    0  0.00000000000E+00  0.00000000000E+00  0.61413785922E+01  0.61420827097E+01  0.93000000000E-01 0.  1.
         -3   -1    0    0    0  501 -0.00000000000E+00 -0.00000000000E+00 -0.16281466938E+02  0.16281732544E+02  0.93000000000E-01 0. -1.
       1023    2    1    2    0    0  0.00000000000E+00  0.00000000000E+00 -0.10140088345E+02  0.22423815254E+02  0.20000152472E+02 0.  0.
        -11    1    3    3    0    0 -0.15509318102E+01 -0.98790550745E+01 -0.50474581156E+01  0.11201694173E+02  0.51100000000E-03 0. -1.
         11    1    3    3    0    0  0.15509318102E+01  0.98790550745E+01 -0.50926302297E+01  0.11222121081E+02  0.51100000000E-03 0.  1.
<mgrwt>
<rscale>  0 0.20000152E+02</rscale>
<asrwt>0</asrwt>
<pdfrwt beam="1">  1        3 0.94490207E-03 0.20000152E+02</pdfrwt>
<pdfrwt beam="2">  1       -3 0.25049157E-02 0.20000152E+02</pdfrwt>
<totfact> 0.17728924E+06</totfact>
</mgrwt>
</event>
<event>
 4    1  0.4133473E-007  0.2015833E+02  0.7818608E-02  0.1742198E+00
          3   -1    0    0  501    0  0.00000000000E+00  0.00000000000E+00  0.37338652939E+02  0.37338768757E+02  0.93000000000E-01 0.  1.
         -3   -1    0    0    0  501 -0.00000000000E+00 -0.00000000000E+00 -0.27198470186E+01  0.27214365333E+01  0.93000000000E-01 0. -1.
        -11    1    1    2    0    0  0.81526023669E+01 -0.58902087234E+01  0.16006111182E+02  0.18903837695E+02  0.51100000000E-03 0.  1.
         11    1    1    2    0    0 -0.81526023669E+01  0.58902087234E+01  0.18612694739E+02  0.21156367596E+02  0.51100000000E-03 0. -1.
<mgrwt>
<rscale>  0 0.20158331E+02</rscale>
<asrwt>0</asrwt>
<pdfrwt beam="1">  1        3 0.57445389E-02 0.20158331E+02</pdfrwt>
<pdfrwt beam="2">  1       -3 0.41856921E-03 0.20158331E+02</pdfrwt>
<totfact> 0.16427645E+06</totfact>
</mgrwt>
</event>
<event>
 5    1  0.4133473E-007  0.2000012E+02  0.7818608E-02  0.1745326E+00
          3   -1    0    0  501    0  0.00000000000E+00  0.00000000000E+00  0.11297405281E+02  0.11297788062E+02  0.93000000000E-01 0. -1.
         -3   -1    0    0    0  501 -0.00000000000E+00 -0.00000000000E+00 -0.88509234492E+01  0.88514120288E+01  0.93000000000E-01 0.  1.
       1023    2    1    2    0    0  0.00000000000E+00  0.00000000000E+00  0.24464818320E+01  0.20149200090E+02  0.20000124773E+02 0.  0.
        -11    1    3    3    0    0  0.96227211711E+01  0.27210478693E+01  0.12035187793E+01  0.10072205417E+02  0.51100000000E-03 0.  1.
         11    1    3    3    0    0 -0.96227211711E+01 -0.27210478693E+01  0.12429630527E+01  0.10076994674E+02  0.51100000000E-03 0. -1.
<mgrwt>
<rscale>  0 0.20000125E+02</rscale>
<asrwt>0</asrwt>
<pdfrwt beam="1">  1        3 0.17381294E-02 0.20000125E+02</pdfrwt>
<pdfrwt beam="2">  1       -3 0.13617476E-02 0.20000125E+02</pdfrwt>
<totfact> 0.17875542E+06</totfact>
</mgrwt>
</event>
<event>
 5    1  0.4133473E-007  0.2000062E+02  0.7818608E-02  0.1745316E+00
          3   -1    0    0  501    0  0.00000000000E+00  0.00000000000E+00  0.97632504748E+00  0.98074441030E+00  0.93000000000E-01 0.  1.
         -3   -1    0    0    0  501 -0.00000000000E+00 -0.00000000000E+00 -0.10219555734E+03  0.10219559966E+03  0.93000000000E-01 0. -1.
       1023    2    1    2    0    0  0.00000000000E+00  0.00000000000E+00 -0.10121923230E+03  0.10317634407E+03  0.20000624715E+02 0.  0.
        -11    1    3    3    0    0 -0.23107468990E+01  0.97296063101E+01 -0.50412719869E+02  0.51395010604E+02  0.51100000000E-03 0.  1.
         11    1    3    3    0    0  0.23107468990E+01 -0.97296063101E+01 -0.50806512427E+02  0.51781333465E+02  0.51100000000E-03 0. -1.
<mgrwt>
<rscale>  0 0.20000625E+02</rscale>
<asrwt>0</asrwt>
<pdfrwt beam="1">  1        3 0.15054714E-03 0.20000625E+02</pdfrwt>
<pdfrwt beam="2">  1       -3 0.15722728E-01 0.20000625E+02</pdfrwt>
<totfact> 0.14070895E+06</totfact>
</mgrwt>
</event>
<event>
 5    1  0.4133473E-007  0.2000068E+02  0.7818608E-02  0.1745315E+00
          3   -1    0    0  501    0  0.00000000000E+00  0.00000000000E+00  0.83104773236E+02  0.83104825273E+02  0.93000000000E-01 0. -1.
         -3   -1    0    0    0  501 -0.00000000000E+00 -0.00000000000E+00 -0.12015328931E+01  0.12051266710E+01  0.93000000000E-01 0.  1.
       1023    2    1    2    0    0  0.00000000000E+00  0.00000000000E+00  0.81903240343E+02  0.84309951944E+02  0.20000680440E+02 0.  0.
        -11    1    3    3    0    0  0.77559116721E+01 -0.63126429610E+01  0.40714013289E+02  0.41924151815E+02  0.51100000000E-03 0. -1.
         11    1    3    3    0    0 -0.77559116721E+01  0.63126429610E+01  0.41189227054E+02  0.42385800129E+02  0.51100000000E-03 0.  1.
<mgrwt>
<rscale>  0 0.20000680E+02</rscale>
<asrwt>0</asrwt>
<pdfrwt beam="1">  1        3 0.12785629E-01 0.20000680E+02</pdfrwt>
<pdfrwt beam="2">  1       -3 0.18513167E-03 0.20000680E+02</pdfrwt>
<totfact> 0.14745059E+06</totfact>
</mgrwt>
</event>
<event>
 5    1  0.4133473E-007  0.2000008E+02  0.7818608E-02  0.1745327E+00
          3   -1    0    0  501    0  0.00000000000E+00  0.00000000000E+00  0.10049524734E+02  0.10049955043E+02  0.93000000000E-01 0.  1.
         -3   -1    0    0    0  501 -0.00000000000E+00 -0.00000000000E+00 -0.99499361169E+01  0.99503707334E+01  0.93000000000E-01 0. -1.
       1023    2    1    2    0    0  0.00000000000E+00  0.00000000000E+00  0.99588616638E-01  0.20000325777E+02  0.20000077832E+02 0.  0.
        -11    1    3    3    0    0 -0.36163177525E+01 -0.93232341205E+01  0.31641813050E-01  0.10000072501E+02  0.51100000000E-03 0. -1.
         11    1    3    3    0    0  0.36163177525E+01  0.93232341205E+01  0.67946803588E-01  0.10000253276E+02  0.51100000000E-03 0.  1.
<mgrwt>
<rscale>  0 0.20000078E+02</rscale>
<asrwt>0</asrwt>
<pdfrwt beam="1">  1        3 0.15461473E-02 0.20000078E+02</pdfrwt>
<pdfrwt beam="2">  1       -3 0.15308259E-02 0.20000078E+02</pdfrwt>
<totfact> 0.17885453E+06</totfact>
</mgrwt>
</event>
<event>
 5    1  0.4133473E-007  0.2000032E+02  0.7818608E-02  0.1745322E+00
         -3   -1    0    0    0  501 -0.00000000000E+00  0.00000000000E+00  0.70889395664E+02  0.70889456668E+02  0.93000000000E-01 0. -1.
          3   -1    0    0  501    0  0.00000000000E+00 -0.00000000000E+00 -0.14090985009E+01  0.14121641495E+01  0.93000000000E-01 0.  1.
       1023    2    1    2    0    0  0.00000000000E+00  0.00000000000E+00  0.69480297163E+02  0.72301620817E+02  0.20000316970E+02 0.  0.
        -11    1    3    3    0    0 -0.25106558808E+01 -0.96797125572E+01  0.34544091602E+02  0.35962403883E+02  0.51100000000E-03 0.  1.
         11    1    3    3    0    0  0.25106558808E+01  0.96797125572E+01  0.34936205561E+02  0.36339216934E+02  0.51100000000E-03 0. -1.
<mgrwt>
<rscale>  0 0.20000317E+02</rscale>
<asrwt>0</asrwt>
<pdfrwt beam="2">  1        3 0.21702489E-03 0.20000317E+02</pdfrwt>
<pdfrwt beam="1">  1       -3 0.10906302E-01 0.20000317E+02</pdfrwt>
<totfact> 0.15220585E+06</totfact>
</mgrwt>
</event>
<event>
 5    1  0.4274431E-007  0.2000185E+02  0.7818608E-02  0.1745291E+00
          3   -1    0    0  501    0  0.00000000000E+00  0.00000000000E+00  0.94099912370E+01  0.94104507905E+01  0.93000000000E-01 0. -1.
         -3   -1    0    0    0  501 -0.00000000000E+00 -0.00000000000E+00 -0.10628045358E+02  0.10628452246E+02  0.93000000000E-01 0.  1.
       1023    2    1    2    0    0  0.00000000000E+00  0.00000000000E+00 -0.12180541213E+01  0.20038903036E+02  0.20001849391E+02 0.  0.
        -11    1    3    3    0    0  0.72220263075E+01 -0.69181052611E+01 -0.63457156060E+00  0.10021004227E+02  0.51100000000E-03 0. -1.
         11    1    3    3    0    0 -0.72220263075E+01  0.69181052611E+01 -0.58348256067E+00  0.10017898809E+02  0.51100000000E-03 0.  1.
<mgrwt>
<rscale>  0 0.20001849E+02</rscale>
<asrwt>0</asrwt>
<pdfrwt beam="1">  1        3 0.14477576E-02 0.20001849E+02</pdfrwt>
<pdfrwt beam="2">  1       -3 0.16351506E-02 0.20001849E+02</pdfrwt>
<totfact> 0.17879589E+06</totfact>
</mgrwt>
</event>
<event>
 5    1  0.4133473E-007  0.2000879E+02  0.7818608E-02  0.1745153E+00
          3   -1    0    0  501    0  0.00000000000E+00  0.00000000000E+00  0.27312858277E+01  0.27328686892E+01  0.93000000000E-01 0. -1.
         -3   -1    0    0    0  501 -0.00000000000E+00 -0.00000000000E+00 -0.36632731106E+02  0.36632849156E+02  0.93000000000E-01 0.  1.
       1023    2    1    2    0    0  0.00000000000E+00  0.00000000000E+00 -0.33901445279E+02  0.39365717846E+02  0.20008791806E+02 0.  0.
        -11    1    3    3    0    0 -0.38040160750E+01  0.92529331278E+01 -0.17000000674E+02  0.19725296777E+02  0.51100000000E-03 0.  1.
         11    1    3    3    0    0  0.38040160750E+01 -0.92529331278E+01 -0.16901444605E+02  0.19640421069E+02  0.51100000000E-03 0. -1.
<mgrwt>
<rscale>  0 0.20008792E+02</rscale>
<asrwt>0</asrwt>
<pdfrwt beam="1">  1        3 0.42032869E-03 0.20008792E+02</pdfrwt>
<pdfrwt beam="2">  1       -3 0.56359353E-02 0.20008792E+02</pdfrwt>
<totfact> 0.16731770E+06</totfact>
</mgrwt>
</event>
<event>
 5    1  0.4133473E-007  0.2000034E+02  0.7818608E-02  0.1745321E+00
          3   -1    0    0  501    0  0.00000000000E+00  0.00000000000E+00  0.27450568246E+01  0.27466317501E+01  0.93000000000E-01 0.  1.
         -3   -1    0    0    0  501 -0.00000000000E+00 -0.00000000000E+00 -0.36418270298E+02  0.36418389043E+02  0.93000000000E-01 0. -1.
       1023    2    1    2    0    0  0.00000000000E+00  0.00000000000E+00 -0.33673213473E+02  0.39165020793E+02  0.20000338700E+02 0.  0.
        -11    1    3    3    0    0  0.40780209221E+01  0.91307253515E+01 -0.16943624377E+02  0.19674521783E+02  0.51100000000E-03 0. -1.
         11    1    3    3    0    0 -0.40780209221E+01 -0.91307253515E+01 -0.16729589096E+02  0.19490499010E+02  0.51100000000E-03 0.  1.
<mgrwt>
<rscale>  0 0.20000339E+02</rscale>
<asrwt>0</asrwt>
<pdfrwt beam="1">  1        3 0.42244674E-03 0.20000339E+02</pdfrwt>
<pdfrwt beam="2">  1       -3 0.56029408E-02 0.20000339E+02</pdfrwt>
<totfact> 0.16757627E+06</totfact>
</mgrwt>
</event>
<event>
 5    1  0.4133473E-007  0.2000085E+02  0.7818608E-02  0.1745311E+00
         -3   -1    0    0    0  501 -0.00000000000E+00  0.00000000000E+00  0.47739552050E+01  0.47748609717E+01  0.93000000000E-01 0.  1.
          3   -1    0    0  501    0  0.00000000000E+00 -0.00000000000E+00 -0.20945780768E+02  0.20945987229E+02  0.93000000000E-01 0. -1.
       1023    2    1    2    0    0  0.00000000000E+00  0.00000000000E+00 -0.16171825563E+02  0.25720848200E+02  0.20000852235E+02 0.  0.
        -11    1    3    3    0    0 -0.98539209380E+01  0.17036498482E+01 -0.79835041707E+01  0.12796035314E+02  0.51100000000E-03 0. -1.
         11    1    3    3    0    0  0.98539209380E+01 -0.17036498482E+01 -0.81883213924E+01  0.12924812886E+02  0.51100000000E-03 0.  1.
<mgrwt>
<rscale>  0 0.20000852E+02</rscale>
<asrwt>0</asrwt>
<pdfrwt beam="2">  1        3 0.32225133E-02 0.20000852E+02</pdfrwt>
<pdfrwt beam="1">  1       -3 0.73454022E-03 0.20000852E+02</pdfrwt>
<totfact> 0.17520618E+06</totfact>
</mgrwt>
</event>
<event>
 5    1  0.4133473E-007  0.2000014E+02  0.7818608E-02  0.1745325E+00
         -3   -1    0    0    0  501 -0.00000000000E+00  0.00000000000E+00  0.53059663550E+01  0.53067813184E+01  0.93000000000E-01 0. -1.
          3   -1    0    0  501    0  0.00000000000E+00 -0.00000000000E+00 -0.18844591527E+02  0.18844821008E+02  0.93000000000E-01 0.  1.
       1023    2    1    2    0    0  0.00000000000E+00  0.00000000000E+00 -0.13538625172E+02  0.24151602326E+02  0.20000138084E+02 0.  0.
        -11    1    3    3    0    0 -0.25182333273E+01 -0.96777991586E+01 -0.67581833610E+01  0.12069562471E+02  0.51100000000E-03 0. -1.
         11    1    3    3    0    0  0.25182333273E+01  0.96777991586E+01 -0.67804418110E+01  0.12082039855E+02  0.51100000000E-03 0.  1.
<mgrwt>
<rscale>  0 0.20000138E+02</rscale>
<asrwt>0</asrwt>
<pdfrwt beam="2">  1        3 0.28992482E-02 0.20000138E+02</pdfrwt>
<pdfrwt beam="1">  1       -3 0.81638286E-03 0.20000138E+02</pdfrwt>
<totfact> 0.17619109E+06</totfact>
</mgrwt>
</event>
<event>
 5    1  0.4273338E-007  0.2000163E+02  0.7818608E-02  0.1745296E+00
         -3   -1    0    0    0  501 -0.00000000000E+00  0.00000000000E+00  0.61207955969E+01  0.61215020819E+01  0.93000000000E-01 0.  1.
          3   -1    0    0  501    0  0.00000000000E+00 -0.00000000000E+00 -0.16338633008E+02  0.16338897686E+02  0.93000000000E-01 0. -1.
       1023    2    1    2    0    0  0.00000000000E+00  0.00000000000E+00 -0.10217837411E+02  0.22460399768E+02  0.20001633842E+02 0.  0.
        -11    1    3    3    0    0  0.50984623485E+01 -0.86034856452E+01 -0.51598266403E+01  0.11253359267E+02  0.51100000000E-03 0. -1.
         11    1    3    3    0    0 -0.50984623485E+01  0.86034856452E+01 -0.50580107711E+01  0.11207040501E+02  0.51100000000E-03 0.  1.
<mgrwt>
<rscale>  0 0.20001634E+02</rscale>
<asrwt>0</asrwt>
<pdfrwt beam="2">  1        3 0.25137105E-02 0.20001634E+02</pdfrwt>
<pdfrwt beam="1">  1       -3 0.94173557E-03 0.20001634E+02</pdfrwt>
<totfact> 0.17722897E+06</totfact>
</mgrwt>
</event>
<event>
 5    1  0.4133473E-007  0.2000432E+02  0.7818608E-02  0.1745242E+00
          3   -1    0    0  501    0  0.00000000000E+00  0.00000000000E+00  0.11013042432E+01  0.11052239756E+01  0.93000000000E-01 0.  1.
         -3   -1    0    0    0  501 -0.00000000000E+00 -0.00000000000E+00 -0.90675307673E+02  0.90675355365E+02  0.93000000000E-01 0. -1.
       1023    2    1    2    0    0  0.00000000000E+00  0.00000000000E+00 -0.89574003429E+02  0.91780579340E+02  0.20004315876E+02 0.  0.
        -11    1    3    3    0    0 -0.63374611590E+01 -0.77376518433E+01 -0.44364175438E+02  0.45477628924E+02  0.51100000000E-03 0. -1.
         11    1    3    3    0    0  0.63374611590E+01  0.77376518433E+01 -0.45209827991E+02  0.46302950416E+02  0.51100000000E-03 0.  1.
<mgrwt>
<rscale>  0 0.20004316E+02</rscale>
<asrwt>0</asrwt>
<pdfrwt beam="1">  1        3 0.16973668E-03 0.20004316E+02</pdfrwt>
<pdfrwt beam="2">  1       -3 0.13950347E-01 0.20004316E+02</pdfrwt>
<totfact> 0.14465408E+06</totfact>
</mgrwt>
</event>
<event>
 5    1  0.4280945E-007  0.2000170E+02  0.7818608E-02  0.1745294E+00
          3   -1    0    0  501    0  0.00000000000E+00  0.00000000000E+00  0.26517097029E+01  0.26533400364E+01  0.93000000000E-01 0. -1.
         -3   -1    0    0    0  501 -0.00000000000E+00 -0.00000000000E+00 -0.37704641728E+02  0.37704756422E+02  0.93000000000E-01 0.  1.
       1023    2    1    2    0    0  0.00000000000E+00  0.00000000000E+00 -0.35052932025E+02  0.40358096459E+02  0.20001697583E+02 0.  0.
        -11    1    3    3    0    0  0.99946038346E+01 -0.33117692827E+00 -0.17775166036E+02  0.20395056064E+02  0.51100000000E-03 0.  1.
         11    1    3    3    0    0 -0.99946038346E+01  0.33117692827E+00 -0.17277765989E+02  0.19963040395E+02  0.51100000000E-03 0. -1.
<mgrwt>
<rscale>  0 0.20001698E+02</rscale>
<asrwt>0</asrwt>
<pdfrwt beam="1">  1        3 0.40808960E-03 0.20001698E+02</pdfrwt>
<pdfrwt beam="2">  1       -3 0.58008480E-02 0.20001698E+02</pdfrwt>
<totfact> 0.16692172E+06</totfact>
</mgrwt>
</event>
<event>
 5    1  0.4369899E-007  0.2000164E+02  0.7818608E-02  0.1745296E+00
          3   -1    0    0  501    0  0.00000000000E+00  0.00000000000E+00  0.78210902932E+01  0.78216432017E+01  0.93000000000E-01 0.  1.
         -3   -1    0    0    0  501 -0.00000000000E+00 -0.00000000000E+00 -0.12786859802E+02  0.12787197997E+02  0.93000000000E-01 0. -1.
       1023    2    1    2    0    0  0.00000000000E+00  0.00000000000E+00 -0.49657695091E+01  0.20608841198E+02  0.20001636651E+02 0.  0.
        -11    1    3    3    0    0  0.40194097171E+01  0.91572316728E+01 -0.24042762549E+01  0.10285479617E+02  0.51100000000E-03 0.  1.
         11    1    3    3    0    0 -0.40194097171E+01 -0.91572316728E+01 -0.25614932542E+01  0.10323361581E+02  0.51100000000E-03 0. -1.
<mgrwt>
<rscale>  0 0.20001637E+02</rscale>
<asrwt>0</asrwt>
<pdfrwt beam="1">  1        3 0.12033132E-02 0.20001637E+02</pdfrwt>
<pdfrwt beam="2">  1       -3 0.19672778E-02 0.20001637E+02</pdfrwt>
<totfact> 0.17842912E+06</totfact>
</mgrwt>
</event>
<event>
 4    1  0.4133473E-007  0.2001843E+02  0.7818608E-02  0.1744962E+00
         -3   -1    0    0    0  501 -0.00000000000E+00  0.00000000000E+00  0.22573680694E+01  0.22592829838E+01  0.93000000000E-01 0.  1.
          3   -1    0    0  501    0  0.00000000000E+00 -0.00000000000E+00 -0.44360261861E+02  0.44360359346E+02  0.93000000000E-01 0. -1.
        -11    1    1    2    0    0 -0.44958560914E+01 -0.89401659915E+01 -0.21545775779E+02  0.23756256947E+02  0.51100000000E-03 0. -1.
         11    1    1    2    0    0  0.44958560914E+01  0.89401659915E+01 -0.20557118012E+02  0.22863385383E+02  0.51100000000E-03 0.  1.
<mgrwt>
<rscale>  0 0.20018426E+02</rscale>
<asrwt>0</asrwt>
<pdfrwt beam="2">  1        3 0.68248098E-02 0.20018426E+02</pdfrwt>
<pdfrwt beam="1">  1       -3 0.34744223E-03 0.20018426E+02</pdfrwt>
<totfact> 0.16340437E+06</totfact>
</mgrwt>
</event>
<event>
 5    1  0.4133473E-007  0.2000101E+02  0.7818608E-02  0.1745308E+00
          3   -1    0    0  501    0  0.00000000000E+00  0.00000000000E+00  0.11702144902E+03  0.11702148598E+03  0.93000000000E-01 0.  1.
         -3   -1    0    0    0  501 -0.00000000000E+00 -0.00000000000E+00 -0.85206306188E+00  0.85712336418E+00  0.93000000000E-01 0. -1.
       1023    2    1    2    0    0  0.00000000000E+00  0.00000000000E+00  0.11616938596E+03  0.11787860934E+03  0.20001007620E+02 0.  0.
        -11    1    3    3    0    0 -0.99987350901E+01 -0.18503844438E+00  0.57886263837E+02  0.58743752722E+02  0.51100000000E-03 0.  1.
         11    1    3    3    0    0  0.99987350901E+01  0.18503844438E+00  0.58283122123E+02  0.59134856619E+02  0.51100000000E-03 0. -1.
<mgrwt>
<rscale>  0 0.20001008E+02</rscale>
<asrwt>0</asrwt>
<pdfrwt beam="1">  1        3 0.18003689E-01 0.20001008E+02</pdfrwt>
<pdfrwt beam="2">  1       -3 0.13147874E-03 0.20001008E+02</pdfrwt>
<totfact> 0.13586099E+06</totfact>
</mgrwt>
</event>
<event>
 5    1  0.4188172E-007  0.2000204E+02  0.7818608E-02  0.1745288E+00
         -3   -1    0    0    0  501 -0.00000000000E+00  0.00000000000E+00  0.37707784122E+02  0.37707898806E+02  0.93000000000E-01 0. -1.
          3   -1    0    0  501    0  0.00000000000E+00 -0.00000000000E+00 -0.26515795047E+01  0.26532099182E+01  0.93000000000E-01 0.  1.
       1023    2    1    2    0    0  0.00000000000E+00  0.00000000000E+00  0.35056204617E+02  0.40361108724E+02  0.20002040278E+02 0.  0.
        -11    1    3    3    0    0 -0.65505691255E+01 -0.75569881995E+01  0.17626482538E+02  0.20266003885E+02  0.51100000000E-03 0.  1.
         11    1    3    3    0    0  0.65505691255E+01  0.75569881995E+01  0.17429722079E+02  0.20095104840E+02  0.51100000000E-03 0. -1.
<mgrwt>
<rscale>  0 0.20002040E+02</rscale>
<asrwt>0</asrwt>
<pdfrwt beam="2">  1        3 0.40806959E-03 0.20002040E+02</pdfrwt>
<pdfrwt beam="1">  1       -3 0.58013312E-02 0.20002040E+02</pdfrwt>
<totfact> 0.16691399E+06</totfact>
</mgrwt>
</event>
<event>
 5    1  0.4133473E-007  0.2000547E+02  0.7818608E-02  0.1745219E+00
          3   -1    0    0  501    0  0.00000000000E+00  0.00000000000E+00  0.40406087251E+02  0.40406194277E+02  0.93000000000E-01 0. -1.
         -3   -1    0    0    0  501 -0.00000000000E+00 -0.00000000000E+00 -0.24752450158E+01  0.24769914994E+01  0.93000000000E-01 0.  1.
       1023    2    1    2    0    0  0.00000000000E+00  0.00000000000E+00  0.37930842235E+02  0.42883185776E+02  0.20005469993E+02 0.  0.
        -11    1    3    3    0    0 -0.98048295820E+01  0.19746453106E+01  0.18656271245E+02  0.21168145036E+02  0.51100000000E-03 0.  1.
         11    1    3    3    0    0  0.98048295820E+01 -0.19746453106E+01  0.19274570990E+02  0.21715040740E+02  0.51100000000E-03 0. -1.
<mgrwt>
<rscale>  0 0.20005470E+02</rscale>
<asrwt>0</asrwt>
<pdfrwt beam="1">  1        3 0.62164633E-02 0.20005470E+02</pdfrwt>
<pdfrwt beam="2">  1       -3 0.38094952E-03 0.20005470E+02</pdfrwt>
<totfact> 0.16552045E+06</totfact>
</mgrwt>
</event>
<event>
 5    1  0.4133473E-007  0.2000077E+02  0.7818608E-02  0.1745313E+00
          3   -1    0    0  501    0  0.00000000000E+00  0.00000000000E+00  0.17723122121E+01  0.17747505676E+01  0.93000000000E-01 0.  1.
         -3   -1    0    0    0  501 -0.00000000000E+00 -0.00000000000E+00 -0.56386570048E+02  0.56386646742E+02  0.93000000000E-01 0. -1.
       1023    2    1    2    0    0  0.00000000000E+00  0.00000000000E+00 -0.54614257836E+02  0.58161397310E+02  0.20000774435E+02 0.  0.
        -11    1    3    3    0    0 -0.63390964381E+01 -0.77341487827E+01 -0.27071904139E+02  0.28859819733E+02  0.51100000000E-03 0. -1.
         11    1    3    3    0    0  0.63390964381E+01  0.77341487827E+01 -0.27542353697E+02  0.29301577576E+02  0.51100000000E-03 0.  1.
<mgrwt>
<rscale>  0 0.20000774E+02</rscale>
<asrwt>0</asrwt>
<pdfrwt beam="1">  1        3 0.27285693E-03 0.20000774E+02</pdfrwt>
<pdfrwt beam="2">  1       -3 0.86750490E-02 0.20000774E+02</pdfrwt>
<totfact> 0.15827586E+06</totfact>
</mgrwt>
</event>
<event>
 5    1  0.4133473E-007  0.2000094E+02  0.7818608E-02  0.1745309E+00
          3   -1    0    0  501    0  0.00000000000E+00  0.00000000000E+00  0.11711318980E+03  0.11711322673E+03  0.93000000000E-01 0.  1.
         -3   -1    0    0    0  501 -0.00000000000E+00 -0.00000000000E+00 -0.85138586198E+00  0.85645016549E+00  0.93000000000E-01 0. -1.
       1023    2    1    2    0    0  0.00000000000E+00  0.00000000000E+00  0.11626180394E+03  0.11796967689E+03  0.20000940251E+02 0.  0.
        -11    1    3    3    0    0  0.98594020477E+01  0.16732430531E+01  0.58384690491E+02  0.59234952815E+02  0.51100000000E-03 0.  1.
         11    1    3    3    0    0 -0.98594020477E+01 -0.16732430531E+01  0.57877113449E+02  0.58734724077E+02  0.51100000000E-03 0. -1.
<mgrwt>
<rscale>  0 0.20000940E+02</rscale>
<asrwt>0</asrwt>
<pdfrwt beam="1">  1        3 0.18017795E-01 0.20000940E+02</pdfrwt>
<pdfrwt beam="2">  1       -3 0.13137493E-03 0.20000940E+02</pdfrwt>
<totfact> 0.13583329E+06</totfact>
</mgrwt>
</event>
<event>
 5    1  0.4133473E-007  0.2000023E+02  0.7818608E-02  0.1745324E+00
         -3   -1    0    0    0  501 -0.00000000000E+00  0.00000000000E+00  0.77103206592E+02  0.77103262679E+02  0.93000000000E-01 0. -1.
          3   -1    0    0  501    0  0.00000000000E+00 -0.00000000000E+00 -0.12952686001E+01  0.12986029980E+01  0.93000000000E-01 0.  1.
       1023    2    1    2    0    0  0.00000000000E+00  0.00000000000E+00  0.75807937992E+02  0.78401865677E+02  0.20000226976E+02 0.  0.
        -11    1    3    3    0    0  0.60467880915E+01  0.79648081768E+01  0.37987493691E+02  0.39281694117E+02  0.51100000000E-03 0.  1.
         11    1    3    3    0    0 -0.60467880915E+01 -0.79648081768E+01  0.37820444301E+02  0.39120171560E+02  0.51100000000E-03 0. -1.
<mgrwt>
<rscale>  0 0.20000227E+02</rscale>
<asrwt>0</asrwt>
<pdfrwt beam="2">  1        3 0.19953288E-03 0.20000227E+02</pdfrwt>
<pdfrwt beam="1">  1       -3 0.11862294E-01 0.20000227E+02</pdfrwt>
<totfact> 0.14976391E+06</totfact>
</mgrwt>
</event>
<event>
 5    1  0.4226098E-007  0.2000099E+02  0.7818608E-02  0.1745308E+00
         -3   -1    0    0    0  501 -0.00000000000E+00  0.00000000000E+00  0.38479342773E+01  0.38490579629E+01  0.93000000000E-01 0.  1.
          3   -1    0    0  501    0  0.00000000000E+00 -0.00000000000E+00 -0.25985539157E+02  0.25985705576E+02  0.93000000000E-01 0. -1.
       1023    2    1    2    0    0  0.00000000000E+00  0.00000000000E+00 -0.22137604880E+02  0.29834763539E+02  0.20000989116E+02 0.  0.
        -11    1    3    3    0    0  0.73620949863E+01 -0.67677596483E+01 -0.10945094107E+02  0.14825589314E+02  0.51100000000E-03 0. -1.
         11    1    3    3    0    0 -0.73620949863E+01  0.67677596483E+01 -0.11192510773E+02  0.15009174225E+02  0.51100000000E-03 0.  1.
<mgrwt>
<rscale>  0 0.20000989E+02</rscale>
<asrwt>0</asrwt>
<pdfrwt beam="2">  1        3 0.39978744E-02 0.20000989E+02</pdfrwt>
<pdfrwt beam="1">  1       -3 0.59208914E-03 0.20000989E+02</pdfrwt>
<totfact> 0.17274203E+06</totfact>
</mgrwt>
</event>
<event>
 5    1  0.4133473E-007  0.2000040E+02  0.7818608E-02  0.1745320E+00
          3   -1    0    0  501    0  0.00000000000E+00  0.00000000000E+00  0.33720355019E+01  0.33733177179E+01  0.93000000000E-01 0. -1.
         -3   -1    0    0    0  501 -0.00000000000E+00 -0.00000000000E+00 -0.29649880397E+02  0.29650026249E+02  0.93000000000E-01 0.  1.
       1023    2    1    2    0    0  0.00000000000E+00  0.00000000000E+00 -0.26277844895E+02  0.33023343966E+02  0.20000402856E+02 0.  0.
        -11    1    3    3    0    0 -0.94563106667E+00 -0.99552834178E+01 -0.13062499777E+02  0.16450859756E+02  0.51100000000E-03 0. -1.
         11    1    3    3    0    0  0.94563106667E+00  0.99552834178E+01 -0.13215345118E+02  0.16572484210E+02  0.51100000000E-03 0.  1.
<mgrwt>
<rscale>  0 0.20000403E+02</rscale>
<asrwt>0</asrwt>
<pdfrwt beam="1">  1        3 0.51888456E-03 0.20000403E+02</pdfrwt>
<pdfrwt beam="2">  1       -3 0.45616298E-02 0.20000403E+02</pdfrwt>
<totfact> 0.17093821E+06</totfact>
</mgrwt>
</event>
<event>
 5    1  0.4133473E-007  0.2000206E+02  0.7818608E-02  0.1745287E+00
          3   -1    0    0  501    0  0.00000000000E+00  0.00000000000E+00  0.18920719865E+02  0.18920948423E+02  0.93000000000E-01 0.  1.
         -3   -1    0    0    0  501 -0.00000000000E+00 -0.00000000000E+00 -0.52856317963E+01  0.52864498944E+01  0.93000000000E-01 0. -1.
       1023    2    1    2    0    0  0.00000000000E+00  0.00000000000E+00  0.13635088069E+02  0.24207398317E+02  0.20002062560E+02 0.  0.
        -11    1    3    3    0    0  0.26465778725E+01 -0.96443652161E+01  0.67573771677E+01  0.12069809497E+02  0.51100000000E-03 0.  1.
         11    1    3    3    0    0 -0.26465778725E+01  0.96443652161E+01  0.68777109012E+01  0.12137588820E+02  0.51100000000E-03 0. -1.
<mgrwt>
<rscale>  0 0.20002063E+02</rscale>
<asrwt>0</asrwt>
<pdfrwt beam="1">  1        3 0.29109604E-02 0.20002063E+02</pdfrwt>
<pdfrwt beam="2">  1       -3 0.81325465E-03 0.20002063E+02</pdfrwt>
<totfact> 0.17611983E+06</totfact>
</mgrwt>
</event>
<event>
 5    1  0.4203981E-007  0.2000065E+02  0.7818608E-02  0.1745315E+00
         -3   -1    0    0    0  501 -0.00000000000E+00  0.00000000000E+00  0.76011924292E+01  0.76017613318E+01  0.93000000000E-01 0.  1.
          3   -1    0    0  501    0  0.00000000000E+00 -0.00000000000E+00 -0.13155458645E+02  0.13155787364E+02  0.93000000000E-01 0. -1.
       1023    2    1    2    0    0  0.00000000000E+00  0.00000000000E+00 -0.55542662155E+01  0.20757548695E+02  0.20000648856E+02 0.  0.
        -11    1    3    3    0    0 -0.53154900612E+01 -0.84706457867E+01 -0.27619590795E+01  0.10374714109E+02  0.51100000000E-03 0. -1.
         11    1    3    3    0    0  0.53154900612E+01  0.84706457867E+01 -0.27923071361E+01  0.10382834586E+02  0.51100000000E-03 0.  1.
<mgrwt>
<rscale>  0 0.20000649E+02</rscale>
<asrwt>0</asrwt>
<pdfrwt beam="2">  1        3 0.20239858E-02 0.20000649E+02</pdfrwt>
<pdfrwt beam="1">  1       -3 0.11694833E-02 0.20000649E+02</pdfrwt>
<totfact> 0.17834674E+06</totfact>
</mgrwt>
</event>
<event>
 5    1  0.4133473E-007  0.2000071E+02  0.7818608E-02  0.1745314E+00
          3   -1    0    0  501    0  0.00000000000E+00  0.00000000000E+00  0.30447589601E+02  0.30447731632E+02  0.93000000000E-01 0.  1.
         -3   -1    0    0    0  501 -0.00000000000E+00 -0.00000000000E+00 -0.32837568876E+01  0.32850735604E+01  0.93000000000E-01 0. -1.
       1023    2    1    2    0    0  0.00000000000E+00  0.00000000000E+00  0.27163832714E+02  0.33732805192E+02  0.20000708449E+02 0.  0.
        -11    1    3    3    0    0  0.67167561717E+01 -0.74089281519E+01  0.13594369480E+02  0.16876430655E+02  0.51100000000E-03 0.  1.
         11    1    3    3    0    0 -0.67167561717E+01  0.74089281519E+01  0.13569463234E+02  0.16856374538E+02  0.51100000000E-03 0. -1.
<mgrwt>
<rscale>  0 0.20000708E+02</rscale>
<asrwt>0</asrwt>
<pdfrwt beam="1">  1        3 0.46843567E-02 0.20000708E+02</pdfrwt>
<pdfrwt beam="2">  1       -3 0.50530558E-03 0.20000708E+02</pdfrwt>
<totfact> 0.17051403E+06</totfact>
</mgrwt>
</event>
<event>
 5    1  0.4133473E-007  0.2000077E+02  0.7818608E-02  0.1745313E+00
         -3   -1    0    0    0  501 -0.00000000000E+00  0.00000000000E+00  0.53820668907E+02  0.53820749257E+02  0.93000000000E-01 0. -1.
          3   -1    0    0  501    0  0.00000000000E+00 -0.00000000000E+00 -0.18569190424E+01  0.18592464414E+01  0.93000000000E-01 0.  1.
       1023    2    1    2    0    0  0.00000000000E+00  0.00000000000E+00  0.51963749864E+02  0.55679995698E+02  0.20000765510E+02 0.  0.
        -11    1    3    3    0    0  0.99176398204E+01 -0.12837669886E+01  0.25970162744E+02  0.27829067367E+02  0.51100000000E-03 0.  1.
         11    1    3    3    0    0 -0.99176398204E+01  0.12837669886E+01  0.25993587120E+02  0.27850928331E+02  0.51100000000E-03 0. -1.
<mgrwt>
<rscale>  0 0.20000766E+02</rscale>
<asrwt>0</asrwt>
<pdfrwt beam="2">  1        3 0.28586508E-03 0.20000766E+02</pdfrwt>
<pdfrwt beam="1">  1       -3 0.82802878E-02 0.20000766E+02</pdfrwt>
<totfact> 0.15940750E+06</totfact>
</mgrwt>
</event>
<event>
 5    1  0.4133473E-007  0.2000324E+02  0.7818608E-02  0.1745264E+00
         -3   -1    0    0    0  501 -0.00000000000E+00  0.00000000000E+00  0.21343321482E+01  0.21363573481E+01  0.93000000000E-01 0. -1.
          3   -1    0    0  501    0  0.00000000000E+00 -0.00000000000E+00 -0.46843953268E+02  0.46844045585E+02  0.93000000000E-01 0.  1.
       1023    2    1    2    0    0  0.00000000000E+00  0.00000000000E+00 -0.44709621120E+02  0.48980402934E+02  0.20003241008E+02 0.  0.
        -11    1    3    3    0    0 -0.54197523327E+01 -0.84050787115E+01 -0.22071902364E+02  0.24231961079E+02  0.51100000000E-03 0.  1.
         11    1    3    3    0    0  0.54197523327E+01  0.84050787115E+01 -0.22637718756E+02  0.24748441855E+02  0.51100000000E-03 0. -1.
<mgrwt>
<rscale>  0 0.20003241E+02</rscale>
<asrwt>0</asrwt>
<pdfrwt beam="2">  1        3 0.72069242E-02 0.20003241E+02</pdfrwt>
<pdfrwt beam="1">  1       -3 0.32852171E-03 0.20003241E+02</pdfrwt>
<totfact> 0.16250973E+06</totfact>
</mgrwt>
</event>
<event>
 5    1  0.4268545E-007  0.2000131E+02  0.7818608E-02  0.1745302E+00
         -3   -1    0    0    0  501 -0.00000000000E+00  0.00000000000E+00  0.48988018388E+01  0.48996845262E+01  0.93000000000E-01 0.  1.
          3   -1    0    0  501    0  0.00000000000E+00 -0.00000000000E+00 -0.20413007654E+02  0.20413219503E+02  0.93000000000E-01 0. -1.
       1023    2    1    2    0    0  0.00000000000E+00  0.00000000000E+00 -0.15514205815E+02  0.25312904029E+02  0.20001313165E+02 0.  0.
        -11    1    3    3    0    0  0.41894297729E+01 -0.90803147234E+01 -0.76324947181E+01  0.12580080015E+02  0.51100000000E-03 0.  1.
         11    1    3    3    0    0 -0.41894297729E+01  0.90803147234E+01 -0.78817110966E+01  0.12732824014E+02  0.51100000000E-03 0. -1.
<mgrwt>
<rscale>  0 0.20001313E+02</rscale>
<asrwt>0</asrwt>
<pdfrwt beam="2">  1        3 0.31405469E-02 0.20001313E+02</pdfrwt>
<pdfrwt beam="1">  1       -3 0.75374603E-03 0.20001313E+02</pdfrwt>
<totfact> 0.17544814E+06</totfact>
</mgrwt>
</event>
<event>
 5    1  0.4133473E-007  0.2000106E+02  0.7818608E-02  0.1745307E+00
         -3   -1    0    0    0  501 -0.00000000000E+00  0.00000000000E+00  0.82562893892E+00  0.83085025413E+00  0.93000000000E-01 0. -1.
          3   -1    0    0  501    0  0.00000000000E+00 -0.00000000000E+00 -0.12074561347E+03  0.12074564928E+03  0.93000000000E-01 0.  1.
       1023    2    1    2    0    0  0.00000000000E+00  0.00000000000E+00 -0.11991998453E+03  0.12157649954E+03  0.20001063728E+02 0.  0.
        -11    1    3    3    0    0 -0.87127340316E+01 -0.49088623108E+01 -0.59689939206E+02  0.60521876261E+02  0.51100000000E-03 0.  1.
         11    1    3    3    0    0  0.87127340316E+01  0.49088623108E+01 -0.60230045325E+02  0.61054623278E+02  0.51100000000E-03 0. -1.
<mgrwt>
<rscale>  0 0.20001064E+02</rscale>
<asrwt>0</asrwt>
<pdfrwt beam="2">  1        3 0.18576639E-01 0.20001064E+02</pdfrwt>
<pdfrwt beam="1">  1       -3 0.12742433E-03 0.20001064E+02</pdfrwt>
<totfact> 0.13470512E+06</totfact>
</mgrwt>
</event>
<event>
 5    1  0.4133473E-007  0.2000095E+02  0.7818608E-02  0.1745309E+00
         -3   -1    0    0    0  501 -0.00000000000E+00  0.00000000000E+00  0.15295787533E+01  0.15324033942E+01  0.93000000000E-01 0.  1.
          3   -1    0    0  501    0  0.00000000000E+00 -0.00000000000E+00 -0.65320545963E+02  0.65320612168E+02  0.93000000000E-01 0. -1.
       1023    2    1    2    0    0  0.00000000000E+00  0.00000000000E+00 -0.63790967210E+02  0.66853015562E+02  0.20000954780E+02 0.  0.
        -11    1    3    3    0    0 -0.90332760511E+01  0.42901968063E+01 -0.32098329482E+02  0.33620062769E+02  0.51100000000E-03 0. -1.
         11    1    3    3    0    0  0.90332760511E+01 -0.42901968063E+01 -0.31692637728E+02  0.33232952792E+02  0.51100000000E-03 0.  1.
<mgrwt>
<rscale>  0 0.20000955E+02</rscale>
<asrwt>0</asrwt>
<pdfrwt beam="2">  1        3 0.10049535E-01 0.20000955E+02</pdfrwt>
<pdfrwt beam="1">  1       -3 0.23554223E-03 0.20000955E+02</pdfrwt>
<totfact> 0.15443660E+06</totfact>
</mgrwt>
</event>
<event>
 5    1  0.4220439E-007  0.2000121E+02  0.7818608E-02  0.1745304E+00
          3   -1    0    0  501    0  0.00000000000E+00  0.00000000000E+00  0.26615044895E+01  0.26631288267E+01  0.93000000000E-01 0. -1.
         -3   -1    0    0    0  501 -0.00000000000E+00 -0.00000000000E+00 -0.37564118015E+02  0.37564233138E+02  0.93000000000E-01 0.  1.
       1023    2    1    2    0    0  0.00000000000E+00  0.00000000000E+00 -0.34902613526E+02  0.40227361965E+02  0.20001205457E+02 0.  0.
        -11    1    3    3    0    0  0.12143953431E+01 -0.99263820991E+01 -0.17320389472E+02  0.20000092734E+02  0.51100000000E-03 0. -1.
         11    1    3    3    0    0 -0.12143953431E+01  0.99263820991E+01 -0.17582224053E+02  0.20227269231E+02  0.51100000000E-03 0.  1.
<mgrwt>
<rscale>  0 0.20001205E+02</rscale>
<asrwt>0</asrwt>
<pdfrwt beam="1">  1        3 0.40959606E-03 0.20001205E+02</pdfrwt>
<pdfrwt beam="2">  1       -3 0.57792285E-02 0.20001205E+02</pdfrwt>
<totfact> 0.16699924E+06</totfact>
</mgrwt>
</event>
<event>
 5    1  0.4133473E-007  0.2000319E+02  0.7818608E-02  0.1745265E+00
          3   -1    0    0  501    0  0.00000000000E+00  0.00000000000E+00  0.66607126347E+01  0.66613618579E+01  0.93000000000E-01 0.  1.
         -3   -1    0    0    0  501 -0.00000000000E+00 -0.00000000000E+00 -0.15016666228E+02  0.15016954205E+02  0.93000000000E-01 0. -1.
       1023    2    1    2    0    0  0.00000000000E+00  0.00000000000E+00 -0.83559535933E+01  0.21678316063E+02  0.20003185418E+02 0.  0.
        -11    1    3    3    0    0 -0.54789609063E+01  0.83659793092E+01 -0.43431687142E+01  0.10902831612E+02  0.51100000000E-03 0. -1.
         11    1    3    3    0    0  0.54789609063E+01 -0.83659793092E+01 -0.40127848791E+01  0.10775484451E+02  0.51100000000E-03 0.  1.
<mgrwt>
<rscale>  0 0.20003185E+02</rscale>
<asrwt>0</asrwt>
<pdfrwt beam="1">  1        3 0.10247971E-02 0.20003185E+02</pdfrwt>
<pdfrwt beam="2">  1       -3 0.23103284E-02 0.20003185E+02</pdfrwt>
<totfact> 0.17770739E+06</totfact>
</mgrwt>
</event>
<event>
 5    1  0.4133473E-007  0.2000011E+02  0.7818608E-02  0.1745326E+00
          3   -1    0    0  501    0  0.00000000000E+00  0.00000000000E+00  0.89093928882E+00  0.89578000445E+00  0.93000000000E-01 0. -1.
         -3   -1    0    0    0  501 -0.00000000000E+00 -0.00000000000E+00 -0.11193338307E+03  0.11193342170E+03  0.93000000000E-01 0.  1.
       1023    2    1    2    0    0  0.00000000000E+00  0.00000000000E+00 -0.11104244378E+03  0.11282920171E+03  0.20000110935E+02 0.  0.
        -11    1    3    3    0    0  0.10530929110E+01  0.99444353600E+01 -0.55620514437E+02  0.56512321009E+02  0.51100000000E-03 0. -1.
         11    1    3    3    0    0 -0.10530929110E+01 -0.99444353600E+01 -0.55421929344E+02  0.56316880700E+02  0.51100000000E-03 0.  1.
<mgrwt>
<rscale>  0 0.20000111E+02</rscale>
<asrwt>0</asrwt>
<pdfrwt beam="1">  1        3 0.13744301E-03 0.20000111E+02</pdfrwt>
<pdfrwt beam="2">  1       -3 0.17220885E-01 0.20000111E+02</pdfrwt>
<totfact> 0.13751354E+06</totfact>
</mgrwt>
</event>
<event>
 5    1  0.4306568E-007  0.2000101E+02  0.7818608E-02  0.1745308E+00
         -3   -1    0    0    0  501 -0.00000000000E+00  0.00000000000E+00  0.38531413936E+02  0.38531526169E+02  0.93000000000E-01 0. -1.
          3   -1    0    0  501    0  0.00000000000E+00 -0.00000000000E+00 -0.25945990476E+01  0.25962652441E+01  0.93000000000E-01 0.  1.
       1023    2    1    2    0    0  0.00000000000E+00  0.00000000000E+00  0.35936814888E+02  0.41127791413E+02  0.20001014029E+02 0.  0.
        -11    1    3    3    0    0  0.57097537186E+01  0.82102864263E+01  0.17953931847E+02  0.20551247158E+02  0.51100000000E-03 0.  1.
         11    1    3    3    0    0 -0.57097537186E+01 -0.82102864263E+01  0.17982883042E+02  0.20576544255E+02  0.51100000000E-03 0. -1.
<mgrwt>
<rscale>  0 0.20001014E+02</rscale>
<asrwt>0</asrwt>
<pdfrwt beam="2">  1        3 0.39930593E-03 0.20001014E+02</pdfrwt>
<pdfrwt beam="1">  1       -3 0.59280460E-02 0.20001014E+02</pdfrwt>
<totfact> 0.16653130E+06</totfact>
</mgrwt>
</event>
<event>
 5    1  0.4133473E-007  0.2000035E+02  0.7818608E-02  0.1745321E+00
          3   -1    0    0  501    0  0.00000000000E+00  0.00000000000E+00  0.14848275215E+01  0.14877371302E+01  0.93000000000E-01 0.  1.
         -3   -1    0    0    0  501 -0.00000000000E+00 -0.00000000000E+00 -0.67281375777E+02  0.67281440052E+02  0.93000000000E-01 0. -1.
       1023    2    1    2    0    0  0.00000000000E+00  0.00000000000E+00 -0.65796548255E+02  0.68769177182E+02  0.20000349196E+02 0.  0.
        -11    1    3    3    0    0 -0.70550747897E+00 -0.99752557802E+01 -0.32881768964E+02  0.34368796882E+02  0.51100000000E-03 0.  1.
         11    1    3    3    0    0  0.70550747897E+00  0.99752557802E+01 -0.32914779292E+02  0.34400380300E+02  0.51100000000E-03 0. -1.
<mgrwt>
<rscale>  0 0.20000349E+02</rscale>
<asrwt>0</asrwt>
<pdfrwt beam="1">  1        3 0.22866382E-03 0.20000349E+02</pdfrwt>
<pdfrwt beam="2">  1       -3 0.10351207E-01 0.20000349E+02</pdfrwt>
<totfact> 0.15366708E+06</totfact>
</mgrwt>
</event>
<event>
 5    1  0.4133473E-007  0.2000070E+02  0.7818608E-02  0.1745314E+00
          3   -1    0    0  501    0  0.00000000000E+00  0.00000000000E+00  0.34746112577E+02  0.34746237037E+02  0.93000000000E-01 0. -1.
         -3   -1    0    0    0  501 -0.00000000000E+00 -0.00000000000E+00 -0.28773415226E+01  0.28788440801E+01  0.93000000000E-01 0.  1.
       1023    2    1    2    0    0  0.00000000000E+00  0.00000000000E+00  0.31868771055E+02  0.37625081117E+02  0.20000704001E+02 0.  0.
        -11    1    3    3    0    0 -0.14399892265E+01 -0.98960154496E+01  0.16025562456E+02  0.18889768211E+02  0.51100000000E-03 0. -1.
         11    1    3    3    0    0  0.14399892265E+01  0.98960154496E+01  0.15843208598E+02  0.18735312906E+02  0.51100000000E-03 0.  1.
<mgrwt>
<rscale>  0 0.20000704E+02</rscale>
<asrwt>0</asrwt>
<pdfrwt beam="1">  1        3 0.53456809E-02 0.20000704E+02</pdfrwt>
<pdfrwt beam="2">  1       -3 0.44279308E-03 0.20000704E+02</pdfrwt>
<totfact> 0.16837276E+06</totfact>
</mgrwt>
</event>
<event>
 5    1  0.4133473E-007  0.2000048E+02  0.7818608E-02  0.1745319E+00
          3   -1    0    0  501    0  0.00000000000E+00  0.00000000000E+00  0.99139378230E+01  0.99143740175E+01  0.93000000000E-01 0. -1.
         -3   -1    0    0    0  501 -0.00000000000E+00 -0.00000000000E+00 -0.10086421308E+02  0.10086850043E+02  0.93000000000E-01 0.  1.
       1023    2    1    2    0    0  0.00000000000E+00  0.00000000000E+00 -0.17248348456E+00  0.20001224061E+02  0.20000480329E+02 0.  0.
        -11    1    3    3    0    0  0.26218336616E+01 -0.96504266694E+01 -0.93754198710E-01  0.10000676815E+02  0.51100000000E-03 0.  1.
         11    1    3    3    0    0 -0.26218336616E+01  0.96504266694E+01 -0.78729285850E-01  0.10000547246E+02  0.51100000000E-03 0. -1.
<mgrwt>
<rscale>  0 0.20000480E+02</rscale>
<asrwt>0</asrwt>
<pdfrwt beam="1">  1        3 0.15252877E-02 0.20000480E+02</pdfrwt>
<pdfrwt beam="2">  1       -3 0.15518237E-02 0.20000480E+02</pdfrwt>
<totfact> 0.17884631E+06</totfact>
</mgrwt>
</event>
<event>
 5    1  0.4133473E-007  0.2000037E+02  0.7818608E-02  0.1745321E+00
          3   -1    0    0  501    0  0.00000000000E+00  0.00000000000E+00  0.78539233289E+01  0.78544739261E+01  0.93000000000E-01 0.  1.
         -3   -1    0    0    0  501 -0.00000000000E+00 -0.00000000000E+00 -0.12731788752E+02  0.12732128409E+02  0.93000000000E-01 0. -1.
       1023    2    1    2    0    0  0.00000000000E+00  0.00000000000E+00 -0.48778654231E+01  0.20586602335E+02  0.20000365612E+02 0.  0.
        -11    1    3    3    0    0  0.98781455599E+01 -0.15574931548E+01 -0.24497901413E+01  0.10295873767E+02  0.51100000000E-03 0. -1.
         11    1    3    3    0    0 -0.98781455599E+01  0.15574931548E+01 -0.24280752818E+01  0.10290728568E+02  0.51100000000E-03 0.  1.
<mgrwt>
<rscale>  0 0.20000366E+02</rscale>
<asrwt>0</asrwt>
<pdfrwt beam="1">  1        3 0.12083644E-02 0.20000366E+02</pdfrwt>
<pdfrwt beam="2">  1       -3 0.19588052E-02 0.20000366E+02</pdfrwt>
<totfact> 0.17846797E+06</totfact>
</mgrwt>
</event>
<event>
 5    1  0.4133473E-007  0.2000192E+02  0.7818608E-02  0.1745290E+00
         -3   -1    0    0    0  501 -0.00000000000E+00  0.00000000000E+00  0.29907109672E+02  0.29907254270E+02  0.93000000000E-01 0.  1.
          3   -1    0    0  501    0  0.00000000000E+00 -0.00000000000E+00 -0.33435288335E+01  0.33448219774E+01  0.93000000000E-01 0. -1.
       1023    2    1    2    0    0  0.00000000000E+00  0.00000000000E+00  0.26563580839E+02  0.33252076247E+02  0.20001918602E+02 0.  0.
        -11    1    3    3    0    0  0.23627143793E+01  0.97178289460E+01  0.13321411650E+02  0.16657689734E+02  0.51100000000E-03 0.  1.
         11    1    3    3    0    0 -0.23627143793E+01 -0.97178289460E+01  0.13242169189E+02  0.16594386513E+02  0.51100000000E-03 0. -1.
<mgrwt>
<rscale>  0 0.20001919E+02</rscale>
<asrwt>0</asrwt>
<pdfrwt beam="2">  1        3 0.51449963E-03 0.20001919E+02</pdfrwt>
<pdfrwt beam="1">  1       -3 0.46012045E-02 0.20001919E+02</pdfrwt>
<totfact> 0.17078129E+06</totfact>
</mgrwt>
</event>
<event>
 5    1  0.4221865E-007  0.2000183E+02  0.7818608E-02  0.1745292E+00
         -3   -1    0    0    0  501 -0.00000000000E+00  0.00000000000E+00  0.12750473450E+02  0.12750812609E+02  0.93000000000E-01 0.  1.
          3   -1    0    0  501    0  0.00000000000E+00 -0.00000000000E+00 -0.78435657004E+01  0.78441170247E+01  0.93000000000E-01 0. -1.
       1023    2    1    2    0    0  0.00000000000E+00  0.00000000000E+00  0.49069077492E+01  0.20594929634E+02  0.20001834490E+02 0.  0.
        -11    1    3    3    0    0 -0.99904877034E+01 -0.44833623651E+00  0.25425978685E+01  0.10318704091E+02  0.51100000000E-03 0.  1.
         11    1    3    3    0    0  0.99904877034E+01  0.44833623651E+00  0.23643098807E+01  0.10276225543E+02  0.51100000000E-03 0. -1.
<mgrwt>
<rscale>  0 0.20001834E+02</rscale>
<asrwt>0</asrwt>
<pdfrwt beam="2">  1        3 0.12067709E-02 0.20001834E+02</pdfrwt>
<pdfrwt beam="1">  1       -3 0.19616798E-02 0.20001834E+02</pdfrwt>
<totfact> 0.17843433E+06</totfact>
</mgrwt>
</event>
<event>
 5    1  0.4133473E-007  0.2000571E+02  0.7818608E-02  0.1745215E+00
         -3   -1    0    0    0  501 -0.00000000000E+00  0.00000000000E+00  0.10661395676E+01  0.10701881039E+01  0.93000000000E-01 0.  1.
          3   -1    0    0  501    0  0.00000000000E+00 -0.00000000000E+00 -0.93667996063E+02  0.93668042231E+02  0.93000000000E-01 0. -1.
       1023    2    1    2    0    0  0.00000000000E+00  0.00000000000E+00 -0.92601856495E+02  0.94738230335E+02  0.20005710701E+02 0.  0.
        -11    1    3    3    0    0 -0.29721789893E+01  0.95492623179E+01 -0.47185047711E+02  0.48233297488E+02  0.51100000000E-03 0. -1.
         11    1    3    3    0    0  0.29721789893E+01 -0.95492623179E+01 -0.45416808784E+02  0.46504932847E+02  0.51100000000E-03 0.  1.
<mgrwt>
<rscale>  0 0.20005711E+02</rscale>
<asrwt>0</asrwt>
<pdfrwt beam="2">  1        3 0.14410769E-01 0.20005711E+02</pdfrwt>
<pdfrwt beam="1">  1       -3 0.16433652E-03 0.20005711E+02</pdfrwt>
<totfact> 0.14354071E+06</totfact>
</mgrwt>
</event>
<event>
 5    1  0.4133473E-007  0.2000218E+02  0.7818608E-02  0.1745285E+00
          3   -1    0    0  501    0  0.00000000000E+00  0.00000000000E+00  0.13769777423E+01  0.13801147426E+01  0.93000000000E-01 0. -1.
         -3   -1    0    0    0  501 -0.00000000000E+00 -0.00000000000E+00 -0.72552799391E+02  0.72552858996E+02  0.93000000000E-01 0.  1.
       1023    2    1    2    0    0  0.00000000000E+00  0.00000000000E+00 -0.71175821648E+02  0.73932973738E+02  0.20002175342E+02 0.  0.
        -11    1    3    3    0    0  0.74999902273E+01  0.66149241436E+01 -0.35140077159E+02  0.36535354082E+02  0.51100000000E-03 0. -1.
         11    1    3    3    0    0 -0.74999902273E+01 -0.66149241436E+01 -0.36035744489E+02  0.37397619657E+02  0.51100000000E-03 0.  1.
<mgrwt>
<rscale>  0 0.20002175E+02</rscale>
<asrwt>0</asrwt>
<pdfrwt beam="1">  1        3 0.21208868E-03 0.20002175E+02</pdfrwt>
<pdfrwt beam="2">  1       -3 0.11162212E-01 0.20002175E+02</pdfrwt>
<totfact> 0.15151247E+06</totfact>
</mgrwt>
</event>
<event>
 5    1  0.4133473E-007  0.2000589E+02  0.7818608E-02  0.1745211E+00
         -3   -1    0    0    0  501 -0.00000000000E+00  0.00000000000E+00  0.41632692470E+01  0.41643078444E+01  0.93000000000E-01 0. -1.
          3   -1    0    0  501    0  0.00000000000E+00 -0.00000000000E+00 -0.24029614782E+02  0.24029794747E+02  0.93000000000E-01 0.  1.
       1023    2    1    2    0    0  0.00000000000E+00  0.00000000000E+00 -0.19866345535E+02  0.28194102591E+02  0.20005892532E+02 0.  0.
        -11    1    3    3    0    0  0.71095366020E+01 -0.70361350640E+01 -0.10044376425E+02  0.14175408473E+02  0.51100000000E-03 0.  1.
         11    1    3    3    0    0 -0.71095366020E+01  0.70361350640E+01 -0.98219691098E+01  0.14018694119E+02  0.51100000000E-03 0. -1.
<mgrwt>
<rscale>  0 0.20005893E+02</rscale>
<asrwt>0</asrwt>
<pdfrwt beam="2">  1        3 0.36969575E-02 0.20005893E+02</pdfrwt>
<pdfrwt beam="1">  1       -3 0.64059671E-03 0.20005893E+02</pdfrwt>
<totfact> 0.17361854E+06</totfact>
</mgrwt>
</event>
<event>
 5    1  0.4133473E-007  0.2000063E+02  0.7818608E-02  0.1745316E+00
         -3   -1    0    0    0  501 -0.00000000000E+00  0.00000000000E+00  0.86403395223E+00  0.86902455121E+00  0.93000000000E-01 0. -1.
          3   -1    0    0  501    0  0.00000000000E+00 -0.00000000000E+00 -0.11540515856E+03  0.11540519603E+03  0.93000000000E-01 0.  1.
       1023    2    1    2    0    0  0.00000000000E+00  0.00000000000E+00 -0.11454112461E+03  0.11627422058E+03  0.20000628638E+02 0.  0.
        -11    1    3    3    0    0 -0.69214469650E+01 -0.72176896406E+01 -0.57673938011E+02  0.58534473584E+02  0.51100000000E-03 0. -1.
         11    1    3    3    0    0  0.69214469650E+01  0.72176896406E+01 -0.56867186597E+02  0.57739746999E+02  0.51100000000E-03 0.  1.
<mgrwt>
<rscale>  0 0.20000629E+02</rscale>
<asrwt>0</asrwt>
<pdfrwt beam="2">  1        3 0.17755014E-01 0.20000629E+02</pdfrwt>
<pdfrwt beam="1">  1       -3 0.13331517E-03 0.20000629E+02</pdfrwt>
<totfact> 0.13637437E+06</totfact>
</mgrwt>
</event>
<event>
 5    1  0.4133473E-007  0.2000010E+02  0.7818608E-02  0.1745326E+00
         -3   -1    0    0    0  501 -0.00000000000E+00  0.00000000000E+00  0.12133274847E+01  0.12168864307E+01  0.93000000000E-01 0. -1.
          3   -1    0    0  501    0  0.00000000000E+00 -0.00000000000E+00 -0.82294556444E+02  0.82294608993E+02  0.93000000000E-01 0.  1.
       1023    2    1    2    0    0  0.00000000000E+00  0.00000000000E+00 -0.81081228959E+02  0.83511495423E+02  0.20000104459E+02 0.  0.
        -11    1    3    3    0    0  0.99975887518E+01 -0.22112967325E+00 -0.40620404050E+02  0.41833215328E+02  0.51100000000E-03 0. -1.
         11    1    3    3    0    0 -0.99975887518E+01  0.22112967325E+00 -0.40460824908E+02  0.41678280095E+02  0.51100000000E-03 0.  1.
<mgrwt>
<rscale>  0 0.20000104E+02</rscale>
<asrwt>0</asrwt>
<pdfrwt beam="2">  1        3 0.12660974E-01 0.20000104E+02</pdfrwt>
<pdfrwt beam="1">  1       -3 0.18694364E-03 0.20000104E+02</pdfrwt>
<totfact> 0.14776259E+06</totfact>
</mgrwt>
</event>
<event>
 5    1  0.4133473E-007  0.2000043E+02  0.7818608E-02  0.1745319E+00
         -3   -1    0    0    0  501 -0.00000000000E+00  0.00000000000E+00  0.23407789223E+01  0.23426256558E+01  0.93000000000E-01 0.  1.
          3   -1    0    0  501    0  0.00000000000E+00 -0.00000000000E+00 -0.42703926444E+02  0.42704027711E+02  0.93000000000E-01 0. -1.
       1023    2    1    2    0    0  0.00000000000E+00  0.00000000000E+00 -0.40363147521E+02  0.45046653366E+02  0.20000432537E+02 0.  0.
        -11    1    3    3    0    0 -0.31981692992E+01 -0.94750040421E+01 -0.20140246071E+02  0.22486295838E+02  0.51100000000E-03 0. -1.
         11    1    3    3    0    0  0.31981692992E+01  0.94750040421E+01 -0.20222901450E+02  0.22560357528E+02  0.51100000000E-03 0.  1.
<mgrwt>
<rscale>  0 0.20000433E+02</rscale>
<asrwt>0</asrwt>
<pdfrwt beam="2">  1        3 0.65699841E-02 0.20000433E+02</pdfrwt>
<pdfrwt beam="1">  1       -3 0.36026971E-03 0.20000433E+02</pdfrwt>
<totfact> 0.16450811E+06</totfact>
</mgrwt>
</event>
<event>
 5    1  0.4211886E-007  0.2000084E+02  0.7818608E-02  0.1745311E+00
         -3   -1    0    0    0  501 -0.00000000000E+00  0.00000000000E+00  0.37454858294E+01  0.37466402414E+01  0.93000000000E-01 0. -1.
          3   -1    0    0  501    0  0.00000000000E+00 -0.00000000000E+00 -0.26695695901E+02  0.26695857893E+02  0.93000000000E-01 0.  1.
       1023    2    1    2    0    0  0.00000000000E+00  0.00000000000E+00 -0.22950210072E+02  0.30442498134E+02  0.20000838741E+02 0.  0.
        -11    1    3    3    0    0  0.58324909236E+01  0.81234486253E+01 -0.11481805298E+02  0.15226300309E+02  0.51100000000E-03 0. -1.
         11    1    3    3    0    0 -0.58324909236E+01 -0.81234486253E+01 -0.11468404774E+02  0.15216197825E+02  0.51100000000E-03 0.  1.
<mgrwt>
<rscale>  0 0.20000839E+02</rscale>
<asrwt>0</asrwt>
<pdfrwt beam="2">  1        3 0.41071313E-02 0.20000839E+02</pdfrwt>
<pdfrwt beam="1">  1       -3 0.57632987E-03 0.20000839E+02</pdfrwt>
<totfact> 0.17239086E+06</totfact>
</mgrwt>
</event>
<event>
 5    1  0.4133473E-007  0.2000965E+02  0.7818608E-02  0.1745136E+00
          3   -1    0    0  501    0  0.00000000000E+00  0.00000000000E+00  0.45899350300E+02  0.45899444517E+02  0.93000000000E-01 0. -1.
         -3   -1    0    0    0  501 -0.00000000000E+00 -0.00000000000E+00 -0.21796959361E+01  0.21816790263E+01  0.93000000000E-01 0.  1.
       1023    2    1    2    0    0  0.00000000000E+00  0.00000000000E+00  0.43719654364E+02  0.48081123543E+02  0.20009654257E+02 0.  0.
        -11    1    3    3    0    0 -0.19147943876E+01  0.98173358641E+01  0.22397370671E+02  0.24529344350E+02  0.51100000000E-03 0. -1.
         11    1    3    3    0    0  0.19147943876E+01 -0.98173358641E+01  0.21322283693E+02  0.23551779193E+02  0.51100000000E-03 0.  1.
<mgrwt>
<rscale>  0 0.20009654E+02</rscale>
<asrwt>0</asrwt>
<pdfrwt beam="1">  1        3 0.70615987E-02 0.20009654E+02</pdfrwt>
<pdfrwt beam="2">  1       -3 0.33549761E-03 0.20009654E+02</pdfrwt>
<totfact> 0.16283707E+06</totfact>
</mgrwt>
</event>
<event>
 5    1  0.4186051E-007  0.2000083E+02  0.7818608E-02  0.1745311E+00
          3   -1    0    0  501    0  0.00000000000E+00  0.00000000000E+00  0.44934682371E+02  0.44934778611E+02  0.93000000000E-01 0. -1.
         -3   -1    0    0    0  501 -0.00000000000E+00 -0.00000000000E+00 -0.22245680086E+01  0.22265111329E+01  0.93000000000E-01 0.  1.
       1023    2    1    2    0    0  0.00000000000E+00  0.00000000000E+00  0.42710114362E+02  0.47161289744E+02  0.20000834518E+02 0.  0.
        -11    1    3    3    0    0  0.40523850835E+01  0.91422240922E+01  0.21168511233E+02  0.23411705497E+02  0.51100000000E-03 0. -1.
         11    1    3    3    0    0 -0.40523850835E+01 -0.91422240922E+01  0.21541603130E+02  0.23749584246E+02  0.51100000000E-03 0.  1.
<mgrwt>
<rscale>  0 0.20000835E+02</rscale>
<asrwt>0</asrwt>
<pdfrwt beam="1">  1        3 0.69131848E-02 0.20000835E+02</pdfrwt>
<pdfrwt beam="2">  1       -3 0.34239811E-03 0.20000835E+02</pdfrwt>
<totfact> 0.16344470E+06</totfact>
</mgrwt>
</event>
<event>
 5    1  0.4133473E-007  0.2000193E+02  0.7818608E-02  0.1745290E+00
          3   -1    0    0  501    0  0.00000000000E+00  0.00000000000E+00  0.25563533476E+01  0.25580444558E+01  0.93000000000E-01 0.  1.
         -3   -1    0    0    0  501 -0.00000000000E+00 -0.00000000000E+00 -0.39111090075E+02  0.39111200644E+02  0.93000000000E-01 0. -1.
       1023    2    1    2    0    0  0.00000000000E+00  0.00000000000E+00 -0.36554736727E+02  0.41669245100E+02  0.20001930157E+02 0.  0.
        -11    1    3    3    0    0 -0.30142421102E+01  0.95355145969E+01 -0.18095656914E+02  0.20675214474E+02  0.51100000000E-03 0.  1.
         11    1    3    3    0    0  0.30142421102E+01 -0.95355145969E+01 -0.18459079814E+02  0.20994030627E+02  0.51100000000E-03 0. -1.
<mgrwt>
<rscale>  0 0.20001930E+02</rscale>
<asrwt>0</asrwt>
<pdfrwt beam="1">  1        3 0.39342375E-03 0.20001930E+02</pdfrwt>
<pdfrwt beam="2">  1       -3 0.60172289E-02 0.20001930E+02</pdfrwt>
<totfact> 0.16623343E+06</totfact>
</mgrwt>
</event>
<event>
 5    1  0.4133473E-007  0.2000126E+02  0.7818608E-02  0.1745303E+00
          3   -1    0    0  501    0  0.00000000000E+00  0.00000000000E+00  0.28597572658E+02  0.28597723877E+02  0.93000000000E-01 0.  1.
         -3   -1    0    0    0  501 -0.00000000000E+00 -0.00000000000E+00 -0.34964625855E+01  0.34976991883E+01  0.93000000000E-01 0. -1.
       1023    2    1    2    0    0  0.00000000000E+00  0.00000000000E+00  0.25101110073E+02  0.32095423065E+02  0.20001261331E+02 0.  0.
        -11    1    3    3    0    0  0.76120889447E+01  0.64860256570E+01  0.12572470740E+02  0.16064851313E+02  0.51100000000E-03 0.  1.
         11    1    3    3    0    0 -0.76120889447E+01 -0.64860256570E+01  0.12528639333E+02  0.16030571753E+02  0.51100000000E-03 0. -1.
<mgrwt>
<rscale>  0 0.20001261E+02</rscale>
<asrwt>0</asrwt>
<pdfrwt beam="1">  1        3 0.43997332E-02 0.20001261E+02</pdfrwt>
<pdfrwt beam="2">  1       -3 0.53802409E-03 0.20001261E+02</pdfrwt>
<totfact> 0.17143104E+06</totfact>
</mgrwt>
</event>
<event>
 5    1  0.4133473E-007  0.2000185E+02  0.7818608E-02  0.1745291E+00
          3   -1    0    0  501    0  0.00000000000E+00  0.00000000000E+00  0.42824425518E+02  0.42824526500E+02  0.93000000000E-01 0.  1.
         -3   -1    0    0    0  501 -0.00000000000E+00 -0.00000000000E+00 -0.23345175987E+01  0.23363692813E+01  0.93000000000E-01 0. -1.
       1023    2    1    2    0    0  0.00000000000E+00  0.00000000000E+00  0.40489907919E+02  0.45160895781E+02  0.20001846526E+02 0.  0.
        -11    1    3    3    0    0 -0.98913005419E+01  0.14728872051E+01  0.20005551705E+02  0.22365806992E+02  0.51100000000E-03 0.  1.
         11    1    3    3    0    0  0.98913005419E+01 -0.14728872051E+01  0.20484356214E+02  0.22795088789E+02  0.51100000000E-03 0. -1.
<mgrwt>
<rscale>  0 0.20001847E+02</rscale>
<asrwt>0</asrwt>
<pdfrwt beam="1">  1        3 0.65885231E-02 0.20001847E+02</pdfrwt>
<pdfrwt beam="2">  1       -3 0.35930677E-03 0.20001847E+02</pdfrwt>
<totfact> 0.16442554E+06</totfact>
</mgrwt>
</event>
<event>
 5    1  0.4133473E-007  0.2000314E+02  0.7818608E-02  0.1745266E+00
          3   -1    0    0  501    0  0.00000000000E+00  0.00000000000E+00  0.24571420892E+01  0.24589014308E+01  0.93000000000E-01 0. -1.
         -3   -1    0    0    0  501 -0.00000000000E+00 -0.00000000000E+00 -0.40694104235E+02  0.40694210504E+02  0.93000000000E-01 0.  1.
       1023    2    1    2    0    0  0.00000000000E+00  0.00000000000E+00 -0.38236962146E+02  0.43153111935E+02  0.20003144639E+02 0.  0.
        -11    1    3    3    0    0 -0.60934175806E+00 -0.99819047274E+01 -0.19436487648E+02  0.21858334147E+02  0.51100000000E-03 0.  1.
         11    1    3    3    0    0  0.60934175806E+00  0.99819047274E+01 -0.18800474499E+02  0.21294777787E+02  0.51100000000E-03 0. -1.
<mgrwt>
<rscale>  0 0.20003145E+02</rscale>
<asrwt>0</asrwt>
<pdfrwt beam="1">  1        3 0.37816540E-03 0.20003145E+02</pdfrwt>
<pdfrwt beam="2">  1       -3 0.62607744E-02 0.20003145E+02</pdfrwt>
<totfact> 0.16544673E+06</totfact>
</mgrwt>
</event>
<event>
 5    1  0.4133473E-007  0.2000929E+02  0.7818608E-02  0.1745143E+00
         -3   -1    0    0    0  501 -0.00000000000E+00  0.00000000000E+00  0.46756430128E+01  0.46765678209E+01  0.93000000000E-01 0. -1.
          3   -1    0    0  501    0  0.00000000000E+00 -0.00000000000E+00 -0.21404163997E+02  0.21404366037E+02  0.93000000000E-01 0.  1.
       1023    2    1    2    0    0  0.00000000000E+00  0.00000000000E+00 -0.16728520985E+02  0.26080933857E+02  0.20009290256E+02 0.  0.
        -11    1    3    3    0    0 -0.46155106229E-01  0.10004471291E+02 -0.83164086720E+01  0.13009774386E+02  0.51100000000E-03 0. -1.
         11    1    3    3    0    0  0.46155106229E-01 -0.10004471291E+02 -0.84121123126E+01  0.13071159472E+02  0.51100000000E-03 0.  1.
<mgrwt>
<rscale>  0 0.20009290E+02</rscale>
<asrwt>0</asrwt>
<pdfrwt beam="2">  1        3 0.32930349E-02 0.20009290E+02</pdfrwt>
<pdfrwt beam="1">  1       -3 0.71941639E-03 0.20009290E+02</pdfrwt>
<totfact> 0.17482718E+06</totfact>
</mgrwt>
</event>
<event>
 4    1  0.4133473E-007  0.2015482E+02  0.7818608E-02  0.1742267E+00
         -3   -1    0    0    0  501 -0.00000000000E+00  0.00000000000E+00  0.19262212569E+02  0.19262437074E+02  0.93000000000E-01 0.  1.
          3   -1    0    0  501    0  0.00000000000E+00 -0.00000000000E+00 -0.52715318825E+01  0.52723521684E+01  0.93000000000E-01 0. -1.
        -11    1    1    2    0    0  0.50142179610E+01 -0.87158006282E+01  0.78088698690E+01  0.12731300454E+02  0.51100000000E-03 0.  1.
         11    1    1    2    0    0 -0.50142179610E+01  0.87158006282E+01  0.61818108170E+01  0.11803488789E+02  0.51100000000E-03 0. -1.
<mgrwt>
<rscale>  0 0.20154819E+02</rscale>
<asrwt>0</asrwt>
<pdfrwt beam="2">  1        3 0.81108527E-03 0.20154819E+02</pdfrwt>
<pdfrwt beam="1">  1       -3 0.29634977E-02 0.20154819E+02</pdfrwt>
<totfact> 0.17306661E+06</totfact>
</mgrwt>
</event>
<event>
 5    1  0.4133473E-007  0.2000006E+02  0.7818608E-02  0.1745327E+00
         -3   -1    0    0    0  501 -0.00000000000E+00  0.00000000000E+00  0.18449510527E+01  0.18472935302E+01  0.93000000000E-01 0.  1.
          3   -1    0    0  501    0  0.00000000000E+00 -0.00000000000E+00 -0.54165518440E+02  0.54165598279E+02  0.93000000000E-01 0. -1.
       1023    2    1    2    0    0  0.00000000000E+00  0.00000000000E+00 -0.52320567388E+02  0.56012891809E+02  0.20000056926E+02 0.  0.
        -11    1    3    3    0    0  0.63179892073E+01 -0.77513544671E+01 -0.26134417037E+02  0.27982284357E+02  0.51100000000E-03 0. -1.
         11    1    3    3    0    0 -0.63179892073E+01  0.77513544671E+01 -0.26186150351E+02  0.28030607452E+02  0.51100000000E-03 0.  1.
<mgrwt>
<rscale>  0 0.20000057E+02</rscale>
<asrwt>0</asrwt>
<pdfrwt beam="2">  1        3 0.83333418E-02 0.20000057E+02</pdfrwt>
<pdfrwt beam="1">  1       -3 0.28402500E-03 0.20000057E+02</pdfrwt>
<totfact> 0.15923955E+06</totfact>
</mgrwt>
</event>
<event>
 5    1  0.4330500E-007  0.2000075E+02  0.7818608E-02  0.1745313E+00
          3   -1    0    0  501    0  0.00000000000E+00  0.00000000000E+00  0.10151774563E+02  0.10152200538E+02  0.93000000000E-01 0. -1.
         -3   -1    0    0    0  501 -0.00000000000E+00 -0.00000000000E+00 -0.98503772567E+01  0.98508162656E+01  0.93000000000E-01 0.  1.
       1023    2    1    2    0    0  0.00000000000E+00  0.00000000000E+00  0.30139730608E+00  0.20003016804E+02  0.20000746009E+02 0.  0.
        -11    1    3    3    0    0  0.38305166036E+01  0.92374144232E+01  0.21982447326E+00  0.10002549962E+02  0.51100000000E-03 0.  1.
         11    1    3    3    0    0 -0.38305166036E+01 -0.92374144232E+01  0.81572832822E-01  0.10000466842E+02  0.51100000000E-03 0. -1.
<mgrwt>
<rscale>  0 0.20000746E+02</rscale>
<asrwt>0</asrwt>
<pdfrwt beam="1">  1        3 0.15618780E-02 0.20000746E+02</pdfrwt>
<pdfrwt beam="2">  1       -3 0.15155092E-02 0.20000746E+02</pdfrwt>
<totfact> 0.17883981E+06</totfact>
</mgrwt>
</event>
<event>
 5    1  0.4133473E-007  0.2000008E+02  0.7818608E-02  0.1745327E+00
         -3   -1    0    0    0  501 -0.00000000000E+00  0.00000000000E+00  0.14897253785E+01  0.14926254397E+01  0.93000000000E-01 0.  1.
          3   -1    0    0  501    0  0.00000000000E+00 -0.00000000000E+00 -0.67058771017E+02  0.67058835505E+02  0.93000000000E-01 0. -1.
       1023    2    1    2    0    0  0.00000000000E+00  0.00000000000E+00 -0.65569045639E+02  0.68551460945E+02  0.20000076293E+02 0.  0.
        -11    1    3    3    0    0 -0.94302775325E+01 -0.33272378806E+01 -0.32747540461E+02  0.34240357077E+02  0.51100000000E-03 0. -1.
         11    1    3    3    0    0  0.94302775325E+01  0.33272378806E+01 -0.32821505178E+02  0.34311103868E+02  0.51100000000E-03 0.  1.
<mgrwt>
<rscale>  0 0.20000076E+02</rscale>
<asrwt>0</asrwt>
<pdfrwt beam="2">  1        3 0.10316960E-01 0.20000076E+02</pdfrwt>
<pdfrwt beam="1">  1       -3 0.22941661E-03 0.20000076E+02</pdfrwt>
<totfact> 0.15373420E+06</totfact>
</mgrwt>
</event>
<event>
 5    1  0.4133473E-007  0.2000272E+02  0.7818608E-02  0.1745274E+00
         -3   -1    0    0    0  501 -0.00000000000E+00  0.00000000000E+00  0.72403492565E+02  0.72403552292E+02  0.93000000000E-01 0.  1.
          3   -1    0    0  501    0  0.00000000000E+00 -0.00000000000E+00 -0.13798995388E+01  0.13830299119E+01  0.93000000000E-01 0. -1.
       1023    2    1    2    0    0  0.00000000000E+00  0.00000000000E+00  0.71023593026E+02  0.73786582204E+02  0.20002723492E+02 0.  0.
        -11    1    3    3    0    0 -0.38401380274E+00 -0.99939757930E+01  0.35457362013E+02  0.36840894939E+02  0.51100000000E-03 0. -1.
         11    1    3    3    0    0  0.38401380274E+00  0.99939757930E+01  0.35566231013E+02  0.36945687265E+02  0.51100000000E-03 0.  1.
<mgrwt>
<rscale>  0 0.20002723E+02</rscale>
<asrwt>0</asrwt>
<pdfrwt beam="2">  1        3 0.21253768E-03 0.20002723E+02</pdfrwt>
<pdfrwt beam="1">  1       -3 0.11139241E-01 0.20002723E+02</pdfrwt>
<totfact> 0.15156275E+06</totfact>
</mgrwt>
</event>
<event>
 5    1  0.4208392E-007  0.2000211E+02  0.7818608E-02  0.1745286E+00
          3   -1    0    0  501    0  0.00000000000E+00  0.00000000000E+00  0.12978328105E+02  0.12978661310E+02  0.93000000000E-01 0.  1.
         -3   -1    0    0    0  501 -0.00000000000E+00 -0.00000000000E+00 -0.77060691503E+01  0.77066303109E+01  0.93000000000E-01 0. -1.
       1023    2    1    2    0    0  0.00000000000E+00  0.00000000000E+00  0.52722589549E+01  0.20685291621E+02  0.20002114262E+02 0.  0.
        -11    1    3    3    0    0 -0.94616251774E+01 -0.32388804951E+01  0.25410905457E+01  0.10318422325E+02  0.51100000000E-03 0. -1.
         11    1    3    3    0    0  0.94616251774E+01  0.32388804951E+01  0.27311684092E+01  0.10366869296E+02  0.51100000000E-03 0.  1.
<mgrwt>
<rscale>  0 0.20002114E+02</rscale>
<asrwt>0</asrwt>
<pdfrwt beam="1">  1        3 0.19967346E-02 0.20002114E+02</pdfrwt>
<pdfrwt beam="2">  1       -3 0.11856179E-02 0.20002114E+02</pdfrwt>
<totfact> 0.17836579E+06</totfact>
</mgrwt>
</event>
<event>
 5    1  0.4180113E-007  0.2000071E+02  0.7818608E-02  0.1745314E+00
         -3   -1    0    0    0  501 -0.00000000000E+00  0.00000000000E+00  0.91349657454E+01  0.91354391339E+01  0.93000000000E-01 0.  1.
          3   -1    0    0  501    0  0.00000000000E+00 -0.00000000000E+00 -0.10946766835E+02  0.10947161876E+02  0.93000000000E-01 0. -1.
       1023    2    1    2    0    0  0.00000000000E+00  0.00000000000E+00 -0.18118010899E+01  0.20082601010E+02  0.20000705991E+02 0.  0.
        -11    1    3    3    0    0  0.61299188917E+01 -0.79010280231E+01 -0.83553983434E+00  0.10034952741E+02  0.51100000000E-03 0. -1.
         11    1    3    3    0    0 -0.61299188917E+01  0.79010280231E+01 -0.97626125555E+00  0.10047648269E+02  0.51100000000E-03 0.  1.
<mgrwt>
<rscale>  0 0.20000706E+02</rscale>
<asrwt>0</asrwt>
<pdfrwt beam="2">  1        3 0.16841848E-02 0.20000706E+02</pdfrwt>
<pdfrwt beam="1">  1       -3 0.14054461E-02 0.20000706E+02</pdfrwt>
<totfact> 0.17878818E+06</totfact>
</mgrwt>
</event>
<event>
 5    1  0.4254951E-007  0.2000151E+02  0.7818608E-02  0.1745298E+00
          3   -1    0    0  501    0  0.00000000000E+00  0.00000000000E+00  0.18721421452E+02  0.18721652443E+02  0.93000000000E-01 0. -1.
         -3   -1    0    0    0  501 -0.00000000000E+00 -0.00000000000E+00 -0.53416131376E+01  0.53424226631E+01  0.93000000000E-01 0.  1.
       1023    2    1    2    0    0  0.00000000000E+00  0.00000000000E+00  0.13379808314E+02  0.24064075106E+02  0.20001510947E+02 0.  0.
        -11    1    3    3    0    0  0.99655629605E+01 -0.83027959884E+00  0.65511520727E+01  0.11954890341E+02  0.51100000000E-03 0.  1.
         11    1    3    3    0    0 -0.99655629605E+01  0.83027959884E+00  0.68286562416E+01  0.12109184764E+02  0.51100000000E-03 0. -1.
<mgrwt>
<rscale>  0 0.20001511E+02</rscale>
<asrwt>0</asrwt>
<pdfrwt beam="1">  1        3 0.28802987E-02 0.20001511E+02</pdfrwt>
<pdfrwt beam="2">  1       -3 0.82186667E-03 0.20001511E+02</pdfrwt>
<totfact> 0.17621962E+06</totfact>
</mgrwt>
</event>
<event>
 5    1  0.4133473E-007  0.2000568E+02  0.7818608E-02  0.1745215E+00
         -3   -1    0    0    0  501 -0.00000000000E+00  0.00000000000E+00  0.30507535445E+02  0.30507677196E+02  0.93000000000E-01 0.  1.
          3   -1    0    0  501    0  0.00000000000E+00 -0.00000000000E+00 -0.32789333937E+01  0.32802520026E+01  0.93000000000E-01 0. -1.
       1023    2    1    2    0    0  0.00000000000E+00  0.00000000000E+00  0.27228602051E+02  0.33787929199E+02  0.20005683940E+02 0.  0.
        -11    1    3    3    0    0  0.98307562165E+01 -0.18413970932E+01  0.13361887554E+02  0.16690552726E+02  0.51100000000E-03 0. -1.
         11    1    3    3    0    0 -0.98307562165E+01  0.18413970932E+01  0.13866714497E+02  0.17097376473E+02  0.51100000000E-03 0.  1.
<mgrwt>
<rscale>  0 0.20005684E+02</rscale>
<asrwt>0</asrwt>
<pdfrwt beam="2">  1        3 0.50456364E-03 0.20005684E+02</pdfrwt>
<pdfrwt beam="1">  1       -3 0.46935792E-02 0.20005684E+02</pdfrwt>
<totfact> 0.17041120E+06</totfact>
</mgrwt>
</event>
<event>
 5    1  0.4301993E-007  0.2000099E+02  0.7818608E-02  0.1745308E+00
          3   -1    0    0  501    0  0.00000000000E+00  0.00000000000E+00  0.26611377654E+02  0.26611540160E+02  0.93000000000E-01 0. -1.
         -3   -1    0    0    0  501 -0.00000000000E+00 -0.00000000000E+00 -0.37574156630E+01  0.37585664108E+01  0.93000000000E-01 0.  1.
       1023    2    1    2    0    0  0.00000000000E+00  0.00000000000E+00  0.22853961991E+02  0.30370106570E+02  0.20000994835E+02 0.  0.
        -11    1    3    3    0    0  0.98323976250E+01 -0.18258969888E+01  0.11430531788E+02  0.15187725310E+02  0.51100000000E-03 0.  1.
         11    1    3    3    0    0 -0.98323976250E+01  0.18258969888E+01  0.11423430204E+02  0.15182381261E+02  0.51100000000E-03 0. -1.
<mgrwt>
<rscale>  0 0.20000995E+02</rscale>
<asrwt>0</asrwt>
<pdfrwt beam="1">  1        3 0.40941592E-02 0.20000995E+02</pdfrwt>
<pdfrwt beam="2">  1       -3 0.57816496E-03 0.20000995E+02</pdfrwt>
<totfact> 0.17243000E+06</totfact>
</mgrwt>
</event>
<event>
 4    1  0.4133473E-007  0.2002128E+02  0.7818608E-02  0.1744905E+00
         -3   -1    0    0    0  501 -0.00000000000E+00  0.00000000000E+00  0.21599871689E+01  0.21619883371E+01  0.93000000000E-01 0. -1.
          3   -1    0    0  501    0  0.00000000000E+00 -0.00000000000E+00 -0.46371618510E+02  0.46371711767E+02  0.93000000000E-01 0.  1.
        -11    1    1    2    0    0 -0.87055800257E+01 -0.49344713255E+01 -0.22777576797E+02  0.24878788875E+02  0.51100000000E-03 0. -1.
         11    1    1    2    0    0  0.87055800257E+01  0.49344713255E+01 -0.21434054543E+02  0.23654911229E+02  0.51100000000E-03 0.  1.
<mgrwt>
<rscale>  0 0.20021281E+02</rscale>
<asrwt>0</asrwt>
<pdfrwt beam="2">  1        3 0.71342556E-02 0.20021281E+02</pdfrwt>
<pdfrwt beam="1">  1       -3 0.33246686E-03 0.20021281E+02</pdfrwt>
<totfact> 0.16241274E+06</totfact>
</mgrwt>
</event>
<event>
 5    1  0.4133473E-007  0.2000042E+02  0.7818608E-02  0.1745320E+00
         -3   -1    0    0    0  501 -0.00000000000E+00  0.00000000000E+00  0.19809419221E+02  0.19809637525E+02  0.93000000000E-01 0. -1.
          3   -1    0    0  501    0  0.00000000000E+00 -0.00000000000E+00 -0.50476389756E+01  0.50484956401E+01  0.93000000000E-01 0.  1.
       1023    2    1    2    0    0  0.00000000000E+00  0.00000000000E+00  0.14761780245E+02  0.24858133165E+02  0.20000415707E+02 0.  0.
        -11    1    3    3    0    0  0.78023175745E+01  0.62552153177E+01  0.74016371242E+01  0.12441387004E+02  0.51100000000E-03 0. -1.
         11    1    3    3    0    0 -0.78023175745E+01 -0.62552153177E+01  0.73601431212E+01  0.12416746161E+02  0.51100000000E-03 0.  1.
<mgrwt>
<rscale>  0 0.20000416E+02</rscale>
<asrwt>0</asrwt>
<pdfrwt beam="2">  1        3 0.77664253E-03 0.20000416E+02</pdfrwt>
<pdfrwt beam="1">  1       -3 0.30476857E-02 0.20000416E+02</pdfrwt>
<totfact> 0.17575815E+06</totfact>
</mgrwt>
</event>
<event>
 4    1  0.4133473E-007  0.2006560E+02  0.7818608E-02  0.1744027E+00
         -3   -1    0    0    0  501 -0.00000000000E+00  0.00000000000E+00  0.99034581927E+01  0.99038948487E+01  0.93000000000E-01 0. -1.
          3   -1    0    0  501    0  0.00000000000E+00 -0.00000000000E+00 -0.10162954056E+02  0.10163379563E+02  0.93000000000E-01 0.  1.
        -11    1    1    2    0    0  0.62848574877E+01  0.77858236733E+01 -0.86367364146E+00  0.10043127816E+02  0.51100000000E-03 0.  1.
         11    1    1    2    0    0 -0.62848574877E+01 -0.77858236733E+01  0.60417777862E+00  0.10024146595E+02  0.51100000000E-03 0. -1.
<mgrwt>
<rscale>  0 0.20065597E+02</rscale>
<asrwt>0</asrwt>
<pdfrwt beam="2">  1        3 0.15635977E-02 0.20065597E+02</pdfrwt>
<pdfrwt beam="1">  1       -3 0.15236753E-02 0.20065597E+02</pdfrwt>
<totfact> 0.17755428E+06</totfact>
</mgrwt>
</event>
<event>
 5    1  0.4133473E-007  0.2000049E+02  0.7818608E-02  0.1745318E+00
         -3   -1    0    0    0  501 -0.00000000000E+00  0.00000000000E+00  0.48386444760E+02  0.48386534134E+02  0.93000000000E-01 0. -1.
          3   -1    0    0  501    0  0.00000000000E+00 -0.00000000000E+00 -0.20656573026E+01  0.20677497652E+01  0.93000000000E-01 0.  1.
       1023    2    1    2    0    0  0.00000000000E+00  0.00000000000E+00  0.46320787457E+02  0.50454283899E+02  0.20000485322E+02 0.  0.
        -11    1    3    3    0    0 -0.69637125231E+01 -0.71771116161E+01  0.23223699917E+02  0.25285261742E+02  0.51100000000E-03 0.  1.
         11    1    3    3    0    0  0.69637125231E+01  0.71771116161E+01  0.23097087540E+02  0.25169022157E+02  0.51100000000E-03 0. -1.
<mgrwt>
<rscale>  0 0.20000485E+02</rscale>
<asrwt>0</asrwt>
<pdfrwt beam="2">  1        3 0.31796130E-03 0.20000485E+02</pdfrwt>
<pdfrwt beam="1">  1       -3 0.74442354E-02 0.20000485E+02</pdfrwt>
<totfact> 0.16187036E+06</totfact>
</mgrwt>
</event>
<event>
 5    1  0.4207646E-007  0.2000296E+02  0.7818608E-02  0.1745269E+00
          3   -1    0    0  501    0  0.00000000000E+00  0.00000000000E+00  0.13997819232E+02  0.13998128169E+02  0.93000000000E-01 0.  1.
         -3   -1    0    0    0  501 -0.00000000000E+00 -0.00000000000E+00 -0.71453935109E+01  0.71459987003E+01  0.93000000000E-01 0. -1.
       1023    2    1    2    0    0  0.00000000000E+00  0.00000000000E+00  0.68524257210E+01  0.21144126870E+02  0.20002958852E+02 0.  0.
        -11    1    3    3    0    0  0.99500316296E+01 -0.10130992758E+01  0.34161362742E+01  0.10568797797E+02  0.51100000000E-03 0.  1.
         11    1    3    3    0    0 -0.99500316296E+01  0.10130992758E+01  0.34362894469E+01  0.10575329073E+02  0.51100000000E-03 0. -1.
<mgrwt>
<rscale>  0 0.20002959E+02</rscale>
<asrwt>0</asrwt>
<pdfrwt beam="1">  1        3 0.21535810E-02 0.20002959E+02</pdfrwt>
<pdfrwt beam="2">  1       -3 0.10993616E-02 0.20002959E+02</pdfrwt>
<totfact> 0.17805011E+06</totfact>
</mgrwt>
</event>
<event>
 5    1  0.4133473E-007  0.2000057E+02  0.7818608E-02  0.1745317E+00
          3   -1    0    0  501    0  0.00000000000E+00  0.00000000000E+00  0.11645779600E+01  0.11682854210E+01  0.93000000000E-01 0. -1.
         -3   -1    0    0    0  501 -0.00000000000E+00 -0.00000000000E+00 -0.85732701286E+02  0.85732751728E+02  0.93000000000E-01 0.  1.
       1023    2    1    2    0    0  0.00000000000E+00  0.00000000000E+00 -0.84568123326E+02  0.86901037149E+02  0.20000569358E+02 0.  0.
        -11    1    3    3    0    0 -0.75703135256E+01 -0.65341555777E+01 -0.42411287957E+02  0.43574329398E+02  0.51100000000E-03 0. -1.
         11    1    3    3    0    0  0.75703135256E+01  0.65341555777E+01 -0.42156835369E+02  0.43326707752E+02  0.51100000000E-03 0.  1.
<mgrwt>
<rscale>  0 0.20000569E+02</rscale>
<asrwt>0</asrwt>
<pdfrwt beam="1">  1        3 0.17945498E-03 0.20000569E+02</pdfrwt>
<pdfrwt beam="2">  1       -3 0.13189930E-01 0.20000569E+02</pdfrwt>
<totfact> 0.14650746E+06</totfact>
</mgrwt>
</event>
<event>
 5    1  0.4478307E-007  0.2000103E+02  0.7818608E-02  0.1745308E+00
          3   -1    0    0  501    0  0.00000000000E+00  0.00000000000E+00  0.11155139705E+02  0.11155527367E+02  0.93000000000E-01 0.  1.
         -3   -1    0    0    0  501 -0.00000000000E+00 -0.00000000000E+00 -0.89646169186E+01  0.89650993021E+01  0.93000000000E-01 0. -1.
       1023    2    1    2    0    0  0.00000000000E+00  0.00000000000E+00  0.21905227865E+01  0.20120626669E+02  0.20001030661E+02 0.  0.
        -11    1    3    3    0    0  0.99824277367E+01 -0.59700676765E+00  0.11665796785E+01  0.10068077721E+02  0.51100000000E-03 0. -1.
         11    1    3    3    0    0 -0.99824277367E+01  0.59700676765E+00  0.10239431079E+01  0.10052548948E+02  0.51100000000E-03 0.  1.
<mgrwt>
<rscale>  0 0.20001031E+02</rscale>
<asrwt>0</asrwt>
<pdfrwt beam="1">  1        3 0.17162423E-02 0.20001031E+02</pdfrwt>
<pdfrwt beam="2">  1       -3 0.13792388E-02 0.20001031E+02</pdfrwt>
<totfact> 0.17875695E+06</totfact>
</mgrwt>
</event>
<event>
 5    1  0.4133473E-007  0.2000038E+02  0.7818608E-02  0.1745321E+00
          3   -1    0    0  501    0  0.00000000000E+00  0.00000000000E+00  0.33873021603E+02  0.33873149271E+02  0.93000000000E-01 0. -1.
         -3   -1    0    0    0  501 -0.00000000000E+00 -0.00000000000E+00 -0.29514483541E+01  0.29529132034E+01  0.93000000000E-01 0.  1.
       1023    2    1    2    0    0  0.00000000000E+00  0.00000000000E+00  0.30921573249E+02  0.36826062474E+02  0.20000379625E+02 0.  0.
        -11    1    3    3    0    0 -0.89033513464E+01  0.45533212775E+01  0.15391986823E+02  0.18355262419E+02  0.51100000000E-03 0.  1.
         11    1    3    3    0    0  0.89033513464E+01 -0.45533212775E+01  0.15529586427E+02  0.18470800056E+02  0.51100000000E-03 0. -1.
<mgrwt>
<rscale>  0 0.20000380E+02</rscale>
<asrwt>0</asrwt>
<pdfrwt beam="1">  1        3 0.52113568E-02 0.20000380E+02</pdfrwt>
<pdfrwt beam="2">  1       -3 0.45419146E-03 0.20000380E+02</pdfrwt>
<totfact> 0.16881177E+06</totfact>
</mgrwt>
</event>
<event>
 5    1  0.4133473E-007  0.2000052E+02  0.7818608E-02  0.1745318E+00
          3   -1    0    0  501    0  0.00000000000E+00  0.00000000000E+00  0.12726425018E+01  0.12760360251E+01  0.93000000000E-01 0.  1.
         -3   -1    0    0    0  501 -0.00000000000E+00 -0.00000000000E+00 -0.78472716609E+02  0.78472771717E+02  0.93000000000E-01 0. -1.
       1023    2    1    2    0    0  0.00000000000E+00  0.00000000000E+00 -0.77200074107E+02  0.79748807742E+02  0.20000522348E+02 0.  0.
        -11    1    3    3    0    0  0.67739695320E+01 -0.73563771941E+01 -0.38409868175E+02  0.39690312699E+02  0.51100000000E-03 0. -1.
         11    1    3    3    0    0 -0.67739695320E+01  0.73563771941E+01 -0.38790205932E+02  0.40058495043E+02  0.51100000000E-03 0.  1.
<mgrwt>
<rscale>  0 0.20000522E+02</rscale>
<asrwt>0</asrwt>
<pdfrwt beam="1">  1        3 0.19605649E-03 0.20000522E+02</pdfrwt>
<pdfrwt beam="2">  1       -3 0.12072987E-01 0.20000522E+02</pdfrwt>
<totfact> 0.14923262E+06</totfact>
</mgrwt>
</event>
<event>
 5    1  0.4133473E-007  0.2000320E+02  0.7818608E-02  0.1745265E+00
         -3   -1    0    0    0  501 -0.00000000000E+00  0.00000000000E+00  0.50551567181E+02  0.50551652727E+02  0.93000000000E-01 0. -1.
          3   -1    0    0  501    0  0.00000000000E+00 -0.00000000000E+00 -0.19776303784E+01  0.19798158787E+01  0.93000000000E-01 0.  1.
       1023    2    1    2    0    0  0.00000000000E+00  0.00000000000E+00  0.48573936803E+02  0.52531468606E+02  0.20003196180E+02 0.  0.
        -11    1    3    3    0    0  0.99962050972E+01  0.31533140130E+00  0.24046079077E+02  0.26042992713E+02  0.51100000000E-03 0.  1.
         11    1    3    3    0    0 -0.99962050972E+01 -0.31533140130E+00  0.24527857726E+02  0.26488475893E+02  0.51100000000E-03 0. -1.
<mgrwt>
<rscale>  0 0.20003196E+02</rscale>
<asrwt>0</asrwt>
<pdfrwt beam="2">  1        3 0.30442558E-03 0.20003196E+02</pdfrwt>
<pdfrwt beam="1">  1       -3 0.77773375E-02 0.20003196E+02</pdfrwt>
<totfact> 0.16083380E+06</totfact>
</mgrwt>
</event>
<event>
 5    1  0.4133473E-007  0.2000017E+02  0.7818608E-02  0.1745325E+00
         -3   -1    0    0    0  501 -0.00000000000E+00  0.00000000000E+00  0.19008007533E+02  0.19008235041E+02  0.93000000000E-01 0.  1.
          3   -1    0    0  501    0  0.00000000000E+00 -0.00000000000E+00 -0.52603593798E+01  0.52611814077E+01  0.93000000000E-01 0. -1.
       1023    2    1    2    0    0  0.00000000000E+00  0.00000000000E+00  0.13747648154E+02  0.24269416449E+02  0.20000168625E+02 0.  0.
        -11    1    3    3    0    0  0.95585316667E+01 -0.29384704782E+01  0.68260559343E+01  0.12107649493E+02  0.51100000000E-03 0. -1.
         11    1    3    3    0    0 -0.95585316667E+01  0.29384704782E+01  0.69215922193E+01  0.12161766956E+02  0.51100000000E-03 0.  1.
<mgrwt>
<rscale>  0 0.20000169E+02</rscale>
<asrwt>0</asrwt>
<pdfrwt beam="2">  1        3 0.80936679E-03 0.20000169E+02</pdfrwt>
<pdfrwt beam="1">  1       -3 0.29243896E-02 0.20000169E+02</pdfrwt>
<totfact> 0.17612837E+06</totfact>
</mgrwt>
</event>
<event>
 5    1  0.4133473E-007  0.2000879E+02  0.7818608E-02  0.1745153E+00
         -3   -1    0    0    0  501 -0.00000000000E+00  0.00000000000E+00  0.17259698415E+01  0.17284735734E+01  0.93000000000E-01 0. -1.
          3   -1    0    0  501    0  0.00000000000E+00 -0.00000000000E+00 -0.57944787557E+02  0.57944862188E+02  0.93000000000E-01 0.  1.
       1023    2    1    2    0    0  0.00000000000E+00  0.00000000000E+00 -0.56218817715E+02  0.59673335761E+02  0.20008786460E+02 0.  0.
        -11    1    3    3    0    0  0.60287344713E+01 -0.79794373649E+01 -0.28903094873E+02  0.30584407031E+02  0.51100000000E-03 0.  1.
         11    1    3    3    0    0 -0.60287344713E+01  0.79794373649E+01 -0.27315722843E+02  0.29088928730E+02  0.51100000000E-03 0. -1.
<mgrwt>
<rscale>  0 0.20008786E+02</rscale>
<asrwt>0</asrwt>
<pdfrwt beam="2">  1        3 0.89147796E-02 0.20008786E+02</pdfrwt>
<pdfrwt beam="1">  1       -3 0.26573220E-03 0.20008786E+02</pdfrwt>
<totfact> 0.15743381E+06</totfact>
</mgrwt>
</event>
<event>
 5    1  0.4133473E-007  0.2000211E+02  0.7818608E-02  0.1745286E+00
          3   -1    0    0  501    0  0.00000000000E+00  0.00000000000E+00  0.10829517491E+03  0.10829521484E+03  0.93000000000E-01 0.  1.
         -3   -1    0    0    0  501 -0.00000000000E+00 -0.00000000000E+00 -0.92121528328E+00  0.92589772554E+00  0.93000000000E-01 0. -1.
       1023    2    1    2    0    0  0.00000000000E+00  0.00000000000E+00  0.10737395962E+03  0.10922111257E+03  0.20002105506E+02 0.  0.
        -11    1    3    3    0    0 -0.99956693652E+01 -0.31147365933E+00  0.54250071839E+02  0.55164125269E+02  0.51100000000E-03 0.  1.
         11    1    3    3    0    0  0.99956693652E+01  0.31147365933E+00  0.53123887785E+02  0.54056987296E+02  0.51100000000E-03 0. -1.
<mgrwt>
<rscale>  0 0.20002106E+02</rscale>
<asrwt>0</asrwt>
<pdfrwt beam="1">  1        3 0.16661154E-01 0.20002106E+02</pdfrwt>
<pdfrwt beam="2">  1       -3 0.14208874E-03 0.20002106E+02</pdfrwt>
<totfact> 0.13863476E+06</totfact>
</mgrwt>
</event>
<event>
 5    1  0.4133473E-007  0.2000067E+02  0.7818608E-02  0.1745315E+00
          3   -1    0    0  501    0  0.00000000000E+00  0.00000000000E+00  0.76627707778E+02  0.76627764213E+02  0.93000000000E-01 0. -1.
         -3   -1    0    0    0  501 -0.00000000000E+00 -0.00000000000E+00 -0.13033849061E+01  0.13066985932E+01  0.93000000000E-01 0.  1.
       1023    2    1    2    0    0  0.00000000000E+00  0.00000000000E+00  0.75324322872E+02  0.77934462807E+02  0.20000671909E+02 0.  0.
        -11    1    3    3    0    0 -0.83887110535E+01  0.54438736795E+01  0.37576333332E+02  0.38884277809E+02  0.51100000000E-03 0.  1.
         11    1    3    3    0    0  0.83887110535E+01 -0.54438736795E+01  0.37747989540E+02  0.39050184998E+02  0.51100000000E-03 0. -1.
<mgrwt>
<rscale>  0 0.20000672E+02</rscale>
<asrwt>0</asrwt>
<pdfrwt beam="1">  1        3 0.11789134E-01 0.20000672E+02</pdfrwt>
<pdfrwt beam="2">  1       -3 0.20078005E-03 0.20000672E+02</pdfrwt>
<totfact> 0.14991143E+06</totfact>
</mgrwt>
</event>
<event>
 5    1  0.4133473E-007  0.2000048E+02  0.7818608E-02  0.1745318E+00
         -3   -1    0    0    0  501 -0.00000000000E+00  0.00000000000E+00  0.48941714707E+01  0.48950549931E+01  0.93000000000E-01 0. -1.
          3   -1    0    0  501    0  0.00000000000E+00 -0.00000000000E+00 -0.20430622418E+02  0.20430834084E+02  0.93000000000E-01 0.  1.
       1023    2    1    2    0    0  0.00000000000E+00  0.00000000000E+00 -0.15536450947E+02  0.25325889077E+02  0.20000483732E+02 0.  0.
        -11    1    3    3    0    0 -0.98702241274E+01 -0.16072728530E+01 -0.77509201938E+01  0.12652328421E+02  0.51100000000E-03 0. -1.
         11    1    3    3    0    0  0.98702241274E+01  0.16072728530E+01 -0.77855307533E+01  0.12673560657E+02  0.51100000000E-03 0.  1.
<mgrwt>
<rscale>  0 0.20000484E+02</rscale>
<asrwt>0</asrwt>
<pdfrwt beam="2">  1        3 0.31432569E-02 0.20000484E+02</pdfrwt>
<pdfrwt beam="1">  1       -3 0.75303371E-03 0.20000484E+02</pdfrwt>
<totfact> 0.17545580E+06</totfact>
</mgrwt>
</event>
<event>
 5    1  0.4133473E-007  0.2000014E+02  0.7818608E-02  0.1745325E+00
         -3   -1    0    0    0  501 -0.00000000000E+00  0.00000000000E+00  0.18426111742E+01  0.18449566226E+01  0.93000000000E-01 0.  1.
          3   -1    0    0  501    0  0.00000000000E+00 -0.00000000000E+00 -0.54234641806E+02  0.54234721543E+02  0.93000000000E-01 0. -1.
       1023    2    1    2    0    0  0.00000000000E+00  0.00000000000E+00 -0.52392030632E+02  0.56079678165E+02  0.20000135735E+02 0.  0.
        -11    1    3    3    0    0 -0.91088092153E+01 -0.41266978090E+01 -0.26094259333E+02  0.27944774297E+02  0.51100000000E-03 0. -1.
         11    1    3    3    0    0  0.91088092153E+01  0.41266978090E+01 -0.26297771299E+02  0.28134903868E+02  0.51100000000E-03 0.  1.
<mgrwt>
<rscale>  0 0.20000136E+02</rscale>
<asrwt>0</asrwt>
<pdfrwt beam="2">  1        3 0.83439764E-02 0.20000136E+02</pdfrwt>
<pdfrwt beam="1">  1       -3 0.28366524E-03 0.20000136E+02</pdfrwt>
<totfact> 0.15920753E+06</totfact>
</mgrwt>
</event>
<event>
 5    1  0.4133473E-007  0.2000033E+02  0.7818608E-02  0.1745321E+00
          3   -1    0    0  501    0  0.00000000000E+00  0.00000000000E+00  0.18171885187E+01  0.18195667376E+01  0.93000000000E-01 0. -1.
         -3   -1    0    0    0  501 -0.00000000000E+00 -0.00000000000E+00 -0.54993500914E+02  0.54993579551E+02  0.93000000000E-01 0.  1.
       1023    2    1    2    0    0  0.00000000000E+00  0.00000000000E+00 -0.53176312396E+02  0.56813146288E+02  0.20000334777E+02 0.  0.
        -11    1    3    3    0    0  0.99821130423E+01  0.60038152202E+00 -0.26538241123E+02  0.28359853330E+02  0.51100000000E-03 0.  1.
         11    1    3    3    0    0 -0.99821130423E+01 -0.60038152202E+00 -0.26638071273E+02  0.28453292958E+02  0.51100000000E-03 0. -1.
<mgrwt>
<rscale>  0 0.20000335E+02</rscale>
<asrwt>0</asrwt>
<pdfrwt beam="1">  1        3 0.27975649E-03 0.20000335E+02</pdfrwt>
<pdfrwt beam="2">  1       -3 0.84607263E-02 0.20000335E+02</pdfrwt>
<totfact> 0.15889543E+06</totfact>
</mgrwt>
</event>
<event>
 5    1  0.4133473E-007  0.2000067E+02  0.7818608E-02  0.1745315E+00
         -3   -1    0    0    0  501 -0.00000000000E+00  0.00000000000E+00  0.88440471634E+00  0.88928100300E+00  0.93000000000E-01 0.  1.
          3   -1    0    0  501    0  0.00000000000E+00 -0.00000000000E+00 -0.11276225654E+03  0.11276229489E+03  0.93000000000E-01 0. -1.
       1023    2    1    2    0    0  0.00000000000E+00  0.00000000000E+00 -0.11187785183E+03  0.11365157590E+03  0.20000674349E+02 0.  0.
        -11    1    3    3    0    0 -0.91289419418E+01 -0.40826839726E+01 -0.55772872705E+02  0.56662326280E+02  0.51100000000E-03 0.  1.
         11    1    3    3    0    0  0.91289419418E+01  0.40826839726E+01 -0.56104979122E+02  0.56989249617E+02  0.51100000000E-03 0. -1.
<mgrwt>
<rscale>  0 0.20000674E+02</rscale>
<asrwt>0</asrwt>
<pdfrwt beam="2">  1        3 0.17348406E-01 0.20000674E+02</pdfrwt>
<pdfrwt beam="1">  1       -3 0.13644040E-03 0.20000674E+02</pdfrwt>
<totfact> 0.13721274E+06</totfact>
</mgrwt>
</event>
<event>
 5    1  0.4133473E-007  0.2000085E+02  0.7818608E-02  0.1745311E+00
          3   -1    0    0  501    0  0.00000000000E+00  0.00000000000E+00  0.69843535645E+02  0.69843597562E+02  0.93000000000E-01 0.  1.
         -3   -1    0    0    0  501 -0.00000000000E+00 -0.00000000000E+00 -0.14303200497E+01  0.14333403101E+01  0.93000000000E-01 0. -1.
       1023    2    1    2    0    0  0.00000000000E+00  0.00000000000E+00  0.68413215595E+02  0.71276937872E+02  0.20000845090E+02 0.  0.
        -11    1    3    3    0    0 -0.94651083542E+01 -0.32280257113E+01  0.34188907895E+02  0.35621480169E+02  0.51100000000E-03 0.  1.
         11    1    3    3    0    0  0.94651083542E+01  0.32280257113E+01  0.34224307700E+02  0.35655457703E+02  0.51100000000E-03 0. -1.
<mgrwt>
<rscale>  0 0.20000845E+02</rscale>
<asrwt>0</asrwt>
<pdfrwt beam="1">  1        3 0.10745393E-01 0.20000845E+02</pdfrwt>
<pdfrwt beam="2">  1       -3 0.22028639E-03 0.20000845E+02</pdfrwt>
<totfact> 0.15258875E+06</totfact>
</mgrwt>
</event>
<event>
 5    1  0.4133473E-007  0.2000110E+02  0.7818608E-02  0.1745306E+00
         -3   -1    0    0    0  501 -0.00000000000E+00  0.00000000000E+00  0.29422151565E+01  0.29436846005E+01  0.93000000000E-01 0.  1.
          3   -1    0    0  501    0  0.00000000000E+00 -0.00000000000E+00 -0.33981705000E+02  0.33981832260E+02  0.93000000000E-01 0. -1.
       1023    2    1    2    0    0  0.00000000000E+00  0.00000000000E+00 -0.31039489844E+02  0.36925516860E+02  0.20001096611E+02 0.  0.
        -11    1    3    3    0    0  0.60004790748E+01 -0.79997482283E+01 -0.15342230601E+02  0.18313540371E+02  0.51100000000E-03 0. -1.
         11    1    3    3    0    0 -0.60004790748E+01  0.79997482283E+01 -0.15697259243E+02  0.18611976490E+02  0.51100000000E-03 0.  1.
<mgrwt>
<rscale>  0 0.20001097E+02</rscale>
<asrwt>0</asrwt>
<pdfrwt beam="2">  1        3 0.52280771E-02 0.20001097E+02</pdfrwt>
<pdfrwt beam="1">  1       -3 0.45277133E-03 0.20001097E+02</pdfrwt>
<totfact> 0.16874469E+06</totfact>
</mgrwt>
</event>
<event>
 5    1  0.4133473E-007  0.2000332E+02  0.7818608E-02  0.1745262E+00
         -3   -1    0    0    0  501 -0.00000000000E+00  0.00000000000E+00  0.51923349087E+02  0.51923432373E+02  0.93000000000E-01 0. -1.
          3   -1    0    0  501    0  0.00000000000E+00 -0.00000000000E+00 -0.19253487300E+01  0.19275935080E+01  0.93000000000E-01 0.  1.
       1023    2    1    2    0    0  0.00000000000E+00  0.00000000000E+00  0.49998000357E+02  0.53851025881E+02  0.20003323443E+02 0.  0.
        -11    1    3    3    0    0  0.86587989202E+01  0.50053119113E+01  0.24803181106E+02  0.26743704667E+02  0.51100000000E-03 0. -1.
         11    1    3    3    0    0 -0.86587989202E+01 -0.50053119113E+01  0.25194819251E+02  0.27107321215E+02  0.51100000000E-03 0.  1.
<mgrwt>
<rscale>  0 0.20003323E+02</rscale>
<asrwt>0</asrwt>
<pdfrwt beam="2">  1        3 0.29638659E-03 0.20003323E+02</pdfrwt>
<pdfrwt beam="1">  1       -3 0.79883862E-02 0.20003323E+02</pdfrwt>
<totfact> 0.16021183E+06</totfact>
</mgrwt>
</event>
<event>
 5    1  0.4133473E-007  0.2000052E+02  0.7818608E-02  0.1745318E+00
         -3   -1    0    0    0  501 -0.00000000000E+00  0.00000000000E+00  0.30945374258E+01  0.30959345729E+01  0.93000000000E-01 0. -1.
          3   -1    0    0  501    0  0.00000000000E+00 -0.00000000000E+00 -0.32307930400E+02  0.32308064252E+02  0.93000000000E-01 0.  1.
       1023    2    1    2    0    0  0.00000000000E+00  0.00000000000E+00 -0.29213392974E+02  0.35403998825E+02  0.20000520087E+02 0.  0.
        -11    1    3    3    0    0  0.40871610754E+01 -0.91268259308E+01 -0.14541333682E+02  0.17648065694E+02  0.51100000000E-03 0. -1.
         11    1    3    3    0    0 -0.40871610754E+01  0.91268259308E+01 -0.14672059292E+02  0.17755933131E+02  0.51100000000E-03 0.  1.
<mgrwt>
<rscale>  0 0.20000520E+02</rscale>
<asrwt>0</asrwt>
<pdfrwt beam="2">  1        3 0.49705684E-02 0.20000520E+02</pdfrwt>
<pdfrwt beam="1">  1       -3 0.47620047E-03 0.20000520E+02</pdfrwt>
<totfact> 0.16958773E+06</totfact>
</mgrwt>
</event>
<event>
 5    1  0.4133473E-007  0.2000246E+02  0.7818608E-02  0.1745279E+00
          3   -1    0    0  501    0  0.00000000000E+00  0.00000000000E+00  0.17925544225E+01  0.17949652804E+01  0.93000000000E-01 0. -1.
         -3   -1    0    0    0  501 -0.00000000000E+00 -0.00000000000E+00 -0.55760108603E+02  0.55760186158E+02  0.93000000000E-01 0.  1.
       1023    2    1    2    0    0  0.00000000000E+00  0.00000000000E+00 -0.53967554181E+02  0.57555151439E+02  0.20002463671E+02 0.  0.
        -11    1    3    3    0    0  0.86915462567E+01 -0.49474767691E+01 -0.26798742947E+02  0.28604075348E+02  0.51100000000E-03 0. -1.
         11    1    3    3    0    0 -0.86915462567E+01  0.49474767691E+01 -0.27168811233E+02  0.28951076091E+02  0.51100000000E-03 0.  1.
<mgrwt>
<rscale>  0 0.20002464E+02</rscale>
<asrwt>0</asrwt>
<pdfrwt beam="1">  1        3 0.27596906E-03 0.20002464E+02</pdfrwt>
<pdfrwt beam="2">  1       -3 0.85786683E-02 0.20002464E+02</pdfrwt>
<totfact> 0.15852152E+06</totfact>
</mgrwt>
</event>
<event>
 5    1  0.4133473E-007  0.2000048E+02  0.7818608E-02  0.1745318E+00
          3   -1    0    0  501    0  0.00000000000E+00  0.00000000000E+00  0.82252448860E+01  0.82257706286E+01  0.93000000000E-01 0. -1.
         -3   -1    0    0    0  501 -0.00000000000E+00 -0.00000000000E+00 -0.12157189879E+02  0.12157545590E+02  0.93000000000E-01 0.  1.
       1023    2    1    2    0    0  0.00000000000E+00  0.00000000000E+00 -0.39319449935E+01  0.20383316218E+02  0.20000484710E+02 0.  0.
        -11    1    3    3    0    0  0.95121085786E+01  0.30858435649E+01 -0.19180969724E+01  0.10182422913E+02  0.51100000000E-03 0. -1.
         11    1    3    3    0    0 -0.95121085786E+01 -0.30858435649E+01 -0.20138480211E+01  0.10200893306E+02  0.51100000000E-03 0.  1.
<mgrwt>
<rscale>  0 0.20000485E+02</rscale>
<asrwt>0</asrwt>
<pdfrwt beam="1">  1        3 0.12654901E-02 0.20000485E+02</pdfrwt>
<pdfrwt beam="2">  1       -3 0.18704047E-02 0.20000485E+02</pdfrwt>
<totfact> 0.17859776E+06</totfact>
</mgrwt>
</event>
<event>
 5    1  0.4133473E-007  0.2000211E+02  0.7818608E-02  0.1745286E+00
         -3   -1    0    0    0  501 -0.00000000000E+00  0.00000000000E+00  0.10417886871E+03  0.10417891022E+03  0.93000000000E-01 0. -1.
          3   -1    0    0  501    0  0.00000000000E+00 -0.00000000000E+00 -0.95779660421E+00  0.96230106258E+00  0.93000000000E-01 0.  1.
       1023    2    1    2    0    0  0.00000000000E+00  0.00000000000E+00  0.10322107210E+03  0.10514121128E+03  0.20002114472E+02 0.  0.
        -11    1    3    3    0    0 -0.88632072034E+01  0.46323729558E+01  0.51209369816E+02  0.52176765694E+02  0.51100000000E-03 0. -1.
         11    1    3    3    0    0  0.88632072034E+01 -0.46323729558E+01  0.52011702288E+02  0.52964445586E+02  0.51100000000E-03 0.  1.
<mgrwt>
<rscale>  0 0.20002114E+02</rscale>
<asrwt>0</asrwt>
<pdfrwt beam="2">  1        3 0.14770300E-03 0.20002114E+02</pdfrwt>
<pdfrwt beam="1">  1       -3 0.16027869E-01 0.20002114E+02</pdfrwt>
<totfact> 0.14002140E+06</totfact>
</mgrwt>
</event>
<event>
 5    1  0.4133473E-007  0.2000034E+02  0.7818608E-02  0.1745321E+00
         -3   -1    0    0    0  501 -0.00000000000E+00  0.00000000000E+00  0.10000328226E+01  0.10043478711E+01  0.93000000000E-01 0. -1.
          3   -1    0    0  501    0  0.00000000000E+00 -0.00000000000E+00 -0.99780476838E+02  0.99780520178E+02  0.93000000000E-01 0.  1.
       1023    2    1    2    0    0  0.00000000000E+00  0.00000000000E+00 -0.98780444015E+02  0.10078486805E+03  0.20000337693E+02 0.  0.
        -11    1    3    3    0    0  0.88433275979E+01 -0.46689122771E+01 -0.49320426199E+02  0.50324026325E+02  0.51100000000E-03 0. -1.
         11    1    3    3    0    0 -0.88433275979E+01  0.46689122771E+01 -0.49460017816E+02  0.50460841724E+02  0.51100000000E-03 0.  1.
<mgrwt>
<rscale>  0 0.20000338E+02</rscale>
<asrwt>0</asrwt>
<pdfrwt beam="2">  1        3 0.15351170E-01 0.20000338E+02</pdfrwt>
<pdfrwt beam="1">  1       -3 0.15418654E-03 0.20000338E+02</pdfrwt>
<totfact> 0.14150405E+06</totfact>
</mgrwt>
</event>
<event>
 5    1  0.4133473E-007  0.2000033E+02  0.7818608E-02  0.1745321E+00
         -3   -1    0    0    0  501 -0.00000000000E+00  0.00000000000E+00  0.41445538523E+02  0.41445642865E+02  0.93000000000E-01 0.  1.
          3   -1    0    0  501    0  0.00000000000E+00 -0.00000000000E+00 -0.24118814163E+01  0.24136737489E+01  0.93000000000E-01 0. -1.
       1023    2    1    2    0    0  0.00000000000E+00  0.00000000000E+00  0.39033657107E+02  0.43859316613E+02  0.20000331664E+02 0.  0.
        -11    1    3    3    0    0  0.72967550128E+01  0.68380300777E+01  0.19615567584E+02  0.22017533489E+02  0.51100000000E-03 0. -1.
         11    1    3    3    0    0 -0.72967550128E+01 -0.68380300777E+01  0.19418089523E+02  0.21841783124E+02  0.51100000000E-03 0.  1.
<mgrwt>
<rscale>  0 0.20000332E+02</rscale>
<asrwt>0</asrwt>
<pdfrwt beam="2">  1        3 0.37120461E-03 0.20000332E+02</pdfrwt>
<pdfrwt beam="1">  1       -3 0.63763821E-02 0.20000332E+02</pdfrwt>
<totfact> 0.16513577E+06</totfact>
</mgrwt>
</event>
<event>
 5    1  0.4133473E-007  0.2000054E+02  0.7818608E-02  0.1745317E+00
          3   -1    0    0  501    0  0.00000000000E+00  0.00000000000E+00  0.30995466009E+02  0.30995605529E+02  0.93000000000E-01 0.  1.
         -3   -1    0    0    0  501 -0.00000000000E+00 -0.00000000000E+00 -0.32256349300E+01  0.32269753178E+01  0.93000000000E-01 0. -1.
       1023    2    1    2    0    0  0.00000000000E+00  0.00000000000E+00  0.27769831079E+02  0.34222580847E+02  0.20000538034E+02 0.  0.
        -11    1    3    3    0    0 -0.45670996383E+01 -0.88964584082E+01  0.13879828115E+02  0.17107162245E+02  0.51100000000E-03 0. -1.
         11    1    3    3    0    0  0.45670996383E+01  0.88964584082E+01  0.13890002964E+02  0.17115418602E+02  0.51100000000E-03 0.  1.
<mgrwt>
<rscale>  0 0.20000538E+02</rscale>
<asrwt>0</asrwt>
<pdfrwt beam="1">  1        3 0.47686473E-02 0.20000538E+02</pdfrwt>
<pdfrwt beam="2">  1       -3 0.49636534E-03 0.20000538E+02</pdfrwt>
<totfact> 0.17024297E+06</totfact>
</mgrwt>
</event>
<event>
 5    1  0.4367469E-007  0.2000094E+02  0.7818608E-02  0.1745309E+00
          3   -1    0    0  501    0  0.00000000000E+00  0.00000000000E+00  0.70666235086E+01  0.70672354433E+01  0.93000000000E-01 0. -1.
         -3   -1    0    0    0  501 -0.00000000000E+00 -0.00000000000E+00 -0.14150986413E+02  0.14151292006E+02  0.93000000000E-01 0.  1.
       1023    2    1    2    0    0  0.00000000000E+00  0.00000000000E+00 -0.70843629040E+01  0.21218527450E+02  0.20000942712E+02 0.  0.
        -11    1    3    3    0    0  0.71691876844E+01 -0.69719680240E+01 -0.34764678853E+01  0.10587323524E+02  0.51100000000E-03 0. -1.
         11    1    3    3    0    0 -0.71691876844E+01  0.69719680240E+01 -0.36078950186E+01  0.10631203926E+02  0.51100000000E-03 0.  1.
<mgrwt>
<rscale>  0 0.20000943E+02</rscale>
<asrwt>0</asrwt>
<pdfrwt beam="1">  1        3 0.10872434E-02 0.20000943E+02</pdfrwt>
<pdfrwt beam="2">  1       -3 0.21771454E-02 0.20000943E+02</pdfrwt>
<totfact> 0.17804659E+06</totfact>
</mgrwt>
</event>
<event>
 5    1  0.4133473E-007  0.2000006E+02  0.7818608E-02  0.1745327E+00
          3   -1    0    0  501    0  0.00000000000E+00  0.00000000000E+00  0.10417678498E+02  0.10418093601E+02  0.93000000000E-01 0. -1.
         -3   -1    0    0    0  501 -0.00000000000E+00 -0.00000000000E+00 -0.95982950187E+01  0.95987455569E+01  0.93000000000E-01 0.  1.
       1023    2    1    2    0    0  0.00000000000E+00  0.00000000000E+00  0.81938347917E+00  0.20016839158E+02  0.20000061515E+02 0.  0.
        -11    1    3    3    0    0  0.92920359917E+00 -0.99567541920E+01  0.39413775486E+00  0.10007782881E+02  0.51100000000E-03 0.  1.
         11    1    3    3    0    0 -0.92920359917E+00  0.99567541920E+01  0.42524572430E+00  0.10009056277E+02  0.51100000000E-03 0. -1.
<mgrwt>
<rscale>  0 0.20000062E+02</rscale>
<asrwt>0</asrwt>
<pdfrwt beam="1">  1        3 0.16027863E-02 0.20000062E+02</pdfrwt>
<pdfrwt beam="2">  1       -3 0.14767274E-02 0.20000062E+02</pdfrwt>
<totfact> 0.17884379E+06</totfact>
</mgrwt>
</event>
<event>
 5    1  0.4133473E-007  0.2000022E+02  0.7818608E-02  0.1745324E+00
          3   -1    0    0  501    0  0.00000000000E+00  0.00000000000E+00  0.28100325020E+01  0.28115710310E+01  0.93000000000E-01 0. -1.
         -3   -1    0    0    0  501 -0.00000000000E+00 -0.00000000000E+00 -0.35576215248E+02  0.35576336804E+02  0.93000000000E-01 0.  1.
       1023    2    1    2    0    0  0.00000000000E+00  0.00000000000E+00 -0.32766182746E+02  0.38387907835E+02  0.20000218403E+02 0.  0.
        -11    1    3    3    0    0  0.29868454357E+01 -0.95436228579E+01 -0.16355888188E+02  0.19170734509E+02  0.51100000000E-03 0.  1.
         11    1    3    3    0    0 -0.29868454357E+01  0.95436228579E+01 -0.16410294558E+02  0.19217173326E+02  0.51100000000E-03 0. -1.
<mgrwt>
<rscale>  0 0.20000218E+02</rscale>
<asrwt>0</asrwt>
<pdfrwt beam="1">  1        3 0.43244042E-03 0.20000218E+02</pdfrwt>
<pdfrwt beam="2">  1       -3 0.54733913E-02 0.20000218E+02</pdfrwt>
<totfact> 0.16799289E+06</totfact>
</mgrwt>
</event>
<event>
 5    1  0.4133473E-007  0.2000228E+02  0.7818608E-02  0.1745283E+00
          3   -1    0    0  501    0  0.00000000000E+00  0.00000000000E+00  0.23808987234E+02  0.23809168867E+02  0.93000000000E-01 0.  1.
         -3   -1    0    0    0  501 -0.00000000000E+00 -0.00000000000E+00 -0.42003411764E+01  0.42013706095E+01  0.93000000000E-01 0. -1.
       1023    2    1    2    0    0  0.00000000000E+00  0.00000000000E+00  0.19608646058E+02  0.28010539476E+02  0.20002282908E+02 0.  0.
        -11    1    3    3    0    0 -0.83410943419E+01 -0.55180340437E+01  0.97810755206E+01  0.13988995430E+02  0.51100000000E-03 0.  1.
         11    1    3    3    0    0  0.83410943419E+01  0.55180340437E+01  0.98275705374E+01  0.14021544047E+02  0.51100000000E-03 0. -1.
<mgrwt>
<rscale>  0 0.20002283E+02</rscale>
<asrwt>0</asrwt>
<pdfrwt beam="1">  1        3 0.36630142E-02 0.20002283E+02</pdfrwt>
<pdfrwt beam="2">  1       -3 0.64629950E-03 0.20002283E+02</pdfrwt>
<totfact> 0.17379544E+06</totfact>
</mgrwt>
</event>
<event>
 5    1  0.4133473E-007  0.2000699E+02  0.7818608E-02  0.1745189E+00
         -3   -1    0    0    0  501 -0.00000000000E+00  0.00000000000E+00  0.25176729326E+02  0.25176901092E+02  0.93000000000E-01 0. -1.
          3   -1    0    0  501    0  0.00000000000E+00 -0.00000000000E+00 -0.39739688113E+01  0.39750568692E+01  0.93000000000E-01 0.  1.
       1023    2    1    2    0    0  0.00000000000E+00  0.00000000000E+00  0.21202760515E+02  0.29151957961E+02  0.20006988766E+02 0.  0.
        -11    1    3    3    0    0  0.94027476303E+01  0.34133767597E+01  0.10478640888E+02  0.14486708357E+02  0.51100000000E-03 0.  1.
         11    1    3    3    0    0 -0.94027476303E+01 -0.34133767597E+01  0.10724119627E+02  0.14665249604E+02  0.51100000000E-03 0. -1.
<mgrwt>
<rscale>  0 0.20006989E+02</rscale>
<asrwt>0</asrwt>
<pdfrwt beam="2">  1        3 0.61147673E-03 0.20006989E+02</pdfrwt>
<pdfrwt beam="1">  1       -3 0.38734399E-02 0.20006989E+02</pdfrwt>
<totfact> 0.17304710E+06</totfact>
</mgrwt>
</event>
<event>
 5    1  0.4133473E-007  0.2000047E+02  0.7818608E-02  0.1745319E+00
          3   -1    0    0  501    0  0.00000000000E+00  0.00000000000E+00  0.11091573873E+02  0.11091963757E+02  0.93000000000E-01 0. -1.
         -3   -1    0    0    0  501 -0.00000000000E+00 -0.00000000000E+00 -0.90154912305E+01  0.90159708921E+01  0.93000000000E-01 0.  1.
       1023    2    1    2    0    0  0.00000000000E+00  0.00000000000E+00  0.20760826424E+01  0.20107934649E+02  0.20000472912E+02 0.  0.
        -11    1    3    3    0    0  0.88128902301E+01  0.47262745133E+01  0.10429595532E+01  0.10054475117E+02  0.51100000000E-03 0.  1.
         11    1    3    3    0    0 -0.88128902301E+01 -0.47262745133E+01  0.10331230892E+01  0.10053459532E+02  0.51100000000E-03 0. -1.
<mgrwt>
<rscale>  0 0.20000473E+02</rscale>
<asrwt>0</asrwt>
<pdfrwt beam="1">  1        3 0.17064629E-02 0.20000473E+02</pdfrwt>
<pdfrwt beam="2">  1       -3 0.13870655E-02 0.20000473E+02</pdfrwt>
<totfact> 0.17877609E+06</totfact>
</mgrwt>
</event>
<event>
 5    1  0.4133473E-007  0.2000051E+02  0.7818608E-02  0.1745318E+00
          3   -1    0    0  501    0  0.00000000000E+00  0.00000000000E+00  0.35890273443E+01  0.35902320646E+01  0.93000000000E-01 0.  1.
         -3   -1    0    0    0  501 -0.00000000000E+00 -0.00000000000E+00 -0.27858152637E+02  0.27858307870E+02  0.93000000000E-01 0. -1.
       1023    2    1    2    0    0  0.00000000000E+00  0.00000000000E+00 -0.24269125293E+02  0.31448539934E+02  0.20000505531E+02 0.  0.
        -11    1    3    3    0    0 -0.24906335746E+01  0.96851142928E+01 -0.12164423457E+02  0.15747313827E+02  0.51100000000E-03 0. -1.
         11    1    3    3    0    0  0.24906335746E+01 -0.96851142928E+01 -0.12104701836E+02  0.15701226107E+02  0.51100000000E-03 0.  1.
<mgrwt>
<rscale>  0 0.20000506E+02</rscale>
<asrwt>0</asrwt>
<pdfrwt beam="1">  1        3 0.55226268E-03 0.20000506E+02</pdfrwt>
<pdfrwt beam="2">  1       -3 0.42859741E-02 0.20000506E+02</pdfrwt>
<totfact> 0.17183372E+06</totfact>
</mgrwt>
</event>
<event>
 5    1  0.4133473E-007  0.2000073E+02  0.7818608E-02  0.1745314E+00
          3   -1    0    0  501    0  0.00000000000E+00  0.00000000000E+00  0.24524147780E+02  0.24524324116E+02  0.93000000000E-01 0.  1.
         -3   -1    0    0    0  501 -0.00000000000E+00 -0.00000000000E+00 -0.40771900948E+01  0.40782506138E+01  0.93000000000E-01 0. -1.
       1023    2    1    2    0    0  0.00000000000E+00  0.00000000000E+00  0.20446957685E+02  0.28602574730E+02  0.20000730051E+02 0.  0.
        -11    1    3    3    0    0 -0.93374115367E+01  0.35803740154E+01  0.10267974407E+02  0.14333095652E+02  0.51100000000E-03 0.  1.
         11    1    3    3    0    0  0.93374115367E+01 -0.35803740154E+01  0.10178983279E+02  0.14269479077E+02  0.51100000000E-03 0. -1.
<mgrwt>
<rscale>  0 0.20000730E+02</rscale>
<asrwt>0</asrwt>
<pdfrwt beam="1">  1        3 0.37730410E-02 0.20000730E+02</pdfrwt>
<pdfrwt beam="2">  1       -3 0.62735516E-03 0.20000730E+02</pdfrwt>
<totfact> 0.17347219E+06</totfact>
</mgrwt>
</event>
<event>
 5    1  0.4133473E-007  0.2000208E+02  0.7818608E-02  0.1745287E+00
         -3   -1    0    0    0  501 -0.00000000000E+00  0.00000000000E+00  0.99891720926E+00  0.10032370562E+01  0.93000000000E-01 0. -1.
          3   -1    0    0  501    0  0.00000000000E+00 -0.00000000000E+00 -0.99908874543E+02  0.99908917827E+02  0.93000000000E-01 0.  1.
       1023    2    1    2    0    0  0.00000000000E+00  0.00000000000E+00 -0.98909957334E+02  0.10091215488E+03  0.20002083479E+02 0.  0.
        -11    1    3    3    0    0  0.33103484120E+01  0.94363614333E+01 -0.48787350041E+02  0.49801695232E+02  0.51100000000E-03 0. -1.
         11    1    3    3    0    0 -0.33103484120E+01 -0.94363614333E+01 -0.50122607293E+02  0.51110459652E+02  0.51100000000E-03 0.  1.
<mgrwt>
<rscale>  0 0.20002083E+02</rscale>
<asrwt>0</asrwt>
<pdfrwt beam="2">  1        3 0.15370924E-01 0.20002083E+02</pdfrwt>
<pdfrwt beam="1">  1       -3 0.15401528E-03 0.20002083E+02</pdfrwt>
<totfact> 0.14143369E+06</totfact>
</mgrwt>
</event>
<event>
 5    1  0.4268210E-007  0.2000083E+02  0.7818608E-02  0.1745312E+00
         -3   -1    0    0    0  501 -0.00000000000E+00  0.00000000000E+00  0.39356448982E+02  0.39356558862E+02  0.93000000000E-01 0. -1.
          3   -1    0    0  501    0  0.00000000000E+00 -0.00000000000E+00 -0.25401256981E+01  0.25418276028E+01  0.93000000000E-01 0.  1.
       1023    2    1    2    0    0  0.00000000000E+00  0.00000000000E+00  0.36816323284E+02  0.41898386465E+02  0.20000828188E+02 0.  0.
        -11    1    3    3    0    0  0.15469940970E+01 -0.98799522672E+01  0.18492847203E+02  0.21023606862E+02  0.51100000000E-03 0. -1.
         11    1    3    3    0    0 -0.15469940970E+01  0.98799522672E+01  0.18323476081E+02  0.20874779603E+02  0.51100000000E-03 0.  1.
<mgrwt>
<rscale>  0 0.20000828E+02</rscale>
<asrwt>0</asrwt>
<pdfrwt beam="2">  1        3 0.39092794E-03 0.20000828E+02</pdfrwt>
<pdfrwt beam="1">  1       -3 0.60549776E-02 0.20000828E+02</pdfrwt>
<totfact> 0.16613441E+06</totfact>
</mgrwt>
</event>
<event>
 5    1  0.4133473E-007  0.2000567E+02  0.7818608E-02  0.1745215E+00
         -3   -1    0    0    0  501 -0.00000000000E+00  0.00000000000E+00  0.10369347058E+01  0.10410968179E+01  0.93000000000E-01 0.  1.
          3   -1    0    0  501    0  0.00000000000E+00 -0.00000000000E+00 -0.96295327815E+02  0.96295372724E+02  0.93000000000E-01 0. -1.
       1023    2    1    2    0    0  0.00000000000E+00  0.00000000000E+00 -0.95258393110E+02  0.97336469542E+02  0.20005670323E+02 0.  0.
        -11    1    3    3    0    0 -0.89332817067E+01 -0.44970685085E+01 -0.48465767007E+02  0.49486944936E+02  0.51100000000E-03 0.  1.
         11    1    3    3    0    0  0.89332817067E+01  0.44970685085E+01 -0.46792626102E+02  0.47849524606E+02  0.51100000000E-03 0. -1.
<mgrwt>
<rscale>  0 0.20005670E+02</rscale>
<asrwt>0</asrwt>
<pdfrwt beam="2">  1        3 0.14814982E-01 0.20005670E+02</pdfrwt>
<pdfrwt beam="1">  1       -3 0.15985211E-03 0.20005670E+02</pdfrwt>
<totfact> 0.14262233E+06</totfact>
</mgrwt>
</event>
<event>
 4    1  0.4133473E-007  0.2004101E+02  0.7818608E-02  0.1744514E+00
          3   -1    0    0  501    0  0.00000000000E+00  0.00000000000E+00  0.26550832250E+01  0.26567114882E+01  0.93000000000E-01 0. -1.
         -3   -1    0    0    0  501 -0.00000000000E+00 -0.00000000000E+00 -0.37804945430E+02  0.37805059820E+02  0.93000000000E-01 0.  1.
        -11    1    1    2    0    0 -0.68251001327E+01 -0.73177388768E+01 -0.16508061019E+02  0.19304076589E+02  0.51100000000E-03 0.  1.
         11    1    1    2    0    0  0.68251001327E+01  0.73177388768E+01 -0.18641801186E+02  0.21157694719E+02  0.51100000000E-03 0. -1.
<mgrwt>
<rscale>  0 0.20041011E+02</rscale>
<asrwt>0</asrwt>
<pdfrwt beam="1">  1        3 0.40860842E-03 0.20041011E+02</pdfrwt>
<pdfrwt beam="2">  1       -3 0.58162791E-02 0.20041011E+02</pdfrwt>
<totfact> 0.16616441E+06</totfact>
</mgrwt>
</event>
<event>
 5    1  0.4491734E-007  0.2000096E+02  0.7818608E-02  0.1745309E+00
         -3   -1    0    0    0  501 -0.00000000000E+00  0.00000000000E+00  0.78200076278E+01  0.78205606128E+01  0.93000000000E-01 0. -1.
          3   -1    0    0  501    0  0.00000000000E+00 -0.00000000000E+00 -0.12787759663E+02  0.12788097833E+02  0.93000000000E-01 0.  1.
       1023    2    1    2    0    0  0.00000000000E+00  0.00000000000E+00 -0.49677520347E+01  0.20608658446E+02  0.20000956044E+02 0.  0.
        -11    1    3    3    0    0  0.82988284746E+01 -0.55799582257E+01 -0.25409908072E+01  0.10318096840E+02  0.51100000000E-03 0. -1.
         11    1    3    3    0    0 -0.82988284746E+01  0.55799582257E+01 -0.24267612276E+01  0.10290561606E+02  0.51100000000E-03 0.  1.
<mgrwt>
<rscale>  0 0.20000956E+02</rscale>
<asrwt>0</asrwt>
<pdfrwt beam="2">  1        3 0.19674162E-02 0.20000956E+02</pdfrwt>
<pdfrwt beam="1">  1       -3 0.12031466E-02 0.20000956E+02</pdfrwt>
<totfact> 0.17843796E+06</totfact>
</mgrwt>
</event>
<event>
 5    1  0.4173150E-007  0.2000062E+02  0.7818608E-02  0.1745316E+00
          3   -1    0    0  501    0  0.00000000000E+00  0.00000000000E+00  0.39821065229E+01  0.39831923579E+01  0.93000000000E-01 0. -1.
         -3   -1    0    0    0  501 -0.00000000000E+00 -0.00000000000E+00 -0.25109288521E+02  0.25109460748E+02  0.93000000000E-01 0.  1.
       1023    2    1    2    0    0  0.00000000000E+00  0.00000000000E+00 -0.21127181998E+02  0.29092653106E+02  0.20000616129E+02 0.  0.
        -11    1    3    3    0    0  0.13474687673E+00 -0.99993472862E+01 -0.10516272133E+02  0.14511963434E+02  0.51100000000E-03 0. -1.
         11    1    3    3    0    0 -0.13474687673E+00  0.99993472862E+01 -0.10610909865E+02  0.14580689672E+02  0.51100000000E-03 0.  1.
<mgrwt>
<rscale>  0 0.20000616E+02</rscale>
<asrwt>0</asrwt>
<pdfrwt beam="1">  1        3 0.61272856E-03 0.20000616E+02</pdfrwt>
<pdfrwt beam="2">  1       -3 0.38630642E-02 0.20000616E+02</pdfrwt>
<totfact> 0.17320067E+06</totfact>
</mgrwt>
</event>
<event>
 5    1  0.4133473E-007  0.2000089E+02  0.7818608E-02  0.1745310E+00
          3   -1    0    0  501    0  0.00000000000E+00  0.00000000000E+00  0.16155914641E+01  0.16182659790E+01  0.93000000000E-01 0.  1.
         -3   -1    0    0    0  501 -0.00000000000E+00 -0.00000000000E+00 -0.61848411009E+02  0.61848480930E+02  0.93000000000E-01 0. -1.
       1023    2    1    2    0    0  0.00000000000E+00  0.00000000000E+00 -0.60232819545E+02  0.63466746909E+02  0.20000885302E+02 0.  0.
        -11    1    3    3    0    0  0.34183333558E+01 -0.93980766431E+01 -0.30123807128E+02  0.31740393880E+02  0.51100000000E-03 0.  1.
         11    1    3    3    0    0 -0.34183333558E+01  0.93980766431E+01 -0.30109012417E+02  0.31726353029E+02  0.51100000000E-03 0. -1.
<mgrwt>
<rscale>  0 0.20000885E+02</rscale>
<asrwt>0</asrwt>
<pdfrwt beam="1">  1        3 0.24876369E-03 0.20000885E+02</pdfrwt>
<pdfrwt beam="2">  1       -3 0.95153494E-02 0.20000885E+02</pdfrwt>
<totfact> 0.15592145E+06</totfact>
</mgrwt>
</event>
<event>
 5    1  0.4133473E-007  0.2000109E+02  0.7818608E-02  0.1745306E+00
          3   -1    0    0  501    0  0.00000000000E+00  0.00000000000E+00  0.82299349509E+00  0.82823142476E+00  0.93000000000E-01 0.  1.
         -3   -1    0    0    0  501 -0.00000000000E+00 -0.00000000000E+00 -0.12113016041E+03  0.12113019611E+03  0.93000000000E-01 0. -1.
       1023    2    1    2    0    0  0.00000000000E+00  0.00000000000E+00 -0.12030716691E+03  0.12195842753E+03  0.20001090869E+02 0.  0.
        -11    1    3    3    0    0 -0.61111153527E+01  0.79161027625E+01 -0.60017930598E+02  0.60845397586E+02  0.51100000000E-03 0. -1.
         11    1    3    3    0    0  0.61111153527E+01 -0.79161027625E+01 -0.60289236313E+02  0.61113029946E+02  0.51100000000E-03 0.  1.
<mgrwt>
<rscale>  0 0.20001091E+02</rscale>
<asrwt>0</asrwt>
<pdfrwt beam="1">  1        3 0.12702014E-03 0.20001091E+02</pdfrwt>
<pdfrwt beam="2">  1       -3 0.18635801E-01 0.20001091E+02</pdfrwt>
<totfact> 0.13461246E+06</totfact>
</mgrwt>
</event>
<event>
 4    1  0.4133473E-007  0.2004416E+02  0.7818608E-02  0.1744451E+00
          3   -1    0    0  501    0  0.00000000000E+00  0.00000000000E+00  0.59554215328E+01  0.59561476336E+01  0.93000000000E-01 0. -1.
         -3   -1    0    0    0  501 -0.00000000000E+00 -0.00000000000E+00 -0.16863779696E+02  0.16864036131E+02  0.93000000000E-01 0.  1.
        -11    1    1    2    0    0 -0.87259747238E+01 -0.49006880949E+01 -0.48487946606E+01  0.11120709897E+02  0.51100000000E-03 0.  1.
         11    1    1    2    0    0  0.87259747238E+01  0.49006880949E+01 -0.60595635022E+01  0.11699473868E+02  0.51100000000E-03 0. -1.
<mgrwt>
<rscale>  0 0.20044164E+02</rscale>
<asrwt>0</asrwt>
<pdfrwt beam="1">  1        3 0.91629428E-03 0.20044164E+02</pdfrwt>
<pdfrwt beam="2">  1       -3 0.25945032E-02 0.20044164E+02</pdfrwt>
<totfact> 0.17620112E+06</totfact>
</mgrwt>
</event>
<event>
 5    1  0.4133473E-007  0.2000324E+02  0.7818608E-02  0.1745264E+00
         -3   -1    0    0    0  501 -0.00000000000E+00  0.00000000000E+00  0.20647702155E+01  0.20668635762E+01  0.93000000000E-01 0.  1.
          3   -1    0    0  501    0  0.00000000000E+00 -0.00000000000E+00 -0.48420531531E+02  0.48420620842E+02  0.93000000000E-01 0. -1.
       1023    2    1    2    0    0  0.00000000000E+00  0.00000000000E+00 -0.46355761315E+02  0.50487484418E+02  0.20003236632E+02 0.  0.
        -11    1    3    3    0    0  0.77988081242E+00 -0.99709440207E+01 -0.23345870103E+02  0.25397983973E+02  0.51100000000E-03 0. -1.
         11    1    3    3    0    0 -0.77988081242E+00  0.99709440207E+01 -0.23009891212E+02  0.25089500445E+02  0.51100000000E-03 0.  1.
<mgrwt>
<rscale>  0 0.20003237E+02</rscale>
<asrwt>0</asrwt>
<pdfrwt beam="2">  1        3 0.74494796E-02 0.20003237E+02</pdfrwt>
<pdfrwt beam="1">  1       -3 0.31782489E-03 0.20003237E+02</pdfrwt>
<totfact> 0.16178081E+06</totfact>
</mgrwt>
</event>
<event>
 5    1  0.4154644E-007  0.2000199E+02  0.7818608E-02  0.1745288E+00
         -3   -1    0    0    0  501 -0.00000000000E+00  0.00000000000E+00  0.58647054624E+01  0.58654427933E+01  0.93000000000E-01 0.  1.
          3   -1    0    0  501    0  0.00000000000E+00 -0.00000000000E+00 -0.17052617562E+02  0.17052871158E+02  0.93000000000E-01 0. -1.
       1023    2    1    2    0    0  0.00000000000E+00  0.00000000000E+00 -0.11187912100E+02  0.22918313951E+02  0.20001993331E+02 0.  0.
        -11    1    3    3    0    0 -0.99327999439E+00  0.99515013751E+01 -0.56292585176E+01  0.11476390394E+02  0.51100000000E-03 0. -1.
         11    1    3    3    0    0  0.99327999439E+00 -0.99515013751E+01 -0.55586535823E+01  0.11441923557E+02  0.51100000000E-03 0.  1.
<mgrwt>
<rscale>  0 0.20001993E+02</rscale>
<asrwt>0</asrwt>
<pdfrwt beam="2">  1        3 0.26235558E-02 0.20001993E+02</pdfrwt>
<pdfrwt beam="1">  1       -3 0.90233861E-03 0.20001993E+02</pdfrwt>
<totfact> 0.17693088E+06</totfact>
</mgrwt>
</event>
<event>
 5    1  0.4467534E-007  0.2000147E+02  0.7818608E-02  0.1745299E+00
         -3   -1    0    0    0  501 -0.00000000000E+00  0.00000000000E+00  0.94598622653E+01  0.94603193962E+01  0.93000000000E-01 0.  1.
          3   -1    0    0  501    0  0.00000000000E+00 -0.00000000000E+00 -0.10571615440E+02  0.10572024500E+02  0.93000000000E-01 0. -1.
       1023    2    1    2    0    0  0.00000000000E+00  0.00000000000E+00 -0.11117531751E+01  0.20032343896E+02  0.20001470117E+02 0.  0.
        -11    1    3    3    0    0  0.84462514448E+01 -0.53538177863E+01 -0.44537454889E+00  0.10010039316E+02  0.51100000000E-03 0.  1.
         11    1    3    3    0    0 -0.84462514448E+01  0.53538177863E+01 -0.66637862619E+00  0.10022304580E+02  0.51100000000E-03 0. -1.
<mgrwt>
<rscale>  0 0.20001470E+02</rscale>
<asrwt>0</asrwt>
<pdfrwt beam="2">  1        3 0.16264690E-02 0.20001470E+02</pdfrwt>
<pdfrwt beam="1">  1       -3 0.14554301E-02 0.20001470E+02</pdfrwt>
<totfact> 0.17880643E+06</totfact>
</mgrwt>
</event>
<event>
 4    1  0.4133473E-007  0.2005222E+02  0.7818608E-02  0.1744292E+00
         -3   -1    0    0    0  501 -0.00000000000E+00  0.00000000000E+00  0.34485481348E+01  0.34498019129E+01  0.93000000000E-01 0. -1.
          3   -1    0    0  501    0  0.00000000000E+00 -0.00000000000E+00 -0.29142710421E+02  0.29142858811E+02  0.93000000000E-01 0.  1.
        -11    1    1    2    0    0 -0.22728893726E+01  0.97534202103E+01 -0.12071552141E+02  0.15684948302E+02  0.51100000000E-03 0.  1.
         11    1    1    2    0    0  0.22728893726E+01 -0.97534202103E+01 -0.13622610145E+02  0.16907712422E+02  0.51100000000E-03 0. -1.
<mgrwt>
<rscale>  0 0.20052221E+02</rscale>
<asrwt>0</asrwt>
<pdfrwt beam="2">  1        3 0.44836016E-02 0.20052221E+02</pdfrwt>
<pdfrwt beam="1">  1       -3 0.53065375E-03 0.20052221E+02</pdfrwt>
<totfact> 0.17021337E+06</totfact>
</mgrwt>
</event>
<event>
 5    1  0.4133473E-007  0.2000074E+02  0.7818608E-02  0.1745313E+00
         -3   -1    0    0    0  501 -0.00000000000E+00  0.00000000000E+00  0.12217048035E+01  0.12252394162E+01  0.93000000000E-01 0. -1.
          3   -1    0    0  501    0  0.00000000000E+00 -0.00000000000E+00 -0.81737069307E+02  0.81737122215E+02  0.93000000000E-01 0.  1.
       1023    2    1    2    0    0  0.00000000000E+00  0.00000000000E+00 -0.80515364504E+02  0.82962361631E+02  0.20000738141E+02 0.  0.
        -11    1    3    3    0    0 -0.68376847877E+00  0.99768566368E+01 -0.40064296067E+02  0.41293498608E+02  0.51100000000E-03 0. -1.
         11    1    3    3    0    0  0.68376847877E+00 -0.99768566368E+01 -0.40451068437E+02  0.41668863023E+02  0.51100000000E-03 0.  1.
<mgrwt>
<rscale>  0 0.20000738E+02</rscale>
<asrwt>0</asrwt>
<pdfrwt beam="2">  1        3 0.12575205E-01 0.20000738E+02</pdfrwt>
<pdfrwt beam="1">  1       -3 0.18823061E-03 0.20000738E+02</pdfrwt>
<totfact> 0.14796168E+06</totfact>
</mgrwt>
</event>
<event>
 5    1  0.4263839E-007  0.2000115E+02  0.7818608E-02  0.1745305E+00
         -3   -1    0    0    0  501 -0.00000000000E+00  0.00000000000E+00  0.30353739696E+02  0.30353882165E+02  0.93000000000E-01 0.  1.
          3   -1    0    0  501    0  0.00000000000E+00 -0.00000000000E+00 -0.32940577406E+01  0.32953702976E+01  0.93000000000E-01 0. -1.
       1023    2    1    2    0    0  0.00000000000E+00  0.00000000000E+00  0.27059681955E+02  0.33649252463E+02  0.20001145062E+02 0.  0.
        -11    1    3    3    0    0 -0.30920174423E+01  0.95103163047E+01  0.13413738039E+02  0.16731259860E+02  0.51100000000E-03 0. -1.
         11    1    3    3    0    0  0.30920174423E+01 -0.95103163047E+01  0.13645943916E+02  0.16917992603E+02  0.51100000000E-03 0.  1.
<mgrwt>
<rscale>  0 0.20001145E+02</rscale>
<asrwt>0</asrwt>
<pdfrwt beam="2">  1        3 0.50689004E-03 0.20001145E+02</pdfrwt>
<pdfrwt beam="1">  1       -3 0.46699180E-02 0.20001145E+02</pdfrwt>
<totfact> 0.17057215E+06</totfact>
</mgrwt>
</event>
<event>
 5    1  0.4133473E-007  0.2000069E+02  0.7818608E-02  0.1745314E+00
          3   -1    0    0  501    0  0.00000000000E+00  0.00000000000E+00  0.19546256136E+01  0.19568368071E+01  0.93000000000E-01 0.  1.
         -3   -1    0    0    0  501 -0.00000000000E+00 -0.00000000000E+00 -0.51133065181E+02  0.51133149754E+02  0.93000000000E-01 0. -1.
       1023    2    1    2    0    0  0.00000000000E+00  0.00000000000E+00 -0.49178439567E+02  0.53089986561E+02  0.20000693858E+02 0.  0.
        -11    1    3    3    0    0 -0.78822596631E+01 -0.61543538494E+01 -0.24666596573E+02  0.26616669128E+02  0.51100000000E-03 0.  1.
         11    1    3    3    0    0  0.78822596631E+01  0.61543538494E+01 -0.24511842994E+02  0.26473317433E+02  0.51100000000E-03 0. -1.
<mgrwt>
<rscale>  0 0.20000694E+02</rscale>
<asrwt>0</asrwt>
<pdfrwt beam="1">  1        3 0.30088827E-03 0.20000694E+02</pdfrwt>
<pdfrwt beam="2">  1       -3 0.78668010E-02 0.20000694E+02</pdfrwt>
<totfact> 0.16061381E+06</totfact>
</mgrwt>
</event>
<event>
 5    1  0.4133473E-007  0.2000040E+02  0.7818608E-02  0.1745320E+00
          3   -1    0    0  501    0  0.00000000000E+00  0.00000000000E+00  0.26364912547E+01  0.26381309929E+01  0.93000000000E-01 0.  1.
         -3   -1    0    0    0  501 -0.00000000000E+00 -0.00000000000E+00 -0.37917225735E+02  0.37917339786E+02  0.93000000000E-01 0. -1.
       1023    2    1    2    0    0  0.00000000000E+00  0.00000000000E+00 -0.35280734480E+02  0.40555470779E+02  0.20000399612E+02 0.  0.
        -11    1    3    3    0    0  0.39794978578E+01 -0.91742197924E+01 -0.17713023922E+02  0.20340942179E+02  0.51100000000E-03 0.  1.
         11    1    3    3    0    0 -0.39794978578E+01  0.91742197924E+01 -0.17567710558E+02  0.20214528600E+02  0.51100000000E-03 0. -1.
<mgrwt>
<rscale>  0 0.20000400E+02</rscale>
<asrwt>0</asrwt>
<pdfrwt beam="1">  1        3 0.40574897E-03 0.20000400E+02</pdfrwt>
<pdfrwt beam="2">  1       -3 0.58335539E-02 0.20000400E+02</pdfrwt>
<totfact> 0.16684145E+06</totfact>
</mgrwt>
</event>
<event>
 5    1  0.4133473E-007  0.2000020E+02  0.7818608E-02  0.1745324E+00
         -3   -1    0    0    0  501 -0.00000000000E+00  0.00000000000E+00  0.22042123342E+01  0.22061733872E+01  0.93000000000E-01 0. -1.
          3   -1    0    0  501    0  0.00000000000E+00 -0.00000000000E+00 -0.45346414358E+02  0.45346509724E+02  0.93000000000E-01 0.  1.
       1023    2    1    2    0    0  0.00000000000E+00  0.00000000000E+00 -0.43142202024E+02  0.47552683111E+02  0.20000201889E+02 0.  0.
        -11    1    3    3    0    0  0.95480256753E+01  0.29726976330E+01 -0.21611807662E+02  0.23813272689E+02  0.51100000000E-03 0.  1.
         11    1    3    3    0    0 -0.95480256753E+01 -0.29726976330E+01 -0.21530394362E+02  0.23739410422E+02  0.51100000000E-03 0. -1.
<mgrwt>
<rscale>  0 0.20000202E+02</rscale>
<asrwt>0</asrwt>
<pdfrwt beam="2">  1        3 0.69765290E-02 0.20000202E+02</pdfrwt>
<pdfrwt beam="1">  1       -3 0.33926781E-03 0.20000202E+02</pdfrwt>
<totfact> 0.16326246E+06</totfact>
</mgrwt>
</event>
<event>
 4    1  0.5176366E-007  0.2033564E+02  0.7818608E-02  0.1738735E+00
         -3   -1    0    0    0  501 -0.00000000000E+00  0.00000000000E+00  0.57413502173E+02  0.57413577495E+02  0.93000000000E-01 0. -1.
          3   -1    0    0  501    0  0.00000000000E+00 -0.00000000000E+00 -0.17994242788E+01  0.18018259447E+01  0.93000000000E-01 0.  1.
        -11    1    1    2    0    0  0.81505225407E+01 -0.58397397319E+01  0.22890312780E+02  0.24989997944E+02  0.51100000000E-03 0. -1.
         11    1    1    2    0    0 -0.81505225407E+01  0.58397397319E+01  0.32723765114E+02  0.34225405495E+02  0.51100000000E-03 0.  1.
<mgrwt>
<rscale>  0 0.20335642E+02</rscale>
<asrwt>0</asrwt>
<pdfrwt beam="2">  1        3 0.27702508E-03 0.20335642E+02</pdfrwt>
<pdfrwt beam="1">  1       -3 0.88330359E-02 0.20335642E+02</pdfrwt>
<totfact> 0.15225938E+06</totfact>
</mgrwt>
</event>
<event>
 5    1  0.4201748E-007  0.2000152E+02  0.7818608E-02  0.1745298E+00
          3   -1    0    0  501    0  0.00000000000E+00  0.00000000000E+00  0.66089787691E+01  0.66096330738E+01  0.93000000000E-01 0.  1.
         -3   -1    0    0    0  501 -0.00000000000E+00 -0.00000000000E+00 -0.15131680011E+02  0.15131965800E+02  0.93000000000E-01 0. -1.
       1023    2    1    2    0    0  0.00000000000E+00  0.00000000000E+00 -0.85227012423E+01  0.21741598874E+02  0.20001517070E+02 0.  0.
        -11    1    3    3    0    0 -0.98890623361E+01  0.14866631551E+01 -0.41450378603E+01  0.10825204864E+02  0.51100000000E-03 0. -1.
         11    1    3    3    0    0  0.98890623361E+01 -0.14866631551E+01 -0.43776633819E+01  0.10916394010E+02  0.51100000000E-03 0.  1.
<mgrwt>
<rscale>  0 0.20001517E+02</rscale>
<asrwt>0</asrwt>
<pdfrwt beam="1">  1        3 0.10168383E-02 0.20001517E+02</pdfrwt>
<pdfrwt beam="2">  1       -3 0.23280231E-02 0.20001517E+02</pdfrwt>
<totfact> 0.17769872E+06</totfact>
</mgrwt>
</event>
<event>
 5    1  0.4195692E-007  0.2000060E+02  0.7818608E-02  0.1745316E+00
          3   -1    0    0  501    0  0.00000000000E+00  0.00000000000E+00  0.27947023255E+02  0.27947177994E+02  0.93000000000E-01 0.  1.
         -3   -1    0    0    0  501 -0.00000000000E+00 -0.00000000000E+00 -0.35776449825E+01  0.35788535344E+01  0.93000000000E-01 0. -1.
       1023    2    1    2    0    0  0.00000000000E+00  0.00000000000E+00  0.24369378272E+02  0.31526031528E+02  0.20000601654E+02 0.  0.
        -11    1    3    3    0    0  0.98067100492E+01 -0.19569112264E+01  0.12073758095E+02  0.15677266928E+02  0.51100000000E-03 0. -1.
         11    1    3    3    0    0 -0.98067100492E+01  0.19569112264E+01  0.12295620177E+02  0.15848764600E+02  0.51100000000E-03 0.  1.
<mgrwt>
<rscale>  0 0.20000602E+02</rscale>
<asrwt>0</asrwt>
<pdfrwt beam="1">  1        3 0.42996470E-02 0.20000602E+02</pdfrwt>
<pdfrwt beam="2">  1       -3 0.55051178E-03 0.20000602E+02</pdfrwt>
<totfact> 0.17176955E+06</totfact>
</mgrwt>
</event>
<event>
 5    1  0.4133473E-007  0.2000053E+02  0.7818608E-02  0.1745318E+00
          3   -1    0    0  501    0  0.00000000000E+00  0.00000000000E+00  0.25667923677E+02  0.25668092155E+02  0.93000000000E-01 0. -1.
         -3   -1    0    0    0  501 -0.00000000000E+00 -0.00000000000E+00 -0.38953822449E+01  0.38964922474E+01  0.93000000000E-01 0.  1.
       1023    2    1    2    0    0  0.00000000000E+00  0.00000000000E+00  0.21772541432E+02  0.29564584403E+02  0.20000527255E+02 0.  0.
        -11    1    3    3    0    0  0.91642524823E+01 -0.40021208892E+01  0.10988439112E+02  0.14857533091E+02  0.51100000000E-03 0.  1.
         11    1    3    3    0    0 -0.91642524823E+01  0.40021208892E+01  0.10784102320E+02  0.14707051311E+02  0.51100000000E-03 0. -1.
<mgrwt>
<rscale>  0 0.20000527E+02</rscale>
<asrwt>0</asrwt>
<pdfrwt beam="1">  1        3 0.39490097E-02 0.20000527E+02</pdfrwt>
<pdfrwt beam="2">  1       -3 0.59938791E-03 0.20000527E+02</pdfrwt>
<totfact> 0.17290877E+06</totfact>
</mgrwt>
</event>
<event>
 5    1  0.4133473E-007  0.2000705E+02  0.7818608E-02  0.1745188E+00
         -3   -1    0    0    0  501 -0.00000000000E+00  0.00000000000E+00  0.33505341810E+02  0.33505470879E+02  0.93000000000E-01 0. -1.
          3   -1    0    0  501    0  0.00000000000E+00 -0.00000000000E+00 -0.29858458363E+01  0.29872938185E+01  0.93000000000E-01 0.  1.
       1023    2    1    2    0    0  0.00000000000E+00  0.00000000000E+00  0.30519495974E+02  0.36492764697E+02  0.20007054775E+02 0.  0.
        -11    1    3    3    0    0  0.69436856706E+01 -0.72000320812E+01  0.15485564639E+02  0.18435236508E+02  0.51100000000E-03 0. -1.
         11    1    3    3    0    0 -0.69436856706E+01  0.72000320812E+01  0.15033931335E+02  0.18057528189E+02  0.51100000000E-03 0.  1.
<mgrwt>
<rscale>  0 0.20007055E+02</rscale>
<asrwt>0</asrwt>
<pdfrwt beam="2">  1        3 0.45948220E-03 0.20007055E+02</pdfrwt>
<pdfrwt beam="1">  1       -3 0.51547894E-02 0.20007055E+02</pdfrwt>
<totfact> 0.16889274E+06</totfact>
</mgrwt>
</event>
<event>
 4    1  0.4133473E-007  0.2028635E+02  0.7818608E-02  0.1739693E+00
          3   -1    0    0  501    0  0.00000000000E+00  0.00000000000E+00  0.23931467864E+02  0.23931648567E+02  0.93000000000E-01 0. -1.
         -3   -1    0    0    0  501 -0.00000000000E+00 -0.00000000000E+00 -0.42984076171E+01  0.42994135696E+01  0.93000000000E-01 0.  1.
        -11    1    1    2    0    0 -0.16796929149E+01  0.99526591377E+01  0.84199273650E+01  0.13144275153E+02  0.51100000000E-03 0.  1.
         11    1    1    2    0    0  0.16796929149E+01 -0.99526591377E+01  0.11213132882E+02  0.15086786984E+02  0.51100000000E-03 0. -1.
<mgrwt>
<rscale>  0 0.20286346E+02</rscale>
<asrwt>0</asrwt>
<pdfrwt beam="1">  1        3 0.36818556E-02 0.20286346E+02</pdfrwt>
<pdfrwt beam="2">  1       -3 0.66138475E-03 0.20286346E+02</pdfrwt>
<totfact> 0.16846264E+06</totfact>
</mgrwt>
</event>
<event>
 5    1  0.4133473E-007  0.2000159E+02  0.7818608E-02  0.1745297E+00
         -3   -1    0    0    0  501 -0.00000000000E+00  0.00000000000E+00  0.13294735498E+01  0.13327223715E+01  0.93000000000E-01 0. -1.
          3   -1    0    0  501    0  0.00000000000E+00 -0.00000000000E+00 -0.75134584535E+02  0.75134642092E+02  0.93000000000E-01 0.  1.
       1023    2    1    2    0    0  0.00000000000E+00  0.00000000000E+00 -0.73805110985E+02  0.76467364464E+02  0.20001585448E+02 0.  0.
        -11    1    3    3    0    0 -0.55163157726E+01 -0.83411071922E+01 -0.37322152302E+02  0.38638670546E+02  0.51100000000E-03 0.  1.
         11    1    3    3    0    0  0.55163157726E+01  0.83411071922E+01 -0.36482958684E+02  0.37828693917E+02  0.51100000000E-03 0. -1.
<mgrwt>
<rscale>  0 0.20001585E+02</rscale>
<asrwt>0</asrwt>
<pdfrwt beam="2">  1        3 0.11559418E-01 0.20001585E+02</pdfrwt>
<pdfrwt beam="1">  1       -3 0.20478879E-03 0.20001585E+02</pdfrwt>
<totfact> 0.15047716E+06</totfact>
</mgrwt>
</event>
<event>
 5    1  0.4308891E-007  0.2000154E+02  0.7818608E-02  0.1745297E+00
         -3   -1    0    0    0  501 -0.00000000000E+00  0.00000000000E+00  0.28865548804E+02  0.28865698619E+02  0.93000000000E-01 0. -1.
          3   -1    0    0  501    0  0.00000000000E+00 -0.00000000000E+00 -0.34640881774E+01  0.34653363330E+01  0.93000000000E-01 0.  1.
       1023    2    1    2    0    0  0.00000000000E+00  0.00000000000E+00  0.25401460627E+02  0.32331034952E+02  0.20001540418E+02 0.  0.
        -11    1    3    3    0    0  0.40596538086E+01 -0.91393398720E+01  0.12836761785E+02  0.16272393055E+02  0.51100000000E-03 0. -1.
         11    1    3    3    0    0 -0.40596538086E+01  0.91393398720E+01  0.12564698842E+02  0.16058641897E+02  0.51100000000E-03 0.  1.
<mgrwt>
<rscale>  0 0.20001540E+02</rscale>
<asrwt>0</asrwt>
<pdfrwt beam="2">  1        3 0.53304416E-03 0.20001540E+02</pdfrwt>
<pdfrwt beam="1">  1       -3 0.44409614E-02 0.20001540E+02</pdfrwt>
<totfact> 0.17130986E+06</totfact>
</mgrwt>
</event>
<event>
 5    1  0.4133473E-007  0.2000108E+02  0.7818608E-02  0.1745307E+00
          3   -1    0    0  501    0  0.00000000000E+00  0.00000000000E+00  0.48742082291E+02  0.48742171013E+02  0.93000000000E-01 0.  1.
         -3   -1    0    0    0  501 -0.00000000000E+00 -0.00000000000E+00 -0.20506920105E+01  0.20527997276E+01  0.93000000000E-01 0. -1.
       1023    2    1    2    0    0  0.00000000000E+00  0.00000000000E+00  0.46691390281E+02  0.50794970741E+02  0.20001078126E+02 0.  0.
        -11    1    3    3    0    0  0.99653099495E+01  0.83643531949E+00  0.23190075565E+02  0.25254437856E+02  0.51100000000E-03 0.  1.
         11    1    3    3    0    0 -0.99653099495E+01 -0.83643531949E+00  0.23501314716E+02  0.25540532885E+02  0.51100000000E-03 0. -1.
<mgrwt>
<rscale>  0 0.20001078E+02</rscale>
<asrwt>0</asrwt>
<pdfrwt beam="1">  1        3 0.74989505E-02 0.20001078E+02</pdfrwt>
<pdfrwt beam="2">  1       -3 0.31566005E-03 0.20001078E+02</pdfrwt>
<totfact> 0.16167070E+06</totfact>
</mgrwt>
</event>
<event>
 5    1  0.4196911E-007  0.2000106E+02  0.7818608E-02  0.1745307E+00
         -3   -1    0    0    0  501 -0.00000000000E+00  0.00000000000E+00  0.35475546925E+01  0.35487734918E+01  0.93000000000E-01 0.  1.
          3   -1    0    0  501    0  0.00000000000E+00 -0.00000000000E+00 -0.28185280602E+02  0.28185434033E+02  0.93000000000E-01 0. -1.
       1023    2    1    2    0    0  0.00000000000E+00  0.00000000000E+00 -0.24637725909E+02  0.31734207524E+02  0.20001059702E+02 0.  0.
        -11    1    3    3    0    0 -0.32510334576E+01 -0.94572592631E+01 -0.12254889616E+02  0.15817436299E+02  0.51100000000E-03 0. -1.
         11    1    3    3    0    0  0.32510334576E+01  0.94572592631E+01 -0.12382836294E+02  0.15916771226E+02  0.51100000000E-03 0.  1.
<mgrwt>
<rscale>  0 0.20001060E+02</rscale>
<asrwt>0</asrwt>
<pdfrwt beam="2">  1        3 0.43363024E-02 0.20001060E+02</pdfrwt>
<pdfrwt beam="1">  1       -3 0.54588322E-03 0.20001060E+02</pdfrwt>
<totfact> 0.17164154E+06</totfact>
</mgrwt>
</event>
<event>
 5    1  0.4133473E-007  0.2000223E+02  0.7818608E-02  0.1745284E+00
         -3   -1    0    0    0  501 -0.00000000000E+00  0.00000000000E+00  0.10510100882E+03  0.10510104996E+03  0.93000000000E-01 0.  1.
          3   -1    0    0  501    0  0.00000000000E+00 -0.00000000000E+00 -0.94936411222E+00  0.95390839056E+00  0.93000000000E-01 0. -1.
       1023    2    1    2    0    0  0.00000000000E+00  0.00000000000E+00  0.10415164471E+03  0.10605495835E+03  0.20002227293E+02 0.  0.
        -11    1    3    3    0    0  0.90377312672E+01  0.42821757255E+01  0.52437712037E+02  0.53382874214E+02  0.51100000000E-03 0. -1.
         11    1    3    3    0    0 -0.90377312672E+01 -0.42821757255E+01  0.51713932668E+02  0.52672084140E+02  0.51100000000E-03 0.  1.
<mgrwt>
<rscale>  0 0.20002227E+02</rscale>
<asrwt>0</asrwt>
<pdfrwt beam="2">  1        3 0.14640873E-03 0.20002227E+02</pdfrwt>
<pdfrwt beam="1">  1       -3 0.16169740E-01 0.20002227E+02</pdfrwt>
<totfact> 0.13971271E+06</totfact>
</mgrwt>
</event>
<event>
 5    1  0.4352072E-007  0.2000115E+02  0.7818608E-02  0.1745305E+00
         -3   -1    0    0    0  501 -0.00000000000E+00  0.00000000000E+00  0.13887840847E+02  0.13888152231E+02  0.93000000000E-01 0.  1.
          3   -1    0    0  501    0  0.00000000000E+00 -0.00000000000E+00 -0.72006760830E+01  0.72012766265E+01  0.93000000000E-01 0. -1.
       1023    2    1    2    0    0  0.00000000000E+00  0.00000000000E+00  0.66871647644E+01  0.21089428858E+02  0.20001145891E+02 0.  0.
        -11    1    3    3    0    0 -0.73630779577E+01 -0.67672796752E+01  0.33207776617E+01  0.10537483369E+02  0.51100000000E-03 0.  1.
         11    1    3    3    0    0  0.73630779577E+01  0.67672796752E+01  0.33663871026E+01  0.10551945489E+02  0.51100000000E-03 0. -1.
<mgrwt>
<rscale>  0 0.20001146E+02</rscale>
<asrwt>0</asrwt>
<pdfrwt beam="2">  1        3 0.11078665E-02 0.20001146E+02</pdfrwt>
<pdfrwt beam="1">  1       -3 0.21366610E-02 0.20001146E+02</pdfrwt>
<totfact> 0.17812628E+06</totfact>
</mgrwt>
</event>
<event>
 5    1  0.4380366E-007  0.2000103E+02  0.7818608E-02  0.1745308E+00
          3   -1    0    0  501    0  0.00000000000E+00  0.00000000000E+00  0.50995320531E+01  0.51003800015E+01  0.93000000000E-01 0.  1.
         -3   -1    0    0    0  501 -0.00000000000E+00 -0.00000000000E+00 -0.19609073734E+02  0.19609294269E+02  0.93000000000E-01 0. -1.
       1023    2    1    2    0    0  0.00000000000E+00  0.00000000000E+00 -0.14509541681E+02  0.24709674270E+02  0.20001030042E+02 0.  0.
        -11    1    3    3    0    0 -0.16111108681E+01 -0.98698664111E+01 -0.72313557114E+01  0.12341087751E+02  0.51100000000E-03 0. -1.
         11    1    3    3    0    0  0.16111108681E+01  0.98698664111E+01 -0.72781859698E+01  0.12368586519E+02  0.51100000000E-03 0.  1.
<mgrwt>
<rscale>  0 0.20001030E+02</rscale>
<asrwt>0</asrwt>
<pdfrwt beam="1">  1        3 0.78462559E-03 0.20001030E+02</pdfrwt>
<pdfrwt beam="2">  1       -3 0.30168627E-02 0.20001030E+02</pdfrwt>
<totfact> 0.17583843E+06</totfact>
</mgrwt>
</event>
<event>
 4    1  0.4133473E-007  0.2002125E+02  0.7818608E-02  0.1744906E+00
          3   -1    0    0  501    0  0.00000000000E+00  0.00000000000E+00  0.85290987429E+01  0.85296057567E+01  0.93000000000E-01 0. -1.
         -3   -1    0    0    0  501 -0.00000000000E+00 -0.00000000000E+00 -0.11748453806E+02  0.11748821891E+02  0.93000000000E-01 0.  1.
        -11    1    1    2    0    0 -0.72395804518E+01  0.69116520163E+01 -0.14338496782E+01  0.10111299811E+02  0.51100000000E-03 0. -1.
         11    1    1    2    0    0  0.72395804518E+01 -0.69116520163E+01 -0.17855053852E+01  0.10167127837E+02  0.51100000000E-03 0.  1.
<mgrwt>
<rscale>  0 0.20021248E+02</rscale>
<asrwt>0</asrwt>
<pdfrwt beam="1">  1        3 0.13122363E-02 0.20021248E+02</pdfrwt>
<pdfrwt beam="2">  1       -3 0.18075218E-02 0.20021248E+02</pdfrwt>
<totfact> 0.17826704E+06</totfact>
</mgrwt>
</event>
<event>
 5    1  0.4133473E-007  0.2000039E+02  0.7818608E-02  0.1745320E+00
          3   -1    0    0  501    0  0.00000000000E+00  0.00000000000E+00  0.49138190284E+01  0.49146990186E+01  0.93000000000E-01 0.  1.
         -3   -1    0    0    0  501 -0.00000000000E+00 -0.00000000000E+00 -0.20348763692E+02  0.20348976210E+02  0.93000000000E-01 0. -1.
       1023    2    1    2    0    0  0.00000000000E+00  0.00000000000E+00 -0.15434944664E+02  0.25263675229E+02  0.20000394229E+02 0.  0.
        -11    1    3    3    0    0  0.99818407294E+01  0.60294492621E+00 -0.76454043618E+01  0.12587807396E+02  0.51100000000E-03 0. -1.
         11    1    3    3    0    0 -0.99818407294E+01 -0.60294492621E+00 -0.77895403023E+01  0.12675867833E+02  0.51100000000E-03 0.  1.
<mgrwt>
<rscale>  0 0.20000394E+02</rscale>
<asrwt>0</asrwt>
<pdfrwt beam="1">  1        3 0.75605621E-03 0.20000394E+02</pdfrwt>
<pdfrwt beam="2">  1       -3 0.31306630E-02 0.20000394E+02</pdfrwt>
<totfact> 0.17550835E+06</totfact>
</mgrwt>
</event>
<event>
 5    1  0.4331716E-007  0.2000221E+02  0.7818608E-02  0.1745284E+00
         -3   -1    0    0    0  501 -0.00000000000E+00  0.00000000000E+00  0.11637794268E+02  0.11638165853E+02  0.93000000000E-01 0.  1.
          3   -1    0    0  501    0  0.00000000000E+00 -0.00000000000E+00 -0.85938328275E+01  0.85943360224E+01  0.93000000000E-01 0. -1.
       1023    2    1    2    0    0  0.00000000000E+00  0.00000000000E+00  0.30439614407E+01  0.20232501876E+02  0.20002210650E+02 0.  0.
        -11    1    3    3    0    0 -0.20319961556E+01  0.97922407216E+01  0.15943639291E+01  0.10127140926E+02  0.51100000000E-03 0.  1.
         11    1    3    3    0    0  0.20319961556E+01 -0.97922407216E+01  0.14495975116E+01  0.10105360950E+02  0.51100000000E-03 0. -1.
<mgrwt>
<rscale>  0 0.20002211E+02</rscale>
<asrwt>0</asrwt>
<pdfrwt beam="2">  1        3 0.13221954E-02 0.20002211E+02</pdfrwt>
<pdfrwt beam="1">  1       -3 0.17904972E-02 0.20002211E+02</pdfrwt>
<totfact> 0.17866290E+06</totfact>
</mgrwt>
</event>
<event>
 4    1  0.4133473E-007  0.2034723E+02  0.7818608E-02  0.1738510E+00
         -3   -1    0    0    0  501 -0.00000000000E+00  0.00000000000E+00  0.14004029626E+02  0.14004338426E+02  0.93000000000E-01 0.  1.
          3   -1    0    0  501    0  0.00000000000E+00 -0.00000000000E+00 -0.73902206233E+01  0.73908057654E+01  0.93000000000E-01 0. -1.
        -11    1    1    2    0    0  0.75984989834E+01  0.66886275294E+01  0.22410396384E+01  0.10368084874E+02  0.51100000000E-03 0. -1.
         11    1    1    2    0    0 -0.75984989834E+01 -0.66886275294E+01  0.43727693640E+01  0.11027059318E+02  0.51100000000E-03 0.  1.
<mgrwt>
<rscale>  0 0.20347229E+02</rscale>
<asrwt>0</asrwt>
<pdfrwt beam="2">  1        3 0.11370258E-02 0.20347229E+02</pdfrwt>
<pdfrwt beam="1">  1       -3 0.21545348E-02 0.20347229E+02</pdfrwt>
<totfact> 0.17145347E+06</totfact>
</mgrwt>
</event>
<event>
 5    1  0.4158198E-007  0.2000149E+02  0.7818608E-02  0.1745298E+00
          3   -1    0    0  501    0  0.00000000000E+00  0.00000000000E+00  0.83358975304E+01  0.83364162946E+01  0.93000000000E-01 0.  1.
         -3   -1    0    0    0  501 -0.00000000000E+00 -0.00000000000E+00 -0.11997022361E+02  0.11997382820E+02  0.93000000000E-01 0. -1.
       1023    2    1    2    0    0  0.00000000000E+00  0.00000000000E+00 -0.36611248301E+01  0.20333799114E+02  0.20001488729E+02 0.  0.
        -11    1    3    3    0    0 -0.93141821770E+01  0.36413693527E+01 -0.18675984252E+01  0.10173567935E+02  0.51100000000E-03 0.  1.
         11    1    3    3    0    0  0.93141821770E+01 -0.36413693527E+01 -0.17935264049E+01  0.10160231179E+02  0.51100000000E-03 0. -1.
<mgrwt>
<rscale>  0 0.20001489E+02</rscale>
<asrwt>0</asrwt>
<pdfrwt beam="1">  1        3 0.12825134E-02 0.20001489E+02</pdfrwt>
<pdfrwt beam="2">  1       -3 0.18457634E-02 0.20001489E+02</pdfrwt>
<totfact> 0.17861069E+06</totfact>
</mgrwt>
</event>
<event>
 5    1  0.4133473E-007  0.2000506E+02  0.7818608E-02  0.1745228E+00
         -3   -1    0    0    0  501 -0.00000000000E+00  0.00000000000E+00  0.84774882470E+01  0.84779983474E+01  0.93000000000E-01 0. -1.
          3   -1    0    0  501    0  0.00000000000E+00 -0.00000000000E+00 -0.11800865147E+02  0.11801231598E+02  0.93000000000E-01 0.  1.
       1023    2    1    2    0    0  0.00000000000E+00  0.00000000000E+00 -0.33233769001E+01  0.20279229945E+02  0.20005057689E+02 0.  0.
        -11    1    3    3    0    0  0.19423075158E+01  0.98108098091E+01 -0.14981220822E+01  0.10112809581E+02  0.51100000000E-03 0. -1.
         11    1    3    3    0    0 -0.19423075158E+01 -0.98108098091E+01 -0.18252548180E+01  0.10166420364E+02  0.51100000000E-03 0.  1.
<mgrwt>
<rscale>  0 0.20005058E+02</rscale>
<asrwt>0</asrwt>
<pdfrwt beam="2">  1        3 0.18155851E-02 0.20005058E+02</pdfrwt>
<pdfrwt beam="1">  1       -3 0.13042964E-02 0.20005058E+02</pdfrwt>
<totfact> 0.17857467E+06</totfact>
</mgrwt>
</event>
<event>
 5    1  0.4133473E-007  0.2000018E+02  0.7818608E-02  0.1745324E+00
          3   -1    0    0  501    0  0.00000000000E+00  0.00000000000E+00  0.89923330745E+00  0.90402961303E+00  0.93000000000E-01 0.  1.
         -3   -1    0    0    0  501 -0.00000000000E+00 -0.00000000000E+00 -0.11090727548E+03  0.11090731447E+03  0.93000000000E-01 0. -1.
       1023    2    1    2    0    0  0.00000000000E+00  0.00000000000E+00 -0.11000804217E+03  0.11181134409E+03  0.20000183086E+02 0.  0.
        -11    1    3    3    0    0  0.99973210566E+01  0.23277573234E+00 -0.54808932388E+02  0.55713729749E+02  0.51100000000E-03 0. -1.
         11    1    3    3    0    0 -0.99973210566E+01 -0.23277573234E+00 -0.55199109786E+02  0.56097614337E+02  0.51100000000E-03 0.  1.
<mgrwt>
<rscale>  0 0.20000183E+02</rscale>
<asrwt>0</asrwt>
<pdfrwt beam="1">  1        3 0.13871562E-03 0.20000183E+02</pdfrwt>
<pdfrwt beam="2">  1       -3 0.17063019E-01 0.20000183E+02</pdfrwt>
<totfact> 0.13784268E+06</totfact>
</mgrwt>
</event>
<event>
 5    1  0.4133473E-007  0.2000042E+02  0.7818608E-02  0.1745320E+00
         -3   -1    0    0    0  501 -0.00000000000E+00  0.00000000000E+00  0.16390264113E+02  0.16390527957E+02  0.93000000000E-01 0.  1.
          3   -1    0    0  501    0  0.00000000000E+00 -0.00000000000E+00 -0.61007718045E+01  0.61014806081E+01  0.93000000000E-01 0. -1.
       1023    2    1    2    0    0  0.00000000000E+00  0.00000000000E+00  0.10289492309E+02  0.22492008565E+02  0.20000419928E+02 0.  0.
        -11    1    3    3    0    0 -0.96509793211E+01  0.26191636362E+01  0.50854621209E+01  0.11218883423E+02  0.51100000000E-03 0. -1.
         11    1    3    3    0    0  0.96509793211E+01 -0.26191636362E+01  0.52040301877E+01  0.11273125142E+02  0.51100000000E-03 0.  1.
<mgrwt>
<rscale>  0 0.20000420E+02</rscale>
<asrwt>0</asrwt>
<pdfrwt beam="2">  1        3 0.93865511E-03 0.20000420E+02</pdfrwt>
<pdfrwt beam="1">  1       -3 0.25216539E-02 0.20000420E+02</pdfrwt>
<totfact> 0.17724072E+06</totfact>
</mgrwt>
</event>
<event>
 5    1  0.4133473E-007  0.2000494E+02  0.7818608E-02  0.1745230E+00
          3   -1    0    0  501    0  0.00000000000E+00  0.00000000000E+00  0.91011029907E+01  0.91015781405E+01  0.93000000000E-01 0. -1.
         -3   -1    0    0    0  501 -0.00000000000E+00 -0.00000000000E+00 -0.10992146093E+02  0.10992539503E+02  0.93000000000E-01 0.  1.
       1023    2    1    2    0    0  0.00000000000E+00  0.00000000000E+00 -0.18910431021E+01  0.20094117643E+02  0.20004937387E+02 0.  0.
        -11    1    3    3    0    0 -0.89196501689E+01 -0.45253729906E+01 -0.10470655490E+01  0.10056615055E+02  0.51100000000E-03 0. -1.
         11    1    3    3    0    0  0.89196501689E+01  0.45253729906E+01 -0.84397755306E+00  0.10037502588E+02  0.51100000000E-03 0.  1.
<mgrwt>
<rscale>  0 0.20004937E+02</rscale>
<asrwt>0</asrwt>
<pdfrwt beam="1">  1        3 0.14002365E-02 0.20004937E+02</pdfrwt>
<pdfrwt beam="2">  1       -3 0.16911662E-02 0.20004937E+02</pdfrwt>
<totfact> 0.17870082E+06</totfact>
</mgrwt>
</event>
<event>
 5    1  0.4274920E-007  0.2000104E+02  0.7818608E-02  0.1745307E+00
         -3   -1    0    0    0  501 -0.00000000000E+00  0.00000000000E+00  0.10811597184E+02  0.10811997164E+02  0.93000000000E-01 0.  1.
          3   -1    0    0  501    0  0.00000000000E+00 -0.00000000000E+00 -0.92494812878E+01  0.92499488157E+01  0.93000000000E-01 0. -1.
       1023    2    1    2    0    0  0.00000000000E+00  0.00000000000E+00  0.15621158967E+01  0.20061945980E+02  0.20001036734E+02 0.  0.
        -11    1    3    3    0    0 -0.85512474990E+01  0.51851801425E+01  0.80210863696E+00  0.10032612094E+02  0.51100000000E-03 0. -1.
         11    1    3    3    0    0  0.85512474990E+01 -0.51851801425E+01  0.76000725970E+00  0.10029333886E+02  0.51100000000E-03 0.  1.
<mgrwt>
<rscale>  0 0.20001037E+02</rscale>
<asrwt>0</asrwt>
<pdfrwt beam="2">  1        3 0.14230638E-02 0.20001037E+02</pdfrwt>
<pdfrwt beam="1">  1       -3 0.16633894E-02 0.20001037E+02</pdfrwt>
<totfact> 0.17879672E+06</totfact>
</mgrwt>
</event>
<event>
 5    1  0.4133473E-007  0.2001096E+02  0.7818608E-02  0.1745110E+00
          3   -1    0    0  501    0  0.00000000000E+00  0.00000000000E+00  0.24550922628E+01  0.24568530723E+01  0.93000000000E-01 0.  1.
         -3   -1    0    0    0  501 -0.00000000000E+00 -0.00000000000E+00 -0.40759896989E+02  0.40760003086E+02  0.93000000000E-01 0. -1.
       1023    2    1    2    0    0  0.00000000000E+00  0.00000000000E+00 -0.38304804726E+02  0.43216856158E+02  0.20010961773E+02 0.  0.
        -11    1    3    3    0    0 -0.78048815001E+01  0.62597748720E+01 -0.18951068990E+02  0.21429978367E+02  0.51100000000E-03 0.  1.
         11    1    3    3    0    0  0.78048815001E+01 -0.62597748720E+01 -0.19353735737E+02  0.21786877792E+02  0.51100000000E-03 0. -1.
<mgrwt>
<rscale>  0 0.20010962E+02</rscale>
<asrwt>0</asrwt>
<pdfrwt beam="1">  1        3 0.37785014E-03 0.20010962E+02</pdfrwt>
<pdfrwt beam="2">  1       -3 0.62708965E-02 0.20010962E+02</pdfrwt>
<totfact> 0.16527522E+06</totfact>
</mgrwt>
</event>
<event>
 5    1  0.4133473E-007  0.2000107E+02  0.7818608E-02  0.1745307E+00
          3   -1    0    0  501    0  0.00000000000E+00  0.00000000000E+00  0.95872141131E+02  0.95872186237E+02  0.93000000000E-01 0. -1.
         -3   -1    0    0    0  501 -0.00000000000E+00 -0.00000000000E+00 -0.10410491861E+01  0.10451949138E+01  0.93000000000E-01 0.  1.
       1023    2    1    2    0    0  0.00000000000E+00  0.00000000000E+00  0.94831091944E+02  0.96917381151E+02  0.20001069218E+02 0.  0.
        -11    1    3    3    0    0  0.99276982998E+01  0.12021978624E+01  0.47797672948E+02  0.48832591706E+02  0.51100000000E-03 0. -1.
         11    1    3    3    0    0 -0.99276982998E+01 -0.12021978624E+01  0.47033418996E+02  0.48084789445E+02  0.51100000000E-03 0.  1.
<mgrwt>
<rscale>  0 0.20001069E+02</rscale>
<asrwt>0</asrwt>
<pdfrwt beam="1">  1        3 0.14749881E-01 0.20001069E+02</pdfrwt>
<pdfrwt beam="2">  1       -3 0.16048380E-03 0.20001069E+02</pdfrwt>
<totfact> 0.14284015E+06</totfact>
</mgrwt>
</event>
<event>
 5    1  0.4133473E-007  0.2000039E+02  0.7818608E-02  0.1745320E+00
         -3   -1    0    0    0  501 -0.00000000000E+00  0.00000000000E+00  0.40648597864E+02  0.40648704251E+02  0.93000000000E-01 0. -1.
          3   -1    0    0  501    0  0.00000000000E+00 -0.00000000000E+00 -0.24592157474E+01  0.24609736066E+01  0.93000000000E-01 0.  1.
       1023    2    1    2    0    0  0.00000000000E+00  0.00000000000E+00  0.38189382117E+02  0.43109677858E+02  0.20000385460E+02 0.  0.
        -11    1    3    3    0    0 -0.48400282829E+01  0.87508822169E+01  0.19108497219E+02  0.21567069332E+02  0.51100000000E-03 0.  1.
         11    1    3    3    0    0  0.48400282829E+01 -0.87508822169E+01  0.19080884898E+02  0.21542608526E+02  0.51100000000E-03 0. -1.
<mgrwt>
<rscale>  0 0.20000385E+02</rscale>
<asrwt>0</asrwt>
<pdfrwt beam="2">  1        3 0.37848431E-03 0.20000385E+02</pdfrwt>
<pdfrwt beam="1">  1       -3 0.62537735E-02 0.20000385E+02</pdfrwt>
<totfact> 0.16551806E+06</totfact>
</mgrwt>
</event>
<event>
 5    1  0.4133473E-007  0.2000041E+02  0.7818608E-02  0.1745320E+00
         -3   -1    0    0    0  501 -0.00000000000E+00  0.00000000000E+00  0.76178450475E+01  0.76184127066E+01  0.93000000000E-01 0.  1.
          3   -1    0    0  501    0  0.00000000000E+00 -0.00000000000E+00 -0.13126386087E+02  0.13126715534E+02  0.93000000000E-01 0. -1.
       1023    2    1    2    0    0  0.00000000000E+00  0.00000000000E+00 -0.55085410394E+01  0.20745128240E+02  0.20000408029E+02 0.  0.
        -11    1    3    3    0    0  0.50678913183E+01  0.86208522655E+01 -0.27145852919E+01  0.10362026335E+02  0.51100000000E-03 0. -1.
         11    1    3    3    0    0 -0.50678913183E+01 -0.86208522655E+01 -0.27939557475E+01  0.10383101905E+02  0.51100000000E-03 0.  1.
<mgrwt>
<rscale>  0 0.20000408E+02</rscale>
<asrwt>0</asrwt>
<pdfrwt beam="2">  1        3 0.20195130E-02 0.20000408E+02</pdfrwt>
<pdfrwt beam="1">  1       -3 0.11720452E-02 0.20000408E+02</pdfrwt>
<totfact> 0.17835950E+06</totfact>
</mgrwt>
</event>
<event>
 4    1  0.4133473E-007  0.2001615E+02  0.7818608E-02  0.1745007E+00
         -3   -1    0    0    0  501 -0.00000000000E+00  0.00000000000E+00  0.10087191779E+01  0.10129972260E+01  0.93000000000E-01 0.  1.
          3   -1    0    0  501    0  0.00000000000E+00 -0.00000000000E+00 -0.99081410545E+02  0.99081454191E+02  0.93000000000E-01 0. -1.
        -11    1    1    2    0    0  0.99594905693E+01 -0.95810170788E+00 -0.47893915810E+02  0.48927871230E+02  0.51100000000E-03 0. -1.
         11    1    1    2    0    0 -0.99594905693E+01  0.95810170788E+00 -0.50178775557E+02  0.51166580186E+02  0.51100000000E-03 0.  1.
<mgrwt>
<rscale>  0 0.20016154E+02</rscale>
<asrwt>0</asrwt>
<pdfrwt beam="2">  1        3 0.15243619E-01 0.20016154E+02</pdfrwt>
<pdfrwt beam="1">  1       -3 0.15552008E-03 0.20016154E+02</pdfrwt>
<totfact> 0.14150214E+06</totfact>
</mgrwt>
</event>
<event>
 5    1  0.4133473E-007  0.2000198E+02  0.7818608E-02  0.1745289E+00
         -3   -1    0    0    0  501 -0.00000000000E+00  0.00000000000E+00  0.28295786727E+01  0.28311065796E+01  0.93000000000E-01 0.  1.
          3   -1    0    0  501    0  0.00000000000E+00 -0.00000000000E+00 -0.35336816423E+02  0.35336938803E+02  0.93000000000E-01 0. -1.
       1023    2    1    2    0    0  0.00000000000E+00  0.00000000000E+00 -0.32507237751E+02  0.38168045382E+02  0.20001979455E+02 0.  0.
        -11    1    3    3    0    0 -0.99858971886E+01 -0.54738897272E+00 -0.16339338237E+02  0.19157028779E+02  0.51100000000E-03 0. -1.
         11    1    3    3    0    0  0.99858971886E+01  0.54738897272E+00 -0.16167899514E+02  0.19011016604E+02  0.51100000000E-03 0.  1.
<mgrwt>
<rscale>  0 0.20001979E+02</rscale>
<asrwt>0</asrwt>
<pdfrwt beam="2">  1        3 0.54365599E-02 0.20001979E+02</pdfrwt>
<pdfrwt beam="1">  1       -3 0.43544677E-03 0.20001979E+02</pdfrwt>
<totfact> 0.16805736E+06</totfact>
</mgrwt>
</event>
<event>
 5    1  0.4133473E-007  0.2000201E+02  0.7818608E-02  0.1745288E+00
         -3   -1    0    0    0  501 -0.00000000000E+00  0.00000000000E+00  0.10968056540E+01  0.11007414058E+01  0.93000000000E-01 0.  1.
          3   -1    0    0  501    0  0.00000000000E+00 -0.00000000000E+00 -0.91024881152E+02  0.91024928661E+02  0.93000000000E-01 0. -1.
       1023    2    1    2    0    0  0.00000000000E+00  0.00000000000E+00 -0.89928075498E+02  0.92125670067E+02  0.20002007961E+02 0.  0.
        -11    1    3    3    0    0 -0.71439541952E+00  0.99754035237E+01 -0.44815213239E+02  0.45917560630E+02  0.51100000000E-03 0. -1.
         11    1    3    3    0    0  0.71439541952E+00 -0.99754035237E+01 -0.45112862259E+02  0.46208109437E+02  0.51100000000E-03 0.  1.
<mgrwt>
<rscale>  0 0.20002008E+02</rscale>
<asrwt>0</asrwt>
<pdfrwt beam="2">  1        3 0.14004128E-01 0.20002008E+02</pdfrwt>
<pdfrwt beam="1">  1       -3 0.16904581E-03 0.20002008E+02</pdfrwt>
<totfact> 0.14453602E+06</totfact>
</mgrwt>
</event>
<event>
 5    1  0.4255753E-007  0.2000094E+02  0.7818608E-02  0.1745309E+00
          3   -1    0    0  501    0  0.00000000000E+00  0.00000000000E+00  0.25255048395E+01  0.25272165903E+01  0.93000000000E-01 0. -1.
         -3   -1    0    0    0  501 -0.00000000000E+00 -0.00000000000E+00 -0.39584565088E+02  0.39584674335E+02  0.93000000000E-01 0.  1.
       1023    2    1    2    0    0  0.00000000000E+00  0.00000000000E+00 -0.37059060248E+02  0.42111890925E+02  0.20000935248E+02 0.  0.
        -11    1    3    3    0    0 -0.75605133817E+01  0.65458361652E+01 -0.18520415035E+02  0.21047924055E+02  0.51100000000E-03 0. -1.
         11    1    3    3    0    0  0.75605133817E+01 -0.65458361652E+01 -0.18538645213E+02  0.21063966870E+02  0.51100000000E-03 0.  1.
<mgrwt>
<rscale>  0 0.20000935E+02</rscale>
<asrwt>0</asrwt>
<pdfrwt beam="1">  1        3 0.38867931E-03 0.20000935E+02</pdfrwt>
<pdfrwt beam="2">  1       -3 0.60900727E-02 0.20000935E+02</pdfrwt>
<totfact> 0.16602213E+06</totfact>
</mgrwt>
</event>
<event>
 5    1  0.4133473E-007  0.2000283E+02  0.7818608E-02  0.1745272E+00
         -3   -1    0    0    0  501 -0.00000000000E+00  0.00000000000E+00  0.43733600752E+01  0.43743487912E+01  0.93000000000E-01 0.  1.
          3   -1    0    0  501    0  0.00000000000E+00 -0.00000000000E+00 -0.22868513669E+02  0.22868702771E+02  0.93000000000E-01 0. -1.
       1023    2    1    2    0    0  0.00000000000E+00  0.00000000000E+00 -0.18495153594E+02  0.27243051562E+02  0.20002828599E+02 0.  0.
        -11    1    3    3    0    0  0.94296006494E+00 -0.99563252214E+01 -0.93884730540E+01  0.13717179453E+02  0.51100000000E-03 0. -1.
         11    1    3    3    0    0 -0.94296006494E+00  0.99563252214E+01 -0.91066805396E+01  0.13525872109E+02  0.51100000000E-03 0.  1.
<mgrwt>
<rscale>  0 0.20002829E+02</rscale>
<asrwt>0</asrwt>
<pdfrwt beam="2">  1        3 0.35183234E-02 0.20002829E+02</pdfrwt>
<pdfrwt beam="1">  1       -3 0.67291524E-03 0.20002829E+02</pdfrwt>
<totfact> 0.17424504E+06</totfact>
</mgrwt>
</event>
<event>
 5    1  0.4205001E-007  0.2000236E+02  0.7818608E-02  0.1745281E+00
         -3   -1    0    0    0  501 -0.00000000000E+00  0.00000000000E+00  0.98949617938E+01  0.98953988248E+01  0.93000000000E-01 0.  1.
          3   -1    0    0  501    0  0.00000000000E+00 -0.00000000000E+00 -0.10107668953E+02  0.10108096788E+02  0.93000000000E-01 0. -1.
       1023    2    1    2    0    0  0.00000000000E+00  0.00000000000E+00 -0.21270715961E+00  0.20003495613E+02  0.20002364670E+02 0.  0.
        -11    1    3    3    0    0 -0.18777352808E+01 -0.98223618068E+01 -0.24408059761E+00  0.10003212326E+02  0.51100000000E-03 0. -1.
         11    1    3    3    0    0  0.18777352808E+01  0.98223618068E+01  0.31373438000E-01  0.10000283286E+02  0.51100000000E-03 0.  1.
<mgrwt>
<rscale>  0 0.20002365E+02</rscale>
<asrwt>0</asrwt>
<pdfrwt beam="2">  1        3 0.15550925E-02 0.20002365E+02</pdfrwt>
<pdfrwt beam="1">  1       -3 0.15223683E-02 0.20002365E+02</pdfrwt>
<totfact> 0.17880834E+06</totfact>
</mgrwt>
</event>
<event>
 5    1  0.4133473E-007  0.2000029E+02  0.7818608E-02  0.1745322E+00
          3   -1    0    0  501    0  0.00000000000E+00  0.00000000000E+00  0.35046951756E+01  0.35059288746E+01  0.93000000000E-01 0.  1.
         -3   -1    0    0    0  501 -0.00000000000E+00 -0.00000000000E+00 -0.28527646488E+02  0.28527798077E+02  0.93000000000E-01 0. -1.
       1023    2    1    2    0    0  0.00000000000E+00  0.00000000000E+00 -0.25022951312E+02  0.32033726952E+02  0.20000289249E+02 0.  0.
        -11    1    3    3    0    0 -0.12152362139E+01  0.99259827108E+01 -0.12561112215E+02  0.16055636773E+02  0.51100000000E-03 0. -1.
         11    1    3    3    0    0  0.12152362139E+01 -0.99259827108E+01 -0.12461839097E+02  0.15978090179E+02  0.51100000000E-03 0.  1.
<mgrwt>
<rscale>  0 0.20000289E+02</rscale>
<asrwt>0</asrwt>
<pdfrwt beam="1">  1        3 0.53929045E-03 0.20000289E+02</pdfrwt>
<pdfrwt beam="2">  1       -3 0.43889751E-02 0.20000289E+02</pdfrwt>
<totfact> 0.17150244E+06</totfact>
</mgrwt>
</event>
<event>
 5    1  0.4344618E-007  0.2000114E+02  0.7818608E-02  0.1745305E+00
          3   -1    0    0  501    0  0.00000000000E+00  0.00000000000E+00  0.10382273806E+02  0.10382690325E+02  0.93000000000E-01 0. -1.
         -3   -1    0    0    0  501 -0.00000000000E+00 -0.00000000000E+00 -0.96320645684E+01  0.96325135271E+01  0.93000000000E-01 0.  1.
       1023    2    1    2    0    0  0.00000000000E+00  0.00000000000E+00  0.75020923805E+00  0.20015203852E+02  0.20001139251E+02 0.  0.
        -11    1    3    3    0    0 -0.52500771964E+01  0.85116105659E+01  0.35126385454E+00  0.10006708327E+02  0.51100000000E-03 0.  1.
         11    1    3    3    0    0  0.52500771964E+01 -0.85116105659E+01  0.39894538351E+00  0.10008495525E+02  0.51100000000E-03 0. -1.
<mgrwt>
<rscale>  0 0.20001139E+02</rscale>
<asrwt>0</asrwt>
<pdfrwt beam="1">  1        3 0.15973395E-02 0.20001139E+02</pdfrwt>
<pdfrwt beam="2">  1       -3 0.14819227E-02 0.20001139E+02</pdfrwt>
<totfact> 0.17882411E+06</totfact>
</mgrwt>
</event>
<event>
 5    1  0.4240172E-007  0.2000338E+02  0.7818608E-02  0.1745261E+00
          3   -1    0    0  501    0  0.00000000000E+00  0.00000000000E+00  0.93406087026E+01  0.93410716695E+01  0.93000000000E-01 0.  1.
         -3   -1    0    0    0  501 -0.00000000000E+00 -0.00000000000E+00 -0.10708625677E+02  0.10709029503E+02  0.93000000000E-01 0. -1.
       1023    2    1    2    0    0  0.00000000000E+00  0.00000000000E+00 -0.13680169748E+01  0.20050101173E+02  0.20003376880E+02 0.  0.
        -11    1    3    3    0    0  0.79741857176E+01  0.60346248395E+01 -0.51203682619E+00  0.10013316972E+02  0.51100000000E-03 0. -1.
         11    1    3    3    0    0 -0.79741857176E+01 -0.60346248395E+01 -0.85598014862E+00  0.10036784201E+02  0.51100000000E-03 0.  1.
<mgrwt>
<rscale>  0 0.20003377E+02</rscale>
<asrwt>0</asrwt>
<pdfrwt beam="1">  1        3 0.14370834E-02 0.20003377E+02</pdfrwt>
<pdfrwt beam="2">  1       -3 0.16475476E-02 0.20003377E+02</pdfrwt>
<totfact> 0.17875925E+06</totfact>
</mgrwt>
</event>
<event>
 5    1  0.4133473E-007  0.2000048E+02  0.7818608E-02  0.1745319E+00
         -3   -1    0    0    0  501 -0.00000000000E+00  0.00000000000E+00  0.22310952130E+02  0.22311145957E+02  0.93000000000E-01 0.  1.
          3   -1    0    0  501    0  0.00000000000E+00 -0.00000000000E+00 -0.44816223870E+01  0.44825872239E+01  0.93000000000E-01 0. -1.
       1023    2    1    2    0    0  0.00000000000E+00  0.00000000000E+00  0.17829329742E+02  0.26793733181E+02  0.20000478462E+02 0.  0.
        -11    1    3    3    0    0  0.97643601239E+01 -0.21588920266E+01  0.88674716305E+01  0.13365462835E+02  0.51100000000E-03 0. -1.
         11    1    3    3    0    0 -0.97643601239E+01  0.21588920266E+01  0.89618581120E+01  0.13428270346E+02  0.51100000000E-03 0.  1.
<mgrwt>
<rscale>  0 0.20000478E+02</rscale>
<asrwt>0</asrwt>
<pdfrwt beam="2">  1        3 0.68956949E-03 0.20000478E+02</pdfrwt>
<pdfrwt beam="1">  1       -3 0.34325434E-02 0.20000478E+02</pdfrwt>
<totfact> 0.17457419E+06</totfact>
</mgrwt>
</event>
<event>
 5    1  0.4133473E-007  0.2000488E+02  0.7818608E-02  0.1745231E+00
         -3   -1    0    0    0  501 -0.00000000000E+00  0.00000000000E+00  0.15963760917E+01  0.15990827452E+01  0.93000000000E-01 0. -1.
          3   -1    0    0  501    0  0.00000000000E+00 -0.00000000000E+00 -0.62616619210E+02  0.62616688273E+02  0.93000000000E-01 0.  1.
       1023    2    1    2    0    0  0.00000000000E+00  0.00000000000E+00 -0.61020243118E+02  0.64215771018E+02  0.20004878836E+02 0.  0.
        -11    1    3    3    0    0 -0.89188727439E+01  0.45262475540E+01 -0.30910872617E+02  0.32488694252E+02  0.51100000000E-03 0. -1.
         11    1    3    3    0    0  0.89188727439E+01 -0.45262475540E+01 -0.30109370501E+02  0.31727076767E+02  0.51100000000E-03 0.  1.
<mgrwt>
<rscale>  0 0.20004879E+02</rscale>
<asrwt>0</asrwt>
<pdfrwt beam="2">  1        3 0.96335377E-02 0.20004879E+02</pdfrwt>
<pdfrwt beam="1">  1       -3 0.24580989E-03 0.20004879E+02</pdfrwt>
<totfact> 0.15550158E+06</totfact>
</mgrwt>
</event>
<event>
 5    1  0.4240048E-007  0.2000186E+02  0.7818608E-02  0.1745291E+00
         -3   -1    0    0    0  501 -0.00000000000E+00  0.00000000000E+00  0.34677196434E+02  0.34677321141E+02  0.93000000000E-01 0.  1.
          3   -1    0    0  501    0  0.00000000000E+00 -0.00000000000E+00 -0.28833963489E+01  0.28848957528E+01  0.93000000000E-01 0. -1.
       1023    2    1    2    0    0  0.00000000000E+00  0.00000000000E+00  0.31793800085E+02  0.37562216894E+02  0.20001860267E+02 0.  0.
        -11    1    3    3    0    0 -0.22290281476E+01  0.97490004685E+01  0.16054318301E+02  0.18914352037E+02  0.51100000000E-03 0. -1.
         11    1    3    3    0    0  0.22290281476E+01 -0.97490004685E+01  0.15739481784E+02  0.18647864856E+02  0.51100000000E-03 0.  1.
<mgrwt>
<rscale>  0 0.20001860E+02</rscale>
<asrwt>0</asrwt>
<pdfrwt beam="2">  1        3 0.44372438E-03 0.20001860E+02</pdfrwt>
<pdfrwt beam="1">  1       -3 0.53350781E-02 0.20001860E+02</pdfrwt>
<totfact> 0.16840706E+06</totfact>
</mgrwt>
</event>
<event>
 5    1  0.4133473E-007  0.2000737E+02  0.7818608E-02  0.1745181E+00
         -3   -1    0    0    0  501 -0.00000000000E+00  0.00000000000E+00  0.23175816494E+02  0.23176003089E+02  0.93000000000E-01 0. -1.
          3   -1    0    0  501    0  0.00000000000E+00 -0.00000000000E+00 -0.43173197254E+01  0.43183212724E+01  0.93000000000E-01 0.  1.
       1023    2    1    2    0    0  0.00000000000E+00  0.00000000000E+00  0.18858496768E+02  0.27494324361E+02  0.20007372933E+02 0.  0.
        -11    1    3    3    0    0 -0.95620205130E+01  0.29393832223E+01  0.94830473122E+01  0.13784063138E+02  0.51100000000E-03 0.  1.
         11    1    3    3    0    0  0.95620205130E+01 -0.29393832223E+01  0.93754494563E+01  0.13710261222E+02  0.51100000000E-03 0. -1.
<mgrwt>
<rscale>  0 0.20007373E+02</rscale>
<asrwt>0</asrwt>
<pdfrwt beam="2">  1        3 0.66429443E-03 0.20007373E+02</pdfrwt>
<pdfrwt beam="1">  1       -3 0.35656016E-02 0.20007373E+02</pdfrwt>
<totfact> 0.17402381E+06</totfact>
</mgrwt>
</event>
<event>
 5    1  0.4133473E-007  0.2001051E+02  0.7818608E-02  0.1745119E+00
          3   -1    0    0  501    0  0.00000000000E+00  0.00000000000E+00  0.82539982546E+01  0.82545221659E+01  0.93000000000E-01 0. -1.
         -3   -1    0    0    0  501 -0.00000000000E+00 -0.00000000000E+00 -0.12126989345E+02  0.12127345941E+02  0.93000000000E-01 0.  1.
       1023    2    1    2    0    0  0.00000000000E+00  0.00000000000E+00 -0.38729910904E+01  0.20381868107E+02  0.20010509427E+02 0.  0.
        -11    1    3    3    0    0 -0.91999725037E+01  0.39284855986E+01 -0.17525098263E+01  0.10155972830E+02  0.51100000000E-03 0.  1.
         11    1    3    3    0    0  0.91999725037E+01 -0.39284855986E+01 -0.21204812641E+01  0.10225895277E+02  0.51100000000E-03 0. -1.
<mgrwt>
<rscale>  0 0.20010509E+02</rscale>
<asrwt>0</asrwt>
<pdfrwt beam="1">  1        3 0.12699136E-02 0.20010509E+02</pdfrwt>
<pdfrwt beam="2">  1       -3 0.18657584E-02 0.20010509E+02</pdfrwt>
<totfact> 0.17840593E+06</totfact>
</mgrwt>
</event>
<event>
 5    1  0.4133473E-007  0.2000051E+02  0.7818608E-02  0.1745318E+00
         -3   -1    0    0    0  501 -0.00000000000E+00  0.00000000000E+00  0.56808594535E+02  0.56808670659E+02  0.93000000000E-01 0.  1.
          3   -1    0    0  501    0  0.00000000000E+00 -0.00000000000E+00 -0.17590820398E+01  0.17615387088E+01  0.93000000000E-01 0. -1.
       1023    2    1    2    0    0  0.00000000000E+00  0.00000000000E+00  0.55049512496E+02  0.58570209368E+02  0.20000514979E+02 0.  0.
        -11    1    3    3    0    0  0.23518360528E+01  0.97197034180E+01  0.27415881380E+02  0.29182774362E+02  0.51100000000E-03 0.  1.
         11    1    3    3    0    0 -0.23518360528E+01 -0.97197034180E+01  0.27633631116E+02  0.29387435006E+02  0.51100000000E-03 0. -1.
<mgrwt>
<rscale>  0 0.20000515E+02</rscale>
<asrwt>0</asrwt>
<pdfrwt beam="2">  1        3 0.27082284E-03 0.20000515E+02</pdfrwt>
<pdfrwt beam="1">  1       -3 0.87399785E-02 0.20000515E+02</pdfrwt>
<totfact> 0.15809593E+06</totfact>
</mgrwt>
</event>
<event>
 5    1  0.4133473E-007  0.2000045E+02  0.7818608E-02  0.1745319E+00
          3   -1    0    0  501    0  0.00000000000E+00  0.00000000000E+00  0.34383597773E+02  0.34383723545E+02  0.93000000000E-01 0.  1.
         -3   -1    0    0    0  501 -0.00000000000E+00 -0.00000000000E+00 -0.29076202523E+01  0.29091071709E+01  0.93000000000E-01 0. -1.
       1023    2    1    2    0    0  0.00000000000E+00  0.00000000000E+00  0.31475977521E+02  0.37292830716E+02  0.20000451543E+02 0.  0.
        -11    1    3    3    0    0 -0.97226107924E+01  0.23393482391E+01  0.15836731818E+02  0.18729756692E+02  0.51100000000E-03 0.  1.
         11    1    3    3    0    0  0.97226107924E+01 -0.23393482391E+01  0.15639245703E+02  0.18563074024E+02  0.51100000000E-03 0. -1.
<mgrwt>
<rscale>  0 0.20000452E+02</rscale>
<asrwt>0</asrwt>
<pdfrwt beam="1">  1        3 0.52899078E-02 0.20000452E+02</pdfrwt>
<pdfrwt beam="2">  1       -3 0.44745029E-03 0.20000452E+02</pdfrwt>
<totfact> 0.16855703E+06</totfact>
</mgrwt>
</event>
<event>
 5    1  0.4133473E-007  0.2000052E+02  0.7818608E-02  0.1745318E+00
          3   -1    0    0  501    0  0.00000000000E+00  0.00000000000E+00  0.65410636321E+01  0.65417247297E+01  0.93000000000E-01 0. -1.
         -3   -1    0    0    0  501 -0.00000000000E+00 -0.00000000000E+00 -0.15287253855E+02  0.15287536735E+02  0.93000000000E-01 0.  1.
       1023    2    1    2    0    0  0.00000000000E+00  0.00000000000E+00 -0.87461902233E+01  0.21829261465E+02  0.20000520311E+02 0.  0.
        -11    1    3    3    0    0  0.99328773346E+01  0.11573987124E+01 -0.43078004272E+01  0.10888469530E+02  0.51100000000E-03 0.  1.
         11    1    3    3    0    0 -0.99328773346E+01 -0.11573987124E+01 -0.44383897961E+01  0.10940791935E+02  0.51100000000E-03 0. -1.
<mgrwt>
<rscale>  0 0.20000520E+02</rscale>
<asrwt>0</asrwt>
<pdfrwt beam="1">  1        3 0.10063901E-02 0.20000520E+02</pdfrwt>
<pdfrwt beam="2">  1       -3 0.23519578E-02 0.20000520E+02</pdfrwt>
<totfact> 0.17766161E+06</totfact>
</mgrwt>
</event>
<event>
 4    1  0.4133473E-007  0.2015934E+02  0.7818608E-02  0.1742178E+00
          3   -1    0    0  501    0  0.00000000000E+00  0.00000000000E+00  0.18005071499E+02  0.18005311680E+02  0.93000000000E-01 0. -1.
         -3   -1    0    0    0  501 -0.00000000000E+00 -0.00000000000E+00 -0.56421794313E+01  0.56429458384E+01  0.93000000000E-01 0.  1.
        -11    1    1    2    0    0  0.24530841006E+01 -0.97677717547E+01  0.66690228934E+01  0.12079025344E+02  0.51100000000E-03 0. -1.
         11    1    1    2    0    0 -0.24530841006E+01  0.97677717547E+01  0.56938691746E+01  0.11569232174E+02  0.51100000000E-03 0.  1.
<mgrwt>
<rscale>  0 0.20159340E+02</rscale>
<asrwt>0</asrwt>
<pdfrwt beam="1">  1        3 0.27700885E-02 0.20159340E+02</pdfrwt>
<pdfrwt beam="2">  1       -3 0.86810503E-03 0.20159340E+02</pdfrwt>
<totfact> 0.17351551E+06</totfact>
</mgrwt>
</event>
<event>
 5    1  0.4133473E-007  0.2000074E+02  0.7818608E-02  0.1745313E+00
          3   -1    0    0  501    0  0.00000000000E+00  0.00000000000E+00  0.27060461655E+02  0.27060621463E+02  0.93000000000E-01 0. -1.
         -3   -1    0    0    0  501 -0.00000000000E+00 -0.00000000000E+00 -0.36949476923E+01  0.36961178889E+01  0.93000000000E-01 0.  1.
       1023    2    1    2    0    0  0.00000000000E+00  0.00000000000E+00  0.23365513962E+02  0.30756739352E+02  0.20000744307E+02 0.  0.
        -11    1    3    3    0    0 -0.68638882543E+01 -0.72724733733E+01  0.11797957259E+02  0.15465885900E+02  0.51100000000E-03 0. -1.
         11    1    3    3    0    0  0.68638882543E+01  0.72724733733E+01  0.11567556704E+02  0.15290853452E+02  0.51100000000E-03 0.  1.
<mgrwt>
<rscale>  0 0.20000744E+02</rscale>
<asrwt>0</asrwt>
<pdfrwt beam="1">  1        3 0.41632503E-02 0.20000744E+02</pdfrwt>
<pdfrwt beam="2">  1       -3 0.56855579E-03 0.20000744E+02</pdfrwt>
<totfact> 0.17221054E+06</totfact>
</mgrwt>
</event>
<event>
 4    1  0.4133473E-007  0.2001512E+02  0.7818608E-02  0.1745028E+00
          3   -1    0    0  501    0  0.00000000000E+00  0.00000000000E+00  0.30988351936E+01  0.31002304039E+01  0.93000000000E-01 0.  1.
         -3   -1    0    0    0  501 -0.00000000000E+00 -0.00000000000E+00 -0.32310268759E+02  0.32310402602E+02  0.93000000000E-01 0. -1.
        -11    1    1    2    0    0  0.10016070443E+00  0.10002940067E+02 -0.14097778369E+02  0.17286300858E+02  0.51100000000E-03 0.  1.
         11    1    1    2    0    0 -0.10016070443E+00 -0.10002940067E+02 -0.15113655197E+02  0.18124332148E+02  0.51100000000E-03 0. -1.
<mgrwt>
<rscale>  0 0.20015121E+02</rscale>
<asrwt>0</asrwt>
<pdfrwt beam="1">  1        3 0.47686152E-03 0.20015121E+02</pdfrwt>
<pdfrwt beam="2">  1       -3 0.49709280E-02 0.20015121E+02</pdfrwt>
<totfact> 0.16933829E+06</totfact>
</mgrwt>
</event>
<event>
 5    1  0.4234657E-007  0.2000184E+02  0.7818608E-02  0.1745292E+00
         -3   -1    0    0    0  501 -0.00000000000E+00  0.00000000000E+00  0.23089646437E+02  0.23089833728E+02  0.93000000000E-01 0.  1.
          3   -1    0    0  501    0  0.00000000000E+00 -0.00000000000E+00 -0.43310372299E+01  0.43320356054E+01  0.93000000000E-01 0. -1.
       1023    2    1    2    0    0  0.00000000000E+00  0.00000000000E+00  0.18758609207E+02  0.27421869334E+02  0.20001837375E+02 0.  0.
        -11    1    3    3    0    0 -0.98853642486E+01  0.15130351799E+01  0.95069780182E+01  0.13798272830E+02  0.51100000000E-03 0. -1.
         11    1    3    3    0    0  0.98853642486E+01 -0.15130351799E+01  0.92516311892E+01  0.13623596504E+02  0.51100000000E-03 0.  1.
<mgrwt>
<rscale>  0 0.20001837E+02</rscale>
<asrwt>0</asrwt>
<pdfrwt beam="2">  1        3 0.66640463E-03 0.20001837E+02</pdfrwt>
<pdfrwt beam="1">  1       -3 0.35523445E-02 0.20001837E+02</pdfrwt>
<totfact> 0.17417089E+06</totfact>
</mgrwt>
</event>
<event>
 5    1  0.4133473E-007  0.2000084E+02  0.7818608E-02  0.1745311E+00
         -3   -1    0    0    0  501 -0.00000000000E+00  0.00000000000E+00  0.30782248749E+01  0.30796294226E+01  0.93000000000E-01 0.  1.
          3   -1    0    0  501    0  0.00000000000E+00 -0.00000000000E+00 -0.32480106461E+02  0.32480239604E+02  0.93000000000E-01 0. -1.
       1023    2    1    2    0    0  0.00000000000E+00  0.00000000000E+00 -0.29401881586E+02  0.35559869027E+02  0.20000841092E+02 0.  0.
        -11    1    3    3    0    0  0.92509898859E+01 -0.37983108987E+01 -0.14737863357E+02  0.17810463109E+02  0.51100000000E-03 0.  1.
         11    1    3    3    0    0 -0.92509898859E+01  0.37983108987E+01 -0.14664018229E+02  0.17749405918E+02  0.51100000000E-03 0. -1.
<mgrwt>
<rscale>  0 0.20000841E+02</rscale>
<asrwt>0</asrwt>
<pdfrwt beam="2">  1        3 0.49970575E-02 0.20000841E+02</pdfrwt>
<pdfrwt beam="1">  1       -3 0.47369136E-03 0.20000841E+02</pdfrwt>
<totfact> 0.16949599E+06</totfact>
</mgrwt>
</event>
<event>
 5    1  0.4133473E-007  0.2001008E+02  0.7818608E-02  0.1745128E+00
          3   -1    0    0  501    0  0.00000000000E+00  0.00000000000E+00  0.75054008920E+01  0.75059770549E+01  0.93000000000E-01 0.  1.
         -3   -1    0    0    0  501 -0.00000000000E+00 -0.00000000000E+00 -0.13335921440E+02  0.13336245711E+02  0.93000000000E-01 0. -1.
       1023    2    1    2    0    0  0.00000000000E+00  0.00000000000E+00 -0.58305205481E+01  0.20842222766E+02  0.20010079459E+02 0.  0.
        -11    1    3    3    0    0 -0.64513776117E+01  0.76440145356E+01 -0.31472054499E+01  0.10485997030E+02  0.51100000000E-03 0.  1.
         11    1    3    3    0    0  0.64513776117E+01 -0.76440145356E+01 -0.26833150982E+01  0.10356225736E+02  0.51100000000E-03 0. -1.
<mgrwt>
<rscale>  0 0.20010079E+02</rscale>
<asrwt>0</asrwt>
<pdfrwt beam="1">  1        3 0.11547463E-02 0.20010079E+02</pdfrwt>
<pdfrwt beam="2">  1       -3 0.20517495E-02 0.20010079E+02</pdfrwt>
<totfact> 0.17811542E+06</totfact>
</mgrwt>
</event>
<event>
 5    1  0.4170410E-007  0.2000128E+02  0.7818608E-02  0.1745303E+00
          3   -1    0    0  501    0  0.00000000000E+00  0.00000000000E+00  0.19540524636E+02  0.19540745944E+02  0.93000000000E-01 0. -1.
         -3   -1    0    0    0  501 -0.00000000000E+00 -0.00000000000E+00 -0.51175503012E+01  0.51183952647E+01  0.93000000000E-01 0.  1.
       1023    2    1    2    0    0  0.00000000000E+00  0.00000000000E+00  0.14422974335E+02  0.24659141209E+02  0.20001276372E+02 0.  0.
        -11    1    3    3    0    0  0.80249312298E+01 -0.59671497958E+01  0.73098545898E+01  0.12387105082E+02  0.51100000000E-03 0. -1.
         11    1    3    3    0    0 -0.80249312298E+01  0.59671497958E+01  0.71131197451E+01  0.12272036127E+02  0.51100000000E-03 0.  1.
<mgrwt>
<rscale>  0 0.20001276E+02</rscale>
<asrwt>0</asrwt>
<pdfrwt beam="1">  1        3 0.30063166E-02 0.20001276E+02</pdfrwt>
<pdfrwt beam="2">  1       -3 0.78739745E-03 0.20001276E+02</pdfrwt>
<totfact> 0.17585328E+06</totfact>
</mgrwt>
</event>
<event>
 5    1  0.4133473E-007  0.2000042E+02  0.7818608E-02  0.1745320E+00
          3   -1    0    0  501    0  0.00000000000E+00  0.00000000000E+00  0.91787617547E+00  0.92257556519E+00  0.93000000000E-01 0. -1.
         -3   -1    0    0    0  501 -0.00000000000E+00 -0.00000000000E+00 -0.10866886761E+03  0.10866890741E+03  0.93000000000E-01 0.  1.
       1023    2    1    2    0    0  0.00000000000E+00  0.00000000000E+00 -0.10775099143E+03  0.10959148297E+03  0.20000424609E+02 0.  0.
        -11    1    3    3    0    0  0.92103075632E+01  0.38953431803E+01 -0.54028721724E+02  0.54946394198E+02  0.51100000000E-03 0.  1.
         11    1    3    3    0    0 -0.92103075632E+01 -0.38953431803E+01 -0.53722269710E+02  0.54645088773E+02  0.51100000000E-03 0. -1.
<mgrwt>
<rscale>  0 0.20000425E+02</rscale>
<asrwt>0</asrwt>
<pdfrwt beam="1">  1        3 0.14157636E-03 0.20000425E+02</pdfrwt>
<pdfrwt beam="2">  1       -3 0.16718642E-01 0.20000425E+02</pdfrwt>
<totfact> 0.13856529E+06</totfact>
</mgrwt>
</event>
<event>
 5    1  0.4133473E-007  0.2000083E+02  0.7818608E-02  0.1745312E+00
         -3   -1    0    0    0  501 -0.00000000000E+00  0.00000000000E+00  0.95420296634E+02  0.95420341955E+02  0.93000000000E-01 0. -1.
          3   -1    0    0  501    0  0.00000000000E+00 -0.00000000000E+00 -0.10459728776E+01  0.10500991670E+01  0.93000000000E-01 0.  1.
       1023    2    1    2    0    0  0.00000000000E+00  0.00000000000E+00  0.94374323757E+02  0.96470441122E+02  0.20000825626E+02 0.  0.
        -11    1    3    3    0    0  0.99694774249E+01  0.78573064579E+00  0.47090287245E+02  0.48140450827E+02  0.51100000000E-03 0. -1.
         11    1    3    3    0    0 -0.99694774249E+01 -0.78573064579E+00  0.47284036512E+02  0.48329990295E+02  0.51100000000E-03 0.  1.
<mgrwt>
<rscale>  0 0.20000826E+02</rscale>
<asrwt>0</asrwt>
<pdfrwt beam="2">  1        3 0.16123984E-03 0.20000826E+02</pdfrwt>
<pdfrwt beam="1">  1       -3 0.14680362E-01 0.20000826E+02</pdfrwt>
<totfact> 0.14303011E+06</totfact>
</mgrwt>
</event>
<event>
 5    1  0.4133473E-007  0.2000940E+02  0.7818608E-02  0.1745141E+00
         -3   -1    0    0    0  501 -0.00000000000E+00  0.00000000000E+00  0.59844847931E+02  0.59844920193E+02  0.93000000000E-01 0.  1.
          3   -1    0    0  501    0  0.00000000000E+00 -0.00000000000E+00 -0.16711925114E+01  0.16737781843E+01  0.93000000000E-01 0. -1.
       1023    2    1    2    0    0  0.00000000000E+00  0.00000000000E+00  0.58173655420E+02  0.61518698377E+02  0.20009399420E+02 0.  0.
        -11    1    3    3    0    0 -0.75823274159E+01 -0.65253069323E+01  0.28623645601E+02  0.30321352334E+02  0.51100000000E-03 0. -1.
         11    1    3    3    0    0  0.75823274159E+01  0.65253069323E+01  0.29550009818E+02  0.31197346043E+02  0.51100000000E-03 0.  1.
<mgrwt>
<rscale>  0 0.20009399E+02</rscale>
<asrwt>0</asrwt>
<pdfrwt beam="2">  1        3 0.25731099E-03 0.20009399E+02</pdfrwt>
<pdfrwt beam="1">  1       -3 0.92071045E-02 0.20009399E+02</pdfrwt>
<totfact> 0.15663174E+06</totfact>
</mgrwt>
</event>
<event>
 5    1  0.4133473E-007  0.2000270E+02  0.7818608E-02  0.1745274E+00
          3   -1    0    0  501    0  0.00000000000E+00  0.00000000000E+00  0.65736461868E+01  0.65743040080E+01  0.93000000000E-01 0. -1.
         -3   -1    0    0    0  501 -0.00000000000E+00 -0.00000000000E+00 -0.15214801354E+02  0.15215085581E+02  0.93000000000E-01 0.  1.
       1023    2    1    2    0    0  0.00000000000E+00  0.00000000000E+00 -0.86411551674E+01  0.21789389589E+02  0.20002698219E+02 0.  0.
        -11    1    3    3    0    0  0.32756608294E+01 -0.94493247068E+01 -0.42275538544E+01  0.10857803790E+02  0.51100000000E-03 0.  1.
         11    1    3    3    0    0 -0.32756608294E+01  0.94493247068E+01 -0.44136013130E+01  0.10931585800E+02  0.51100000000E-03 0. -1.
<mgrwt>
<rscale>  0 0.20002698E+02</rscale>
<asrwt>0</asrwt>
<pdfrwt beam="1">  1        3 0.10114027E-02 0.20002698E+02</pdfrwt>
<pdfrwt beam="2">  1       -3 0.23408111E-02 0.20002698E+02</pdfrwt>
<totfact> 0.17764548E+06</totfact>
</mgrwt>
</event>
<event>
 5    1  0.4205753E-007  0.2000082E+02  0.7818608E-02  0.1745312E+00
          3   -1    0    0  501    0  0.00000000000E+00  0.00000000000E+00  0.77426992473E+01  0.77432577533E+01  0.93000000000E-01 0.  1.
         -3   -1    0    0    0  501 -0.00000000000E+00 -0.00000000000E+00 -0.12915254256E+02  0.12915589088E+02  0.93000000000E-01 0. -1.
       1023    2    1    2    0    0  0.00000000000E+00  0.00000000000E+00 -0.51725550084E+01  0.20658846841E+02  0.20000815671E+02 0.  0.
        -11    1    3    3    0    0  0.98187703475E+01  0.18959475511E+01 -0.26613911561E+01  0.10348230351E+02  0.51100000000E-03 0.  1.
         11    1    3    3    0    0 -0.98187703475E+01 -0.18959475511E+01 -0.25111638523E+01  0.10310616490E+02  0.51100000000E-03 0. -1.
<mgrwt>
<rscale>  0 0.20000816E+02</rscale>
<asrwt>0</asrwt>
<pdfrwt beam="1">  1        3 0.11912532E-02 0.20000816E+02</pdfrwt>
<pdfrwt beam="2">  1       -3 0.19870309E-02 0.20000816E+02</pdfrwt>
<totfact> 0.17841250E+06</totfact>
</mgrwt>
</event>
<event>
 4    1  0.4133473E-007  0.2002280E+02  0.7818608E-02  0.1744875E+00
         -3   -1    0    0    0  501 -0.00000000000E+00  0.00000000000E+00  0.11299092462E+01  0.11337300846E+01  0.93000000000E-01 0. -1.
          3   -1    0    0  501    0  0.00000000000E+00 -0.00000000000E+00 -0.88551033630E+02  0.88551082466E+02  0.93000000000E-01 0.  1.
        -11    1    1    2    0    0  0.92977574977E+01 -0.36993229619E+01 -0.42330957597E+02  0.43497623570E+02  0.51100000000E-03 0. -1.
         11    1    1    2    0    0 -0.92977574977E+01  0.36993229619E+01 -0.45090166786E+02  0.46187188981E+02  0.51100000000E-03 0.  1.
<mgrwt>
<rscale>  0 0.20022802E+02</rscale>
<asrwt>0</asrwt>
<pdfrwt beam="2">  1        3 0.13623528E-01 0.20022802E+02</pdfrwt>
<pdfrwt beam="1">  1       -3 0.17412993E-03 0.20022802E+02</pdfrwt>
<totfact> 0.14510144E+06</totfact>
</mgrwt>
</event>
<event>
 5    1  0.4133473E-007  0.2000035E+02  0.7818608E-02  0.1745321E+00
         -3   -1    0    0    0  501 -0.00000000000E+00  0.00000000000E+00  0.13441897183E+01  0.13474030573E+01  0.93000000000E-01 0.  1.
          3   -1    0    0  501    0  0.00000000000E+00 -0.00000000000E+00 -0.74304777377E+02  0.74304835576E+02  0.93000000000E-01 0. -1.
       1023    2    1    2    0    0  0.00000000000E+00  0.00000000000E+00 -0.72960587659E+02  0.75652238634E+02  0.20000346467E+02 0.  0.
        -11    1    3    3    0    0 -0.56453267087E+01  0.82542903403E+01 -0.36400790945E+02  0.37749445086E+02  0.51100000000E-03 0.  1.
         11    1    3    3    0    0  0.56453267087E+01 -0.82542903403E+01 -0.36559796714E+02  0.37902793547E+02  0.51100000000E-03 0. -1.
<mgrwt>
<rscale>  0 0.20000346E+02</rscale>
<asrwt>0</asrwt>
<pdfrwt beam="2">  1        3 0.11431753E-01 0.20000346E+02</pdfrwt>
<pdfrwt beam="1">  1       -3 0.20705013E-03 0.20000346E+02</pdfrwt>
<totfact> 0.15082212E+06</totfact>
</mgrwt>
</event>
<event>
 5    1  0.4133473E-007  0.2000278E+02  0.7818608E-02  0.1745273E+00
          3   -1    0    0  501    0  0.00000000000E+00  0.00000000000E+00  0.39329203919E+02  0.39329313876E+02  0.93000000000E-01 0. -1.
         -3   -1    0    0    0  501 -0.00000000000E+00 -0.00000000000E+00 -0.25423840150E+01  0.25440844090E+01  0.93000000000E-01 0.  1.
       1023    2    1    2    0    0  0.00000000000E+00  0.00000000000E+00  0.36786819904E+02  0.41873398285E+02  0.20002783937E+02 0.  0.
        -11    1    3    3    0    0 -0.99740648245E+01 -0.73663665237E+00  0.18512537107E+02  0.21041355305E+02  0.51100000000E-03 0.  1.
         11    1    3    3    0    0  0.99740648245E+01  0.73663665237E+00  0.18274282797E+02  0.20832042979E+02  0.51100000000E-03 0. -1.
<mgrwt>
<rscale>  0 0.20002784E+02</rscale>
<asrwt>0</asrwt>
<pdfrwt beam="1">  1        3 0.60507854E-02 0.20002784E+02</pdfrwt>
<pdfrwt beam="2">  1       -3 0.39127530E-03 0.20002784E+02</pdfrwt>
<totfact> 0.16608934E+06</totfact>
</mgrwt>
</event>
<event>
 5    1  0.4133473E-007  0.2000164E+02  0.7818608E-02  0.1745295E+00
          3   -1    0    0  501    0  0.00000000000E+00  0.00000000000E+00  0.60677531588E+02  0.60677602858E+02  0.93000000000E-01 0.  1.
         -3   -1    0    0    0  501 -0.00000000000E+00 -0.00000000000E+00 -0.16469434822E+01  0.16495671655E+01  0.93000000000E-01 0. -1.
       1023    2    1    2    0    0  0.00000000000E+00  0.00000000000E+00  0.59030588106E+02  0.62327170023E+02  0.20001644708E+02 0.  0.
        -11    1    3    3    0    0  0.50760506066E+01 -0.86164948427E+01  0.29760148364E+02  0.31395488594E+02  0.51100000000E-03 0.  1.
         11    1    3    3    0    0 -0.50760506066E+01  0.86164948427E+01  0.29270439742E+02  0.30931681430E+02  0.51100000000E-03 0. -1.
<mgrwt>
<rscale>  0 0.20001645E+02</rscale>
<asrwt>0</asrwt>
<pdfrwt beam="1">  1        3 0.93352118E-02 0.20001645E+02</pdfrwt>
<pdfrwt beam="2">  1       -3 0.25358323E-03 0.20001645E+02</pdfrwt>
<totfact> 0.15637853E+06</totfact>
</mgrwt>
</event>
<event>
 5    1  0.4133473E-007  0.2000003E+02  0.7818608E-02  0.1745328E+00
         -3   -1    0    0    0  501 -0.00000000000E+00  0.00000000000E+00  0.15507179632E+02  0.15507458501E+02  0.93000000000E-01 0.  1.
          3   -1    0    0  501    0  0.00000000000E+00 -0.00000000000E+00 -0.64479698591E+01  0.64486405004E+01  0.93000000000E-01 0. -1.
       1023    2    1    2    0    0  0.00000000000E+00  0.00000000000E+00  0.90592097731E+01  0.21956099001E+02  0.20000025041E+02 0.  0.
        -11    1    3    3    0    0 -0.97484991081E+01 -0.22286732369E+01  0.45235035556E+01  0.10975532057E+02  0.51100000000E-03 0. -1.
         11    1    3    3    0    0  0.97484991081E+01  0.22286732369E+01  0.45357062175E+01  0.10980566944E+02  0.51100000000E-03 0.  1.
<mgrwt>
<rscale>  0 0.20000025E+02</rscale>
<asrwt>0</asrwt>
<pdfrwt beam="2">  1        3 0.99206841E-03 0.20000025E+02</pdfrwt>
<pdfrwt beam="1">  1       -3 0.23857930E-02 0.20000025E+02</pdfrwt>
<totfact> 0.17758991E+06</totfact>
</mgrwt>
</event>
<event>
 5    1  0.4133473E-007  0.2000316E+02  0.7818608E-02  0.1745265E+00
          3   -1    0    0  501    0  0.00000000000E+00  0.00000000000E+00  0.32582521406E+02  0.32582654130E+02  0.93000000000E-01 0.  1.
         -3   -1    0    0    0  501 -0.00000000000E+00 -0.00000000000E+00 -0.30692566330E+01  0.30706652828E+01  0.93000000000E-01 0. -1.
       1023    2    1    2    0    0  0.00000000000E+00  0.00000000000E+00  0.29513264773E+02  0.35653319413E+02  0.20003159441E+02 0.  0.
        -11    1    3    3    0    0  0.82707124441E+01 -0.56236465123E+01  0.14825944299E+02  0.17884035032E+02  0.51100000000E-03 0. -1.
         11    1    3    3    0    0 -0.82707124441E+01  0.56236465123E+01  0.14687320474E+02  0.17769284381E+02  0.51100000000E-03 0.  1.
<mgrwt>
<rscale>  0 0.20003159E+02</rscale>
<asrwt>0</asrwt>
<pdfrwt beam="1">  1        3 0.50128145E-02 0.20003159E+02</pdfrwt>
<pdfrwt beam="2">  1       -3 0.47231187E-03 0.20003159E+02</pdfrwt>
<totfact> 0.16940234E+06</totfact>
</mgrwt>
</event>
<event>
 5    1  0.4239308E-007  0.2000107E+02  0.7818608E-02  0.1745307E+00
          3   -1    0    0  501    0  0.00000000000E+00  0.00000000000E+00  0.25960542640E+01  0.25977195272E+01  0.93000000000E-01 0.  1.
         -3   -1    0    0    0  501 -0.00000000000E+00 -0.00000000000E+00 -0.38510052728E+02  0.38510165023E+02  0.93000000000E-01 0. -1.
       1023    2    1    2    0    0  0.00000000000E+00  0.00000000000E+00 -0.35913998464E+02  0.41107884550E+02  0.20001072135E+02 0.  0.
        -11    1    3    3    0    0  0.40056827533E+01 -0.91629508281E+01 -0.17803757527E+02  0.20420062305E+02  0.51100000000E-03 0. -1.
         11    1    3    3    0    0 -0.40056827533E+01  0.91629508281E+01 -0.18110240937E+02  0.20687822245E+02  0.51100000000E-03 0.  1.
<mgrwt>
<rscale>  0 0.20001072E+02</rscale>
<asrwt>0</asrwt>
<pdfrwt beam="1">  1        3 0.39952973E-03 0.20001072E+02</pdfrwt>
<pdfrwt beam="2">  1       -3 0.59247598E-02 0.20001072E+02</pdfrwt>
<totfact> 0.16654064E+06</totfact>
</mgrwt>
</event>
<event>
 5    1  0.4218836E-007  0.2000192E+02  0.7818608E-02  0.1745290E+00
          3   -1    0    0  501    0  0.00000000000E+00  0.00000000000E+00  0.45426969366E+01  0.45436488044E+01  0.93000000000E-01 0.  1.
         -3   -1    0    0    0  501 -0.00000000000E+00 -0.00000000000E+00 -0.22014216465E+02  0.22014412906E+02  0.93000000000E-01 0. -1.
       1023    2    1    2    0    0  0.00000000000E+00  0.00000000000E+00 -0.17471519529E+02  0.26558061710E+02  0.20001916087E+02 0.  0.
        -11    1    3    3    0    0 -0.46446545760E+01  0.88564242945E+01 -0.88691606990E+01  0.13366790160E+02  0.51100000000E-03 0. -1.
         11    1    3    3    0    0  0.46446545760E+01 -0.88564242945E+01 -0.86023588299E+01  0.13191271550E+02  0.51100000000E-03 0.  1.
<mgrwt>
<rscale>  0 0.20001916E+02</rscale>
<asrwt>0</asrwt>
<pdfrwt beam="1">  1        3 0.69896479E-03 0.20001916E+02</pdfrwt>
<pdfrwt beam="2">  1       -3 0.33868908E-02 0.20001916E+02</pdfrwt>
<totfact> 0.17468965E+06</totfact>
</mgrwt>
</event>
<event>
 5    1  0.4270381E-007  0.2000083E+02  0.7818608E-02  0.1745312E+00
         -3   -1    0    0    0  501 -0.00000000000E+00  0.00000000000E+00  0.17309202681E+02  0.17309452518E+02  0.93000000000E-01 0. -1.
          3   -1    0    0  501    0  0.00000000000E+00 -0.00000000000E+00 -0.57770848978E+01  0.57778334102E+01  0.93000000000E-01 0.  1.
       1023    2    1    2    0    0  0.00000000000E+00  0.00000000000E+00  0.11532117783E+02  0.23087285928E+02  0.20000825757E+02 0.  0.
        -11    1    3    3    0    0 -0.53423240720E+01  0.84538631973E+01  0.57721698328E+01  0.11546695384E+02  0.51100000000E-03 0.  1.
         11    1    3    3    0    0  0.53423240720E+01 -0.84538631973E+01  0.57599479507E+01  0.11540590544E+02  0.51100000000E-03 0. -1.
<mgrwt>
<rscale>  0 0.20000826E+02</rscale>
<asrwt>0</asrwt>
<pdfrwt beam="2">  1        3 0.88885910E-03 0.20000826E+02</pdfrwt>
<pdfrwt beam="1">  1       -3 0.26630310E-02 0.20000826E+02</pdfrwt>
<totfact> 0.17685584E+06</totfact>
</mgrwt>
</event>
<event>
 4    1  0.4133473E-007  0.2002376E+02  0.7818608E-02  0.1744856E+00
          3   -1    0    0  501    0  0.00000000000E+00  0.00000000000E+00  0.26082139389E+02  0.26082305191E+02  0.93000000000E-01 0.  1.
         -3   -1    0    0    0  501 -0.00000000000E+00 -0.00000000000E+00 -0.38424138353E+01  0.38435391349E+01  0.93000000000E-01 0. -1.
        -11    1    1    2    0    0  0.78758161023E+01  0.61801337545E+01  0.10935856671E+02  0.14826175970E+02  0.51100000000E-03 0. -1.
         11    1    1    2    0    0 -0.78758161023E+01 -0.61801337545E+01  0.11303868882E+02  0.15099668356E+02  0.51100000000E-03 0.  1.
<mgrwt>
<rscale>  0 0.20023755E+02</rscale>
<asrwt>0</asrwt>
<pdfrwt beam="1">  1        3 0.40127360E-02 0.20023755E+02</pdfrwt>
<pdfrwt beam="2">  1       -3 0.59123993E-03 0.20023755E+02</pdfrwt>
<totfact> 0.17226664E+06</totfact>
</mgrwt>
</event>
<event>
 5    1  0.4133473E-007  0.2000248E+02  0.7818608E-02  0.1745279E+00
          3   -1    0    0  501    0  0.00000000000E+00  0.00000000000E+00  0.54812214049E+02  0.54812292945E+02  0.93000000000E-01 0. -1.
         -3   -1    0    0    0  501 -0.00000000000E+00 -0.00000000000E+00 -0.18235980801E+01  0.18259679510E+01  0.93000000000E-01 0.  1.
       1023    2    1    2    0    0  0.00000000000E+00  0.00000000000E+00  0.52988615969E+02  0.56638260896E+02  0.20002479224E+02 0.  0.
        -11    1    3    3    0    0  0.90582139552E+01  0.42394652166E+01  0.26556867592E+02  0.28377658853E+02  0.51100000000E-03 0.  1.
         11    1    3    3    0    0 -0.90582139552E+01 -0.42394652166E+01  0.26431748376E+02  0.28260602044E+02  0.51100000000E-03 0. -1.
<mgrwt>
<rscale>  0 0.20002479E+02</rscale>
<asrwt>0</asrwt>
<pdfrwt beam="1">  1        3 0.84328356E-02 0.20002479E+02</pdfrwt>
<pdfrwt beam="2">  1       -3 0.28074195E-03 0.20002479E+02</pdfrwt>
<totfact> 0.15891158E+06</totfact>
</mgrwt>
</event>
<event>
 4    1  0.4133473E-007  0.2002035E+02  0.7818608E-02  0.1744924E+00
         -3   -1    0    0    0  501 -0.00000000000E+00  0.00000000000E+00  0.45460929599E+01  0.45470441168E+01  0.93000000000E-01 0. -1.
          3   -1    0    0  501    0  0.00000000000E+00 -0.00000000000E+00 -0.22038343473E+02  0.22038539699E+02  0.93000000000E-01 0.  1.
        -11    1    1    2    0    0 -0.24415900460E+01  0.96999763487E+01 -0.92650483792E+01  0.13634222561E+02  0.51100000000E-03 0.  1.
         11    1    1    2    0    0  0.24415900460E+01 -0.96999763487E+01 -0.82272021342E+01  0.12951361254E+02  0.51100000000E-03 0. -1.
<mgrwt>
<rscale>  0 0.20020351E+02</rscale>
<asrwt>0</asrwt>
<pdfrwt beam="2">  1        3 0.33906026E-02 0.20020351E+02</pdfrwt>
<pdfrwt beam="1">  1       -3 0.69948719E-03 0.20020351E+02</pdfrwt>
<totfact> 0.17431305E+06</totfact>
</mgrwt>
</event>
<event>
 5    1  0.4133473E-007  0.2000069E+02  0.7818608E-02  0.1745314E+00
          3   -1    0    0  501    0  0.00000000000E+00  0.00000000000E+00  0.11498787224E+01  0.11536334237E+01  0.93000000000E-01 0.  1.
         -3   -1    0    0    0  501 -0.00000000000E+00 -0.00000000000E+00 -0.86826187090E+02  0.86826236896E+02  0.93000000000E-01 0. -1.
       1023    2    1    2    0    0  0.00000000000E+00  0.00000000000E+00 -0.85676308367E+02  0.87979870320E+02  0.20000694139E+02 0.  0.
        -11    1    3    3    0    0 -0.91382698500E+01 -0.40617684228E+01 -0.42977443529E+02  0.44125577516E+02  0.51100000000E-03 0.  1.
         11    1    3    3    0    0  0.91382698500E+01  0.40617684228E+01 -0.42698864839E+02  0.43854292804E+02  0.51100000000E-03 0. -1.
<mgrwt>
<rscale>  0 0.20000694E+02</rscale>
<asrwt>0</asrwt>
<pdfrwt beam="1">  1        3 0.17719714E-03 0.20000694E+02</pdfrwt>
<pdfrwt beam="2">  1       -3 0.13358162E-01 0.20000694E+02</pdfrwt>
<totfact> 0.14610413E+06</totfact>
</mgrwt>
</event>
<event>
 4    1  0.4133473E-007  0.2025659E+02  0.7818608E-02  0.1740273E+00
          3   -1    0    0  501    0  0.00000000000E+00  0.00000000000E+00  0.10528754893E+03  0.10528759000E+03  0.93000000000E-01 0.  1.
         -3   -1    0    0    0  501 -0.00000000000E+00 -0.00000000000E+00 -0.97204635090E+00  0.97648507838E+00  0.93000000000E-01 0. -1.
        -11    1    1    2    0    0  0.78078290731E+01  0.64353222831E+01  0.54543486687E+02  0.55474025525E+02  0.51100000000E-03 0. -1.
         11    1    1    2    0    0 -0.78078290731E+01 -0.64353222831E+01  0.49772015890E+02  0.50790049554E+02  0.51100000000E-03 0.  1.
<mgrwt>
<rscale>  0 0.20256593E+02</rscale>
<asrwt>0</asrwt>
<pdfrwt beam="1">  1        3 0.16198420E-01 0.20256593E+02</pdfrwt>
<pdfrwt beam="2">  1       -3 0.14989027E-03 0.20256593E+02</pdfrwt>
<totfact> 0.13587426E+06</totfact>
</mgrwt>
</event>
<event>
 5    1  0.4137183E-007  0.2000046E+02  0.7818608E-02  0.1745319E+00
          3   -1    0    0  501    0  0.00000000000E+00  0.00000000000E+00  0.11013656037E+02  0.11014048679E+02  0.93000000000E-01 0.  1.
         -3   -1    0    0    0  501 -0.00000000000E+00 -0.00000000000E+00 -0.90792583473E+01  0.90797346402E+01  0.93000000000E-01 0. -1.
       1023    2    1    2    0    0  0.00000000000E+00  0.00000000000E+00  0.19343976894E+01  0.20093783319E+02  0.20000455836E+02 0.  0.
        -11    1    3    3    0    0  0.89774477408E+01 -0.44055392944E+01  0.93219753934E+00  0.10043522137E+02  0.51100000000E-03 0.  1.
         11    1    3    3    0    0 -0.89774477408E+01  0.44055392944E+01  0.10022001501E+01  0.10050261181E+02  0.51100000000E-03 0. -1.
<mgrwt>
<rscale>  0 0.20000456E+02</rscale>
<asrwt>0</asrwt>
<pdfrwt beam="1">  1        3 0.16944755E-02 0.20000456E+02</pdfrwt>
<pdfrwt beam="2">  1       -3 0.13968758E-02 0.20000456E+02</pdfrwt>
<totfact> 0.17878568E+06</totfact>
</mgrwt>
</event>
<event>
 5    1  0.4133473E-007  0.2000003E+02  0.7818608E-02  0.1745327E+00
         -3   -1    0    0    0  501 -0.00000000000E+00  0.00000000000E+00  0.31589749473E+01  0.31603436075E+01  0.93000000000E-01 0. -1.
          3   -1    0    0  501    0  0.00000000000E+00 -0.00000000000E+00 -0.31647639890E+02  0.31647776535E+02  0.93000000000E-01 0.  1.
       1023    2    1    2    0    0  0.00000000000E+00  0.00000000000E+00 -0.28488664943E+02  0.34808120143E+02  0.20000029941E+02 0.  0.
        -11    1    3    3    0    0  0.19392052279E+01 -0.98101873335E+01 -0.14248842123E+02  0.17407750990E+02  0.51100000000E-03 0. -1.
         11    1    3    3    0    0 -0.19392052279E+01  0.98101873335E+01 -0.14239822820E+02  0.17400369152E+02  0.51100000000E-03 0.  1.
<mgrwt>
<rscale>  0 0.20000030E+02</rscale>
<asrwt>0</asrwt>
<pdfrwt beam="2">  1        3 0.48689832E-02 0.20000030E+02</pdfrwt>
<pdfrwt beam="1">  1       -3 0.48611196E-03 0.20000030E+02</pdfrwt>
<totfact> 0.16992632E+06</totfact>
</mgrwt>
</event>
<event>
 4    1  0.4133473E-007  0.2001304E+02  0.7818608E-02  0.1745069E+00
          3   -1    0    0  501    0  0.00000000000E+00  0.00000000000E+00  0.37145009028E+02  0.37145125450E+02  0.93000000000E-01 0.  1.
         -3   -1    0    0    0  501 -0.00000000000E+00 -0.00000000000E+00 -0.26947415683E+01  0.26963458829E+01  0.93000000000E-01 0. -1.
        -11    1    1    2    0    0 -0.61090304704E+01  0.79239432084E+01  0.16934262727E+02  0.19669224277E+02  0.51100000000E-03 0. -1.
         11    1    1    2    0    0  0.61090304704E+01 -0.79239432084E+01  0.17516004733E+02  0.20172247057E+02  0.51100000000E-03 0.  1.
<mgrwt>
<rscale>  0 0.20013043E+02</rscale>
<asrwt>0</asrwt>
<pdfrwt beam="1">  1        3 0.57147485E-02 0.20013043E+02</pdfrwt>
<pdfrwt beam="2">  1       -3 0.41470804E-03 0.20013043E+02</pdfrwt>
<totfact> 0.16696773E+06</totfact>
</mgrwt>
</event>
<event>
 5    1  0.4133473E-007  0.2000471E+02  0.7818608E-02  0.1745234E+00
         -3   -1    0    0    0  501 -0.00000000000E+00  0.00000000000E+00  0.13755767641E+01  0.13787169521E+01  0.93000000000E-01 0. -1.
          3   -1    0    0  501    0  0.00000000000E+00 -0.00000000000E+00 -0.72644927433E+02  0.72644986962E+02  0.93000000000E-01 0.  1.
       1023    2    1    2    0    0  0.00000000000E+00  0.00000000000E+00 -0.71269350669E+02  0.74023703914E+02  0.20004709356E+02 0.  0.
        -11    1    3    3    0    0  0.55762153794E+01  0.83012475455E+01 -0.36394908197E+02  0.37743797262E+02  0.51100000000E-03 0.  1.
         11    1    3    3    0    0 -0.55762153794E+01 -0.83012475455E+01 -0.34874442472E+02  0.36279906653E+02  0.51100000000E-03 0. -1.
<mgrwt>
<rscale>  0 0.20004709E+02</rscale>
<asrwt>0</asrwt>
<pdfrwt beam="2">  1        3 0.11176386E-01 0.20004709E+02</pdfrwt>
<pdfrwt beam="1">  1       -3 0.21187338E-03 0.20004709E+02</pdfrwt>
<totfact> 0.15140564E+06</totfact>
</mgrwt>
</event>
<event>
 5    1  0.4133473E-007  0.2000039E+02  0.7818608E-02  0.1745320E+00
         -3   -1    0    0    0  501 -0.00000000000E+00  0.00000000000E+00  0.52228582415E+01  0.52236861708E+01  0.93000000000E-01 0.  1.
          3   -1    0    0  501    0  0.00000000000E+00 -0.00000000000E+00 -0.19144891356E+02  0.19145117238E+02  0.93000000000E-01 0. -1.
       1023    2    1    2    0    0  0.00000000000E+00  0.00000000000E+00 -0.13922033115E+02  0.24368803409E+02  0.20000389334E+02 0.  0.
        -11    1    3    3    0    0  0.67710090120E+01  0.73589733446E+01 -0.70259638835E+01  0.12221506473E+02  0.51100000000E-03 0. -1.
         11    1    3    3    0    0 -0.67710090120E+01 -0.73589733446E+01 -0.68960692314E+01  0.12147296935E+02  0.51100000000E-03 0.  1.
<mgrwt>
<rscale>  0 0.20000389E+02</rscale>
<asrwt>0</asrwt>
<pdfrwt beam="2">  1        3 0.29454489E-02 0.20000389E+02</pdfrwt>
<pdfrwt beam="1">  1       -3 0.80359773E-03 0.20000389E+02</pdfrwt>
<totfact> 0.17605082E+06</totfact>
</mgrwt>
</event>
<event>
 5    1  0.4133473E-007  0.2000015E+02  0.7818608E-02  0.1745325E+00
          3   -1    0    0  501    0  0.00000000000E+00  0.00000000000E+00  0.84979338189E+02  0.84979389078E+02  0.93000000000E-01 0. -1.
         -3   -1    0    0    0  501 -0.00000000000E+00 -0.00000000000E+00 -0.11748856558E+01  0.11785606917E+01  0.93000000000E-01 0.  1.
       1023    2    1    2    0    0  0.00000000000E+00  0.00000000000E+00  0.83804452533E+02  0.86157949769E+02  0.20000151102E+02 0.  0.
        -11    1    3    3    0    0  0.63544095223E+01 -0.77215896093E+01  0.41873556681E+02  0.43051088440E+02  0.51100000000E-03 0.  1.
         11    1    3    3    0    0 -0.63544095223E+01  0.77215896093E+01  0.41930895852E+02  0.43106861329E+02  0.51100000000E-03 0. -1.
<mgrwt>
<rscale>  0 0.20000151E+02</rscale>
<asrwt>0</asrwt>
<pdfrwt beam="1">  1        3 0.13074033E-01 0.20000151E+02</pdfrwt>
<pdfrwt beam="2">  1       -3 0.18103822E-03 0.20000151E+02</pdfrwt>
<totfact> 0.14676288E+06</totfact>
</mgrwt>
</event>
<event>
 5    1  0.4133473E-007  0.2000024E+02  0.7818608E-02  0.1745323E+00
         -3   -1    0    0    0  501 -0.00000000000E+00  0.00000000000E+00  0.90650300626E+01  0.90655071031E+01  0.93000000000E-01 0.  1.
          3   -1    0    0  501    0  0.00000000000E+00 -0.00000000000E+00 -0.11030704002E+02  0.11031096037E+02  0.93000000000E-01 0. -1.
       1023    2    1    2    0    0  0.00000000000E+00  0.00000000000E+00 -0.19656739390E+01  0.20096603140E+02  0.20000239592E+02 0.  0.
        -11    1    3    3    0    0  0.38429585858E+01 -0.92322212405E+01 -0.97028897980E+00  0.10047074235E+02  0.51100000000E-03 0. -1.
         11    1    3    3    0    0 -0.38429585858E+01  0.92322212405E+01 -0.99538495925E+00  0.10049528905E+02  0.51100000000E-03 0.  1.
<mgrwt>
<rscale>  0 0.20000240E+02</rscale>
<asrwt>0</asrwt>
<pdfrwt beam="2">  1        3 0.16970982E-02 0.20000240E+02</pdfrwt>
<pdfrwt beam="1">  1       -3 0.13946869E-02 0.20000240E+02</pdfrwt>
<totfact> 0.17878800E+06</totfact>
</mgrwt>
</event>
<event>
 5    1  0.4297002E-007  0.2000117E+02  0.7818608E-02  0.1745305E+00
         -3   -1    0    0    0  501 -0.00000000000E+00  0.00000000000E+00  0.29255839691E+02  0.29255987507E+02  0.93000000000E-01 0.  1.
          3   -1    0    0  501    0  0.00000000000E+00 -0.00000000000E+00 -0.34177311831E+01  0.34189962621E+01  0.93000000000E-01 0. -1.
       1023    2    1    2    0    0  0.00000000000E+00  0.00000000000E+00  0.25838108508E+02  0.32674983769E+02  0.20001167792E+02 0.  0.
        -11    1    3    3    0    0  0.89261464783E+01 -0.45088729821E+01  0.12796242116E+02  0.16240376814E+02  0.51100000000E-03 0. -1.
         11    1    3    3    0    0 -0.89261464783E+01  0.45088729821E+01  0.13041866392E+02  0.16434606955E+02  0.51100000000E-03 0.  1.
<mgrwt>
<rscale>  0 0.20001168E+02</rscale>
<asrwt>0</asrwt>
<pdfrwt beam="2">  1        3 0.52591348E-03 0.20001168E+02</pdfrwt>
<pdfrwt beam="1">  1       -3 0.45010071E-02 0.20001168E+02</pdfrwt>
<totfact> 0.17112132E+06</totfact>
</mgrwt>
</event>
<event>
 5    1  0.4254382E-007  0.2000110E+02  0.7818608E-02  0.1745306E+00
         -3   -1    0    0    0  501 -0.00000000000E+00  0.00000000000E+00  0.46704056117E+01  0.46713314566E+01  0.93000000000E-01 0. -1.
          3   -1    0    0  501    0  0.00000000000E+00 -0.00000000000E+00 -0.21410627102E+02  0.21410829080E+02  0.93000000000E-01 0.  1.
       1023    2    1    2    0    0  0.00000000000E+00  0.00000000000E+00 -0.16740221490E+02  0.26082160536E+02  0.20001102038E+02 0.  0.
        -11    1    3    3    0    0  0.77698467514E+01 -0.62957535356E+01 -0.84524748082E+01  0.13093943706E+02  0.51100000000E-03 0. -1.
         11    1    3    3    0    0 -0.77698467514E+01  0.62957535356E+01 -0.82877466818E+01  0.12988216831E+02  0.51100000000E-03 0.  1.
<mgrwt>
<rscale>  0 0.20001102E+02</rscale>
<asrwt>0</asrwt>
<pdfrwt beam="2">  1        3 0.32940293E-02 0.20001102E+02</pdfrwt>
<pdfrwt beam="1">  1       -3 0.71861071E-03 0.20001102E+02</pdfrwt>
<totfact> 0.17498055E+06</totfact>
</mgrwt>
</event>
<event>
 5    1  0.4133473E-007  0.2000066E+02  0.7818608E-02  0.1745315E+00
         -3   -1    0    0    0  501 -0.00000000000E+00  0.00000000000E+00  0.92690967402E+02  0.92691014057E+02  0.93000000000E-01 0. -1.
          3   -1    0    0  501    0  0.00000000000E+00 -0.00000000000E+00 -0.10768736900E+01  0.10808820214E+01  0.93000000000E-01 0.  1.
       1023    2    1    2    0    0  0.00000000000E+00  0.00000000000E+00  0.91614093712E+02  0.93771896079E+02  0.20000658176E+02 0.  0.
        -11    1    3    3    0    0  0.61321184195E+01  0.78995869297E+01  0.45735690968E+02  0.46816234135E+02  0.51100000000E-03 0. -1.
         11    1    3    3    0    0 -0.61321184195E+01 -0.78995869297E+01  0.45878402744E+02  0.46955661944E+02  0.51100000000E-03 0.  1.
<mgrwt>
<rscale>  0 0.20000658E+02</rscale>
<asrwt>0</asrwt>
<pdfrwt beam="2">  1        3 0.16598475E-03 0.20000658E+02</pdfrwt>
<pdfrwt beam="1">  1       -3 0.14260465E-01 0.20000658E+02</pdfrwt>
<totfact> 0.14399280E+06</totfact>
</mgrwt>
</event>
<event>
 5    1  0.4133473E-007  0.2000050E+02  0.7818608E-02  0.1745318E+00
          3   -1    0    0  501    0  0.00000000000E+00  0.00000000000E+00  0.15894836357E+01  0.15922020061E+01  0.93000000000E-01 0. -1.
         -3   -1    0    0    0  501 -0.00000000000E+00 -0.00000000000E+00 -0.62860178700E+02  0.62860247495E+02  0.93000000000E-01 0.  1.
       1023    2    1    2    0    0  0.00000000000E+00  0.00000000000E+00 -0.61270695064E+02  0.64452449501E+02  0.20000504321E+02 0.  0.
        -11    1    3    3    0    0  0.90497064296E+01  0.42553231018E+01 -0.30606193532E+02  0.32198509965E+02  0.51100000000E-03 0.  1.
         11    1    3    3    0    0 -0.90497064296E+01 -0.42553231018E+01 -0.30664501532E+02  0.32253939537E+02  0.51100000000E-03 0. -1.
<mgrwt>
<rscale>  0 0.20000504E+02</rscale>
<asrwt>0</asrwt>
<pdfrwt beam="1">  1        3 0.24475039E-03 0.20000504E+02</pdfrwt>
<pdfrwt beam="2">  1       -3 0.96710092E-02 0.20000504E+02</pdfrwt>
<totfact> 0.15550054E+06</totfact>
</mgrwt>
</event>
<event>
 4    1  0.4133473E-007  0.2002932E+02  0.7818608E-02  0.1744746E+00
         -3   -1    0    0    0  501 -0.00000000000E+00  0.00000000000E+00  0.77892442594E+01  0.77897994283E+01  0.93000000000E-01 0.  1.
          3   -1    0    0  501    0  0.00000000000E+00 -0.00000000000E+00 -0.12874701546E+02  0.12875037433E+02  0.93000000000E-01 0. -1.
        -11    1    1    2    0    0 -0.39746128586E+01 -0.91875747249E+01 -0.28423296258E+01  0.10406147926E+02  0.51100000000E-03 0. -1.
         11    1    1    2    0    0  0.39746128586E+01  0.91875747249E+01 -0.22431276609E+01  0.10258688935E+02  0.51100000000E-03 0.  1.
<mgrwt>
<rscale>  0 0.20029319E+02</rscale>
<asrwt>0</asrwt>
<pdfrwt beam="2">  1        3 0.19807919E-02 0.20029319E+02</pdfrwt>
<pdfrwt beam="1">  1       -3 0.11984138E-02 0.20029319E+02</pdfrwt>
<totfact> 0.17785742E+06</totfact>
</mgrwt>
</event>
<event>
 5    1  0.4297933E-007  0.2000091E+02  0.7818608E-02  0.1745310E+00
          3   -1    0    0  501    0  0.00000000000E+00  0.00000000000E+00  0.65909307625E+01  0.65915868587E+01  0.93000000000E-01 0.  1.
         -3   -1    0    0    0  501 -0.00000000000E+00 -0.00000000000E+00 -0.15172196567E+02  0.15172481592E+02  0.93000000000E-01 0. -1.
       1023    2    1    2    0    0  0.00000000000E+00  0.00000000000E+00 -0.85812658043E+01  0.21764068451E+02  0.20000913797E+02 0.  0.
        -11    1    3    3    0    0  0.48811216576E+01  0.87279683002E+01 -0.42038623958E+01  0.10847821836E+02  0.51100000000E-03 0.  1.
         11    1    3    3    0    0 -0.48811216576E+01 -0.87279683002E+01 -0.43774034085E+01  0.10916246614E+02  0.51100000000E-03 0. -1.
<mgrwt>
<rscale>  0 0.20000914E+02</rscale>
<asrwt>0</asrwt>
<pdfrwt beam="1">  1        3 0.10140617E-02 0.20000914E+02</pdfrwt>
<pdfrwt beam="2">  1       -3 0.23342565E-02 0.20000914E+02</pdfrwt>
<totfact> 0.17769586E+06</totfact>
</mgrwt>
</event>
<event>
 5    1  0.4133473E-007  0.2000014E+02  0.7818608E-02  0.1745325E+00
         -3   -1    0    0    0  501 -0.00000000000E+00  0.00000000000E+00  0.84780773619E+00  0.85289328614E+00  0.93000000000E-01 0.  1.
          3   -1    0    0  501    0  0.00000000000E+00 -0.00000000000E+00 -0.11759512275E+03  0.11759515952E+03  0.93000000000E-01 0. -1.
       1023    2    1    2    0    0  0.00000000000E+00  0.00000000000E+00 -0.11674731501E+03  0.11844805281E+03  0.20000141292E+02 0.  0.
        -11    1    3    3    0    0  0.23885624682E+01  0.97105959924E+01 -0.58240244025E+02  0.59092528542E+02  0.51100000000E-03 0. -1.
         11    1    3    3    0    0 -0.23885624682E+01 -0.97105959924E+01 -0.58507070989E+02  0.59355524268E+02  0.51100000000E-03 0.  1.
<mgrwt>
<rscale>  0 0.20000141E+02</rscale>
<asrwt>0</asrwt>
<pdfrwt beam="2">  1        3 0.18091938E-01 0.20000141E+02</pdfrwt>
<pdfrwt beam="1">  1       -3 0.13082608E-03 0.20000141E+02</pdfrwt>
<totfact> 0.13569437E+06</totfact>
</mgrwt>
</event>
<event>
 5    1  0.4370088E-007  0.2000100E+02  0.7818608E-02  0.1745308E+00
          3   -1    0    0  501    0  0.00000000000E+00  0.00000000000E+00  0.31019324108E+01  0.31033262286E+01  0.93000000000E-01 0.  1.
         -3   -1    0    0    0  501 -0.00000000000E+00 -0.00000000000E+00 -0.32232487205E+02  0.32232621370E+02  0.93000000000E-01 0. -1.
       1023    2    1    2    0    0  0.00000000000E+00  0.00000000000E+00 -0.29130554794E+02  0.35335947599E+02  0.20000999228E+02 0.  0.
        -11    1    3    3    0    0  0.51754703806E+01 -0.85569150457E+01 -0.14457761769E+02  0.17579339134E+02  0.51100000000E-03 0.  1.
         11    1    3    3    0    0 -0.51754703806E+01  0.85569150457E+01 -0.14672793025E+02  0.17756608465E+02  0.51100000000E-03 0. -1.
<mgrwt>
<rscale>  0 0.20000999E+02</rscale>
<asrwt>0</asrwt>
<pdfrwt beam="1">  1        3 0.47733793E-03 0.20000999E+02</pdfrwt>
<pdfrwt beam="2">  1       -3 0.49589615E-02 0.20000999E+02</pdfrwt>
<totfact> 0.16963669E+06</totfact>
</mgrwt>
</event>
<event>
 5    1  0.4133473E-007  0.2000172E+02  0.7818608E-02  0.1745294E+00
          3   -1    0    0  501    0  0.00000000000E+00  0.00000000000E+00  0.50621486261E+02  0.50621571689E+02  0.93000000000E-01 0.  1.
         -3   -1    0    0    0  501 -0.00000000000E+00 -0.00000000000E+00 -0.19746047490E+01  0.19767935944E+01  0.93000000000E-01 0. -1.
       1023    2    1    2    0    0  0.00000000000E+00  0.00000000000E+00  0.48646881512E+02  0.52598365283E+02  0.20001723667E+02 0.  0.
        -11    1    3    3    0    0 -0.52118910031E+01  0.85352985950E+01  0.24202726154E+02  0.26187536797E+02  0.51100000000E-03 0.  1.
         11    1    3    3    0    0  0.52118910031E+01 -0.85352985950E+01  0.24444155358E+02  0.26410828486E+02  0.51100000000E-03 0. -1.
<mgrwt>
<rscale>  0 0.20001724E+02</rscale>
<asrwt>0</asrwt>
<pdfrwt beam="1">  1        3 0.77880957E-02 0.20001724E+02</pdfrwt>
<pdfrwt beam="2">  1       -3 0.30396030E-03 0.20001724E+02</pdfrwt>
<totfact> 0.16080136E+06</totfact>
</mgrwt>
</event>
<event>
 5    1  0.4285291E-007  0.2000209E+02  0.7818608E-02  0.1745287E+00
         -3   -1    0    0    0  501 -0.00000000000E+00  0.00000000000E+00  0.12238360250E+02  0.12238713601E+02  0.93000000000E-01 0. -1.
          3   -1    0    0  501    0  0.00000000000E+00 -0.00000000000E+00 -0.81720013253E+01  0.81725304931E+01  0.93000000000E-01 0.  1.
       1023    2    1    2    0    0  0.00000000000E+00  0.00000000000E+00  0.40663589251E+01  0.20411244095E+02  0.20002090155E+02 0.  0.
        -11    1    3    3    0    0 -0.50705630574E+01  0.86198993859E+01  0.21223000141E+01  0.10223376778E+02  0.51100000000E-03 0.  1.
         11    1    3    3    0    0  0.50705630574E+01 -0.86198993859E+01  0.19440589111E+01  0.10187867316E+02  0.51100000000E-03 0. -1.
<mgrwt>
<rscale>  0 0.20002090E+02</rscale>
<asrwt>0</asrwt>
<pdfrwt beam="2">  1        3 0.12572989E-02 0.20002090E+02</pdfrwt>
<pdfrwt beam="1">  1       -3 0.18828925E-02 0.20002090E+02</pdfrwt>
<totfact> 0.17854870E+06</totfact>
</mgrwt>
</event>
<event>
 5    1  0.4133473E-007  0.2000018E+02  0.7818608E-02  0.1745325E+00
         -3   -1    0    0    0  501 -0.00000000000E+00  0.00000000000E+00  0.10628697398E+03  0.10628701467E+03  0.93000000000E-01 0.  1.
          3   -1    0    0  501    0  0.00000000000E+00 -0.00000000000E+00 -0.93852678455E+00  0.94312328214E+00  0.93000000000E-01 0. -1.
       1023    2    1    2    0    0  0.00000000000E+00  0.00000000000E+00  0.10534844720E+03  0.10723013795E+03  0.20000178952E+02 0.  0.
        -11    1    3    3    0    0  0.54345592028E+01  0.83944831367E+01  0.52689769570E+02  0.53630342144E+02  0.51100000000E-03 0. -1.
         11    1    3    3    0    0 -0.54345592028E+01 -0.83944831367E+01  0.52658677630E+02  0.53599795810E+02  0.51100000000E-03 0.  1.
<mgrwt>
<rscale>  0 0.20000179E+02</rscale>
<asrwt>0</asrwt>
<pdfrwt beam="2">  1        3 0.14474552E-03 0.20000179E+02</pdfrwt>
<pdfrwt beam="1">  1       -3 0.16352190E-01 0.20000179E+02</pdfrwt>
<totfact> 0.13935073E+06</totfact>
</mgrwt>
</event>
<event>
 5    1  0.4224224E-007  0.2000184E+02  0.7818608E-02  0.1745291E+00
         -3   -1    0    0    0  501 -0.00000000000E+00  0.00000000000E+00  0.36706936497E+02  0.36707054308E+02  0.93000000000E-01 0.  1.
          3   -1    0    0  501    0  0.00000000000E+00 -0.00000000000E+00 -0.27238662553E+01  0.27254534259E+01  0.93000000000E-01 0. -1.
       1023    2    1    2    0    0  0.00000000000E+00  0.00000000000E+00  0.33983070242E+02  0.39432507734E+02  0.20001839994E+02 0.  0.
        -11    1    3    3    0    0  0.60077171642E+01  0.79953271473E+01  0.16948396569E+02  0.19679076915E+02  0.51100000000E-03 0.  1.
         11    1    3    3    0    0 -0.60077171642E+01 -0.79953271473E+01  0.17034673672E+02  0.19753430819E+02  0.51100000000E-03 0. -1.
<mgrwt>
<rscale>  0 0.20001840E+02</rscale>
<asrwt>0</asrwt>
<pdfrwt beam="2">  1        3 0.41918750E-03 0.20001840E+02</pdfrwt>
<pdfrwt beam="1">  1       -3 0.56473521E-02 0.20001840E+02</pdfrwt>
<totfact> 0.16740734E+06</totfact>
</mgrwt>
</event>
<event>
 4    1  0.4133473E-007  0.2002312E+02  0.7818608E-02  0.1744869E+00
          3   -1    0    0  501    0  0.00000000000E+00  0.00000000000E+00  0.55185210971E+01  0.55193046753E+01  0.93000000000E-01 0.  1.
         -3   -1    0    0    0  501 -0.00000000000E+00 -0.00000000000E+00 -0.18160528993E+02  0.18160767118E+02  0.93000000000E-01 0. -1.
        -11    1    1    2    0    0  0.21922474945E+01 -0.97683232057E+01 -0.64068696526E+01  0.11885876759E+02  0.51100000000E-03 0. -1.
         11    1    1    2    0    0 -0.21922474945E+01  0.97683232057E+01 -0.62351382439E+01  0.11794195034E+02  0.51100000000E-03 0.  1.
<mgrwt>
<rscale>  0 0.20023123E+02</rscale>
<asrwt>0</asrwt>
<pdfrwt beam="1">  1        3 0.84908185E-03 0.20023123E+02</pdfrwt>
<pdfrwt beam="2">  1       -3 0.27940061E-02 0.20023123E+02</pdfrwt>
<totfact> 0.17606037E+06</totfact>
</mgrwt>
</event>
<event>
 5    1  0.4133473E-007  0.2000322E+02  0.7818608E-02  0.1745264E+00
          3   -1    0    0  501    0  0.00000000000E+00  0.00000000000E+00  0.48213537203E+01  0.48222505841E+01  0.93000000000E-01 0. -1.
         -3   -1    0    0    0  501 -0.00000000000E+00 -0.00000000000E+00 -0.20744812815E+02  0.20745021276E+02  0.93000000000E-01 0.  1.
       1023    2    1    2    0    0  0.00000000000E+00  0.00000000000E+00 -0.15923459095E+02  0.25567271860E+02  0.20003220761E+02 0.  0.
        -11    1    3    3    0    0 -0.80117586147E+01  0.59849045859E+01 -0.77602384513E+01  0.12658145997E+02  0.51100000000E-03 0. -1.
         11    1    3    3    0    0  0.80117586147E+01 -0.59849045859E+01 -0.81632206434E+01  0.12909125863E+02  0.51100000000E-03 0.  1.
<mgrwt>
<rscale>  0 0.20003221E+02</rscale>
<asrwt>0</asrwt>
<pdfrwt beam="1">  1        3 0.74183176E-03 0.20003221E+02</pdfrwt>
<pdfrwt beam="2">  1       -3 0.31915947E-02 0.20003221E+02</pdfrwt>
<totfact> 0.17526855E+06</totfact>
</mgrwt>
</event>
<event>
 5    1  0.4133473E-007  0.2000461E+02  0.7818608E-02  0.1745237E+00
         -3   -1    0    0    0  501 -0.00000000000E+00  0.00000000000E+00  0.12657112986E+01  0.12691233555E+01  0.93000000000E-01 0.  1.
          3   -1    0    0  501    0  0.00000000000E+00 -0.00000000000E+00 -0.78933511988E+02  0.78933566775E+02  0.93000000000E-01 0. -1.
       1023    2    1    2    0    0  0.00000000000E+00  0.00000000000E+00 -0.77667800690E+02  0.80202690131E+02  0.20004605474E+02 0.  0.
        -11    1    3    3    0    0  0.84341945394E+01 -0.53752859758E+01 -0.38315440416E+02  0.39599271602E+02  0.51100000000E-03 0. -1.
         11    1    3    3    0    0 -0.84341945394E+01  0.53752859758E+01 -0.39352360274E+02  0.40603418529E+02  0.51100000000E-03 0.  1.
<mgrwt>
<rscale>  0 0.20004605E+02</rscale>
<asrwt>0</asrwt>
<pdfrwt beam="2">  1        3 0.12143880E-01 0.20004605E+02</pdfrwt>
<pdfrwt beam="1">  1       -3 0.19499156E-03 0.20004605E+02</pdfrwt>
<totfact> 0.14896174E+06</totfact>
</mgrwt>
</event>
<event>
 5    1  0.4133473E-007  0.2000081E+02  0.7818608E-02  0.1745312E+00
         -3   -1    0    0    0  501 -0.00000000000E+00  0.00000000000E+00  0.29428023792E+02  0.29428170743E+02  0.93000000000E-01 0. -1.
          3   -1    0    0  501    0  0.00000000000E+00 -0.00000000000E+00 -0.33976038468E+01  0.33988764173E+01  0.93000000000E-01 0.  1.
       1023    2    1    2    0    0  0.00000000000E+00  0.00000000000E+00  0.26030419945E+02  0.32827047160E+02  0.20000806553E+02 0.  0.
        -11    1    3    3    0    0  0.59236594950E+01 -0.80571720957E+01  0.12986714072E+02  0.16390927571E+02  0.51100000000E-03 0.  1.
         11    1    3    3    0    0 -0.59236594950E+01  0.80571720957E+01  0.13043705873E+02  0.16436119589E+02  0.51100000000E-03 0. -1.
<mgrwt>
<rscale>  0 0.20000807E+02</rscale>
<asrwt>0</asrwt>
<pdfrwt beam="2">  1        3 0.52281748E-03 0.20000807E+02</pdfrwt>
<pdfrwt beam="1">  1       -3 0.45274974E-02 0.20000807E+02</pdfrwt>
<totfact> 0.17104180E+06</totfact>
</mgrwt>
</event>
<event>
 5    1  0.4133473E-007  0.2000287E+02  0.7818608E-02  0.1745271E+00
          3   -1    0    0  501    0  0.00000000000E+00  0.00000000000E+00  0.16429512698E+01  0.16455813182E+01  0.93000000000E-01 0.  1.
         -3   -1    0    0    0  501 -0.00000000000E+00 -0.00000000000E+00 -0.60832195734E+02  0.60832266823E+02  0.93000000000E-01 0. -1.
       1023    2    1    2    0    0  0.00000000000E+00  0.00000000000E+00 -0.59189244464E+02  0.62477848141E+02  0.20002870997E+02 0.  0.
        -11    1    3    3    0    0 -0.32133009537E+01  0.94709852706E+01 -0.29400899428E+02  0.31055398121E+02  0.51100000000E-03 0. -1.
         11    1    3    3    0    0  0.32133009537E+01 -0.94709852706E+01 -0.29788345036E+02  0.31422450020E+02  0.51100000000E-03 0.  1.
<mgrwt>
<rscale>  0 0.20002871E+02</rscale>
<asrwt>0</asrwt>
<pdfrwt beam="1">  1        3 0.25296956E-03 0.20002871E+02</pdfrwt>
<pdfrwt beam="2">  1       -3 0.93590054E-02 0.20002871E+02</pdfrwt>
<totfact> 0.15631988E+06</totfact>
</mgrwt>
</event>
<event>
 5    1  0.4133473E-007  0.2000385E+02  0.7818608E-02  0.1745252E+00
          3   -1    0    0  501    0  0.00000000000E+00  0.00000000000E+00  0.18168286347E+02  0.18168524370E+02  0.93000000000E-01 0.  1.
         -3   -1    0    0    0  501 -0.00000000000E+00 -0.00000000000E+00 -0.55055479395E+01  0.55063333639E+01  0.93000000000E-01 0. -1.
       1023    2    1    2    0    0  0.00000000000E+00  0.00000000000E+00  0.12662738407E+02  0.23674857734E+02  0.20003848248E+02 0.  0.
        -11    1    3    3    0    0  0.22266278665E+01 -0.97493404874E+01  0.65396622578E+01  0.11948836525E+02  0.51100000000E-03 0.  1.
         11    1    3    3    0    0 -0.22266278665E+01  0.97493404874E+01  0.61230761496E+01  0.11726021209E+02  0.51100000000E-03 0. -1.
<mgrwt>
<rscale>  0 0.20003848E+02</rscale>
<asrwt>0</asrwt>
<pdfrwt beam="1">  1        3 0.27951996E-02 0.20003848E+02</pdfrwt>
<pdfrwt beam="2">  1       -3 0.84708612E-03 0.20003848E+02</pdfrwt>
<totfact> 0.17641868E+06</totfact>
</mgrwt>
</event>
<event>
 5    1  0.4172465E-007  0.2000170E+02  0.7818608E-02  0.1745294E+00
         -3   -1    0    0    0  501 -0.00000000000E+00  0.00000000000E+00  0.39775670494E+01  0.39786541233E+01  0.93000000000E-01 0.  1.
          3   -1    0    0  501    0  0.00000000000E+00 -0.00000000000E+00 -0.25140657301E+02  0.25140829313E+02  0.93000000000E-01 0. -1.
       1023    2    1    2    0    0  0.00000000000E+00  0.00000000000E+00 -0.21163090252E+02  0.29119483436E+02  0.20001698092E+02 0.  0.
        -11    1    3    3    0    0 -0.70007097005E+01  0.71419172957E+01 -0.10593046721E+02  0.14568100702E+02  0.51100000000E-03 0. -1.
         11    1    3    3    0    0  0.70007097005E+01 -0.71419172957E+01 -0.10570043531E+02  0.14551382734E+02  0.51100000000E-03 0.  1.
<mgrwt>
<rscale>  0 0.20001698E+02</rscale>
<asrwt>0</asrwt>
<pdfrwt beam="2">  1        3 0.38678902E-02 0.20001698E+02</pdfrwt>
<pdfrwt beam="1">  1       -3 0.61203026E-03 0.20001698E+02</pdfrwt>
<totfact> 0.17314860E+06</totfact>
</mgrwt>
</event>
<event>
 5    1  0.4133473E-007  0.2000037E+02  0.7818608E-02  0.1745321E+00
         -3   -1    0    0    0  501 -0.00000000000E+00  0.00000000000E+00  0.26900036677E+02  0.26900197438E+02  0.93000000000E-01 0.  1.
          3   -1    0    0  501    0  0.00000000000E+00 -0.00000000000E+00 -0.37168510202E+01  0.37180143231E+01  0.93000000000E-01 0. -1.
       1023    2    1    2    0    0  0.00000000000E+00  0.00000000000E+00  0.23183185657E+02  0.30618211761E+02  0.20000369853E+02 0.  0.
        -11    1    3    3    0    0 -0.94972960613E+01  0.31311498606E+01  0.11544002806E+02  0.15273072152E+02  0.51100000000E-03 0. -1.
         11    1    3    3    0    0  0.94972960613E+01 -0.31311498606E+01  0.11639182851E+02  0.15345139609E+02  0.51100000000E-03 0.  1.
<mgrwt>
<rscale>  0 0.20000370E+02</rscale>
<asrwt>0</asrwt>
<pdfrwt beam="2">  1        3 0.57192509E-03 0.20000370E+02</pdfrwt>
<pdfrwt beam="1">  1       -3 0.41385690E-02 0.20000370E+02</pdfrwt>
<totfact> 0.17231491E+06</totfact>
</mgrwt>
</event>
<event>
 4    1  0.4133473E-007  0.2003763E+02  0.7818608E-02  0.1744581E+00
          3   -1    0    0  501    0  0.00000000000E+00  0.00000000000E+00  0.60011530345E+01  0.60018736027E+01  0.93000000000E-01 0.  1.
         -3   -1    0    0    0  501 -0.00000000000E+00 -0.00000000000E+00 -0.16724374528E+02  0.16724633101E+02  0.93000000000E-01 0. -1.
        -11    1    1    2    0    0  0.63566811006E+01  0.77361345307E+01 -0.57569290385E+01  0.11549779405E+02  0.51100000000E-03 0.  1.
         11    1    1    2    0    0 -0.63566811006E+01 -0.77361345307E+01 -0.49662924552E+01  0.11176727298E+02  0.51100000000E-03 0. -1.
<mgrwt>
<rscale>  0 0.20037630E+02</rscale>
<asrwt>0</asrwt>
<pdfrwt beam="1">  1        3 0.92332964E-03 0.20037630E+02</pdfrwt>
<pdfrwt beam="2">  1       -3 0.25730560E-02 0.20037630E+02</pdfrwt>
<totfact> 0.17638406E+06</totfact>
</mgrwt>
</event>
<event>
 5    1  0.4133473E-007  0.2000369E+02  0.7818608E-02  0.1745255E+00
          3   -1    0    0  501    0  0.00000000000E+00  0.00000000000E+00  0.54663641491E+02  0.54663720602E+02  0.93000000000E-01 0.  1.
         -3   -1    0    0    0  501 -0.00000000000E+00 -0.00000000000E+00 -0.18287827254E+01  0.18311458862E+01  0.93000000000E-01 0. -1.
       1023    2    1    2    0    0  0.00000000000E+00  0.00000000000E+00  0.52834858765E+02  0.56494866488E+02  0.20003690628E+02 0.  0.
        -11    1    3    3    0    0 -0.57030789483E+01  0.82161987916E+01  0.26633945209E+02  0.28449922139E+02  0.51100000000E-03 0.  1.
         11    1    3    3    0    0  0.57030789483E+01 -0.82161987916E+01  0.26200913556E+02  0.28044944349E+02  0.51100000000E-03 0. -1.
<mgrwt>
<rscale>  0 0.20003691E+02</rscale>
<asrwt>0</asrwt>
<pdfrwt beam="1">  1        3 0.84099781E-02 0.20003691E+02</pdfrwt>
<pdfrwt beam="2">  1       -3 0.28153908E-03 0.20003691E+02</pdfrwt>
<totfact> 0.15895648E+06</totfact>
</mgrwt>
</event>
<event>
 5    1  0.4133473E-007  0.2000217E+02  0.7818608E-02  0.1745285E+00
          3   -1    0    0  501    0  0.00000000000E+00  0.00000000000E+00  0.35448290721E+01  0.35460488083E+01  0.93000000000E-01 0. -1.
         -3   -1    0    0    0  501 -0.00000000000E+00 -0.00000000000E+00 -0.28210073787E+02  0.28210227083E+02  0.93000000000E-01 0.  1.
       1023    2    1    2    0    0  0.00000000000E+00  0.00000000000E+00 -0.24665244715E+02  0.31756275891E+02  0.20002168923E+02 0.  0.
        -11    1    3    3    0    0  0.67950339820E+01  0.73381937708E+01 -0.12349685851E+02  0.15891391239E+02  0.51100000000E-03 0. -1.
         11    1    3    3    0    0 -0.67950339820E+01 -0.73381937708E+01 -0.12315558864E+02  0.15864884652E+02  0.51100000000E-03 0.  1.
<mgrwt>
<rscale>  0 0.20002169E+02</rscale>
<asrwt>0</asrwt>
<pdfrwt beam="1">  1        3 0.54546396E-03 0.20002169E+02</pdfrwt>
<pdfrwt beam="2">  1       -3 0.43401168E-02 0.20002169E+02</pdfrwt>
<totfact> 0.17162643E+06</totfact>
</mgrwt>
</event>
<event>
 5    1  0.4133473E-007  0.2000099E+02  0.7818608E-02  0.1745308E+00
          3   -1    0    0  501    0  0.00000000000E+00  0.00000000000E+00  0.17157136595E+01  0.17182323363E+01  0.93000000000E-01 0.  1.
         -3   -1    0    0    0  501 -0.00000000000E+00 -0.00000000000E+00 -0.58245246448E+02  0.58245320694E+02  0.93000000000E-01 0. -1.
       1023    2    1    2    0    0  0.00000000000E+00  0.00000000000E+00 -0.56529532788E+02  0.59963553030E+02  0.20000990345E+02 0.  0.
        -11    1    3    3    0    0 -0.35312705786E+01  0.93558077518E+01 -0.27982046630E+02  0.29715247676E+02  0.51100000000E-03 0. -1.
         11    1    3    3    0    0  0.35312705786E+01 -0.93558077518E+01 -0.28547486158E+02  0.30248305354E+02  0.51100000000E-03 0.  1.
<mgrwt>
<rscale>  0 0.20000990E+02</rscale>
<asrwt>0</asrwt>
<pdfrwt beam="1">  1        3 0.26415545E-03 0.20000990E+02</pdfrwt>
<pdfrwt beam="2">  1       -3 0.89610051E-02 0.20000990E+02</pdfrwt>
<totfact> 0.15746355E+06</totfact>
</mgrwt>
</event>
<event>
 5    1  0.4133473E-007  0.2000092E+02  0.7818608E-02  0.1745310E+00
         -3   -1    0    0    0  501 -0.00000000000E+00  0.00000000000E+00  0.12298374909E+01  0.12333487965E+01  0.93000000000E-01 0. -1.
          3   -1    0    0  501    0  0.00000000000E+00 -0.00000000000E+00 -0.81199554046E+02  0.81199607304E+02  0.93000000000E-01 0.  1.
       1023    2    1    2    0    0  0.00000000000E+00  0.00000000000E+00 -0.79969716556E+02  0.82432956101E+02  0.20000917117E+02 0.  0.
        -11    1    3    3    0    0  0.19687718987E+01  0.98046880310E+01 -0.40127685836E+02  0.41355037673E+02  0.51100000000E-03 0. -1.
         11    1    3    3    0    0 -0.19687718987E+01 -0.98046880310E+01 -0.39842030720E+02  0.41077918427E+02  0.51100000000E-03 0.  1.
<mgrwt>
<rscale>  0 0.20000917E+02</rscale>
<asrwt>0</asrwt>
<pdfrwt beam="2">  1        3 0.12492509E-01 0.20000917E+02</pdfrwt>
<pdfrwt beam="1">  1       -3 0.18948003E-03 0.20000917E+02</pdfrwt>
<totfact> 0.14816113E+06</totfact>
</mgrwt>
</event>
<event>
 5    1  0.4133473E-007  0.2000523E+02  0.7818608E-02  0.1745224E+00
          3   -1    0    0  501    0  0.00000000000E+00  0.00000000000E+00  0.12926400388E+01  0.12959811997E+01  0.93000000000E-01 0.  1.
         -3   -1    0    0    0  501 -0.00000000000E+00 -0.00000000000E+00 -0.77298262129E+02  0.77298318075E+02  0.93000000000E-01 0. -1.
       1023    2    1    2    0    0  0.00000000000E+00  0.00000000000E+00 -0.76005622090E+02  0.78594299274E+02  0.20005231543E+02 0.  0.
        -11    1    3    3    0    0 -0.16936891195E+01  0.98576656188E+01 -0.38398960848E+02  0.39680251369E+02  0.51100000000E-03 0.  1.
         11    1    3    3    0    0  0.16936891195E+01 -0.98576656188E+01 -0.37606661243E+02  0.38914047905E+02  0.51100000000E-03 0. -1.
<mgrwt>
<rscale>  0 0.20005232E+02</rscale>
<asrwt>0</asrwt>
<pdfrwt beam="1">  1        3 0.19912907E-03 0.20005232E+02</pdfrwt>
<pdfrwt beam="2">  1       -3 0.11892298E-01 0.20005232E+02</pdfrwt>
<totfact> 0.14960801E+06</totfact>
</mgrwt>
</event>
<event>
 5    1  0.4133473E-007  0.2000019E+02  0.7818608E-02  0.1745324E+00
         -3   -1    0    0    0  501 -0.00000000000E+00  0.00000000000E+00  0.17678343148E+01  0.17702788380E+01  0.93000000000E-01 0.  1.
          3   -1    0    0  501    0  0.00000000000E+00 -0.00000000000E+00 -0.56525893357E+02  0.56525969862E+02  0.93000000000E-01 0. -1.
       1023    2    1    2    0    0  0.00000000000E+00  0.00000000000E+00 -0.54758059042E+02  0.58296248700E+02  0.20000189559E+02 0.  0.
        -11    1    3    3    0    0 -0.44468879635E+01 -0.89569027201E+01 -0.27287948221E+02  0.29062571071E+02  0.51100000000E-03 0. -1.
         11    1    3    3    0    0  0.44468879635E+01  0.89569027201E+01 -0.27470110821E+02  0.29233677628E+02  0.51100000000E-03 0.  1.
<mgrwt>
<rscale>  0 0.20000190E+02</rscale>
<asrwt>0</asrwt>
<pdfrwt beam="2">  1        3 0.86964838E-02 0.20000190E+02</pdfrwt>
<pdfrwt beam="1">  1       -3 0.27216848E-03 0.20000190E+02</pdfrwt>
<totfact> 0.15819754E+06</totfact>
</mgrwt>
</event>
<event>
 5    1  0.4133473E-007  0.2000071E+02  0.7818608E-02  0.1745314E+00
         -3   -1    0    0    0  501 -0.00000000000E+00  0.00000000000E+00  0.19182721622E+01  0.19205252115E+01  0.93000000000E-01 0. -1.
          3   -1    0    0  501    0  0.00000000000E+00 -0.00000000000E+00 -0.52101040460E+02  0.52101123462E+02  0.93000000000E-01 0.  1.
       1023    2    1    2    0    0  0.00000000000E+00  0.00000000000E+00 -0.50182768298E+02  0.54021648674E+02  0.20000707272E+02 0.  0.
        -11    1    3    3    0    0  0.67723785858E+01  0.73577233473E+01 -0.25298287849E+02  0.27203025070E+02  0.51100000000E-03 0. -1.
         11    1    3    3    0    0 -0.67723785858E+01 -0.73577233473E+01 -0.24884480448E+02  0.26818623604E+02  0.51100000000E-03 0.  1.
<mgrwt>
<rscale>  0 0.20000707E+02</rscale>
<asrwt>0</asrwt>
<pdfrwt beam="2">  1        3 0.80157233E-02 0.20000707E+02</pdfrwt>
<pdfrwt beam="1">  1       -3 0.29529853E-03 0.20000707E+02</pdfrwt>
<totfact> 0.16015059E+06</totfact>
</mgrwt>
</event>
<event>
 5    1  0.4133473E-007  0.2000049E+02  0.7818608E-02  0.1745318E+00
          3   -1    0    0  501    0  0.00000000000E+00  0.00000000000E+00  0.20187221074E+01  0.20208631688E+01  0.93000000000E-01 0. -1.
         -3   -1    0    0    0  501 -0.00000000000E+00 -0.00000000000E+00 -0.49510250853E+02  0.49510338199E+02  0.93000000000E-01 0.  1.
       1023    2    1    2    0    0  0.00000000000E+00  0.00000000000E+00 -0.47491528746E+02  0.51531201367E+02  0.20000485288E+02 0.  0.
        -11    1    3    3    0    0  0.84529062099E+01  0.53434006421E+01 -0.23652908106E+02  0.25680023675E+02  0.51100000000E-03 0.  1.
         11    1    3    3    0    0 -0.84529062099E+01 -0.53434006421E+01 -0.23838620640E+02  0.25851177692E+02  0.51100000000E-03 0. -1.
<mgrwt>
<rscale>  0 0.20000485E+02</rscale>
<asrwt>0</asrwt>
<pdfrwt beam="1">  1        3 0.31074409E-03 0.20000485E+02</pdfrwt>
<pdfrwt beam="2">  1       -3 0.76171321E-02 0.20000485E+02</pdfrwt>
<totfact> 0.16135510E+06</totfact>
</mgrwt>
</event>
<event>
 5    1  0.4133473E-007  0.2000057E+02  0.7818608E-02  0.1745317E+00
          3   -1    0    0  501    0  0.00000000000E+00  0.00000000000E+00  0.55968947107E+02  0.55969024373E+02  0.93000000000E-01 0.  1.
         -3   -1    0    0    0  501 -0.00000000000E+00 -0.00000000000E+00 -0.17855176764E+01  0.17879380226E+01  0.93000000000E-01 0. -1.
       1023    2    1    2    0    0  0.00000000000E+00  0.00000000000E+00  0.54183429431E+02  0.57756962396E+02  0.20000567000E+02 0.  0.
        -11    1    3    3    0    0 -0.96897607056E+01 -0.24726398376E+01  0.27045193933E+02  0.28834838744E+02  0.51100000000E-03 0.  1.
         11    1    3    3    0    0  0.96897607056E+01  0.24726398376E+01  0.27138235498E+02  0.28922123651E+02  0.51100000000E-03 0. -1.
<mgrwt>
<rscale>  0 0.20000567E+02</rscale>
<asrwt>0</asrwt>
<pdfrwt beam="1">  1        3 0.86107987E-02 0.20000567E+02</pdfrwt>
<pdfrwt beam="2">  1       -3 0.27488717E-03 0.20000567E+02</pdfrwt>
<totfact> 0.15843502E+06</totfact>
</mgrwt>
</event>
<event>
 5    1  0.4133473E-007  0.2000138E+02  0.7818608E-02  0.1745301E+00
         -3   -1    0    0    0  501 -0.00000000000E+00  0.00000000000E+00  0.16701575372E+01  0.16727448100E+01  0.93000000000E-01 0. -1.
          3   -1    0    0  501    0  0.00000000000E+00 -0.00000000000E+00 -0.59833901572E+02  0.59833973847E+02  0.93000000000E-01 0.  1.
       1023    2    1    2    0    0  0.00000000000E+00  0.00000000000E+00 -0.58163744034E+02  0.61506718657E+02  0.20001382947E+02 0.  0.
        -11    1    3    3    0    0 -0.69141289640E+01  0.72255522237E+01 -0.29061146917E+02  0.30733760666E+02  0.51100000000E-03 0.  1.
         11    1    3    3    0    0  0.69141289640E+01 -0.72255522237E+01 -0.29102597117E+02  0.30772957991E+02  0.51100000000E-03 0. -1.
<mgrwt>
<rscale>  0 0.20001383E+02</rscale>
<asrwt>0</asrwt>
<pdfrwt beam="2">  1        3 0.92054185E-02 0.20001383E+02</pdfrwt>
<pdfrwt beam="1">  1       -3 0.25715194E-03 0.20001383E+02</pdfrwt>
<totfact> 0.15674404E+06</totfact>
</mgrwt>
</event>
<event>
 5    1  0.4133473E-007  0.2000029E+02  0.7818608E-02  0.1745322E+00
         -3   -1    0    0    0  501 -0.00000000000E+00  0.00000000000E+00  0.79651871085E+01  0.79657300151E+01  0.93000000000E-01 0.  1.
          3   -1    0    0  501    0  0.00000000000E+00 -0.00000000000E+00 -0.12553850077E+02  0.12554194548E+02  0.93000000000E-01 0. -1.
       1023    2    1    2    0    0  0.00000000000E+00  0.00000000000E+00 -0.45886629684E+01  0.20519924563E+02  0.20000286904E+02 0.  0.
        -11    1    3    3    0    0 -0.95971912429E+01 -0.28097775503E+01 -0.22491514263E+01  0.10249859123E+02  0.51100000000E-03 0.  1.
         11    1    3    3    0    0  0.95971912429E+01  0.28097775503E+01 -0.23395115420E+01  0.10270065440E+02  0.51100000000E-03 0. -1.
<mgrwt>
<rscale>  0 0.20000287E+02</rscale>
<asrwt>0</asrwt>
<pdfrwt beam="2">  1        3 0.19314298E-02 0.20000287E+02</pdfrwt>
<pdfrwt beam="1">  1       -3 0.12254817E-02 0.20000287E+02</pdfrwt>
<totfact> 0.17850872E+06</totfact>
</mgrwt>
</event>
<event>
 5    1  0.4133473E-007  0.2000026E+02  0.7818608E-02  0.1745323E+00
          3   -1    0    0  501    0  0.00000000000E+00  0.00000000000E+00  0.35695866187E+01  0.35707978980E+01  0.93000000000E-01 0. -1.
         -3   -1    0    0    0  501 -0.00000000000E+00 -0.00000000000E+00 -0.28009129038E+02  0.28009283434E+02  0.93000000000E-01 0.  1.
       1023    2    1    2    0    0  0.00000000000E+00  0.00000000000E+00 -0.24439542419E+02  0.31580081332E+02  0.20000257580E+02 0.  0.
        -11    1    3    3    0    0 -0.15902888492E+01 -0.98727442154E+01 -0.12298381547E+02  0.15850876503E+02  0.51100000000E-03 0.  1.
         11    1    3    3    0    0  0.15902888492E+01  0.98727442154E+01 -0.12141160872E+02  0.15729204829E+02  0.51100000000E-03 0. -1.
<mgrwt>
<rscale>  0 0.20000258E+02</rscale>
<asrwt>0</asrwt>
<pdfrwt beam="1">  1        3 0.54927224E-03 0.20000258E+02</pdfrwt>
<pdfrwt beam="2">  1       -3 0.43092017E-02 0.20000258E+02</pdfrwt>
<totfact> 0.17176275E+06</totfact>
</mgrwt>
</event>
<event>
 5    1  0.4133473E-007  0.2000198E+02  0.7818608E-02  0.1745289E+00
          3   -1    0    0  501    0  0.00000000000E+00  0.00000000000E+00  0.67983085977E+01  0.67989446821E+01  0.93000000000E-01 0.  1.
         -3   -1    0    0    0  501 -0.00000000000E+00 -0.00000000000E+00 -0.14710985573E+02  0.14711279534E+02  0.93000000000E-01 0. -1.
       1023    2    1    2    0    0  0.00000000000E+00  0.00000000000E+00 -0.79126769757E+01  0.21510224217E+02  0.20001982125E+02 0.  0.
        -11    1    3    3    0    0 -0.99297617311E+01 -0.11914897910E+01 -0.39537017552E+01  0.10754142169E+02  0.51100000000E-03 0. -1.
         11    1    3    3    0    0  0.99297617311E+01  0.11914897910E+01 -0.39589752206E+01  0.10756082048E+02  0.51100000000E-03 0.  1.
<mgrwt>
<rscale>  0 0.20001982E+02</rscale>
<asrwt>0</asrwt>
<pdfrwt beam="1">  1        3 0.10459652E-02 0.20001982E+02</pdfrwt>
<pdfrwt beam="2">  1       -3 0.22633001E-02 0.20001982E+02</pdfrwt>
<totfact> 0.17783847E+06</totfact>
</mgrwt>
</event>
<event>
 5    1  0.4133473E-007  0.2000452E+02  0.7818608E-02  0.1745238E+00
          3   -1    0    0  501    0  0.00000000000E+00  0.00000000000E+00  0.41731459904E+01  0.41741821303E+01  0.93000000000E-01 0.  1.
         -3   -1    0    0    0  501 -0.00000000000E+00 -0.00000000000E+00 -0.23969456320E+02  0.23969636737E+02  0.93000000000E-01 0. -1.
       1023    2    1    2    0    0  0.00000000000E+00  0.00000000000E+00 -0.19796310330E+02  0.28143818867E+02  0.20004515434E+02 0.  0.
        -11    1    3    3    0    0 -0.23030915913E+01 -0.97319207584E+01 -0.10144444994E+02  0.14245149246E+02  0.51100000000E-03 0. -1.
         11    1    3    3    0    0  0.23030915913E+01  0.97319207584E+01 -0.96518653355E+01  0.13898669621E+02  0.51100000000E-03 0.  1.
<mgrwt>
<rscale>  0 0.20004515E+02</rscale>
<asrwt>0</asrwt>
<pdfrwt beam="1">  1        3 0.64211606E-03 0.20004515E+02</pdfrwt>
<pdfrwt beam="2">  1       -3 0.36877022E-02 0.20004515E+02</pdfrwt>
<totfact> 0.17368953E+06</totfact>
</mgrwt>
</event>
<event>
 5    1  0.4309353E-007  0.2000210E+02  0.7818608E-02  0.1745286E+00
         -3   -1    0    0    0  501 -0.00000000000E+00  0.00000000000E+00  0.43947898208E+01  0.43957737168E+01  0.93000000000E-01 0.  1.
          3   -1    0    0  501    0  0.00000000000E+00 -0.00000000000E+00 -0.22755363979E+02  0.22755554021E+02  0.93000000000E-01 0. -1.
       1023    2    1    2    0    0  0.00000000000E+00  0.00000000000E+00 -0.18360574158E+02  0.27151327738E+02  0.20002097753E+02 0.  0.
        -11    1    3    3    0    0  0.18045489493E+01 -0.98360057866E+01 -0.93602244936E+01  0.13697343158E+02  0.51100000000E-03 0.  1.
         11    1    3    3    0    0 -0.18045489493E+01  0.98360057866E+01 -0.90003496642E+01  0.13453984580E+02  0.51100000000E-03 0. -1.
<mgrwt>
<rscale>  0 0.20002098E+02</rscale>
<asrwt>0</asrwt>
<pdfrwt beam="2">  1        3 0.35009155E-02 0.20002098E+02</pdfrwt>
<pdfrwt beam="1">  1       -3 0.67621182E-03 0.20002098E+02</pdfrwt>
<totfact> 0.17431393E+06</totfact>
</mgrwt>
</event>
<event>
 5    1  0.4133473E-007  0.2000706E+02  0.7818608E-02  0.1745188E+00
          3   -1    0    0  501    0  0.00000000000E+00  0.00000000000E+00  0.14217443949E+02  0.14217748114E+02  0.93000000000E-01 0.  1.
         -3   -1    0    0    0  501 -0.00000000000E+00 -0.00000000000E+00 -0.70378913915E+01  0.70385058242E+01  0.93000000000E-01 0. -1.
       1023    2    1    2    0    0  0.00000000000E+00  0.00000000000E+00  0.71795525576E+01  0.21256253939E+02  0.20007057669E+02 0.  0.
        -11    1    3    3    0    0 -0.38678320690E+01 -0.92254770425E+01  0.36239944819E+01  0.10639684574E+02  0.51100000000E-03 0.  1.
         11    1    3    3    0    0  0.38678320690E+01  0.92254770425E+01  0.35555580757E+01  0.10616569364E+02  0.51100000000E-03 0. -1.
<mgrwt>
<rscale>  0 0.20007058E+02</rscale>
<asrwt>0</asrwt>
<pdfrwt beam="1">  1        3 0.21873697E-02 0.20007058E+02</pdfrwt>
<pdfrwt beam="2">  1       -3 0.10828232E-02 0.20007058E+02</pdfrwt>
<totfact> 0.17789876E+06</totfact>
</mgrwt>
</event>
<event>
 5    1  0.4133473E-007  0.2000145E+02  0.7818608E-02  0.1745299E+00
          3   -1    0    0  501    0  0.00000000000E+00  0.00000000000E+00  0.19706908280E+01  0.19728840157E+01  0.93000000000E-01 0. -1.
         -3   -1    0    0    0  501 -0.00000000000E+00 -0.00000000000E+00 -0.50720545505E+02  0.50720630766E+02  0.93000000000E-01 0.  1.
       1023    2    1    2    0    0  0.00000000000E+00  0.00000000000E+00 -0.48749854677E+02  0.52693514782E+02  0.20001454173E+02 0.  0.
        -11    1    3    3    0    0 -0.83915767224E+01 -0.54396582052E+01 -0.24169155348E+02  0.26156385679E+02  0.51100000000E-03 0.  1.
         11    1    3    3    0    0  0.83915767224E+01  0.54396582052E+01 -0.24580699329E+02  0.26537129103E+02  0.51100000000E-03 0. -1.
<mgrwt>
<rscale>  0 0.20001454E+02</rscale>
<asrwt>0</asrwt>
<pdfrwt beam="1">  1        3 0.30335851E-03 0.20001454E+02</pdfrwt>
<pdfrwt beam="2">  1       -3 0.78033351E-02 0.20001454E+02</pdfrwt>
<totfact> 0.16078740E+06</totfact>
</mgrwt>
</event>
<event>
 5    1  0.4178998E-007  0.2000158E+02  0.7818608E-02  0.1745297E+00
         -3   -1    0    0    0  501 -0.00000000000E+00  0.00000000000E+00  0.23442793797E+01  0.23461233578E+01  0.93000000000E-01 0. -1.
          3   -1    0    0  501    0  0.00000000000E+00 -0.00000000000E+00 -0.42645117486E+02  0.42645218892E+02  0.93000000000E-01 0.  1.
       1023    2    1    2    0    0  0.00000000000E+00  0.00000000000E+00 -0.40300838106E+02  0.44991342250E+02  0.20001583073E+02 0.  0.
        -11    1    3    3    0    0 -0.76496958583E+01  0.64409152495E+01 -0.20402863414E+02  0.22721797282E+02  0.51100000000E-03 0. -1.
         11    1    3    3    0    0  0.76496958583E+01 -0.64409152495E+01 -0.19897974693E+02  0.22269544969E+02  0.51100000000E-03 0.  1.
<mgrwt>
<rscale>  0 0.20001583E+02</rscale>
<asrwt>0</asrwt>
<pdfrwt beam="2">  1        3 0.65609364E-02 0.20001583E+02</pdfrwt>
<pdfrwt beam="1">  1       -3 0.36080804E-03 0.20001583E+02</pdfrwt>
<totfact> 0.16451567E+06</totfact>
</mgrwt>
</event>
<event>
 5    1  0.4133473E-007  0.2000289E+02  0.7818608E-02  0.1745271E+00
         -3   -1    0    0    0  501 -0.00000000000E+00  0.00000000000E+00  0.17146065163E+01  0.17171268171E+01  0.93000000000E-01 0.  1.
          3   -1    0    0  501    0  0.00000000000E+00 -0.00000000000E+00 -0.58293894812E+02  0.58293968996E+02  0.93000000000E-01 0. -1.
       1023    2    1    2    0    0  0.00000000000E+00  0.00000000000E+00 -0.56579288295E+02  0.60011095813E+02  0.20002893708E+02 0.  0.
        -11    1    3    3    0    0  0.49741403097E+01 -0.86761039776E+01 -0.28619478185E+02  0.30316519983E+02  0.51100000000E-03 0. -1.
         11    1    3    3    0    0 -0.49741403097E+01  0.86761039776E+01 -0.27959810110E+02  0.29694575830E+02  0.51100000000E-03 0.  1.
<mgrwt>
<rscale>  0 0.20002894E+02</rscale>
<asrwt>0</asrwt>
<pdfrwt beam="2">  1        3 0.89684896E-02 0.20002894E+02</pdfrwt>
<pdfrwt beam="1">  1       -3 0.26398524E-03 0.20002894E+02</pdfrwt>
<totfact> 0.15738249E+06</totfact>
</mgrwt>
</event>
<event>
 5    1  0.4133473E-007  0.2000068E+02  0.7818608E-02  0.1745314E+00
          3   -1    0    0  501    0  0.00000000000E+00  0.00000000000E+00  0.26545666030E+02  0.26545828938E+02  0.93000000000E-01 0. -1.
         -3   -1    0    0    0  501 -0.00000000000E+00 -0.00000000000E+00 -0.37666028019E+01  0.37677507437E+01  0.93000000000E-01 0.  1.
       1023    2    1    2    0    0  0.00000000000E+00  0.00000000000E+00  0.22779063228E+02  0.30313579681E+02  0.20000684777E+02 0.  0.
        -11    1    3    3    0    0  0.81797387657E+01 -0.57531270243E+01  0.11365529535E+02  0.15138753539E+02  0.51100000000E-03 0. -1.
         11    1    3    3    0    0 -0.81797387657E+01  0.57531270243E+01  0.11413533693E+02  0.15174826143E+02  0.51100000000E-03 0.  1.
<mgrwt>
<rscale>  0 0.20000685E+02</rscale>
<asrwt>0</asrwt>
<pdfrwt beam="1">  1        3 0.40840496E-02 0.20000685E+02</pdfrwt>
<pdfrwt beam="2">  1       -3 0.57957818E-03 0.20000685E+02</pdfrwt>
<totfact> 0.17246860E+06</totfact>
</mgrwt>
</event>
<event>
 5    1  0.4133473E-007  0.2000060E+02  0.7818608E-02  0.1745316E+00
          3   -1    0    0  501    0  0.00000000000E+00  0.00000000000E+00  0.74903736771E+02  0.74903794505E+02  0.93000000000E-01 0.  1.
         -3   -1    0    0    0  501 -0.00000000000E+00 -0.00000000000E+00 -0.13334496845E+01  0.13366888422E+01  0.93000000000E-01 0. -1.
       1023    2    1    2    0    0  0.00000000000E+00  0.00000000000E+00  0.73570287086E+02  0.76240483347E+02  0.20000603967E+02 0.  0.
        -11    1    3    3    0    0  0.14407119809E+01 -0.98957536407E+01  0.36530904087E+02  0.37874906532E+02  0.51100000000E-03 0. -1.
         11    1    3    3    0    0 -0.14407119809E+01  0.98957536407E+01  0.37039383000E+02  0.38365576816E+02  0.51100000000E-03 0.  1.
<mgrwt>
<rscale>  0 0.20000604E+02</rscale>
<asrwt>0</asrwt>
<pdfrwt beam="1">  1        3 0.11523910E-01 0.20000604E+02</pdfrwt>
<pdfrwt beam="2">  1       -3 0.20539964E-03 0.20000604E+02</pdfrwt>
<totfact> 0.15058327E+06</totfact>
</mgrwt>
</event>
<event>
 5    1  0.4231052E-007  0.2000076E+02  0.7818608E-02  0.1745313E+00
         -3   -1    0    0    0  501 -0.00000000000E+00  0.00000000000E+00  0.10292028413E+02  0.10292448584E+02  0.93000000000E-01 0. -1.
          3   -1    0    0  501    0  0.00000000000E+00 -0.00000000000E+00 -0.97161557338E+01  0.97166008071E+01  0.93000000000E-01 0.  1.
       1023    2    1    2    0    0  0.00000000000E+00  0.00000000000E+00  0.57587267905E+00  0.20009049391E+02  0.20000760690E+02 0.  0.
        -11    1    3    3    0    0  0.45152237347E+01  0.89229976902E+01  0.30970841821E+00  0.10005151309E+02  0.51100000000E-03 0. -1.
         11    1    3    3    0    0 -0.45152237347E+01 -0.89229976902E+01  0.26616426084E+00  0.10003898082E+02  0.51100000000E-03 0.  1.
<mgrwt>
<rscale>  0 0.20000761E+02</rscale>
<asrwt>0</asrwt>
<pdfrwt beam="2">  1        3 0.14948597E-02 0.20000761E+02</pdfrwt>
<pdfrwt beam="1">  1       -3 0.15834555E-02 0.20000761E+02</pdfrwt>
<totfact> 0.17883600E+06</totfact>
</mgrwt>
</event>
<event>
 5    1  0.4133473E-007  0.2000103E+02  0.7818608E-02  0.1745308E+00
         -3   -1    0    0    0  501 -0.00000000000E+00  0.00000000000E+00  0.91309183077E+02  0.91309230438E+02  0.93000000000E-01 0. -1.
          3   -1    0    0  501    0  0.00000000000E+00 -0.00000000000E+00 -0.10932708737E+01  0.10972193050E+01  0.93000000000E-01 0.  1.
       1023    2    1    2    0    0  0.00000000000E+00  0.00000000000E+00  0.90215912203E+02  0.92406449743E+02  0.20001028459E+02 0.  0.
        -11    1    3    3    0    0 -0.39291835388E+01 -0.91961138200E+01  0.45373034848E+02  0.46462019804E+02  0.51100000000E-03 0. -1.
         11    1    3    3    0    0  0.39291835388E+01  0.91961138200E+01  0.44842877355E+02  0.45944429939E+02  0.51100000000E-03 0.  1.
<mgrwt>
<rscale>  0 0.20001028E+02</rscale>
<asrwt>0</asrwt>
<pdfrwt beam="2">  1        3 0.16850284E-03 0.20001028E+02</pdfrwt>
<pdfrwt beam="1">  1       -3 0.14047878E-01 0.20001028E+02</pdfrwt>
<totfact> 0.14447855E+06</totfact>
</mgrwt>
</event>
<event>
 4    1  0.4133473E-007  0.2002875E+02  0.7818608E-02  0.1744757E+00
         -3   -1    0    0    0  501 -0.00000000000E+00  0.00000000000E+00  0.53457959710E+01  0.53466048633E+01  0.93000000000E-01 0. -1.
          3   -1    0    0  501    0  0.00000000000E+00 -0.00000000000E+00 -0.18757769132E+02  0.18757999675E+02  0.93000000000E-01 0.  1.
        -11    1    1    2    0    0  0.31858074482E+01 -0.94850884064E+01 -0.72043322887E+01  0.12329585360E+02  0.51100000000E-03 0. -1.
         11    1    1    2    0    0 -0.31858074482E+01  0.94850884064E+01 -0.62076408718E+01  0.11775019177E+02  0.51100000000E-03 0.  1.
<mgrwt>
<rscale>  0 0.20028753E+02</rscale>
<asrwt>0</asrwt>
<pdfrwt beam="2">  1        3 0.28858906E-02 0.20028753E+02</pdfrwt>
<pdfrwt beam="1">  1       -3 0.82251011E-03 0.20028753E+02</pdfrwt>
<totfact> 0.17567862E+06</totfact>
</mgrwt>
</event>
<event>
 5    1  0.4133473E-007  0.2000100E+02  0.7818608E-02  0.1745308E+00
         -3   -1    0    0    0  501 -0.00000000000E+00  0.00000000000E+00  0.69231730089E+02  0.69231792553E+02  0.93000000000E-01 0. -1.
          3   -1    0    0  501    0  0.00000000000E+00 -0.00000000000E+00 -0.14430094336E+01  0.14460031900E+01  0.93000000000E-01 0.  1.
       1023    2    1    2    0    0  0.00000000000E+00  0.00000000000E+00  0.67788720656E+02  0.70677795743E+02  0.20001004050E+02 0.  0.
        -11    1    3    3    0    0 -0.54190508020E+01 -0.84044026224E+01  0.34246766596E+02  0.35676898934E+02  0.51100000000E-03 0.  1.
         11    1    3    3    0    0  0.54190508020E+01  0.84044026224E+01  0.33541954060E+02  0.35000896809E+02  0.51100000000E-03 0. -1.
<mgrwt>
<rscale>  0 0.20001004E+02</rscale>
<asrwt>0</asrwt>
<pdfrwt beam="2">  1        3 0.22223654E-03 0.20001004E+02</pdfrwt>
<pdfrwt beam="1">  1       -3 0.10651271E-01 0.20001004E+02</pdfrwt>
<totfact> 0.15286212E+06</totfact>
</mgrwt>
</event>
<event>
 5    1  0.4133473E-007  0.2000369E+02  0.7818608E-02  0.1745255E+00
         -3   -1    0    0    0  501 -0.00000000000E+00  0.00000000000E+00  0.12573542156E+02  0.12573886088E+02  0.93000000000E-01 0.  1.
          3   -1    0    0  501    0  0.00000000000E+00 -0.00000000000E+00 -0.79554209514E+01  0.79559645245E+01  0.93000000000E-01 0. -1.
       1023    2    1    2    0    0  0.00000000000E+00  0.00000000000E+00  0.46181212049E+01  0.20529850613E+02  0.20003692727E+02 0.  0.
        -11    1    3    3    0    0 -0.35229249391E+01 -0.93600117774E+01  0.21787976485E+01  0.10235623091E+02  0.51100000000E-03 0. -1.
         11    1    3    3    0    0  0.35229249391E+01  0.93600117774E+01  0.24393235565E+01  0.10294227522E+02  0.51100000000E-03 0.  1.
<mgrwt>
<rscale>  0 0.20003693E+02</rscale>
<asrwt>0</asrwt>
<pdfrwt beam="2">  1        3 0.12239792E-02 0.20003693E+02</pdfrwt>
<pdfrwt beam="1">  1       -3 0.19344594E-02 0.20003693E+02</pdfrwt>
<totfact> 0.17844082E+06</totfact>
</mgrwt>
</event>
<event>
 4    1  0.4133473E-007  0.2001279E+02  0.7818608E-02  0.1745074E+00
          3   -1    0    0  501    0  0.00000000000E+00  0.00000000000E+00  0.18908673495E+01  0.18931530137E+01  0.93000000000E-01 0.  1.
         -3   -1    0    0    0  501 -0.00000000000E+00 -0.00000000000E+00 -0.52919157923E+02  0.52919239642E+02  0.93000000000E-01 0. -1.
        -11    1    1    2    0    0 -0.95918877338E+01  0.28426080318E+01 -0.26083780116E+02  0.27936505080E+02  0.51100000000E-03 0.  1.
         11    1    1    2    0    0  0.95918877338E+01 -0.28426080318E+01 -0.24944510458E+02  0.26875887575E+02  0.51100000000E-03 0. -1.
<mgrwt>
<rscale>  0 0.20012795E+02</rscale>
<asrwt>0</asrwt>
<pdfrwt beam="1">  1        3 0.29108482E-03 0.20012795E+02</pdfrwt>
<pdfrwt beam="2">  1       -3 0.81415899E-02 0.20012795E+02</pdfrwt>
<totfact> 0.15960209E+06</totfact>
</mgrwt>
</event>
<event>
 5    1  0.4133473E-007  0.2000026E+02  0.7818608E-02  0.1745323E+00
         -3   -1    0    0    0  501 -0.00000000000E+00  0.00000000000E+00  0.12075574304E+02  0.12075932418E+02  0.93000000000E-01 0.  1.
          3   -1    0    0  501    0  0.00000000000E+00 -0.00000000000E+00 -0.82806559320E+01  0.82811781568E+01  0.93000000000E-01 0. -1.
       1023    2    1    2    0    0  0.00000000000E+00  0.00000000000E+00  0.37949183717E+01  0.20357110575E+02  0.20000263636E+02 0.  0.
        -11    1    3    3    0    0 -0.54475875804E+01 -0.83860820193E+01  0.18899771369E+01  0.10177160504E+02  0.51100000000E-03 0. -1.
         11    1    3    3    0    0  0.54475875804E+01  0.83860820193E+01  0.19049412349E+01  0.10179950071E+02  0.51100000000E-03 0.  1.
<mgrwt>
<rscale>  0 0.20000264E+02</rscale>
<asrwt>0</asrwt>
<pdfrwt beam="2">  1        3 0.12740148E-02 0.20000264E+02</pdfrwt>
<pdfrwt beam="1">  1       -3 0.18578484E-02 0.20000264E+02</pdfrwt>
<totfact> 0.17861908E+06</totfact>
</mgrwt>
</event>
<event>
 5    1  0.4133473E-007  0.2000036E+02  0.7818608E-02  0.1745321E+00
         -3   -1    0    0    0  501 -0.00000000000E+00  0.00000000000E+00  0.33295857987E+01  0.33308843557E+01  0.93000000000E-01 0.  1.
          3   -1    0    0  501    0  0.00000000000E+00 -0.00000000000E+00 -0.30027628158E+02  0.30027772175E+02  0.93000000000E-01 0. -1.
       1023    2    1    2    0    0  0.00000000000E+00  0.00000000000E+00 -0.26698042359E+02  0.33358656531E+02  0.20000362490E+02 0.  0.
        -11    1    3    3    0    0 -0.33436364827E+01 -0.94246063379E+01 -0.13311166178E+02  0.16649031649E+02  0.51100000000E-03 0. -1.
         11    1    3    3    0    0  0.33436364827E+01  0.94246063379E+01 -0.13386876181E+02  0.16709624882E+02  0.51100000000E-03 0.  1.
<mgrwt>
<rscale>  0 0.20000362E+02</rscale>
<asrwt>0</asrwt>
<pdfrwt beam="2">  1        3 0.46197459E-02 0.20000362E+02</pdfrwt>
<pdfrwt beam="1">  1       -3 0.51235496E-03 0.20000362E+02</pdfrwt>
<totfact> 0.17073080E+06</totfact>
</mgrwt>
</event>
<event>
 4    1  0.4133473E-007  0.2002142E+02  0.7818608E-02  0.1744903E+00
          3   -1    0    0  501    0  0.00000000000E+00  0.00000000000E+00  0.40579050060E+01  0.40589705638E+01  0.93000000000E-01 0. -1.
         -3   -1    0    0    0  501 -0.00000000000E+00 -0.00000000000E+00 -0.24691669999E+02  0.24691845139E+02  0.93000000000E-01 0.  1.
        -11    1    1    2    0    0  0.64691618259E+01  0.76333564279E+01 -0.10762045970E+02  0.14694890908E+02  0.51100000000E-03 0.  1.
         11    1    1    2    0    0 -0.64691618259E+01 -0.76333564279E+01 -0.98717190233E+01  0.14055924794E+02  0.51100000000E-03 0. -1.
<mgrwt>
<rscale>  0 0.20021417E+02</rscale>
<asrwt>0</asrwt>
<pdfrwt beam="1">  1        3 0.62438853E-03 0.20021417E+02</pdfrwt>
<pdfrwt beam="2">  1       -3 0.37988138E-02 0.20021417E+02</pdfrwt>
<totfact> 0.17301485E+06</totfact>
</mgrwt>
</event>
<event>
 5    1  0.4133473E-007  0.2000022E+02  0.7818608E-02  0.1745324E+00
          3   -1    0    0  501    0  0.00000000000E+00  0.00000000000E+00  0.10360225796E+01  0.10401883413E+01  0.93000000000E-01 0. -1.
         -3   -1    0    0    0  501 -0.00000000000E+00 -0.00000000000E+00 -0.96327211204E+02  0.96327256097E+02  0.93000000000E-01 0.  1.
       1023    2    1    2    0    0  0.00000000000E+00  0.00000000000E+00 -0.95291188624E+02  0.97367444439E+02  0.20000215178E+02 0.  0.
        -11    1    3    3    0    0 -0.82127283006E+01  0.57055370746E+01 -0.47692308862E+02  0.48729440632E+02  0.51100000000E-03 0. -1.
         11    1    3    3    0    0  0.82127283006E+01 -0.57055370746E+01 -0.47598879762E+02  0.48638003806E+02  0.51100000000E-03 0.  1.
<mgrwt>
<rscale>  0 0.20000215E+02</rscale>
<asrwt>0</asrwt>
<pdfrwt beam="1">  1        3 0.15971206E-03 0.20000215E+02</pdfrwt>
<pdfrwt beam="2">  1       -3 0.14819888E-01 0.20000215E+02</pdfrwt>
<totfact> 0.14272355E+06</totfact>
</mgrwt>
</event>
<event>
 5    1  0.4240710E-007  0.2000108E+02  0.7818608E-02  0.1745307E+00
         -3   -1    0    0    0  501 -0.00000000000E+00  0.00000000000E+00  0.39752036210E+02  0.39752144996E+02  0.93000000000E-01 0. -1.
          3   -1    0    0  501    0  0.00000000000E+00 -0.00000000000E+00 -0.25148946670E+01  0.25166136347E+01  0.93000000000E-01 0.  1.
       1023    2    1    2    0    0  0.00000000000E+00  0.00000000000E+00  0.37237141543E+02  0.42268758631E+02  0.20001081119E+02 0.  0.
        -11    1    3    3    0    0  0.10961956047E+01  0.99401798320E+01  0.18524265181E+02  0.21051299738E+02  0.51100000000E-03 0.  1.
         11    1    3    3    0    0 -0.10961956047E+01 -0.99401798320E+01  0.18712876361E+02  0.21217458893E+02  0.51100000000E-03 0. -1.
<mgrwt>
<rscale>  0 0.20001081E+02</rscale>
<asrwt>0</asrwt>
<pdfrwt beam="2">  1        3 0.38704747E-03 0.20001081E+02</pdfrwt>
<pdfrwt beam="1">  1       -3 0.61158384E-02 0.20001081E+02</pdfrwt>
<totfact> 0.16593857E+06</totfact>
</mgrwt>
</event>
<event>
 5    1  0.4133473E-007  0.2000044E+02  0.7818608E-02  0.1745319E+00
         -3   -1    0    0    0  501 -0.00000000000E+00  0.00000000000E+00  0.74371967144E+01  0.74377781607E+01  0.93000000000E-01 0.  1.
          3   -1    0    0  501    0  0.00000000000E+00 -0.00000000000E+00 -0.13445249232E+02  0.13445570866E+02  0.93000000000E-01 0. -1.
       1023    2    1    2    0    0  0.00000000000E+00  0.00000000000E+00 -0.60080525173E+01  0.20883349026E+02  0.20000439283E+02 0.  0.
        -11    1    3    3    0    0  0.62294333362E+01 -0.78229488465E+01 -0.30091703105E+01  0.10443154435E+02  0.51100000000E-03 0.  1.
         11    1    3    3    0    0 -0.62294333362E+01  0.78229488465E+01 -0.29988822068E+01  0.10440194591E+02  0.51100000000E-03 0. -1.
<mgrwt>
<rscale>  0 0.20000439E+02</rscale>
<asrwt>0</asrwt>
<pdfrwt beam="2">  1        3 0.20685693E-02 0.20000439E+02</pdfrwt>
<pdfrwt beam="1">  1       -3 0.11442536E-02 0.20000439E+02</pdfrwt>
<totfact> 0.17826843E+06</totfact>
</mgrwt>
</event>
<event>
 5    1  0.4271594E-007  0.2000123E+02  0.7818608E-02  0.1745304E+00
         -3   -1    0    0    0  501 -0.00000000000E+00  0.00000000000E+00  0.21059604145E+02  0.21059809490E+02  0.93000000000E-01 0. -1.
          3   -1    0    0  501    0  0.00000000000E+00 -0.00000000000E+00 -0.47483265958E+01  0.47492372504E+01  0.93000000000E-01 0.  1.
       1023    2    1    2    0    0  0.00000000000E+00  0.00000000000E+00  0.16311277549E+02  0.25809046740E+02  0.20001227921E+02 0.  0.
        -11    1    3    3    0    0  0.92935047361E+01  0.36936046861E+01  0.81320751219E+01  0.12889631178E+02  0.51100000000E-03 0.  1.
         11    1    3    3    0    0 -0.92935047361E+01 -0.36936046861E+01  0.81792024270E+01  0.12919415562E+02  0.51100000000E-03 0. -1.
<mgrwt>
<rscale>  0 0.20001228E+02</rscale>
<asrwt>0</asrwt>
<pdfrwt beam="2">  1        3 0.73059764E-03 0.20001228E+02</pdfrwt>
<pdfrwt beam="1">  1       -3 0.32400249E-02 0.20001228E+02</pdfrwt>
<totfact> 0.17515818E+06</totfact>
</mgrwt>
</event>
<event>
 5    1  0.4387146E-007  0.2000118E+02  0.7818608E-02  0.1745305E+00
          3   -1    0    0  501    0  0.00000000000E+00  0.00000000000E+00  0.90564844378E+01  0.90569619284E+01  0.93000000000E-01 0. -1.
         -3   -1    0    0    0  501 -0.00000000000E+00 -0.00000000000E+00 -0.11042150228E+02  0.11042541857E+02  0.93000000000E-01 0.  1.
       1023    2    1    2    0    0  0.00000000000E+00  0.00000000000E+00 -0.19856657902E+01  0.20099503785E+02  0.20001179560E+02 0.  0.
        -11    1    3    3    0    0  0.77570577851E+01  0.63117618172E+01 -0.95374483600E+00  0.10045890314E+02  0.51100000000E-03 0. -1.
         11    1    3    3    0    0 -0.77570577851E+01 -0.63117618172E+01 -0.10319209542E+01  0.10053613472E+02  0.51100000000E-03 0.  1.
<mgrwt>
<rscale>  0 0.20001180E+02</rscale>
<asrwt>0</asrwt>
<pdfrwt beam="1">  1        3 0.13933722E-02 0.20001180E+02</pdfrwt>
<pdfrwt beam="2">  1       -3 0.16988592E-02 0.20001180E+02</pdfrwt>
<totfact> 0.17876975E+06</totfact>
</mgrwt>
</event>
<event>
 5    1  0.4433260E-007  0.2000129E+02  0.7818608E-02  0.1745303E+00
          3   -1    0    0  501    0  0.00000000000E+00  0.00000000000E+00  0.94557013871E+01  0.94561587191E+01  0.93000000000E-01 0.  1.
         -3   -1    0    0    0  501 -0.00000000000E+00 -0.00000000000E+00 -0.10576072846E+02  0.10576481733E+02  0.93000000000E-01 0. -1.
       1023    2    1    2    0    0  0.00000000000E+00  0.00000000000E+00 -0.11203714587E+01  0.20032640452E+02  0.20001286240E+02 0.  0.
        -11    1    3    3    0    0  0.95060549050E+01 -0.31040264656E+01 -0.67351078509E+00  0.10022658190E+02  0.51100000000E-03 0.  1.
         11    1    3    3    0    0 -0.95060549050E+01  0.31040264656E+01 -0.44686067361E+00  0.10009982262E+02  0.51100000000E-03 0. -1.
<mgrwt>
<rscale>  0 0.20001286E+02</rscale>
<asrwt>0</asrwt>
<pdfrwt beam="1">  1        3 0.14547899E-02 0.20001286E+02</pdfrwt>
<pdfrwt beam="2">  1       -3 0.16271548E-02 0.20001286E+02</pdfrwt>
<totfact> 0.17881077E+06</totfact>
</mgrwt>
</event>
<event>
 5    1  0.4226366E-007  0.2000066E+02  0.7818608E-02  0.1745315E+00
          3   -1    0    0  501    0  0.00000000000E+00  0.00000000000E+00  0.14825855959E+02  0.14826147642E+02  0.93000000000E-01 0. -1.
         -3   -1    0    0    0  501 -0.00000000000E+00 -0.00000000000E+00 -0.67447382755E+01  0.67453794115E+01  0.93000000000E-01 0.  1.
       1023    2    1    2    0    0  0.00000000000E+00  0.00000000000E+00  0.80811176833E+01  0.21571527054E+02  0.20000657900E+02 0.  0.
        -11    1    3    3    0    0  0.91257495423E+01  0.40896067360E+01  0.39878218277E+01  0.10766007206E+02  0.51100000000E-03 0.  1.
         11    1    3    3    0    0 -0.91257495423E+01 -0.40896067360E+01  0.40932958555E+01  0.10805519848E+02  0.51100000000E-03 0. -1.
<mgrwt>
<rscale>  0 0.20000658E+02</rscale>
<asrwt>0</asrwt>
<pdfrwt beam="1">  1        3 0.22809726E-02 0.20000658E+02</pdfrwt>
<pdfrwt beam="2">  1       -3 0.10377238E-02 0.20000658E+02</pdfrwt>
<totfact> 0.17781742E+06</totfact>
</mgrwt>
</event>
<event>
 5    1  0.4133473E-007  0.2000096E+02  0.7818608E-02  0.1745309E+00
          3   -1    0    0  501    0  0.00000000000E+00  0.00000000000E+00  0.69103336647E+02  0.69103399227E+02  0.93000000000E-01 0.  1.
         -3   -1    0    0    0  501 -0.00000000000E+00 -0.00000000000E+00 -0.14456900757E+01  0.14486782924E+01  0.93000000000E-01 0. -1.
       1023    2    1    2    0    0  0.00000000000E+00  0.00000000000E+00  0.67657646571E+02  0.70552077520E+02  0.20000962546E+02 0.  0.
        -11    1    3    3    0    0 -0.94323444131E+01  0.33213660695E+01  0.34164054498E+02  0.35597516959E+02  0.51100000000E-03 0. -1.
         11    1    3    3    0    0  0.94323444131E+01 -0.33213660695E+01  0.33493592074E+02  0.34954560560E+02  0.51100000000E-03 0.  1.
<mgrwt>
<rscale>  0 0.20000963E+02</rscale>
<asrwt>0</asrwt>
<pdfrwt beam="1">  1        3 0.10631517E-01 0.20000963E+02</pdfrwt>
<pdfrwt beam="2">  1       -3 0.22264855E-03 0.20000963E+02</pdfrwt>
<totfact> 0.15288600E+06</totfact>
</mgrwt>
</event>
<event>
 5    1  0.4133473E-007  0.2000024E+02  0.7818608E-02  0.1745323E+00
          3   -1    0    0  501    0  0.00000000000E+00  0.00000000000E+00  0.35763598749E+01  0.35775688609E+01  0.93000000000E-01 0. -1.
         -3   -1    0    0    0  501 -0.00000000000E+00 -0.00000000000E+00 -0.27956054107E+02  0.27956208796E+02  0.93000000000E-01 0.  1.
       1023    2    1    2    0    0  0.00000000000E+00  0.00000000000E+00 -0.24379694232E+02  0.31533777657E+02  0.20000241060E+02 0.  0.
        -11    1    3    3    0    0 -0.89663735511E+01  0.44278938361E+01 -0.12217690777E+02  0.15788415585E+02  0.51100000000E-03 0. -1.
         11    1    3    3    0    0  0.89663735511E+01 -0.44278938361E+01 -0.12162003455E+02  0.15745362072E+02  0.51100000000E-03 0.  1.
<mgrwt>
<rscale>  0 0.20000241E+02</rscale>
<asrwt>0</asrwt>
<pdfrwt beam="1">  1        3 0.55031413E-03 0.20000241E+02</pdfrwt>
<pdfrwt beam="2">  1       -3 0.43010362E-02 0.20000241E+02</pdfrwt>
<totfact> 0.17178964E+06</totfact>
</mgrwt>
</event>
<event>
 5    1  0.4133473E-007  0.2000077E+02  0.7818608E-02  0.1745313E+00
         -3   -1    0    0    0  501 -0.00000000000E+00  0.00000000000E+00  0.50922492284E+02  0.50922577207E+02  0.93000000000E-01 0. -1.
          3   -1    0    0  501    0  0.00000000000E+00 -0.00000000000E+00 -0.19627316047E+01  0.19649336763E+01  0.93000000000E-01 0.  1.
       1023    2    1    2    0    0  0.00000000000E+00  0.00000000000E+00  0.48959760679E+02  0.52887510883E+02  0.20000766027E+02 0.  0.
        -11    1    3    3    0    0  0.98717678903E+01 -0.15973398352E+01  0.24654569161E+02  0.26605470802E+02  0.51100000000E-03 0.  1.
         11    1    3    3    0    0 -0.98717678903E+01  0.15973398352E+01  0.24305191518E+02  0.26282040081E+02  0.51100000000E-03 0. -1.
<mgrwt>
<rscale>  0 0.20000766E+02</rscale>
<asrwt>0</asrwt>
<pdfrwt beam="2">  1        3 0.30213467E-03 0.20000766E+02</pdfrwt>
<pdfrwt beam="1">  1       -3 0.78344044E-02 0.20000766E+02</pdfrwt>
<totfact> 0.16070785E+06</totfact>
</mgrwt>
</event>
<event>
 5    1  0.4133473E-007  0.2000022E+02  0.7818608E-02  0.1745324E+00
         -3   -1    0    0    0  501 -0.00000000000E+00  0.00000000000E+00  0.49724045791E+02  0.49724132761E+02  0.93000000000E-01 0.  1.
          3   -1    0    0  501    0  0.00000000000E+00 -0.00000000000E+00 -0.20099793029E+01  0.20121296673E+01  0.93000000000E-01 0. -1.
       1023    2    1    2    0    0  0.00000000000E+00  0.00000000000E+00  0.47714066488E+02  0.51736262428E+02  0.20000217729E+02 0.  0.
        -11    1    3    3    0    0 -0.15052714982E+01 -0.98861620763E+01  0.23827071130E+02  0.25840498482E+02  0.51100000000E-03 0.  1.
         11    1    3    3    0    0  0.15052714982E+01  0.98861620763E+01  0.23886995358E+02  0.25895763946E+02  0.51100000000E-03 0. -1.
<mgrwt>
<rscale>  0 0.20000218E+02</rscale>
<asrwt>0</asrwt>
<pdfrwt beam="2">  1        3 0.30939973E-03 0.20000218E+02</pdfrwt>
<pdfrwt beam="1">  1       -3 0.76500244E-02 0.20000218E+02</pdfrwt>
<totfact> 0.16126214E+06</totfact>
</mgrwt>
</event>
<event>
 5    1  0.4133473E-007  0.2000047E+02  0.7818608E-02  0.1745319E+00
         -3   -1    0    0    0  501 -0.00000000000E+00  0.00000000000E+00  0.13151382262E+01  0.13184223731E+01  0.93000000000E-01 0.  1.
          3   -1    0    0  501    0  0.00000000000E+00 -0.00000000000E+00 -0.75943037667E+02  0.75943094611E+02  0.93000000000E-01 0. -1.
       1023    2    1    2    0    0  0.00000000000E+00  0.00000000000E+00 -0.74627899441E+02  0.77261516984E+02  0.20000465788E+02 0.  0.
        -11    1    3    3    0    0  0.79121590391E+01  0.61157482735E+01 -0.37331254470E+02  0.38647473374E+02  0.51100000000E-03 0.  1.
         11    1    3    3    0    0 -0.79121590391E+01 -0.61157482735E+01 -0.37296644971E+02  0.38614043611E+02  0.51100000000E-03 0. -1.
<mgrwt>
<rscale>  0 0.20000466E+02</rscale>
<asrwt>0</asrwt>
<pdfrwt beam="2">  1        3 0.11683798E-01 0.20000466E+02</pdfrwt>
<pdfrwt beam="1">  1       -3 0.20258602E-03 0.20000466E+02</pdfrwt>
<totfact> 0.15018034E+06</totfact>
</mgrwt>
</event>
<event>
 5    1  0.4133473E-007  0.2000250E+02  0.7818608E-02  0.1745278E+00
          3   -1    0    0  501    0  0.00000000000E+00  0.00000000000E+00  0.16217742715E+02  0.16218009365E+02  0.93000000000E-01 0.  1.
         -3   -1    0    0    0  501 -0.00000000000E+00 -0.00000000000E+00 -0.61669570597E+01  0.61676582571E+01  0.93000000000E-01 0. -1.
       1023    2    1    2    0    0  0.00000000000E+00  0.00000000000E+00  0.10050785655E+02  0.22385667622E+02  0.20002495409E+02 0.  0.
        -11    1    3    3    0    0  0.57562715678E+01  0.81784065160E+01  0.50958178792E+01  0.11224453467E+02  0.51100000000E-03 0. -1.
         11    1    3    3    0    0 -0.57562715678E+01 -0.81784065160E+01  0.49549677759E+01  0.11161214156E+02  0.51100000000E-03 0.  1.
<mgrwt>
<rscale>  0 0.20002495E+02</rscale>
<asrwt>0</asrwt>
<pdfrwt beam="1">  1        3 0.24951118E-02 0.20002495E+02</pdfrwt>
<pdfrwt beam="2">  1       -3 0.94883706E-03 0.20002495E+02</pdfrwt>
<totfact> 0.17726025E+06</totfact>
</mgrwt>
</event>
<event>
 5    1  0.4133473E-007  0.2000019E+02  0.7818608E-02  0.1745324E+00
         -3   -1    0    0    0  501 -0.00000000000E+00  0.00000000000E+00  0.17419136758E+02  0.17419385017E+02  0.93000000000E-01 0. -1.
          3   -1    0    0  501    0  0.00000000000E+00 -0.00000000000E+00 -0.57402572348E+01  0.57410105488E+01  0.93000000000E-01 0.  1.
       1023    2    1    2    0    0  0.00000000000E+00  0.00000000000E+00  0.11678879523E+02  0.23160395566E+02  0.20000192396E+02 0.  0.
        -11    1    3    3    0    0 -0.96122754110E+01  0.27578655749E+01  0.58582052566E+01  0.11589660487E+02  0.51100000000E-03 0.  1.
         11    1    3    3    0    0  0.96122754110E+01 -0.27578655749E+01  0.58206742665E+01  0.11570735080E+02  0.51100000000E-03 0. -1.
<mgrwt>
<rscale>  0 0.20000192E+02</rscale>
<asrwt>0</asrwt>
<pdfrwt beam="2">  1        3 0.88319355E-03 0.20000192E+02</pdfrwt>
<pdfrwt beam="1">  1       -3 0.26799442E-02 0.20000192E+02</pdfrwt>
<totfact> 0.17682180E+06</totfact>
</mgrwt>
</event>
<event>
 5    1  0.4133473E-007  0.2000013E+02  0.7818608E-02  0.1745325E+00
          3   -1    0    0  501    0  0.00000000000E+00  0.00000000000E+00  0.15259472927E+01  0.15287786433E+01  0.93000000000E-01 0.  1.
         -3   -1    0    0    0  501 -0.00000000000E+00 -0.00000000000E+00 -0.65470336918E+02  0.65470402971E+02  0.93000000000E-01 0. -1.
       1023    2    1    2    0    0  0.00000000000E+00  0.00000000000E+00 -0.63944389626E+02  0.66999181614E+02  0.20000134310E+02 0.  0.
        -11    1    3    3    0    0  0.25323735849E+01  0.96740971796E+01 -0.31917085788E+02  0.33446994449E+02  0.51100000000E-03 0.  1.
         11    1    3    3    0    0 -0.25323735849E+01 -0.96740971796E+01 -0.32027303838E+02  0.33552187166E+02  0.51100000000E-03 0. -1.
<mgrwt>
<rscale>  0 0.20000134E+02</rscale>
<asrwt>0</asrwt>
<pdfrwt beam="1">  1        3 0.23498405E-03 0.20000134E+02</pdfrwt>
<pdfrwt beam="2">  1       -3 0.10072580E-01 0.20000134E+02</pdfrwt>
<totfact> 0.15441667E+06</totfact>
</mgrwt>
</event>
<event>
 4    1  0.4133473E-007  0.2013729E+02  0.7818608E-02  0.1742612E+00
          3   -1    0    0  501    0  0.00000000000E+00  0.00000000000E+00  0.10337147600E+03  0.10337151784E+03  0.93000000000E-01 0. -1.
         -3   -1    0    0    0  501 -0.00000000000E+00 -0.00000000000E+00 -0.97846487942E+00  0.98287462082E+00  0.93000000000E-01 0.  1.
        -11    1    1    2    0    0 -0.68946401904E+01 -0.72865848711E+01  0.55676116446E+02  0.56572611087E+02  0.51100000000E-03 0.  1.
         11    1    1    2    0    0  0.68946401904E+01  0.72865848711E+01  0.46716894678E+02  0.47781781372E+02  0.51100000000E-03 0. -1.
<mgrwt>
<rscale>  0 0.20137291E+02</rscale>
<asrwt>0</asrwt>
<pdfrwt beam="1">  1        3 0.15903640E-01 0.20137291E+02</pdfrwt>
<pdfrwt beam="2">  1       -3 0.15087554E-03 0.20137291E+02</pdfrwt>
<totfact> 0.13824455E+06</totfact>
</mgrwt>
</event>
<event>
 4    1  0.4133473E-007  0.2038521E+02  0.7818608E-02  0.1737774E+00
          3   -1    0    0  501    0  0.00000000000E+00  0.00000000000E+00  0.12847142671E+02  0.12847479279E+02  0.93000000000E-01 0. -1.
         -3   -1    0    0    0  501 -0.00000000000E+00 -0.00000000000E+00 -0.80858534407E+01  0.80863882460E+01  0.93000000000E-01 0.  1.
        -11    1    1    2    0    0  0.94209300008E+01 -0.37584148930E+01  0.13487982012E+01  0.10232246158E+02  0.51100000000E-03 0. -1.
         11    1    1    2    0    0 -0.94209300008E+01  0.37584148930E+01  0.34124910292E+01  0.10701621367E+02  0.51100000000E-03 0.  1.
<mgrwt>
<rscale>  0 0.20385214E+02</rscale>
<asrwt>0</asrwt>
<pdfrwt beam="1">  1        3 0.19765505E-02 0.20385214E+02</pdfrwt>
<pdfrwt beam="2">  1       -3 0.12440445E-02 0.20385214E+02</pdfrwt>
<totfact> 0.17104291E+06</totfact>
</mgrwt>
</event>
<event>
 5    1  0.4133473E-007  0.2000010E+02  0.7818608E-02  0.1745326E+00
         -3   -1    0    0    0  501 -0.00000000000E+00  0.00000000000E+00  0.11323339085E+01  0.11361465928E+01  0.93000000000E-01 0. -1.
          3   -1    0    0  501    0  0.00000000000E+00 -0.00000000000E+00 -0.88161770726E+02  0.88161819777E+02  0.93000000000E-01 0.  1.
       1023    2    1    2    0    0  0.00000000000E+00  0.00000000000E+00 -0.87029436817E+02  0.89297966370E+02  0.20000098129E+02 0.  0.
        -11    1    3    3    0    0 -0.99006823168E+01 -0.14061745968E+01 -0.43568240950E+02  0.44701146037E+02  0.51100000000E-03 0. -1.
         11    1    3    3    0    0  0.99006823168E+01  0.14061745968E+01 -0.43461195867E+02  0.44596820333E+02  0.51100000000E-03 0.  1.
<mgrwt>
<rscale>  0 0.20000098E+02</rscale>
<asrwt>0</asrwt>
<pdfrwt beam="2">  1        3 0.13563641E-01 0.20000098E+02</pdfrwt>
<pdfrwt beam="1">  1       -3 0.17450234E-03 0.20000098E+02</pdfrwt>
<totfact> 0.14559753E+06</totfact>
</mgrwt>
</event>
<event>
 5    1  0.4337836E-007  0.2000083E+02  0.7818608E-02  0.1745312E+00
         -3   -1    0    0    0  501 -0.00000000000E+00  0.00000000000E+00  0.14316841191E+02  0.14317143245E+02  0.93000000000E-01 0.  1.
          3   -1    0    0  501    0  0.00000000000E+00 -0.00000000000E+00 -0.69846738485E+01  0.69852929623E+01  0.93000000000E-01 0. -1.
       1023    2    1    2    0    0  0.00000000000E+00  0.00000000000E+00  0.73321673424E+01  0.21302436207E+02  0.20000827743E+02 0.  0.
        -11    1    3    3    0    0  0.54170618030E+01  0.84060816224E+01  0.37074783881E+01  0.10665465910E+02  0.51100000000E-03 0.  1.
         11    1    3    3    0    0 -0.54170618030E+01 -0.84060816224E+01  0.36246889543E+01  0.10636970297E+02  0.51100000000E-03 0. -1.
<mgrwt>
<rscale>  0 0.20000828E+02</rscale>
<asrwt>0</asrwt>
<pdfrwt beam="2">  1        3 0.10746361E-02 0.20000828E+02</pdfrwt>
<pdfrwt beam="1">  1       -3 0.22026618E-02 0.20000828E+02</pdfrwt>
<totfact> 0.17799456E+06</totfact>
</mgrwt>
</event>
<event>
 5    1  0.4133473E-007  0.2000028E+02  0.7818608E-02  0.1745322E+00
         -3   -1    0    0    0  501 -0.00000000000E+00  0.00000000000E+00  0.76840750073E+01  0.76846377740E+01  0.93000000000E-01 0.  1.
          3   -1    0    0  501    0  0.00000000000E+00 -0.00000000000E+00 -0.13013089215E+02  0.13013421530E+02  0.93000000000E-01 0. -1.
       1023    2    1    2    0    0  0.00000000000E+00  0.00000000000E+00 -0.53290142075E+01  0.20698059304E+02  0.20000281661E+02 0.  0.
        -11    1    3    3    0    0 -0.61288563582E+01  0.79017960663E+01 -0.26236973557E+01  0.10338522593E+02  0.51100000000E-03 0. -1.
         11    1    3    3    0    0  0.61288563582E+01 -0.79017960663E+01 -0.27053168518E+01  0.10359536711E+02  0.51100000000E-03 0.  1.
<mgrwt>
<rscale>  0 0.20000282E+02</rscale>
<asrwt>0</asrwt>
<pdfrwt beam="2">  1        3 0.20020826E-02 0.20000282E+02</pdfrwt>
<pdfrwt beam="1">  1       -3 0.11822342E-02 0.20000282E+02</pdfrwt>
<totfact> 0.17839270E+06</totfact>
</mgrwt>
</event>
<event>
 5    1  0.4133473E-007  0.2000006E+02  0.7818608E-02  0.1745327E+00
          3   -1    0    0  501    0  0.00000000000E+00  0.00000000000E+00  0.54494376132E+01  0.54502311235E+01  0.93000000000E-01 0. -1.
         -3   -1    0    0    0  501 -0.00000000000E+00 -0.00000000000E+00 -0.18348375143E+02  0.18348610830E+02  0.93000000000E-01 0.  1.
       1023    2    1    2    0    0  0.00000000000E+00  0.00000000000E+00 -0.12898937530E+02  0.23798841954E+02  0.20000057223E+02 0.  0.
        -11    1    3    3    0    0 -0.53576767628E+01 -0.84436775869E+01 -0.64654550251E+01  0.11908085506E+02  0.51100000000E-03 0.  1.
         11    1    3    3    0    0  0.53576767628E+01  0.84436775869E+01 -0.64334825051E+01  0.11890756447E+02  0.51100000000E-03 0. -1.
<mgrwt>
<rscale>  0 0.20000057E+02</rscale>
<asrwt>0</asrwt>
<pdfrwt beam="1">  1        3 0.83845419E-03 0.20000057E+02</pdfrwt>
<pdfrwt beam="2">  1       -3 0.28229061E-02 0.20000057E+02</pdfrwt>
<totfact> 0.17642372E+06</totfact>
</mgrwt>
</event>
<event>
 5    1  0.4133473E-007  0.2000008E+02  0.7818608E-02  0.1745327E+00
          3   -1    0    0  501    0  0.00000000000E+00  0.00000000000E+00  0.25195013563E+02  0.25195185203E+02  0.93000000000E-01 0. -1.
         -3   -1    0    0    0  501 -0.00000000000E+00 -0.00000000000E+00 -0.39683398177E+01  0.39694294185E+01  0.93000000000E-01 0.  1.
       1023    2    1    2    0    0  0.00000000000E+00  0.00000000000E+00  0.21226673745E+02  0.29164614622E+02  0.20000076694E+02 0.  0.
        -11    1    3    3    0    0 -0.63787402155E+01 -0.77014295680E+01  0.10643312252E+02  0.14604124078E+02  0.51100000000E-03 0. -1.
         11    1    3    3    0    0  0.63787402155E+01  0.77014295680E+01  0.10583361493E+02  0.14560490544E+02  0.51100000000E-03 0.  1.
<mgrwt>
<rscale>  0 0.20000077E+02</rscale>
<asrwt>0</asrwt>
<pdfrwt beam="1">  1        3 0.38762530E-02 0.20000077E+02</pdfrwt>
<pdfrwt beam="2">  1       -3 0.61061083E-03 0.20000077E+02</pdfrwt>
<totfact> 0.17315221E+06</totfact>
</mgrwt>
</event>
<event>
 5    1  0.4133473E-007  0.2000021E+02  0.7818608E-02  0.1745324E+00
         -3   -1    0    0    0  501 -0.00000000000E+00  0.00000000000E+00  0.68140049027E+01  0.68146395219E+01  0.93000000000E-01 0. -1.
          3   -1    0    0  501    0  0.00000000000E+00 -0.00000000000E+00 -0.14674497346E+02  0.14674792038E+02  0.93000000000E-01 0.  1.
       1023    2    1    2    0    0  0.00000000000E+00  0.00000000000E+00 -0.78604924437E+01  0.21489431560E+02  0.20000208182E+02 0.  0.
        -11    1    3    3    0    0  0.91889897296E+01 -0.39450462978E+01 -0.39668256815E+01  0.10758095965E+02  0.51100000000E-03 0.  1.
         11    1    3    3    0    0 -0.91889897296E+01  0.39450462978E+01 -0.38936667622E+01  0.10731335595E+02  0.51100000000E-03 0. -1.
<mgrwt>
<rscale>  0 0.20000208E+02</rscale>
<asrwt>0</asrwt>
<pdfrwt beam="2">  1        3 0.22576865E-02 0.20000208E+02</pdfrwt>
<pdfrwt beam="1">  1       -3 0.10483799E-02 0.20000208E+02</pdfrwt>
<totfact> 0.17787905E+06</totfact>
</mgrwt>
</event>
<event>
 5    1  0.4133473E-007  0.2000365E+02  0.7818608E-02  0.1745256E+00
         -3   -1    0    0    0  501 -0.00000000000E+00  0.00000000000E+00  0.10921685810E+03  0.10921689769E+03  0.93000000000E-01 0.  1.
          3   -1    0    0  501    0  0.00000000000E+00 -0.00000000000E+00 -0.91354304681E+00  0.91826461239E+00  0.93000000000E-01 0. -1.
       1023    2    1    2    0    0  0.00000000000E+00  0.00000000000E+00  0.10830331505E+03  0.11013516230E+03  0.20003647794E+02 0.  0.
        -11    1    3    3    0    0  0.96100583871E+01  0.27681339327E+01  0.54943670004E+02  0.55846420310E+02  0.51100000000E-03 0. -1.
         11    1    3    3    0    0 -0.96100583871E+01 -0.27681339327E+01  0.53359645046E+02  0.54288741994E+02  0.51100000000E-03 0.  1.
<mgrwt>
<rscale>  0 0.20003648E+02</rscale>
<asrwt>0</asrwt>
<pdfrwt beam="2">  1        3 0.14091141E-03 0.20003648E+02</pdfrwt>
<pdfrwt beam="1">  1       -3 0.16802950E-01 0.20003648E+02</pdfrwt>
<totfact> 0.13833882E+06</totfact>
</mgrwt>
</event>
<event>
 4    1  0.4133473E-007  0.2184686E+02  0.7818608E-02  0.1710914E+00
         -3   -1    0    0    0  501 -0.00000000000E+00  0.00000000000E+00  0.38166563073E+01  0.38177891990E+01  0.93000000000E-01 0.  1.
          3   -1    0    0  501    0  0.00000000000E+00 -0.00000000000E+00 -0.31257476194E+02  0.31257614544E+02  0.93000000000E-01 0. -1.
        -11    1    1    2    0    0  0.18377300117E+01  0.10645786606E+02 -0.16314847022E+02  0.19567428489E+02  0.51100000000E-03 0.  1.
         11    1    1    2    0    0 -0.18377300117E+01 -0.10645786606E+02 -0.11125972864E+02  0.15507975254E+02  0.51100000000E-03 0. -1.
<mgrwt>
<rscale>  0 0.21846861E+02</rscale>
<asrwt>0</asrwt>
<pdfrwt beam="2">  1        3 0.48089401E-02 0.21846861E+02</pdfrwt>
<pdfrwt beam="1">  1       -3 0.58727570E-03 0.21846861E+02</pdfrwt>
<totfact> 0.14009598E+06</totfact>
</mgrwt>
</event>
<event>
 4    1  0.4133473E-007  0.2001351E+02  0.7818608E-02  0.1745060E+00
         -3   -1    0    0    0  501 -0.00000000000E+00  0.00000000000E+00  0.26526742891E+01  0.26543040301E+01  0.93000000000E-01 0.  1.
          3   -1    0    0  501    0  0.00000000000E+00 -0.00000000000E+00 -0.37735481683E+02  0.37735596283E+02  0.93000000000E-01 0. -1.
        -11    1    1    2    0    0 -0.64031338110E-01 -0.10002701948E+02 -0.16981316240E+02  0.19708456251E+02  0.51100000000E-03 0. -1.
         11    1    1    2    0    0  0.64031338110E-01  0.10002701948E+02 -0.18101491154E+02  0.20681444063E+02  0.51100000000E-03 0.  1.
<mgrwt>
<rscale>  0 0.20013512E+02</rscale>
<asrwt>0</asrwt>
<pdfrwt beam="2">  1        3 0.58055925E-02 0.20013512E+02</pdfrwt>
<pdfrwt beam="1">  1       -3 0.40823795E-03 0.20013512E+02</pdfrwt>
<totfact> 0.16667083E+06</totfact>
</mgrwt>
</event>
<event>
 5    1  0.4133473E-007  0.2000041E+02  0.7818608E-02  0.1745320E+00
          3   -1    0    0  501    0  0.00000000000E+00  0.00000000000E+00  0.42203802987E+01  0.42214048450E+01  0.93000000000E-01 0.  1.
         -3   -1    0    0    0  501 -0.00000000000E+00 -0.00000000000E+00 -0.23691533187E+02  0.23691715720E+02  0.93000000000E-01 0. -1.
       1023    2    1    2    0    0  0.00000000000E+00  0.00000000000E+00 -0.19471152889E+02  0.27913120565E+02  0.20000412618E+02 0.  0.
        -11    1    3    3    0    0  0.25242530256E+01 -0.96763092132E+01 -0.96850124922E+01  0.13921288754E+02  0.51100000000E-03 0. -1.
         11    1    3    3    0    0 -0.25242530256E+01  0.96763092132E+01 -0.97861403965E+01  0.13991831812E+02  0.51100000000E-03 0.  1.
<mgrwt>
<rscale>  0 0.20000413E+02</rscale>
<asrwt>0</asrwt>
<pdfrwt beam="1">  1        3 0.64938214E-03 0.20000413E+02</pdfrwt>
<pdfrwt beam="2">  1       -3 0.36449440E-02 0.20000413E+02</pdfrwt>
<totfact> 0.17390375E+06</totfact>
</mgrwt>
</event>
<event>
 5    1  0.4133473E-007  0.2000032E+02  0.7818608E-02  0.1745322E+00
          3   -1    0    0  501    0  0.00000000000E+00  0.00000000000E+00  0.38962188310E+01  0.38973285953E+01  0.93000000000E-01 0.  1.
         -3   -1    0    0    0  501 -0.00000000000E+00 -0.00000000000E+00 -0.25661874389E+02  0.25662042907E+02  0.93000000000E-01 0. -1.
       1023    2    1    2    0    0  0.00000000000E+00  0.00000000000E+00 -0.21765655558E+02  0.29559371502E+02  0.20000317041E+02 0.  0.
        -11    1    3    3    0    0 -0.54177008289E+01  0.84054461139E+01 -0.10901727357E+02  0.14793602208E+02  0.51100000000E-03 0. -1.
         11    1    3    3    0    0  0.54177008289E+01 -0.84054461139E+01 -0.10863928200E+02  0.14765769294E+02  0.51100000000E-03 0.  1.
<mgrwt>
<rscale>  0 0.20000317E+02</rscale>
<asrwt>0</asrwt>
<pdfrwt beam="1">  1        3 0.59951663E-03 0.20000317E+02</pdfrwt>
<pdfrwt beam="2">  1       -3 0.39480789E-02 0.20000317E+02</pdfrwt>
<totfact> 0.17293220E+06</totfact>
</mgrwt>
</event>
<event>
 5    1  0.4133473E-007  0.2000071E+02  0.7818608E-02  0.1745314E+00
         -3   -1    0    0    0  501 -0.00000000000E+00  0.00000000000E+00  0.10219053294E+03  0.10219057525E+03  0.93000000000E-01 0. -1.
          3   -1    0    0  501    0  0.00000000000E+00 -0.00000000000E+00 -0.97638190831E+00  0.98080101492E+00  0.93000000000E-01 0.  1.
       1023    2    1    2    0    0  0.00000000000E+00  0.00000000000E+00  0.10121415103E+03  0.10317137627E+03  0.20000712811E+02 0.  0.
        -11    1    3    3    0    0 -0.46303076202E+01  0.88635473842E+01  0.50968423643E+02  0.51940181265E+02  0.51100000000E-03 0. -1.
         11    1    3    3    0    0  0.46303076202E+01 -0.88635473842E+01  0.50245727385E+02  0.51231195004E+02  0.51100000000E-03 0.  1.
<mgrwt>
<rscale>  0 0.20000713E+02</rscale>
<asrwt>0</asrwt>
<pdfrwt beam="2">  1        3 0.15055581E-03 0.20000713E+02</pdfrwt>
<pdfrwt beam="1">  1       -3 0.15721962E-01 0.20000713E+02</pdfrwt>
<totfact> 0.14070930E+06</totfact>
</mgrwt>
</event>
<event>
 5    1  0.4133473E-007  0.2000044E+02  0.7818608E-02  0.1745319E+00
         -3   -1    0    0    0  501 -0.00000000000E+00  0.00000000000E+00  0.99365030682E+01  0.99369382721E+01  0.93000000000E-01 0.  1.
          3   -1    0    0  501    0  0.00000000000E+00 -0.00000000000E+00 -0.10063475598E+02  0.10063905311E+02  0.93000000000E-01 0. -1.
       1023    2    1    2    0    0  0.00000000000E+00  0.00000000000E+00 -0.12697252989E+00  0.20000843583E+02  0.20000440546E+02 0.  0.
        -11    1    3    3    0    0 -0.47215129569E+01 -0.88153965305E+01 -0.41021356203E-01  0.10000279176E+02  0.51100000000E-03 0.  1.
         11    1    3    3    0    0  0.47215129569E+01  0.88153965305E+01 -0.85951173685E-01  0.10000564407E+02  0.51100000000E-03 0. -1.
<mgrwt>
<rscale>  0 0.20000441E+02</rscale>
<asrwt>0</asrwt>
<pdfrwt beam="2">  1        3 0.15482935E-02 0.20000441E+02</pdfrwt>
<pdfrwt beam="1">  1       -3 0.15287593E-02 0.20000441E+02</pdfrwt>
<totfact> 0.17884719E+06</totfact>
</mgrwt>
</event>
<event>
 5    1  0.4133473E-007  0.2000875E+02  0.7818608E-02  0.1745154E+00
         -3   -1    0    0    0  501 -0.00000000000E+00  0.00000000000E+00  0.66100221572E+01  0.66106763586E+01  0.93000000000E-01 0.  1.
          3   -1    0    0  501    0  0.00000000000E+00 -0.00000000000E+00 -0.15140230875E+02  0.15140516502E+02  0.93000000000E-01 0. -1.
       1023    2    1    2    0    0  0.00000000000E+00  0.00000000000E+00 -0.85302087183E+01  0.21751192861E+02  0.20008746340E+02 0.  0.
        -11    1    3    3    0    0  0.86090707699E+01 -0.50948584693E+01 -0.41374012430E+01  0.10825514845E+02  0.51100000000E-03 0. -1.
         11    1    3    3    0    0 -0.86090707699E+01  0.50948584693E+01 -0.43928074753E+01  0.10925678016E+02  0.51100000000E-03 0.  1.
<mgrwt>
<rscale>  0 0.20008746E+02</rscale>
<asrwt>0</asrwt>
<pdfrwt beam="2">  1        3 0.23293386E-02 0.20008746E+02</pdfrwt>
<pdfrwt beam="1">  1       -3 0.10169988E-02 0.20008746E+02</pdfrwt>
<totfact> 0.17754694E+06</totfact>
</mgrwt>
</event>
<event>
 5    1  0.4133473E-007  0.2000023E+02  0.7818608E-02  0.1745324E+00
          3   -1    0    0  501    0  0.00000000000E+00  0.00000000000E+00  0.64691552180E+01  0.64698236633E+01  0.93000000000E-01 0.  1.
         -3   -1    0    0    0  501 -0.00000000000E+00 -0.00000000000E+00 -0.15456713885E+02  0.15456993664E+02  0.93000000000E-01 0. -1.
       1023    2    1    2    0    0  0.00000000000E+00  0.00000000000E+00 -0.89875586669E+01  0.21926817327E+02  0.20000227681E+02 0.  0.
        -11    1    3    3    0    0 -0.37105636071E+01  0.92861927649E+01 -0.44665203408E+01  0.10952235505E+02  0.51100000000E-03 0. -1.
         11    1    3    3    0    0  0.37105636071E+01 -0.92861927649E+01 -0.45210383261E+01  0.10974581822E+02  0.51100000000E-03 0.  1.
<mgrwt>
<rscale>  0 0.20000228E+02</rscale>
<asrwt>0</asrwt>
<pdfrwt beam="1">  1        3 0.99532760E-03 0.20000228E+02</pdfrwt>
<pdfrwt beam="2">  1       -3 0.23780289E-02 0.20000228E+02</pdfrwt>
<totfact> 0.17760476E+06</totfact>
</mgrwt>
</event>
<event>
 4    1  0.4133473E-007  0.2010347E+02  0.7818608E-02  0.1743278E+00
          3   -1    0    0  501    0  0.00000000000E+00  0.00000000000E+00  0.55341824368E+02  0.55341902510E+02  0.93000000000E-01 0.  1.
         -3   -1    0    0    0  501 -0.00000000000E+00 -0.00000000000E+00 -0.18244334364E+01  0.18268022235E+01  0.93000000000E-01 0. -1.
        -11    1    1    2    0    0 -0.93942495107E+01  0.35209348897E+01  0.24986185645E+02  0.26925051155E+02  0.51100000000E-03 0.  1.
         11    1    1    2    0    0  0.93942495107E+01 -0.35209348897E+01  0.28531205287E+02  0.30243653578E+02  0.51100000000E-03 0. -1.
<mgrwt>
<rscale>  0 0.20103474E+02</rscale>
<asrwt>0</asrwt>
<pdfrwt beam="1">  1        3 0.85143165E-02 0.20103474E+02</pdfrwt>
<pdfrwt beam="2">  1       -3 0.28087024E-03 0.20103474E+02</pdfrwt>
<totfact> 0.15696152E+06</totfact>
</mgrwt>
</event>
<event>
 5    1  0.4202389E-007  0.2000054E+02  0.7818608E-02  0.1745317E+00
         -3   -1    0    0    0  501 -0.00000000000E+00  0.00000000000E+00  0.11659618158E+02  0.11659989048E+02  0.93000000000E-01 0.  1.
          3   -1    0    0  501    0  0.00000000000E+00 -0.00000000000E+00 -0.85763181785E+01  0.85768224010E+01  0.93000000000E-01 0. -1.
       1023    2    1    2    0    0  0.00000000000E+00  0.00000000000E+00  0.30832999799E+01  0.20236811449E+02  0.20000544964E+02 0.  0.
        -11    1    3    3    0    0 -0.36694698606E+01 -0.93026339099E+01  0.15800820222E+01  0.10124261266E+02  0.51100000000E-03 0. -1.
         11    1    3    3    0    0  0.36694698606E+01  0.93026339099E+01  0.15032179577E+01  0.10112550183E+02  0.51100000000E-03 0.  1.
<mgrwt>
<rscale>  0 0.20000545E+02</rscale>
<asrwt>0</asrwt>
<pdfrwt beam="2">  1        3 0.13195009E-02 0.20000545E+02</pdfrwt>
<pdfrwt beam="1">  1       -3 0.17938547E-02 0.20000545E+02</pdfrwt>
<totfact> 0.17869215E+06</totfact>
</mgrwt>
</event>
<event>
 5    1  0.4133473E-007  0.2000038E+02  0.7818608E-02  0.1745320E+00
         -3   -1    0    0    0  501 -0.00000000000E+00  0.00000000000E+00  0.11849589275E+03  0.11849592924E+03  0.93000000000E-01 0. -1.
          3   -1    0    0  501    0  0.00000000000E+00 -0.00000000000E+00 -0.84134451198E+00  0.84646889360E+00  0.93000000000E-01 0.  1.
       1023    2    1    2    0    0  0.00000000000E+00  0.00000000000E+00  0.11765454824E+03  0.11934239814E+03  0.20000381805E+02 0.  0.
        -11    1    3    3    0    0  0.98647759065E+01 -0.16398798249E+01  0.58657628075E+02  0.59503952316E+02  0.51100000000E-03 0.  1.
         11    1    3    3    0    0 -0.98647759065E+01  0.16398798249E+01  0.58996920162E+02  0.59838445822E+02  0.51100000000E-03 0. -1.
<mgrwt>
<rscale>  0 0.20000382E+02</rscale>
<asrwt>0</asrwt>
<pdfrwt beam="2">  1        3 0.12983471E-03 0.20000382E+02</pdfrwt>
<pdfrwt beam="1">  1       -3 0.18230521E-01 0.20000382E+02</pdfrwt>
<totfact> 0.13543655E+06</totfact>
</mgrwt>
</event>
<event>
 5    1  0.4133473E-007  0.2000061E+02  0.7818608E-02  0.1745316E+00
         -3   -1    0    0    0  501 -0.00000000000E+00  0.00000000000E+00  0.41395794004E+01  0.41406239399E+01  0.93000000000E-01 0.  1.
          3   -1    0    0  501    0  0.00000000000E+00 -0.00000000000E+00 -0.24154329677E+02  0.24154508713E+02  0.93000000000E-01 0. -1.
       1023    2    1    2    0    0  0.00000000000E+00  0.00000000000E+00 -0.20014750277E+02  0.28295132653E+02  0.20000607571E+02 0.  0.
        -11    1    3    3    0    0 -0.77081784307E+00 -0.99705427433E+01 -0.99877318229E+01  0.14133671496E+02  0.51100000000E-03 0. -1.
         11    1    3    3    0    0  0.77081784307E+00  0.99705427433E+01 -0.10027018454E+02  0.14161461156E+02  0.51100000000E-03 0.  1.
<mgrwt>
<rscale>  0 0.20000608E+02</rscale>
<asrwt>0</asrwt>
<pdfrwt beam="2">  1        3 0.37161448E-02 0.20000608E+02</pdfrwt>
<pdfrwt beam="1">  1       -3 0.63695250E-03 0.20000608E+02</pdfrwt>
<totfact> 0.17365711E+06</totfact>
</mgrwt>
</event>
<event>
 5    1  0.4133473E-007  0.2000023E+02  0.7818608E-02  0.1745324E+00
         -3   -1    0    0    0  501 -0.00000000000E+00  0.00000000000E+00  0.59516547585E+01  0.59523813188E+01  0.93000000000E-01 0.  1.
          3   -1    0    0  501    0  0.00000000000E+00 -0.00000000000E+00 -0.16800550452E+02  0.16800807853E+02  0.93000000000E-01 0. -1.
       1023    2    1    2    0    0  0.00000000000E+00  0.00000000000E+00 -0.10848895694E+02  0.22753189171E+02  0.20000226991E+02 0.  0.
        -11    1    3    3    0    0  0.96372906731E+01 -0.26690257690E+01 -0.54638503292E+01  0.11395381992E+02  0.51100000000E-03 0.  1.
         11    1    3    3    0    0 -0.96372906731E+01  0.26690257690E+01 -0.53850453646E+01  0.11357807179E+02  0.51100000000E-03 0. -1.
<mgrwt>
<rscale>  0 0.20000227E+02</rscale>
<asrwt>0</asrwt>
<pdfrwt beam="2">  1        3 0.25847757E-02 0.20000227E+02</pdfrwt>
<pdfrwt beam="1">  1       -3 0.91571489E-03 0.20000227E+02</pdfrwt>
<totfact> 0.17706934E+06</totfact>
</mgrwt>
</event>
<event>
 5    1  0.4279069E-007  0.2000112E+02  0.7818608E-02  0.1745306E+00
         -3   -1    0    0    0  501 -0.00000000000E+00  0.00000000000E+00  0.19894554307E+02  0.19894771676E+02  0.93000000000E-01 0.  1.
          3   -1    0    0  501    0  0.00000000000E+00 -0.00000000000E+00 -0.50263876901E+01  0.50272479759E+01  0.93000000000E-01 0. -1.
       1023    2    1    2    0    0  0.00000000000E+00  0.00000000000E+00  0.14868166616E+02  0.24922019652E+02  0.20001117094E+02 0.  0.
        -11    1    3    3    0    0  0.72363979542E+01 -0.69023960809E+01  0.73700127915E+01  0.12422786154E+02  0.51100000000E-03 0. -1.
         11    1    3    3    0    0 -0.72363979542E+01  0.69023960809E+01  0.74981538250E+01  0.12499233499E+02  0.51100000000E-03 0.  1.
<mgrwt>
<rscale>  0 0.20001117E+02</rscale>
<asrwt>0</asrwt>
<pdfrwt beam="2">  1        3 0.77337333E-03 0.20001117E+02</pdfrwt>
<pdfrwt beam="1">  1       -3 0.30607835E-02 0.20001117E+02</pdfrwt>
<totfact> 0.17570538E+06</totfact>
</mgrwt>
</event>
<event>
 5    1  0.4467264E-007  0.2000115E+02  0.7818608E-02  0.1745305E+00
          3   -1    0    0  501    0  0.00000000000E+00  0.00000000000E+00  0.11499719181E+02  0.11500095227E+02  0.93000000000E-01 0. -1.
         -3   -1    0    0    0  501 -0.00000000000E+00 -0.00000000000E+00 -0.86961000377E+01  0.86965973153E+01  0.93000000000E-01 0.  1.
       1023    2    1    2    0    0  0.00000000000E+00  0.00000000000E+00  0.28036191429E+01  0.20196692542E+02  0.20001152701E+02 0.  0.
        -11    1    3    3    0    0  0.99909511942E+01 -0.43022904739E+00  0.14882282643E+01  0.10110342547E+02  0.51100000000E-03 0. -1.
         11    1    3    3    0    0 -0.99909511942E+01  0.43022904739E+00  0.13153908786E+01  0.10086349995E+02  0.51100000000E-03 0.  1.
<mgrwt>
<rscale>  0 0.20001153E+02</rscale>
<asrwt>0</asrwt>
<pdfrwt beam="1">  1        3 0.17692547E-02 0.20001153E+02</pdfrwt>
<pdfrwt beam="2">  1       -3 0.13379287E-02 0.20001153E+02</pdfrwt>
<totfact> 0.17870420E+06</totfact>
</mgrwt>
</event>
<event>
 5    1  0.4133473E-007  0.2000174E+02  0.7818608E-02  0.1745293E+00
         -3   -1    0    0    0  501 -0.00000000000E+00  0.00000000000E+00  0.44683202069E+01  0.44692879155E+01  0.93000000000E-01 0.  1.
          3   -1    0    0  501    0  0.00000000000E+00 -0.00000000000E+00 -0.22380180834E+02  0.22380374062E+02  0.93000000000E-01 0. -1.
       1023    2    1    2    0    0  0.00000000000E+00  0.00000000000E+00 -0.17911860627E+02  0.26849661977E+02  0.20001739854E+02 0.  0.
        -11    1    3    3    0    0  0.72238252622E+01 -0.69153092888E+01 -0.88073875641E+01  0.13325735625E+02  0.51100000000E-03 0.  1.
         11    1    3    3    0    0 -0.72238252622E+01  0.69153092888E+01 -0.91044730627E+01  0.13523926353E+02  0.51100000000E-03 0. -1.
<mgrwt>
<rscale>  0 0.20001740E+02</rscale>
<asrwt>0</asrwt>
<pdfrwt beam="2">  1        3 0.34431940E-02 0.20001740E+02</pdfrwt>
<pdfrwt beam="1">  1       -3 0.68752320E-03 0.20001740E+02</pdfrwt>
<totfact> 0.17450258E+06</totfact>
</mgrwt>
</event>
<event>
 5    1  0.4172783E-007  0.2000112E+02  0.7818608E-02  0.1745306E+00
          3   -1    0    0  501    0  0.00000000000E+00  0.00000000000E+00  0.60116302588E+02  0.60116374524E+02  0.93000000000E-01 0. -1.
         -3   -1    0    0    0  501 -0.00000000000E+00 -0.00000000000E+00 -0.16622553949E+01  0.16648549480E+01  0.93000000000E-01 0.  1.
       1023    2    1    2    0    0  0.00000000000E+00  0.00000000000E+00  0.58454047193E+02  0.61781229472E+02  0.20001117013E+02 0.  0.
        -11    1    3    3    0    0 -0.70904192535E+01  0.70522765324E+01  0.29071941018E+02  0.30743884015E+02  0.51100000000E-03 0. -1.
         11    1    3    3    0    0  0.70904192535E+01 -0.70522765324E+01  0.29382106175E+02  0.31037345457E+02  0.51100000000E-03 0.  1.
<mgrwt>
<rscale>  0 0.20001117E+02</rscale>
<asrwt>0</asrwt>
<pdfrwt beam="1">  1        3 0.92488669E-02 0.20001117E+02</pdfrwt>
<pdfrwt beam="2">  1       -3 0.25593711E-03 0.20001117E+02</pdfrwt>
<totfact> 0.15662744E+06</totfact>
</mgrwt>
</event>
<event>
 5    1  0.4133473E-007  0.2000239E+02  0.7818608E-02  0.1745281E+00
          3   -1    0    0  501    0  0.00000000000E+00  0.00000000000E+00  0.21817134529E+01  0.21836947110E+01  0.93000000000E-01 0.  1.
         -3   -1    0    0    0  501 -0.00000000000E+00 -0.00000000000E+00 -0.45823645449E+02  0.45823739821E+02  0.93000000000E-01 0. -1.
       1023    2    1    2    0    0  0.00000000000E+00  0.00000000000E+00 -0.43641931996E+02  0.48007434532E+02  0.20002388408E+02 0.  0.
        -11    1    3    3    0    0  0.60894218044E+01  0.79333283033E+01 -0.21992859145E+02  0.24159979502E+02  0.51100000000E-03 0.  1.
         11    1    3    3    0    0 -0.60894218044E+01 -0.79333283033E+01 -0.21649072850E+02  0.23847455030E+02  0.51100000000E-03 0. -1.
<mgrwt>
<rscale>  0 0.20002388E+02</rscale>
<asrwt>0</asrwt>
<pdfrwt beam="1">  1        3 0.33580792E-03 0.20002388E+02</pdfrwt>
<pdfrwt beam="2">  1       -3 0.70499506E-02 0.20002388E+02</pdfrwt>
<totfact> 0.16302548E+06</totfact>
</mgrwt>
</event>
<event>
 5    1  0.4206453E-007  0.2000089E+02  0.7818608E-02  0.1745310E+00
         -3   -1    0    0    0  501 -0.00000000000E+00  0.00000000000E+00  0.33610526387E+01  0.33623390430E+01  0.93000000000E-01 0.  1.
          3   -1    0    0  501    0  0.00000000000E+00 -0.00000000000E+00 -0.29748178598E+02  0.29748323968E+02  0.93000000000E-01 0. -1.
       1023    2    1    2    0    0  0.00000000000E+00  0.00000000000E+00 -0.26387125959E+02  0.33110663011E+02  0.20000889696E+02 0.  0.
        -11    1    3    3    0    0  0.46643333949E+00  0.99892666733E+01 -0.13320593658E+02  0.16656567005E+02  0.51100000000E-03 0. -1.
         11    1    3    3    0    0 -0.46643333949E+00 -0.99892666733E+01 -0.13066532302E+02  0.16454096006E+02  0.51100000000E-03 0.  1.
<mgrwt>
<rscale>  0 0.20000890E+02</rscale>
<asrwt>0</asrwt>
<pdfrwt beam="2">  1        3 0.45767528E-02 0.20000890E+02</pdfrwt>
<pdfrwt beam="1">  1       -3 0.51719518E-03 0.20000890E+02</pdfrwt>
<totfact> 0.17086106E+06</totfact>
</mgrwt>
</event>
<event>
 5    1  0.4133473E-007  0.2000036E+02  0.7818608E-02  0.1745321E+00
          3   -1    0    0  501    0  0.00000000000E+00  0.00000000000E+00  0.20720523105E+02  0.20720731810E+02  0.93000000000E-01 0.  1.
         -3   -1    0    0    0  501 -0.00000000000E+00 -0.00000000000E+00 -0.48256258072E+01  0.48265218772E+01  0.93000000000E-01 0. -1.
       1023    2    1    2    0    0  0.00000000000E+00  0.00000000000E+00  0.15894897298E+02  0.25547253687E+02  0.20000360268E+02 0.  0.
        -11    1    3    3    0    0 -0.82268840313E+01 -0.56851057108E+01  0.78970844382E+01  0.12742291422E+02  0.51100000000E-03 0. -1.
         11    1    3    3    0    0  0.82268840313E+01  0.56851057108E+01  0.79978128595E+01  0.12804962265E+02  0.51100000000E-03 0.  1.
<mgrwt>
<rscale>  0 0.20000360E+02</rscale>
<asrwt>0</asrwt>
<pdfrwt beam="1">  1        3 0.31878578E-02 0.20000360E+02</pdfrwt>
<pdfrwt beam="2">  1       -3 0.74248895E-03 0.20000360E+02</pdfrwt>
<totfact> 0.17532197E+06</totfact>
</mgrwt>
</event>
<event>
 5    1  0.4133473E-007  0.2000030E+02  0.7818608E-02  0.1745322E+00
          3   -1    0    0  501    0  0.00000000000E+00  0.00000000000E+00  0.54351508153E+01  0.54359464111E+01  0.93000000000E-01 0.  1.
         -3   -1    0    0    0  501 -0.00000000000E+00 -0.00000000000E+00 -0.18397051888E+02  0.18397286952E+02  0.93000000000E-01 0. -1.
       1023    2    1    2    0    0  0.00000000000E+00  0.00000000000E+00 -0.12961901073E+02  0.23833233363E+02  0.20000303325E+02 0.  0.
        -11    1    3    3    0    0  0.85793973942E+01 -0.51377841443E+01 -0.64954206908E+01  0.11924486394E+02  0.51100000000E-03 0.  1.
         11    1    3    3    0    0 -0.85793973942E+01  0.51377841443E+01 -0.64664803824E+01  0.11908746968E+02  0.51100000000E-03 0. -1.
<mgrwt>
<rscale>  0 0.20000303E+02</rscale>
<asrwt>0</asrwt>
<pdfrwt beam="1">  1        3 0.83625634E-03 0.20000303E+02</pdfrwt>
<pdfrwt beam="2">  1       -3 0.28303949E-02 0.20000303E+02</pdfrwt>
<totfact> 0.17639756E+06</totfact>
</mgrwt>
</event>
<event>
 5    1  0.4133473E-007  0.2000062E+02  0.7818608E-02  0.1745316E+00
         -3   -1    0    0    0  501 -0.00000000000E+00  0.00000000000E+00  0.18807573254E+01  0.18830552613E+01  0.93000000000E-01 0.  1.
          3   -1    0    0  501    0  0.00000000000E+00 -0.00000000000E+00 -0.53138564090E+02  0.53138645471E+02  0.93000000000E-01 0. -1.
       1023    2    1    2    0    0  0.00000000000E+00  0.00000000000E+00 -0.51257806764E+02  0.55021700732E+02  0.20000619921E+02 0.  0.
        -11    1    3    3    0    0  0.43638720900E+01  0.89978786175E+01 -0.25715889352E+02  0.27591885848E+02  0.51100000000E-03 0. -1.
         11    1    3    3    0    0 -0.43638720900E+01 -0.89978786175E+01 -0.25541917412E+02  0.27429814884E+02  0.51100000000E-03 0.  1.
<mgrwt>
<rscale>  0 0.20000620E+02</rscale>
<asrwt>0</asrwt>
<pdfrwt beam="2">  1        3 0.81753456E-02 0.20000620E+02</pdfrwt>
<pdfrwt beam="1">  1       -3 0.28953035E-03 0.20000620E+02</pdfrwt>
<totfact> 0.15968712E+06</totfact>
</mgrwt>
</event>
<event>
 5    1  0.4133473E-007  0.2000063E+02  0.7818608E-02  0.1745316E+00
         -3   -1    0    0    0  501 -0.00000000000E+00  0.00000000000E+00  0.38097303640E+01  0.38108653146E+01  0.93000000000E-01 0.  1.
          3   -1    0    0  501    0  0.00000000000E+00 -0.00000000000E+00 -0.26245095534E+02  0.26245260307E+02  0.93000000000E-01 0. -1.
       1023    2    1    2    0    0  0.00000000000E+00  0.00000000000E+00 -0.22435365170E+02  0.30056125622E+02  0.20000626917E+02 0.  0.
        -11    1    3    3    0    0 -0.56911956019E+01  0.82229257613E+01 -0.11206685334E+02  0.15019853924E+02  0.51100000000E-03 0. -1.
         11    1    3    3    0    0  0.56911956019E+01 -0.82229257613E+01 -0.11228679836E+02  0.15036271698E+02  0.51100000000E-03 0.  1.
<mgrwt>
<rscale>  0 0.20000627E+02</rscale>
<asrwt>0</asrwt>
<pdfrwt beam="2">  1        3 0.40378069E-02 0.20000627E+02</pdfrwt>
<pdfrwt beam="1">  1       -3 0.58621236E-03 0.20000627E+02</pdfrwt>
<totfact> 0.17261954E+06</totfact>
</mgrwt>
</event>
<event>
 5    1  0.4133473E-007  0.2000583E+02  0.7818608E-02  0.1745212E+00
         -3   -1    0    0    0  501 -0.00000000000E+00  0.00000000000E+00  0.99085312926E+01  0.99089677250E+01  0.93000000000E-01 0.  1.
          3   -1    0    0  501    0  0.00000000000E+00 -0.00000000000E+00 -0.10097322804E+02  0.10097751077E+02  0.93000000000E-01 0. -1.
       1023    2    1    2    0    0  0.00000000000E+00  0.00000000000E+00 -0.18879151160E+00  0.20006718802E+02  0.20005828026E+02 0.  0.
        -11    1    3    3    0    0 -0.77682277834E+01  0.63017740123E+01 -0.70522362718E-01  0.10003134122E+02  0.51100000000E-03 0.  1.
         11    1    3    3    0    0  0.77682277834E+01 -0.63017740123E+01 -0.11826914888E+00  0.10003584680E+02  0.51100000000E-03 0. -1.
<mgrwt>
<rscale>  0 0.20005828E+02</rscale>
<asrwt>0</asrwt>
<pdfrwt beam="2">  1        3 0.15535008E-02 0.20005828E+02</pdfrwt>
<pdfrwt beam="1">  1       -3 0.15244560E-02 0.20005828E+02</pdfrwt>
<totfact> 0.17873953E+06</totfact>
</mgrwt>
</event>
<event>
 5    1  0.4133473E-007  0.2000077E+02  0.7818608E-02  0.1745313E+00
         -3   -1    0    0    0  501 -0.00000000000E+00  0.00000000000E+00  0.54673691675E+02  0.54673770771E+02  0.93000000000E-01 0. -1.
          3   -1    0    0  501    0  0.00000000000E+00 -0.00000000000E+00 -0.18279117653E+01  0.18302760507E+01  0.93000000000E-01 0.  1.
       1023    2    1    2    0    0  0.00000000000E+00  0.00000000000E+00  0.52845779909E+02  0.56504046822E+02  0.20000771310E+02 0.  0.
        -11    1    3    3    0    0 -0.86336037022E+01 -0.50465883524E+01  0.26488909434E+02  0.28313768561E+02  0.51100000000E-03 0. -1.
         11    1    3    3    0    0  0.86336037022E+01  0.50465883524E+01  0.26356870475E+02  0.28190278260E+02  0.51100000000E-03 0.  1.
<mgrwt>
<rscale>  0 0.20000771E+02</rscale>
<asrwt>0</asrwt>
<pdfrwt beam="2">  1        3 0.28140516E-03 0.20000771E+02</pdfrwt>
<pdfrwt beam="1">  1       -3 0.84115246E-02 0.20000771E+02</pdfrwt>
<totfact> 0.15902920E+06</totfact>
</mgrwt>
</event>
<event>
 5    1  0.4133473E-007  0.2000068E+02  0.7818608E-02  0.1745315E+00
         -3   -1    0    0    0  501 -0.00000000000E+00  0.00000000000E+00  0.11027709943E+03  0.11027713865E+03  0.93000000000E-01 0.  1.
          3   -1    0    0  501    0  0.00000000000E+00 -0.00000000000E+00 -0.90444459810E+00  0.90921341336E+00  0.93000000000E-01 0. -1.
       1023    2    1    2    0    0  0.00000000000E+00  0.00000000000E+00  0.10937265483E+03  0.11118635206E+03  0.20000681464E+02 0.  0.
        -11    1    3    3    0    0 -0.99870364937E+01  0.51528475881E+00  0.54575396606E+02  0.55484054748E+02  0.51100000000E-03 0.  1.
         11    1    3    3    0    0  0.99870364937E+01 -0.51528475881E+00  0.54797258229E+02  0.55702297313E+02  0.51100000000E-03 0. -1.
<mgrwt>
<rscale>  0 0.20000681E+02</rscale>
<asrwt>0</asrwt>
<pdfrwt beam="2">  1        3 0.13951515E-03 0.20000681E+02</pdfrwt>
<pdfrwt beam="1">  1       -3 0.16966080E-01 0.20000681E+02</pdfrwt>
<totfact> 0.13803889E+06</totfact>
</mgrwt>
</event>
<event>
 5    1  0.4133473E-007  0.2000045E+02  0.7818608E-02  0.1745319E+00
         -3   -1    0    0    0  501 -0.00000000000E+00  0.00000000000E+00  0.35912075840E+01  0.35924115733E+01  0.93000000000E-01 0.  1.
          3   -1    0    0  501    0  0.00000000000E+00 -0.00000000000E+00 -0.27841102935E+02  0.27841258262E+02  0.93000000000E-01 0. -1.
       1023    2    1    2    0    0  0.00000000000E+00  0.00000000000E+00 -0.24249895351E+02  0.31433669835E+02  0.20000454365E+02 0.  0.
        -11    1    3    3    0    0 -0.86135117839E+01 -0.50804826761E+01 -0.12084756311E+02  0.15685828790E+02  0.51100000000E-03 0. -1.
         11    1    3    3    0    0  0.86135117839E+01  0.50804826761E+01 -0.12165139040E+02  0.15747841045E+02  0.51100000000E-03 0.  1.
<mgrwt>
<rscale>  0 0.20000454E+02</rscale>
<asrwt>0</asrwt>
<pdfrwt beam="2">  1        3 0.42833510E-02 0.20000454E+02</pdfrwt>
<pdfrwt beam="1">  1       -3 0.55259806E-03 0.20000454E+02</pdfrwt>
<totfact> 0.17182540E+06</totfact>
</mgrwt>
</event>
<event>
 5    1  0.4133473E-007  0.2000396E+02  0.7818608E-02  0.1745249E+00
         -3   -1    0    0    0  501 -0.00000000000E+00  0.00000000000E+00  0.45049087479E+02  0.45049183474E+02  0.93000000000E-01 0.  1.
          3   -1    0    0  501    0  0.00000000000E+00 -0.00000000000E+00 -0.22196082926E+01  0.22215557550E+01  0.93000000000E-01 0. -1.
       1023    2    1    2    0    0  0.00000000000E+00  0.00000000000E+00  0.42829479187E+02  0.47270739229E+02  0.20003962105E+02 0.  0.
        -11    1    3    3    0    0  0.99697094004E+01 -0.79405205095E+00  0.21135132259E+02  0.23382032419E+02  0.51100000000E-03 0.  1.
         11    1    3    3    0    0 -0.99697094004E+01  0.79405205095E+00  0.21694346927E+02  0.23888706810E+02  0.51100000000E-03 0. -1.
<mgrwt>
<rscale>  0 0.20003962E+02</rscale>
<asrwt>0</asrwt>
<pdfrwt beam="2">  1        3 0.34163540E-03 0.20003962E+02</pdfrwt>
<pdfrwt beam="1">  1       -3 0.69307857E-02 0.20003962E+02</pdfrwt>
<totfact> 0.16336058E+06</totfact>
</mgrwt>
</event>
<event>
 5    1  0.4284264E-007  0.2000104E+02  0.7818608E-02  0.1745307E+00
         -3   -1    0    0    0  501 -0.00000000000E+00  0.00000000000E+00  0.24389259833E+02  0.24389437144E+02  0.93000000000E-01 0. -1.
          3   -1    0    0  501    0  0.00000000000E+00 -0.00000000000E+00 -0.40998731437E+01  0.41009277968E+01  0.93000000000E-01 0.  1.
       1023    2    1    2    0    0  0.00000000000E+00  0.00000000000E+00  0.20289386689E+02  0.28490364941E+02  0.20001042029E+02 0.  0.
        -11    1    3    3    0    0  0.98416146335E+01 -0.17741974477E+01  0.10041334056E+02  0.14171575250E+02  0.51100000000E-03 0. -1.
         11    1    3    3    0    0 -0.98416146335E+01  0.17741974477E+01  0.10248052633E+02  0.14318789691E+02  0.51100000000E-03 0.  1.
<mgrwt>
<rscale>  0 0.20001042E+02</rscale>
<asrwt>0</asrwt>
<pdfrwt beam="2">  1        3 0.63084450E-03 0.20001042E+02</pdfrwt>
<pdfrwt beam="1">  1       -3 0.37522885E-02 0.20001042E+02</pdfrwt>
<totfact> 0.17354856E+06</totfact>
</mgrwt>
</event>
<event>
 5    1  0.4133473E-007  0.2000048E+02  0.7818608E-02  0.1745319E+00
         -3   -1    0    0    0  501 -0.00000000000E+00  0.00000000000E+00  0.20885339762E+01  0.20906035420E+01  0.93000000000E-01 0.  1.
          3   -1    0    0  501    0  0.00000000000E+00 -0.00000000000E+00 -0.47856949834E+02  0.47857040197E+02  0.93000000000E-01 0. -1.
       1023    2    1    2    0    0  0.00000000000E+00  0.00000000000E+00 -0.45768415858E+02  0.49947643739E+02  0.20000480618E+02 0.  0.
        -11    1    3    3    0    0  0.45435574784E+01 -0.89084707594E+01 -0.22900031146E+02  0.24988321123E+02  0.51100000000E-03 0. -1.
         11    1    3    3    0    0 -0.45435574784E+01  0.89084707594E+01 -0.22868384712E+02  0.24959322616E+02  0.51100000000E-03 0.  1.
<mgrwt>
<rscale>  0 0.20000481E+02</rscale>
<asrwt>0</asrwt>
<pdfrwt beam="2">  1        3 0.73627730E-02 0.20000481E+02</pdfrwt>
<pdfrwt beam="1">  1       -3 0.32147910E-03 0.20000481E+02</pdfrwt>
<totfact> 0.16208883E+06</totfact>
</mgrwt>
</event>
<event>
 5    1  0.4133473E-007  0.2000193E+02  0.7818608E-02  0.1745290E+00
          3   -1    0    0  501    0  0.00000000000E+00  0.00000000000E+00  0.25558439989E+02  0.25558609189E+02  0.93000000000E-01 0. -1.
         -3   -1    0    0    0  501 -0.00000000000E+00 -0.00000000000E+00 -0.39126225364E+01  0.39137276492E+01  0.93000000000E-01 0.  1.
       1023    2    1    2    0    0  0.00000000000E+00  0.00000000000E+00  0.21645817453E+02  0.29472336838E+02  0.20001930545E+02 0.  0.
        -11    1    3    3    0    0  0.57281002990E+01  0.81970100971E+01  0.11016144966E+02  0.14878089855E+02  0.51100000000E-03 0. -1.
         11    1    3    3    0    0 -0.57281002990E+01 -0.81970100971E+01  0.10629672487E+02  0.14594246983E+02  0.51100000000E-03 0.  1.
<mgrwt>
<rscale>  0 0.20001931E+02</rscale>
<asrwt>0</asrwt>
<pdfrwt beam="1">  1        3 0.39321658E-02 0.20001931E+02</pdfrwt>
<pdfrwt beam="2">  1       -3 0.60203994E-03 0.20001931E+02</pdfrwt>
<totfact> 0.17293677E+06</totfact>
</mgrwt>
</event>
<event>
 4    1  0.4133473E-007  0.2001712E+02  0.7818608E-02  0.1744988E+00
          3   -1    0    0  501    0  0.00000000000E+00  0.00000000000E+00  0.21488830290E+01  0.21508945284E+01  0.93000000000E-01 0.  1.
         -3   -1    0    0    0  501 -0.00000000000E+00 -0.00000000000E+00 -0.46591643532E+02  0.46591736349E+02  0.93000000000E-01 0. -1.
        -11    1    1    2    0    0 -0.99876452007E+01  0.63079064847E+00 -0.22568510470E+02  0.24687823286E+02  0.51100000000E-03 0.  1.
         11    1    1    2    0    0  0.99876452007E+01 -0.63079064847E+00 -0.21874250033E+02  0.24054807592E+02  0.51100000000E-03 0. -1.
<mgrwt>
<rscale>  0 0.20017120E+02</rscale>
<asrwt>0</asrwt>
<pdfrwt beam="1">  1        3 0.33075929E-03 0.20017120E+02</pdfrwt>
<pdfrwt beam="2">  1       -3 0.71681063E-02 0.20017120E+02</pdfrwt>
<totfact> 0.16240869E+06</totfact>
</mgrwt>
</event>
<event>
 5    1  0.4133473E-007  0.2000015E+02  0.7818608E-02  0.1745325E+00
         -3   -1    0    0    0  501 -0.00000000000E+00  0.00000000000E+00  0.13032196709E+01  0.13065337771E+01  0.93000000000E-01 0.  1.
          3   -1    0    0  501    0  0.00000000000E+00 -0.00000000000E+00 -0.76633385515E+02  0.76633441946E+02  0.93000000000E-01 0. -1.
       1023    2    1    2    0    0  0.00000000000E+00  0.00000000000E+00 -0.75330165844E+02  0.77939975723E+02  0.20000148240E+02 0.  0.
        -11    1    3    3    0    0  0.90762891967E+01  0.41978980258E+01 -0.37624448740E+02  0.38930714309E+02  0.51100000000E-03 0.  1.
         11    1    3    3    0    0 -0.90762891967E+01 -0.41978980258E+01 -0.37705717104E+02  0.39009261413E+02  0.51100000000E-03 0. -1.
<mgrwt>
<rscale>  0 0.20000148E+02</rscale>
<asrwt>0</asrwt>
<pdfrwt beam="2">  1        3 0.11790007E-01 0.20000148E+02</pdfrwt>
<pdfrwt beam="1">  1       -3 0.20075467E-03 0.20000148E+02</pdfrwt>
<totfact> 0.14991769E+06</totfact>
</mgrwt>
</event>
<event>
 5    1  0.4168851E-007  0.2000181E+02  0.7818608E-02  0.1745292E+00
         -3   -1    0    0    0  501 -0.00000000000E+00  0.00000000000E+00  0.26886402500E+01  0.26902482031E+01  0.93000000000E-01 0. -1.
          3   -1    0    0  501    0  0.00000000000E+00 -0.00000000000E+00 -0.37187462869E+02  0.37187579158E+02  0.93000000000E-01 0.  1.
       1023    2    1    2    0    0  0.00000000000E+00  0.00000000000E+00 -0.34498822619E+02  0.39877827361E+02  0.20001808742E+02 0.  0.
        -11    1    3    3    0    0 -0.77054314616E+01 -0.63752940044E+01 -0.17236751436E+02  0.19927961461E+02  0.51100000000E-03 0.  1.
         11    1    3    3    0    0  0.77054314616E+01  0.63752940044E+01 -0.17262071183E+02  0.19949865900E+02  0.51100000000E-03 0. -1.
<mgrwt>
<rscale>  0 0.20001809E+02</rscale>
<asrwt>0</asrwt>
<pdfrwt beam="2">  1        3 0.57212804E-02 0.20001809E+02</pdfrwt>
<pdfrwt beam="1">  1       -3 0.41376962E-03 0.20001809E+02</pdfrwt>
<totfact> 0.16715018E+06</totfact>
</mgrwt>
</event>
<event>
 5    1  0.4267049E-007  0.2000081E+02  0.7818608E-02  0.1745312E+00
          3   -1    0    0  501    0  0.00000000000E+00  0.00000000000E+00  0.16936911255E+02  0.16937166583E+02  0.93000000000E-01 0.  1.
         -3   -1    0    0    0  501 -0.00000000000E+00 -0.00000000000E+00 -0.59040765674E+01  0.59048089820E+01  0.93000000000E-01 0. -1.
       1023    2    1    2    0    0  0.00000000000E+00  0.00000000000E+00  0.11032834688E+02  0.22841975565E+02  0.20000810146E+02 0.  0.
        -11    1    3    3    0    0 -0.18622870220E+01 -0.98254400538E+01  0.54858547995E+01  0.11406225859E+02  0.51100000000E-03 0.  1.
         11    1    3    3    0    0  0.18622870220E+01  0.98254400538E+01  0.55469798885E+01  0.11435749706E+02  0.51100000000E-03 0. -1.
<mgrwt>
<rscale>  0 0.20000810E+02</rscale>
<asrwt>0</asrwt>
<pdfrwt beam="1">  1        3 0.26057546E-02 0.20000810E+02</pdfrwt>
<pdfrwt beam="2">  1       -3 0.90839545E-03 0.20000810E+02</pdfrwt>
<totfact> 0.17700184E+06</totfact>
</mgrwt>
</event>
<event>
 5    1  0.4206054E-007  0.2000147E+02  0.7818608E-02  0.1745299E+00
          3   -1    0    0  501    0  0.00000000000E+00  0.00000000000E+00  0.63721751385E+01  0.63728537561E+01  0.93000000000E-01 0.  1.
         -3   -1    0    0    0  501 -0.00000000000E+00 -0.00000000000E+00 -0.15693886285E+02  0.15694161836E+02  0.93000000000E-01 0. -1.
       1023    2    1    2    0    0  0.00000000000E+00  0.00000000000E+00 -0.93217111468E+01  0.22067015592E+02  0.20001471907E+02 0.  0.
        -11    1    3    3    0    0 -0.95096227133E+01 -0.30934776460E+01 -0.45390391573E+01  0.10982049209E+02  0.51100000000E-03 0.  1.
         11    1    3    3    0    0  0.95096227133E+01  0.30934776460E+01 -0.47826719894E+01  0.11084966383E+02  0.51100000000E-03 0. -1.
<mgrwt>
<rscale>  0 0.20001472E+02</rscale>
<asrwt>0</asrwt>
<pdfrwt beam="1">  1        3 0.98040804E-03 0.20001472E+02</pdfrwt>
<pdfrwt beam="2">  1       -3 0.24145174E-02 0.20001472E+02</pdfrwt>
<totfact> 0.17749139E+06</totfact>
</mgrwt>
</event>
<event>
 5    1  0.4162735E-007  0.2000178E+02  0.7818608E-02  0.1745293E+00
         -3   -1    0    0    0  501 -0.00000000000E+00  0.00000000000E+00  0.21956995059E+01  0.21976681552E+01  0.93000000000E-01 0. -1.
          3   -1    0    0  501    0  0.00000000000E+00 -0.00000000000E+00 -0.45529233354E+02  0.45529328337E+02  0.93000000000E-01 0.  1.
       1023    2    1    2    0    0  0.00000000000E+00  0.00000000000E+00 -0.43333533848E+02  0.47726996492E+02  0.20001775881E+02 0.  0.
        -11    1    3    3    0    0  0.32714161819E+00  0.99953071679E+01 -0.21828114951E+02  0.24009993536E+02  0.51100000000E-03 0. -1.
         11    1    3    3    0    0 -0.32714161819E+00 -0.99953071679E+01 -0.21505418897E+02  0.23717002956E+02  0.51100000000E-03 0.  1.
<mgrwt>
<rscale>  0 0.20001776E+02</rscale>
<asrwt>0</asrwt>
<pdfrwt beam="2">  1        3 0.70046555E-02 0.20001776E+02</pdfrwt>
<pdfrwt beam="1">  1       -3 0.33795870E-03 0.20001776E+02</pdfrwt>
<totfact> 0.16314898E+06</totfact>
</mgrwt>
</event>
<event>
 5    1  0.4133473E-007  0.2000147E+02  0.7818608E-02  0.1745299E+00
          3   -1    0    0  501    0  0.00000000000E+00  0.00000000000E+00  0.15926654227E+01  0.15953783716E+01  0.93000000000E-01 0. -1.
         -3   -1    0    0    0  501 -0.00000000000E+00 -0.00000000000E+00 -0.62740901587E+02  0.62740970513E+02  0.93000000000E-01 0.  1.
       1023    2    1    2    0    0  0.00000000000E+00  0.00000000000E+00 -0.61148236164E+02  0.64336348885E+02  0.20001474992E+02 0.  0.
        -11    1    3    3    0    0 -0.63291844522E+01 -0.77426739795E+01 -0.30846561023E+02  0.32427116791E+02  0.51100000000E-03 0. -1.
         11    1    3    3    0    0  0.63291844522E+01  0.77426739795E+01 -0.30301675141E+02  0.31909232094E+02  0.51100000000E-03 0.  1.
<mgrwt>
<rscale>  0 0.20001475E+02</rscale>
<asrwt>0</asrwt>
<pdfrwt beam="1">  1        3 0.24523949E-03 0.20001475E+02</pdfrwt>
<pdfrwt beam="2">  1       -3 0.96526585E-02 0.20001475E+02</pdfrwt>
<totfact> 0.15553450E+06</totfact>
</mgrwt>
</event>
<event>
 4    1  0.4133473E-007  0.2001729E+02  0.7818608E-02  0.1744984E+00
          3   -1    0    0  501    0  0.00000000000E+00  0.00000000000E+00  0.13974764517E+02  0.13975073964E+02  0.93000000000E-01 0. -1.
         -3   -1    0    0    0  501 -0.00000000000E+00 -0.00000000000E+00 -0.71674446316E+01  0.71680479594E+01  0.93000000000E-01 0.  1.
        -11    1    1    2    0    0 -0.95536407459E+01  0.29833489349E+01  0.34290434137E+01  0.10579733520E+02  0.51100000000E-03 0.  1.
         11    1    1    2    0    0  0.95536407459E+01 -0.29833489349E+01  0.33782764712E+01  0.10563388403E+02  0.51100000000E-03 0. -1.
<mgrwt>
<rscale>  0 0.20017293E+02</rscale>
<asrwt>0</asrwt>
<pdfrwt beam="1">  1        3 0.21500340E-02 0.20017293E+02</pdfrwt>
<pdfrwt beam="2">  1       -3 0.11027540E-02 0.20017293E+02</pdfrwt>
<totfact> 0.17777619E+06</totfact>
</mgrwt>
</event>
<event>
 5    1  0.4133473E-007  0.2000047E+02  0.7818608E-02  0.1745319E+00
          3   -1    0    0  501    0  0.00000000000E+00  0.00000000000E+00  0.85270651608E+01  0.85275722956E+01  0.93000000000E-01 0.  1.
         -3   -1    0    0    0  501 -0.00000000000E+00 -0.00000000000E+00 -0.11726879625E+02  0.11727248387E+02  0.93000000000E-01 0. -1.
       1023    2    1    2    0    0  0.00000000000E+00  0.00000000000E+00 -0.31998144643E+01  0.20254820683E+02  0.20000473702E+02 0.  0.
        -11    1    3    3    0    0  0.75016815291E+01  0.66127904576E+01 -0.15769604854E+01  0.10123785262E+02  0.51100000000E-03 0.  1.
         11    1    3    3    0    0 -0.75016815291E+01 -0.66127904576E+01 -0.16228539789E+01  0.10131035421E+02  0.51100000000E-03 0. -1.
<mgrwt>
<rscale>  0 0.20000474E+02</rscale>
<asrwt>0</asrwt>
<pdfrwt beam="1">  1        3 0.13119236E-02 0.20000474E+02</pdfrwt>
<pdfrwt beam="2">  1       -3 0.18042027E-02 0.20000474E+02</pdfrwt>
<totfact> 0.17868175E+06</totfact>
</mgrwt>
</event>
<event>
 5    1  0.4133473E-007  0.2000256E+02  0.7818608E-02  0.1745277E+00
         -3   -1    0    0    0  501 -0.00000000000E+00  0.00000000000E+00  0.26594899075E+01  0.26611154744E+01  0.93000000000E-01 0. -1.
          3   -1    0    0  501    0  0.00000000000E+00 -0.00000000000E+00 -0.37597663860E+02  0.37597778880E+02  0.93000000000E-01 0.  1.
       1023    2    1    2    0    0  0.00000000000E+00  0.00000000000E+00 -0.34938173952E+02  0.40258894355E+02  0.20002564224E+02 0.  0.
        -11    1    3    3    0    0  0.10001267130E+02  0.12721703489E-01 -0.17492693730E+02  0.20149934001E+02  0.51100000000E-03 0.  1.
         11    1    3    3    0    0 -0.10001267130E+02 -0.12721703489E-01 -0.17445480223E+02  0.20108960354E+02  0.51100000000E-03 0. -1.
<mgrwt>
<rscale>  0 0.20002564E+02</rscale>
<asrwt>0</asrwt>
<pdfrwt beam="2">  1        3 0.57843895E-02 0.20002564E+02</pdfrwt>
<pdfrwt beam="1">  1       -3 0.40928621E-03 0.20002564E+02</pdfrwt>
<totfact> 0.16693582E+06</totfact>
</mgrwt>
</event>
<event>
 5    1  0.4133473E-007  0.2000041E+02  0.7818608E-02  0.1745320E+00
         -3   -1    0    0    0  501 -0.00000000000E+00  0.00000000000E+00  0.49050059950E+02  0.49050148115E+02  0.93000000000E-01 0. -1.
          3   -1    0    0  501    0  0.00000000000E+00 -0.00000000000E+00 -0.20376672748E+01  0.20397884505E+01  0.93000000000E-01 0.  1.
       1023    2    1    2    0    0  0.00000000000E+00  0.00000000000E+00  0.47012392676E+02  0.51089936566E+02  0.20000413826E+02 0.  0.
        -11    1    3    3    0    0  0.98655941025E+01  0.16344537763E+01  0.23640198751E+02  0.25668275816E+02  0.51100000000E-03 0.  1.
         11    1    3    3    0    0 -0.98655941025E+01 -0.16344537763E+01  0.23372193925E+02  0.25421660750E+02  0.51100000000E-03 0. -1.
<mgrwt>
<rscale>  0 0.20000414E+02</rscale>
<asrwt>0</asrwt>
<pdfrwt beam="2">  1        3 0.31365721E-03 0.20000414E+02</pdfrwt>
<pdfrwt beam="1">  1       -3 0.75463333E-02 0.20000414E+02</pdfrwt>
<totfact> 0.16156690E+06</totfact>
</mgrwt>
</event>
<event>
 5    1  0.4133473E-007  0.2000181E+02  0.7818608E-02  0.1745292E+00
          3   -1    0    0  501    0  0.00000000000E+00  0.00000000000E+00  0.21533320290E+01  0.21553393763E+01  0.93000000000E-01 0.  1.
         -3   -1    0    0    0  501 -0.00000000000E+00 -0.00000000000E+00 -0.46424391820E+02  0.46424484971E+02  0.93000000000E-01 0. -1.
       1023    2    1    2    0    0  0.00000000000E+00  0.00000000000E+00 -0.44271059790E+02  0.48579824347E+02  0.20001814883E+02 0.  0.
        -11    1    3    3    0    0 -0.94428546362E+01  0.32926114686E+01 -0.22370449082E+02  0.24503995314E+02  0.51100000000E-03 0.  1.
         11    1    3    3    0    0  0.94428546362E+01 -0.32926114686E+01 -0.21900610709E+02  0.24075829033E+02  0.51100000000E-03 0. -1.
<mgrwt>
<rscale>  0 0.20001815E+02</rscale>
<asrwt>0</asrwt>
<pdfrwt beam="1">  1        3 0.33144346E-03 0.20001815E+02</pdfrwt>
<pdfrwt beam="2">  1       -3 0.71423750E-02 0.20001815E+02</pdfrwt>
<totfact> 0.16275530E+06</totfact>
</mgrwt>
</event>
<event>
 5    1  0.4133473E-007  0.2000028E+02  0.7818608E-02  0.1745323E+00
         -3   -1    0    0    0  501 -0.00000000000E+00  0.00000000000E+00  0.13245863056E+02  0.13246189531E+02  0.93000000000E-01 0. -1.
          3   -1    0    0  501    0  0.00000000000E+00 -0.00000000000E+00 -0.75490324163E+01  0.75496052494E+01  0.93000000000E-01 0.  1.
       1023    2    1    2    0    0  0.00000000000E+00  0.00000000000E+00  0.56968306394E+01  0.20795794780E+02  0.20000280028E+02 0.  0.
        -11    1    3    3    0    0 -0.10255662637E+01 -0.99473688308E+01  0.28177953078E+01  0.10389509299E+02  0.51100000000E-03 0.  1.
         11    1    3    3    0    0  0.10255662637E+01  0.99473688308E+01  0.28790353317E+01  0.10406285481E+02  0.51100000000E-03 0. -1.
<mgrwt>
<rscale>  0 0.20000280E+02</rscale>
<asrwt>0</asrwt>
<pdfrwt beam="2">  1        3 0.11614588E-02 0.20000280E+02</pdfrwt>
<pdfrwt beam="1">  1       -3 0.20378942E-02 0.20000280E+02</pdfrwt>
<totfact> 0.17833375E+06</totfact>
</mgrwt>
</event>
<event>
 5    1  0.4284973E-007  0.2000082E+02  0.7818608E-02  0.1745312E+00
          3   -1    0    0  501    0  0.00000000000E+00  0.00000000000E+00  0.41266158860E+01  0.41276637061E+01  0.93000000000E-01 0.  1.
         -3   -1    0    0    0  501 -0.00000000000E+00 -0.00000000000E+00 -0.24230702111E+02  0.24230880582E+02  0.93000000000E-01 0. -1.
       1023    2    1    2    0    0  0.00000000000E+00  0.00000000000E+00 -0.20104086225E+02  0.28358544288E+02  0.20000818763E+02 0.  0.
        -11    1    3    3    0    0  0.10000059230E+02  0.73333583776E-01 -0.10109201236E+02  0.14219792977E+02  0.51100000000E-03 0.  1.
         11    1    3    3    0    0 -0.10000059230E+02 -0.73333583776E-01 -0.99948849891E+01  0.14138751311E+02  0.51100000000E-03 0. -1.
<mgrwt>
<rscale>  0 0.20000819E+02</rscale>
<asrwt>0</asrwt>
<pdfrwt beam="1">  1        3 0.63495833E-03 0.20000819E+02</pdfrwt>
<pdfrwt beam="2">  1       -3 0.37278946E-02 0.20000819E+02</pdfrwt>
<totfact> 0.17363095E+06</totfact>
</mgrwt>
</event>
<event>
 5    1  0.4133473E-007  0.2000033E+02  0.7818608E-02  0.1745322E+00
          3   -1    0    0  501    0  0.00000000000E+00  0.00000000000E+00  0.10018560571E+03  0.10018564887E+03  0.93000000000E-01 0. -1.
         -3   -1    0    0    0  501 -0.00000000000E+00 -0.00000000000E+00 -0.99597036341E+00  0.10003029365E+01  0.93000000000E-01 0.  1.
       1023    2    1    2    0    0  0.00000000000E+00  0.00000000000E+00  0.99189635342E+02  0.10118595181E+03  0.20000327092E+02 0.  0.
        -11    1    3    3    0    0  0.97636919079E+01  0.21615617644E+01  0.49773096543E+02  0.50767737479E+02  0.51100000000E-03 0.  1.
         11    1    3    3    0    0 -0.97636919079E+01 -0.21615617644E+01  0.49416538799E+02  0.50418214328E+02  0.51100000000E-03 0. -1.
<mgrwt>
<rscale>  0 0.20000327E+02</rscale>
<asrwt>0</asrwt>
<pdfrwt beam="1">  1        3 0.15413512E-01 0.20000327E+02</pdfrwt>
<pdfrwt beam="2">  1       -3 0.15356275E-03 0.20000327E+02</pdfrwt>
<totfact> 0.14136610E+06</totfact>
</mgrwt>
</event>
<event>
 4    1  0.4133473E-007  0.2001887E+02  0.7818608E-02  0.1744953E+00
         -3   -1    0    0    0  501 -0.00000000000E+00  0.00000000000E+00  0.13937994185E+01  0.13968986431E+01  0.93000000000E-01 0. -1.
          3   -1    0    0  501    0  0.00000000000E+00 -0.00000000000E+00 -0.71798793358E+02  0.71798853589E+02  0.93000000000E-01 0.  1.
        -11    1    1    2    0    0 -0.73109175119E+01  0.68359897155E+01 -0.34865939531E+02  0.36274150712E+02  0.51100000000E-03 0.  1.
         11    1    1    2    0    0  0.73109175119E+01 -0.68359897155E+01 -0.35539054408E+02  0.36921601519E+02  0.51100000000E-03 0. -1.
<mgrwt>
<rscale>  0 0.20018865E+02</rscale>
<asrwt>0</asrwt>
<pdfrwt beam="2">  1        3 0.11046208E-01 0.20018865E+02</pdfrwt>
<pdfrwt beam="1">  1       -3 0.21467377E-03 0.20018865E+02</pdfrwt>
<totfact> 0.15151057E+06</totfact>
</mgrwt>
</event>
<event>
 5    1  0.4133473E-007  0.2000268E+02  0.7818608E-02  0.1745275E+00
          3   -1    0    0  501    0  0.00000000000E+00  0.00000000000E+00  0.22747694527E+02  0.22747884634E+02  0.93000000000E-01 0. -1.
         -3   -1    0    0    0  501 -0.00000000000E+00 -0.00000000000E+00 -0.43965293672E+01  0.43975128739E+01  0.93000000000E-01 0.  1.
       1023    2    1    2    0    0  0.00000000000E+00  0.00000000000E+00  0.18351165160E+02  0.27145397508E+02  0.20002683398E+02 0.  0.
        -11    1    3    3    0    0  0.17712123079E+01 -0.98431331138E+01  0.92416907594E+01  0.13617390017E+02  0.51100000000E-03 0.  1.
         11    1    3    3    0    0 -0.17712123079E+01  0.98431331138E+01  0.91094744007E+01  0.13528007490E+02  0.51100000000E-03 0. -1.
<mgrwt>
<rscale>  0 0.20002683E+02</rscale>
<asrwt>0</asrwt>
<pdfrwt beam="1">  1        3 0.34997355E-02 0.20002683E+02</pdfrwt>
<pdfrwt beam="2">  1       -3 0.67647942E-03 0.20002683E+02</pdfrwt>
<totfact> 0.17430651E+06</totfact>
</mgrwt>
</event>
<event>
 5    1  0.4133473E-007  0.2000012E+02  0.7818608E-02  0.1745326E+00
          3   -1    0    0  501    0  0.00000000000E+00  0.00000000000E+00  0.85442434918E+00  0.85947074905E+00  0.93000000000E-01 0.  1.
         -3   -1    0    0    0  501 -0.00000000000E+00 -0.00000000000E+00 -0.11668956756E+03  0.11668960462E+03  0.93000000000E-01 0. -1.
       1023    2    1    2    0    0  0.00000000000E+00  0.00000000000E+00 -0.11583514321E+03  0.11754907536E+03  0.20000117935E+02 0.  0.
        -11    1    3    3    0    0 -0.29546219434E+01 -0.95535836331E+01 -0.58039168400E+02  0.58894361529E+02  0.51100000000E-03 0. -1.
         11    1    3    3    0    0  0.29546219434E+01  0.95535836331E+01 -0.57795974806E+02  0.58654713835E+02  0.51100000000E-03 0.  1.
<mgrwt>
<rscale>  0 0.20000118E+02</rscale>
<asrwt>0</asrwt>
<pdfrwt beam="1">  1        3 0.13184103E-03 0.20000118E+02</pdfrwt>
<pdfrwt beam="2">  1       -3 0.17952620E-01 0.20000118E+02</pdfrwt>
<totfact> 0.13600442E+06</totfact>
</mgrwt>
</event>
<event>
 5    1  0.4133473E-007  0.2000344E+02  0.7818608E-02  0.1745260E+00
          3   -1    0    0  501    0  0.00000000000E+00  0.00000000000E+00  0.44373700232E+01  0.44383444800E+01  0.93000000000E-01 0. -1.
         -3   -1    0    0    0  501 -0.00000000000E+00 -0.00000000000E+00 -0.22540077417E+02  0.22540269275E+02  0.93000000000E-01 0.  1.
       1023    2    1    2    0    0  0.00000000000E+00  0.00000000000E+00 -0.18102707394E+02  0.26978613755E+02  0.20003439333E+02 0.  0.
        -11    1    3    3    0    0 -0.35677687141E+01  0.93425691435E+01 -0.88521101057E+01  0.13355614002E+02  0.51100000000E-03 0. -1.
         11    1    3    3    0    0  0.35677687141E+01 -0.93425691435E+01 -0.92505972885E+01  0.13622999752E+02  0.51100000000E-03 0.  1.
<mgrwt>
<rscale>  0 0.20003439E+02</rscale>
<asrwt>0</asrwt>
<pdfrwt beam="1">  1        3 0.68276204E-03 0.20003439E+02</pdfrwt>
<pdfrwt beam="2">  1       -3 0.34677939E-02 0.20003439E+02</pdfrwt>
<totfact> 0.17440710E+06</totfact>
</mgrwt>
</event>
<event>
 5    1  0.4133473E-007  0.2000428E+02  0.7818608E-02  0.1745243E+00
         -3   -1    0    0    0  501 -0.00000000000E+00  0.00000000000E+00  0.92377700771E+01  0.92382381977E+01  0.93000000000E-01 0.  1.
          3   -1    0    0  501    0  0.00000000000E+00 -0.00000000000E+00 -0.10828809436E+02  0.10829208780E+02  0.93000000000E-01 0. -1.
       1023    2    1    2    0    0  0.00000000000E+00  0.00000000000E+00 -0.15910393589E+01  0.20067446978E+02  0.20004275092E+02 0.  0.
        -11    1    3    3    0    0  0.40035689808E+01  0.91639059312E+01 -0.98852978950E+00  0.10049026217E+02  0.51100000000E-03 0.  1.
         11    1    3    3    0    0 -0.40035689808E+01 -0.91639059312E+01 -0.60250956943E+00  0.10018420761E+02  0.51100000000E-03 0. -1.
<mgrwt>
<rscale>  0 0.20004275E+02</rscale>
<asrwt>0</asrwt>
<pdfrwt beam="2">  1        3 0.16660374E-02 0.20004275E+02</pdfrwt>
<pdfrwt beam="1">  1       -3 0.14212621E-02 0.20004275E+02</pdfrwt>
<totfact> 0.17872936E+06</totfact>
</mgrwt>
</event>
<event>
 5    1  0.4133473E-007  0.2000266E+02  0.7818608E-02  0.1745275E+00
          3   -1    0    0  501    0  0.00000000000E+00  0.00000000000E+00  0.21924484901E+02  0.21924682145E+02  0.93000000000E-01 0.  1.
         -3   -1    0    0    0  501 -0.00000000000E+00 -0.00000000000E+00 -0.45616308729E+01  0.45625787906E+01  0.93000000000E-01 0. -1.
       1023    2    1    2    0    0  0.00000000000E+00  0.00000000000E+00  0.17362854028E+02  0.26487260936E+02  0.20002657121E+02 0.  0.
        -11    1    3    3    0    0  0.72306566085E+01  0.69083980300E+01  0.85027138466E+01  0.13126480920E+02  0.51100000000E-03 0. -1.
         11    1    3    3    0    0 -0.72306566085E+01 -0.69083980300E+01  0.88601401815E+01  0.13360780016E+02  0.51100000000E-03 0.  1.
<mgrwt>
<rscale>  0 0.20002657E+02</rscale>
<asrwt>0</asrwt>
<pdfrwt beam="1">  1        3 0.33730857E-02 0.20002657E+02</pdfrwt>
<pdfrwt beam="2">  1       -3 0.70187746E-03 0.20002657E+02</pdfrwt>
<totfact> 0.17470480E+06</totfact>
</mgrwt>
</event>
<event>
 5    1  0.4133473E-007  0.2000070E+02  0.7818608E-02  0.1745314E+00
          3   -1    0    0  501    0  0.00000000000E+00  0.00000000000E+00  0.91742890314E+00  0.92213057227E+00  0.93000000000E-01 0. -1.
         -3   -1    0    0    0  501 -0.00000000000E+00 -0.00000000000E+00 -0.10872461562E+03  0.10872465539E+03  0.93000000000E-01 0.  1.
       1023    2    1    2    0    0  0.00000000000E+00  0.00000000000E+00 -0.10780718671E+03  0.10964678596E+03  0.20000704115E+02 0.  0.
        -11    1    3    3    0    0  0.99697907952E+01 -0.78101408569E+00 -0.54003107633E+02  0.54921237657E+02  0.51100000000E-03 0. -1.
         11    1    3    3    0    0 -0.99697907952E+01  0.78101408569E+00 -0.53804079081E+02  0.54725548307E+02  0.51100000000E-03 0.  1.
<mgrwt>
<rscale>  0 0.20000704E+02</rscale>
<asrwt>0</asrwt>
<pdfrwt beam="1">  1        3 0.14150772E-03 0.20000704E+02</pdfrwt>
<pdfrwt beam="2">  1       -3 0.16727219E-01 0.20000704E+02</pdfrwt>
<totfact> 0.13854295E+06</totfact>
</mgrwt>
</event>
<event>
 5    1  0.4143289E-007  0.2000167E+02  0.7818608E-02  0.1745295E+00
          3   -1    0    0  501    0  0.00000000000E+00  0.00000000000E+00  0.18201743560E+02  0.18201981146E+02  0.93000000000E-01 0.  1.
         -3   -1    0    0    0  501 -0.00000000000E+00 -0.00000000000E+00 -0.54942292221E+01  0.54950162643E+01  0.93000000000E-01 0. -1.
       1023    2    1    2    0    0  0.00000000000E+00  0.00000000000E+00  0.12707514338E+02  0.23696997410E+02  0.20001669070E+02 0.  0.
        -11    1    3    3    0    0 -0.39718744976E+01 -0.91780830447E+01  0.62817330829E+01  0.11809875790E+02  0.51100000000E-03 0.  1.
         11    1    3    3    0    0  0.39718744976E+01  0.91780830447E+01  0.64257812554E+01  0.11887121620E+02  0.51100000000E-03 0. -1.
<mgrwt>
<rscale>  0 0.20001669E+02</rscale>
<asrwt>0</asrwt>
<pdfrwt beam="1">  1        3 0.28003470E-02 0.20001669E+02</pdfrwt>
<pdfrwt beam="2">  1       -3 0.84534486E-03 0.20001669E+02</pdfrwt>
<totfact> 0.17644620E+06</totfact>
</mgrwt>
</event>
<event>
 5    1  0.4133473E-007  0.2000287E+02  0.7818608E-02  0.1745271E+00
         -3   -1    0    0    0  501 -0.00000000000E+00  0.00000000000E+00  0.17463464281E+02  0.17463711910E+02  0.93000000000E-01 0. -1.
          3   -1    0    0  501    0  0.00000000000E+00 -0.00000000000E+00 -0.57272196863E+01  0.57279747149E+01  0.93000000000E-01 0.  1.
       1023    2    1    2    0    0  0.00000000000E+00  0.00000000000E+00  0.11736244595E+02  0.23191686625E+02  0.20002872077E+02 0.  0.
        -11    1    3    3    0    0 -0.97735831462E+01  0.21160033087E+01  0.56729917020E+01  0.11497096704E+02  0.51100000000E-03 0.  1.
         11    1    3    3    0    0  0.97735831462E+01 -0.21160033087E+01  0.60632528926E+01  0.11694589921E+02  0.51100000000E-03 0. -1.
<mgrwt>
<rscale>  0 0.20002872E+02</rscale>
<asrwt>0</asrwt>
<pdfrwt beam="2">  1        3 0.88118785E-03 0.20002872E+02</pdfrwt>
<pdfrwt beam="1">  1       -3 0.26867639E-02 0.20002872E+02</pdfrwt>
<totfact> 0.17675107E+06</totfact>
</mgrwt>
</event>
