<event>
 5    1  0.2115795E-006  0.2000298E+02  0.7818608E-02  0.1745269E+00
          1   -1    0    0  501    0  0.00000000000E+00  0.00000000000E+00  0.88681413005E+01  0.88681425301E+01  0.46700000000E-02 0. -1.
         -1   -1    0    0    0  501 -0.00000000000E+00 -0.00000000000E+00 -0.11279681762E+02  0.11279682729E+02  0.46700000000E-02 0.  1.
       1023    2    1    2    0    0  0.00000000000E+00  0.00000000000E+00 -0.24115404617E+01  0.20147825259E+02  0.20002983159E+02 0.  0.
        -13    1    3    3    0    0  0.93743129855E+01 -0.34834823079E+01 -0.12855166771E+01  0.10083457669E+02  0.10570000000E+00 0. -1.
         13    1    3    3    0    0 -0.93743129855E+01  0.34834823079E+01 -0.11260237846E+01  0.10064367590E+02  0.10570000000E+00 0.  1.
<mgrwt>
<rscale>  0 0.20002983E+02</rscale>
<asrwt>0</asrwt>
<pdfrwt beam="1">  1        1 0.13643296E-02 0.20002983E+02</pdfrwt>
<pdfrwt beam="2">  1       -1 0.17353358E-02 0.20002983E+02</pdfrwt>
<totfact> 0.38422588E+06</totfact>
</mgrwt>
</event>
<event>
 5    1  0.2115795E-006  0.2001222E+02  0.7818608E-02  0.1745085E+00
          1   -1    0    0  501    0  0.00000000000E+00  0.00000000000E+00  0.53690503727E+02  0.53690503930E+02  0.46700000000E-02 0. -1.
         -1   -1    0    0    0  501 -0.00000000000E+00 -0.00000000000E+00 -0.18648005386E+01  0.18648063861E+01  0.46700000000E-02 0.  1.
       1023    2    1    2    0    0  0.00000000000E+00  0.00000000000E+00  0.51825703189E+02  0.55555310316E+02  0.20012221100E+02 0.  0.
        -13    1    3    3    0    0 -0.40341088220E+01 -0.91536072783E+01  0.25301387109E+02  0.27207240255E+02  0.10570000000E+00 0. -1.
         13    1    3    3    0    0  0.40341088220E+01  0.91536072783E+01  0.26524316080E+02  0.28348070061E+02  0.10570000000E+00 0.  1.
<mgrwt>
<rscale>  0 0.20012221E+02</rscale>
<asrwt>0</asrwt>
<pdfrwt beam="1">  1        1 0.82600761E-02 0.20012221E+02</pdfrwt>
<pdfrwt beam="2">  1       -1 0.28689292E-03 0.20012221E+02</pdfrwt>
<totfact> 0.41872237E+06</totfact>
</mgrwt>
</event>
<event>
 4    1  0.2115795E-006  0.2023853E+02  0.7818608E-02  0.1740626E+00
         -1   -1    0    0    0  501 -0.00000000000E+00  0.00000000000E+00  0.49103974538E+02  0.49103974760E+02  0.46700000000E-02 0. -1.
          1   -1    0    0  501    0  0.00000000000E+00 -0.00000000000E+00 -0.20853587846E+01  0.20853640136E+01  0.46700000000E-02 0.  1.
        -13    1    1    2    0    0  0.42808113145E+01  0.91023625124E+01  0.20727050504E+02  0.23039100328E+02  0.10570000000E+00 0.  1.
         13    1    1    2    0    0 -0.42808113145E+01 -0.91023625124E+01  0.26291565249E+02  0.28150238446E+02  0.10570000000E+00 0. -1.
<mgrwt>
<rscale>  0 0.20238532E+02</rscale>
<asrwt>0</asrwt>
<pdfrwt beam="2">  1        1 0.32082485E-03 0.20238532E+02</pdfrwt>
<pdfrwt beam="1">  1       -1 0.75544581E-02 0.20238532E+02</pdfrwt>
<totfact> 0.34092546E+06</totfact>
</mgrwt>
</event>
<event>
 5    1  0.2115795E-006  0.2000248E+02  0.7818608E-02  0.1745279E+00
         -1   -1    0    0    0  501 -0.00000000000E+00  0.00000000000E+00  0.28544845901E+02  0.28544846283E+02  0.46700000000E-02 0. -1.
          1   -1    0    0  501    0  0.00000000000E+00 -0.00000000000E+00 -0.35041260878E+01  0.35041291996E+01  0.46700000000E-02 0.  1.
       1023    2    1    2    0    0  0.00000000000E+00  0.00000000000E+00  0.25040719813E+02  0.32048975482E+02  0.20002479364E+02 0.  0.
        -13    1    3    3    0    0 -0.49757566607E+01 -0.86746955528E+01  0.12405651674E+02  0.15934863138E+02  0.10570000000E+00 0. -1.
         13    1    3    3    0    0  0.49757566607E+01  0.86746955528E+01  0.12635068139E+02  0.16114112344E+02  0.10570000000E+00 0.  1.
<mgrwt>
<rscale>  0 0.20002479E+02</rscale>
<asrwt>0</asrwt>
<pdfrwt beam="2">  1        1 0.53909658E-03 0.20002479E+02</pdfrwt>
<pdfrwt beam="1">  1       -1 0.43915151E-02 0.20002479E+02</pdfrwt>
<totfact> 0.36603343E+06</totfact>
</mgrwt>
</event>
<event>
 5    1  0.2115795E-006  0.2000790E+02  0.7818608E-02  0.1745171E+00
          1   -1    0    0  501    0  0.00000000000E+00  0.00000000000E+00  0.58920076982E+01  0.58920095489E+01  0.46700000000E-02 0. -1.
         -1   -1    0    0    0  501 -0.00000000000E+00 -0.00000000000E+00 -0.16985545956E+02  0.16985546598E+02  0.46700000000E-02 0.  1.
       1023    2    1    2    0    0  0.00000000000E+00  0.00000000000E+00 -0.11093538257E+02  0.22877556146E+02  0.20007898045E+02 0.  0.
        -13    1    3    3    0    0  0.92794563405E+01  0.37286244664E+01 -0.58194545157E+01  0.11571005736E+02  0.10570000000E+00 0.  1.
         13    1    3    3    0    0 -0.92794563405E+01 -0.37286244664E+01 -0.52740837418E+01  0.11306550411E+02  0.10570000000E+00 0. -1.
<mgrwt>
<rscale>  0 0.20007898E+02</rscale>
<asrwt>0</asrwt>
<pdfrwt beam="1">  1        1 0.90646292E-03 0.20007898E+02</pdfrwt>
<pdfrwt beam="2">  1       -1 0.26131611E-02 0.20007898E+02</pdfrwt>
<totfact> 0.37702068E+06</totfact>
</mgrwt>
</event>
<event>
 4    1  0.2115795E-006  0.2337127E+02  0.7818608E-02  0.1685562E+00
          1   -1    0    0  501    0  0.00000000000E+00  0.00000000000E+00  0.19329649394E+01  0.19329705807E+01  0.46700000000E-02 0.  1.
         -1   -1    0    0    0  501 -0.00000000000E+00 -0.00000000000E+00 -0.70644787641E+02  0.70644787796E+02  0.46700000000E-02 0. -1.
        -13    1    1    2    0    0  0.66338401826E+00 -0.11659208796E+02 -0.35620042397E+02  0.37485674877E+02  0.10570000000E+00 0.  1.
         13    1    1    2    0    0 -0.66338401826E+00  0.11659208796E+02 -0.33091780305E+02  0.35092083500E+02  0.10570000000E+00 0. -1.
<mgrwt>
<rscale>  0 0.23371274E+02</rscale>
<asrwt>0</asrwt>
<pdfrwt beam="1">  1        1 0.29737972E-03 0.23371274E+02</pdfrwt>
<pdfrwt beam="2">  1       -1 0.10868427E-01 0.23371274E+02</pdfrwt>
<totfact> 0.23732261E+06</totfact>
</mgrwt>
</event>
<event>
 5    1  0.2115795E-006  0.2000191E+02  0.7818608E-02  0.1745290E+00
         -1   -1    0    0    0  501 -0.00000000000E+00  0.00000000000E+00  0.15601713385E+01  0.15601783277E+01  0.46700000000E-02 0.  1.
          1   -1    0    0  501    0  0.00000000000E+00 -0.00000000000E+00 -0.64107640450E+02  0.64107640620E+02  0.46700000000E-02 0. -1.
       1023    2    1    2    0    0  0.00000000000E+00  0.00000000000E+00 -0.62547469112E+02  0.65667818948E+02  0.20001913736E+02 0.  0.
        -13    1    3    3    0    0  0.92912982564E+01 -0.36982548482E+01 -0.31104613849E+02  0.32672824907E+02  0.10570000000E+00 0. -1.
         13    1    3    3    0    0 -0.92912982564E+01  0.36982548482E+01 -0.31442855263E+02  0.32994994041E+02  0.10570000000E+00 0.  1.
<mgrwt>
<rscale>  0 0.20001914E+02</rscale>
<asrwt>0</asrwt>
<pdfrwt beam="2">  1        1 0.98627124E-02 0.20001914E+02</pdfrwt>
<pdfrwt beam="1">  1       -1 0.24002696E-03 0.20001914E+02</pdfrwt>
<totfact> 0.42505167E+06</totfact>
</mgrwt>
</event>
<event>
 5    1  0.2115795E-006  0.2000153E+02  0.7818608E-02  0.1745298E+00
          1   -1    0    0  501    0  0.00000000000E+00  0.00000000000E+00  0.11127590036E+02  0.11127591016E+02  0.46700000000E-02 0.  1.
         -1   -1    0    0    0  501 -0.00000000000E+00 -0.00000000000E+00 -0.89880410826E+01  0.89880422958E+01  0.46700000000E-02 0. -1.
       1023    2    1    2    0    0  0.00000000000E+00  0.00000000000E+00  0.21395489533E+01  0.20115633312E+02  0.20001525787E+02 0.  0.
        -13    1    3    3    0    0 -0.29830615990E+00  0.99957416265E+01  0.10539132354E+01  0.10056129615E+02  0.10570000000E+00 0. -1.
         13    1    3    3    0    0  0.29830615990E+00 -0.99957416265E+01  0.10856357179E+01  0.10059503697E+02  0.10570000000E+00 0.  1.
<mgrwt>
<rscale>  0 0.20001526E+02</rscale>
<asrwt>0</asrwt>
<pdfrwt beam="1">  1        1 0.17119371E-02 0.20001526E+02</pdfrwt>
<pdfrwt beam="2">  1       -1 0.13827757E-02 0.20001526E+02</pdfrwt>
<totfact> 0.38781658E+06</totfact>
</mgrwt>
</event>
<event>
 5    1  0.2115795E-006  0.2000189E+02  0.7818608E-02  0.1745290E+00
         -1   -1    0    0    0  501 -0.00000000000E+00  0.00000000000E+00  0.26699215092E+02  0.26699215500E+02  0.46700000000E-02 0.  1.
          1   -1    0    0  501    0  0.00000000000E+00 -0.00000000000E+00 -0.37461360999E+01  0.37461390108E+01  0.46700000000E-02 0. -1.
       1023    2    1    2    0    0  0.00000000000E+00  0.00000000000E+00  0.22953078992E+02  0.30445354511E+02  0.20001894313E+02 0.  0.
        -13    1    3    3    0    0 -0.20491006159E+01  0.97879114283E+01  0.11591940871E+02  0.15309679589E+02  0.10570000000E+00 0. -1.
         13    1    3    3    0    0  0.20491006159E+01 -0.97879114283E+01  0.11361138121E+02  0.15135674922E+02  0.10570000000E+00 0.  1.
<mgrwt>
<rscale>  0 0.20001894E+02</rscale>
<asrwt>0</asrwt>
<pdfrwt beam="2">  1        1 0.57632888E-03 0.20001894E+02</pdfrwt>
<pdfrwt beam="1">  1       -1 0.41075719E-02 0.20001894E+02</pdfrwt>
<totfact> 0.36770008E+06</totfact>
</mgrwt>
</event>
<event>
 5    1  0.2115795E-006  0.2000668E+02  0.7818608E-02  0.1745195E+00
          1   -1    0    0  501    0  0.00000000000E+00  0.00000000000E+00  0.10136333611E+03  0.10136333622E+03  0.46700000000E-02 0. -1.
         -1   -1    0    0    0  501 -0.00000000000E+00 -0.00000000000E+00 -0.98720361537E+00  0.98721466111E+00  0.46700000000E-02 0.  1.
       1023    2    1    2    0    0  0.00000000000E+00  0.00000000000E+00  0.10037613250E+03  0.10235055088E+03  0.20006681149E+02 0.  0.
        -13    1    3    3    0    0 -0.94302280471E+01 -0.33318939849E+01  0.50995841122E+02  0.51967467735E+02  0.10570000000E+00 0.  1.
         13    1    3    3    0    0  0.94302280471E+01  0.33318939849E+01  0.49380291377E+02  0.50383083148E+02  0.10570000000E+00 0. -1.
<mgrwt>
<rscale>  0 0.20006681E+02</rscale>
<asrwt>0</asrwt>
<pdfrwt beam="1">  1        1 0.15594363E-01 0.20006681E+02</pdfrwt>
<pdfrwt beam="2">  1       -1 0.15187831E-03 0.20006681E+02</pdfrwt>
<totfact> 0.44393944E+06</totfact>
</mgrwt>
</event>
<event>
 5    1  0.2115795E-006  0.2000376E+02  0.7818608E-02  0.1745253E+00
          1   -1    0    0  501    0  0.00000000000E+00  0.00000000000E+00  0.49574702272E+01  0.49574724268E+01  0.46700000000E-02 0.  1.
         -1   -1    0    0    0  501 -0.00000000000E+00 -0.00000000000E+00 -0.20179148482E+02  0.20179149022E+02  0.46700000000E-02 0. -1.
       1023    2    1    2    0    0  0.00000000000E+00  0.00000000000E+00 -0.15221678255E+02  0.25136621449E+02  0.20003755872E+02 0.  0.
        -13    1    3    3    0    0  0.99508702338E+01 -0.99915407448E+00 -0.74966168927E+01  0.12499142555E+02  0.10570000000E+00 0. -1.
         13    1    3    3    0    0 -0.99508702338E+01  0.99915407448E+00 -0.77250613621E+01  0.12637478895E+02  0.10570000000E+00 0.  1.
<mgrwt>
<rscale>  0 0.20003756E+02</rscale>
<asrwt>0</asrwt>
<pdfrwt beam="1">  1        1 0.76268795E-03 0.20003756E+02</pdfrwt>
<pdfrwt beam="2">  1       -1 0.31044846E-02 0.20003756E+02</pdfrwt>
<totfact> 0.37383165E+06</totfact>
</mgrwt>
</event>
<event>
 5    1  0.2115795E-006  0.2000266E+02  0.7818608E-02  0.1745275E+00
         -1   -1    0    0    0  501 -0.00000000000E+00  0.00000000000E+00  0.52341192621E+02  0.52341192829E+02  0.46700000000E-02 0.  1.
          1   -1    0    0  501    0  0.00000000000E+00 -0.00000000000E+00 -0.19110456460E+01  0.19110513520E+01  0.46700000000E-02 0. -1.
       1023    2    1    2    0    0  0.00000000000E+00  0.00000000000E+00  0.50430146975E+02  0.54252244181E+02  0.20002656693E+02 0.  0.
        -13    1    3    3    0    0  0.88358818962E+01  0.46830768839E+01  0.24925760953E+02  0.26857191766E+02  0.10570000000E+00 0.  1.
         13    1    3    3    0    0 -0.88358818962E+01 -0.46830768839E+01  0.25504386022E+02  0.27395052415E+02  0.10570000000E+00 0. -1.
<mgrwt>
<rscale>  0 0.20002657E+02</rscale>
<asrwt>0</asrwt>
<pdfrwt beam="2">  1        1 0.29400751E-03 0.20002657E+02</pdfrwt>
<pdfrwt beam="1">  1       -1 0.80524908E-02 0.20002657E+02</pdfrwt>
<totfact> 0.34754320E+06</totfact>
</mgrwt>
</event>
<event>
 5    1  0.2115795E-006  0.2000170E+02  0.7818608E-02  0.1745294E+00
         -1   -1    0    0    0  501 -0.00000000000E+00  0.00000000000E+00  0.37732584533E+01  0.37732613433E+01  0.46700000000E-02 0.  1.
          1   -1    0    0  501    0  0.00000000000E+00 -0.00000000000E+00 -0.26506782116E+02  0.26506782527E+02  0.46700000000E-02 0. -1.
       1023    2    1    2    0    0  0.00000000000E+00  0.00000000000E+00 -0.22733523662E+02  0.30280043870E+02  0.20001698895E+02 0.  0.
        -13    1    3    3    0    0 -0.82024230733E+01 -0.57206587810E+01 -0.11384417745E+02  0.15153277568E+02  0.10570000000E+00 0.  1.
         13    1    3    3    0    0  0.82024230733E+01  0.57206587810E+01 -0.11349105917E+02  0.15126766303E+02  0.10570000000E+00 0. -1.
<mgrwt>
<rscale>  0 0.20001699E+02</rscale>
<asrwt>0</asrwt>
<pdfrwt beam="2">  1        1 0.40779666E-02 0.20001699E+02</pdfrwt>
<pdfrwt beam="1">  1       -1 0.58050157E-03 0.20001699E+02</pdfrwt>
<totfact> 0.40202433E+06</totfact>
</mgrwt>
</event>
<event>
 5    1  0.2115795E-006  0.2000140E+02  0.7818608E-02  0.1745300E+00
         -1   -1    0    0    0  501 -0.00000000000E+00  0.00000000000E+00  0.12654626652E+01  0.12654712821E+01  0.46700000000E-02 0. -1.
          1   -1    0    0  501    0  0.00000000000E+00 -0.00000000000E+00 -0.79033260055E+02  0.79033260193E+02  0.46700000000E-02 0.  1.
       1023    2    1    2    0    0  0.00000000000E+00  0.00000000000E+00 -0.77767797390E+02  0.80298731475E+02  0.20001399092E+02 0.  0.
        -13    1    3    3    0    0 -0.99223206066E+01  0.12440410969E+01 -0.39093832942E+02  0.40352683071E+02  0.10570000000E+00 0. -1.
         13    1    3    3    0    0  0.99223206066E+01 -0.12440410969E+01 -0.38673964448E+02  0.39946048404E+02  0.10570000000E+00 0.  1.
<mgrwt>
<rscale>  0 0.20001399E+02</rscale>
<asrwt>0</asrwt>
<pdfrwt beam="2">  1        1 0.12158960E-01 0.20001399E+02</pdfrwt>
<pdfrwt beam="1">  1       -1 0.19468730E-03 0.20001399E+02</pdfrwt>
<totfact> 0.43302738E+06</totfact>
</mgrwt>
</event>
<event>
 5    1  0.2115795E-006  0.2000616E+02  0.7818608E-02  0.1745206E+00
         -1   -1    0    0    0  501 -0.00000000000E+00  0.00000000000E+00  0.17156710008E+01  0.17156773566E+01  0.46700000000E-02 0. -1.
          1   -1    0    0  501    0  0.00000000000E+00 -0.00000000000E+00 -0.58322051825E+02  0.58322052012E+02  0.46700000000E-02 0.  1.
       1023    2    1    2    0    0  0.00000000000E+00  0.00000000000E+00 -0.56606380825E+02  0.60037729369E+02  0.20006163993E+02 0.  0.
        -13    1    3    3    0    0  0.72853010790E+01 -0.68522120018E+01 -0.27857511611E+02  0.29598657854E+02  0.10570000000E+00 0.  1.
         13    1    3    3    0    0 -0.72853010790E+01  0.68522120018E+01 -0.28748869214E+02  0.30439071515E+02  0.10570000000E+00 0. -1.
<mgrwt>
<rscale>  0 0.20006164E+02</rscale>
<asrwt>0</asrwt>
<pdfrwt beam="2">  1        1 0.89726223E-02 0.20006164E+02</pdfrwt>
<pdfrwt beam="1">  1       -1 0.26394993E-03 0.20006164E+02</pdfrwt>
<totfact> 0.42163632E+06</totfact>
</mgrwt>
</event>
<event>
 5    1  0.2115795E-006  0.2000182E+02  0.7818608E-02  0.1745292E+00
          1   -1    0    0  501    0  0.00000000000E+00  0.00000000000E+00  0.20567809441E+01  0.20567862458E+01  0.46700000000E-02 0.  1.
         -1   -1    0    0    0  501 -0.00000000000E+00 -0.00000000000E+00 -0.48628430136E+02  0.48628430360E+02  0.46700000000E-02 0. -1.
       1023    2    1    2    0    0  0.00000000000E+00  0.00000000000E+00 -0.46571649192E+02  0.50685216606E+02  0.20001816766E+02 0.  0.
        -13    1    3    3    0    0  0.22064846481E+01 -0.97538867837E+01 -0.23258755950E+02  0.25317736525E+02  0.10570000000E+00 0.  1.
         13    1    3    3    0    0 -0.22064846481E+01  0.97538867837E+01 -0.23312893242E+02  0.25367480081E+02  0.10570000000E+00 0. -1.
<mgrwt>
<rscale>  0 0.20001817E+02</rscale>
<asrwt>0</asrwt>
<pdfrwt beam="1">  1        1 0.31642830E-03 0.20001817E+02</pdfrwt>
<pdfrwt beam="2">  1       -1 0.74812965E-02 0.20001817E+02</pdfrwt>
<totfact> 0.35020738E+06</totfact>
</mgrwt>
</event>
<event>
 5    1  0.2115795E-006  0.2000489E+02  0.7818608E-02  0.1745231E+00
         -1   -1    0    0    0  501 -0.00000000000E+00  0.00000000000E+00  0.15114065568E+02  0.15114066289E+02  0.46700000000E-02 0.  1.
          1   -1    0    0  501    0  0.00000000000E+00 -0.00000000000E+00 -0.66195874669E+01  0.66195891142E+01  0.46700000000E-02 0. -1.
       1023    2    1    2    0    0  0.00000000000E+00  0.00000000000E+00  0.84944781010E+01  0.21733655404E+02  0.20004889877E+02 0.  0.
        -13    1    3    3    0    0 -0.32619907061E+01  0.94532070054E+01  0.40468364431E+01  0.10788501459E+02  0.10570000000E+00 0. -1.
         13    1    3    3    0    0  0.32619907061E+01 -0.94532070054E+01  0.44476416579E+01  0.10945153944E+02  0.10570000000E+00 0.  1.
<mgrwt>
<rscale>  0 0.20004890E+02</rscale>
<asrwt>0</asrwt>
<pdfrwt beam="2">  1        1 0.10183983E-02 0.20004890E+02</pdfrwt>
<pdfrwt beam="1">  1       -1 0.23252410E-02 0.20004890E+02</pdfrwt>
<totfact> 0.37926150E+06</totfact>
</mgrwt>
</event>
<event>
 5    1  0.2115795E-006  0.2000273E+02  0.7818608E-02  0.1745274E+00
         -1   -1    0    0    0  501 -0.00000000000E+00  0.00000000000E+00  0.17558239632E+01  0.17558301736E+01  0.46700000000E-02 0.  1.
          1   -1    0    0  501    0  0.00000000000E+00 -0.00000000000E+00 -0.56968737494E+02  0.56968737685E+02  0.46700000000E-02 0. -1.
       1023    2    1    2    0    0  0.00000000000E+00  0.00000000000E+00 -0.55212913531E+02  0.58724567859E+02  0.20002726056E+02 0.  0.
        -13    1    3    3    0    0 -0.82258868898E+01 -0.56867663053E+01 -0.27290752257E+02  0.29065458149E+02  0.10570000000E+00 0. -1.
         13    1    3    3    0    0  0.82258868898E+01  0.56867663053E+01 -0.27922161273E+02  0.29659109710E+02  0.10570000000E+00 0.  1.
<mgrwt>
<rscale>  0 0.20002726E+02</rscale>
<asrwt>0</asrwt>
<pdfrwt beam="2">  1        1 0.87644203E-02 0.20002726E+02</pdfrwt>
<pdfrwt beam="1">  1       -1 0.27012730E-03 0.20002726E+02</pdfrwt>
<totfact> 0.42103344E+06</totfact>
</mgrwt>
</event>
<event>
 4    1  0.2115795E-006  0.2001304E+02  0.7818608E-02  0.1745069E+00
          1   -1    0    0  501    0  0.00000000000E+00  0.00000000000E+00  0.11301839240E+02  0.11301840204E+02  0.46700000000E-02 0. -1.
         -1   -1    0    0    0  501 -0.00000000000E+00 -0.00000000000E+00 -0.88596601925E+01  0.88596614233E+01  0.46700000000E-02 0.  1.
        -13    1    1    2    0    0 -0.83524759566E+01  0.55083575311E+01  0.11042656779E+01  0.10066599847E+02  0.10570000000E+00 0. -1.
         13    1    1    2    0    0  0.83524759566E+01 -0.55083575311E+01  0.13379133692E+01  0.10094901781E+02  0.10570000000E+00 0.  1.
<mgrwt>
<rscale>  0 0.20013043E+02</rscale>
<asrwt>0</asrwt>
<pdfrwt beam="1">  1        1 0.17387447E-02 0.20013043E+02</pdfrwt>
<pdfrwt beam="2">  1       -1 0.13630248E-02 0.20013043E+02</pdfrwt>
<totfact> 0.38754915E+06</totfact>
</mgrwt>
</event>
<event>
 5    1  0.2115795E-006  0.2000151E+02  0.7818608E-02  0.1745298E+00
          1   -1    0    0  501    0  0.00000000000E+00  0.00000000000E+00  0.52941806900E+02  0.52941807106E+02  0.46700000000E-02 0. -1.
         -1   -1    0    0    0  501 -0.00000000000E+00 -0.00000000000E+00 -0.18891481043E+01  0.18891538764E+01  0.46700000000E-02 0.  1.
       1023    2    1    2    0    0  0.00000000000E+00  0.00000000000E+00  0.51052658796E+02  0.54830960982E+02  0.20001507747E+02 0.  0.
        -13    1    3    3    0    0  0.55071298674E+01 -0.83471677478E+01  0.25566689434E+02  0.27453059390E+02  0.10570000000E+00 0.  1.
         13    1    3    3    0    0 -0.55071298674E+01  0.83471677478E+01  0.25485969362E+02  0.27377901592E+02  0.10570000000E+00 0. -1.
<mgrwt>
<rscale>  0 0.20001508E+02</rscale>
<asrwt>0</asrwt>
<pdfrwt beam="1">  1        1 0.81448921E-02 0.20001508E+02</pdfrwt>
<pdfrwt beam="2">  1       -1 0.29063869E-03 0.20001508E+02</pdfrwt>
<totfact> 0.41878934E+06</totfact>
</mgrwt>
</event>
<event>
 5    1  0.2115795E-006  0.2001189E+02  0.7818608E-02  0.1745092E+00
          1   -1    0    0  501    0  0.00000000000E+00  0.00000000000E+00  0.53032657421E+02  0.53032657627E+02  0.46700000000E-02 0.  1.
         -1   -1    0    0    0  501 -0.00000000000E+00 -0.00000000000E+00 -0.18878696785E+01  0.18878754546E+01  0.46700000000E-02 0. -1.
       1023    2    1    2    0    0  0.00000000000E+00  0.00000000000E+00  0.51144787743E+02  0.54920533081E+02  0.20011887485E+02 0.  0.
        -13    1    3    3    0    0 -0.23716019249E+01  0.97201908573E+01  0.25664717093E+02  0.27546242610E+02  0.10570000000E+00 0. -1.
         13    1    3    3    0    0  0.23716019249E+01 -0.97201908573E+01  0.25480070650E+02  0.27374290471E+02  0.10570000000E+00 0.  1.
<mgrwt>
<rscale>  0 0.20011887E+02</rscale>
<asrwt>0</asrwt>
<pdfrwt beam="1">  1        1 0.81588699E-02 0.20011887E+02</pdfrwt>
<pdfrwt beam="2">  1       -1 0.29044198E-03 0.20011887E+02</pdfrwt>
<totfact> 0.41835940E+06</totfact>
</mgrwt>
</event>
<event>
 4    1  0.2115795E-006  0.2002505E+02  0.7818608E-02  0.1744830E+00
          1   -1    0    0  501    0  0.00000000000E+00  0.00000000000E+00  0.35580027607E+02  0.35580027914E+02  0.46700000000E-02 0.  1.
         -1   -1    0    0    0  501 -0.00000000000E+00 -0.00000000000E+00 -0.28176088700E+01  0.28176127401E+01  0.46700000000E-02 0. -1.
        -13    1    1    2    0    0 -0.97296989319E+01  0.23597431255E+01  0.16258728253E+02  0.19094314490E+02  0.10570000000E+00 0. -1.
         13    1    1    2    0    0  0.97296989319E+01 -0.23597431255E+01  0.16503690484E+02  0.19303326165E+02  0.10570000000E+00 0.  1.
<mgrwt>
<rscale>  0 0.20025052E+02</rscale>
<asrwt>0</asrwt>
<pdfrwt beam="1">  1        1 0.54738507E-02 0.20025052E+02</pdfrwt>
<pdfrwt beam="2">  1       -1 0.43347861E-03 0.20025052E+02</pdfrwt>
<totfact> 0.40715240E+06</totfact>
</mgrwt>
</event>
<event>
 5    1  0.2115795E-006  0.2000442E+02  0.7818608E-02  0.1745240E+00
          1   -1    0    0  501    0  0.00000000000E+00  0.00000000000E+00  0.26583894024E+02  0.26583894434E+02  0.46700000000E-02 0.  1.
         -1   -1    0    0    0  501 -0.00000000000E+00 -0.00000000000E+00 -0.37633388948E+01  0.37633417924E+01  0.46700000000E-02 0. -1.
       1023    2    1    2    0    0  0.00000000000E+00  0.00000000000E+00  0.22820555129E+02  0.30347236226E+02  0.20004424765E+02 0.  0.
        -13    1    3    3    0    0 -0.70923522190E+01  0.70511786304E+01  0.11240669018E+02  0.15046075653E+02  0.10570000000E+00 0.  1.
         13    1    3    3    0    0  0.70923522190E+01 -0.70511786304E+01  0.11579886111E+02  0.15301160574E+02  0.10570000000E+00 0. -1.
<mgrwt>
<rscale>  0 0.20004425E+02</rscale>
<asrwt>0</asrwt>
<pdfrwt beam="1">  1        1 0.40898301E-02 0.20004425E+02</pdfrwt>
<pdfrwt beam="2">  1       -1 0.57897547E-03 0.20004425E+02</pdfrwt>
<totfact> 0.40195773E+06</totfact>
</mgrwt>
</event>
<event>
 4    1  0.2115795E-006  0.2001758E+02  0.7818608E-02  0.1744979E+00
         -1   -1    0    0    0  501 -0.00000000000E+00  0.00000000000E+00  0.14822347539E+01  0.14822421106E+01  0.46700000000E-02 0. -1.
          1   -1    0    0  501    0  0.00000000000E+00 -0.00000000000E+00 -0.67584178385E+02  0.67584178546E+02  0.46700000000E-02 0.  1.
        -13    1    1    2    0    0  0.79455605456E+01  0.60849524868E+01 -0.32780922059E+02  0.34274751679E+02  0.10570000000E+00 0.  1.
         13    1    1    2    0    0 -0.79455605456E+01 -0.60849524868E+01 -0.33321021572E+02  0.34791668977E+02  0.10570000000E+00 0. -1.
<mgrwt>
<rscale>  0 0.20017580E+02</rscale>
<asrwt>0</asrwt>
<pdfrwt beam="2">  1        1 0.10397564E-01 0.20017580E+02</pdfrwt>
<pdfrwt beam="1">  1       -1 0.22803675E-03 0.20017580E+02</pdfrwt>
<totfact> 0.42620679E+06</totfact>
</mgrwt>
</event>
<event>
 5    1  0.2115795E-006  0.2000191E+02  0.7818608E-02  0.1745290E+00
         -1   -1    0    0    0  501 -0.00000000000E+00  0.00000000000E+00  0.43364758203E+02  0.43364758455E+02  0.46700000000E-02 0. -1.
          1   -1    0    0  501    0  0.00000000000E+00 -0.00000000000E+00 -0.23064569738E+01  0.23064617016E+01  0.46700000000E-02 0.  1.
       1023    2    1    2    0    0  0.00000000000E+00  0.00000000000E+00  0.41058301230E+02  0.45671220156E+02  0.20001906177E+02 0.  0.
        -13    1    3    3    0    0  0.39569176518E+01 -0.91842623561E+01  0.20519500805E+02  0.22826934925E+02  0.10570000000E+00 0. -1.
         13    1    3    3    0    0 -0.39569176518E+01  0.91842623561E+01  0.20538800425E+02  0.22844285231E+02  0.10570000000E+00 0.  1.
<mgrwt>
<rscale>  0 0.20001906E+02</rscale>
<asrwt>0</asrwt>
<pdfrwt beam="2">  1        1 0.35483993E-03 0.20001906E+02</pdfrwt>
<pdfrwt beam="1">  1       -1 0.66715014E-02 0.20001906E+02</pdfrwt>
<totfact> 0.35407109E+06</totfact>
</mgrwt>
</event>
<event>
 5    1  0.2115795E-006  0.2000464E+02  0.7818608E-02  0.1745236E+00
          1   -1    0    0  501    0  0.00000000000E+00  0.00000000000E+00  0.10176892439E+02  0.10176893510E+02  0.46700000000E-02 0.  1.
         -1   -1    0    0    0  501 -0.00000000000E+00 -0.00000000000E+00 -0.98307439079E+01  0.98307450171E+01  0.46700000000E-02 0. -1.
       1023    2    1    2    0    0  0.00000000000E+00  0.00000000000E+00  0.34614853062E+00  0.20007638527E+02  0.20004643977E+02 0.  0.
        -13    1    3    3    0    0  0.97895802816E+01 -0.20492119939E+01  0.16208259231E+00  0.10003629099E+02  0.10570000000E+00 0.  1.
         13    1    3    3    0    0 -0.97895802816E+01  0.20492119939E+01  0.18406593831E+00  0.10004009429E+02  0.10570000000E+00 0. -1.
<mgrwt>
<rscale>  0 0.20004644E+02</rscale>
<asrwt>0</asrwt>
<pdfrwt beam="1">  1        1 0.15656759E-02 0.20004644E+02</pdfrwt>
<pdfrwt beam="2">  1       -1 0.15124223E-02 0.20004644E+02</pdfrwt>
<totfact> 0.38630776E+06</totfact>
</mgrwt>
</event>
<event>
 5    1  0.2115795E-006  0.2000235E+02  0.7818608E-02  0.1745281E+00
         -1   -1    0    0    0  501 -0.00000000000E+00  0.00000000000E+00  0.44083631366E+02  0.44083631613E+02  0.46700000000E-02 0. -1.
          1   -1    0    0  501    0  0.00000000000E+00 -0.00000000000E+00 -0.22689463940E+01  0.22689512000E+01  0.46700000000E-02 0.  1.
       1023    2    1    2    0    0  0.00000000000E+00  0.00000000000E+00  0.41814684972E+02  0.46352582813E+02  0.20002351216E+02 0.  0.
        -13    1    3    3    0    0  0.40021936844E+01 -0.91642414443E+01  0.20659206574E+02  0.22952447893E+02  0.10570000000E+00 0.  1.
         13    1    3    3    0    0 -0.40021936844E+01  0.91642414443E+01  0.21155478398E+02  0.23400134920E+02  0.10570000000E+00 0. -1.
<mgrwt>
<rscale>  0 0.20002351E+02</rscale>
<asrwt>0</asrwt>
<pdfrwt beam="2">  1        1 0.34906905E-03 0.20002351E+02</pdfrwt>
<pdfrwt beam="1">  1       -1 0.67820979E-02 0.20002351E+02</pdfrwt>
<totfact> 0.35351553E+06</totfact>
</mgrwt>
</event>
<event>
 4    1  0.2115795E-006  0.2001396E+02  0.7818608E-02  0.1745051E+00
         -1   -1    0    0    0  501 -0.00000000000E+00  0.00000000000E+00  0.68830243447E+02  0.68830243605E+02  0.46700000000E-02 0. -1.
          1   -1    0    0  501    0  0.00000000000E+00 -0.00000000000E+00 -0.14548744336E+01  0.14548819287E+01  0.46700000000E-02 0.  1.
        -13    1    1    2    0    0  0.39949100944E+00  0.99984408646E+01  0.33664091794E+02  0.35119946777E+02  0.10570000000E+00 0. -1.
         13    1    1    2    0    0 -0.39949100944E+00 -0.99984408646E+01  0.33711277219E+02  0.35165178757E+02  0.10570000000E+00 0.  1.
<mgrwt>
<rscale>  0 0.20013958E+02</rscale>
<asrwt>0</asrwt>
<pdfrwt beam="2">  1        1 0.22382747E-03 0.20013958E+02</pdfrwt>
<pdfrwt beam="1">  1       -1 0.10589267E-01 0.20013958E+02</pdfrwt>
<totfact> 0.33622102E+06</totfact>
</mgrwt>
</event>
<event>
 5    1  0.2115795E-006  0.2000343E+02  0.7818608E-02  0.1745260E+00
         -1   -1    0    0    0  501 -0.00000000000E+00  0.00000000000E+00  0.35936266197E+02  0.35936266501E+02  0.46700000000E-02 0.  1.
          1   -1    0    0  501    0  0.00000000000E+00 -0.00000000000E+00 -0.27836567455E+01  0.27836606628E+01  0.46700000000E-02 0. -1.
       1023    2    1    2    0    0  0.00000000000E+00  0.00000000000E+00  0.33152609452E+02  0.38719927164E+02  0.20003430858E+02 0.  0.
        -13    1    3    3    0    0 -0.91760344502E+01 -0.39749931877E+01  0.16869607112E+02  0.19611093689E+02  0.10570000000E+00 0. -1.
         13    1    3    3    0    0  0.91760344502E+01  0.39749931877E+01  0.16283002340E+02  0.19108833475E+02  0.10570000000E+00 0.  1.
<mgrwt>
<rscale>  0 0.20003431E+02</rscale>
<asrwt>0</asrwt>
<pdfrwt beam="2">  1        1 0.42825518E-03 0.20003431E+02</pdfrwt>
<pdfrwt beam="1">  1       -1 0.55286570E-02 0.20003431E+02</pdfrwt>
<totfact> 0.35978315E+06</totfact>
</mgrwt>
</event>
<event>
 5    1  0.2115795E-006  0.2000795E+02  0.7818608E-02  0.1745170E+00
          1   -1    0    0  501    0  0.00000000000E+00  0.00000000000E+00  0.23600569763E+02  0.23600570225E+02  0.46700000000E-02 0.  1.
         -1   -1    0    0    0  501 -0.00000000000E+00 -0.00000000000E+00 -0.42405512225E+01  0.42405537939E+01  0.46700000000E-02 0. -1.
       1023    2    1    2    0    0  0.00000000000E+00  0.00000000000E+00  0.19360018541E+02  0.27841124019E+02  0.20007945141E+02 0.  0.
        -13    1    3    3    0    0  0.90408001033E+01 -0.42816038881E+01  0.96936669781E+01  0.13930059237E+02  0.10570000000E+00 0.  1.
         13    1    3    3    0    0 -0.90408001033E+01  0.42816038881E+01  0.96663515625E+01  0.13911064782E+02  0.10570000000E+00 0. -1.
<mgrwt>
<rscale>  0 0.20007945E+02</rscale>
<asrwt>0</asrwt>
<pdfrwt beam="1">  1        1 0.36308570E-02 0.20007945E+02</pdfrwt>
<pdfrwt beam="2">  1       -1 0.65239274E-03 0.20007945E+02</pdfrwt>
<totfact> 0.39958114E+06</totfact>
</mgrwt>
</event>
<event>
 5    1  0.2115795E-006  0.2001095E+02  0.7818608E-02  0.1745110E+00
         -1   -1    0    0    0  501 -0.00000000000E+00  0.00000000000E+00  0.41801764163E+02  0.41801764424E+02  0.46700000000E-02 0. -1.
          1   -1    0    0  501    0  0.00000000000E+00 -0.00000000000E+00 -0.23948619110E+01  0.23948664643E+01  0.46700000000E-02 0.  1.
       1023    2    1    2    0    0  0.00000000000E+00  0.00000000000E+00  0.39406902252E+02  0.44196630888E+02  0.20010952920E+02 0.  0.
        -13    1    3    3    0    0 -0.68522672135E+01  0.72842166962E+01  0.19059502931E+02  0.21524153951E+02  0.10570000000E+00 0. -1.
         13    1    3    3    0    0  0.68522672135E+01 -0.72842166962E+01  0.20347399321E+02  0.22672476937E+02  0.10570000000E+00 0.  1.
<mgrwt>
<rscale>  0 0.20010953E+02</rscale>
<asrwt>0</asrwt>
<pdfrwt beam="2">  1        1 0.36844072E-03 0.20010953E+02</pdfrwt>
<pdfrwt beam="1">  1       -1 0.64310401E-02 0.20010953E+02</pdfrwt>
<totfact> 0.35490008E+06</totfact>
</mgrwt>
</event>
<event>
 4    1  0.2115795E-006  0.2029529E+02  0.7818608E-02  0.1739519E+00
         -1   -1    0    0    0  501 -0.00000000000E+00  0.00000000000E+00  0.58498518031E+01  0.58498536671E+01  0.46700000000E-02 0.  1.
          1   -1    0    0  501    0  0.00000000000E+00 -0.00000000000E+00 -0.17602961337E+02  0.17602961957E+02  0.46700000000E-02 0. -1.
        -13    1    1    2    0    0  0.55569759728E+01  0.83376672382E+01 -0.40251402321E+01  0.10798592654E+02  0.10570000000E+00 0.  1.
         13    1    1    2    0    0 -0.55569759728E+01 -0.83376672382E+01 -0.77279693023E+01  0.12654222970E+02  0.10570000000E+00 0. -1.
<mgrwt>
<rscale>  0 0.20295294E+02</rscale>
<asrwt>0</asrwt>
<pdfrwt beam="2">  1        1 0.27081481E-02 0.20295294E+02</pdfrwt>
<pdfrwt beam="1">  1       -1 0.89997740E-03 0.20295294E+02</pdfrwt>
<totfact> 0.38215343E+06</totfact>
</mgrwt>
</event>
<event>
 5    1  0.2115795E-006  0.2001025E+02  0.7818608E-02  0.1745124E+00
         -1   -1    0    0    0  501 -0.00000000000E+00  0.00000000000E+00  0.65060033009E+01  0.65060049769E+01  0.46700000000E-02 0.  1.
          1   -1    0    0  501    0  0.00000000000E+00 -0.00000000000E+00 -0.15386166527E+02  0.15386167236E+02  0.46700000000E-02 0. -1.
       1023    2    1    2    0    0  0.00000000000E+00  0.00000000000E+00 -0.88801632263E+01  0.21892172213E+02  0.20010245008E+02 0.  0.
        -13    1    3    3    0    0  0.96876487626E+01  0.24950552735E+01 -0.43040299434E+01  0.10890899210E+02  0.10570000000E+00 0.  1.
         13    1    3    3    0    0 -0.96876487626E+01 -0.24950552735E+01 -0.45761332829E+01  0.11001273003E+02  0.10570000000E+00 0. -1.
<mgrwt>
<rscale>  0 0.20010245E+02</rscale>
<asrwt>0</asrwt>
<pdfrwt beam="2">  1        1 0.23671027E-02 0.20010245E+02</pdfrwt>
<pdfrwt beam="1">  1       -1 0.10009238E-02 0.20010245E+02</pdfrwt>
<totfact> 0.39238824E+06</totfact>
</mgrwt>
</event>
<event>
 4    1  0.2115795E-006  0.2004708E+02  0.7818608E-02  0.1744393E+00
         -1   -1    0    0    0  501 -0.00000000000E+00  0.00000000000E+00  0.97394234113E+00  0.97395353726E+00  0.46700000000E-02 0. -1.
          1   -1    0    0  501    0  0.00000000000E+00 -0.00000000000E+00 -0.10315884783E+03  0.10315884794E+03  0.46700000000E-02 0.  1.
        -13    1    1    2    0    0  0.99404496892E+00 -0.99684202410E+01 -0.49428146329E+02  0.50433226642E+02  0.10570000000E+00 0.  1.
         13    1    1    2    0    0 -0.99404496892E+00  0.99684202410E+01 -0.52756759162E+02  0.53699574833E+02  0.10570000000E+00 0. -1.
<mgrwt>
<rscale>  0 0.20047080E+02</rscale>
<asrwt>0</asrwt>
<pdfrwt beam="2">  1        1 0.15870584E-01 0.20047080E+02</pdfrwt>
<pdfrwt beam="1">  1       -1 0.14983823E-03 0.20047080E+02</pdfrwt>
<totfact> 0.44282856E+06</totfact>
</mgrwt>
</event>
<event>
 5    1  0.2115795E-006  0.2000288E+02  0.7818608E-02  0.1745271E+00
         -1   -1    0    0    0  501 -0.00000000000E+00  0.00000000000E+00  0.11834336117E+01  0.11834428259E+01  0.46700000000E-02 0.  1.
          1   -1    0    0  501    0  0.00000000000E+00 -0.00000000000E+00 -0.84523872957E+02  0.84523873086E+02  0.46700000000E-02 0. -1.
       1023    2    1    2    0    0  0.00000000000E+00  0.00000000000E+00 -0.83340439345E+02  0.85707315912E+02  0.20002879057E+02 0.  0.
        -13    1    3    3    0    0 -0.93111463154E+01 -0.36491228792E+01 -0.41396644013E+02  0.42587637309E+02  0.10570000000E+00 0.  1.
         13    1    3    3    0    0  0.93111463154E+01  0.36491228792E+01 -0.41943795331E+02  0.43119678603E+02  0.10570000000E+00 0. -1.
<mgrwt>
<rscale>  0 0.20002879E+02</rscale>
<asrwt>0</asrwt>
<pdfrwt beam="2">  1        1 0.13003669E-01 0.20002879E+02</pdfrwt>
<pdfrwt beam="1">  1       -1 0.18206749E-03 0.20002879E+02</pdfrwt>
<totfact> 0.43577302E+06</totfact>
</mgrwt>
</event>
<event>
 5    1  0.2115795E-006  0.2000726E+02  0.7818608E-02  0.1745184E+00
         -1   -1    0    0    0  501 -0.00000000000E+00  0.00000000000E+00  0.11062173365E+01  0.11062271938E+01  0.46700000000E-02 0.  1.
          1   -1    0    0  501    0  0.00000000000E+00 -0.00000000000E+00 -0.90463365028E+02  0.90463365148E+02  0.46700000000E-02 0. -1.
       1023    2    1    2    0    0  0.00000000000E+00  0.00000000000E+00 -0.89357147691E+02  0.91569592342E+02  0.20007258637E+02 0.  0.
        -13    1    3    3    0    0 -0.95637537824E+01 -0.29284270023E+01 -0.44025579753E+02  0.45147579295E+02  0.10570000000E+00 0.  1.
         13    1    3    3    0    0  0.95637537824E+01  0.29284270023E+01 -0.45331567938E+02  0.46422013047E+02  0.10570000000E+00 0. -1.
<mgrwt>
<rscale>  0 0.20007259E+02</rscale>
<asrwt>0</asrwt>
<pdfrwt beam="2">  1        1 0.13917436E-01 0.20007259E+02</pdfrwt>
<pdfrwt beam="1">  1       -1 0.17018812E-03 0.20007259E+02</pdfrwt>
<totfact> 0.43855872E+06</totfact>
</mgrwt>
</event>
<event>
 4    1  0.2115795E-006  0.2006252E+02  0.7818608E-02  0.1744088E+00
          1   -1    0    0  501    0  0.00000000000E+00  0.00000000000E+00  0.97324679028E+00  0.97325799441E+00  0.46700000000E-02 0. -1.
         -1   -1    0    0    0  501 -0.00000000000E+00 -0.00000000000E+00 -0.10339162672E+03  0.10339162682E+03  0.46700000000E-02 0.  1.
        -13    1    1    2    0    0 -0.10026930184E+02 -0.20048267628E+00 -0.50229554054E+02  0.51221077645E+02  0.10570000000E+00 0. -1.
         13    1    1    2    0    0  0.10026930184E+02  0.20048267628E+00 -0.52188825874E+02  0.53143807173E+02  0.10570000000E+00 0.  1.
<mgrwt>
<rscale>  0 0.20062518E+02</rscale>
<asrwt>0</asrwt>
<pdfrwt beam="1">  1        1 0.14973123E-03 0.20062518E+02</pdfrwt>
<pdfrwt beam="2">  1       -1 0.15906396E-01 0.20062518E+02</pdfrwt>
<totfact> 0.31471104E+06</totfact>
</mgrwt>
</event>
<event>
 5    1  0.2115795E-006  0.2000838E+02  0.7818608E-02  0.1745162E+00
          1   -1    0    0  501    0  0.00000000000E+00  0.00000000000E+00  0.21017705611E+01  0.21017757494E+01  0.46700000000E-02 0.  1.
         -1   -1    0    0    0  501 -0.00000000000E+00 -0.00000000000E+00 -0.47618732666E+02  0.47618732895E+02  0.46700000000E-02 0. -1.
       1023    2    1    2    0    0  0.00000000000E+00  0.00000000000E+00 -0.45516962105E+02  0.49720508645E+02  0.20008376761E+02 0.  0.
        -13    1    3    3    0    0  0.45242818220E+01  0.89192274158E+01 -0.22198013941E+02  0.24347171070E+02  0.10570000000E+00 0. -1.
         13    1    3    3    0    0 -0.45242818220E+01 -0.89192274158E+01 -0.23318948164E+02  0.25373337575E+02  0.10570000000E+00 0.  1.
<mgrwt>
<rscale>  0 0.20008377E+02</rscale>
<asrwt>0</asrwt>
<pdfrwt beam="1">  1        1 0.32334977E-03 0.20008377E+02</pdfrwt>
<pdfrwt beam="2">  1       -1 0.73259585E-02 0.20008377E+02</pdfrwt>
<totfact> 0.35068342E+06</totfact>
</mgrwt>
</event>
<event>
 4    1  0.2115795E-006  0.2001809E+02  0.7818608E-02  0.1744969E+00
          1   -1    0    0  501    0  0.00000000000E+00  0.00000000000E+00  0.90980835206E+01  0.90980847192E+01  0.46700000000E-02 0.  1.
         -1   -1    0    0    0  501 -0.00000000000E+00 -0.00000000000E+00 -0.11011214533E+02  0.11011215524E+02  0.46700000000E-02 0. -1.
        -13    1    1    2    0    0 -0.91359169957E+01  0.40869997459E+01 -0.99212072698E+00  0.10058032725E+02  0.10570000000E+00 0.  1.
         13    1    1    2    0    0  0.91359169957E+01 -0.40869997459E+01 -0.92101028583E+00  0.10051267518E+02  0.10570000000E+00 0. -1.
<mgrwt>
<rscale>  0 0.20018089E+02</rscale>
<asrwt>0</asrwt>
<pdfrwt beam="1">  1        1 0.13997053E-02 0.20018089E+02</pdfrwt>
<pdfrwt beam="2">  1       -1 0.16940332E-02 0.20018089E+02</pdfrwt>
<totfact> 0.38397307E+06</totfact>
</mgrwt>
</event>
<event>
 4    1  0.2115795E-006  0.2243466E+02  0.7818608E-02  0.1700841E+00
          1   -1    0    0  501    0  0.00000000000E+00  0.00000000000E+00  0.18178643031E+02  0.18178643631E+02  0.46700000000E-02 0. -1.
         -1   -1    0    0    0  501 -0.00000000000E+00 -0.00000000000E+00 -0.69217762663E+01  0.69217778417E+01  0.46700000000E-02 0.  1.
        -13    1    1    2    0    0 -0.87603897026E+01  0.57737375201E+01  0.11900909550E+01  0.10559733030E+02  0.10570000000E+00 0.  1.
         13    1    1    2    0    0  0.87603897026E+01 -0.57737375201E+01  0.10066775810E+02  0.14540688443E+02  0.10570000000E+00 0. -1.
<mgrwt>
<rscale>  0 0.22434663E+02</rscale>
<asrwt>0</asrwt>
<pdfrwt beam="1">  1        1 0.27967144E-02 0.22434663E+02</pdfrwt>
<pdfrwt beam="2">  1       -1 0.10648889E-02 0.22434663E+02</pdfrwt>
<totfact> 0.30465207E+06</totfact>
</mgrwt>
</event>
<event>
 4    1  0.2115795E-006  0.2010139E+02  0.7818608E-02  0.1743319E+00
         -1   -1    0    0    0  501 -0.00000000000E+00  0.00000000000E+00  0.13869856292E+01  0.13869934912E+01  0.46700000000E-02 0.  1.
          1   -1    0    0  501    0  0.00000000000E+00 -0.00000000000E+00 -0.72831414614E+02  0.72831414764E+02  0.46700000000E-02 0. -1.
        -13    1    1    2    0    0 -0.71240278129E+01 -0.70696115908E+01 -0.33789283572E+02  0.35248518226E+02  0.10570000000E+00 0.  1.
         13    1    1    2    0    0  0.71240278129E+01  0.70696115908E+01 -0.37655145413E+02  0.38969890029E+02  0.10570000000E+00 0. -1.
<mgrwt>
<rscale>  0 0.20101385E+02</rscale>
<asrwt>0</asrwt>
<pdfrwt beam="2">  1        1 0.11204831E-01 0.20101385E+02</pdfrwt>
<pdfrwt beam="1">  1       -1 0.21338308E-03 0.20101385E+02</pdfrwt>
<totfact> 0.42506138E+06</totfact>
</mgrwt>
</event>
<event>
 4    1  0.2115795E-006  0.2002153E+02  0.7818608E-02  0.1744900E+00
          1   -1    0    0  501    0  0.00000000000E+00  0.00000000000E+00  0.15343566422E+02  0.15343567133E+02  0.46700000000E-02 0. -1.
         -1   -1    0    0    0  501 -0.00000000000E+00 -0.00000000000E+00 -0.65314260160E+01  0.65314276855E+01  0.46700000000E-02 0.  1.
        -13    1    1    2    0    0  0.96725580974E+01  0.25771389098E+01  0.44768546835E+01  0.10966012286E+02  0.10570000000E+00 0.  1.
         13    1    1    2    0    0 -0.96725580974E+01 -0.25771389098E+01  0.43352857230E+01  0.10908982533E+02  0.10570000000E+00 0. -1.
<mgrwt>
<rscale>  0 0.20021528E+02</rscale>
<asrwt>0</asrwt>
<pdfrwt beam="1">  1        1 0.23605488E-02 0.20021528E+02</pdfrwt>
<pdfrwt beam="2">  1       -1 0.10048350E-02 0.20021528E+02</pdfrwt>
<totfact> 0.39184781E+06</totfact>
</mgrwt>
</event>
<event>
 5    1  0.2115795E-006  0.2000419E+02  0.7818608E-02  0.1745245E+00
          1   -1    0    0  501    0  0.00000000000E+00  0.00000000000E+00  0.95988274378E+01  0.95988285738E+01  0.46700000000E-02 0.  1.
         -1   -1    0    0    0  501 -0.00000000000E+00 -0.00000000000E+00 -0.10422305078E+02  0.10422306125E+02  0.46700000000E-02 0. -1.
       1023    2    1    2    0    0  0.00000000000E+00  0.00000000000E+00 -0.82347764071E+00  0.20021134699E+02  0.20004192540E+02 0.  0.
        -13    1    3    3    0    0  0.91781305522E+01  0.39727473151E+01 -0.31187633605E+00  0.10006459964E+02  0.10570000000E+00 0. -1.
         13    1    3    3    0    0 -0.91781305522E+01 -0.39727473151E+01 -0.51160130465E+00  0.10014674735E+02  0.10570000000E+00 0.  1.
<mgrwt>
<rscale>  0 0.20004193E+02</rscale>
<asrwt>0</asrwt>
<pdfrwt beam="1">  1        1 0.14767428E-02 0.20004193E+02</pdfrwt>
<pdfrwt beam="2">  1       -1 0.16034317E-02 0.20004193E+02</pdfrwt>
<totfact> 0.38541965E+06</totfact>
</mgrwt>
</event>
<event>
 4    1  0.2115795E-006  0.2025292E+02  0.7818608E-02  0.1740345E+00
         -1   -1    0    0    0  501 -0.00000000000E+00  0.00000000000E+00  0.78515785831E+02  0.78515785970E+02  0.46700000000E-02 0.  1.
          1   -1    0    0  501    0  0.00000000000E+00 -0.00000000000E+00 -0.13060414341E+01  0.13060497833E+01  0.46700000000E-02 0. -1.
        -13    1    1    2    0    0  0.96456190741E+01 -0.30400691533E+01  0.36618356775E+02  0.37989409224E+02  0.10570000000E+00 0.  1.
         13    1    1    2    0    0 -0.96456190741E+01  0.30400691533E+01  0.40591387622E+02  0.41832426530E+02  0.10570000000E+00 0. -1.
<mgrwt>
<rscale>  0 0.20252922E+02</rscale>
<asrwt>0</asrwt>
<pdfrwt beam="2">  1        1 0.20093007E-03 0.20252922E+02</pdfrwt>
<pdfrwt beam="1">  1       -1 0.12079355E-01 0.20252922E+02</pdfrwt>
<totfact> 0.32181178E+06</totfact>
</mgrwt>
</event>
<event>
 5    1  0.2115795E-006  0.2000347E+02  0.7818608E-02  0.1745259E+00
          1   -1    0    0  501    0  0.00000000000E+00  0.00000000000E+00  0.15639265843E+01  0.15639335567E+01  0.46700000000E-02 0. -1.
         -1   -1    0    0    0  501 -0.00000000000E+00 -0.00000000000E+00 -0.63963670855E+02  0.63963671025E+02  0.46700000000E-02 0.  1.
       1023    2    1    2    0    0  0.00000000000E+00  0.00000000000E+00 -0.62399744271E+02  0.65527604582E+02  0.20003471630E+02 0.  0.
        -13    1    3    3    0    0  0.81825757035E+01  0.57491339014E+01 -0.30779583361E+02  0.32363575361E+02  0.10570000000E+00 0.  1.
         13    1    3    3    0    0 -0.81825757035E+01 -0.57491339014E+01 -0.31620160910E+02  0.33164029221E+02  0.10570000000E+00 0. -1.
<mgrwt>
<rscale>  0 0.20003472E+02</rscale>
<asrwt>0</asrwt>
<pdfrwt beam="1">  1        1 0.24060469E-03 0.20003472E+02</pdfrwt>
<pdfrwt beam="2">  1       -1 0.98405633E-02 0.20003472E+02</pdfrwt>
<totfact> 0.33970714E+06</totfact>
</mgrwt>
</event>
<event>
 5    1  0.2115795E-006  0.2000964E+02  0.7818608E-02  0.1745136E+00
          1   -1    0    0  501    0  0.00000000000E+00  0.00000000000E+00  0.13309562519E+02  0.13309563338E+02  0.46700000000E-02 0. -1.
         -1   -1    0    0    0  501 -0.00000000000E+00 -0.00000000000E+00 -0.75206411414E+01  0.75206425913E+01  0.46700000000E-02 0.  1.
       1023    2    1    2    0    0  0.00000000000E+00  0.00000000000E+00  0.57889213778E+01  0.20830205930E+02  0.20009644384E+02 0.  0.
        -13    1    3    3    0    0  0.91958982869E+01 -0.39314290138E+01  0.31590800146E+01  0.10488643307E+02  0.10570000000E+00 0. -1.
         13    1    3    3    0    0 -0.91958982869E+01  0.39314290138E+01  0.26298413632E+01  0.10341562623E+02  0.10570000000E+00 0.  1.
<mgrwt>
<rscale>  0 0.20009644E+02</rscale>
<asrwt>0</asrwt>
<pdfrwt beam="1">  1        1 0.20476251E-02 0.20009644E+02</pdfrwt>
<pdfrwt beam="2">  1       -1 0.11570219E-02 0.20009644E+02</pdfrwt>
<totfact> 0.39018800E+06</totfact>
</mgrwt>
</event>
<event>
 5    1  0.2115795E-006  0.2000149E+02  0.7818608E-02  0.1745298E+00
          1   -1    0    0  501    0  0.00000000000E+00  0.00000000000E+00  0.12099937478E+02  0.12099938380E+02  0.46700000000E-02 0.  1.
         -1   -1    0    0    0  501 -0.00000000000E+00 -0.00000000000E+00 -0.82657388926E+01  0.82657402118E+01  0.46700000000E-02 0. -1.
       1023    2    1    2    0    0  0.00000000000E+00  0.00000000000E+00  0.38341985858E+01  0.20365678591E+02  0.20001494586E+02 0.  0.
        -13    1    3    3    0    0  0.39510094371E+01  0.91864195504E+01  0.19728149469E+01  0.10193328751E+02  0.10570000000E+00 0. -1.
         13    1    3    3    0    0 -0.39510094371E+01 -0.91864195504E+01  0.18613836390E+01  0.10172349840E+02  0.10570000000E+00 0.  1.
<mgrwt>
<rscale>  0 0.20001495E+02</rscale>
<asrwt>0</asrwt>
<pdfrwt beam="1">  1        1 0.18615290E-02 0.20001495E+02</pdfrwt>
<pdfrwt beam="2">  1       -1 0.12716523E-02 0.20001495E+02</pdfrwt>
<totfact> 0.38909506E+06</totfact>
</mgrwt>
</event>
<event>
 5    1  0.2115795E-006  0.2000853E+02  0.7818608E-02  0.1745159E+00
         -1   -1    0    0    0  501 -0.00000000000E+00  0.00000000000E+00  0.59003008421E+01  0.59003026902E+01  0.46700000000E-02 0. -1.
          1   -1    0    0  501    0  0.00000000000E+00 -0.00000000000E+00 -0.16962741268E+02  0.16962741911E+02  0.46700000000E-02 0.  1.
       1023    2    1    2    0    0  0.00000000000E+00  0.00000000000E+00 -0.11062440426E+02  0.22863044601E+02  0.20008528688E+02 0.  0.
        -13    1    3    3    0    0 -0.33159693576E+01 -0.94367262455E+01 -0.53445857039E+01  0.11341217917E+02  0.10570000000E+00 0.  1.
         13    1    3    3    0    0  0.33159693576E+01  0.94367262455E+01 -0.57178547218E+01  0.11521826683E+02  0.10570000000E+00 0. -1.
<mgrwt>
<rscale>  0 0.20008529E+02</rscale>
<asrwt>0</asrwt>
<pdfrwt beam="2">  1        1 0.26096527E-02 0.20008529E+02</pdfrwt>
<pdfrwt beam="1">  1       -1 0.90773879E-03 0.20008529E+02</pdfrwt>
<totfact> 0.39399543E+06</totfact>
</mgrwt>
</event>
<event>
 5    1  0.2115795E-006  0.2001115E+02  0.7818608E-02  0.1745106E+00
         -1   -1    0    0    0  501 -0.00000000000E+00  0.00000000000E+00  0.35931358295E+02  0.35931358598E+02  0.46700000000E-02 0.  1.
          1   -1    0    0  501    0  0.00000000000E+00 -0.00000000000E+00 -0.27861868254E+01  0.27861907391E+01  0.46700000000E-02 0. -1.
       1023    2    1    2    0    0  0.00000000000E+00  0.00000000000E+00  0.33145171470E+02  0.38717549337E+02  0.20011152764E+02 0.  0.
        -13    1    3    3    0    0 -0.34535032056E+01  0.93860857617E+01  0.17102790906E+02  0.19812670682E+02  0.10570000000E+00 0.  1.
         13    1    3    3    0    0  0.34535032056E+01 -0.93860857617E+01  0.16042380564E+02  0.18904878655E+02  0.10570000000E+00 0. -1.
<mgrwt>
<rscale>  0 0.20011153E+02</rscale>
<asrwt>0</asrwt>
<pdfrwt beam="2">  1        1 0.42864446E-03 0.20011153E+02</pdfrwt>
<pdfrwt beam="1">  1       -1 0.55279015E-02 0.20011153E+02</pdfrwt>
<totfact> 0.35948178E+06</totfact>
</mgrwt>
</event>
<event>
 5    1  0.2115795E-006  0.2000219E+02  0.7818608E-02  0.1745284E+00
          1   -1    0    0  501    0  0.00000000000E+00  0.00000000000E+00  0.89235388233E+01  0.89235400453E+01  0.46700000000E-02 0.  1.
         -1   -1    0    0    0  501 -0.00000000000E+00 -0.00000000000E+00 -0.11208773033E+02  0.11208774006E+02  0.46700000000E-02 0. -1.
       1023    2    1    2    0    0  0.00000000000E+00  0.00000000000E+00 -0.22852342096E+01  0.20132314051E+02  0.20002194221E+02 0.  0.
        -13    1    3    3    0    0 -0.88227571500E+01 -0.47079656752E+01 -0.12122509553E+01  0.10074061217E+02  0.10570000000E+00 0.  1.
         13    1    3    3    0    0  0.88227571500E+01  0.47079656752E+01 -0.10729832543E+01  0.10058252834E+02  0.10570000000E+00 0. -1.
<mgrwt>
<rscale>  0 0.20002194E+02</rscale>
<asrwt>0</asrwt>
<pdfrwt beam="1">  1        1 0.13728523E-02 0.20002194E+02</pdfrwt>
<pdfrwt beam="2">  1       -1 0.17244268E-02 0.20002194E+02</pdfrwt>
<totfact> 0.38435932E+06</totfact>
</mgrwt>
</event>
<event>
 5    1  0.2115795E-006  0.2000908E+02  0.7818608E-02  0.1745147E+00
         -1   -1    0    0    0  501 -0.00000000000E+00  0.00000000000E+00  0.43293801641E+01  0.43293826828E+01  0.46700000000E-02 0.  1.
          1   -1    0    0  501    0  0.00000000000E+00 -0.00000000000E+00 -0.23118972661E+02  0.23118973133E+02  0.46700000000E-02 0. -1.
       1023    2    1    2    0    0  0.00000000000E+00  0.00000000000E+00 -0.18789592497E+02  0.27448355816E+02  0.20009084206E+02 0.  0.
        -13    1    3    3    0    0 -0.27774731598E+01 -0.96103211875E+01 -0.95100574128E+01  0.13803079184E+02  0.10570000000E+00 0. -1.
         13    1    3    3    0    0  0.27774731598E+01  0.96103211875E+01 -0.92795350843E+01  0.13645276632E+02  0.10570000000E+00 0.  1.
<mgrwt>
<rscale>  0 0.20009084E+02</rscale>
<asrwt>0</asrwt>
<pdfrwt beam="2">  1        1 0.35567652E-02 0.20009084E+02</pdfrwt>
<pdfrwt beam="1">  1       -1 0.66605873E-03 0.20009084E+02</pdfrwt>
<totfact> 0.39915987E+06</totfact>
</mgrwt>
</event>
<event>
 5    1  0.2115795E-006  0.2000310E+02  0.7818608E-02  0.1745267E+00
         -1   -1    0    0    0  501 -0.00000000000E+00  0.00000000000E+00  0.19931791397E+02  0.19931791944E+02  0.46700000000E-02 0. -1.
          1   -1    0    0  501    0  0.00000000000E+00 -0.00000000000E+00 -0.50186619535E+01  0.50186641263E+01  0.46700000000E-02 0.  1.
       1023    2    1    2    0    0  0.00000000000E+00  0.00000000000E+00  0.14913129443E+02  0.24950456070E+02  0.20003095468E+02 0.  0.
        -13    1    3    3    0    0 -0.43466720131E+01 -0.90068760663E+01  0.73953244452E+01  0.12438624128E+02  0.10570000000E+00 0. -1.
         13    1    3    3    0    0  0.43466720131E+01  0.90068760663E+01  0.75178049980E+01  0.12511831942E+02  0.10570000000E+00 0.  1.
<mgrwt>
<rscale>  0 0.20003095E+02</rscale>
<asrwt>0</asrwt>
<pdfrwt beam="2">  1        1 0.77210206E-03 0.20003095E+02</pdfrwt>
<pdfrwt beam="1">  1       -1 0.30664296E-02 0.20003095E+02</pdfrwt>
<totfact> 0.37411014E+06</totfact>
</mgrwt>
</event>
<event>
 4    1  0.2115795E-006  0.2006602E+02  0.7818608E-02  0.1744018E+00
         -1   -1    0    0    0  501 -0.00000000000E+00  0.00000000000E+00  0.28552645954E+01  0.28552684145E+01  0.46700000000E-02 0.  1.
          1   -1    0    0  501    0  0.00000000000E+00 -0.00000000000E+00 -0.35254605622E+02  0.35254605931E+02  0.46700000000E-02 0. -1.
        -13    1    1    2    0    0  0.99492848090E+01 -0.12064288586E+01 -0.17062500916E+02  0.19788477678E+02  0.10570000000E+00 0.  1.
         13    1    1    2    0    0 -0.99492848090E+01  0.12064288586E+01 -0.15336840110E+02  0.18321396668E+02  0.10570000000E+00 0. -1.
<mgrwt>
<rscale>  0 0.20066022E+02</rscale>
<asrwt>0</asrwt>
<pdfrwt beam="2">  1        1 0.54237855E-02 0.20066022E+02</pdfrwt>
<pdfrwt beam="1">  1       -1 0.43927182E-03 0.20066022E+02</pdfrwt>
<totfact> 0.40509039E+06</totfact>
</mgrwt>
</event>
<event>
 4    1  0.2115795E-006  0.2004914E+02  0.7818608E-02  0.1744353E+00
          1   -1    0    0  501    0  0.00000000000E+00  0.00000000000E+00  0.54506486992E+01  0.54506506997E+01  0.46700000000E-02 0. -1.
         -1   -1    0    0    0  501 -0.00000000000E+00 -0.00000000000E+00 -0.18436699579E+02  0.18436700171E+02  0.46700000000E-02 0.  1.
        -13    1    1    2    0    0  0.97258194239E+01 -0.24098769837E+01 -0.61523474918E+01  0.11758470253E+02  0.10570000000E+00 0. -1.
         13    1    1    2    0    0 -0.97258194239E+01  0.24098769837E+01 -0.68337033885E+01  0.12128880618E+02  0.10570000000E+00 0.  1.
<mgrwt>
<rscale>  0 0.20049140E+02</rscale>
<asrwt>0</asrwt>
<pdfrwt beam="1">  1        1 0.83856154E-03 0.20049140E+02</pdfrwt>
<pdfrwt beam="2">  1       -1 0.28364155E-02 0.20049140E+02</pdfrwt>
<totfact> 0.37376688E+06</totfact>
</mgrwt>
</event>
<event>
 4    1  0.2115795E-006  0.2005205E+02  0.7818608E-02  0.1744295E+00
          1   -1    0    0  501    0  0.00000000000E+00  0.00000000000E+00  0.20521862253E+01  0.20521915388E+01  0.46700000000E-02 0. -1.
         -1   -1    0    0    0  501 -0.00000000000E+00 -0.00000000000E+00 -0.48982392684E+02  0.48982392907E+02  0.46700000000E-02 0.  1.
        -13    1    1    2    0    0 -0.99805600765E+01  0.66795234390E+00 -0.21753586898E+02  0.23943421961E+02  0.10570000000E+00 0. -1.
         13    1    1    2    0    0  0.99805600765E+01 -0.66795234390E+00 -0.25176619561E+02  0.27091162485E+02  0.10570000000E+00 0.  1.
<mgrwt>
<rscale>  0 0.20052046E+02</rscale>
<asrwt>0</asrwt>
<pdfrwt beam="1">  1        1 0.31572142E-03 0.20052046E+02</pdfrwt>
<pdfrwt beam="2">  1       -1 0.75357522E-02 0.20052046E+02</pdfrwt>
<totfact> 0.34802875E+06</totfact>
</mgrwt>
</event>
<event>
 5    1  0.2115795E-006  0.2000225E+02  0.7818608E-02  0.1745283E+00
          1   -1    0    0  501    0  0.00000000000E+00  0.00000000000E+00  0.20794310890E+01  0.20794363330E+01  0.46700000000E-02 0. -1.
         -1   -1    0    0    0  501 -0.00000000000E+00 -0.00000000000E+00 -0.48100807454E+02  0.48100807681E+02  0.46700000000E-02 0.  1.
       1023    2    1    2    0    0  0.00000000000E+00  0.00000000000E+00 -0.46021376365E+02  0.50180244014E+02  0.20002245043E+02 0.  0.
        -13    1    3    3    0    0  0.42593217289E+01 -0.90477509918E+01 -0.23230250081E+02  0.25291486926E+02  0.10570000000E+00 0.  1.
         13    1    3    3    0    0 -0.42593217289E+01  0.90477509918E+01 -0.22791126284E+02  0.24888757088E+02  0.10570000000E+00 0. -1.
<mgrwt>
<rscale>  0 0.20002245E+02</rscale>
<asrwt>0</asrwt>
<pdfrwt beam="1">  1        1 0.31991293E-03 0.20002245E+02</pdfrwt>
<pdfrwt beam="2">  1       -1 0.74001238E-02 0.20002245E+02</pdfrwt>
<totfact> 0.35057106E+06</totfact>
</mgrwt>
</event>
<event>
 5    1  0.2115795E-006  0.2000225E+02  0.7818608E-02  0.1745283E+00
         -1   -1    0    0    0  501 -0.00000000000E+00  0.00000000000E+00  0.20634930105E+01  0.20634982950E+01  0.46700000000E-02 0.  1.
          1   -1    0    0  501    0  0.00000000000E+00 -0.00000000000E+00 -0.48472350033E+02  0.48472350258E+02  0.46700000000E-02 0. -1.
       1023    2    1    2    0    0  0.00000000000E+00  0.00000000000E+00 -0.46408857023E+02  0.50535848553E+02  0.20002249344E+02 0.  0.
        -13    1    3    3    0    0 -0.87110707258E+01 -0.49120075029E+01 -0.23273680630E+02  0.25331520947E+02  0.10570000000E+00 0. -1.
         13    1    3    3    0    0  0.87110707258E+01  0.49120075029E+01 -0.23135176392E+02  0.25204327606E+02  0.10570000000E+00 0.  1.
<mgrwt>
<rscale>  0 0.20002249E+02</rscale>
<asrwt>0</asrwt>
<pdfrwt beam="2">  1        1 0.74572842E-02 0.20002249E+02</pdfrwt>
<pdfrwt beam="1">  1       -1 0.31746092E-03 0.20002249E+02</pdfrwt>
<totfact> 0.41614482E+06</totfact>
</mgrwt>
</event>
<event>
 4    1  0.2115795E-006  0.2002574E+02  0.7818608E-02  0.1744817E+00
          1   -1    0    0  501    0  0.00000000000E+00  0.00000000000E+00  0.24391296003E+01  0.24391340709E+01  0.46700000000E-02 0. -1.
         -1   -1    0    0    0  501 -0.00000000000E+00 -0.00000000000E+00 -0.41103778592E+02  0.41103778857E+02  0.46700000000E-02 0.  1.
        -13    1    1    2    0    0  0.34936270005E+01  0.93829378852E+01 -0.19414280023E+02  0.21844230228E+02  0.10570000000E+00 0.  1.
         13    1    1    2    0    0 -0.34936270005E+01 -0.93829378852E+01 -0.19250368969E+02  0.21698682700E+02  0.10570000000E+00 0. -1.
<mgrwt>
<rscale>  0 0.20025738E+02</rscale>
<asrwt>0</asrwt>
<pdfrwt beam="1">  1        1 0.37525110E-03 0.20025738E+02</pdfrwt>
<pdfrwt beam="2">  1       -1 0.63236581E-02 0.20025738E+02</pdfrwt>
<totfact> 0.35485587E+06</totfact>
</mgrwt>
</event>
<event>
 4    1  0.2115795E-006  0.2005186E+02  0.7818608E-02  0.1744299E+00
          1   -1    0    0  501    0  0.00000000000E+00  0.00000000000E+00  0.39181305226E+02  0.39181305504E+02  0.46700000000E-02 0. -1.
         -1   -1    0    0    0  501 -0.00000000000E+00 -0.00000000000E+00 -0.25654883657E+01  0.25654926161E+01  0.46700000000E-02 0.  1.
        -13    1    1    2    0    0 -0.96241205113E+01  0.28077279315E+01  0.18239711139E+02  0.20813583706E+02  0.10570000000E+00 0.  1.
         13    1    1    2    0    0  0.96241205113E+01 -0.28077279315E+01  0.18376105721E+02  0.20933214414E+02  0.10570000000E+00 0. -1.
<mgrwt>
<rscale>  0 0.20051860E+02</rscale>
<asrwt>0</asrwt>
<pdfrwt beam="1">  1        1 0.60278931E-02 0.20051860E+02</pdfrwt>
<pdfrwt beam="2">  1       -1 0.39469089E-03 0.20051860E+02</pdfrwt>
<totfact> 0.40822813E+06</totfact>
</mgrwt>
</event>
<event>
 5    1  0.2115795E-006  0.2000203E+02  0.7818608E-02  0.1745288E+00
         -1   -1    0    0    0  501 -0.00000000000E+00  0.00000000000E+00  0.25538872878E+01  0.25538915576E+01  0.46700000000E-02 0.  1.
          1   -1    0    0  501    0  0.00000000000E+00 -0.00000000000E+00 -0.39163892274E+02  0.39163892552E+02  0.46700000000E-02 0. -1.
       1023    2    1    2    0    0  0.00000000000E+00  0.00000000000E+00 -0.36610004986E+02  0.41717784110E+02  0.20002026046E+02 0.  0.
        -13    1    3    3    0    0  0.82291424091E+01 -0.56820595558E+01 -0.18444967099E+02  0.20981719886E+02  0.10570000000E+00 0. -1.
         13    1    3    3    0    0 -0.82291424091E+01  0.56820595558E+01 -0.18165037887E+02  0.20736064224E+02  0.10570000000E+00 0.  1.
<mgrwt>
<rscale>  0 0.20002026E+02</rscale>
<asrwt>0</asrwt>
<pdfrwt beam="2">  1        1 0.60252141E-02 0.20002026E+02</pdfrwt>
<pdfrwt beam="1">  1       -1 0.39290612E-03 0.20002026E+02</pdfrwt>
<totfact> 0.41048680E+06</totfact>
</mgrwt>
</event>
<event>
 5    1  0.2115795E-006  0.2000121E+02  0.7818608E-02  0.1745304E+00
          1   -1    0    0  501    0  0.00000000000E+00  0.00000000000E+00  0.34135705017E+02  0.34135705336E+02  0.46700000000E-02 0.  1.
         -1   -1    0    0    0  501 -0.00000000000E+00 -0.00000000000E+00 -0.29298354489E+01  0.29298391708E+01  0.46700000000E-02 0. -1.
       1023    2    1    2    0    0  0.00000000000E+00  0.00000000000E+00  0.31205869568E+02  0.37065544507E+02  0.20001207317E+02 0.  0.
        -13    1    3    3    0    0 -0.72727826021E+01 -0.68634873505E+01  0.15619053176E+02  0.18546342497E+02  0.10570000000E+00 0. -1.
         13    1    3    3    0    0  0.72727826021E+01  0.68634873505E+01  0.15586816392E+02  0.18519202011E+02  0.10570000000E+00 0.  1.
<mgrwt>
<rscale>  0 0.20001207E+02</rscale>
<asrwt>0</asrwt>
<pdfrwt beam="1">  1        1 0.52516477E-02 0.20001207E+02</pdfrwt>
<pdfrwt beam="2">  1       -1 0.45074418E-03 0.20001207E+02</pdfrwt>
<totfact> 0.40729221E+06</totfact>
</mgrwt>
</event>
<event>
 5    1  0.2115795E-006  0.2000126E+02  0.7818608E-02  0.1745303E+00
         -1   -1    0    0    0  501 -0.00000000000E+00  0.00000000000E+00  0.24818668307E+02  0.24818668747E+02  0.46700000000E-02 0.  1.
          1   -1    0    0  501    0  0.00000000000E+00 -0.00000000000E+00 -0.40297301502E+01  0.40297328562E+01  0.46700000000E-02 0. -1.
       1023    2    1    2    0    0  0.00000000000E+00  0.00000000000E+00  0.20788938157E+02  0.28848401603E+02  0.20001258094E+02 0.  0.
        -13    1    3    3    0    0  0.35810972187E+01 -0.93368094603E+01  0.10345756393E+02  0.14389097123E+02  0.10570000000E+00 0. -1.
         13    1    3    3    0    0 -0.35810972187E+01  0.93368094603E+01  0.10443181764E+02  0.14459304480E+02  0.10570000000E+00 0.  1.
<mgrwt>
<rscale>  0 0.20001258E+02</rscale>
<asrwt>0</asrwt>
<pdfrwt beam="2">  1        1 0.61995873E-03 0.20001258E+02</pdfrwt>
<pdfrwt beam="1">  1       -1 0.38182569E-02 0.20001258E+02</pdfrwt>
<totfact> 0.36944452E+06</totfact>
</mgrwt>
</event>
<event>
 5    1  0.2115795E-006  0.2000227E+02  0.7818608E-02  0.1745283E+00
         -1   -1    0    0    0  501 -0.00000000000E+00  0.00000000000E+00  0.13868197872E+01  0.13868276501E+01  0.46700000000E-02 0.  1.
          1   -1    0    0  501    0  0.00000000000E+00 -0.00000000000E+00 -0.72123573039E+02  0.72123573190E+02  0.46700000000E-02 0. -1.
       1023    2    1    2    0    0  0.00000000000E+00  0.00000000000E+00 -0.70736753252E+02  0.73510400841E+02  0.20002269149E+02 0.  0.
        -13    1    3    3    0    0  0.57664171091E+00  0.99839361239E+01 -0.35350335933E+02  0.36737840427E+02  0.10570000000E+00 0. -1.
         13    1    3    3    0    0 -0.57664171091E+00 -0.99839361239E+01 -0.35386417319E+02  0.36772560414E+02  0.10570000000E+00 0.  1.
<mgrwt>
<rscale>  0 0.20002269E+02</rscale>
<asrwt>0</asrwt>
<pdfrwt beam="2">  1        1 0.11095932E-01 0.20002269E+02</pdfrwt>
<pdfrwt beam="1">  1       -1 0.21335756E-03 0.20002269E+02</pdfrwt>
<totfact> 0.42936426E+06</totfact>
</mgrwt>
</event>
<event>
 5    1  0.2115795E-006  0.2000169E+02  0.7818608E-02  0.1745294E+00
          1   -1    0    0  501    0  0.00000000000E+00  0.00000000000E+00  0.30124291448E+02  0.30124291810E+02  0.46700000000E-02 0. -1.
         -1   -1    0    0    0  501 -0.00000000000E+00 -0.00000000000E+00 -0.33201391322E+01  0.33201424165E+01  0.46700000000E-02 0.  1.
       1023    2    1    2    0    0  0.00000000000E+00  0.00000000000E+00  0.26804152316E+02  0.33444434226E+02  0.20001689913E+02 0.  0.
        -13    1    3    3    0    0  0.95448728847E+01 -0.29830895945E+01  0.13321791286E+02  0.16657872537E+02  0.10570000000E+00 0. -1.
         13    1    3    3    0    0 -0.95448728847E+01  0.29830895945E+01  0.13482361030E+02  0.16786561689E+02  0.10570000000E+00 0.  1.
<mgrwt>
<rscale>  0 0.20001690E+02</rscale>
<asrwt>0</asrwt>
<pdfrwt beam="1">  1        1 0.46345066E-02 0.20001690E+02</pdfrwt>
<pdfrwt beam="2">  1       -1 0.51079092E-03 0.20001690E+02</pdfrwt>
<totfact> 0.40457604E+06</totfact>
</mgrwt>
</event>
<event>
 5    1  0.2115795E-006  0.2000286E+02  0.7818608E-02  0.1745271E+00
         -1   -1    0    0    0  501 -0.00000000000E+00  0.00000000000E+00  0.13373661022E+02  0.13373661838E+02  0.46700000000E-02 0.  1.
          1   -1    0    0  501    0  0.00000000000E+00 -0.00000000000E+00 -0.74795173529E+01  0.74795188108E+01  0.46700000000E-02 0. -1.
       1023    2    1    2    0    0  0.00000000000E+00  0.00000000000E+00  0.58941436693E+01  0.20853180648E+02  0.20002855135E+02 0.  0.
        -13    1    3    3    0    0  0.99944152842E+01  0.35902216907E+00  0.29344273965E+01  0.10423016378E+02  0.10570000000E+00 0.  1.
         13    1    3    3    0    0 -0.99944152842E+01 -0.35902216907E+00  0.29597162728E+01  0.10430164270E+02  0.10570000000E+00 0. -1.
<mgrwt>
<rscale>  0 0.20002855E+02</rscale>
<asrwt>0</asrwt>
<pdfrwt beam="2">  1        1 0.11506952E-02 0.20002855E+02</pdfrwt>
<pdfrwt beam="1">  1       -1 0.20574865E-02 0.20002855E+02</pdfrwt>
<totfact> 0.38145247E+06</totfact>
</mgrwt>
</event>
<event>
 4    1  0.2115795E-006  0.2011226E+02  0.7818608E-02  0.1743105E+00
          1   -1    0    0  501    0  0.00000000000E+00  0.00000000000E+00  0.93663904203E+00  0.93665068406E+00  0.46700000000E-02 0.  1.
         -1   -1    0    0    0  501 -0.00000000000E+00 -0.00000000000E+00 -0.10796589166E+03  0.10796589177E+03  0.46700000000E-02 0. -1.
        -13    1    1    2    0    0 -0.81618834620E+00  0.99883494749E+01 -0.57983825738E+02  0.58843593605E+02  0.10570000000E+00 0.  1.
         13    1    1    2    0    0  0.81618834620E+00 -0.99883494749E+01 -0.49045426884E+02  0.50058948844E+02  0.10570000000E+00 0. -1.
<mgrwt>
<rscale>  0 0.20112256E+02</rscale>
<asrwt>0</asrwt>
<pdfrwt beam="1">  1        1 0.14409930E-03 0.20112256E+02</pdfrwt>
<pdfrwt beam="2">  1       -1 0.16610128E-01 0.20112256E+02</pdfrwt>
<totfact> 0.31063813E+06</totfact>
</mgrwt>
</event>
<event>
 5    1  0.2115795E-006  0.2000268E+02  0.7818608E-02  0.1745275E+00
          1   -1    0    0  501    0  0.00000000000E+00  0.00000000000E+00  0.76915783152E+02  0.76915783294E+02  0.46700000000E-02 0.  1.
         -1   -1    0    0    0  501 -0.00000000000E+00 -0.00000000000E+00 -0.13004672365E+01  0.13004756215E+01  0.46700000000E-02 0. -1.
       1023    2    1    2    0    0  0.00000000000E+00  0.00000000000E+00  0.75615315915E+02  0.78216258915E+02  0.20002678763E+02 0.  0.
        -13    1    3    3    0    0  0.99986585871E+01 -0.20473370632E+00  0.37717848937E+02  0.39021306877E+02  0.10570000000E+00 0.  1.
         13    1    3    3    0    0 -0.99986585871E+01  0.20473370632E+00  0.37897466978E+02  0.39194952038E+02  0.10570000000E+00 0. -1.
<mgrwt>
<rscale>  0 0.20002679E+02</rscale>
<asrwt>0</asrwt>
<pdfrwt beam="1">  1        1 0.11833197E-01 0.20002679E+02</pdfrwt>
<pdfrwt beam="2">  1       -1 0.20007256E-03 0.20002679E+02</pdfrwt>
<totfact> 0.43186596E+06</totfact>
</mgrwt>
</event>
<event>
 4    1  0.2115795E-006  0.2003992E+02  0.7818608E-02  0.1744535E+00
          1   -1    0    0  501    0  0.00000000000E+00  0.00000000000E+00  0.44755095499E+02  0.44755095742E+02  0.46700000000E-02 0. -1.
         -1   -1    0    0    0  501 -0.00000000000E+00 -0.00000000000E+00 -0.22433089896E+01  0.22433138505E+01  0.46700000000E-02 0.  1.
        -13    1    1    2    0    0  0.10013949317E+02  0.13683960576E+00  0.21961609663E+02  0.24137551190E+02  0.10570000000E+00 0. -1.
         13    1    1    2    0    0 -0.10013949317E+02 -0.13683960576E+00  0.20550176847E+02  0.22860858403E+02  0.10570000000E+00 0.  1.
<mgrwt>
<rscale>  0 0.20039923E+02</rscale>
<asrwt>0</asrwt>
<pdfrwt beam="1">  1        1 0.68853998E-02 0.20039923E+02</pdfrwt>
<pdfrwt beam="2">  1       -1 0.34512485E-03 0.20039923E+02</pdfrwt>
<totfact> 0.41219333E+06</totfact>
</mgrwt>
</event>
<event>
 5    1  0.2115795E-006  0.2000423E+02  0.7818608E-02  0.1745244E+00
          1   -1    0    0  501    0  0.00000000000E+00  0.00000000000E+00  0.72562529981E+02  0.72562530131E+02  0.46700000000E-02 0. -1.
         -1   -1    0    0    0  501 -0.00000000000E+00 -0.00000000000E+00 -0.13787005128E+01  0.13787084220E+01  0.46700000000E-02 0.  1.
       1023    2    1    2    0    0  0.00000000000E+00  0.00000000000E+00  0.71183829468E+02  0.73941238553E+02  0.20004229078E+02 0.  0.
        -13    1    3    3    0    0 -0.90575316630E+01 -0.42399297735E+01  0.35135630592E+02  0.36531350836E+02  0.10570000000E+00 0.  1.
         13    1    3    3    0    0  0.90575316630E+01  0.42399297735E+01  0.36048198876E+02  0.37409887717E+02  0.10570000000E+00 0. -1.
<mgrwt>
<rscale>  0 0.20004229E+02</rscale>
<asrwt>0</asrwt>
<pdfrwt beam="1">  1        1 0.11163470E-01 0.20004229E+02</pdfrwt>
<pdfrwt beam="2">  1       -1 0.21210833E-03 0.20004229E+02</pdfrwt>
<totfact> 0.42950393E+06</totfact>
</mgrwt>
</event>
<event>
 5    1  0.2115795E-006  0.2000154E+02  0.7818608E-02  0.1745297E+00
         -1   -1    0    0    0  501 -0.00000000000E+00  0.00000000000E+00  0.17704137298E+02  0.17704137914E+02  0.46700000000E-02 0. -1.
          1   -1    0    0  501    0  0.00000000000E+00 -0.00000000000E+00 -0.56492662970E+01  0.56492682272E+01  0.46700000000E-02 0.  1.
       1023    2    1    2    0    0  0.00000000000E+00  0.00000000000E+00  0.12054871001E+02  0.23353406141E+02  0.20001541529E+02 0.  0.
        -13    1    3    3    0    0 -0.26261620110E+01  0.96491049378E+01  0.60833135455E+01  0.11705546941E+02  0.10570000000E+00 0.  1.
         13    1    3    3    0    0  0.26261620110E+01 -0.96491049378E+01  0.59715574555E+01  0.11647859200E+02  0.10570000000E+00 0. -1.
<mgrwt>
<rscale>  0 0.20001542E+02</rscale>
<asrwt>0</asrwt>
<pdfrwt beam="2">  1        1 0.86911809E-03 0.20001542E+02</pdfrwt>
<pdfrwt beam="1">  1       -1 0.27237136E-02 0.20001542E+02</pdfrwt>
<totfact> 0.37650332E+06</totfact>
</mgrwt>
</event>
<event>
 5    1  0.2115795E-006  0.2000210E+02  0.7818608E-02  0.1745286E+00
          1   -1    0    0  501    0  0.00000000000E+00  0.00000000000E+00  0.32091102345E+02  0.32091102685E+02  0.46700000000E-02 0.  1.
         -1   -1    0    0    0  501 -0.00000000000E+00 -0.00000000000E+00 -0.31167802983E+01  0.31167837969E+01  0.46700000000E-02 0. -1.
       1023    2    1    2    0    0  0.00000000000E+00  0.00000000000E+00  0.28974322046E+02  0.35207886481E+02  0.20002098201E+02 0.  0.
        -13    1    3    3    0    0 -0.32390839694E+00 -0.99950095687E+01  0.14366773859E+02  0.17504870652E+02  0.10570000000E+00 0. -1.
         13    1    3    3    0    0  0.32390839694E+00  0.99950095687E+01  0.14607548187E+02  0.17703015829E+02  0.10570000000E+00 0.  1.
<mgrwt>
<rscale>  0 0.20002098E+02</rscale>
<asrwt>0</asrwt>
<pdfrwt beam="1">  1        1 0.49370931E-02 0.20002098E+02</pdfrwt>
<pdfrwt beam="2">  1       -1 0.47950494E-03 0.20002098E+02</pdfrwt>
<totfact> 0.40589366E+06</totfact>
</mgrwt>
</event>
<event>
 5    1  0.2115795E-006  0.2000137E+02  0.7818608E-02  0.1745301E+00
         -1   -1    0    0    0  501 -0.00000000000E+00  0.00000000000E+00  0.49147012193E+01  0.49147034380E+01  0.46700000000E-02 0. -1.
          1   -1    0    0  501    0  0.00000000000E+00 -0.00000000000E+00 -0.20349899759E+02  0.20349900295E+02  0.46700000000E-02 0.  1.
       1023    2    1    2    0    0  0.00000000000E+00  0.00000000000E+00 -0.15435198540E+02  0.25264603733E+02  0.20001371149E+02 0.  0.
        -13    1    3    3    0    0  0.78823686099E+01 -0.61538810098E+01 -0.77473054469E+01  0.12650450607E+02  0.10570000000E+00 0.  1.
         13    1    3    3    0    0 -0.78823686099E+01  0.61538810098E+01 -0.76878930930E+01  0.12614153126E+02  0.10570000000E+00 0. -1.
<mgrwt>
<rscale>  0 0.20001371E+02</rscale>
<asrwt>0</asrwt>
<pdfrwt beam="2">  1        1 0.31307540E-02 0.20001371E+02</pdfrwt>
<pdfrwt beam="1">  1       -1 0.75610810E-03 0.20001371E+02</pdfrwt>
<totfact> 0.39728977E+06</totfact>
</mgrwt>
</event>
<event>
 5    1  0.2115795E-006  0.2000158E+02  0.7818608E-02  0.1745297E+00
         -1   -1    0    0    0  501 -0.00000000000E+00  0.00000000000E+00  0.27727890553E+01  0.27727929880E+01  0.46700000000E-02 0.  1.
          1   -1    0    0  501    0  0.00000000000E+00 -0.00000000000E+00 -0.36070451771E+02  0.36070452073E+02  0.46700000000E-02 0. -1.
       1023    2    1    2    0    0  0.00000000000E+00  0.00000000000E+00 -0.33297662716E+02  0.38843245061E+02  0.20001583551E+02 0.  0.
        -13    1    3    3    0    0  0.99845875699E+01 -0.55812665508E+00 -0.16715239759E+02  0.19478549921E+02  0.10570000000E+00 0. -1.
         13    1    3    3    0    0 -0.99845875699E+01  0.55812665508E+00 -0.16582422956E+02  0.19364695141E+02  0.10570000000E+00 0.  1.
<mgrwt>
<rscale>  0 0.20001584E+02</rscale>
<asrwt>0</asrwt>
<pdfrwt beam="2">  1        1 0.55493002E-02 0.20001584E+02</pdfrwt>
<pdfrwt beam="1">  1       -1 0.42658328E-03 0.20001584E+02</pdfrwt>
<totfact> 0.40853587E+06</totfact>
</mgrwt>
</event>
<event>
 5    1  0.2115795E-006  0.2000188E+02  0.7818608E-02  0.1745291E+00
          1   -1    0    0  501    0  0.00000000000E+00  0.00000000000E+00  0.17917032265E+02  0.17917032874E+02  0.46700000000E-02 0.  1.
         -1   -1    0    0    0  501 -0.00000000000E+00 -0.00000000000E+00 -0.55823272963E+01  0.55823292497E+01  0.46700000000E-02 0. -1.
       1023    2    1    2    0    0  0.00000000000E+00  0.00000000000E+00  0.12334704969E+02  0.23499362124E+02  0.20001876751E+02 0.  0.
        -13    1    3    3    0    0 -0.55905683873E+01 -0.82916904025E+01  0.62047135628E+01  0.11769291717E+02  0.10570000000E+00 0. -1.
         13    1    3    3    0    0  0.55905683873E+01  0.82916904025E+01  0.61299914063E+01  0.11730070407E+02  0.10570000000E+00 0.  1.
<mgrwt>
<rscale>  0 0.20001877E+02</rscale>
<asrwt>0</asrwt>
<pdfrwt beam="1">  1        1 0.27564667E-02 0.20001877E+02</pdfrwt>
<pdfrwt beam="2">  1       -1 0.85881977E-03 0.20001877E+02</pdfrwt>
<totfact> 0.39516680E+06</totfact>
</mgrwt>
</event>
<event>
 5    1  0.2115795E-006  0.2000167E+02  0.7818608E-02  0.1745295E+00
          1   -1    0    0  501    0  0.00000000000E+00  0.00000000000E+00  0.16483554958E+01  0.16483621112E+01  0.46700000000E-02 0. -1.
         -1   -1    0    0    0  501 -0.00000000000E+00 -0.00000000000E+00 -0.60676546813E+02  0.60676546993E+02  0.46700000000E-02 0.  1.
       1023    2    1    2    0    0  0.00000000000E+00  0.00000000000E+00 -0.59028191317E+02  0.62324909104E+02  0.20001673046E+02 0.  0.
        -13    1    3    3    0    0 -0.54481670176E+01  0.83858222153E+01 -0.29613641053E+02  0.31256734426E+02  0.10570000000E+00 0.  1.
         13    1    3    3    0    0  0.54481670176E+01 -0.83858222153E+01 -0.29414550264E+02  0.31068174678E+02  0.10570000000E+00 0. -1.
<mgrwt>
<rscale>  0 0.20001673E+02</rscale>
<asrwt>0</asrwt>
<pdfrwt beam="1">  1        1 0.25359372E-03 0.20001673E+02</pdfrwt>
<pdfrwt beam="2">  1       -1 0.93348522E-02 0.20001673E+02</pdfrwt>
<totfact> 0.34192142E+06</totfact>
</mgrwt>
</event>
<event>
 4    1  0.2115795E-006  0.2017887E+02  0.7818608E-02  0.1741794E+00
          1   -1    0    0  501    0  0.00000000000E+00  0.00000000000E+00  0.29376176710E+01  0.29376213830E+01  0.46700000000E-02 0. -1.
         -1   -1    0    0    0  501 -0.00000000000E+00 -0.00000000000E+00 -0.34652764368E+02  0.34652764683E+02  0.46700000000E-02 0.  1.
        -13    1    1    2    0    0 -0.94085774681E+01 -0.34055279865E+01 -0.13452734344E+02  0.16766221538E+02  0.10570000000E+00 0. -1.
         13    1    1    2    0    0  0.94085774681E+01  0.34055279865E+01 -0.18262412354E+02  0.20824164528E+02  0.10570000000E+00 0.  1.
<mgrwt>
<rscale>  0 0.20178865E+02</rscale>
<asrwt>0</asrwt>
<pdfrwt beam="1">  1        1 0.45194152E-03 0.20178865E+02</pdfrwt>
<pdfrwt beam="2">  1       -1 0.53311945E-02 0.20178865E+02</pdfrwt>
<totfact> 0.35395501E+06</totfact>
</mgrwt>
</event>
<event>
 5    1  0.2115795E-006  0.2000290E+02  0.7818608E-02  0.1745270E+00
         -1   -1    0    0    0  501 -0.00000000000E+00  0.00000000000E+00  0.29943061637E+02  0.29943062001E+02  0.46700000000E-02 0. -1.
          1   -1    0    0  501    0  0.00000000000E+00 -0.00000000000E+00 -0.33406390006E+01  0.33406422648E+01  0.46700000000E-02 0.  1.
       1023    2    1    2    0    0  0.00000000000E+00  0.00000000000E+00  0.26602422636E+02  0.33283704266E+02  0.20002901778E+02 0.  0.
        -13    1    3    3    0    0 -0.46558493906E+01 -0.88509783639E+01  0.13356293777E+02  0.16685877486E+02  0.10570000000E+00 0. -1.
         13    1    3    3    0    0  0.46558493906E+01  0.88509783639E+01  0.13246128859E+02  0.16597826779E+02  0.10570000000E+00 0.  1.
<mgrwt>
<rscale>  0 0.20002902E+02</rscale>
<asrwt>0</asrwt>
<pdfrwt beam="2">  1        1 0.51394477E-03 0.20002902E+02</pdfrwt>
<pdfrwt beam="1">  1       -1 0.46066249E-02 0.20002902E+02</pdfrwt>
<totfact> 0.36479779E+06</totfact>
</mgrwt>
</event>
<event>
 5    1  0.2115795E-006  0.2000731E+02  0.7818608E-02  0.1745183E+00
         -1   -1    0    0    0  501 -0.00000000000E+00  0.00000000000E+00  0.47304207510E+02  0.47304207741E+02  0.46700000000E-02 0. -1.
          1   -1    0    0  501    0  0.00000000000E+00 -0.00000000000E+00 -0.21155200156E+01  0.21155251701E+01  0.46700000000E-02 0.  1.
       1023    2    1    2    0    0  0.00000000000E+00  0.00000000000E+00  0.45188687495E+02  0.49419732911E+02  0.20007311751E+02 0.  0.
        -13    1    3    3    0    0  0.86839430010E+01  0.49649784907E+01  0.22616564080E+02  0.24730184405E+02  0.10570000000E+00 0.  1.
         13    1    3    3    0    0 -0.86839430010E+01 -0.49649784907E+01  0.22572123415E+02  0.24689548505E+02  0.10570000000E+00 0. -1.
<mgrwt>
<rscale>  0 0.20007312E+02</rscale>
<asrwt>0</asrwt>
<pdfrwt beam="2">  1        1 0.32546506E-03 0.20007312E+02</pdfrwt>
<pdfrwt beam="1">  1       -1 0.72775702E-02 0.20007312E+02</pdfrwt>
<totfact> 0.35095259E+06</totfact>
</mgrwt>
</event>
<event>
 5    1  0.2115795E-006  0.2000142E+02  0.7818608E-02  0.1745300E+00
          1   -1    0    0  501    0  0.00000000000E+00  0.00000000000E+00  0.75569090565E+02  0.75569090710E+02  0.46700000000E-02 0.  1.
         -1   -1    0    0    0  501 -0.00000000000E+00 -0.00000000000E+00 -0.13234758582E+01  0.13234840974E+01  0.46700000000E-02 0. -1.
       1023    2    1    2    0    0  0.00000000000E+00  0.00000000000E+00  0.74245614707E+02  0.76892574807E+02  0.20001418880E+02 0.  0.
        -13    1    3    3    0    0  0.89609877947E+01  0.44386988694E+01  0.36965851049E+02  0.38294734183E+02  0.10570000000E+00 0.  1.
         13    1    3    3    0    0 -0.89609877947E+01 -0.44386988694E+01  0.37279763658E+02  0.38597840624E+02  0.10570000000E+00 0. -1.
<mgrwt>
<rscale>  0 0.20001419E+02</rscale>
<asrwt>0</asrwt>
<pdfrwt beam="1">  1        1 0.11626012E-01 0.20001419E+02</pdfrwt>
<pdfrwt beam="2">  1       -1 0.20361236E-03 0.20001419E+02</pdfrwt>
<totfact> 0.43122202E+06</totfact>
</mgrwt>
</event>
<event>
 5    1  0.2115795E-006  0.2000390E+02  0.7818608E-02  0.1745251E+00
         -1   -1    0    0    0  501 -0.00000000000E+00  0.00000000000E+00  0.11821422618E+02  0.11821423541E+02  0.46700000000E-02 0.  1.
          1   -1    0    0  501    0  0.00000000000E+00 -0.00000000000E+00 -0.84625127787E+01  0.84625140672E+01  0.46700000000E-02 0. -1.
       1023    2    1    2    0    0  0.00000000000E+00  0.00000000000E+00  0.33589098397E+01  0.20283937608E+02  0.20003895860E+02 0.  0.
        -13    1    3    3    0    0  0.37630396339E+01  0.92664388494E+01  0.16583386926E+01  0.10138472072E+02  0.10570000000E+00 0.  1.
         13    1    3    3    0    0 -0.37630396339E+01 -0.92664388494E+01  0.17005711471E+01  0.10145465537E+02  0.10570000000E+00 0. -1.
<mgrwt>
<rscale>  0 0.20003896E+02</rscale>
<asrwt>0</asrwt>
<pdfrwt beam="2">  1        1 0.13019252E-02 0.20003896E+02</pdfrwt>
<pdfrwt beam="1">  1       -1 0.18186806E-02 0.20003896E+02</pdfrwt>
<totfact> 0.38343651E+06</totfact>
</mgrwt>
</event>
<event>
 5    1  0.2115795E-006  0.2000141E+02  0.7818608E-02  0.1745300E+00
          1   -1    0    0  501    0  0.00000000000E+00  0.00000000000E+00  0.10627275933E+02  0.10627276959E+02  0.46700000000E-02 0. -1.
         -1   -1    0    0    0  501 -0.00000000000E+00 -0.00000000000E+00 -0.94110721417E+01  0.94110733004E+01  0.46700000000E-02 0.  1.
       1023    2    1    2    0    0  0.00000000000E+00  0.00000000000E+00  0.12162037912E+01  0.20038350259E+02  0.20001408187E+02 0.  0.
        -13    1    3    3    0    0 -0.23511956313E+01 -0.97197448375E+01  0.57130161100E+00  0.10016941580E+02  0.10570000000E+00 0. -1.
         13    1    3    3    0    0  0.23511956313E+01  0.97197448375E+01  0.64490218021E+00  0.10021408679E+02  0.10570000000E+00 0.  1.
<mgrwt>
<rscale>  0 0.20001408E+02</rscale>
<asrwt>0</asrwt>
<pdfrwt beam="1">  1        1 0.16349657E-02 0.20001408E+02</pdfrwt>
<pdfrwt beam="2">  1       -1 0.14478574E-02 0.20001408E+02</pdfrwt>
<totfact> 0.38711654E+06</totfact>
</mgrwt>
</event>
<event>
 5    1  0.2115795E-006  0.2000153E+02  0.7818608E-02  0.1745298E+00
         -1   -1    0    0    0  501 -0.00000000000E+00  0.00000000000E+00  0.75741222782E+02  0.75741222926E+02  0.46700000000E-02 0. -1.
          1   -1    0    0  501    0  0.00000000000E+00 -0.00000000000E+00 -0.13204822100E+01  0.13204904680E+01  0.46700000000E-02 0.  1.
       1023    2    1    2    0    0  0.00000000000E+00  0.00000000000E+00  0.74420740572E+02  0.77061713394E+02  0.20001526040E+02 0.  0.
        -13    1    3    3    0    0 -0.99937626426E+01  0.35471698685E+00  0.37000310309E+02  0.38327995660E+02  0.10570000000E+00 0.  1.
         13    1    3    3    0    0  0.99937626426E+01 -0.35471698685E+00  0.37420430263E+02  0.38733717734E+02  0.10570000000E+00 0. -1.
<mgrwt>
<rscale>  0 0.20001526E+02</rscale>
<asrwt>0</asrwt>
<pdfrwt beam="2">  1        1 0.20315178E-03 0.20001526E+02</pdfrwt>
<pdfrwt beam="1">  1       -1 0.11652495E-01 0.20001526E+02</pdfrwt>
<totfact> 0.33242337E+06</totfact>
</mgrwt>
</event>
<event>
 5    1  0.2115795E-006  0.2000815E+02  0.7818608E-02  0.1745166E+00
          1   -1    0    0  501    0  0.00000000000E+00  0.00000000000E+00  0.11778156046E+02  0.11778156972E+02  0.46700000000E-02 0. -1.
         -1   -1    0    0    0  501 -0.00000000000E+00 -0.00000000000E+00 -0.84972093657E+01  0.84972106490E+01  0.46700000000E-02 0.  1.
       1023    2    1    2    0    0  0.00000000000E+00  0.00000000000E+00  0.32809466805E+01  0.20275367621E+02  0.20008146367E+02 0.  0.
        -13    1    3    3    0    0 -0.85795917822E+01 -0.51438225903E+01  0.15951345150E+01  0.10130347112E+02  0.10570000000E+00 0. -1.
         13    1    3    3    0    0  0.85795917822E+01  0.51438225903E+01  0.16858121655E+01  0.10145020509E+02  0.10570000000E+00 0.  1.
<mgrwt>
<rscale>  0 0.20008146E+02</rscale>
<asrwt>0</asrwt>
<pdfrwt beam="1">  1        1 0.18120242E-02 0.20008146E+02</pdfrwt>
<pdfrwt beam="2">  1       -1 0.13072632E-02 0.20008146E+02</pdfrwt>
<totfact> 0.38839273E+06</totfact>
</mgrwt>
</event>
<event>
 5    1  0.2115795E-006  0.2000178E+02  0.7818608E-02  0.1745293E+00
          1   -1    0    0  501    0  0.00000000000E+00  0.00000000000E+00  0.32761904201E+01  0.32761937485E+01  0.46700000000E-02 0. -1.
         -1   -1    0    0    0  501 -0.00000000000E+00 -0.00000000000E+00 -0.30528665724E+02  0.30528666081E+02  0.46700000000E-02 0.  1.
       1023    2    1    2    0    0  0.00000000000E+00  0.00000000000E+00 -0.27252475304E+02  0.33804859829E+02  0.20001778369E+02 0.  0.
        -13    1    3    3    0    0  0.48377394939E+01 -0.87519383901E+01 -0.13762108828E+02  0.17011965227E+02  0.10570000000E+00 0. -1.
         13    1    3    3    0    0 -0.48377394939E+01  0.87519383901E+01 -0.13490366476E+02  0.16792894603E+02  0.10570000000E+00 0.  1.
<mgrwt>
<rscale>  0 0.20001778E+02</rscale>
<asrwt>0</asrwt>
<pdfrwt beam="1">  1        1 0.50402960E-03 0.20001778E+02</pdfrwt>
<pdfrwt beam="2">  1       -1 0.46967179E-02 0.20001778E+02</pdfrwt>
<totfact> 0.36433893E+06</totfact>
</mgrwt>
</event>
<event>
 5    1  0.2115795E-006  0.2000270E+02  0.7818608E-02  0.1745274E+00
         -1   -1    0    0    0  501 -0.00000000000E+00  0.00000000000E+00  0.50997983372E+02  0.50997983586E+02  0.46700000000E-02 0.  1.
          1   -1    0    0  501    0  0.00000000000E+00 -0.00000000000E+00 -0.19613874640E+01  0.19613930235E+01  0.46700000000E-02 0. -1.
       1023    2    1    2    0    0  0.00000000000E+00  0.00000000000E+00  0.49036595908E+02  0.52959376610E+02  0.20002695634E+02 0.  0.
        -13    1    3    3    0    0 -0.92922903703E+01  0.36968372848E+01  0.24651191857E+02  0.26602738556E+02  0.10570000000E+00 0. -1.
         13    1    3    3    0    0  0.92922903703E+01 -0.36968372848E+01  0.24385404052E+02  0.26356638054E+02  0.10570000000E+00 0.  1.
<mgrwt>
<rscale>  0 0.20002696E+02</rscale>
<asrwt>0</asrwt>
<pdfrwt beam="2">  1        1 0.30175236E-03 0.20002696E+02</pdfrwt>
<pdfrwt beam="1">  1       -1 0.78458442E-02 0.20002696E+02</pdfrwt>
<totfact> 0.34848531E+06</totfact>
</mgrwt>
</event>
<event>
 4    1  0.2115795E-006  0.2010900E+02  0.7818608E-02  0.1743169E+00
         -1   -1    0    0    0  501 -0.00000000000E+00  0.00000000000E+00  0.66748045739E+01  0.66748062076E+01  0.46700000000E-02 0.  1.
          1   -1    0    0  501    0  0.00000000000E+00 -0.00000000000E+00 -0.15145452020E+02  0.15145452740E+02  0.46700000000E-02 0. -1.
        -13    1    1    2    0    0 -0.51089380689E+01  0.86428703352E+01 -0.48108661056E+01  0.11133555631E+02  0.10570000000E+00 0. -1.
         13    1    1    2    0    0  0.51089380689E+01 -0.86428703352E+01 -0.36597813408E+01  0.10686703317E+02  0.10570000000E+00 0.  1.
<mgrwt>
<rscale>  0 0.20108999E+02</rscale>
<asrwt>0</asrwt>
<pdfrwt beam="2">  1        1 0.23300697E-02 0.20108999E+02</pdfrwt>
<pdfrwt beam="1">  1       -1 0.10268932E-02 0.20108999E+02</pdfrwt>
<totfact> 0.38782096E+06</totfact>
</mgrwt>
</event>
<event>
 4    1  0.2115795E-006  0.2004954E+02  0.7818608E-02  0.1744345E+00
         -1   -1    0    0    0  501 -0.00000000000E+00  0.00000000000E+00  0.10807327416E+03  0.10807327426E+03  0.46700000000E-02 0. -1.
          1   -1    0    0  501    0  0.00000000000E+00 -0.00000000000E+00 -0.92988218271E+00  0.92989390933E+00  0.46700000000E-02 0.  1.
        -13    1    1    2    0    0  0.70622519834E+01  0.71034476891E+01  0.51462483908E+02  0.52428358687E+02  0.10570000000E+00 0.  1.
         13    1    1    2    0    0 -0.70622519834E+01 -0.71034476891E+01  0.55680908072E+02  0.56574809486E+02  0.10570000000E+00 0. -1.
<mgrwt>
<rscale>  0 0.20049544E+02</rscale>
<asrwt>0</asrwt>
<pdfrwt beam="2">  1        1 0.14305980E-03 0.20049544E+02</pdfrwt>
<pdfrwt beam="1">  1       -1 0.16626648E-01 0.20049544E+02</pdfrwt>
<totfact> 0.31271503E+06</totfact>
</mgrwt>
</event>
<event>
 5    1  0.2115795E-006  0.2000232E+02  0.7818608E-02  0.1745282E+00
         -1   -1    0    0    0  501 -0.00000000000E+00  0.00000000000E+00  0.17537877947E+02  0.17537878568E+02  0.46700000000E-02 0. -1.
          1   -1    0    0  501    0  0.00000000000E+00 -0.00000000000E+00 -0.57032666679E+01  0.57032685798E+01  0.46700000000E-02 0.  1.
       1023    2    1    2    0    0  0.00000000000E+00  0.00000000000E+00  0.11834611279E+02  0.23241147148E+02  0.20002322281E+02 0.  0.
        -13    1    3    3    0    0 -0.72612316153E+01  0.68759241492E+01  0.60227413464E+01  0.11674262430E+02  0.10570000000E+00 0.  1.
         13    1    3    3    0    0  0.72612316153E+01 -0.68759241492E+01  0.58118699324E+01  0.11566884718E+02  0.10570000000E+00 0. -1.
<mgrwt>
<rscale>  0 0.20002322E+02</rscale>
<asrwt>0</asrwt>
<pdfrwt beam="2">  1        1 0.87742584E-03 0.20002322E+02</pdfrwt>
<pdfrwt beam="1">  1       -1 0.26981353E-02 0.20002322E+02</pdfrwt>
<totfact> 0.37665017E+06</totfact>
</mgrwt>
</event>
<event>
 5    1  0.2115795E-006  0.2000443E+02  0.7818608E-02  0.1745240E+00
          1   -1    0    0  501    0  0.00000000000E+00  0.00000000000E+00  0.27446900120E+02  0.27446900518E+02  0.46700000000E-02 0. -1.
         -1   -1    0    0    0  501 -0.00000000000E+00 -0.00000000000E+00 -0.36450110349E+01  0.36450140265E+01  0.46700000000E-02 0.  1.
       1023    2    1    2    0    0  0.00000000000E+00  0.00000000000E+00  0.23801889086E+02  0.31091914544E+02  0.20004430159E+02 0.  0.
        -13    1    3    3    0    0 -0.98862237448E+01 -0.15145061794E+01  0.11970193486E+02  0.15598969629E+02  0.10570000000E+00 0. -1.
         13    1    3    3    0    0  0.98862237448E+01  0.15145061794E+01  0.11831695599E+02  0.15492944915E+02  0.10570000000E+00 0.  1.
<mgrwt>
<rscale>  0 0.20004430E+02</rscale>
<asrwt>0</asrwt>
<pdfrwt beam="1">  1        1 0.42226002E-02 0.20004430E+02</pdfrwt>
<pdfrwt beam="2">  1       -1 0.56077120E-03 0.20004430E+02</pdfrwt>
<totfact> 0.40257813E+06</totfact>
</mgrwt>
</event>
<event>
 4    1  0.2115795E-006  0.2001284E+02  0.7818608E-02  0.1745073E+00
         -1   -1    0    0    0  501 -0.00000000000E+00  0.00000000000E+00  0.39391373854E+02  0.39391374131E+02  0.46700000000E-02 0. -1.
          1   -1    0    0  501    0  0.00000000000E+00 -0.00000000000E+00 -0.25418842814E+01  0.25418885713E+01  0.46700000000E-02 0.  1.
        -13    1    1    2    0    0  0.48234771907E+01 -0.87622177530E+01  0.17851511049E+02  0.20462893525E+02  0.10570000000E+00 0.  1.
         13    1    1    2    0    0 -0.48234771907E+01  0.87622177530E+01  0.18997978523E+02  0.21470369177E+02  0.10570000000E+00 0. -1.
<mgrwt>
<rscale>  0 0.20012837E+02</rscale>
<asrwt>0</asrwt>
<pdfrwt beam="2">  1        1 0.39105949E-03 0.20012837E+02</pdfrwt>
<pdfrwt beam="1">  1       -1 0.60602115E-02 0.20012837E+02</pdfrwt>
<totfact> 0.35668016E+06</totfact>
</mgrwt>
</event>
<event>
 5    1  0.2115795E-006  0.2000371E+02  0.7818608E-02  0.1745254E+00
         -1   -1    0    0    0  501 -0.00000000000E+00  0.00000000000E+00  0.12547285985E+02  0.12547286854E+02  0.46700000000E-02 0. -1.
          1   -1    0    0  501    0  0.00000000000E+00 -0.00000000000E+00 -0.79728096438E+01  0.79728110115E+01  0.46700000000E-02 0.  1.
       1023    2    1    2    0    0  0.00000000000E+00  0.00000000000E+00  0.45744763411E+01  0.20520097866E+02  0.20003714220E+02 0.  0.
        -13    1    3    3    0    0 -0.46214872717E+01  0.88691801822E+01  0.22113594045E+01  0.10243133535E+02  0.10570000000E+00 0. -1.
         13    1    3    3    0    0  0.46214872717E+01 -0.88691801822E+01  0.23631169367E+01  0.10276964331E+02  0.10570000000E+00 0.  1.
<mgrwt>
<rscale>  0 0.20003714E+02</rscale>
<asrwt>0</asrwt>
<pdfrwt beam="2">  1        1 0.12265863E-02 0.20003714E+02</pdfrwt>
<pdfrwt beam="1">  1       -1 0.19303519E-02 0.20003714E+02</pdfrwt>
<totfact> 0.38247537E+06</totfact>
</mgrwt>
</event>
<event>
 5    1  0.2115795E-006  0.2001217E+02  0.7818608E-02  0.1745086E+00
          1   -1    0    0  501    0  0.00000000000E+00  0.00000000000E+00  0.30892285900E+02  0.30892286253E+02  0.46700000000E-02 0.  1.
         -1   -1    0    0    0  501 -0.00000000000E+00 -0.00000000000E+00 -0.32409931481E+01  0.32409965126E+01  0.46700000000E-02 0. -1.
       1023    2    1    2    0    0  0.00000000000E+00  0.00000000000E+00  0.27651292752E+02  0.34133282766E+02  0.20012171334E+02 0.  0.
        -13    1    3    3    0    0 -0.46257514005E+01 -0.88714015540E+01  0.14006445448E+02  0.17213106290E+02  0.10570000000E+00 0.  1.
         13    1    3    3    0    0  0.46257514005E+01  0.88714015540E+01  0.13644847304E+02  0.16920176476E+02  0.10570000000E+00 0. -1.
<mgrwt>
<rscale>  0 0.20012171E+02</rscale>
<asrwt>0</asrwt>
<pdfrwt beam="1">  1        1 0.47526595E-02 0.20012171E+02</pdfrwt>
<pdfrwt beam="2">  1       -1 0.49861463E-03 0.20012171E+02</pdfrwt>
<totfact> 0.40462795E+06</totfact>
</mgrwt>
</event>
<event>
 4    1  0.2115795E-006  0.2002792E+02  0.7818608E-02  0.1744773E+00
          1   -1    0    0  501    0  0.00000000000E+00  0.00000000000E+00  0.20414336332E+02  0.20414336866E+02  0.46700000000E-02 0.  1.
         -1   -1    0    0    0  501 -0.00000000000E+00 -0.00000000000E+00 -0.49122045032E+01  0.49122067231E+01  0.46700000000E-02 0. -1.
        -13    1    1    2    0    0 -0.31603026660E+01  0.94919764623E+01  0.72099175381E+01  0.12332040119E+02  0.10570000000E+00 0.  1.
         13    1    1    2    0    0  0.31603026660E+01 -0.94919764623E+01  0.82922142902E+01  0.12994503470E+02  0.10570000000E+00 0. -1.
<mgrwt>
<rscale>  0 0.20027923E+02</rscale>
<asrwt>0</asrwt>
<pdfrwt beam="1">  1        1 0.31406673E-02 0.20027923E+02</pdfrwt>
<pdfrwt beam="2">  1       -1 0.75572399E-03 0.20027923E+02</pdfrwt>
<totfact> 0.39616291E+06</totfact>
</mgrwt>
</event>
<event>
 5    1  0.2115795E-006  0.2000195E+02  0.7818608E-02  0.1745289E+00
         -1   -1    0    0    0  501 -0.00000000000E+00  0.00000000000E+00  0.10068777303E+01  0.10068885602E+01  0.46700000000E-02 0. -1.
          1   -1    0    0  501    0  0.00000000000E+00 -0.00000000000E+00 -0.99335771945E+02  0.99335772055E+02  0.46700000000E-02 0.  1.
       1023    2    1    2    0    0  0.00000000000E+00  0.00000000000E+00 -0.98328894215E+02  0.10034266062E+03  0.20001952450E+02 0.  0.
        -13    1    3    3    0    0  0.40364074035E+01 -0.91495647740E+01 -0.48988315123E+02  0.49998733097E+02  0.10570000000E+00 0. -1.
         13    1    3    3    0    0 -0.40364074035E+01  0.91495647740E+01 -0.49340579092E+02  0.50343927518E+02  0.10570000000E+00 0.  1.
<mgrwt>
<rscale>  0 0.20001952E+02</rscale>
<asrwt>0</asrwt>
<pdfrwt beam="2">  1        1 0.15282419E-01 0.20001952E+02</pdfrwt>
<pdfrwt beam="1">  1       -1 0.15490519E-03 0.20001952E+02</pdfrwt>
<totfact> 0.44318871E+06</totfact>
</mgrwt>
</event>
<event>
 5    1  0.2115795E-006  0.2000407E+02  0.7818608E-02  0.1745247E+00
         -1   -1    0    0    0  501 -0.00000000000E+00  0.00000000000E+00  0.10739312352E+02  0.10739313367E+02  0.46700000000E-02 0.  1.
          1   -1    0    0  501    0  0.00000000000E+00 -0.00000000000E+00 -0.93153720144E+01  0.93153731849E+01  0.46700000000E-02 0. -1.
       1023    2    1    2    0    0  0.00000000000E+00  0.00000000000E+00  0.14239403372E+01  0.20054686552E+02  0.20004070751E+02 0.  0.
        -13    1    3    3    0    0  0.15515219283E+01  0.98789059974E+01  0.88426299137E+00  0.10039576561E+02  0.10570000000E+00 0. -1.
         13    1    3    3    0    0 -0.15515219283E+01 -0.98789059974E+01  0.53967734587E+00  0.10015109991E+02  0.10570000000E+00 0.  1.
<mgrwt>
<rscale>  0 0.20004071E+02</rscale>
<asrwt>0</asrwt>
<pdfrwt beam="2">  1        1 0.14331343E-02 0.20004071E+02</pdfrwt>
<pdfrwt beam="1">  1       -1 0.16522021E-02 0.20004071E+02</pdfrwt>
<totfact> 0.38495577E+06</totfact>
</mgrwt>
</event>
<event>
 4    1  0.2115795E-006  0.2001532E+02  0.7818608E-02  0.1745024E+00
          1   -1    0    0  501    0  0.00000000000E+00  0.00000000000E+00  0.42700091155E+02  0.42700091410E+02  0.46700000000E-02 0. -1.
         -1   -1    0    0    0  501 -0.00000000000E+00 -0.00000000000E+00 -0.23455016606E+01  0.23455063097E+01  0.46700000000E-02 0.  1.
        -13    1    1    2    0    0 -0.99209306469E+01 -0.12602667540E+01  0.20985415178E+02  0.23246762352E+02  0.10570000000E+00 0. -1.
         13    1    1    2    0    0  0.99209306469E+01  0.12602667540E+01  0.19369174316E+02  0.21798835367E+02  0.10570000000E+00 0.  1.
<mgrwt>
<rscale>  0 0.20015319E+02</rscale>
<asrwt>0</asrwt>
<pdfrwt beam="1">  1        1 0.65692445E-02 0.20015319E+02</pdfrwt>
<pdfrwt beam="2">  1       -1 0.36084683E-03 0.20015319E+02</pdfrwt>
<totfact> 0.41207229E+06</totfact>
</mgrwt>
</event>
<event>
 4    1  0.2115795E-006  0.2002332E+02  0.7818608E-02  0.1744865E+00
          1   -1    0    0  501    0  0.00000000000E+00  0.00000000000E+00  0.20797691555E+01  0.20797743986E+01  0.46700000000E-02 0.  1.
         -1   -1    0    0    0  501 -0.00000000000E+00 -0.00000000000E+00 -0.48194377151E+02  0.48194377377E+02  0.46700000000E-02 0. -1.
        -13    1    1    2    0    0 -0.85671247732E+00 -0.99716676823E+01 -0.22473681652E+02  0.24601740836E+02  0.10570000000E+00 0. -1.
         13    1    1    2    0    0  0.85671247732E+00  0.99716676823E+01 -0.23640926343E+02  0.25672410940E+02  0.10570000000E+00 0.  1.
<mgrwt>
<rscale>  0 0.20023318E+02</rscale>
<asrwt>0</asrwt>
<pdfrwt beam="1">  1        1 0.31996494E-03 0.20023318E+02</pdfrwt>
<pdfrwt beam="2">  1       -1 0.74145192E-02 0.20023318E+02</pdfrwt>
<totfact> 0.34969305E+06</totfact>
</mgrwt>
</event>
<event>
 4    1  0.2115795E-006  0.2006233E+02  0.7818608E-02  0.1744091E+00
          1   -1    0    0  501    0  0.00000000000E+00  0.00000000000E+00  0.20986446571E+01  0.20986498530E+01  0.46700000000E-02 0. -1.
         -1   -1    0    0    0  501 -0.00000000000E+00 -0.00000000000E+00 -0.47947194554E+02  0.47947194781E+02  0.46700000000E-02 0.  1.
        -13    1    1    2    0    0 -0.54295670387E+01 -0.84039210940E+01 -0.21148081796E+02  0.23395696701E+02  0.10570000000E+00 0. -1.
         13    1    1    2    0    0  0.54295670387E+01  0.84039210940E+01 -0.24700468100E+02  0.26650147933E+02  0.10570000000E+00 0.  1.
<mgrwt>
<rscale>  0 0.20062329E+02</rscale>
<asrwt>0</asrwt>
<pdfrwt beam="1">  1        1 0.32286886E-03 0.20062329E+02</pdfrwt>
<pdfrwt beam="2">  1       -1 0.73764911E-02 0.20062329E+02</pdfrwt>
<totfact> 0.34837682E+06</totfact>
</mgrwt>
</event>
<event>
 4    1  0.2115795E-006  0.2002367E+02  0.7818608E-02  0.1744858E+00
          1   -1    0    0  501    0  0.00000000000E+00  0.00000000000E+00  0.27849120135E+01  0.27849159290E+01  0.46700000000E-02 0.  1.
         -1   -1    0    0    0  501 -0.00000000000E+00 -0.00000000000E+00 -0.35992806584E+02  0.35992806887E+02  0.46700000000E-02 0. -1.
        -13    1    1    2    0    0  0.49124772154E+01 -0.87176776487E+01 -0.17202015544E+02  0.19901026286E+02  0.10570000000E+00 0. -1.
         13    1    1    2    0    0 -0.49124772154E+01  0.87176776487E+01 -0.16005879027E+02  0.18876696530E+02  0.10570000000E+00 0.  1.
<mgrwt>
<rscale>  0 0.20023674E+02</rscale>
<asrwt>0</asrwt>
<pdfrwt beam="1">  1        1 0.42844835E-03 0.20023674E+02</pdfrwt>
<pdfrwt beam="2">  1       -1 0.55373549E-02 0.20023674E+02</pdfrwt>
<totfact> 0.35893809E+06</totfact>
</mgrwt>
</event>
<event>
 5    1  0.2115795E-006  0.2000270E+02  0.7818608E-02  0.1745274E+00
         -1   -1    0    0    0  501 -0.00000000000E+00  0.00000000000E+00  0.98321521752E+00  0.98322630806E+00  0.46700000000E-02 0.  1.
          1   -1    0    0  501    0  0.00000000000E+00 -0.00000000000E+00 -0.10173400663E+03  0.10173400674E+03  0.46700000000E-02 0. -1.
       1023    2    1    2    0    0  0.00000000000E+00  0.00000000000E+00 -0.10075079141E+03  0.10271723305E+03  0.20002699674E+02 0.  0.
        -13    1    3    3    0    0  0.36716673387E+01 -0.93021295217E+01 -0.50741089784E+02  0.51717309671E+02  0.10570000000E+00 0. -1.
         13    1    3    3    0    0 -0.36716673387E+01  0.93021295217E+01 -0.50009701629E+02  0.50999923375E+02  0.10570000000E+00 0.  1.
<mgrwt>
<rscale>  0 0.20002700E+02</rscale>
<asrwt>0</asrwt>
<pdfrwt beam="2">  1        1 0.15651378E-01 0.20002700E+02</pdfrwt>
<pdfrwt beam="1">  1       -1 0.15126482E-03 0.20002700E+02</pdfrwt>
<totfact> 0.44431325E+06</totfact>
</mgrwt>
</event>
<event>
 4    1  0.2115795E-006  0.2009803E+02  0.7818608E-02  0.1743386E+00
          1   -1    0    0  501    0  0.00000000000E+00  0.00000000000E+00  0.40944768364E+01  0.40944794996E+01  0.46700000000E-02 0.  1.
         -1   -1    0    0    0  501 -0.00000000000E+00 -0.00000000000E+00 -0.24663148185E+02  0.24663148627E+02  0.46700000000E-02 0. -1.
        -13    1    1    2    0    0  0.99798968196E+01  0.11537645512E+01 -0.99909277055E+01  0.14168956280E+02  0.10570000000E+00 0.  1.
         13    1    1    2    0    0 -0.99798968196E+01 -0.11537645512E+01 -0.10577743643E+02  0.14588671846E+02  0.10570000000E+00 0. -1.
<mgrwt>
<rscale>  0 0.20098033E+02</rscale>
<asrwt>0</asrwt>
<pdfrwt beam="1">  1        1 0.62991977E-03 0.20098033E+02</pdfrwt>
<pdfrwt beam="2">  1       -1 0.37943306E-02 0.20098033E+02</pdfrwt>
<totfact> 0.36568574E+06</totfact>
</mgrwt>
</event>
<event>
 5    1  0.2115795E-006  0.2000313E+02  0.7818608E-02  0.1745266E+00
         -1   -1    0    0    0  501 -0.00000000000E+00  0.00000000000E+00  0.30139295459E+02  0.30139295821E+02  0.46700000000E-02 0.  1.
          1   -1    0    0  501    0  0.00000000000E+00 -0.00000000000E+00 -0.33189631793E+01  0.33189664648E+01  0.46700000000E-02 0. -1.
       1023    2    1    2    0    0  0.00000000000E+00  0.00000000000E+00  0.26820332279E+02  0.33458262285E+02  0.20003127045E+02 0.  0.
        -13    1    3    3    0    0  0.41751330778E+01  0.90867863844E+01  0.13638759494E+02  0.16912372869E+02  0.10570000000E+00 0. -1.
         13    1    3    3    0    0 -0.41751330778E+01 -0.90867863844E+01  0.13181572785E+02  0.16545889417E+02  0.10570000000E+00 0.  1.
<mgrwt>
<rscale>  0 0.20003127E+02</rscale>
<asrwt>0</asrwt>
<pdfrwt beam="2">  1        1 0.51061001E-03 0.20003127E+02</pdfrwt>
<pdfrwt beam="1">  1       -1 0.46368148E-02 0.20003127E+02</pdfrwt>
<totfact> 0.36461949E+06</totfact>
</mgrwt>
</event>
<event>
 4    1  0.2115795E-006  0.2011773E+02  0.7818608E-02  0.1742997E+00
          1   -1    0    0  501    0  0.00000000000E+00  0.00000000000E+00  0.88959716097E+02  0.88959716220E+02  0.46700000000E-02 0. -1.
         -1   -1    0    0    0  501 -0.00000000000E+00 -0.00000000000E+00 -0.11373719878E+01  0.11373815752E+01  0.46700000000E-02 0.  1.
        -13    1    1    2    0    0 -0.35941066168E+01 -0.93903483746E+01  0.45123753281E+02  0.46230515113E+02  0.10570000000E+00 0. -1.
         13    1    1    2    0    0  0.35941066168E+01  0.93903483746E+01  0.42698590828E+02  0.43866582682E+02  0.10570000000E+00 0.  1.
<mgrwt>
<rscale>  0 0.20117726E+02</rscale>
<asrwt>0</asrwt>
<pdfrwt beam="1">  1        1 0.13686111E-01 0.20117726E+02</pdfrwt>
<pdfrwt beam="2">  1       -1 0.17498106E-03 0.20117726E+02</pdfrwt>
<totfact> 0.43251032E+06</totfact>
</mgrwt>
</event>
<event>
 4    1  0.2115795E-006  0.2003444E+02  0.7818608E-02  0.1744644E+00
         -1   -1    0    0    0  501 -0.00000000000E+00  0.00000000000E+00  0.76318307337E+01  0.76318321625E+01  0.46700000000E-02 0.  1.
          1   -1    0    0  501    0  0.00000000000E+00 -0.00000000000E+00 -0.13148178153E+02  0.13148178982E+02  0.46700000000E-02 0. -1.
        -13    1    1    2    0    0  0.79056783693E+01  0.61492660873E+01 -0.26104035791E+01  0.10350777904E+02  0.10570000000E+00 0.  1.
         13    1    1    2    0    0 -0.79056783693E+01 -0.61492660873E+01 -0.29059438403E+01  0.10429233240E+02  0.10570000000E+00 0. -1.
<mgrwt>
<rscale>  0 0.20034440E+02</rscale>
<asrwt>0</asrwt>
<pdfrwt beam="2">  1        1 0.20227968E-02 0.20034440E+02</pdfrwt>
<pdfrwt beam="1">  1       -1 0.11741280E-02 0.20034440E+02</pdfrwt>
<totfact> 0.38891441E+06</totfact>
</mgrwt>
</event>
<event>
 5    1  0.2115795E-006  0.2000363E+02  0.7818608E-02  0.1745256E+00
          1   -1    0    0  501    0  0.00000000000E+00  0.00000000000E+00  0.44167949157E+02  0.44167949404E+02  0.46700000000E-02 0.  1.
         -1   -1    0    0    0  501 -0.00000000000E+00 -0.00000000000E+00 -0.22649054808E+01  0.22649102953E+01  0.46700000000E-02 0. -1.
       1023    2    1    2    0    0  0.00000000000E+00  0.00000000000E+00  0.41903043676E+02  0.46432859699E+02  0.20003634433E+02 0.  0.
        -13    1    3    3    0    0  0.28127382038E+01 -0.95971972511E+01  0.21152329057E+02  0.23397647067E+02  0.10570000000E+00 0.  1.
         13    1    3    3    0    0 -0.28127382038E+01  0.95971972511E+01  0.20750714619E+02  0.23035212632E+02  0.10570000000E+00 0. -1.
<mgrwt>
<rscale>  0 0.20003634E+02</rscale>
<asrwt>0</asrwt>
<pdfrwt beam="1">  1        1 0.67950681E-02 0.20003634E+02</pdfrwt>
<pdfrwt beam="2">  1       -1 0.34844746E-03 0.20003634E+02</pdfrwt>
<totfact> 0.41350339E+06</totfact>
</mgrwt>
</event>
<event>
 5    1  0.2115795E-006  0.2000337E+02  0.7818608E-02  0.1745261E+00
         -1   -1    0    0    0  501 -0.00000000000E+00  0.00000000000E+00  0.74608172609E+02  0.74608172755E+02  0.46700000000E-02 0.  1.
          1   -1    0    0  501    0  0.00000000000E+00 -0.00000000000E+00 -0.13407834344E+01  0.13407915672E+01  0.46700000000E-02 0. -1.
       1023    2    1    2    0    0  0.00000000000E+00  0.00000000000E+00  0.73267389174E+02  0.75948964322E+02  0.20003371345E+02 0.  0.
        -13    1    3    3    0    0 -0.83876648274E+01  0.54467588971E+01  0.36821245539E+02  0.38155411141E+02  0.10570000000E+00 0. -1.
         13    1    3    3    0    0  0.83876648274E+01 -0.54467588971E+01  0.36446143635E+02  0.37793553182E+02  0.10570000000E+00 0.  1.
<mgrwt>
<rscale>  0 0.20003371E+02</rscale>
<asrwt>0</asrwt>
<pdfrwt beam="2">  1        1 0.20627497E-03 0.20003371E+02</pdfrwt>
<pdfrwt beam="1">  1       -1 0.11478183E-01 0.20003371E+02</pdfrwt>
<totfact> 0.33304284E+06</totfact>
</mgrwt>
</event>
<event>
 5    1  0.2115795E-006  0.2000160E+02  0.7818608E-02  0.1745296E+00
         -1   -1    0    0    0  501 -0.00000000000E+00  0.00000000000E+00  0.11666665938E+03  0.11666665947E+03  0.46700000000E-02 0.  1.
          1   -1    0    0  501    0  0.00000000000E+00 -0.00000000000E+00 -0.85727356224E+00  0.85728628206E+00  0.46700000000E-02 0. -1.
       1023    2    1    2    0    0  0.00000000000E+00  0.00000000000E+00  0.11580938581E+03  0.11752394575E+03  0.20001599497E+02 0.  0.
        -13    1    3    3    0    0 -0.91116484454E+01 -0.41208557018E+01  0.57698287273E+02  0.58558578499E+02  0.10570000000E+00 0.  1.
         13    1    3    3    0    0  0.91116484454E+01  0.41208557018E+01  0.58111098539E+02  0.58965367251E+02  0.10570000000E+00 0. -1.
<mgrwt>
<rscale>  0 0.20001599E+02</rscale>
<asrwt>0</asrwt>
<pdfrwt beam="2">  1        1 0.13188926E-03 0.20001599E+02</pdfrwt>
<pdfrwt beam="1">  1       -1 0.17948713E-01 0.20001599E+02</pdfrwt>
<totfact> 0.30997244E+06</totfact>
</mgrwt>
</event>
<event>
 5    1  0.2115795E-006  0.2000249E+02  0.7818608E-02  0.1745279E+00
         -1   -1    0    0    0  501 -0.00000000000E+00  0.00000000000E+00  0.20650849212E+01  0.20650902016E+01  0.46700000000E-02 0.  1.
          1   -1    0    0  501    0  0.00000000000E+00 -0.00000000000E+00 -0.48436138783E+02  0.48436139008E+02  0.46700000000E-02 0. -1.
       1023    2    1    2    0    0  0.00000000000E+00  0.00000000000E+00 -0.46371053862E+02  0.50501229209E+02  0.20002487731E+02 0.  0.
        -13    1    3    3    0    0  0.71202347282E+01  0.70216545230E+01 -0.23465893772E+02  0.25508052020E+02  0.10570000000E+00 0. -1.
         13    1    3    3    0    0 -0.71202347282E+01 -0.70216545230E+01 -0.22905160089E+02  0.24993177189E+02  0.10570000000E+00 0.  1.
<mgrwt>
<rscale>  0 0.20002488E+02</rscale>
<asrwt>0</asrwt>
<pdfrwt beam="2">  1        1 0.74517132E-02 0.20002488E+02</pdfrwt>
<pdfrwt beam="1">  1       -1 0.31770583E-03 0.20002488E+02</pdfrwt>
<totfact> 0.41611238E+06</totfact>
</mgrwt>
</event>
<event>
 5    1  0.2115795E-006  0.2000395E+02  0.7818608E-02  0.1745250E+00
         -1   -1    0    0    0  501 -0.00000000000E+00  0.00000000000E+00  0.32149297683E+01  0.32149331601E+01  0.46700000000E-02 0. -1.
          1   -1    0    0  501    0  0.00000000000E+00 -0.00000000000E+00 -0.31117148580E+02  0.31117148930E+02  0.46700000000E-02 0.  1.
       1023    2    1    2    0    0  0.00000000000E+00  0.00000000000E+00 -0.27902218812E+02  0.34332082091E+02  0.20003950761E+02 0.  0.
        -13    1    3    3    0    0 -0.11461490024E+01  0.99345129966E+01 -0.14194631683E+02  0.17363955399E+02  0.10570000000E+00 0.  1.
         13    1    3    3    0    0  0.11461490024E+01 -0.99345129966E+01 -0.13707587129E+02  0.16968126691E+02  0.10570000000E+00 0. -1.
<mgrwt>
<rscale>  0 0.20003951E+02</rscale>
<asrwt>0</asrwt>
<pdfrwt beam="2">  1        1 0.47872537E-02 0.20003951E+02</pdfrwt>
<pdfrwt beam="1">  1       -1 0.49460489E-03 0.20003951E+02</pdfrwt>
<totfact> 0.40515219E+06</totfact>
</mgrwt>
</event>
<event>
 5    1  0.2115795E-006  0.2000200E+02  0.7818608E-02  0.1745288E+00
         -1   -1    0    0    0  501 -0.00000000000E+00  0.00000000000E+00  0.29826030465E+01  0.29826067025E+01  0.46700000000E-02 0.  1.
          1   -1    0    0  501    0  0.00000000000E+00 -0.00000000000E+00 -0.33534451119E+02  0.33534451444E+02  0.46700000000E-02 0. -1.
       1023    2    1    2    0    0  0.00000000000E+00  0.00000000000E+00 -0.30551848073E+02  0.36517058147E+02  0.20002002776E+02 0.  0.
        -13    1    3    3    0    0 -0.37848737959E+00  0.99929665255E+01 -0.15131897376E+02  0.18138029754E+02  0.10570000000E+00 0.  1.
         13    1    3    3    0    0  0.37848737959E+00 -0.99929665255E+01 -0.15419950697E+02  0.18379028393E+02  0.10570000000E+00 0. -1.
<mgrwt>
<rscale>  0 0.20002003E+02</rscale>
<asrwt>0</asrwt>
<pdfrwt beam="2">  1        1 0.51591464E-02 0.20002003E+02</pdfrwt>
<pdfrwt beam="1">  1       -1 0.45886234E-03 0.20002003E+02</pdfrwt>
<totfact> 0.40685963E+06</totfact>
</mgrwt>
</event>
<event>
 5    1  0.2115795E-006  0.2000267E+02  0.7818608E-02  0.1745275E+00
          1   -1    0    0  501    0  0.00000000000E+00  0.00000000000E+00  0.51346001846E+02  0.51346002058E+02  0.46700000000E-02 0.  1.
         -1   -1    0    0    0  501 -0.00000000000E+00 -0.00000000000E+00 -0.19480883111E+01  0.19480939086E+01  0.46700000000E-02 0. -1.
       1023    2    1    2    0    0  0.00000000000E+00  0.00000000000E+00  0.49397913535E+02  0.53294095967E+02  0.20002669905E+02 0.  0.
        -13    1    3    3    0    0  0.32515742458E+01 -0.94572946442E+01  0.24828699391E+02  0.26767305487E+02  0.10570000000E+00 0. -1.
         13    1    3    3    0    0 -0.32515742458E+01  0.94572946442E+01  0.24569214144E+02  0.26526790480E+02  0.10570000000E+00 0.  1.
<mgrwt>
<rscale>  0 0.20002670E+02</rscale>
<asrwt>0</asrwt>
<pdfrwt beam="1">  1        1 0.78993840E-02 0.20002670E+02</pdfrwt>
<pdfrwt beam="2">  1       -1 0.29970639E-03 0.20002670E+02</pdfrwt>
<totfact> 0.41781062E+06</totfact>
</mgrwt>
</event>
<event>
 5    1  0.2115795E-006  0.2000179E+02  0.7818608E-02  0.1745292E+00
         -1   -1    0    0    0  501 -0.00000000000E+00  0.00000000000E+00  0.37154010645E+01  0.37154039995E+01  0.46700000000E-02 0. -1.
          1   -1    0    0  501    0  0.00000000000E+00 -0.00000000000E+00 -0.26919799859E+02  0.26919800264E+02  0.46700000000E-02 0.  1.
       1023    2    1    2    0    0  0.00000000000E+00  0.00000000000E+00 -0.23204398795E+02  0.30635204264E+02  0.20001790341E+02 0.  0.
        -13    1    3    3    0    0 -0.28159405624E+00 -0.99960707882E+01 -0.11483507897E+02  0.15227700172E+02  0.10570000000E+00 0. -1.
         13    1    3    3    0    0  0.28159405624E+00  0.99960707882E+01 -0.11720890897E+02  0.15407504092E+02  0.10570000000E+00 0.  1.
<mgrwt>
<rscale>  0 0.20001790E+02</rscale>
<asrwt>0</asrwt>
<pdfrwt beam="2">  1        1 0.41415078E-02 0.20001790E+02</pdfrwt>
<pdfrwt beam="1">  1       -1 0.57160044E-03 0.20001790E+02</pdfrwt>
<totfact> 0.40231876E+06</totfact>
</mgrwt>
</event>
<event>
 5    1  0.2115795E-006  0.2000143E+02  0.7818608E-02  0.1745300E+00
          1   -1    0    0  501    0  0.00000000000E+00  0.00000000000E+00  0.75210766278E+02  0.75210766423E+02  0.46700000000E-02 0.  1.
         -1   -1    0    0    0  501 -0.00000000000E+00 -0.00000000000E+00 -0.13297821475E+01  0.13297903476E+01  0.46700000000E-02 0. -1.
       1023    2    1    2    0    0  0.00000000000E+00  0.00000000000E+00  0.73880984130E+02  0.76540556771E+02  0.20001425316E+02 0.  0.
        -13    1    3    3    0    0 -0.94336804729E+01 -0.33178304963E+01  0.36835363625E+02  0.38168802867E+02  0.10570000000E+00 0.  1.
         13    1    3    3    0    0  0.94336804729E+01  0.33178304963E+01  0.37045620506E+02  0.38371753903E+02  0.10570000000E+00 0. -1.
<mgrwt>
<rscale>  0 0.20001425E+02</rscale>
<asrwt>0</asrwt>
<pdfrwt beam="1">  1        1 0.11570888E-01 0.20001425E+02</pdfrwt>
<pdfrwt beam="2">  1       -1 0.20458251E-03 0.20001425E+02</pdfrwt>
<totfact> 0.43103380E+06</totfact>
</mgrwt>
</event>
<event>
 5    1  0.2115795E-006  0.2000193E+02  0.7818608E-02  0.1745290E+00
         -1   -1    0    0    0  501 -0.00000000000E+00  0.00000000000E+00  0.29488985074E+02  0.29488985444E+02  0.46700000000E-02 0. -1.
          1   -1    0    0  501    0  0.00000000000E+00 -0.00000000000E+00 -0.33917506818E+01  0.33917538968E+01  0.46700000000E-02 0.  1.
       1023    2    1    2    0    0  0.00000000000E+00  0.00000000000E+00  0.26097234393E+02  0.32880739341E+02  0.20001934323E+02 0.  0.
        -13    1    3    3    0    0 -0.95642158932E+01 -0.29204880987E+01  0.12935975092E+02  0.16350966346E+02  0.10570000000E+00 0.  1.
         13    1    3    3    0    0  0.95642158932E+01  0.29204880987E+01  0.13161259301E+02  0.16529772995E+02  0.10570000000E+00 0. -1.
<mgrwt>
<rscale>  0 0.20001934E+02</rscale>
<asrwt>0</asrwt>
<pdfrwt beam="2">  1        1 0.52180806E-03 0.20001934E+02</pdfrwt>
<pdfrwt beam="1">  1       -1 0.45367673E-02 0.20001934E+02</pdfrwt>
<totfact> 0.36522995E+06</totfact>
</mgrwt>
</event>
<event>
 5    1  0.2115795E-006  0.2000144E+02  0.7818608E-02  0.1745299E+00
         -1   -1    0    0    0  501 -0.00000000000E+00  0.00000000000E+00  0.11844562864E+02  0.11844563785E+02  0.46700000000E-02 0. -1.
          1   -1    0    0  501    0  0.00000000000E+00 -0.00000000000E+00 -0.84439070878E+01  0.84439083792E+01  0.46700000000E-02 0.  1.
       1023    2    1    2    0    0  0.00000000000E+00  0.00000000000E+00  0.34006557763E+01  0.20288472164E+02  0.20001441024E+02 0.  0.
        -13    1    3    3    0    0  0.99620486924E+01  0.87221165582E+00  0.17088717837E+01  0.10145668168E+02  0.10570000000E+00 0. -1.
         13    1    3    3    0    0 -0.99620486924E+01 -0.87221165582E+00  0.16917839926E+01  0.10142803995E+02  0.10570000000E+00 0.  1.
<mgrwt>
<rscale>  0 0.20001441E+02</rscale>
<asrwt>0</asrwt>
<pdfrwt beam="2">  1        1 0.12990628E-02 0.20001441E+02</pdfrwt>
<pdfrwt beam="1">  1       -1 0.18222406E-02 0.20001441E+02</pdfrwt>
<totfact> 0.38350803E+06</totfact>
</mgrwt>
</event>
<event>
 5    1  0.2115795E-006  0.2000155E+02  0.7818608E-02  0.1745297E+00
         -1   -1    0    0    0  501 -0.00000000000E+00  0.00000000000E+00  0.10249439483E+01  0.10249545873E+01  0.46700000000E-02 0. -1.
          1   -1    0    0  501    0  0.00000000000E+00 -0.00000000000E+00 -0.97580873787E+02  0.97580873899E+02  0.46700000000E-02 0.  1.
       1023    2    1    2    0    0  0.00000000000E+00  0.00000000000E+00 -0.96555929839E+02  0.98605828486E+02  0.20001545550E+02 0.  0.
        -13    1    3    3    0    0 -0.95384814201E+01  0.30035184328E+01 -0.48164166987E+02  0.49191482035E+02  0.10570000000E+00 0.  1.
         13    1    3    3    0    0  0.95384814201E+01 -0.30035184328E+01 -0.48391762853E+02  0.49414346452E+02  0.10570000000E+00 0. -1.
<mgrwt>
<rscale>  0 0.20001546E+02</rscale>
<asrwt>0</asrwt>
<pdfrwt beam="2">  1        1 0.15012436E-01 0.20001546E+02</pdfrwt>
<pdfrwt beam="1">  1       -1 0.15768459E-03 0.20001546E+02</pdfrwt>
<totfact> 0.44235335E+06</totfact>
</mgrwt>
</event>
<event>
 5    1  0.2115795E-006  0.2000884E+02  0.7818608E-02  0.1745152E+00
          1   -1    0    0  501    0  0.00000000000E+00  0.00000000000E+00  0.12725991686E+02  0.12725992542E+02  0.46700000000E-02 0.  1.
         -1   -1    0    0    0  501 -0.00000000000E+00 -0.00000000000E+00 -0.78648762622E+01  0.78648776487E+01  0.46700000000E-02 0. -1.
       1023    2    1    2    0    0  0.00000000000E+00  0.00000000000E+00  0.48611154234E+01  0.20590870191E+02  0.20008835350E+02 0.  0.
        -13    1    3    3    0    0 -0.24538767697E+01 -0.96956539077E+01  0.26606336113E+01  0.10349751669E+02  0.10570000000E+00 0.  1.
         13    1    3    3    0    0  0.24538767697E+01  0.96956539077E+01  0.22004818120E+01  0.10241118523E+02  0.10570000000E+00 0. -1.
<mgrwt>
<rscale>  0 0.20008835E+02</rscale>
<asrwt>0</asrwt>
<pdfrwt beam="1">  1        1 0.19578450E-02 0.20008835E+02</pdfrwt>
<pdfrwt beam="2">  1       -1 0.12099811E-02 0.20008835E+02</pdfrwt>
<totfact> 0.38954064E+06</totfact>
</mgrwt>
</event>
<event>
 5    1  0.2115795E-006  0.2000134E+02  0.7818608E-02  0.1745301E+00
          1   -1    0    0  501    0  0.00000000000E+00  0.00000000000E+00  0.23944669986E+02  0.23944670442E+02  0.46700000000E-02 0. -1.
         -1   -1    0    0    0  501 -0.00000000000E+00 -0.00000000000E+00 -0.41768516514E+01  0.41768542621E+01  0.46700000000E-02 0.  1.
       1023    2    1    2    0    0  0.00000000000E+00  0.00000000000E+00  0.19767818335E+02  0.28121524704E+02  0.20001337704E+02 0.  0.
        -13    1    3    3    0    0  0.82385864064E+01 -0.56680636474E+01  0.99273244119E+01  0.14091280778E+02  0.10570000000E+00 0. -1.
         13    1    3    3    0    0 -0.82385864064E+01  0.56680636474E+01  0.98404939228E+01  0.14030243926E+02  0.10570000000E+00 0.  1.
<mgrwt>
<rscale>  0 0.20001338E+02</rscale>
<asrwt>0</asrwt>
<pdfrwt beam="1">  1        1 0.36837957E-02 0.20001338E+02</pdfrwt>
<pdfrwt beam="2">  1       -1 0.64259279E-03 0.20001338E+02</pdfrwt>
<totfact> 0.40013929E+06</totfact>
</mgrwt>
</event>
<event>
 4    1  0.2115795E-006  0.2001468E+02  0.7818608E-02  0.1745036E+00
          1   -1    0    0  501    0  0.00000000000E+00  0.00000000000E+00  0.29027856179E+02  0.29027856555E+02  0.46700000000E-02 0.  1.
         -1   -1    0    0    0  501 -0.00000000000E+00 -0.00000000000E+00 -0.34500243079E+01  0.34500274686E+01  0.46700000000E-02 0. -1.
        -13    1    1    2    0    0  0.72868984888E+00 -0.99773371624E+01  0.12399979332E+02  0.15932636495E+02  0.10570000000E+00 0.  1.
         13    1    1    2    0    0 -0.72868984888E+00  0.99773371624E+01  0.13177852539E+02  0.16545247528E+02  0.10570000000E+00 0. -1.
<mgrwt>
<rscale>  0 0.20014681E+02</rscale>
<asrwt>0</asrwt>
<pdfrwt beam="1">  1        1 0.44658245E-02 0.20014681E+02</pdfrwt>
<pdfrwt beam="2">  1       -1 0.53077321E-03 0.20014681E+02</pdfrwt>
<totfact> 0.40323145E+06</totfact>
</mgrwt>
</event>
<event>
 5    1  0.2115795E-006  0.2000319E+02  0.7818608E-02  0.1745265E+00
         -1   -1    0    0    0  501 -0.00000000000E+00  0.00000000000E+00  0.41777632161E+01  0.41777658262E+01  0.46700000000E-02 0. -1.
          1   -1    0    0  501    0  0.00000000000E+00 -0.00000000000E+00 -0.23943870766E+02  0.23943871222E+02  0.46700000000E-02 0.  1.
       1023    2    1    2    0    0  0.00000000000E+00  0.00000000000E+00 -0.19766107550E+02  0.28121637048E+02  0.20003186311E+02 0.  0.
        -13    1    3    3    0    0 -0.84642003508E+01 -0.53270240795E+01 -0.99233121886E+01  0.14089115317E+02  0.10570000000E+00 0. -1.
         13    1    3    3    0    0  0.84642003508E+01  0.53270240795E+01 -0.98427953618E+01  0.14032521732E+02  0.10570000000E+00 0.  1.
<mgrwt>
<rscale>  0 0.20003186E+02</rscale>
<asrwt>0</asrwt>
<pdfrwt beam="2">  1        1 0.36836726E-02 0.20003186E+02</pdfrwt>
<pdfrwt beam="1">  1       -1 0.64273306E-03 0.20003186E+02</pdfrwt>
<totfact> 0.40005591E+06</totfact>
</mgrwt>
</event>
<event>
 5    1  0.2115795E-006  0.2000247E+02  0.7818608E-02  0.1745279E+00
         -1   -1    0    0    0  501 -0.00000000000E+00  0.00000000000E+00  0.10587648464E+01  0.10587751455E+01  0.46700000000E-02 0.  1.
          1   -1    0    0  501    0  0.00000000000E+00 -0.00000000000E+00 -0.94472562381E+02  0.94472562496E+02  0.46700000000E-02 0. -1.
       1023    2    1    2    0    0  0.00000000000E+00  0.00000000000E+00 -0.93413797534E+02  0.95531337642E+02  0.20002472393E+02 0.  0.
        -13    1    3    3    0    0 -0.11955562679E+01  0.99289464414E+01 -0.46777856984E+02  0.47835054183E+02  0.10570000000E+00 0.  1.
         13    1    3    3    0    0  0.11955562679E+01 -0.99289464414E+01 -0.46635940551E+02  0.47696283458E+02  0.10570000000E+00 0. -1.
<mgrwt>
<rscale>  0 0.20002472E+02</rscale>
<asrwt>0</asrwt>
<pdfrwt beam="2">  1        1 0.14534235E-01 0.20002472E+02</pdfrwt>
<pdfrwt beam="1">  1       -1 0.16288777E-03 0.20002472E+02</pdfrwt>
<totfact> 0.44078175E+06</totfact>
</mgrwt>
</event>
<event>
 5    1  0.2115795E-006  0.2000159E+02  0.7818608E-02  0.1745296E+00
         -1   -1    0    0    0  501 -0.00000000000E+00  0.00000000000E+00  0.88246742223E+02  0.88246742347E+02  0.46700000000E-02 0.  1.
          1   -1    0    0  501    0  0.00000000000E+00 -0.00000000000E+00 -0.11333617913E+01  0.11333714126E+01  0.46700000000E-02 0. -1.
       1023    2    1    2    0    0  0.00000000000E+00  0.00000000000E+00  0.87113380432E+02  0.89380113760E+02  0.20001592071E+02 0.  0.
        -13    1    3    3    0    0 -0.99998287227E+01  0.83900834422E-01  0.43707239375E+02  0.44836788022E+02  0.10570000000E+00 0. -1.
         13    1    3    3    0    0  0.99998287227E+01 -0.83900834422E-01  0.43406141057E+02  0.44543325738E+02  0.10570000000E+00 0.  1.
<mgrwt>
<rscale>  0 0.20001592E+02</rscale>
<asrwt>0</asrwt>
<pdfrwt beam="2">  1        1 0.17436411E-03 0.20001592E+02</pdfrwt>
<pdfrwt beam="1">  1       -1 0.13576422E-01 0.20001592E+02</pdfrwt>
<totfact> 0.32510497E+06</totfact>
</mgrwt>
</event>
<event>
 5    1  0.2115795E-006  0.2000443E+02  0.7818608E-02  0.1745240E+00
          1   -1    0    0  501    0  0.00000000000E+00  0.00000000000E+00  0.30674179253E+01  0.30674214802E+01  0.46700000000E-02 0.  1.
         -1   -1    0    0    0  501 -0.00000000000E+00 -0.00000000000E+00 -0.32615132032E+02  0.32615132366E+02  0.46700000000E-02 0. -1.
       1023    2    1    2    0    0  0.00000000000E+00  0.00000000000E+00 -0.29547714107E+02  0.35682553847E+02  0.20004430511E+02 0.  0.
        -13    1    3    3    0    0 -0.83342047239E+01 -0.55275058446E+01 -0.14516305045E+02  0.17628005386E+02  0.10570000000E+00 0.  1.
         13    1    3    3    0    0  0.83342047239E+01  0.55275058446E+01 -0.15031409062E+02  0.18054548461E+02  0.10570000000E+00 0. -1.
<mgrwt>
<rscale>  0 0.20004431E+02</rscale>
<asrwt>0</asrwt>
<pdfrwt beam="1">  1        1 0.47191077E-03 0.20004431E+02</pdfrwt>
<pdfrwt beam="2">  1       -1 0.50177127E-02 0.20004431E+02</pdfrwt>
<totfact> 0.36246710E+06</totfact>
</mgrwt>
</event>
<event>
 5    1  0.2115795E-006  0.2001215E+02  0.7818608E-02  0.1745087E+00
         -1   -1    0    0    0  501 -0.00000000000E+00  0.00000000000E+00  0.35367676351E+01  0.35367707183E+01  0.46700000000E-02 0. -1.
          1   -1    0    0  501    0  0.00000000000E+00 -0.00000000000E+00 -0.28308741000E+02  0.28308741385E+02  0.46700000000E-02 0.  1.
       1023    2    1    2    0    0  0.00000000000E+00  0.00000000000E+00 -0.24771973364E+02  0.31845512103E+02  0.20012145730E+02 0.  0.
        -13    1    3    3    0    0 -0.73147421593E+01 -0.68267532907E+01 -0.12413929709E+02  0.15944492361E+02  0.10570000000E+00 0.  1.
         13    1    3    3    0    0  0.73147421593E+01  0.68267532907E+01 -0.12358043656E+02  0.15901019742E+02  0.10570000000E+00 0. -1.
<mgrwt>
<rscale>  0 0.20012146E+02</rscale>
<asrwt>0</asrwt>
<pdfrwt beam="2">  1        1 0.43551911E-02 0.20012146E+02</pdfrwt>
<pdfrwt beam="1">  1       -1 0.54411838E-03 0.20012146E+02</pdfrwt>
<totfact> 0.40284192E+06</totfact>
</mgrwt>
</event>
<event>
 5    1  0.2115795E-006  0.2000396E+02  0.7818608E-02  0.1745249E+00
          1   -1    0    0  501    0  0.00000000000E+00  0.00000000000E+00  0.70013226519E+01  0.70013242094E+01  0.46700000000E-02 0.  1.
         -1   -1    0    0    0  501 -0.00000000000E+00 -0.00000000000E+00 -0.14288668538E+02  0.14288669301E+02  0.46700000000E-02 0. -1.
       1023    2    1    2    0    0  0.00000000000E+00  0.00000000000E+00 -0.72873458864E+01  0.21289993511E+02  0.20003959949E+02 0.  0.
        -13    1    3    3    0    0 -0.62415930559E+01 -0.78134247737E+01 -0.37991478391E+01  0.10698214214E+02  0.10570000000E+00 0. -1.
         13    1    3    3    0    0  0.62415930559E+01  0.78134247737E+01 -0.34881980473E+01  0.10591779297E+02  0.10570000000E+00 0.  1.
<mgrwt>
<rscale>  0 0.20003960E+02</rscale>
<asrwt>0</asrwt>
<pdfrwt beam="1">  1        1 0.10771267E-02 0.20003960E+02</pdfrwt>
<pdfrwt beam="2">  1       -1 0.21982569E-02 0.20003960E+02</pdfrwt>
<totfact> 0.38027979E+06</totfact>
</mgrwt>
</event>
<event>
 5    1  0.2115795E-006  0.2000145E+02  0.7818608E-02  0.1745299E+00
         -1   -1    0    0    0  501 -0.00000000000E+00  0.00000000000E+00  0.10701752716E+02  0.10701753735E+02  0.46700000000E-02 0.  1.
          1   -1    0    0  501    0  0.00000000000E+00 -0.00000000000E+00 -0.93456152157E+01  0.93456163825E+01  0.46700000000E-02 0. -1.
       1023    2    1    2    0    0  0.00000000000E+00  0.00000000000E+00  0.13561375007E+01  0.20047370118E+02  0.20001448441E+02 0.  0.
        -13    1    3    3    0    0  0.92453436863E+01  0.38114212987E+01  0.67856572290E+00  0.10023718677E+02  0.10570000000E+00 0.  1.
         13    1    3    3    0    0 -0.92453436863E+01 -0.38114212987E+01  0.67757177776E+00  0.10023651440E+02  0.10570000000E+00 0. -1.
<mgrwt>
<rscale>  0 0.20001448E+02</rscale>
<asrwt>0</asrwt>
<pdfrwt beam="2">  1        1 0.14377871E-02 0.20001448E+02</pdfrwt>
<pdfrwt beam="1">  1       -1 0.16464237E-02 0.20001448E+02</pdfrwt>
<totfact> 0.38512117E+06</totfact>
</mgrwt>
</event>
<event>
 5    1  0.2115795E-006  0.2001093E+02  0.7818608E-02  0.1745111E+00
          1   -1    0    0  501    0  0.00000000000E+00  0.00000000000E+00  0.29200093343E+01  0.29200130687E+01  0.46700000000E-02 0.  1.
         -1   -1    0    0    0  501 -0.00000000000E+00 -0.00000000000E+00 -0.34283888960E+02  0.34283889278E+02  0.46700000000E-02 0. -1.
       1023    2    1    2    0    0  0.00000000000E+00  0.00000000000E+00 -0.31363879626E+02  0.37203902347E+02  0.20010932129E+02 0.  0.
        -13    1    3    3    0    0 -0.60961529484E+01 -0.79289620783E+01 -0.16161947483E+02  0.19006610412E+02  0.10570000000E+00 0.  1.
         13    1    3    3    0    0  0.60961529484E+01  0.79289620783E+01 -0.15201932142E+02  0.18197291935E+02  0.10570000000E+00 0. -1.
<mgrwt>
<rscale>  0 0.20010932E+02</rscale>
<asrwt>0</asrwt>
<pdfrwt beam="1">  1        1 0.44923254E-03 0.20010932E+02</pdfrwt>
<pdfrwt beam="2">  1       -1 0.52744445E-02 0.20010932E+02</pdfrwt>
<totfact> 0.36082790E+06</totfact>
</mgrwt>
</event>
<event>
 4    1  0.2115795E-006  0.2025229E+02  0.7818608E-02  0.1740357E+00
          1   -1    0    0  501    0  0.00000000000E+00  0.00000000000E+00  0.40484074755E+01  0.40484101690E+01  0.46700000000E-02 0.  1.
         -1   -1    0    0    0  501 -0.00000000000E+00 -0.00000000000E+00 -0.25328179303E+02  0.25328179734E+02  0.46700000000E-02 0. -1.
        -13    1    1    2    0    0  0.38207620728E+01 -0.92667670948E+01 -0.85597666476E+01  0.13181501157E+02  0.10570000000E+00 0.  1.
         13    1    1    2    0    0 -0.38207620728E+01  0.92667670948E+01 -0.12720005180E+02  0.16195088745E+02  0.10570000000E+00 0. -1.
<mgrwt>
<rscale>  0 0.20252292E+02</rscale>
<asrwt>0</asrwt>
<pdfrwt beam="1">  1        1 0.62283218E-03 0.20252292E+02</pdfrwt>
<pdfrwt beam="2">  1       -1 0.38966431E-02 0.20252292E+02</pdfrwt>
<totfact> 0.35898107E+06</totfact>
</mgrwt>
</event>
<event>
 4    1  0.2115795E-006  0.2001794E+02  0.7818608E-02  0.1744972E+00
         -1   -1    0    0    0  501 -0.00000000000E+00  0.00000000000E+00  0.56244184935E+01  0.56244204323E+01  0.46700000000E-02 0. -1.
          1   -1    0    0  501    0  0.00000000000E+00 -0.00000000000E+00 -0.17811524580E+02  0.17811525192E+02  0.46700000000E-02 0.  1.
        -13    1    1    2    0    0 -0.77765543231E+01 -0.63001394866E+01 -0.60442848050E+01  0.11692352457E+02  0.10570000000E+00 0. -1.
         13    1    1    2    0    0  0.77765543231E+01  0.63001394866E+01 -0.61428212815E+01  0.11743593167E+02  0.10570000000E+00 0.  1.
<mgrwt>
<rscale>  0 0.20017942E+02</rscale>
<asrwt>0</asrwt>
<pdfrwt beam="2">  1        1 0.27402347E-02 0.20017942E+02</pdfrwt>
<pdfrwt beam="1">  1       -1 0.86529536E-03 0.20017942E+02</pdfrwt>
<totfact> 0.39435976E+06</totfact>
</mgrwt>
</event>
<event>
 5    1  0.2115795E-006  0.2000131E+02  0.7818608E-02  0.1745302E+00
          1   -1    0    0  501    0  0.00000000000E+00  0.00000000000E+00  0.24369125421E+02  0.24369125868E+02  0.46700000000E-02 0. -1.
         -1   -1    0    0    0  501 -0.00000000000E+00 -0.00000000000E+00 -0.41040899805E+01  0.41040926375E+01  0.46700000000E-02 0.  1.
       1023    2    1    2    0    0  0.00000000000E+00  0.00000000000E+00  0.20265035440E+02  0.28473218506E+02  0.20001312724E+02 0.  0.
        -13    1    3    3    0    0 -0.51122255341E+01  0.85945952932E+01  0.10141178587E+02  0.14242773388E+02  0.10570000000E+00 0. -1.
         13    1    3    3    0    0  0.51122255341E+01 -0.85945952932E+01  0.10123856853E+02  0.14230445118E+02  0.10570000000E+00 0.  1.
<mgrwt>
<rscale>  0 0.20001313E+02</rscale>
<asrwt>0</asrwt>
<pdfrwt beam="1">  1        1 0.37490964E-02 0.20001313E+02</pdfrwt>
<pdfrwt beam="2">  1       -1 0.63139870E-03 0.20001313E+02</pdfrwt>
<totfact> 0.40046176E+06</totfact>
</mgrwt>
</event>
<event>
 5    1  0.2115795E-006  0.2000169E+02  0.7818608E-02  0.1745294E+00
         -1   -1    0    0    0  501 -0.00000000000E+00  0.00000000000E+00  0.13533092328E+02  0.13533093134E+02  0.46700000000E-02 0. -1.
          1   -1    0    0  501    0  0.00000000000E+00 -0.00000000000E+00 -0.73905436411E+01  0.73905451166E+01  0.46700000000E-02 0.  1.
       1023    2    1    2    0    0  0.00000000000E+00  0.00000000000E+00  0.61425486874E+01  0.20923638251E+02  0.20001693260E+02 0.  0.
        -13    1    3    3    0    0 -0.99907765078E+01 -0.43553979524E+00  0.30934822591E+01  0.10468338699E+02  0.10570000000E+00 0.  1.
         13    1    3    3    0    0  0.99907765078E+01  0.43553979524E+00  0.30490664283E+01  0.10455299552E+02  0.10570000000E+00 0. -1.
<mgrwt>
<rscale>  0 0.20001693E+02</rscale>
<asrwt>0</asrwt>
<pdfrwt beam="2">  1        1 0.11370069E-02 0.20001693E+02</pdfrwt>
<pdfrwt beam="1">  1       -1 0.20820144E-02 0.20001693E+02</pdfrwt>
<totfact> 0.38130135E+06</totfact>
</mgrwt>
</event>
<event>
 5    1  0.2115795E-006  0.2000304E+02  0.7818608E-02  0.1745268E+00
         -1   -1    0    0    0  501 -0.00000000000E+00  0.00000000000E+00  0.67474023516E+01  0.67474039677E+01  0.46700000000E-02 0. -1.
          1   -1    0    0  501    0  0.00000000000E+00 -0.00000000000E+00 -0.14825012907E+02  0.14825013643E+02  0.46700000000E-02 0.  1.
       1023    2    1    2    0    0  0.00000000000E+00  0.00000000000E+00 -0.80776105555E+01  0.21572417610E+02  0.20003035001E+02 0.  0.
        -13    1    3    3    0    0 -0.95833755127E+01 -0.28586617723E+01 -0.39542547747E+01  0.10754549580E+02  0.10570000000E+00 0.  1.
         13    1    3    3    0    0  0.95833755127E+01  0.28586617723E+01 -0.41233557808E+01  0.10817868031E+02  0.10570000000E+00 0. -1.
<mgrwt>
<rscale>  0 0.20003035E+02</rscale>
<asrwt>0</asrwt>
<pdfrwt beam="2">  1        1 0.22807714E-02 0.20003035E+02</pdfrwt>
<pdfrwt beam="1">  1       -1 0.10380621E-02 0.20003035E+02</pdfrwt>
<totfact> 0.39213122E+06</totfact>
</mgrwt>
</event>
<event>
 5    1  0.2115795E-006  0.2000773E+02  0.7818608E-02  0.1745174E+00
         -1   -1    0    0    0  501 -0.00000000000E+00  0.00000000000E+00  0.11343731060E+01  0.11343827187E+01  0.46700000000E-02 0. -1.
          1   -1    0    0  501    0  0.00000000000E+00 -0.00000000000E+00 -0.88222204224E+02  0.88222204348E+02  0.46700000000E-02 0.  1.
       1023    2    1    2    0    0  0.00000000000E+00  0.00000000000E+00 -0.87087831118E+02  0.89356587067E+02  0.20007731588E+02 0.  0.
        -13    1    3    3    0    0  0.26354739128E+01  0.96494426944E+01 -0.43127554030E+02  0.44272503387E+02  0.10570000000E+00 0. -1.
         13    1    3    3    0    0 -0.26354739128E+01 -0.96494426944E+01 -0.43960277088E+02  0.45084083679E+02  0.10570000000E+00 0.  1.
<mgrwt>
<rscale>  0 0.20007732E+02</rscale>
<asrwt>0</asrwt>
<pdfrwt beam="2">  1        1 0.13572642E-01 0.20007732E+02</pdfrwt>
<pdfrwt beam="1">  1       -1 0.17451976E-03 0.20007732E+02</pdfrwt>
<totfact> 0.43741203E+06</totfact>
</mgrwt>
</event>
<event>
 4    1  0.2115795E-006  0.2017729E+02  0.7818608E-02  0.1741825E+00
         -1   -1    0    0    0  501 -0.00000000000E+00  0.00000000000E+00  0.83961331737E+00  0.83962630473E+00  0.46700000000E-02 0.  1.
          1   -1    0    0  501    0  0.00000000000E+00 -0.00000000000E+00 -0.12122238489E+03  0.12122238498E+03  0.46700000000E-02 0. -1.
        -13    1    1    2    0    0 -0.41902586254E+01 -0.91766174518E+01 -0.60380681373E+02  0.61217697039E+02  0.10570000000E+00 0. -1.
         13    1    1    2    0    0  0.41902586254E+01  0.91766174518E+01 -0.60002090195E+02  0.60844314241E+02  0.10570000000E+00 0.  1.
<mgrwt>
<rscale>  0 0.20177287E+02</rscale>
<asrwt>0</asrwt>
<pdfrwt beam="2">  1        1 0.18649585E-01 0.20177287E+02</pdfrwt>
<pdfrwt beam="1">  1       -1 0.12917238E-03 0.20177287E+02</pdfrwt>
<totfact> 0.44482413E+06</totfact>
</mgrwt>
</event>
<event>
 4    1  0.2115795E-006  0.2002406E+02  0.7818608E-02  0.1744850E+00
         -1   -1    0    0    0  501 -0.00000000000E+00  0.00000000000E+00  0.26945185034E+01  0.26945225503E+01  0.46700000000E-02 0. -1.
          1   -1    0    0  501    0  0.00000000000E+00 -0.00000000000E+00 -0.37201690254E+02  0.37201690547E+02  0.46700000000E-02 0.  1.
        -13    1    1    2    0    0  0.76380382098E+01  0.64701400924E+01 -0.16924889967E+02  0.19663809738E+02  0.10570000000E+00 0. -1.
         13    1    1    2    0    0 -0.76380382098E+01 -0.64701400924E+01 -0.17582281783E+02  0.20232403360E+02  0.10570000000E+00 0.  1.
<mgrwt>
<rscale>  0 0.20024058E+02</rscale>
<asrwt>0</asrwt>
<pdfrwt beam="2">  1        1 0.57233369E-02 0.20024058E+02</pdfrwt>
<pdfrwt beam="1">  1       -1 0.41454167E-03 0.20024058E+02</pdfrwt>
<totfact> 0.40823955E+06</totfact>
</mgrwt>
</event>
<event>
 4    1  0.2115795E-006  0.2002222E+02  0.7818608E-02  0.1744887E+00
         -1   -1    0    0    0  501 -0.00000000000E+00  0.00000000000E+00  0.14904081104E+01  0.14904154268E+01  0.46700000000E-02 0. -1.
          1   -1    0    0  501    0  0.00000000000E+00 -0.00000000000E+00 -0.67244696343E+02  0.67244696505E+02  0.46700000000E-02 0.  1.
        -13    1    1    2    0    0 -0.99024312623E+01 -0.14538636734E+01 -0.32196928888E+02  0.33716839513E+02  0.10570000000E+00 0. -1.
         13    1    1    2    0    0  0.99024312623E+01  0.14538636734E+01 -0.33557359344E+02  0.35018272418E+02  0.10570000000E+00 0.  1.
<mgrwt>
<rscale>  0 0.20022217E+02</rscale>
<asrwt>0</asrwt>
<pdfrwt beam="2">  1        1 0.10345336E-01 0.20022217E+02</pdfrwt>
<pdfrwt beam="1">  1       -1 0.22929418E-03 0.20022217E+02</pdfrwt>
<totfact> 0.42580458E+06</totfact>
</mgrwt>
</event>
<event>
 5    1  0.2115795E-006  0.2000596E+02  0.7818608E-02  0.1745210E+00
          1   -1    0    0  501    0  0.00000000000E+00  0.00000000000E+00  0.34267240638E+02  0.34267240956E+02  0.46700000000E-02 0.  1.
         -1   -1    0    0    0  501 -0.00000000000E+00 -0.00000000000E+00 -0.29199767737E+01  0.29199805082E+01  0.46700000000E-02 0. -1.
       1023    2    1    2    0    0  0.00000000000E+00  0.00000000000E+00  0.31347263864E+02  0.37187221464E+02  0.20005961323E+02 0.  0.
        -13    1    3    3    0    0 -0.19791573071E+01  0.98042933416E+01  0.15831554538E+02  0.18726732847E+02  0.10570000000E+00 0.  1.
         13    1    3    3    0    0  0.19791573071E+01 -0.98042933416E+01  0.15515709327E+02  0.18460488617E+02  0.10570000000E+00 0. -1.
<mgrwt>
<rscale>  0 0.20005961E+02</rscale>
<asrwt>0</asrwt>
<pdfrwt beam="1">  1        1 0.52718834E-02 0.20005961E+02</pdfrwt>
<pdfrwt beam="2">  1       -1 0.44922751E-03 0.20005961E+02</pdfrwt>
<totfact> 0.40716277E+06</totfact>
</mgrwt>
</event>
<event>
 5    1  0.2115795E-006  0.2000595E+02  0.7818608E-02  0.1745210E+00
         -1   -1    0    0    0  501 -0.00000000000E+00  0.00000000000E+00  0.11600918482E+01  0.11601012478E+01  0.46700000000E-02 0. -1.
          1   -1    0    0  501    0  0.00000000000E+00 -0.00000000000E+00 -0.86251003854E+02  0.86251003980E+02  0.46700000000E-02 0.  1.
       1023    2    1    2    0    0  0.00000000000E+00  0.00000000000E+00 -0.85090912006E+02  0.87411105228E+02  0.20005949396E+02 0.  0.
        -13    1    3    3    0    0  0.76986825892E+01  0.63848421057E+01 -0.42058759435E+02  0.43231774657E+02  0.10570000000E+00 0.  1.
         13    1    3    3    0    0 -0.76986825892E+01 -0.63848421057E+01 -0.43032152571E+02  0.44179330571E+02  0.10570000000E+00 0. -1.
<mgrwt>
<rscale>  0 0.20005949E+02</rscale>
<asrwt>0</asrwt>
<pdfrwt beam="2">  1        1 0.13269381E-01 0.20005949E+02</pdfrwt>
<pdfrwt beam="1">  1       -1 0.17847647E-03 0.20005949E+02</pdfrwt>
<totfact> 0.43650270E+06</totfact>
</mgrwt>
</event>
<event>
 5    1  0.2115795E-006  0.2000333E+02  0.7818608E-02  0.1745262E+00
          1   -1    0    0  501    0  0.00000000000E+00  0.00000000000E+00  0.14664369196E+01  0.14664443556E+01  0.46700000000E-02 0. -1.
         -1   -1    0    0    0  501 -0.00000000000E+00 -0.00000000000E+00 -0.68215019867E+02  0.68215020027E+02  0.46700000000E-02 0.  1.
       1023    2    1    2    0    0  0.00000000000E+00  0.00000000000E+00 -0.66748582947E+02  0.69681464382E+02  0.20003328548E+02 0.  0.
        -13    1    3    3    0    0 -0.21664693418E+01  0.97635545282E+01 -0.33238063807E+02  0.34710238325E+02  0.10570000000E+00 0. -1.
         13    1    3    3    0    0  0.21664693418E+01 -0.97635545282E+01 -0.33510519140E+02  0.34971226057E+02  0.10570000000E+00 0.  1.
<mgrwt>
<rscale>  0 0.20003329E+02</rscale>
<asrwt>0</asrwt>
<pdfrwt beam="1">  1        1 0.22560632E-03 0.20003329E+02</pdfrwt>
<pdfrwt beam="2">  1       -1 0.10494617E-01 0.20003329E+02</pdfrwt>
<totfact> 0.33700015E+06</totfact>
</mgrwt>
</event>
<event>
 5    1  0.2115795E-006  0.2000304E+02  0.7818608E-02  0.1745268E+00
         -1   -1    0    0    0  501 -0.00000000000E+00  0.00000000000E+00  0.21342977385E+01  0.21343028476E+01  0.46700000000E-02 0. -1.
          1   -1    0    0  501    0  0.00000000000E+00 -0.00000000000E+00 -0.46868009989E+02  0.46868010222E+02  0.46700000000E-02 0.  1.
       1023    2    1    2    0    0  0.00000000000E+00  0.00000000000E+00 -0.44733712251E+02  0.49002313069E+02  0.20003041630E+02 0.  0.
        -13    1    3    3    0    0  0.96830114305E+01 -0.25016234761E+01 -0.22316906636E+02  0.24455558155E+02  0.10570000000E+00 0.  1.
         13    1    3    3    0    0 -0.96830114305E+01  0.25016234761E+01 -0.22416805614E+02  0.24546754914E+02  0.10570000000E+00 0. -1.
<mgrwt>
<rscale>  0 0.20003042E+02</rscale>
<asrwt>0</asrwt>
<pdfrwt beam="2">  1        1 0.72104627E-02 0.20003042E+02</pdfrwt>
<pdfrwt beam="1">  1       -1 0.32835394E-03 0.20003042E+02</pdfrwt>
<totfact> 0.41515535E+06</totfact>
</mgrwt>
</event>
<event>
 5    1  0.2115795E-006  0.2000596E+02  0.7818608E-02  0.1745210E+00
          1   -1    0    0  501    0  0.00000000000E+00  0.00000000000E+00  0.84424377487E+00  0.84425669101E+00  0.46700000000E-02 0. -1.
         -1   -1    0    0    0  501 -0.00000000000E+00 -0.00000000000E+00 -0.11851889546E+03  0.11851889556E+03  0.46700000000E-02 0.  1.
       1023    2    1    2    0    0  0.00000000000E+00  0.00000000000E+00 -0.11767465169E+03  0.11936315225E+03  0.20005960716E+02 0.  0.
        -13    1    3    3    0    0  0.43036487740E+01 -0.90269408234E+01 -0.57623491537E+02  0.58484912608E+02  0.10570000000E+00 0. -1.
         13    1    3    3    0    0 -0.43036487740E+01  0.90269408234E+01 -0.60051160152E+02  0.60878239639E+02  0.10570000000E+00 0.  1.
<mgrwt>
<rscale>  0 0.20005961E+02</rscale>
<asrwt>0</asrwt>
<pdfrwt beam="1">  1        1 0.12988475E-03 0.20005961E+02</pdfrwt>
<pdfrwt beam="2">  1       -1 0.18233664E-01 0.20005961E+02</pdfrwt>
<totfact> 0.30889931E+06</totfact>
</mgrwt>
</event>
<event>
 5    1  0.2115795E-006  0.2000306E+02  0.7818608E-02  0.1745267E+00
         -1   -1    0    0    0  501 -0.00000000000E+00  0.00000000000E+00  0.88410642305E+01  0.88410654639E+01  0.46700000000E-02 0. -1.
          1   -1    0    0  501    0  0.00000000000E+00 -0.00000000000E+00 -0.11314310095E+02  0.11314311059E+02  0.46700000000E-02 0.  1.
       1023    2    1    2    0    0  0.00000000000E+00  0.00000000000E+00 -0.24732458648E+01  0.20155376523E+02  0.20003056208E+02 0.  0.
        -13    1    3    3    0    0  0.71012146386E+01 -0.70419721169E+01 -0.11835790222E+01  0.10071179297E+02  0.10570000000E+00 0.  1.
         13    1    3    3    0    0 -0.71012146386E+01  0.70419721169E+01 -0.12896668426E+01  0.10084197226E+02  0.10570000000E+00 0. -1.
<mgrwt>
<rscale>  0 0.20003056E+02</rscale>
<asrwt>0</asrwt>
<pdfrwt beam="2">  1        1 0.17406633E-02 0.20003056E+02</pdfrwt>
<pdfrwt beam="1">  1       -1 0.13601639E-02 0.20003056E+02</pdfrwt>
<totfact> 0.38800357E+06</totfact>
</mgrwt>
</event>
<event>
 5    1  0.2115795E-006  0.2000221E+02  0.7818608E-02  0.1745284E+00
         -1   -1    0    0    0  501 -0.00000000000E+00  0.00000000000E+00  0.25107507965E+02  0.25107508400E+02  0.46700000000E-02 0.  1.
          1   -1    0    0  501    0  0.00000000000E+00 -0.00000000000E+00 -0.39837510278E+01  0.39837537650E+01  0.46700000000E-02 0. -1.
       1023    2    1    2    0    0  0.00000000000E+00  0.00000000000E+00  0.21123756937E+02  0.29091262165E+02  0.20002210557E+02 0.  0.
        -13    1    3    3    0    0 -0.84543261883E+01  0.53414692026E+01  0.10653975138E+02  0.14612504346E+02  0.10570000000E+00 0. -1.
         13    1    3    3    0    0  0.84543261883E+01 -0.53414692026E+01  0.10469781800E+02  0.14478757819E+02  0.10570000000E+00 0.  1.
<mgrwt>
<rscale>  0 0.20002211E+02</rscale>
<asrwt>0</asrwt>
<pdfrwt beam="2">  1        1 0.61288502E-03 0.20002211E+02</pdfrwt>
<pdfrwt beam="1">  1       -1 0.38626938E-02 0.20002211E+02</pdfrwt>
<totfact> 0.36913857E+06</totfact>
</mgrwt>
</event>
<event>
 5    1  0.2115795E-006  0.2000870E+02  0.7818608E-02  0.1745155E+00
          1   -1    0    0  501    0  0.00000000000E+00  0.00000000000E+00  0.30369632300E+01  0.30369668206E+01  0.46700000000E-02 0.  1.
         -1   -1    0    0    0  501 -0.00000000000E+00 -0.00000000000E+00 -0.32956252526E+02  0.32956252857E+02  0.46700000000E-02 0. -1.
       1023    2    1    2    0    0  0.00000000000E+00  0.00000000000E+00 -0.29919289296E+02  0.35993219677E+02  0.20008697878E+02 0.  0.
        -13    1    3    3    0    0 -0.41443831537E+01  0.91037386642E+01 -0.14693703626E+02  0.17775546915E+02  0.10570000000E+00 0.  1.
         13    1    3    3    0    0  0.41443831537E+01 -0.91037386642E+01 -0.15225585669E+02  0.18217672762E+02  0.10570000000E+00 0. -1.
<mgrwt>
<rscale>  0 0.20008698E+02</rscale>
<asrwt>0</asrwt>
<pdfrwt beam="1">  1        1 0.46722544E-03 0.20008698E+02</pdfrwt>
<pdfrwt beam="2">  1       -1 0.50701927E-02 0.20008698E+02</pdfrwt>
<totfact> 0.36201270E+06</totfact>
</mgrwt>
</event>
<event>
 5    1  0.2115795E-006  0.2000149E+02  0.7818608E-02  0.1745298E+00
         -1   -1    0    0    0  501 -0.00000000000E+00  0.00000000000E+00  0.93048026114E+00  0.93049198023E+00  0.46700000000E-02 0. -1.
          1   -1    0    0  501    0  0.00000000000E+00 -0.00000000000E+00 -0.10748670982E+03  0.10748670992E+03  0.46700000000E-02 0.  1.
       1023    2    1    2    0    0  0.00000000000E+00  0.00000000000E+00 -0.10655622956E+03  0.10841720190E+03  0.20001490204E+02 0.  0.
        -13    1    3    3    0    0 -0.32296424544E+01  0.94642346245E+01 -0.53075104724E+02  0.54009075546E+02  0.10570000000E+00 0. -1.
         13    1    3    3    0    0  0.32296424544E+01 -0.94642346245E+01 -0.53481124834E+02  0.54408126355E+02  0.10570000000E+00 0.  1.
<mgrwt>
<rscale>  0 0.20001490E+02</rscale>
<asrwt>0</asrwt>
<pdfrwt beam="2">  1        1 0.16536408E-01 0.20001490E+02</pdfrwt>
<pdfrwt beam="1">  1       -1 0.14315180E-03 0.20001490E+02</pdfrwt>
<totfact> 0.44711870E+06</totfact>
</mgrwt>
</event>
<event>
 5    1  0.2115795E-006  0.2000370E+02  0.7818608E-02  0.1745255E+00
         -1   -1    0    0    0  501 -0.00000000000E+00  0.00000000000E+00  0.47036186334E+01  0.47036209517E+01  0.46700000000E-02 0.  1.
          1   -1    0    0  501    0  0.00000000000E+00 -0.00000000000E+00 -0.21268078764E+02  0.21268079277E+02  0.46700000000E-02 0. -1.
       1023    2    1    2    0    0  0.00000000000E+00  0.00000000000E+00 -0.16564460131E+02  0.25971700229E+02  0.20003696492E+02 0.  0.
        -13    1    3    3    0    0  0.64405120061E+01 -0.76514919487E+01 -0.82608209891E+01  0.12972195645E+02  0.10570000000E+00 0.  1.
         13    1    3    3    0    0 -0.64405120061E+01  0.76514919487E+01 -0.83036391418E+01  0.12999504584E+02  0.10570000000E+00 0. -1.
<mgrwt>
<rscale>  0 0.20003696E+02</rscale>
<asrwt>0</asrwt>
<pdfrwt beam="2">  1        1 0.32720123E-02 0.20003696E+02</pdfrwt>
<pdfrwt beam="1">  1       -1 0.72363387E-03 0.20003696E+02</pdfrwt>
<totfact> 0.39793802E+06</totfact>
</mgrwt>
</event>
<event>
 5    1  0.2115795E-006  0.2000162E+02  0.7818608E-02  0.1745296E+00
          1   -1    0    0  501    0  0.00000000000E+00  0.00000000000E+00  0.15769738306E+01  0.15769807454E+01  0.46700000000E-02 0.  1.
         -1   -1    0    0    0  501 -0.00000000000E+00 -0.00000000000E+00 -0.63422740363E+02  0.63422740535E+02  0.46700000000E-02 0. -1.
       1023    2    1    2    0    0  0.00000000000E+00  0.00000000000E+00 -0.61845766532E+02  0.64999721280E+02  0.20001623148E+02 0.  0.
        -13    1    3    3    0    0 -0.61326976984E+01  0.78990471789E+01 -0.30885511477E+02  0.32464302227E+02  0.10570000000E+00 0.  1.
         13    1    3    3    0    0  0.61326976984E+01 -0.78990471789E+01 -0.30960255055E+02  0.32535419053E+02  0.10570000000E+00 0. -1.
<mgrwt>
<rscale>  0 0.20001623E+02</rscale>
<asrwt>0</asrwt>
<pdfrwt beam="1">  1        1 0.24261195E-03 0.20001623E+02</pdfrwt>
<pdfrwt beam="2">  1       -1 0.97573432E-02 0.20001623E+02</pdfrwt>
<totfact> 0.34012636E+06</totfact>
</mgrwt>
</event>
<event>
 5    1  0.2115795E-006  0.2000573E+02  0.7818608E-02  0.1745214E+00
          1   -1    0    0  501    0  0.00000000000E+00  0.00000000000E+00  0.22177484324E+01  0.22177533493E+01  0.46700000000E-02 0. -1.
         -1   -1    0    0    0  501 -0.00000000000E+00 -0.00000000000E+00 -0.45116550491E+02  0.45116550733E+02  0.46700000000E-02 0.  1.
       1023    2    1    2    0    0  0.00000000000E+00  0.00000000000E+00 -0.42898802058E+02  0.47334304082E+02  0.20005727302E+02 0.  0.
        -13    1    3    3    0    0  0.97678156849E+01 -0.21527040167E+01 -0.21350397421E+02  0.23577425651E+02  0.10570000000E+00 0. -1.
         13    1    3    3    0    0 -0.97678156849E+01  0.21527040167E+01 -0.21548404638E+02  0.23756878431E+02  0.10570000000E+00 0.  1.
<mgrwt>
<rscale>  0 0.20005727E+02</rscale>
<asrwt>0</asrwt>
<pdfrwt beam="1">  1        1 0.34119249E-03 0.20005727E+02</pdfrwt>
<pdfrwt beam="2">  1       -1 0.69410075E-02 0.20005727E+02</pdfrwt>
<totfact> 0.35261707E+06</totfact>
</mgrwt>
</event>
<event>
 5    1  0.2115795E-006  0.2000698E+02  0.7818608E-02  0.1745189E+00
          1   -1    0    0  501    0  0.00000000000E+00  0.00000000000E+00  0.25420572453E+02  0.25420572882E+02  0.46700000000E-02 0.  1.
         -1   -1    0    0    0  501 -0.00000000000E+00 -0.00000000000E+00 -0.39365668926E+01  0.39365696627E+01  0.46700000000E-02 0. -1.
       1023    2    1    2    0    0  0.00000000000E+00  0.00000000000E+00  0.21484005561E+02  0.29357142545E+02  0.20006981868E+02 0.  0.
        -13    1    3    3    0    0  0.99961427553E+01 -0.35368555600E+00  0.10893750082E+02  0.14789622267E+02  0.10570000000E+00 0.  1.
         13    1    3    3    0    0 -0.99961427553E+01  0.35368555600E+00  0.10590255479E+02  0.14567520278E+02  0.10570000000E+00 0. -1.
<mgrwt>
<rscale>  0 0.20006982E+02</rscale>
<asrwt>0</asrwt>
<pdfrwt beam="1">  1        1 0.39108576E-02 0.20006982E+02</pdfrwt>
<pdfrwt beam="2">  1       -1 0.60562592E-03 0.20006982E+02</pdfrwt>
<totfact> 0.40099222E+06</totfact>
</mgrwt>
</event>
<event>
 4    1  0.2115795E-006  0.2002963E+02  0.7818608E-02  0.1744739E+00
          1   -1    0    0  501    0  0.00000000000E+00  0.00000000000E+00  0.12193009551E+02  0.12193010445E+02  0.46700000000E-02 0. -1.
         -1   -1    0    0    0  501 -0.00000000000E+00 -0.00000000000E+00 -0.82257409029E+01  0.82257422286E+01  0.46700000000E-02 0.  1.
        -13    1    1    2    0    0  0.51427797442E+01 -0.85860475798E+01  0.16349499623E+01  0.10141628588E+02  0.10570000000E+00 0.  1.
         13    1    1    2    0    0 -0.51427797442E+01  0.85860475798E+01  0.23323186856E+01  0.10277124086E+02  0.10570000000E+00 0. -1.
<mgrwt>
<rscale>  0 0.20029634E+02</rscale>
<asrwt>0</asrwt>
<pdfrwt beam="1">  1        1 0.18758478E-02 0.20029634E+02</pdfrwt>
<pdfrwt beam="2">  1       -1 0.12654988E-02 0.20029634E+02</pdfrwt>
<totfact> 0.38797812E+06</totfact>
</mgrwt>
</event>
<event>
 5    1  0.2115795E-006  0.2000307E+02  0.7818608E-02  0.1745267E+00
         -1   -1    0    0    0  501 -0.00000000000E+00  0.00000000000E+00  0.57051980657E+02  0.57051980848E+02  0.46700000000E-02 0.  1.
          1   -1    0    0  501    0  0.00000000000E+00 -0.00000000000E+00 -0.17533226444E+01  0.17533288637E+01  0.46700000000E-02 0. -1.
       1023    2    1    2    0    0  0.00000000000E+00  0.00000000000E+00  0.55298658012E+02  0.58805309712E+02  0.20003071572E+02 0.  0.
        -13    1    3    3    0    0  0.75216802818E+01  0.65898882922E+01  0.27263287389E+02  0.29039633499E+02  0.10570000000E+00 0. -1.
         13    1    3    3    0    0 -0.75216802818E+01 -0.65898882922E+01  0.28035370623E+02  0.29765676213E+02  0.10570000000E+00 0.  1.
<mgrwt>
<rscale>  0 0.20003072E+02</rscale>
<asrwt>0</asrwt>
<pdfrwt beam="2">  1        1 0.26974241E-03 0.20003072E+02</pdfrwt>
<pdfrwt beam="1">  1       -1 0.87772291E-02 0.20003072E+02</pdfrwt>
<totfact> 0.34428993E+06</totfact>
</mgrwt>
</event>
<event>
 5    1  0.2115795E-006  0.2000766E+02  0.7818608E-02  0.1745176E+00
          1   -1    0    0  501    0  0.00000000000E+00  0.00000000000E+00  0.41777247451E+02  0.41777247712E+02  0.46700000000E-02 0. -1.
         -1   -1    0    0    0  501 -0.00000000000E+00 -0.00000000000E+00 -0.23954798288E+01  0.23954843809E+01  0.46700000000E-02 0.  1.
       1023    2    1    2    0    0  0.00000000000E+00  0.00000000000E+00  0.39381767622E+02  0.44172732093E+02  0.20007664519E+02 0.  0.
        -13    1    3    3    0    0  0.38546581295E+00 -0.99957935057E+01  0.19620521929E+02  0.22023635598E+02  0.10570000000E+00 0.  1.
         13    1    3    3    0    0 -0.38546581295E+00  0.99957935057E+01  0.19761245693E+02  0.22149096495E+02  0.10570000000E+00 0. -1.
<mgrwt>
<rscale>  0 0.20007665E+02</rscale>
<asrwt>0</asrwt>
<pdfrwt beam="1">  1        1 0.64272692E-02 0.20007665E+02</pdfrwt>
<pdfrwt beam="2">  1       -1 0.36853573E-03 0.20007665E+02</pdfrwt>
<totfact> 0.41185610E+06</totfact>
</mgrwt>
</event>
<event>
 4    1  0.2115795E-006  0.2003952E+02  0.7818608E-02  0.1744543E+00
          1   -1    0    0  501    0  0.00000000000E+00  0.00000000000E+00  0.31450603346E+02  0.31450603692E+02  0.46700000000E-02 0. -1.
         -1   -1    0    0    0  501 -0.00000000000E+00 -0.00000000000E+00 -0.31921650962E+01  0.31921685122E+01  0.46700000000E-02 0.  1.
        -13    1    1    2    0    0  0.72546914332E+01  0.68910179710E+01  0.15023713237E+02  0.18051033444E+02  0.10570000000E+00 0. -1.
         13    1    1    2    0    0 -0.72546914332E+01 -0.68910179710E+01  0.13234725012E+02  0.16591738761E+02  0.10570000000E+00 0.  1.
<mgrwt>
<rscale>  0 0.20039519E+02</rscale>
<asrwt>0</asrwt>
<pdfrwt beam="1">  1        1 0.48385545E-02 0.20039519E+02</pdfrwt>
<pdfrwt beam="2">  1       -1 0.49110263E-03 0.20039519E+02</pdfrwt>
<totfact> 0.40377354E+06</totfact>
</mgrwt>
</event>
<event>
 5    1  0.2115795E-006  0.2000156E+02  0.7818608E-02  0.1745297E+00
         -1   -1    0    0    0  501 -0.00000000000E+00  0.00000000000E+00  0.60706027274E+01  0.60706045237E+01  0.46700000000E-02 0.  1.
          1   -1    0    0  501    0  0.00000000000E+00 -0.00000000000E+00 -0.16475388457E+02  0.16475389119E+02  0.46700000000E-02 0. -1.
       1023    2    1    2    0    0  0.00000000000E+00  0.00000000000E+00 -0.10404785729E+02  0.22545993642E+02  0.20001556521E+02 0.  0.
        -13    1    3    3    0    0  0.82631727034E+01 -0.56323093140E+01 -0.52454928837E+01  0.11292887116E+02  0.10570000000E+00 0.  1.
         13    1    3    3    0    0 -0.82631727034E+01  0.56323093140E+01 -0.51592928457E+01  0.11253106526E+02  0.10570000000E+00 0. -1.
<mgrwt>
<rscale>  0 0.20001557E+02</rscale>
<asrwt>0</asrwt>
<pdfrwt beam="2">  1        1 0.25346753E-02 0.20001557E+02</pdfrwt>
<pdfrwt beam="1">  1       -1 0.93393908E-03 0.20001557E+02</pdfrwt>
<totfact> 0.39384253E+06</totfact>
</mgrwt>
</event>
<event>
 4    1  0.2115795E-006  0.2001477E+02  0.7818608E-02  0.1745035E+00
          1   -1    0    0  501    0  0.00000000000E+00  0.00000000000E+00  0.65335534087E+02  0.65335534254E+02  0.46700000000E-02 0.  1.
         -1   -1    0    0    0  501 -0.00000000000E+00 -0.00000000000E+00 -0.15328185094E+01  0.15328256234E+01  0.46700000000E-02 0. -1.
        -13    1    1    2    0    0  0.94582580230E+01  0.32630374991E+01  0.32485100952E+02  0.33991160835E+02  0.10570000000E+00 0.  1.
         13    1    1    2    0    0 -0.94582580230E+01 -0.32630374991E+01  0.31317614626E+02  0.32877199043E+02  0.10570000000E+00 0. -1.
<mgrwt>
<rscale>  0 0.20014770E+02</rscale>
<asrwt>0</asrwt>
<pdfrwt beam="1">  1        1 0.10051621E-01 0.20014770E+02</pdfrwt>
<pdfrwt beam="2">  1       -1 0.23581880E-03 0.20014770E+02</pdfrwt>
<totfact> 0.42511824E+06</totfact>
</mgrwt>
</event>
<event>
 5    1  0.2115795E-006  0.2000159E+02  0.7818608E-02  0.1745296E+00
         -1   -1    0    0    0  501 -0.00000000000E+00  0.00000000000E+00  0.35116502106E+01  0.35116533158E+01  0.46700000000E-02 0.  1.
          1   -1    0    0  501    0  0.00000000000E+00 -0.00000000000E+00 -0.28481165266E+02  0.28481165649E+02  0.46700000000E-02 0. -1.
       1023    2    1    2    0    0  0.00000000000E+00  0.00000000000E+00 -0.24969515055E+02  0.31992818964E+02  0.20001594516E+02 0.  0.
        -13    1    3    3    0    0  0.24133343065E+00 -0.99972994880E+01 -0.12447780328E+02  0.15967549795E+02  0.10570000000E+00 0. -1.
         13    1    3    3    0    0 -0.24133343065E+00  0.99972994880E+01 -0.12521734727E+02  0.16025269169E+02  0.10570000000E+00 0.  1.
<mgrwt>
<rscale>  0 0.20001595E+02</rscale>
<asrwt>0</asrwt>
<pdfrwt beam="2">  1        1 0.43817178E-02 0.20001595E+02</pdfrwt>
<pdfrwt beam="1">  1       -1 0.54025417E-03 0.20001595E+02</pdfrwt>
<totfact> 0.40343830E+06</totfact>
</mgrwt>
</event>
<event>
 5    1  0.2115795E-006  0.2000265E+02  0.7818608E-02  0.1745275E+00
          1   -1    0    0  501    0  0.00000000000E+00  0.00000000000E+00  0.37427565523E+02  0.37427565815E+02  0.46700000000E-02 0. -1.
         -1   -1    0    0    0  501 -0.00000000000E+00 -0.00000000000E+00 -0.26725339489E+01  0.26725380290E+01  0.46700000000E-02 0.  1.
       1023    2    1    2    0    0  0.00000000000E+00  0.00000000000E+00  0.34755031575E+02  0.40100103844E+02  0.20002652537E+02 0.  0.
        -13    1    3    3    0    0  0.88984448011E+01 -0.45635834889E+01  0.17542106052E+02  0.20192703419E+02  0.10570000000E+00 0. -1.
         13    1    3    3    0    0 -0.88984448011E+01  0.45635834889E+01  0.17212925522E+02  0.19907400425E+02  0.10570000000E+00 0.  1.
<mgrwt>
<rscale>  0 0.20002653E+02</rscale>
<asrwt>0</asrwt>
<pdfrwt beam="1">  1        1 0.57580875E-02 0.20002653E+02</pdfrwt>
<pdfrwt beam="2">  1       -1 0.41115939E-03 0.20002653E+02</pdfrwt>
<totfact> 0.40935823E+06</totfact>
</mgrwt>
</event>
<event>
 5    1  0.2115795E-006  0.2001007E+02  0.7818608E-02  0.1745128E+00
          1   -1    0    0  501    0  0.00000000000E+00  0.00000000000E+00  0.11894138804E+01  0.11894230483E+01  0.46700000000E-02 0. -1.
         -1   -1    0    0    0  501 -0.00000000000E+00 -0.00000000000E+00 -0.84159354877E+02  0.84159355006E+02  0.46700000000E-02 0.  1.
       1023    2    1    2    0    0  0.00000000000E+00  0.00000000000E+00 -0.82969940996E+02  0.85348778055E+02  0.20010067628E+02 0.  0.
        -13    1    3    3    0    0  0.64836426776E+01 -0.76188772455E+01 -0.41774768039E+02  0.42956109345E+02  0.10570000000E+00 0.  1.
         13    1    3    3    0    0 -0.64836426776E+01  0.76188772455E+01 -0.41195172957E+02  0.42392668710E+02  0.10570000000E+00 0. -1.
<mgrwt>
<rscale>  0 0.20010068E+02</rscale>
<asrwt>0</asrwt>
<pdfrwt beam="1">  1        1 0.18298753E-03 0.20010068E+02</pdfrwt>
<pdfrwt beam="2">  1       -1 0.12947589E-01 0.20010068E+02</pdfrwt>
<totfact> 0.32714176E+06</totfact>
</mgrwt>
</event>
<event>
 5    1  0.2115795E-006  0.2000794E+02  0.7818608E-02  0.1745170E+00
         -1   -1    0    0    0  501 -0.00000000000E+00  0.00000000000E+00  0.34216188623E+01  0.34216220492E+01  0.46700000000E-02 0. -1.
          1   -1    0    0  501    0  0.00000000000E+00 -0.00000000000E+00 -0.29249135581E+02  0.29249135954E+02  0.46700000000E-02 0.  1.
       1023    2    1    2    0    0  0.00000000000E+00  0.00000000000E+00 -0.25827516719E+02  0.32670758003E+02  0.20007943639E+02 0.  0.
        -13    1    3    3    0    0  0.89674198332E+01  0.44274179762E+01 -0.12542724833E+02  0.16042062433E+02  0.10570000000E+00 0.  1.
         13    1    3    3    0    0 -0.89674198332E+01 -0.44274179762E+01 -0.13284791887E+02  0.16628695570E+02  0.10570000000E+00 0. -1.
<mgrwt>
<rscale>  0 0.20007944E+02</rscale>
<asrwt>0</asrwt>
<pdfrwt beam="2">  1        1 0.44998671E-02 0.20007944E+02</pdfrwt>
<pdfrwt beam="1">  1       -1 0.52640319E-03 0.20007944E+02</pdfrwt>
<totfact> 0.40368892E+06</totfact>
</mgrwt>
</event>
<event>
 5    1  0.2115795E-006  0.2000666E+02  0.7818608E-02  0.1745196E+00
         -1   -1    0    0    0  501 -0.00000000000E+00  0.00000000000E+00  0.10939965741E+02  0.10939966737E+02  0.46700000000E-02 0.  1.
          1   -1    0    0  501    0  0.00000000000E+00 -0.00000000000E+00 -0.91468828794E+01  0.91468840715E+01  0.46700000000E-02 0. -1.
       1023    2    1    2    0    0  0.00000000000E+00  0.00000000000E+00  0.17930828613E+01  0.20086850809E+02  0.20006659623E+02 0.  0.
        -13    1    3    3    0    0 -0.96267238691E+01 -0.27082838554E+01  0.67929266767E+00  0.10024032368E+02  0.10570000000E+00 0.  1.
         13    1    3    3    0    0  0.96267238691E+01  0.27082838554E+01  0.11137901936E+01  0.10062818441E+02  0.10570000000E+00 0. -1.
<mgrwt>
<rscale>  0 0.20006660E+02</rscale>
<asrwt>0</asrwt>
<pdfrwt beam="2">  1        1 0.14072129E-02 0.20006660E+02</pdfrwt>
<pdfrwt beam="1">  1       -1 0.16830718E-02 0.20006660E+02</pdfrwt>
<totfact> 0.38455560E+06</totfact>
</mgrwt>
</event>
<event>
 4    1  0.2115795E-006  0.2011542E+02  0.7818608E-02  0.1743043E+00
          1   -1    0    0  501    0  0.00000000000E+00  0.00000000000E+00  0.84859615048E+01  0.84859627898E+01  0.46700000000E-02 0.  1.
         -1   -1    0    0    0  501 -0.00000000000E+00 -0.00000000000E+00 -0.11920569459E+02  0.11920570373E+02  0.46700000000E-02 0. -1.
        -13    1    1    2    0    0 -0.55178144628E+01  0.83539373038E+01 -0.74860328550E+00  0.10040225311E+02  0.10570000000E+00 0. -1.
         13    1    1    2    0    0  0.55178144628E+01 -0.83539373038E+01 -0.26860046683E+01  0.10366307852E+02  0.10570000000E+00 0.  1.
<mgrwt>
<rscale>  0 0.20115419E+02</rscale>
<asrwt>0</asrwt>
<pdfrwt beam="1">  1        1 0.13055327E-02 0.20115419E+02</pdfrwt>
<pdfrwt beam="2">  1       -1 0.18339339E-02 0.20115419E+02</pdfrwt>
<totfact> 0.37866244E+06</totfact>
</mgrwt>
</event>
<event>
 5    1  0.2115795E-006  0.2000728E+02  0.7818608E-02  0.1745183E+00
          1   -1    0    0  501    0  0.00000000000E+00  0.00000000000E+00  0.30105299980E+02  0.30105300342E+02  0.46700000000E-02 0.  1.
         -1   -1    0    0    0  501 -0.00000000000E+00 -0.00000000000E+00 -0.33240901975E+01  0.33240934779E+01  0.46700000000E-02 0. -1.
       1023    2    1    2    0    0  0.00000000000E+00  0.00000000000E+00  0.26781209782E+02  0.33429393820E+02  0.20007278020E+02 0.  0.
        -13    1    3    3    0    0  0.30183950682E+01 -0.95366681570E+01  0.13301051929E+02  0.16642953561E+02  0.10570000000E+00 0. -1.
         13    1    3    3    0    0 -0.30183950682E+01  0.95366681570E+01  0.13480157853E+02  0.16786440258E+02  0.10570000000E+00 0.  1.
<mgrwt>
<rscale>  0 0.20007278E+02</rscale>
<asrwt>0</asrwt>
<pdfrwt beam="1">  1        1 0.46315850E-02 0.20007278E+02</pdfrwt>
<pdfrwt beam="2">  1       -1 0.51139876E-03 0.20007278E+02</pdfrwt>
<totfact> 0.40431068E+06</totfact>
</mgrwt>
</event>
<event>
 5    1  0.2115795E-006  0.2000169E+02  0.7818608E-02  0.1745294E+00
          1   -1    0    0  501    0  0.00000000000E+00  0.00000000000E+00  0.57124691403E+01  0.57124710491E+01  0.46700000000E-02 0.  1.
         -1   -1    0    0    0  501 -0.00000000000E+00 -0.00000000000E+00 -0.17508521484E+02  0.17508522106E+02  0.46700000000E-02 0. -1.
       1023    2    1    2    0    0  0.00000000000E+00  0.00000000000E+00 -0.11796052343E+02  0.23220993156E+02  0.20001691735E+02 0.  0.
        -13    1    3    3    0    0 -0.39773605940E+01  0.91751594188E+01 -0.59594350857E+01  0.11641691745E+02  0.10570000000E+00 0. -1.
         13    1    3    3    0    0  0.39773605940E+01 -0.91751594188E+01 -0.58366172576E+01  0.11579301411E+02  0.10570000000E+00 0.  1.
<mgrwt>
<rscale>  0 0.20001692E+02</rscale>
<asrwt>0</asrwt>
<pdfrwt beam="1">  1        1 0.87884161E-03 0.20001692E+02</pdfrwt>
<pdfrwt beam="2">  1       -1 0.26936189E-02 0.20001692E+02</pdfrwt>
<totfact> 0.37670797E+06</totfact>
</mgrwt>
</event>
<event>
 4    1  0.2115795E-006  0.2133523E+02  0.7818608E-02  0.1720009E+00
          1   -1    0    0  501    0  0.00000000000E+00  0.00000000000E+00  0.12631631209E+02  0.12631632072E+02  0.46700000000E-02 0.  1.
         -1   -1    0    0    0  501 -0.00000000000E+00 -0.00000000000E+00 -0.90089662171E+01  0.90089674275E+01  0.46700000000E-02 0. -1.
        -13    1    1    2    0    0 -0.39143654995E+01  0.97613727676E+01  0.36201498123E+01  0.11123098162E+02  0.10570000000E+00 0. -1.
         13    1    1    2    0    0  0.39143654995E+01 -0.97613727676E+01  0.25151796548E-02  0.10517501338E+02  0.10570000000E+00 0.  1.
<mgrwt>
<rscale>  0 0.21335225E+02</rscale>
<asrwt>0</asrwt>
<pdfrwt beam="1">  1        1 0.19433280E-02 0.21335225E+02</pdfrwt>
<pdfrwt beam="2">  1       -1 0.13859950E-02 0.21335225E+02</pdfrwt>
<totfact> 0.33654354E+06</totfact>
</mgrwt>
</event>
<event>
 5    1  0.2115795E-006  0.2000447E+02  0.7818608E-02  0.1745239E+00
         -1   -1    0    0    0  501 -0.00000000000E+00  0.00000000000E+00  0.43135743569E+01  0.43135768848E+01  0.46700000000E-02 0. -1.
          1   -1    0    0  501    0  0.00000000000E+00 -0.00000000000E+00 -0.23192992241E+02  0.23192992711E+02  0.46700000000E-02 0.  1.
       1023    2    1    2    0    0  0.00000000000E+00  0.00000000000E+00 -0.18879417884E+02  0.27506569596E+02  0.20004473282E+02 0.  0.
        -13    1    3    3    0    0 -0.65751933071E+01 -0.75363277489E+01 -0.93509975340E+01  0.13692396808E+02  0.10570000000E+00 0. -1.
         13    1    3    3    0    0  0.65751933071E+01  0.75363277489E+01 -0.95284203499E+01  0.13814172788E+02  0.10570000000E+00 0.  1.
<mgrwt>
<rscale>  0 0.20004473E+02</rscale>
<asrwt>0</asrwt>
<pdfrwt beam="2">  1        1 0.35681528E-02 0.20004473E+02</pdfrwt>
<pdfrwt beam="1">  1       -1 0.66362707E-03 0.20004473E+02</pdfrwt>
<totfact> 0.39942309E+06</totfact>
</mgrwt>
</event>
<event>
 5    1  0.2115795E-006  0.2000693E+02  0.7818608E-02  0.1745190E+00
          1   -1    0    0  501    0  0.00000000000E+00  0.00000000000E+00  0.38903795510E+01  0.38903823539E+01  0.46700000000E-02 0.  1.
         -1   -1    0    0    0  501 -0.00000000000E+00 -0.00000000000E+00 -0.25722236766E+02  0.25722237190E+02  0.46700000000E-02 0. -1.
       1023    2    1    2    0    0  0.00000000000E+00  0.00000000000E+00 -0.21831857215E+02  0.29612619544E+02  0.20006929969E+02 0.  0.
        -13    1    3    3    0    0  0.85557666069E+01  0.51810978962E+01 -0.11086120104E+02  0.14931783185E+02  0.10570000000E+00 0.  1.
         13    1    3    3    0    0 -0.85557666069E+01 -0.51810978962E+01 -0.10745737111E+02  0.14680836359E+02  0.10570000000E+00 0. -1.
<mgrwt>
<rscale>  0 0.20006930E+02</rscale>
<asrwt>0</asrwt>
<pdfrwt beam="1">  1        1 0.59852020E-03 0.20006930E+02</pdfrwt>
<pdfrwt beam="2">  1       -1 0.39572673E-02 0.20006930E+02</pdfrwt>
<totfact> 0.36838267E+06</totfact>
</mgrwt>
</event>
<event>
 5    1  0.2115795E-006  0.2000255E+02  0.7818608E-02  0.1745277E+00
          1   -1    0    0  501    0  0.00000000000E+00  0.00000000000E+00  0.10258953813E+02  0.10258954876E+02  0.46700000000E-02 0.  1.
         -1   -1    0    0    0  501 -0.00000000000E+00 -0.00000000000E+00 -0.97500625233E+01  0.97500636417E+01  0.46700000000E-02 0. -1.
       1023    2    1    2    0    0  0.00000000000E+00  0.00000000000E+00  0.50889129005E+00  0.20009018518E+02  0.20002546131E+02 0.  0.
        -13    1    3    3    0    0  0.92691093334E+01  0.37547040565E+01  0.26445146168E+00  0.10004763738E+02  0.10570000000E+00 0.  1.
         13    1    3    3    0    0 -0.92691093334E+01 -0.37547040565E+01  0.24443982837E+00  0.10004254780E+02  0.10570000000E+00 0. -1.
<mgrwt>
<rscale>  0 0.20002546E+02</rscale>
<asrwt>0</asrwt>
<pdfrwt beam="1">  1        1 0.15783008E-02 0.20002546E+02</pdfrwt>
<pdfrwt beam="2">  1       -1 0.15000098E-02 0.20002546E+02</pdfrwt>
<totfact> 0.38652356E+06</totfact>
</mgrwt>
</event>
<event>
 5    1  0.2115795E-006  0.2000206E+02  0.7818608E-02  0.1745287E+00
          1   -1    0    0  501    0  0.00000000000E+00  0.00000000000E+00  0.41734416936E+01  0.41734443064E+01  0.46700000000E-02 0. -1.
         -1   -1    0    0    0  501 -0.00000000000E+00 -0.00000000000E+00 -0.23965964331E+02  0.23965964786E+02  0.46700000000E-02 0.  1.
       1023    2    1    2    0    0  0.00000000000E+00  0.00000000000E+00 -0.19792522637E+02  0.28139409092E+02  0.20002059687E+02 0.  0.
        -13    1    3    3    0    0  0.51864896759E+01 -0.85502923142E+01 -0.99630169800E+01  0.14116658728E+02  0.10570000000E+00 0.  1.
         13    1    3    3    0    0 -0.51864896759E+01  0.85502923142E+01 -0.98295056575E+01  0.14022750364E+02  0.10570000000E+00 0. -1.
<mgrwt>
<rscale>  0 0.20002060E+02</rscale>
<asrwt>0</asrwt>
<pdfrwt beam="1">  1        1 0.64206820E-03 0.20002060E+02</pdfrwt>
<pdfrwt beam="2">  1       -1 0.36870716E-02 0.20002060E+02</pdfrwt>
<totfact> 0.37020851E+06</totfact>
</mgrwt>
</event>
<event>
 5    1  0.2115795E-006  0.2000252E+02  0.7818608E-02  0.1745278E+00
         -1   -1    0    0    0  501 -0.00000000000E+00  0.00000000000E+00  0.82672887263E+01  0.82672900453E+01  0.46700000000E-02 0. -1.
          1   -1    0    0  501    0  0.00000000000E+00 -0.00000000000E+00 -0.12098907143E+02  0.12098908044E+02  0.46700000000E-02 0.  1.
       1023    2    1    2    0    0  0.00000000000E+00  0.00000000000E+00 -0.38316184168E+01  0.20366198090E+02  0.20002517965E+02 0.  0.
        -13    1    3    3    0    0  0.75877402258E+01  0.65137883408E+01 -0.18101512708E+01  0.10163220966E+02  0.10570000000E+00 0.  1.
         13    1    3    3    0    0 -0.75877402258E+01 -0.65137883408E+01 -0.20214671460E+01  0.10202977124E+02  0.10570000000E+00 0. -1.
<mgrwt>
<rscale>  0 0.20002518E+02</rscale>
<asrwt>0</asrwt>
<pdfrwt beam="2">  1        1 0.18613705E-02 0.20002518E+02</pdfrwt>
<pdfrwt beam="1">  1       -1 0.12718907E-02 0.20002518E+02</pdfrwt>
<totfact> 0.38904881E+06</totfact>
</mgrwt>
</event>
<event>
 5    1  0.2115795E-006  0.2000818E+02  0.7818608E-02  0.1745165E+00
         -1   -1    0    0    0  501 -0.00000000000E+00  0.00000000000E+00  0.38901750889E+01  0.38901778919E+01  0.46700000000E-02 0.  1.
          1   -1    0    0  501    0  0.00000000000E+00 -0.00000000000E+00 -0.25726804855E+02  0.25726805279E+02  0.46700000000E-02 0. -1.
       1023    2    1    2    0    0  0.00000000000E+00  0.00000000000E+00 -0.21836629766E+02  0.29616983171E+02  0.20008180642E+02 0.  0.
        -13    1    3    3    0    0 -0.50679655486E+01  0.86208492884E+01 -0.10534211175E+02  0.14525291558E+02  0.10570000000E+00 0. -1.
         13    1    3    3    0    0  0.50679655486E+01 -0.86208492884E+01 -0.11302418591E+02  0.15091691613E+02  0.10570000000E+00 0.  1.
<mgrwt>
<rscale>  0 0.20008181E+02</rscale>
<asrwt>0</asrwt>
<pdfrwt beam="2">  1        1 0.39579701E-02 0.20008181E+02</pdfrwt>
<pdfrwt beam="1">  1       -1 0.59848874E-03 0.20008181E+02</pdfrwt>
<totfact> 0.40116405E+06</totfact>
</mgrwt>
</event>
<event>
 4    1  0.2115795E-006  0.2007820E+02  0.7818608E-02  0.1743777E+00
         -1   -1    0    0    0  501 -0.00000000000E+00  0.00000000000E+00  0.55056667343E+02  0.55056667542E+02  0.46700000000E-02 0. -1.
          1   -1    0    0  501    0  0.00000000000E+00 -0.00000000000E+00 -0.18305389736E+01  0.18305449306E+01  0.46700000000E-02 0.  1.
        -13    1    1    2    0    0  0.70825970624E+01  0.71107056448E+01  0.25998418261E+02  0.27868517012E+02  0.10570000000E+00 0.  1.
         13    1    1    2    0    0 -0.70825970624E+01 -0.71107056448E+01  0.27227710109E+02  0.29018695460E+02  0.10570000000E+00 0. -1.
<mgrwt>
<rscale>  0 0.20078202E+02</rscale>
<asrwt>0</asrwt>
<pdfrwt beam="2">  1        1 0.28162181E-03 0.20078202E+02</pdfrwt>
<pdfrwt beam="1">  1       -1 0.84702582E-02 0.20078202E+02</pdfrwt>
<totfact> 0.34281155E+06</totfact>
</mgrwt>
</event>
<event>
 5    1  0.2115795E-006  0.2000603E+02  0.7818608E-02  0.1745208E+00
         -1   -1    0    0    0  501 -0.00000000000E+00  0.00000000000E+00  0.14276952748E+01  0.14277029126E+01  0.46700000000E-02 0. -1.
          1   -1    0    0  501    0  0.00000000000E+00 -0.00000000000E+00 -0.70084984350E+02  0.70084984506E+02  0.46700000000E-02 0.  1.
       1023    2    1    2    0    0  0.00000000000E+00  0.00000000000E+00 -0.68657289076E+02  0.71512687419E+02  0.20006027057E+02 0.  0.
        -13    1    3    3    0    0 -0.95776434029E+01 -0.28808733468E+01 -0.34813820970E+02  0.36222147747E+02  0.10570000000E+00 0.  1.
         13    1    3    3    0    0  0.95776434029E+01  0.28808733468E+01 -0.33843468105E+02  0.35290539671E+02  0.10570000000E+00 0. -1.
<mgrwt>
<rscale>  0 0.20006027E+02</rscale>
<asrwt>0</asrwt>
<pdfrwt beam="2">  1        1 0.10782303E-01 0.20006027E+02</pdfrwt>
<pdfrwt beam="1">  1       -1 0.21964608E-03 0.20006027E+02</pdfrwt>
<totfact> 0.42809860E+06</totfact>
</mgrwt>
</event>
<event>
 4    1  0.2115795E-006  0.2006436E+02  0.7818608E-02  0.1744051E+00
          1   -1    0    0  501    0  0.00000000000E+00  0.00000000000E+00  0.74436742216E+02  0.74436742362E+02  0.46700000000E-02 0.  1.
         -1   -1    0    0    0  501 -0.00000000000E+00 -0.00000000000E+00 -0.13520781961E+01  0.13520862610E+01  0.46700000000E-02 0. -1.
        -13    1    1    2    0    0 -0.71238059979E+01 -0.70613972806E+01  0.35988584318E+02  0.37360424477E+02  0.10570000000E+00 0. -1.
         13    1    1    2    0    0  0.71238059979E+01  0.70613972806E+01  0.37096079702E+02  0.38428404146E+02  0.10570000000E+00 0.  1.
<mgrwt>
<rscale>  0 0.20064357E+02</rscale>
<asrwt>0</asrwt>
<pdfrwt beam="1">  1        1 0.11451808E-01 0.20064357E+02</pdfrwt>
<pdfrwt beam="2">  1       -1 0.20801265E-03 0.20064357E+02</pdfrwt>
<totfact> 0.42764302E+06</totfact>
</mgrwt>
</event>
<event>
 5    1  0.2115795E-006  0.2000509E+02  0.7818608E-02  0.1745227E+00
          1   -1    0    0  501    0  0.00000000000E+00  0.00000000000E+00  0.29522221994E+01  0.29522258931E+01  0.46700000000E-02 0. -1.
         -1   -1    0    0    0  501 -0.00000000000E+00 -0.00000000000E+00 -0.33890005806E+02  0.33890006128E+02  0.46700000000E-02 0.  1.
       1023    2    1    2    0    0  0.00000000000E+00  0.00000000000E+00 -0.30937783607E+02  0.36842232021E+02  0.20005089497E+02 0.  0.
        -13    1    3    3    0    0 -0.70417095459E+01 -0.71014027655E+01 -0.15182788007E+02  0.18180864081E+02  0.10570000000E+00 0.  1.
         13    1    3    3    0    0  0.70417095459E+01  0.71014027655E+01 -0.15754995600E+02  0.18661367941E+02  0.10570000000E+00 0. -1.
<mgrwt>
<rscale>  0 0.20005089E+02</rscale>
<asrwt>0</asrwt>
<pdfrwt beam="1">  1        1 0.45418836E-03 0.20005089E+02</pdfrwt>
<pdfrwt beam="2">  1       -1 0.52138471E-02 0.20005089E+02</pdfrwt>
<totfact> 0.36138332E+06</totfact>
</mgrwt>
</event>
<event>
 5    1  0.2115795E-006  0.2000986E+02  0.7818608E-02  0.1745132E+00
         -1   -1    0    0    0  501 -0.00000000000E+00  0.00000000000E+00  0.19393251343E+02  0.19393251906E+02  0.46700000000E-02 0.  1.
          1   -1    0    0  501    0  0.00000000000E+00 -0.00000000000E+00 -0.51615162137E+01  0.51615183263E+01  0.46700000000E-02 0. -1.
       1023    2    1    2    0    0  0.00000000000E+00  0.00000000000E+00  0.14231735130E+02  0.24554770232E+02  0.20009858979E+02 0.  0.
        -13    1    3    3    0    0 -0.11355994588E+01 -0.99395952928E+01  0.71747301047E+01  0.12311501341E+02  0.10570000000E+00 0. -1.
         13    1    3    3    0    0  0.11355994588E+01  0.99395952928E+01  0.70570050251E+01  0.12243268891E+02  0.10570000000E+00 0.  1.
<mgrwt>
<rscale>  0 0.20009859E+02</rscale>
<asrwt>0</asrwt>
<pdfrwt beam="2">  1        1 0.79407962E-03 0.20009859E+02</pdfrwt>
<pdfrwt beam="1">  1       -1 0.29835774E-02 0.20009859E+02</pdfrwt>
<totfact> 0.37438419E+06</totfact>
</mgrwt>
</event>
<event>
 5    1  0.2115795E-006  0.2000252E+02  0.7818608E-02  0.1745278E+00
         -1   -1    0    0    0  501 -0.00000000000E+00  0.00000000000E+00  0.22677938662E+01  0.22677986746E+01  0.46700000000E-02 0.  1.
          1   -1    0    0  501    0  0.00000000000E+00 -0.00000000000E+00 -0.44106783168E+02  0.44106783415E+02  0.46700000000E-02 0. -1.
       1023    2    1    2    0    0  0.00000000000E+00  0.00000000000E+00 -0.41838989302E+02  0.46374582090E+02  0.20002520797E+02 0.  0.
        -13    1    3    3    0    0  0.85438239865E+01 -0.51966743866E+01 -0.21170101179E+02  0.23413387397E+02  0.10570000000E+00 0. -1.
         13    1    3    3    0    0 -0.85438239865E+01  0.51966743866E+01 -0.20668888123E+02  0.22961194693E+02  0.10570000000E+00 0.  1.
<mgrwt>
<rscale>  0 0.20002521E+02</rscale>
<asrwt>0</asrwt>
<pdfrwt beam="2">  1        1 0.67856586E-02 0.20002521E+02</pdfrwt>
<pdfrwt beam="1">  1       -1 0.34889179E-03 0.20002521E+02</pdfrwt>
<totfact> 0.41351748E+06</totfact>
</mgrwt>
</event>
<event>
 5    1  0.2115795E-006  0.2000678E+02  0.7818608E-02  0.1745193E+00
         -1   -1    0    0    0  501 -0.00000000000E+00  0.00000000000E+00  0.52402140211E+01  0.52402161020E+01  0.46700000000E-02 0.  1.
          1   -1    0    0  501    0  0.00000000000E+00 -0.00000000000E+00 -0.19096132031E+02  0.19096132602E+02  0.46700000000E-02 0. -1.
       1023    2    1    2    0    0  0.00000000000E+00  0.00000000000E+00 -0.13855918010E+02  0.24336348704E+02  0.20006783958E+02 0.  0.
        -13    1    3    3    0    0 -0.99826710254E+01  0.61224447228E+00 -0.67239997900E+01  0.12052050023E+02  0.10570000000E+00 0. -1.
         13    1    3    3    0    0  0.99826710254E+01 -0.61224447228E+00 -0.71319182199E+01  0.12284298681E+02  0.10570000000E+00 0.  1.
<mgrwt>
<rscale>  0 0.20006784E+02</rscale>
<asrwt>0</asrwt>
<pdfrwt beam="2">  1        1 0.29378666E-02 0.20006784E+02</pdfrwt>
<pdfrwt beam="1">  1       -1 0.80618699E-03 0.20006784E+02</pdfrwt>
<totfact> 0.39598897E+06</totfact>
</mgrwt>
</event>
<event>
 5    1  0.2115795E-006  0.2000953E+02  0.7818608E-02  0.1745139E+00
          1   -1    0    0  501    0  0.00000000000E+00  0.00000000000E+00  0.56467626295E+02  0.56467626489E+02  0.46700000000E-02 0. -1.
         -1   -1    0    0    0  501 -0.00000000000E+00 -0.00000000000E+00 -0.17726115386E+01  0.17726176902E+01  0.46700000000E-02 0.  1.
       1023    2    1    2    0    0  0.00000000000E+00  0.00000000000E+00  0.54695014757E+02  0.58240244179E+02  0.20009532797E+02 0.  0.
        -13    1    3    3    0    0  0.92119107951E+01 -0.38946956876E+01  0.28037658213E+02  0.29768261716E+02  0.10570000000E+00 0.  1.
         13    1    3    3    0    0 -0.92119107951E+01  0.38946956876E+01  0.26657356544E+02  0.28471982463E+02  0.10570000000E+00 0. -1.
<mgrwt>
<rscale>  0 0.20009533E+02</rscale>
<asrwt>0</asrwt>
<pdfrwt beam="1">  1        1 0.86873276E-02 0.20009533E+02</pdfrwt>
<pdfrwt beam="2">  1       -1 0.27270996E-03 0.20009533E+02</pdfrwt>
<totfact> 0.42043194E+06</totfact>
</mgrwt>
</event>
<event>
 4    1  0.2115795E-006  0.2037210E+02  0.7818608E-02  0.1738028E+00
          1   -1    0    0  501    0  0.00000000000E+00  0.00000000000E+00  0.82458415384E+02  0.82458415517E+02  0.46700000000E-02 0. -1.
         -1   -1    0    0    0  501 -0.00000000000E+00 -0.00000000000E+00 -0.12582738536E+01  0.12582825197E+01  0.46700000000E-02 0.  1.
        -13    1    1    2    0    0  0.13224191287E+01 -0.10094901771E+02  0.39376677631E+02  0.40671731558E+02  0.10570000000E+00 0. -1.
         13    1    1    2    0    0 -0.13224191287E+01  0.10094901771E+02  0.41823463899E+02  0.43044966479E+02  0.10570000000E+00 0.  1.
<mgrwt>
<rscale>  0 0.20372102E+02</rscale>
<asrwt>0</asrwt>
<pdfrwt beam="1">  1        1 0.12685913E-01 0.20372102E+02</pdfrwt>
<pdfrwt beam="2">  1       -1 0.19358124E-03 0.20372102E+02</pdfrwt>
<totfact> 0.41746378E+06</totfact>
</mgrwt>
</event>
<event>
 5    1  0.2115795E-006  0.2000604E+02  0.7818608E-02  0.1745208E+00
          1   -1    0    0  501    0  0.00000000000E+00  0.00000000000E+00  0.11643765837E+03  0.11643765847E+03  0.46700000000E-02 0. -1.
         -1   -1    0    0    0  501 -0.00000000000E+00 -0.00000000000E+00 -0.85934068650E+00  0.85935337573E+00  0.46700000000E-02 0.  1.
       1023    2    1    2    0    0  0.00000000000E+00  0.00000000000E+00  0.11557831769E+03  0.11729701184E+03  0.20006035787E+02 0.  0.
        -13    1    3    3    0    0  0.44975763204E+01  0.89337702416E+01  0.58337631156E+02  0.59188941745E+02  0.10570000000E+00 0.  1.
         13    1    3    3    0    0 -0.44975763204E+01 -0.89337702416E+01  0.57240686530E+02  0.58108070097E+02  0.10570000000E+00 0. -1.
<mgrwt>
<rscale>  0 0.20006036E+02</rscale>
<asrwt>0</asrwt>
<pdfrwt beam="1">  1        1 0.17913499E-01 0.20006036E+02</pdfrwt>
<pdfrwt beam="2">  1       -1 0.13220715E-03 0.20006036E+02</pdfrwt>
<totfact> 0.45107018E+06</totfact>
</mgrwt>
</event>
<event>
 5    1  0.2115795E-006  0.2000169E+02  0.7818608E-02  0.1745294E+00
          1   -1    0    0  501    0  0.00000000000E+00  0.00000000000E+00  0.26174193578E+02  0.26174193994E+02  0.46700000000E-02 0.  1.
         -1   -1    0    0    0  501 -0.00000000000E+00 -0.00000000000E+00 -0.38212004201E+01  0.38212032738E+01  0.46700000000E-02 0. -1.
       1023    2    1    2    0    0  0.00000000000E+00  0.00000000000E+00  0.22352993157E+02  0.29995397268E+02  0.20001688783E+02 0.  0.
        -13    1    3    3    0    0  0.18804355670E+01  0.98218860030E+01  0.11199410950E+02  0.15014774747E+02  0.10570000000E+00 0.  1.
         13    1    3    3    0    0 -0.18804355670E+01 -0.98218860030E+01  0.11153582208E+02  0.14980622521E+02  0.10570000000E+00 0. -1.
<mgrwt>
<rscale>  0 0.20001689E+02</rscale>
<asrwt>0</asrwt>
<pdfrwt beam="1">  1        1 0.40267994E-02 0.20001689E+02</pdfrwt>
<pdfrwt beam="2">  1       -1 0.58787722E-03 0.20001689E+02</pdfrwt>
<totfact> 0.40178290E+06</totfact>
</mgrwt>
</event>
<event>
 5    1  0.2115795E-006  0.2000441E+02  0.7818608E-02  0.1745240E+00
          1   -1    0    0  501    0  0.00000000000E+00  0.00000000000E+00  0.33505526587E+02  0.33505526912E+02  0.46700000000E-02 0. -1.
         -1   -1    0    0    0  501 -0.00000000000E+00 -0.00000000000E+00 -0.29858959129E+01  0.29858995648E+01  0.46700000000E-02 0.  1.
       1023    2    1    2    0    0  0.00000000000E+00  0.00000000000E+00  0.30519630674E+02  0.36491426477E+02  0.20004408261E+02 0.  0.
        -13    1    3    3    0    0 -0.92705033860E+01  0.37528793337E+01  0.15111859010E+02  0.18121969858E+02  0.10570000000E+00 0.  1.
         13    1    3    3    0    0  0.92705033860E+01 -0.37528793337E+01  0.15407771664E+02  0.18369456619E+02  0.10570000000E+00 0. -1.
<mgrwt>
<rscale>  0 0.20004408E+02</rscale>
<asrwt>0</asrwt>
<pdfrwt beam="1">  1        1 0.51546966E-02 0.20004408E+02</pdfrwt>
<pdfrwt beam="2">  1       -1 0.45936891E-03 0.20004408E+02</pdfrwt>
<totfact> 0.40673138E+06</totfact>
</mgrwt>
</event>
<event>
 5    1  0.2115795E-006  0.2000515E+02  0.7818608E-02  0.1745226E+00
         -1   -1    0    0    0  501 -0.00000000000E+00  0.00000000000E+00  0.12907087681E+02  0.12907088526E+02  0.46700000000E-02 0.  1.
          1   -1    0    0  501    0  0.00000000000E+00 -0.00000000000E+00 -0.77516683364E+01  0.77516697431E+01  0.46700000000E-02 0. -1.
       1023    2    1    2    0    0  0.00000000000E+00  0.00000000000E+00  0.51554193449E+01  0.20658758269E+02  0.20005147953E+02 0.  0.
        -13    1    3    3    0    0 -0.86483575385E+01 -0.50216791138E+01  0.24019598406E+01  0.10285520541E+02  0.10570000000E+00 0.  1.
         13    1    3    3    0    0  0.86483575385E+01  0.50216791138E+01  0.27534595043E+01  0.10373237728E+02  0.10570000000E+00 0. -1.
<mgrwt>
<rscale>  0 0.20005148E+02</rscale>
<asrwt>0</asrwt>
<pdfrwt beam="2">  1        1 0.11925645E-02 0.20005148E+02</pdfrwt>
<pdfrwt beam="1">  1       -1 0.19857060E-02 0.20005148E+02</pdfrwt>
<totfact> 0.38194931E+06</totfact>
</mgrwt>
</event>
<event>
 5    1  0.2115795E-006  0.2000496E+02  0.7818608E-02  0.1745229E+00
         -1   -1    0    0    0  501 -0.00000000000E+00  0.00000000000E+00  0.29853886057E+02  0.29853886422E+02  0.46700000000E-02 0. -1.
          1   -1    0    0  501    0  0.00000000000E+00 -0.00000000000E+00 -0.33513083552E+01  0.33513116090E+01  0.46700000000E-02 0.  1.
       1023    2    1    2    0    0  0.00000000000E+00  0.00000000000E+00  0.26502577702E+02  0.33205198031E+02  0.20004963170E+02 0.  0.
        -13    1    3    3    0    0  0.39881612202E+01  0.91718939581E+01  0.13412188626E+02  0.16731020439E+02  0.10570000000E+00 0.  1.
         13    1    3    3    0    0 -0.39881612202E+01 -0.91718939581E+01  0.13090389076E+02  0.16474177592E+02  0.10570000000E+00 0. -1.
<mgrwt>
<rscale>  0 0.20004963E+02</rscale>
<asrwt>0</asrwt>
<pdfrwt beam="2">  1        1 0.51558620E-03 0.20004963E+02</pdfrwt>
<pdfrwt beam="1">  1       -1 0.45929056E-02 0.20004963E+02</pdfrwt>
<totfact> 0.36479215E+06</totfact>
</mgrwt>
</event>
<event>
 5    1  0.2115795E-006  0.2000561E+02  0.7818608E-02  0.1745217E+00
         -1   -1    0    0    0  501 -0.00000000000E+00  0.00000000000E+00  0.27178230521E+01  0.27178270643E+01  0.46700000000E-02 0. -1.
          1   -1    0    0  501    0  0.00000000000E+00 -0.00000000000E+00 -0.36814750403E+02  0.36814750699E+02  0.46700000000E-02 0.  1.
       1023    2    1    2    0    0  0.00000000000E+00  0.00000000000E+00 -0.34096927350E+02  0.39532577763E+02  0.20005605461E+02 0.  0.
        -13    1    3    3    0    0  0.94005651850E+01  0.34158319525E+01 -0.16890918951E+02  0.19630406242E+02  0.10570000000E+00 0. -1.
         13    1    3    3    0    0 -0.94005651850E+01 -0.34158319525E+01 -0.17206008399E+02  0.19902171521E+02  0.10570000000E+00 0.  1.
<mgrwt>
<rscale>  0 0.20005605E+02</rscale>
<asrwt>0</asrwt>
<pdfrwt beam="2">  1        1 0.56638077E-02 0.20005605E+02</pdfrwt>
<pdfrwt beam="1">  1       -1 0.41812698E-03 0.20005605E+02</pdfrwt>
<totfact> 0.40883164E+06</totfact>
</mgrwt>
</event>
<event>
 4    1  0.2115795E-006  0.2003694E+02  0.7818608E-02  0.1744594E+00
          1   -1    0    0  501    0  0.00000000000E+00  0.00000000000E+00  0.47485006716E+02  0.47485006946E+02  0.46700000000E-02 0.  1.
         -1   -1    0    0    0  501 -0.00000000000E+00 -0.00000000000E+00 -0.21137118887E+01  0.21137170476E+01  0.46700000000E-02 0. -1.
        -13    1    1    2    0    0  0.56958545940E+01  0.82407925984E+01  0.22863497949E+02  0.24962053865E+02  0.10570000000E+00 0.  1.
         13    1    1    2    0    0 -0.56958545940E+01 -0.82407925984E+01  0.22507796878E+02  0.24636670128E+02  0.10570000000E+00 0. -1.
<mgrwt>
<rscale>  0 0.20036942E+02</rscale>
<asrwt>0</asrwt>
<pdfrwt beam="1">  1        1 0.73053861E-02 0.20036942E+02</pdfrwt>
<pdfrwt beam="2">  1       -1 0.32518686E-03 0.20036942E+02</pdfrwt>
<totfact> 0.41396112E+06</totfact>
</mgrwt>
</event>
<event>
 5    1  0.2115795E-006  0.2000199E+02  0.7818608E-02  0.1745289E+00
         -1   -1    0    0    0  501 -0.00000000000E+00  0.00000000000E+00  0.10040349838E+01  0.10040458443E+01  0.46700000000E-02 0.  1.
          1   -1    0    0  501    0  0.00000000000E+00 -0.00000000000E+00 -0.99617388590E+02  0.99617388699E+02  0.46700000000E-02 0. -1.
       1023    2    1    2    0    0  0.00000000000E+00  0.00000000000E+00 -0.98613353606E+02  0.10062143454E+03  0.20001989406E+02 0.  0.
        -13    1    3    3    0    0  0.37728543357E+01 -0.92614395057E+01 -0.49278667437E+02  0.50283266883E+02  0.10570000000E+00 0. -1.
         13    1    3    3    0    0 -0.37728543357E+01  0.92614395057E+01 -0.49334686169E+02  0.50338167661E+02  0.10570000000E+00 0.  1.
<mgrwt>
<rscale>  0 0.20001989E+02</rscale>
<asrwt>0</asrwt>
<pdfrwt beam="2">  1        1 0.15325745E-01 0.20001989E+02</pdfrwt>
<pdfrwt beam="1">  1       -1 0.15446784E-03 0.20001989E+02</pdfrwt>
<totfact> 0.44332370E+06</totfact>
</mgrwt>
</event>
<event>
 5    1  0.2115795E-006  0.2000625E+02  0.7818608E-02  0.1745204E+00
         -1   -1    0    0    0  501 -0.00000000000E+00  0.00000000000E+00  0.11049297978E+03  0.11049297988E+03  0.46700000000E-02 0.  1.
          1   -1    0    0  501    0  0.00000000000E+00 -0.00000000000E+00 -0.90559479493E+00  0.90560683606E+00  0.46700000000E-02 0. -1.
       1023    2    1    2    0    0  0.00000000000E+00  0.00000000000E+00  0.10958738499E+03  0.11139858672E+03  0.20006253377E+02 0.  0.
        -13    1    3    3    0    0  0.61416676340E+01 -0.78940173913E+01  0.54094243906E+02  0.55011216930E+02  0.10570000000E+00 0. -1.
         13    1    3    3    0    0 -0.61416676340E+01  0.78940173913E+01  0.55493141081E+02  0.56387369787E+02  0.10570000000E+00 0.  1.
<mgrwt>
<rscale>  0 0.20006253E+02</rscale>
<asrwt>0</asrwt>
<pdfrwt beam="2">  1        1 0.13932329E-03 0.20006253E+02</pdfrwt>
<pdfrwt beam="1">  1       -1 0.16998911E-01 0.20006253E+02</pdfrwt>
<totfact> 0.31294857E+06</totfact>
</mgrwt>
</event>
<event>
 4    1  0.2115795E-006  0.2034914E+02  0.7818608E-02  0.1738473E+00
         -1   -1    0    0    0  501 -0.00000000000E+00  0.00000000000E+00  0.11313666687E+01  0.11313763070E+01  0.46700000000E-02 0.  1.
          1   -1    0    0  501    0  0.00000000000E+00 -0.00000000000E+00 -0.91501198074E+02  0.91501198193E+02  0.46700000000E-02 0. -1.
        -13    1    1    2    0    0 -0.21146106141E+01 -0.98440711934E+01 -0.51833830060E+02  0.52802788060E+02  0.10570000000E+00 0.  1.
         13    1    1    2    0    0  0.21146106141E+01  0.98440711934E+01 -0.38536001345E+02  0.39829786441E+02  0.10570000000E+00 0. -1.
<mgrwt>
<rscale>  0 0.20349138E+02</rscale>
<asrwt>0</asrwt>
<pdfrwt beam="2">  1        1 0.14077102E-01 0.20349138E+02</pdfrwt>
<pdfrwt beam="1">  1       -1 0.17405723E-03 0.20349138E+02</pdfrwt>
<totfact> 0.42292668E+06</totfact>
</mgrwt>
</event>
<event>
 4    1  0.2115795E-006  0.2005911E+02  0.7818608E-02  0.1744155E+00
          1   -1    0    0  501    0  0.00000000000E+00  0.00000000000E+00  0.10338409318E+01  0.10338514792E+01  0.46700000000E-02 0. -1.
         -1   -1    0    0    0  501 -0.00000000000E+00 -0.00000000000E+00 -0.97298787834E+02  0.97298787946E+02  0.46700000000E-02 0.  1.
        -13    1    1    2    0    0 -0.95680427655E+01  0.29776793989E+01 -0.50134590065E+02  0.51126336759E+02  0.10570000000E+00 0.  1.
         13    1    1    2    0    0  0.95680427655E+01 -0.29776793989E+01 -0.46130356837E+02  0.47206302666E+02  0.10570000000E+00 0. -1.
<mgrwt>
<rscale>  0 0.20059112E+02</rscale>
<asrwt>0</asrwt>
<pdfrwt beam="1">  1        1 0.15905335E-03 0.20059112E+02</pdfrwt>
<pdfrwt beam="2">  1       -1 0.14969038E-01 0.20059112E+02</pdfrwt>
<totfact> 0.31807373E+06</totfact>
</mgrwt>
</event>
<event>
 5    1  0.2115795E-006  0.2000373E+02  0.7818608E-02  0.1745254E+00
         -1   -1    0    0    0  501 -0.00000000000E+00  0.00000000000E+00  0.66591060994E+01  0.66591077369E+01  0.46700000000E-02 0.  1.
          1   -1    0    0  501    0  0.00000000000E+00 -0.00000000000E+00 -0.15022631138E+02  0.15022631864E+02  0.46700000000E-02 0. -1.
       1023    2    1    2    0    0  0.00000000000E+00  0.00000000000E+00 -0.83635250384E+01  0.21681739601E+02  0.20003731678E+02 0.  0.
        -13    1    3    3    0    0  0.41639925178E+01 -0.90927500613E+01 -0.40777411764E+01  0.10800744556E+02  0.10570000000E+00 0.  1.
         13    1    3    3    0    0 -0.41639925178E+01  0.90927500613E+01 -0.42857838620E+01  0.10880995045E+02  0.10570000000E+00 0. -1.
<mgrwt>
<rscale>  0 0.20003732E+02</rscale>
<asrwt>0</asrwt>
<pdfrwt beam="2">  1        1 0.23111742E-02 0.20003732E+02</pdfrwt>
<pdfrwt beam="1">  1       -1 0.10244780E-02 0.20003732E+02</pdfrwt>
<totfact> 0.39230509E+06</totfact>
</mgrwt>
</event>
<event>
 5    1  0.2115795E-006  0.2000352E+02  0.7818608E-02  0.1745258E+00
         -1   -1    0    0    0  501 -0.00000000000E+00  0.00000000000E+00  0.10968577260E+01  0.10968676675E+01  0.46700000000E-02 0. -1.
          1   -1    0    0  501    0  0.00000000000E+00 -0.00000000000E+00 -0.91201197761E+02  0.91201197881E+02  0.46700000000E-02 0.  1.
       1023    2    1    2    0    0  0.00000000000E+00  0.00000000000E+00 -0.90104340035E+02  0.92298065548E+02  0.20003519959E+02 0.  0.
        -13    1    3    3    0    0 -0.17949399304E+01  0.98386188375E+01 -0.44767730267E+02  0.45871353542E+02  0.10570000000E+00 0. -1.
         13    1    3    3    0    0  0.17949399304E+01 -0.98386188375E+01 -0.45336609768E+02  0.46426712006E+02  0.10570000000E+00 0.  1.
<mgrwt>
<rscale>  0 0.20003520E+02</rscale>
<asrwt>0</asrwt>
<pdfrwt beam="2">  1        1 0.14030948E-01 0.20003520E+02</pdfrwt>
<pdfrwt beam="1">  1       -1 0.16874819E-03 0.20003520E+02</pdfrwt>
<totfact> 0.43910812E+06</totfact>
</mgrwt>
</event>
<event>
 4    1  0.2115795E-006  0.2013685E+02  0.7818608E-02  0.1742620E+00
          1   -1    0    0  501    0  0.00000000000E+00  0.00000000000E+00  0.21388596990E+02  0.21388597500E+02  0.46700000000E-02 0.  1.
         -1   -1    0    0    0  501 -0.00000000000E+00 -0.00000000000E+00 -0.47395873494E+01  0.47395896502E+01  0.46700000000E-02 0. -1.
        -13    1    1    2    0    0  0.69537873133E+01 -0.72792509915E+01  0.81440829106E+01  0.12949127845E+02  0.10570000000E+00 0. -1.
         13    1    1    2    0    0 -0.69537873133E+01  0.72792509915E+01  0.85049267297E+01  0.13179059305E+02  0.10570000000E+00 0.  1.
<mgrwt>
<rscale>  0 0.20136848E+02</rscale>
<asrwt>0</asrwt>
<pdfrwt beam="1">  1        1 0.32905535E-02 0.20136848E+02</pdfrwt>
<pdfrwt beam="2">  1       -1 0.72916751E-03 0.20136848E+02</pdfrwt>
<totfact> 0.39215814E+06</totfact>
</mgrwt>
</event>
<event>
 5    1  0.2115795E-006  0.2000181E+02  0.7818608E-02  0.1745292E+00
         -1   -1    0    0    0  501 -0.00000000000E+00  0.00000000000E+00  0.13956147340E+01  0.13956225474E+01  0.46700000000E-02 0.  1.
          1   -1    0    0  501    0  0.00000000000E+00 -0.00000000000E+00 -0.71665775057E+02  0.71665775209E+02  0.46700000000E-02 0. -1.
       1023    2    1    2    0    0  0.00000000000E+00  0.00000000000E+00 -0.70270160323E+02  0.73061397756E+02  0.20001810176E+02 0.  0.
        -13    1    3    3    0    0  0.12194721585E+01  0.99253860036E+01 -0.34839898508E+02  0.36246794344E+02  0.10570000000E+00 0.  1.
         13    1    3    3    0    0 -0.12194721585E+01 -0.99253860036E+01 -0.35430261815E+02  0.36814603412E+02  0.10570000000E+00 0. -1.
<mgrwt>
<rscale>  0 0.20001810E+02</rscale>
<asrwt>0</asrwt>
<pdfrwt beam="2">  1        1 0.11025502E-01 0.20001810E+02</pdfrwt>
<pdfrwt beam="1">  1       -1 0.21471063E-03 0.20001810E+02</pdfrwt>
<totfact> 0.42914285E+06</totfact>
</mgrwt>
</event>
<event>
 5    1  0.2115795E-006  0.2001044E+02  0.7818608E-02  0.1745120E+00
         -1   -1    0    0    0  501 -0.00000000000E+00  0.00000000000E+00  0.26342539081E+02  0.26342539495E+02  0.46700000000E-02 0. -1.
          1   -1    0    0  501    0  0.00000000000E+00 -0.00000000000E+00 -0.38001049294E+01  0.38001077989E+01  0.46700000000E-02 0.  1.
       1023    2    1    2    0    0  0.00000000000E+00  0.00000000000E+00  0.22542434152E+02  0.30142647294E+02  0.20010443483E+02 0.  0.
        -13    1    3    3    0    0  0.42352661137E+01  0.90636973171E+01  0.11379856881E+02  0.15152570845E+02  0.10570000000E+00 0. -1.
         13    1    3    3    0    0 -0.42352661137E+01 -0.90636973171E+01  0.11162577271E+02  0.14990076448E+02  0.10570000000E+00 0.  1.
<mgrwt>
<rscale>  0 0.20010443E+02</rscale>
<asrwt>0</asrwt>
<pdfrwt beam="2">  1        1 0.58463176E-03 0.20010443E+02</pdfrwt>
<pdfrwt beam="1">  1       -1 0.40526987E-02 0.20010443E+02</pdfrwt>
<totfact> 0.36767653E+06</totfact>
</mgrwt>
</event>
<event>
 5    1  0.2115795E-006  0.2000224E+02  0.7818608E-02  0.1745283E+00
         -1   -1    0    0    0  501 -0.00000000000E+00  0.00000000000E+00  0.11014138952E+01  0.11014237955E+01  0.46700000000E-02 0.  1.
          1   -1    0    0  501    0  0.00000000000E+00 -0.00000000000E+00 -0.90812329759E+02  0.90812329879E+02  0.46700000000E-02 0. -1.
       1023    2    1    2    0    0  0.00000000000E+00  0.00000000000E+00 -0.89710915864E+02  0.91913753675E+02  0.20002242110E+02 0.  0.
        -13    1    3    3    0    0 -0.87568430003E+01  0.48295037908E+01 -0.45175265739E+02  0.46269020016E+02  0.10570000000E+00 0.  1.
         13    1    3    3    0    0  0.87568430003E+01 -0.48295037908E+01 -0.44535650126E+02  0.45644733659E+02  0.10570000000E+00 0. -1.
<mgrwt>
<rscale>  0 0.20002242E+02</rscale>
<asrwt>0</asrwt>
<pdfrwt beam="2">  1        1 0.13971122E-01 0.20002242E+02</pdfrwt>
<pdfrwt beam="1">  1       -1 0.16944913E-03 0.20002242E+02</pdfrwt>
<totfact> 0.43897602E+06</totfact>
</mgrwt>
</event>
<event>
 5    1  0.2115795E-006  0.2000671E+02  0.7818608E-02  0.1745195E+00
         -1   -1    0    0    0  501 -0.00000000000E+00  0.00000000000E+00  0.10991411224E+03  0.10991411234E+03  0.46700000000E-02 0. -1.
          1   -1    0    0  501    0  0.00000000000E+00 -0.00000000000E+00 -0.91040555977E+00  0.91041753726E+00  0.46700000000E-02 0.  1.
       1023    2    1    2    0    0  0.00000000000E+00  0.00000000000E+00  0.10900370668E+03  0.11082452988E+03  0.20006707683E+02 0.  0.
        -13    1    3    3    0    0 -0.94138892420E+01 -0.33788469666E+01  0.53758708153E+02  0.54681329467E+02  0.10570000000E+00 0. -1.
         13    1    3    3    0    0  0.94138892420E+01  0.33788469666E+01  0.55244998530E+02  0.56143200413E+02  0.10570000000E+00 0.  1.
<mgrwt>
<rscale>  0 0.20006708E+02</rscale>
<asrwt>0</asrwt>
<pdfrwt beam="2">  1        1 0.14006346E-03 0.20006708E+02</pdfrwt>
<pdfrwt beam="1">  1       -1 0.16909848E-01 0.20006708E+02</pdfrwt>
<totfact> 0.31323092E+06</totfact>
</mgrwt>
</event>
<event>
 5    1  0.2115795E-006  0.2000152E+02  0.7818608E-02  0.1745298E+00
          1   -1    0    0  501    0  0.00000000000E+00  0.00000000000E+00  0.15301872673E+02  0.15301873386E+02  0.46700000000E-02 0. -1.
         -1   -1    0    0    0  501 -0.00000000000E+00 -0.00000000000E+00 -0.65361421405E+01  0.65361438088E+01  0.46700000000E-02 0.  1.
       1023    2    1    2    0    0  0.00000000000E+00  0.00000000000E+00  0.87657305327E+01  0.21838017195E+02  0.20001524023E+02 0.  0.
        -13    1    3    3    0    0 -0.93554256212E+01 -0.35326879486E+01  0.43675946170E+01  0.10912878993E+02  0.10570000000E+00 0. -1.
         13    1    3    3    0    0  0.93554256212E+01  0.35326879486E+01  0.43981359157E+01  0.10925138201E+02  0.10570000000E+00 0.  1.
<mgrwt>
<rscale>  0 0.20001524E+02</rscale>
<asrwt>0</asrwt>
<pdfrwt beam="1">  1        1 0.23541344E-02 0.20001524E+02</pdfrwt>
<pdfrwt beam="2">  1       -1 0.10055605E-02 0.20001524E+02</pdfrwt>
<totfact> 0.39268798E+06</totfact>
</mgrwt>
</event>
<event>
 5    1  0.2115795E-006  0.2000505E+02  0.7818608E-02  0.1745228E+00
          1   -1    0    0  501    0  0.00000000000E+00  0.00000000000E+00  0.13575592637E+02  0.13575593440E+02  0.46700000000E-02 0.  1.
         -1   -1    0    0    0  501 -0.00000000000E+00 -0.00000000000E+00 -0.73698824142E+01  0.73698838937E+01  0.46700000000E-02 0. -1.
       1023    2    1    2    0    0  0.00000000000E+00  0.00000000000E+00  0.62057102228E+01  0.20945477334E+02  0.20005053896E+02 0.  0.
        -13    1    3    3    0    0 -0.14723748012E+01  0.98923614198E+01  0.32207115271E+01  0.10507657077E+02  0.10570000000E+00 0.  1.
         13    1    3    3    0    0  0.14723748012E+01 -0.98923614198E+01  0.29849986957E+01  0.10437820257E+02  0.10570000000E+00 0. -1.
<mgrwt>
<rscale>  0 0.20005054E+02</rscale>
<asrwt>0</asrwt>
<pdfrwt beam="1">  1        1 0.20885529E-02 0.20005054E+02</pdfrwt>
<pdfrwt beam="2">  1       -1 0.11338282E-02 0.20005054E+02</pdfrwt>
<totfact> 0.39069170E+06</totfact>
</mgrwt>
</event>
<event>
 4    1  0.2115795E-006  0.2002328E+02  0.7818608E-02  0.1744865E+00
         -1   -1    0    0    0  501 -0.00000000000E+00  0.00000000000E+00  0.11642600932E+02  0.11642601869E+02  0.46700000000E-02 0.  1.
          1   -1    0    0  501    0  0.00000000000E+00 -0.00000000000E+00 -0.86091532782E+01  0.86091545448E+01  0.46700000000E-02 0. -1.
        -13    1    1    2    0    0  0.67415893603E+01 -0.74007594205E+01  0.14773086525E+01  0.10119974330E+02  0.10570000000E+00 0. -1.
         13    1    1    2    0    0 -0.67415893603E+01  0.74007594205E+01  0.15561390018E+01  0.10131782083E+02  0.10570000000E+00 0.  1.
<mgrwt>
<rscale>  0 0.20023282E+02</rscale>
<asrwt>0</asrwt>
<pdfrwt beam="2">  1        1 0.13244853E-02 0.20023282E+02</pdfrwt>
<pdfrwt beam="1">  1       -1 0.17911695E-02 0.20023282E+02</pdfrwt>
<totfact> 0.38286880E+06</totfact>
</mgrwt>
</event>
<event>
 5    1  0.2115795E-006  0.2000307E+02  0.7818608E-02  0.1745267E+00
          1   -1    0    0  501    0  0.00000000000E+00  0.00000000000E+00  0.84887421198E+01  0.84887434043E+01  0.46700000000E-02 0.  1.
         -1   -1    0    0    0  501 -0.00000000000E+00 -0.00000000000E+00 -0.11783927664E+02  0.11783928589E+02  0.46700000000E-02 0. -1.
       1023    2    1    2    0    0  0.00000000000E+00  0.00000000000E+00 -0.32951855439E+01  0.20272671993E+02  0.20003074313E+02 0.  0.
        -13    1    3    3    0    0 -0.11655658142E+01  0.99319336145E+01 -0.15126668783E+01  0.10114404706E+02  0.10570000000E+00 0.  1.
         13    1    3    3    0    0  0.11655658142E+01 -0.99319336145E+01 -0.17825186655E+01  0.10158267287E+02  0.10570000000E+00 0. -1.
<mgrwt>
<rscale>  0 0.20003074E+02</rscale>
<asrwt>0</asrwt>
<pdfrwt beam="1">  1        1 0.13059605E-02 0.20003074E+02</pdfrwt>
<pdfrwt beam="2">  1       -1 0.18129121E-02 0.20003074E+02</pdfrwt>
<totfact> 0.38352216E+06</totfact>
</mgrwt>
</event>
<event>
 5    1  0.2115795E-006  0.2000660E+02  0.7818608E-02  0.1745197E+00
         -1   -1    0    0    0  501 -0.00000000000E+00  0.00000000000E+00  0.21548820690E+01  0.21548871293E+01  0.46700000000E-02 0.  1.
          1   -1    0    0  501    0  0.00000000000E+00 -0.00000000000E+00 -0.46436812530E+02  0.46436812765E+02  0.46700000000E-02 0. -1.
       1023    2    1    2    0    0  0.00000000000E+00  0.00000000000E+00 -0.44281930461E+02  0.48591699894E+02  0.20006597243E+02 0.  0.
        -13    1    3    3    0    0 -0.34160730178E+00 -0.99963623613E+01 -0.22394011569E+02  0.24526452712E+02  0.10570000000E+00 0. -1.
         13    1    3    3    0    0  0.34160730178E+00  0.99963623613E+01 -0.21887918893E+02  0.24065247182E+02  0.10570000000E+00 0.  1.
<mgrwt>
<rscale>  0 0.20006597E+02</rscale>
<asrwt>0</asrwt>
<pdfrwt beam="2">  1        1 0.71441247E-02 0.20006597E+02</pdfrwt>
<pdfrwt beam="1">  1       -1 0.33152076E-03 0.20006597E+02</pdfrwt>
<totfact> 0.41473374E+06</totfact>
</mgrwt>
</event>
<event>
 5    1  0.2115795E-006  0.2001070E+02  0.7818608E-02  0.1745115E+00
          1   -1    0    0  501    0  0.00000000000E+00  0.00000000000E+00  0.83745475465E+02  0.83745475595E+02  0.46700000000E-02 0. -1.
         -1   -1    0    0    0  501 -0.00000000000E+00 -0.00000000000E+00 -0.11953680325E+01  0.11953771547E+01  0.46700000000E-02 0.  1.
       1023    2    1    2    0    0  0.00000000000E+00  0.00000000000E+00  0.82550107432E+02  0.84940852750E+02  0.20010702855E+02 0.  0.
        -13    1    3    3    0    0  0.70363579221E+00 -0.99791443483E+01  0.41835933217E+02  0.43015519361E+02  0.10570000000E+00 0. -1.
         13    1    3    3    0    0 -0.70363579221E+00  0.99791443483E+01  0.40714174215E+02  0.41925333389E+02  0.10570000000E+00 0.  1.
<mgrwt>
<rscale>  0 0.20010703E+02</rscale>
<asrwt>0</asrwt>
<pdfrwt beam="1">  1        1 0.12883923E-01 0.20010703E+02</pdfrwt>
<pdfrwt beam="2">  1       -1 0.18390344E-03 0.20010703E+02</pdfrwt>
<totfact> 0.43499998E+06</totfact>
</mgrwt>
</event>
<event>
 5    1  0.2115795E-006  0.2000347E+02  0.7818608E-02  0.1745259E+00
          1   -1    0    0  501    0  0.00000000000E+00  0.00000000000E+00  0.17358368888E+01  0.17358431708E+01  0.46700000000E-02 0.  1.
         -1   -1    0    0    0  501 -0.00000000000E+00 -0.00000000000E+00 -0.57628989091E+02  0.57628989280E+02  0.46700000000E-02 0. -1.
       1023    2    1    2    0    0  0.00000000000E+00  0.00000000000E+00 -0.55893152202E+02  0.59364832451E+02  0.20003471420E+02 0.  0.
        -13    1    3    3    0    0 -0.93523452263E+01  0.35410144845E+01 -0.28349137103E+02  0.30061435292E+02  0.10570000000E+00 0. -1.
         13    1    3    3    0    0  0.93523452263E+01 -0.35410144845E+01 -0.27544015099E+02  0.29303397159E+02  0.10570000000E+00 0.  1.
<mgrwt>
<rscale>  0 0.20003471E+02</rscale>
<asrwt>0</asrwt>
<pdfrwt beam="1">  1        1 0.26705237E-03 0.20003471E+02</pdfrwt>
<pdfrwt beam="2">  1       -1 0.88659974E-02 0.20003471E+02</pdfrwt>
<totfact> 0.34388559E+06</totfact>
</mgrwt>
</event>
<event>
 5    1  0.2115795E-006  0.2000342E+02  0.7818608E-02  0.1745260E+00
         -1   -1    0    0    0  501 -0.00000000000E+00  0.00000000000E+00  0.29992180588E+01  0.29992216946E+01  0.46700000000E-02 0.  1.
          1   -1    0    0  501    0  0.00000000000E+00 -0.00000000000E+00 -0.33353393452E+02  0.33353393779E+02  0.46700000000E-02 0. -1.
       1023    2    1    2    0    0  0.00000000000E+00  0.00000000000E+00 -0.30354175393E+02  0.36352615474E+02  0.20003416907E+02 0.  0.
        -13    1    3    3    0    0  0.12196180438E+00 -0.10000223770E+02 -0.15286871938E+02  0.18267976798E+02  0.10570000000E+00 0.  1.
         13    1    3    3    0    0 -0.12196180438E+00  0.10000223770E+02 -0.15067303455E+02  0.18084638676E+02  0.10570000000E+00 0. -1.
<mgrwt>
<rscale>  0 0.20003417E+02</rscale>
<asrwt>0</asrwt>
<pdfrwt beam="2">  1        1 0.51312913E-02 0.20003417E+02</pdfrwt>
<pdfrwt beam="1">  1       -1 0.46141849E-03 0.20003417E+02</pdfrwt>
<totfact> 0.40667566E+06</totfact>
</mgrwt>
</event>
<event>
 5    1  0.2115795E-006  0.2000130E+02  0.7818608E-02  0.1745302E+00
          1   -1    0    0  501    0  0.00000000000E+00  0.00000000000E+00  0.53000773957E+02  0.53000774163E+02  0.46700000000E-02 0. -1.
         -1   -1    0    0    0  501 -0.00000000000E+00 -0.00000000000E+00 -0.18870070117E+01  0.18870127904E+01  0.46700000000E-02 0.  1.
       1023    2    1    2    0    0  0.00000000000E+00  0.00000000000E+00  0.51113766945E+02  0.54887786953E+02  0.20001299590E+02 0.  0.
        -13    1    3    3    0    0 -0.74139048941E+01 -0.67108625437E+01  0.25591808387E+02  0.27476416995E+02  0.10570000000E+00 0. -1.
         13    1    3    3    0    0  0.74139048941E+01  0.67108625437E+01  0.25521958558E+02  0.27411369959E+02  0.10570000000E+00 0.  1.
<mgrwt>
<rscale>  0 0.20001300E+02</rscale>
<asrwt>0</asrwt>
<pdfrwt beam="1">  1        1 0.81539662E-02 0.20001300E+02</pdfrwt>
<pdfrwt beam="2">  1       -1 0.29030921E-03 0.20001300E+02</pdfrwt>
<totfact> 0.41883306E+06</totfact>
</mgrwt>
</event>
<event>
 5    1  0.2115795E-006  0.2000339E+02  0.7818608E-02  0.1745261E+00
         -1   -1    0    0    0  501 -0.00000000000E+00  0.00000000000E+00  0.78108964567E+01  0.78108978528E+01  0.46700000000E-02 0. -1.
          1   -1    0    0  501    0  0.00000000000E+00 -0.00000000000E+00 -0.12806961159E+02  0.12806962011E+02  0.46700000000E-02 0.  1.
       1023    2    1    2    0    0  0.00000000000E+00  0.00000000000E+00 -0.49960647026E+01  0.20617859864E+02  0.20003386784E+02 0.  0.
        -13    1    3    3    0    0  0.11977836237E+01 -0.99283075393E+01 -0.26313183002E+01  0.10341227427E+02  0.10570000000E+00 0.  1.
         13    1    3    3    0    0 -0.11977836237E+01  0.99283075393E+01 -0.23647464024E+01  0.10276632437E+02  0.10570000000E+00 0. -1.
<mgrwt>
<rscale>  0 0.20003387E+02</rscale>
<asrwt>0</asrwt>
<pdfrwt beam="2">  1        1 0.19703019E-02 0.20003387E+02</pdfrwt>
<pdfrwt beam="1">  1       -1 0.12016765E-02 0.20003387E+02</pdfrwt>
<totfact> 0.38987672E+06</totfact>
</mgrwt>
</event>
<event>
 4    1  0.2115795E-006  0.2010528E+02  0.7818608E-02  0.1743242E+00
         -1   -1    0    0    0  501 -0.00000000000E+00  0.00000000000E+00  0.17977447730E+02  0.17977448337E+02  0.46700000000E-02 0.  1.
          1   -1    0    0  501    0  0.00000000000E+00 -0.00000000000E+00 -0.56212408803E+01  0.56212428202E+01  0.46700000000E-02 0. -1.
        -13    1    1    2    0    0  0.74791407206E+01  0.66860055079E+01  0.54318623192E+01  0.11408615881E+02  0.10570000000E+00 0. -1.
         13    1    1    2    0    0 -0.74791407206E+01 -0.66860055079E+01  0.69243445306E+01  0.12190075276E+02  0.10570000000E+00 0.  1.
<mgrwt>
<rscale>  0 0.20105282E+02</rscale>
<asrwt>0</asrwt>
<pdfrwt beam="2">  1        1 0.86480649E-03 0.20105282E+02</pdfrwt>
<pdfrwt beam="1">  1       -1 0.27657614E-02 0.20105282E+02</pdfrwt>
<totfact> 0.37195902E+06</totfact>
</mgrwt>
</event>
<event>
 4    1  0.2115795E-006  0.2001751E+02  0.7818608E-02  0.1744980E+00
         -1   -1    0    0    0  501 -0.00000000000E+00  0.00000000000E+00  0.29646562482E+02  0.29646562850E+02  0.46700000000E-02 0.  1.
          1   -1    0    0  501    0  0.00000000000E+00 -0.00000000000E+00 -0.33789788016E+01  0.33789820288E+01  0.46700000000E-02 0. -1.
        -13    1    1    2    0    0 -0.21480202672E+01 -0.97748654541E+01  0.13207709604E+02  0.16571564536E+02  0.10570000000E+00 0. -1.
         13    1    1    2    0    0  0.21480202672E+01  0.97748654541E+01  0.13059874076E+02  0.16453980342E+02  0.10570000000E+00 0.  1.
<mgrwt>
<rscale>  0 0.20017509E+02</rscale>
<asrwt>0</asrwt>
<pdfrwt beam="2">  1        1 0.51984317E-03 0.20017509E+02</pdfrwt>
<pdfrwt beam="1">  1       -1 0.45610099E-02 0.20017509E+02</pdfrwt>
<totfact> 0.36446863E+06</totfact>
</mgrwt>
</event>
<event>
 5    1  0.2115795E-006  0.2000560E+02  0.7818608E-02  0.1745217E+00
         -1   -1    0    0    0  501 -0.00000000000E+00  0.00000000000E+00  0.37335663473E+01  0.37335692680E+01  0.46700000000E-02 0.  1.
          1   -1    0    0  501    0  0.00000000000E+00 -0.00000000000E+00 -0.26799042793E+02  0.26799043200E+02  0.46700000000E-02 0. -1.
       1023    2    1    2    0    0  0.00000000000E+00  0.00000000000E+00 -0.23065476445E+02  0.30532612468E+02  0.20005604726E+02 0.  0.
        -13    1    3    3    0    0 -0.99807011228E+01 -0.65294778063E+00 -0.11631020405E+02  0.15340552267E+02  0.10570000000E+00 0.  1.
         13    1    3    3    0    0  0.99807011228E+01  0.65294778063E+00 -0.11434456040E+02  0.15192060200E+02  0.10570000000E+00 0. -1.
<mgrwt>
<rscale>  0 0.20005605E+02</rscale>
<asrwt>0</asrwt>
<pdfrwt beam="2">  1        1 0.41229298E-02 0.20005605E+02</pdfrwt>
<pdfrwt beam="1">  1       -1 0.57439510E-03 0.20005605E+02</pdfrwt>
<totfact> 0.40206024E+06</totfact>
</mgrwt>
</event>
<event>
 5    1  0.2115795E-006  0.2000157E+02  0.7818608E-02  0.1745297E+00
          1   -1    0    0  501    0  0.00000000000E+00  0.00000000000E+00  0.63292687125E+02  0.63292687298E+02  0.46700000000E-02 0. -1.
         -1   -1    0    0    0  501 -0.00000000000E+00 -0.00000000000E+00 -0.15802054555E+01  0.15802123561E+01  0.46700000000E-02 0.  1.
       1023    2    1    2    0    0  0.00000000000E+00  0.00000000000E+00  0.61712481670E+02  0.64872899654E+02  0.20001567830E+02 0.  0.
        -13    1    3    3    0    0 -0.98126381768E+01 -0.19269927931E+01  0.31043606824E+02  0.32614687893E+02  0.10570000000E+00 0.  1.
         13    1    3    3    0    0  0.98126381768E+01  0.19269927931E+01  0.30668874846E+02  0.32258211761E+02  0.10570000000E+00 0. -1.
<mgrwt>
<rscale>  0 0.20001568E+02</rscale>
<asrwt>0</asrwt>
<pdfrwt beam="1">  1        1 0.97373360E-02 0.20001568E+02</pdfrwt>
<pdfrwt beam="2">  1       -1 0.24310910E-03 0.20001568E+02</pdfrwt>
<totfact> 0.42461974E+06</totfact>
</mgrwt>
</event>
<event>
 5    1  0.2115795E-006  0.2000721E+02  0.7818608E-02  0.1745185E+00
          1   -1    0    0  501    0  0.00000000000E+00  0.00000000000E+00  0.17616386954E+01  0.17616448854E+01  0.46700000000E-02 0.  1.
         -1   -1    0    0    0  501 -0.00000000000E+00 -0.00000000000E+00 -0.56806156065E+02  0.56806156257E+02  0.46700000000E-02 0. -1.
       1023    2    1    2    0    0  0.00000000000E+00  0.00000000000E+00 -0.55044517370E+02  0.58567801143E+02  0.20007209656E+02 0.  0.
        -13    1    3    3    0    0  0.71755766513E+01  0.69688383064E+01 -0.27271643232E+02  0.29048361480E+02  0.10570000000E+00 0. -1.
         13    1    3    3    0    0 -0.71755766513E+01 -0.69688383064E+01 -0.27772874138E+02  0.29519439663E+02  0.10570000000E+00 0.  1.
<mgrwt>
<rscale>  0 0.20007210E+02</rscale>
<asrwt>0</asrwt>
<pdfrwt beam="1">  1        1 0.27102187E-03 0.20007210E+02</pdfrwt>
<pdfrwt beam="2">  1       -1 0.87394077E-02 0.20007210E+02</pdfrwt>
<totfact> 0.34429973E+06</totfact>
</mgrwt>
</event>
<event>
 5    1  0.2115795E-006  0.2000619E+02  0.7818608E-02  0.1745205E+00
          1   -1    0    0  501    0  0.00000000000E+00  0.00000000000E+00  0.17007203686E+02  0.17007204327E+02  0.46700000000E-02 0. -1.
         -1   -1    0    0    0  501 -0.00000000000E+00 -0.00000000000E+00 -0.58834989739E+01  0.58835008273E+01  0.46700000000E-02 0.  1.
       1023    2    1    2    0    0  0.00000000000E+00  0.00000000000E+00  0.11123704712E+02  0.22890705154E+02  0.20006188441E+02 0.  0.
        -13    1    3    3    0    0  0.83909981963E+01  0.54421316740E+01  0.57430294187E+01  0.11533395306E+02  0.10570000000E+00 0. -1.
         13    1    3    3    0    0 -0.83909981963E+01 -0.54421316740E+01  0.53806752930E+01  0.11357309848E+02  0.10570000000E+00 0.  1.
<mgrwt>
<rscale>  0 0.20006188E+02</rscale>
<asrwt>0</asrwt>
<pdfrwt beam="1">  1        1 0.26164930E-02 0.20006188E+02</pdfrwt>
<pdfrwt beam="2">  1       -1 0.90515389E-03 0.20006188E+02</pdfrwt>
<totfact> 0.39414061E+06</totfact>
</mgrwt>
</event>
<event>
 5    1  0.2115795E-006  0.2000243E+02  0.7818608E-02  0.1745280E+00
          1   -1    0    0  501    0  0.00000000000E+00  0.00000000000E+00  0.10508955614E+01  0.10509059377E+01  0.46700000000E-02 0.  1.
         -1   -1    0    0    0  501 -0.00000000000E+00 -0.00000000000E+00 -0.95179565105E+02  0.95179565219E+02  0.46700000000E-02 0. -1.
       1023    2    1    2    0    0  0.00000000000E+00  0.00000000000E+00 -0.94128669543E+02  0.96230471157E+02  0.20002428580E+02 0.  0.
        -13    1    3    3    0    0 -0.84931383882E+01  0.52797630003E+01 -0.47361593543E+02  0.48406001822E+02  0.10570000000E+00 0. -1.
         13    1    3    3    0    0  0.84931383882E+01 -0.52797630003E+01 -0.46767076000E+02  0.47824469335E+02  0.10570000000E+00 0.  1.
<mgrwt>
<rscale>  0 0.20002429E+02</rscale>
<asrwt>0</asrwt>
<pdfrwt beam="1">  1        1 0.16167712E-03 0.20002429E+02</pdfrwt>
<pdfrwt beam="2">  1       -1 0.14643004E-01 0.20002429E+02</pdfrwt>
<totfact> 0.32120930E+06</totfact>
</mgrwt>
</event>
<event>
 5    1  0.2115795E-006  0.2000390E+02  0.7818608E-02  0.1745251E+00
          1   -1    0    0  501    0  0.00000000000E+00  0.00000000000E+00  0.13059553686E+01  0.13059637184E+01  0.46700000000E-02 0. -1.
         -1   -1    0    0    0  501 -0.00000000000E+00 -0.00000000000E+00 -0.76601871053E+02  0.76601871196E+02  0.46700000000E-02 0.  1.
       1023    2    1    2    0    0  0.00000000000E+00  0.00000000000E+00 -0.75295915685E+02  0.77907834914E+02  0.20003895175E+02 0.  0.
        -13    1    3    3    0    0  0.97901722023E+01 -0.20421210226E+01 -0.38038452566E+02  0.39331320549E+02  0.10570000000E+00 0.  1.
         13    1    3    3    0    0 -0.97901722023E+01  0.20421210226E+01 -0.37257463119E+02  0.38576514365E+02  0.10570000000E+00 0. -1.
<mgrwt>
<rscale>  0 0.20003895E+02</rscale>
<asrwt>0</asrwt>
<pdfrwt beam="1">  1        1 0.20091692E-03 0.20003895E+02</pdfrwt>
<pdfrwt beam="2">  1       -1 0.11784900E-01 0.20003895E+02</pdfrwt>
<totfact> 0.33181826E+06</totfact>
</mgrwt>
</event>
<event>
 5    1  0.2115795E-006  0.2000484E+02  0.7818608E-02  0.1745232E+00
         -1   -1    0    0    0  501 -0.00000000000E+00  0.00000000000E+00  0.23544132335E+01  0.23544178650E+01  0.46700000000E-02 0.  1.
          1   -1    0    0  501    0  0.00000000000E+00 -0.00000000000E+00 -0.42493925781E+02  0.42493926037E+02  0.46700000000E-02 0. -1.
       1023    2    1    2    0    0  0.00000000000E+00  0.00000000000E+00 -0.40139512547E+02  0.44848343902E+02  0.20004836497E+02 0.  0.
        -13    1    3    3    0    0 -0.74225127044E+01  0.67025292737E+01 -0.19755855243E+02  0.22143228816E+02  0.10570000000E+00 0. -1.
         13    1    3    3    0    0  0.74225127044E+01 -0.67025292737E+01 -0.20383657304E+02  0.22705115087E+02  0.10570000000E+00 0.  1.
<mgrwt>
<rscale>  0 0.20004836E+02</rscale>
<asrwt>0</asrwt>
<pdfrwt beam="2">  1        1 0.65375269E-02 0.20004836E+02</pdfrwt>
<pdfrwt beam="1">  1       -1 0.36221783E-03 0.20004836E+02</pdfrwt>
<totfact> 0.41242663E+06</totfact>
</mgrwt>
</event>
<event>
 5    1  0.2115795E-006  0.2000321E+02  0.7818608E-02  0.1745264E+00
         -1   -1    0    0    0  501 -0.00000000000E+00  0.00000000000E+00  0.11550839790E+03  0.11550839800E+03  0.46700000000E-02 0.  1.
          1   -1    0    0  501    0  0.00000000000E+00 -0.00000000000E+00 -0.86600974732E+00  0.86602233883E+00  0.46700000000E-02 0. -1.
       1023    2    1    2    0    0  0.00000000000E+00  0.00000000000E+00  0.11464238816E+03  0.11637442034E+03  0.20003213406E+02 0.  0.
        -13    1    3    3    0    0  0.47832186487E+01 -0.87827480980E+01  0.57737454825E+02  0.58597275594E+02  0.10570000000E+00 0.  1.
         13    1    3    3    0    0 -0.47832186487E+01  0.87827480980E+01  0.56904933332E+02  0.57777144744E+02  0.10570000000E+00 0. -1.
<mgrwt>
<rscale>  0 0.20003213E+02</rscale>
<asrwt>0</asrwt>
<pdfrwt beam="2">  1        1 0.13323323E-03 0.20003213E+02</pdfrwt>
<pdfrwt beam="1">  1       -1 0.17770526E-01 0.20003213E+02</pdfrwt>
<totfact> 0.31049994E+06</totfact>
</mgrwt>
</event>
<event>
 5    1  0.2115795E-006  0.2000241E+02  0.7818608E-02  0.1745280E+00
          1   -1    0    0  501    0  0.00000000000E+00  0.00000000000E+00  0.18553643599E+01  0.18553702372E+01  0.46700000000E-02 0. -1.
         -1   -1    0    0    0  501 -0.00000000000E+00 -0.00000000000E+00 -0.53910688999E+02  0.53910689202E+02  0.46700000000E-02 0.  1.
       1023    2    1    2    0    0  0.00000000000E+00  0.00000000000E+00 -0.52055324640E+02  0.55766059439E+02  0.20002413905E+02 0.  0.
        -13    1    3    3    0    0  0.56558835622E+01 -0.82473218173E+01 -0.26236889633E+02  0.28078334818E+02  0.10570000000E+00 0.  1.
         13    1    3    3    0    0 -0.56558835622E+01  0.82473218173E+01 -0.25818435006E+02  0.27687724621E+02  0.10570000000E+00 0. -1.
<mgrwt>
<rscale>  0 0.20002414E+02</rscale>
<asrwt>0</asrwt>
<pdfrwt beam="1">  1        1 0.28544118E-03 0.20002414E+02</pdfrwt>
<pdfrwt beam="2">  1       -1 0.82939514E-02 0.20002414E+02</pdfrwt>
<totfact> 0.34646165E+06</totfact>
</mgrwt>
</event>
<event>
 4    1  0.2115795E-006  0.2014138E+02  0.7818608E-02  0.1742531E+00
         -1   -1    0    0    0  501 -0.00000000000E+00  0.00000000000E+00  0.14891751148E+01  0.14891824373E+01  0.46700000000E-02 0. -1.
          1   -1    0    0  501    0  0.00000000000E+00 -0.00000000000E+00 -0.68103865748E+02  0.68103865908E+02  0.46700000000E-02 0.  1.
        -13    1    1    2    0    0  0.10004257864E+02  0.21429862027E+00 -0.29403442756E+02  0.31059696034E+02  0.10570000000E+00 0.  1.
         13    1    1    2    0    0 -0.10004257864E+02 -0.21429862027E+00 -0.37211247876E+02  0.38533352311E+02  0.10570000000E+00 0. -1.
<mgrwt>
<rscale>  0 0.20141385E+02</rscale>
<asrwt>0</asrwt>
<pdfrwt beam="2">  1        1 0.10477516E-01 0.20141385E+02</pdfrwt>
<pdfrwt beam="1">  1       -1 0.22910449E-03 0.20141385E+02</pdfrwt>
<totfact> 0.42069781E+06</totfact>
</mgrwt>
</event>
<event>
 5    1  0.2115795E-006  0.2000642E+02  0.7818608E-02  0.1745201E+00
          1   -1    0    0  501    0  0.00000000000E+00  0.00000000000E+00  0.49377443461E+01  0.49377465545E+01  0.46700000000E-02 0.  1.
         -1   -1    0    0    0  501 -0.00000000000E+00 -0.00000000000E+00 -0.20265152117E+02  0.20265152655E+02  0.46700000000E-02 0. -1.
       1023    2    1    2    0    0  0.00000000000E+00  0.00000000000E+00 -0.15327407771E+02  0.25202899209E+02  0.20006416460E+02 0.  0.
        -13    1    3    3    0    0 -0.16810214030E+01 -0.98595580843E+01 -0.78244570410E+01  0.12699213324E+02  0.10570000000E+00 0.  1.
         13    1    3    3    0    0  0.16810214030E+01  0.98595580843E+01 -0.75029507297E+01  0.12503685885E+02  0.10570000000E+00 0. -1.
<mgrwt>
<rscale>  0 0.20006416E+02</rscale>
<asrwt>0</asrwt>
<pdfrwt beam="1">  1        1 0.75965320E-03 0.20006416E+02</pdfrwt>
<pdfrwt beam="2">  1       -1 0.31177159E-02 0.20006416E+02</pdfrwt>
<totfact> 0.37363537E+06</totfact>
</mgrwt>
</event>
<event>
 5    1  0.2115795E-006  0.2000368E+02  0.7818608E-02  0.1745255E+00
          1   -1    0    0  501    0  0.00000000000E+00  0.00000000000E+00  0.85985330591E+00  0.85986598757E+00  0.46700000000E-02 0.  1.
         -1   -1    0    0    0  501 -0.00000000000E+00 -0.00000000000E+00 -0.11634084754E+03  0.11634084763E+03  0.46700000000E-02 0. -1.
       1023    2    1    2    0    0  0.00000000000E+00  0.00000000000E+00 -0.11548099423E+03  0.11720071362E+03  0.20003680762E+02 0.  0.
        -13    1    3    3    0    0 -0.98038532684E+01 -0.19771978851E+01 -0.57904979661E+02  0.58762425856E+02  0.10570000000E+00 0.  1.
         13    1    3    3    0    0  0.98038532684E+01  0.19771978851E+01 -0.57576014568E+02  0.58438287761E+02  0.10570000000E+00 0. -1.
<mgrwt>
<rscale>  0 0.20003681E+02</rscale>
<asrwt>0</asrwt>
<pdfrwt beam="1">  1        1 0.13228620E-03 0.20003681E+02</pdfrwt>
<pdfrwt beam="2">  1       -1 0.17898580E-01 0.20003681E+02</pdfrwt>
<totfact> 0.31006540E+06</totfact>
</mgrwt>
</event>
<event>
 5    1  0.2115795E-006  0.2000309E+02  0.7818608E-02  0.1745267E+00
         -1   -1    0    0    0  501 -0.00000000000E+00  0.00000000000E+00  0.83083565958E+02  0.83083566089E+02  0.46700000000E-02 0.  1.
          1   -1    0    0  501    0  0.00000000000E+00 -0.00000000000E+00 -0.12039752307E+01  0.12039842878E+01  0.46700000000E-02 0. -1.
       1023    2    1    2    0    0  0.00000000000E+00  0.00000000000E+00  0.81879590727E+02  0.84287550377E+02  0.20003094033E+02 0.  0.
        -13    1    3    3    0    0  0.94420350722E+01 -0.32937804789E+01  0.40362744379E+02  0.41583209622E+02  0.10570000000E+00 0. -1.
         13    1    3    3    0    0 -0.94420350722E+01  0.32937804789E+01  0.41516846348E+02  0.42704340755E+02  0.10570000000E+00 0.  1.
<mgrwt>
<rscale>  0 0.20003094E+02</rscale>
<asrwt>0</asrwt>
<pdfrwt beam="2">  1        1 0.18522764E-03 0.20003094E+02</pdfrwt>
<pdfrwt beam="1">  1       -1 0.12782089E-01 0.20003094E+02</pdfrwt>
<totfact> 0.32801553E+06</totfact>
</mgrwt>
</event>
<event>
 5    1  0.2115795E-006  0.2001100E+02  0.7818608E-02  0.1745109E+00
          1   -1    0    0  501    0  0.00000000000E+00  0.00000000000E+00  0.11320018105E+03  0.11320018114E+03  0.46700000000E-02 0. -1.
         -1   -1    0    0    0  501 -0.00000000000E+00 -0.00000000000E+00 -0.88435661385E+00  0.88436894414E+00  0.46700000000E-02 0.  1.
       1023    2    1    2    0    0  0.00000000000E+00  0.00000000000E+00  0.11231582443E+03  0.11408455009E+03  0.20011000739E+02 0.  0.
        -13    1    3    3    0    0  0.54331492038E+01 -0.84001898010E+01  0.55424126440E+02  0.56319865616E+02  0.10570000000E+00 0. -1.
         13    1    3    3    0    0 -0.54331492038E+01  0.84001898010E+01  0.56891697993E+02  0.57764684471E+02  0.10570000000E+00 0.  1.
<mgrwt>
<rscale>  0 0.20011001E+02</rscale>
<asrwt>0</asrwt>
<pdfrwt beam="1">  1        1 0.17415403E-01 0.20011001E+02</pdfrwt>
<pdfrwt beam="2">  1       -1 0.13605590E-03 0.20011001E+02</pdfrwt>
<totfact> 0.44932674E+06</totfact>
</mgrwt>
</event>
<event>
 5    1  0.2115795E-006  0.2000243E+02  0.7818608E-02  0.1745280E+00
         -1   -1    0    0    0  501 -0.00000000000E+00  0.00000000000E+00  0.11263873938E+02  0.11263874906E+02  0.46700000000E-02 0. -1.
          1   -1    0    0  501    0  0.00000000000E+00 -0.00000000000E+00 -0.88800970030E+01  0.88800982310E+01  0.46700000000E-02 0.  1.
       1023    2    1    2    0    0  0.00000000000E+00  0.00000000000E+00  0.23837769350E+01  0.20143973137E+02  0.20002431384E+02 0.  0.
        -13    1    3    3    0    0  0.77927392938E+00  0.99697019740E+01  0.12971147849E+01  0.10084438733E+02  0.10570000000E+00 0. -1.
         13    1    3    3    0    0 -0.77927392938E+00 -0.99697019740E+01  0.10866621501E+01  0.10059534404E+02  0.10570000000E+00 0.  1.
<mgrwt>
<rscale>  0 0.20002431E+02</rscale>
<asrwt>0</asrwt>
<pdfrwt beam="2">  1        1 0.13661689E-02 0.20002431E+02</pdfrwt>
<pdfrwt beam="1">  1       -1 0.17329038E-02 0.20002431E+02</pdfrwt>
<totfact> 0.38427139E+06</totfact>
</mgrwt>
</event>
<event>
 5    1  0.2115795E-006  0.2000813E+02  0.7818608E-02  0.1745166E+00
          1   -1    0    0  501    0  0.00000000000E+00  0.00000000000E+00  0.29803493447E+01  0.29803530034E+01  0.46700000000E-02 0.  1.
         -1   -1    0    0    0  501 -0.00000000000E+00 -0.00000000000E+00 -0.33580384284E+02  0.33580384609E+02  0.46700000000E-02 0. -1.
       1023    2    1    2    0    0  0.00000000000E+00  0.00000000000E+00 -0.30600034940E+02  0.36560737613E+02  0.20008133258E+02 0.  0.
        -13    1    3    3    0    0 -0.93932792979E+01 -0.34378008497E+01 -0.15054819595E+02  0.18075146920E+02  0.10570000000E+00 0.  1.
         13    1    3    3    0    0  0.93932792979E+01  0.34378008497E+01 -0.15545215345E+02  0.18485590693E+02  0.10570000000E+00 0. -1.
<mgrwt>
<rscale>  0 0.20008133E+02</rscale>
<asrwt>0</asrwt>
<pdfrwt beam="1">  1        1 0.45851561E-03 0.20008133E+02</pdfrwt>
<pdfrwt beam="2">  1       -1 0.51662130E-02 0.20008133E+02</pdfrwt>
<totfact> 0.36151773E+06</totfact>
</mgrwt>
</event>
<event>
 5    1  0.2115795E-006  0.2000387E+02  0.7818608E-02  0.1745251E+00
         -1   -1    0    0    0  501 -0.00000000000E+00  0.00000000000E+00  0.96928516265E+02  0.96928516378E+02  0.46700000000E-02 0.  1.
          1   -1    0    0  501    0  0.00000000000E+00 -0.00000000000E+00 -0.10320821548E+01  0.10320927203E+01  0.46700000000E-02 0. -1.
       1023    2    1    2    0    0  0.00000000000E+00  0.00000000000E+00  0.95896434110E+02  0.97960609098E+02  0.20003871119E+02 0.  0.
        -13    1    3    3    0    0  0.81169768964E+01 -0.58429673300E+01  0.47731342406E+02  0.48767999770E+02  0.10570000000E+00 0.  1.
         13    1    3    3    0    0 -0.81169768964E+01  0.58429673300E+01  0.48165091704E+02  0.49192609328E+02  0.10570000000E+00 0. -1.
<mgrwt>
<rscale>  0 0.20003871E+02</rscale>
<asrwt>0</asrwt>
<pdfrwt beam="2">  1        1 0.15878268E-03 0.20003871E+02</pdfrwt>
<pdfrwt beam="1">  1       -1 0.14912081E-01 0.20003871E+02</pdfrwt>
<totfact> 0.32020297E+06</totfact>
</mgrwt>
</event>
<event>
 5    1  0.2115795E-006  0.2000289E+02  0.7818608E-02  0.1745271E+00
          1   -1    0    0  501    0  0.00000000000E+00  0.00000000000E+00  0.19538642903E+01  0.19538698712E+01  0.46700000000E-02 0.  1.
         -1   -1    0    0    0  501 -0.00000000000E+00 -0.00000000000E+00 -0.51195330762E+02  0.51195330975E+02  0.46700000000E-02 0. -1.
       1023    2    1    2    0    0  0.00000000000E+00  0.00000000000E+00 -0.49241466471E+02  0.53149200846E+02  0.20002888049E+02 0.  0.
        -13    1    3    3    0    0  0.54156618534E+01  0.84076206619E+01 -0.24580298362E+02  0.26537138477E+02  0.10570000000E+00 0.  1.
         13    1    3    3    0    0 -0.54156618534E+01 -0.84076206619E+01 -0.24661168109E+02  0.26612062369E+02  0.10570000000E+00 0. -1.
<mgrwt>
<rscale>  0 0.20002888E+02</rscale>
<asrwt>0</asrwt>
<pdfrwt beam="1">  1        1 0.30059499E-03 0.20002888E+02</pdfrwt>
<pdfrwt beam="2">  1       -1 0.78762042E-02 0.20002888E+02</pdfrwt>
<totfact> 0.34833872E+06</totfact>
</mgrwt>
</event>
<event>
 5    1  0.2115795E-006  0.2000161E+02  0.7818608E-02  0.1745296E+00
         -1   -1    0    0    0  501 -0.00000000000E+00  0.00000000000E+00  0.18081400536E+02  0.18081401139E+02  0.46700000000E-02 0.  1.
          1   -1    0    0  501    0  0.00000000000E+00 -0.00000000000E+00 -0.55314355377E+01  0.55314375091E+01  0.46700000000E-02 0. -1.
       1023    2    1    2    0    0  0.00000000000E+00  0.00000000000E+00  0.12549964998E+02  0.23612838648E+02  0.20001613124E+02 0.  0.
        -13    1    3    3    0    0  0.74219175700E+01 -0.67022339964E+01  0.62601225321E+01  0.11798521414E+02  0.10570000000E+00 0. -1.
         13    1    3    3    0    0 -0.74219175700E+01  0.67022339964E+01  0.62898424657E+01  0.11814317233E+02  0.10570000000E+00 0.  1.
<mgrwt>
<rscale>  0 0.20001613E+02</rscale>
<asrwt>0</asrwt>
<pdfrwt beam="2">  1        1 0.85099029E-03 0.20001613E+02</pdfrwt>
<pdfrwt beam="1">  1       -1 0.27817541E-02 0.20001613E+02</pdfrwt>
<totfact> 0.37609694E+06</totfact>
</mgrwt>
</event>
<event>
 4    1  0.2115795E-006  0.2037347E+02  0.7818608E-02  0.1738001E+00
          1   -1    0    0  501    0  0.00000000000E+00  0.00000000000E+00  0.29034957655E+01  0.29034995211E+01  0.46700000000E-02 0.  1.
         -1   -1    0    0    0  501 -0.00000000000E+00 -0.00000000000E+00 -0.35739510770E+02  0.35739511075E+02  0.46700000000E-02 0. -1.
        -13    1    1    2    0    0 -0.92472643164E+01  0.40540795224E+01 -0.18970479859E+02  0.21490410342E+02  0.10570000000E+00 0. -1.
         13    1    1    2    0    0  0.92472643164E+01 -0.40540795224E+01 -0.13865535146E+02  0.17152600255E+02  0.10570000000E+00 0.  1.
<mgrwt>
<rscale>  0 0.20373473E+02</rscale>
<asrwt>0</asrwt>
<pdfrwt beam="1">  1        1 0.44669199E-03 0.20373473E+02</pdfrwt>
<pdfrwt beam="2">  1       -1 0.54983863E-02 0.20373473E+02</pdfrwt>
<totfact> 0.34568913E+06</totfact>
</mgrwt>
</event>
<event>
 4    1  0.2115795E-006  0.2001561E+02  0.7818608E-02  0.1745018E+00
         -1   -1    0    0    0  501 -0.00000000000E+00  0.00000000000E+00  0.22715007669E+02  0.22715008149E+02  0.46700000000E-02 0. -1.
          1   -1    0    0  501    0  0.00000000000E+00 -0.00000000000E+00 -0.44092478943E+01  0.44092503673E+01  0.46700000000E-02 0.  1.
        -13    1    1    2    0    0 -0.15532439389E+01  0.98834844389E+01  0.94532720284E+01  0.13764859459E+02  0.10570000000E+00 0. -1.
         13    1    1    2    0    0  0.15532439389E+01 -0.98834844389E+01  0.88524877460E+01  0.13359399057E+02  0.10570000000E+00 0.  1.
<mgrwt>
<rscale>  0 0.20015608E+02</rscale>
<asrwt>0</asrwt>
<pdfrwt beam="2">  1        1 0.67834606E-03 0.20015608E+02</pdfrwt>
<pdfrwt beam="1">  1       -1 0.34946168E-02 0.20015608E+02</pdfrwt>
<totfact> 0.37084624E+06</totfact>
</mgrwt>
</event>
<event>
 5    1  0.2115795E-006  0.2000121E+02  0.7818608E-02  0.1745304E+00
         -1   -1    0    0    0  501 -0.00000000000E+00  0.00000000000E+00  0.89306619999E+00  0.89307841004E+00  0.46700000000E-02 0. -1.
          1   -1    0    0  501    0  0.00000000000E+00 -0.00000000000E+00 -0.11198658984E+03  0.11198658993E+03  0.46700000000E-02 0.  1.
       1023    2    1    2    0    0  0.00000000000E+00  0.00000000000E+00 -0.11109352364E+03  0.11287966834E+03  0.20001213249E+02 0.  0.
        -13    1    3    3    0    0 -0.16993335142E+00 -0.99985915443E+01 -0.55457499506E+02  0.56351984297E+02  0.10570000000E+00 0. -1.
         13    1    3    3    0    0  0.16993335142E+00  0.99985915443E+01 -0.55636024129E+02  0.56527684046E+02  0.10570000000E+00 0.  1.
<mgrwt>
<rscale>  0 0.20001213E+02</rscale>
<asrwt>0</asrwt>
<pdfrwt beam="2">  1        1 0.17228696E-01 0.20001213E+02</pdfrwt>
<pdfrwt beam="1">  1       -1 0.13739584E-03 0.20001213E+02</pdfrwt>
<totfact> 0.44924604E+06</totfact>
</mgrwt>
</event>
<event>
 5    1  0.2115795E-006  0.2000630E+02  0.7818608E-02  0.1745203E+00
          1   -1    0    0  501    0  0.00000000000E+00  0.00000000000E+00  0.10958817839E+01  0.10958917342E+01  0.46700000000E-02 0.  1.
         -1   -1    0    0    0  501 -0.00000000000E+00 -0.00000000000E+00 -0.91307810140E+02  0.91307810259E+02  0.46700000000E-02 0. -1.
       1023    2    1    2    0    0  0.00000000000E+00  0.00000000000E+00 -0.90211928356E+02  0.92403701994E+02  0.20006302117E+02 0.  0.
        -13    1    3    3    0    0 -0.66796034952E+01 -0.74428968176E+01 -0.46006826321E+02  0.47081345101E+02  0.10570000000E+00 0.  1.
         13    1    3    3    0    0  0.66796034952E+01  0.74428968176E+01 -0.44205102035E+02  0.45322356893E+02  0.10570000000E+00 0. -1.
<mgrwt>
<rscale>  0 0.20006302E+02</rscale>
<asrwt>0</asrwt>
<pdfrwt beam="1">  1        1 0.16859804E-03 0.20006302E+02</pdfrwt>
<pdfrwt beam="2">  1       -1 0.14047350E-01 0.20006302E+02</pdfrwt>
<totfact> 0.32321546E+06</totfact>
</mgrwt>
</event>
<event>
 5    1  0.2115795E-006  0.2000601E+02  0.7818608E-02  0.1745209E+00
         -1   -1    0    0    0  501 -0.00000000000E+00  0.00000000000E+00  0.33949323603E+02  0.33949323924E+02  0.46700000000E-02 0. -1.
          1   -1    0    0  501    0  0.00000000000E+00 -0.00000000000E+00 -0.29473356565E+01  0.29473393563E+01  0.46700000000E-02 0.  1.
       1023    2    1    2    0    0  0.00000000000E+00  0.00000000000E+00  0.31001987947E+02  0.36896663281E+02  0.20006011712E+02 0.  0.
        -13    1    3    3    0    0 -0.46122730860E+01  0.88733982436E+01  0.15863779370E+02  0.18753157809E+02  0.10570000000E+00 0.  1.
         13    1    3    3    0    0  0.46122730860E+01 -0.88733982436E+01  0.15138208576E+02  0.18143505472E+02  0.10570000000E+00 0. -1.
<mgrwt>
<rscale>  0 0.20006012E+02</rscale>
<asrwt>0</asrwt>
<pdfrwt beam="2">  1        1 0.45343655E-03 0.20006012E+02</pdfrwt>
<pdfrwt beam="1">  1       -1 0.52229733E-02 0.20006012E+02</pdfrwt>
<totfact> 0.36129784E+06</totfact>
</mgrwt>
</event>
<event>
 4    1  0.2115795E-006  0.2004991E+02  0.7818608E-02  0.1744337E+00
         -1   -1    0    0    0  501 -0.00000000000E+00  0.00000000000E+00  0.15849602783E+01  0.15849671583E+01  0.46700000000E-02 0. -1.
          1   -1    0    0  501    0  0.00000000000E+00 -0.00000000000E+00 -0.63408219408E+02  0.63408219580E+02  0.46700000000E-02 0.  1.
        -13    1    1    2    0    0  0.12224239849E+01 -0.99403966130E+01 -0.32297416869E+02  0.33814791351E+02  0.10570000000E+00 0. -1.
         13    1    1    2    0    0 -0.12224239849E+01  0.99403966130E+01 -0.29525842260E+02  0.31178395386E+02  0.10570000000E+00 0.  1.
<mgrwt>
<rscale>  0 0.20049912E+02</rscale>
<asrwt>0</asrwt>
<pdfrwt beam="2">  1        1 0.97551093E-02 0.20049912E+02</pdfrwt>
<pdfrwt beam="1">  1       -1 0.24384063E-03 0.20049912E+02</pdfrwt>
<totfact> 0.42241613E+06</totfact>
</mgrwt>
</event>
<event>
 5    1  0.2115795E-006  0.2000135E+02  0.7818608E-02  0.1745301E+00
          1   -1    0    0  501    0  0.00000000000E+00  0.00000000000E+00  0.23614834481E+02  0.23614834943E+02  0.46700000000E-02 0. -1.
         -1   -1    0    0    0  501 -0.00000000000E+00 -0.00000000000E+00 -0.42351973376E+01  0.42351999123E+01  0.46700000000E-02 0.  1.
       1023    2    1    2    0    0  0.00000000000E+00  0.00000000000E+00  0.19379637144E+02  0.27850034855E+02  0.20001352595E+02 0.  0.
        -13    1    3    3    0    0 -0.88586965695E+00  0.99607573330E+01  0.96479948656E+01  0.13895914116E+02  0.10570000000E+00 0.  1.
         13    1    3    3    0    0  0.88586965695E+00 -0.99607573330E+01  0.97316422783E+01  0.13954120740E+02  0.10570000000E+00 0. -1.
<mgrwt>
<rscale>  0 0.20001353E+02</rscale>
<asrwt>0</asrwt>
<pdfrwt beam="1">  1        1 0.36330517E-02 0.20001353E+02</pdfrwt>
<pdfrwt beam="2">  1       -1 0.65156906E-03 0.20001353E+02</pdfrwt>
<totfact> 0.39988697E+06</totfact>
</mgrwt>
</event>
<event>
 5    1  0.2115795E-006  0.2000355E+02  0.7818608E-02  0.1745257E+00
         -1   -1    0    0    0  501 -0.00000000000E+00  0.00000000000E+00  0.83939140691E+02  0.83939140821E+02  0.46700000000E-02 0.  1.
          1   -1    0    0  501    0  0.00000000000E+00 -0.00000000000E+00 -0.11917579236E+01  0.11917670734E+01  0.46700000000E-02 0. -1.
       1023    2    1    2    0    0  0.00000000000E+00  0.00000000000E+00  0.82747382767E+02  0.85130907894E+02  0.20003552786E+02 0.  0.
        -13    1    3    3    0    0 -0.78144518937E+01 -0.62409860305E+01  0.41772772229E+02  0.42953361186E+02  0.10570000000E+00 0.  1.
         13    1    3    3    0    0  0.78144518937E+01  0.62409860305E+01  0.40974610539E+02  0.42177546708E+02  0.10570000000E+00 0. -1.
<mgrwt>
<rscale>  0 0.20003553E+02</rscale>
<asrwt>0</asrwt>
<pdfrwt beam="2">  1        1 0.18334808E-03 0.20003553E+02</pdfrwt>
<pdfrwt beam="1">  1       -1 0.12913715E-01 0.20003553E+02</pdfrwt>
<totfact> 0.32750282E+06</totfact>
</mgrwt>
</event>
<event>
 5    1  0.2115795E-006  0.2000733E+02  0.7818608E-02  0.1745182E+00
         -1   -1    0    0    0  501 -0.00000000000E+00  0.00000000000E+00  0.35080277410E+01  0.35080308495E+01  0.46700000000E-02 0.  1.
          1   -1    0    0  501    0  0.00000000000E+00 -0.00000000000E+00 -0.28526939004E+02  0.28526939387E+02  0.46700000000E-02 0. -1.
       1023    2    1    2    0    0  0.00000000000E+00  0.00000000000E+00 -0.25018911263E+02  0.32034970236E+02  0.20007333586E+02 0.  0.
        -13    1    3    3    0    0 -0.86370394465E+01 -0.50458586604E+01 -0.12597691019E+02  0.16086395853E+02  0.10570000000E+00 0.  1.
         13    1    3    3    0    0  0.86370394465E+01  0.50458586604E+01 -0.12421220244E+02  0.15948574383E+02  0.10570000000E+00 0. -1.
<mgrwt>
<rscale>  0 0.20007334E+02</rscale>
<asrwt>0</asrwt>
<pdfrwt beam="2">  1        1 0.43887600E-02 0.20007334E+02</pdfrwt>
<pdfrwt beam="1">  1       -1 0.53969686E-03 0.20007334E+02</pdfrwt>
<totfact> 0.40321191E+06</totfact>
</mgrwt>
</event>
<event>
 5    1  0.2115795E-006  0.2000370E+02  0.7818608E-02  0.1745254E+00
         -1   -1    0    0    0  501 -0.00000000000E+00  0.00000000000E+00  0.11619529996E+02  0.11619530934E+02  0.46700000000E-02 0. -1.
          1   -1    0    0  501    0  0.00000000000E+00 -0.00000000000E+00 -0.86093863234E+01  0.86093875900E+01  0.46700000000E-02 0.  1.
       1023    2    1    2    0    0  0.00000000000E+00  0.00000000000E+00  0.30101436724E+01  0.20228918524E+02  0.20003704150E+02 0.  0.
        -13    1    3    3    0    0 -0.80417410643E+00  0.99686568765E+01  0.14331619694E+01  0.10103758787E+02  0.10570000000E+00 0. -1.
         13    1    3    3    0    0  0.80417410643E+00 -0.99686568765E+01  0.15769817030E+01  0.10125159737E+02  0.10570000000E+00 0.  1.
<mgrwt>
<rscale>  0 0.20003704E+02</rscale>
<asrwt>0</asrwt>
<pdfrwt beam="2">  1        1 0.13245211E-02 0.20003704E+02</pdfrwt>
<pdfrwt beam="1">  1       -1 0.17876202E-02 0.20003704E+02</pdfrwt>
<totfact> 0.38372145E+06</totfact>
</mgrwt>
</event>
<event>
 5    1  0.2115795E-006  0.2000340E+02  0.7818608E-02  0.1745260E+00
          1   -1    0    0  501    0  0.00000000000E+00  0.00000000000E+00  0.16511475072E+02  0.16511475732E+02  0.46700000000E-02 0.  1.
         -1   -1    0    0    0  501 -0.00000000000E+00 -0.00000000000E+00 -0.60584529081E+01  0.60584547079E+01  0.46700000000E-02 0. -1.
       1023    2    1    2    0    0  0.00000000000E+00  0.00000000000E+00  0.10453022164E+02  0.22569930440E+02  0.20003401904E+02 0.  0.
        -13    1    3    3    0    0 -0.29555169927E+01 -0.95537220880E+01  0.50922333006E+01  0.11222775900E+02  0.10570000000E+00 0.  1.
         13    1    3    3    0    0  0.29555169927E+01  0.95537220880E+01  0.53607888634E+01  0.11347154540E+02  0.10570000000E+00 0. -1.
<mgrwt>
<rscale>  0 0.20003402E+02</rscale>
<asrwt>0</asrwt>
<pdfrwt beam="1">  1        1 0.25402271E-02 0.20003402E+02</pdfrwt>
<pdfrwt beam="2">  1       -1 0.93206987E-03 0.20003402E+02</pdfrwt>
<totfact> 0.39379538E+06</totfact>
</mgrwt>
</event>
<event>
 5    1  0.2115795E-006  0.2000353E+02  0.7818608E-02  0.1745258E+00
         -1   -1    0    0    0  501 -0.00000000000E+00  0.00000000000E+00  0.97206809186E+01  0.97206820403E+01  0.46700000000E-02 0.  1.
          1   -1    0    0  501    0  0.00000000000E+00 -0.00000000000E+00 -0.10290972725E+02  0.10290973784E+02  0.46700000000E-02 0. -1.
       1023    2    1    2    0    0  0.00000000000E+00  0.00000000000E+00 -0.57029180626E+00  0.20011655825E+02  0.20003528091E+02 0.  0.
        -13    1    3    3    0    0  0.32211466648E+01  0.94682309757E+01 -0.31561959612E+00  0.10006696351E+02  0.10570000000E+00 0. -1.
         13    1    3    3    0    0 -0.32211466648E+01 -0.94682309757E+01 -0.25467221015E+00  0.10004959474E+02  0.10570000000E+00 0.  1.
<mgrwt>
<rscale>  0 0.20003528E+02</rscale>
<asrwt>0</asrwt>
<pdfrwt beam="2">  1        1 0.15832267E-02 0.20003528E+02</pdfrwt>
<pdfrwt beam="1">  1       -1 0.14954895E-02 0.20003528E+02</pdfrwt>
<totfact> 0.38652867E+06</totfact>
</mgrwt>
</event>
<event>
 4    1  0.2115795E-006  0.2077651E+02  0.7818608E-02  0.1730313E+00
          1   -1    0    0  501    0  0.00000000000E+00  0.00000000000E+00  0.26581196109E+01  0.26581237132E+01  0.46700000000E-02 0. -1.
         -1   -1    0    0    0  501 -0.00000000000E+00 -0.00000000000E+00 -0.40598537069E+02  0.40598537338E+02  0.46700000000E-02 0.  1.
        -13    1    1    2    0    0  0.10166163447E+02 -0.21074439573E+01 -0.19668502190E+02  0.22240803721E+02  0.10570000000E+00 0.  1.
         13    1    1    2    0    0 -0.10166163447E+02  0.21074439573E+01 -0.18271915268E+02  0.21015857330E+02  0.10570000000E+00 0. -1.
<mgrwt>
<rscale>  0 0.20776512E+02</rscale>
<asrwt>0</asrwt>
<pdfrwt beam="1">  1        1 0.40894184E-03 0.20776512E+02</pdfrwt>
<pdfrwt beam="2">  1       -1 0.62459287E-02 0.20776512E+02</pdfrwt>
<totfact> 0.32750909E+06</totfact>
</mgrwt>
</event>
<event>
 5    1  0.2115795E-006  0.2000277E+02  0.7818608E-02  0.1745273E+00
          1   -1    0    0  501    0  0.00000000000E+00  0.00000000000E+00  0.31229097814E+01  0.31229132731E+01  0.46700000000E-02 0.  1.
         -1   -1    0    0    0  501 -0.00000000000E+00 -0.00000000000E+00 -0.32030275145E+02  0.32030275485E+02  0.46700000000E-02 0. -1.
       1023    2    1    2    0    0  0.00000000000E+00  0.00000000000E+00 -0.28907365364E+02  0.35153188758E+02  0.20002772499E+02 0.  0.
        -13    1    3    3    0    0 -0.27689572161E+01 -0.96096267893E+01 -0.14335748130E+02  0.17479613783E+02  0.10570000000E+00 0. -1.
         13    1    3    3    0    0  0.27689572161E+01  0.96096267893E+01 -0.14571617234E+02  0.17673574975E+02  0.10570000000E+00 0.  1.
<mgrwt>
<rscale>  0 0.20002772E+02</rscale>
<asrwt>0</asrwt>
<pdfrwt beam="1">  1        1 0.48044797E-03 0.20002772E+02</pdfrwt>
<pdfrwt beam="2">  1       -1 0.49277347E-02 0.20002772E+02</pdfrwt>
<totfact> 0.36302372E+06</totfact>
</mgrwt>
</event>
<event>
 4    1  0.2115795E-006  0.2005332E+02  0.7818608E-02  0.1744270E+00
         -1   -1    0    0    0  501 -0.00000000000E+00  0.00000000000E+00  0.28080757661E+02  0.28080758049E+02  0.46700000000E-02 0. -1.
          1   -1    0    0  501    0  0.00000000000E+00 -0.00000000000E+00 -0.35801686686E+01  0.35801717143E+01  0.46700000000E-02 0.  1.
        -13    1    1    2    0    0  0.19671445178E+01 -0.98215455756E+01  0.12939065066E+02  0.16363465168E+02  0.10570000000E+00 0.  1.
         13    1    1    2    0    0 -0.19671445178E+01  0.98215455756E+01  0.11561523926E+02  0.15297464595E+02  0.10570000000E+00 0. -1.
<mgrwt>
<rscale>  0 0.20053319E+02</rscale>
<asrwt>0</asrwt>
<pdfrwt beam="2">  1        1 0.55079545E-03 0.20053319E+02</pdfrwt>
<pdfrwt beam="1">  1       -1 0.43201168E-02 0.20053319E+02</pdfrwt>
<totfact> 0.36440243E+06</totfact>
</mgrwt>
</event>
<event>
 5    1  0.2115795E-006  0.2000164E+02  0.7818608E-02  0.1745296E+00
         -1   -1    0    0    0  501 -0.00000000000E+00  0.00000000000E+00  0.48717190880E+02  0.48717191104E+02  0.46700000000E-02 0. -1.
          1   -1    0    0  501    0  0.00000000000E+00 -0.00000000000E+00 -0.20529965387E+01  0.20530018501E+01  0.46700000000E-02 0.  1.
       1023    2    1    2    0    0  0.00000000000E+00  0.00000000000E+00  0.46664194341E+02  0.50770192954E+02  0.20001636409E+02 0.  0.
        -13    1    3    3    0    0 -0.13655266159E+00 -0.99993039659E+01  0.23386882368E+02  0.25435450966E+02  0.10570000000E+00 0. -1.
         13    1    3    3    0    0  0.13655266159E+00  0.99993039659E+01  0.23277311973E+02  0.25334741988E+02  0.10570000000E+00 0.  1.
<mgrwt>
<rscale>  0 0.20001636E+02</rscale>
<asrwt>0</asrwt>
<pdfrwt beam="2">  1        1 0.31584607E-03 0.20001636E+02</pdfrwt>
<pdfrwt beam="1">  1       -1 0.74949524E-02 0.20001636E+02</pdfrwt>
<totfact> 0.35015052E+06</totfact>
</mgrwt>
</event>
<event>
 4    1  0.2115795E-006  0.2015368E+02  0.7818608E-02  0.1742289E+00
         -1   -1    0    0    0  501 -0.00000000000E+00  0.00000000000E+00  0.16573597551E+01  0.16573663345E+01  0.46700000000E-02 0.  1.
          1   -1    0    0  501    0  0.00000000000E+00 -0.00000000000E+00 -0.61267614755E+02  0.61267614933E+02  0.46700000000E-02 0. -1.
        -13    1    1    2    0    0 -0.10006993235E+02  0.87823586969E+00 -0.32264204882E+02  0.33792030140E+02  0.10570000000E+00 0.  1.
         13    1    1    2    0    0  0.10006993235E+02 -0.87823586969E+00 -0.27346050118E+02  0.29132951127E+02  0.10570000000E+00 0. -1.
<mgrwt>
<rscale>  0 0.20153679E+02</rscale>
<asrwt>0</asrwt>
<pdfrwt beam="2">  1        1 0.94257857E-02 0.20153679E+02</pdfrwt>
<pdfrwt beam="1">  1       -1 0.25497899E-03 0.20153679E+02</pdfrwt>
<totfact> 0.41643849E+06</totfact>
</mgrwt>
</event>
<event>
 4    1  0.2115795E-006  0.2057679E+02  0.7818608E-02  0.1734095E+00
          1   -1    0    0  501    0  0.00000000000E+00  0.00000000000E+00  0.10164113459E+03  0.10164113470E+03  0.46700000000E-02 0.  1.
         -1   -1    0    0    0  501 -0.00000000000E+00 -0.00000000000E+00 -0.10414138523E+01  0.10414243231E+01  0.46700000000E-02 0. -1.
        -13    1    1    2    0    0 -0.51498539782E+01 -0.89053985825E+01  0.49736690462E+02  0.50789533080E+02  0.10570000000E+00 0.  1.
         13    1    1    2    0    0  0.51498539782E+01  0.89053985825E+01  0.50863030277E+02  0.51893025942E+02  0.10570000000E+00 0. -1.
<mgrwt>
<rscale>  0 0.20576786E+02</rscale>
<asrwt>0</asrwt>
<pdfrwt beam="1">  1        1 0.15637095E-01 0.20576786E+02</pdfrwt>
<pdfrwt beam="2">  1       -1 0.16021836E-03 0.20576786E+02</pdfrwt>
<totfact> 0.41732017E+06</totfact>
</mgrwt>
</event>
<event>
 5    1  0.2115795E-006  0.2000168E+02  0.7818608E-02  0.1745295E+00
          1   -1    0    0  501    0  0.00000000000E+00  0.00000000000E+00  0.26103350713E+01  0.26103392487E+01  0.46700000000E-02 0.  1.
         -1   -1    0    0    0  501 -0.00000000000E+00 -0.00000000000E+00 -0.38315645862E+02  0.38315646147E+02  0.46700000000E-02 0. -1.
       1023    2    1    2    0    0  0.00000000000E+00  0.00000000000E+00 -0.35705310791E+02  0.40925985396E+02  0.20001676478E+02 0.  0.
        -13    1    3    3    0    0 -0.64154074148E+01  0.76712349296E+01 -0.17817491277E+02  0.20432314248E+02  0.10570000000E+00 0.  1.
         13    1    3    3    0    0  0.64154074148E+01 -0.76712349296E+01 -0.17887819514E+02  0.20493671148E+02  0.10570000000E+00 0. -1.
<mgrwt>
<rscale>  0 0.20001676E+02</rscale>
<asrwt>0</asrwt>
<pdfrwt beam="1">  1        1 0.40159038E-03 0.20001676E+02</pdfrwt>
<pdfrwt beam="2">  1       -1 0.58947147E-02 0.20001676E+02</pdfrwt>
<totfact> 0.35795937E+06</totfact>
</mgrwt>
</event>
<event>
 5    1  0.2115795E-006  0.2000846E+02  0.7818608E-02  0.1745160E+00
         -1   -1    0    0    0  501 -0.00000000000E+00  0.00000000000E+00  0.24364723212E+01  0.24364767967E+01  0.46700000000E-02 0.  1.
          1   -1    0    0  501    0  0.00000000000E+00 -0.00000000000E+00 -0.41077637096E+02  0.41077637362E+02  0.46700000000E-02 0. -1.
       1023    2    1    2    0    0  0.00000000000E+00  0.00000000000E+00 -0.38641164775E+02  0.43514114158E+02  0.20008461106E+02 0.  0.
        -13    1    3    3    0    0  0.97190385444E+01 -0.23598866271E+01 -0.19780287754E+02  0.22165282115E+02  0.10570000000E+00 0.  1.
         13    1    3    3    0    0 -0.97190385444E+01  0.23598866271E+01 -0.18860877021E+02  0.21348832043E+02  0.10570000000E+00 0. -1.
<mgrwt>
<rscale>  0 0.20008461E+02</rscale>
<asrwt>0</asrwt>
<pdfrwt beam="2">  1        1 0.63196363E-02 0.20008461E+02</pdfrwt>
<pdfrwt beam="1">  1       -1 0.37484229E-03 0.20008461E+02</pdfrwt>
<totfact> 0.41138716E+06</totfact>
</mgrwt>
</event>
<event>
 5    1  0.2115795E-006  0.2000186E+02  0.7818608E-02  0.1745291E+00
          1   -1    0    0  501    0  0.00000000000E+00  0.00000000000E+00  0.53084777513E+02  0.53084777719E+02  0.46700000000E-02 0.  1.
         -1   -1    0    0    0  501 -0.00000000000E+00 -0.00000000000E+00 -0.18841259176E+01  0.18841317051E+01  0.46700000000E-02 0. -1.
       1023    2    1    2    0    0  0.00000000000E+00  0.00000000000E+00  0.51200651596E+02  0.54968909424E+02  0.20001856899E+02 0.  0.
        -13    1    3    3    0    0 -0.98335044774E+01 -0.18183030145E+01  0.25440996974E+02  0.27336048282E+02  0.10570000000E+00 0.  1.
         13    1    3    3    0    0  0.98335044774E+01  0.18183030145E+01  0.25759654621E+02  0.27632861141E+02  0.10570000000E+00 0. -1.
<mgrwt>
<rscale>  0 0.20001857E+02</rscale>
<asrwt>0</asrwt>
<pdfrwt beam="1">  1        1 0.81668886E-02 0.20001857E+02</pdfrwt>
<pdfrwt beam="2">  1       -1 0.28986601E-03 0.20001857E+02</pdfrwt>
<totfact> 0.41885559E+06</totfact>
</mgrwt>
</event>
<event>
 5    1  0.2115795E-006  0.2000758E+02  0.7818608E-02  0.1745177E+00
         -1   -1    0    0    0  501 -0.00000000000E+00  0.00000000000E+00  0.10667113353E+03  0.10667113364E+03  0.46700000000E-02 0.  1.
          1   -1    0    0  501    0  0.00000000000E+00 -0.00000000000E+00 -0.93816570333E+00  0.93817732641E+00  0.46700000000E-02 0. -1.
       1023    2    1    2    0    0  0.00000000000E+00  0.00000000000E+00  0.10573296783E+03  0.10760931096E+03  0.20007581552E+02 0.  0.
        -13    1    3    3    0    0 -0.93019198454E+01  0.36762820344E+01  0.52035086379E+02  0.52987754711E+02  0.10570000000E+00 0. -1.
         13    1    3    3    0    0  0.93019198454E+01 -0.36762820344E+01  0.53697881452E+02  0.54621556251E+02  0.10570000000E+00 0.  1.
<mgrwt>
<rscale>  0 0.20007582E+02</rscale>
<asrwt>0</asrwt>
<pdfrwt beam="2">  1        1 0.14433414E-03 0.20007582E+02</pdfrwt>
<pdfrwt beam="1">  1       -1 0.16410938E-01 0.20007582E+02</pdfrwt>
<totfact> 0.31488293E+06</totfact>
</mgrwt>
</event>
<event>
 5    1  0.2115795E-006  0.2000945E+02  0.7818608E-02  0.1745140E+00
          1   -1    0    0  501    0  0.00000000000E+00  0.00000000000E+00  0.98689641954E+02  0.98689642065E+02  0.46700000000E-02 0.  1.
         -1   -1    0    0    0  501 -0.00000000000E+00 -0.00000000000E+00 -0.10142296107E+01  0.10142403621E+01  0.46700000000E-02 0. -1.
       1023    2    1    2    0    0  0.00000000000E+00  0.00000000000E+00  0.97675412344E+02  0.99703882427E+02  0.20009447631E+02 0.  0.
        -13    1    3    3    0    0  0.82463335654E+01 -0.56627803171E+01  0.49432064071E+02  0.50434206934E+02  0.10570000000E+00 0.  1.
         13    1    3    3    0    0 -0.82463335654E+01  0.56627803171E+01  0.48243348272E+02  0.49269675493E+02  0.10570000000E+00 0. -1.
<mgrwt>
<rscale>  0 0.20009448E+02</rscale>
<asrwt>0</asrwt>
<pdfrwt beam="1">  1        1 0.15183020E-01 0.20009448E+02</pdfrwt>
<pdfrwt beam="2">  1       -1 0.15603618E-03 0.20009448E+02</pdfrwt>
<totfact> 0.44250841E+06</totfact>
</mgrwt>
</event>
<event>
 5    1  0.2115795E-006  0.2000347E+02  0.7818608E-02  0.1745259E+00
          1   -1    0    0  501    0  0.00000000000E+00  0.00000000000E+00  0.96788295520E+01  0.96788306787E+01  0.46700000000E-02 0. -1.
         -1   -1    0    0    0  501 -0.00000000000E+00 -0.00000000000E+00 -0.10335413373E+02  0.10335414428E+02  0.46700000000E-02 0.  1.
       1023    2    1    2    0    0  0.00000000000E+00  0.00000000000E+00 -0.65658382089E+00  0.20014245107E+02  0.20003472320E+02 0.  0.
        -13    1    3    3    0    0 -0.70847506976E+00 -0.99753315730E+01 -0.20832398737E+00  0.10003186907E+02  0.10570000000E+00 0.  1.
         13    1    3    3    0    0  0.70847506976E+00  0.99753315730E+01 -0.44825983352E+00  0.10011058200E+02  0.10570000000E+00 0. -1.
<mgrwt>
<rscale>  0 0.20003472E+02</rscale>
<asrwt>0</asrwt>
<pdfrwt beam="1">  1        1 0.14890509E-02 0.20003472E+02</pdfrwt>
<pdfrwt beam="2">  1       -1 0.15900638E-02 0.20003472E+02</pdfrwt>
<totfact> 0.38558055E+06</totfact>
</mgrwt>
</event>
<event>
 5    1  0.2115795E-006  0.2000601E+02  0.7818608E-02  0.1745209E+00
          1   -1    0    0  501    0  0.00000000000E+00  0.00000000000E+00  0.43947483424E+02  0.43947483672E+02  0.46700000000E-02 0. -1.
         -1   -1    0    0    0  501 -0.00000000000E+00 -0.00000000000E+00 -0.22768082722E+01  0.22768130615E+01  0.46700000000E-02 0.  1.
       1023    2    1    2    0    0  0.00000000000E+00  0.00000000000E+00  0.41670675152E+02  0.46224296734E+02  0.20006010120E+02 0.  0.
        -13    1    3    3    0    0  0.99382332001E+01 -0.11201844359E+01  0.21205348725E+02  0.23445709189E+02  0.10570000000E+00 0.  1.
         13    1    3    3    0    0 -0.99382332001E+01  0.11201844359E+01  0.20465326427E+02  0.22778587545E+02  0.10570000000E+00 0. -1.
<mgrwt>
<rscale>  0 0.20006010E+02</rscale>
<asrwt>0</asrwt>
<pdfrwt beam="1">  1        1 0.67611516E-02 0.20006010E+02</pdfrwt>
<pdfrwt beam="2">  1       -1 0.35027859E-03 0.20006010E+02</pdfrwt>
<totfact> 0.41326028E+06</totfact>
</mgrwt>
</event>
<event>
 5    1  0.2115795E-006  0.2000298E+02  0.7818608E-02  0.1745269E+00
         -1   -1    0    0    0  501 -0.00000000000E+00  0.00000000000E+00  0.31674514410E+01  0.31674548837E+01  0.46700000000E-02 0.  1.
          1   -1    0    0  501    0  0.00000000000E+00 -0.00000000000E+00 -0.31580518771E+02  0.31580519117E+02  0.46700000000E-02 0. -1.
       1023    2    1    2    0    0  0.00000000000E+00  0.00000000000E+00 -0.28413067330E+02  0.34747974000E+02  0.20002982328E+02 0.  0.
        -13    1    3    3    0    0  0.98129377921E+01 -0.19276763518E+01 -0.14042020168E+02  0.17239465975E+02  0.10570000000E+00 0.  1.
         13    1    3    3    0    0 -0.98129377921E+01  0.19276763518E+01 -0.14371047162E+02  0.17508508025E+02  0.10570000000E+00 0. -1.
<mgrwt>
<rscale>  0 0.20002982E+02</rscale>
<asrwt>0</asrwt>
<pdfrwt beam="2">  1        1 0.48585414E-02 0.20002982E+02</pdfrwt>
<pdfrwt beam="1">  1       -1 0.48730054E-03 0.20002982E+02</pdfrwt>
<totfact> 0.40550978E+06</totfact>
</mgrwt>
</event>
<event>
 4    1  0.2115795E-006  0.2003832E+02  0.7818608E-02  0.1744567E+00
         -1   -1    0    0    0  501 -0.00000000000E+00  0.00000000000E+00  0.15451489884E+02  0.15451490589E+02  0.46700000000E-02 0.  1.
          1   -1    0    0  501    0  0.00000000000E+00 -0.00000000000E+00 -0.64966918368E+01  0.64966935153E+01  0.46700000000E-02 0. -1.
        -13    1    1    2    0    0  0.47231038676E+00  0.10004340097E+02  0.42035188614E+01  0.10862349708E+02  0.10570000000E+00 0.  1.
         13    1    1    2    0    0 -0.47231038676E+00 -0.10004340097E+02  0.47512791854E+01  0.11085834396E+02  0.10570000000E+00 0. -1.
<mgrwt>
<rscale>  0 0.20038323E+02</rscale>
<asrwt>0</asrwt>
<pdfrwt beam="2">  1        1 0.99949124E-03 0.20038323E+02</pdfrwt>
<pdfrwt beam="1">  1       -1 0.23771525E-02 0.20038323E+02</pdfrwt>
<totfact> 0.37748406E+06</totfact>
</mgrwt>
</event>
<event>
 4    1  0.2115795E-006  0.2013406E+02  0.7818608E-02  0.1742675E+00
          1   -1    0    0  501    0  0.00000000000E+00  0.00000000000E+00  0.10764401389E+03  0.10764401399E+03  0.46700000000E-02 0.  1.
         -1   -1    0    0    0  501 -0.00000000000E+00 -0.00000000000E+00 -0.94147780453E+00  0.94148938673E+00  0.46700000000E-02 0. -1.
        -13    1    1    2    0    0  0.83515456680E+01 -0.55260967414E+01  0.58871920039E+02  0.59717670767E+02  0.10570000000E+00 0. -1.
         13    1    1    2    0    0 -0.83515456680E+01  0.55260967414E+01  0.47830616043E+02  0.48867832608E+02  0.10570000000E+00 0.  1.
<mgrwt>
<rscale>  0 0.20134059E+02</rscale>
<asrwt>0</asrwt>
<pdfrwt beam="1">  1        1 0.16560619E-01 0.20134059E+02</pdfrwt>
<pdfrwt beam="2">  1       -1 0.14484363E-03 0.20134059E+02</pdfrwt>
<totfact> 0.44072491E+06</totfact>
</mgrwt>
</event>
<event>
 4    1  0.2115795E-006  0.2001500E+02  0.7818608E-02  0.1745030E+00
          1   -1    0    0  501    0  0.00000000000E+00  0.00000000000E+00  0.11671288351E+03  0.11671288360E+03  0.46700000000E-02 0.  1.
         -1   -1    0    0    0  501 -0.00000000000E+00 -0.00000000000E+00 -0.85808236787E+00  0.85809507571E+00  0.46700000000E-02 0. -1.
        -13    1    1    2    0    0  0.95106691523E+01  0.31120072130E+01  0.58149600423E+02  0.59004445751E+02  0.10570000000E+00 0.  1.
         13    1    1    2    0    0 -0.95106691523E+01 -0.31120072130E+01  0.57705200719E+02  0.58566532927E+02  0.10570000000E+00 0. -1.
<mgrwt>
<rscale>  0 0.20014996E+02</rscale>
<asrwt>0</asrwt>
<pdfrwt beam="1">  1        1 0.17955824E-01 0.20014996E+02</pdfrwt>
<pdfrwt beam="2">  1       -1 0.13201369E-03 0.20014996E+02</pdfrwt>
<totfact> 0.45075196E+06</totfact>
</mgrwt>
</event>
<event>
 5    1  0.2115795E-006  0.2000762E+02  0.7818608E-02  0.1745177E+00
         -1   -1    0    0    0  501 -0.00000000000E+00  0.00000000000E+00  0.84495189502E+02  0.84495189631E+02  0.46700000000E-02 0.  1.
          1   -1    0    0  501    0  0.00000000000E+00 -0.00000000000E+00 -0.11843967031E+01  0.11844059098E+01  0.46700000000E-02 0. -1.
       1023    2    1    2    0    0  0.00000000000E+00  0.00000000000E+00  0.83310792799E+02  0.85679595541E+02  0.20007620929E+02 0.  0.
        -13    1    3    3    0    0  0.69230588027E+01 -0.72202829171E+01  0.41390626193E+02  0.42582347725E+02  0.10570000000E+00 0.  1.
         13    1    3    3    0    0 -0.69230588027E+01  0.72202829171E+01  0.41920166606E+02  0.43097247816E+02  0.10570000000E+00 0. -1.
<mgrwt>
<rscale>  0 0.20007621E+02</rscale>
<asrwt>0</asrwt>
<pdfrwt beam="2">  1        1 0.18221553E-03 0.20007621E+02</pdfrwt>
<pdfrwt beam="1">  1       -1 0.12999265E-01 0.20007621E+02</pdfrwt>
<totfact> 0.32703545E+06</totfact>
</mgrwt>
</event>
<event>
 5    1  0.2115795E-006  0.2000772E+02  0.7818608E-02  0.1745175E+00
          1   -1    0    0  501    0  0.00000000000E+00  0.00000000000E+00  0.11060582053E+02  0.11060583039E+02  0.46700000000E-02 0. -1.
         -1   -1    0    0    0  501 -0.00000000000E+00 -0.00000000000E+00 -0.90480935074E+01  0.90480947126E+01  0.46700000000E-02 0.  1.
       1023    2    1    2    0    0  0.00000000000E+00  0.00000000000E+00  0.20124885454E+01  0.20108677751E+02  0.20007718780E+02 0.  0.
        -13    1    3    3    0    0 -0.22912006833E+01  0.97373722011E+01  0.10097613978E+01  0.10054690872E+02  0.10570000000E+00 0.  1.
         13    1    3    3    0    0  0.22912006833E+01 -0.97373722011E+01  0.10027271477E+01  0.10053986880E+02  0.10570000000E+00 0. -1.
<mgrwt>
<rscale>  0 0.20007719E+02</rscale>
<asrwt>0</asrwt>
<pdfrwt beam="1">  1        1 0.17016282E-02 0.20007719E+02</pdfrwt>
<pdfrwt beam="2">  1       -1 0.13920146E-02 0.20007719E+02</pdfrwt>
<totfact> 0.38745282E+06</totfact>
</mgrwt>
</event>
<event>
 5    1  0.2115795E-006  0.2000253E+02  0.7818608E-02  0.1745278E+00
          1   -1    0    0  501    0  0.00000000000E+00  0.00000000000E+00  0.52795626513E+02  0.52795626719E+02  0.46700000000E-02 0. -1.
         -1   -1    0    0    0  501 -0.00000000000E+00 -0.00000000000E+00 -0.18945722260E+01  0.18945779817E+01  0.46700000000E-02 0.  1.
       1023    2    1    2    0    0  0.00000000000E+00  0.00000000000E+00  0.50901054287E+02  0.54690204701E+02  0.20002528908E+02 0.  0.
        -13    1    3    3    0    0  0.73078798542E+01 -0.68263888824E+01  0.25715967287E+02  0.27592151767E+02  0.10570000000E+00 0.  1.
         13    1    3    3    0    0 -0.73078798542E+01  0.68263888824E+01  0.25185087000E+02  0.27098052934E+02  0.10570000000E+00 0. -1.
<mgrwt>
<rscale>  0 0.20002529E+02</rscale>
<asrwt>0</asrwt>
<pdfrwt beam="1">  1        1 0.81224032E-02 0.20002529E+02</pdfrwt>
<pdfrwt beam="2">  1       -1 0.29147316E-03 0.20002529E+02</pdfrwt>
<totfact> 0.41865747E+06</totfact>
</mgrwt>
</event>
<event>
 5    1  0.2115795E-006  0.2000857E+02  0.7818608E-02  0.1745158E+00
          1   -1    0    0  501    0  0.00000000000E+00  0.00000000000E+00  0.99239686126E+01  0.99239697114E+01  0.46700000000E-02 0.  1.
         -1   -1    0    0    0  501 -0.00000000000E+00 -0.00000000000E+00 -0.10085246177E+02  0.10085247258E+02  0.46700000000E-02 0. -1.
       1023    2    1    2    0    0  0.00000000000E+00  0.00000000000E+00 -0.16127756393E+00  0.20009216969E+02  0.20008566997E+02 0.  0.
        -13    1    3    3    0    0 -0.24701703242E+01 -0.96939030665E+01 -0.11254173518E+00  0.10004865628E+02  0.10570000000E+00 0.  1.
         13    1    3    3    0    0  0.24701703242E+01  0.96939030665E+01 -0.48735828750E-01  0.10004351342E+02  0.10570000000E+00 0. -1.
<mgrwt>
<rscale>  0 0.20008567E+02</rscale>
<asrwt>0</asrwt>
<pdfrwt beam="1">  1        1 0.15267646E-02 0.20008567E+02</pdfrwt>
<pdfrwt beam="2">  1       -1 0.15515765E-02 0.20008567E+02</pdfrwt>
<totfact> 0.38574672E+06</totfact>
</mgrwt>
</event>
<event>
 5    1  0.2115795E-006  0.2000715E+02  0.7818608E-02  0.1745186E+00
          1   -1    0    0  501    0  0.00000000000E+00  0.00000000000E+00  0.41895070647E+01  0.41895096675E+01  0.46700000000E-02 0. -1.
         -1   -1    0    0    0  501 -0.00000000000E+00 -0.00000000000E+00 -0.23886209620E+02  0.23886210076E+02  0.46700000000E-02 0.  1.
       1023    2    1    2    0    0  0.00000000000E+00  0.00000000000E+00 -0.19696702555E+02  0.28075719744E+02  0.20007147413E+02 0.  0.
        -13    1    3    3    0    0 -0.15011157819E+01 -0.98867560452E+01 -0.95074348130E+01  0.13798687724E+02  0.10570000000E+00 0. -1.
         13    1    3    3    0    0  0.15011157819E+01  0.98867560452E+01 -0.10189267742E+02  0.14277032020E+02  0.10570000000E+00 0.  1.
<mgrwt>
<rscale>  0 0.20007147E+02</rscale>
<asrwt>0</asrwt>
<pdfrwt beam="1">  1        1 0.64453980E-03 0.20007147E+02</pdfrwt>
<pdfrwt beam="2">  1       -1 0.36748016E-02 0.20007147E+02</pdfrwt>
<totfact> 0.37007660E+06</totfact>
</mgrwt>
</event>
<event>
 5    1  0.2115795E-006  0.2000235E+02  0.7818608E-02  0.1745281E+00
         -1   -1    0    0    0  501 -0.00000000000E+00  0.00000000000E+00  0.28655994765E+01  0.28656032818E+01  0.46700000000E-02 0.  1.
          1   -1    0    0  501    0  0.00000000000E+00 -0.00000000000E+00 -0.34904884328E+02  0.34904884640E+02  0.46700000000E-02 0. -1.
       1023    2    1    2    0    0  0.00000000000E+00  0.00000000000E+00 -0.32039284851E+02  0.37770487922E+02  0.20002349464E+02 0.  0.
        -13    1    3    3    0    0 -0.44813573604E+01 -0.89403422259E+01 -0.16031677620E+02  0.18895452964E+02  0.10570000000E+00 0. -1.
         13    1    3    3    0    0  0.44813573604E+01  0.89403422259E+01 -0.16007607231E+02  0.18875034958E+02  0.10570000000E+00 0.  1.
<mgrwt>
<rscale>  0 0.20002349E+02</rscale>
<asrwt>0</asrwt>
<pdfrwt beam="2">  1        1 0.53699822E-02 0.20002349E+02</pdfrwt>
<pdfrwt beam="1">  1       -1 0.44086180E-03 0.20002349E+02</pdfrwt>
<totfact> 0.40774431E+06</totfact>
</mgrwt>
</event>
<event>
 5    1  0.2115795E-006  0.2000467E+02  0.7818608E-02  0.1745235E+00
         -1   -1    0    0    0  501 -0.00000000000E+00  0.00000000000E+00  0.43409014449E+02  0.43409014700E+02  0.46700000000E-02 0. -1.
          1   -1    0    0  501    0  0.00000000000E+00 -0.00000000000E+00 -0.23047432174E+01  0.23047479487E+01  0.46700000000E-02 0.  1.
       1023    2    1    2    0    0  0.00000000000E+00  0.00000000000E+00  0.41104271232E+02  0.45713762649E+02  0.20004674005E+02 0.  0.
        -13    1    3    3    0    0 -0.89286955969E+01 -0.45050451994E+01  0.20241021241E+02  0.22577137788E+02  0.10570000000E+00 0. -1.
         13    1    3    3    0    0  0.89286955969E+01  0.45050451994E+01  0.20863249990E+02  0.23136624861E+02  0.10570000000E+00 0.  1.
<mgrwt>
<rscale>  0 0.20004674E+02</rscale>
<asrwt>0</asrwt>
<pdfrwt beam="2">  1        1 0.35457626E-03 0.20004674E+02</pdfrwt>
<pdfrwt beam="1">  1       -1 0.66783103E-02 0.20004674E+02</pdfrwt>
<totfact> 0.35393015E+06</totfact>
</mgrwt>
</event>
<event>
 4    1  0.2115795E-006  0.2001628E+02  0.7818608E-02  0.1745005E+00
         -1   -1    0    0    0  501 -0.00000000000E+00  0.00000000000E+00  0.63317311336E+02  0.63317311508E+02  0.46700000000E-02 0.  1.
          1   -1    0    0  501    0  0.00000000000E+00 -0.00000000000E+00 -0.15819156485E+01  0.15819225417E+01  0.46700000000E-02 0. -1.
        -13    1    1    2    0    0 -0.88154510531E+01 -0.47312622376E+01  0.30109501897E+02  0.31728383139E+02  0.10570000000E+00 0. -1.
         13    1    1    2    0    0  0.88154510531E+01  0.47312622376E+01  0.31625893790E+02  0.33170850911E+02  0.10570000000E+00 0.  1.
<mgrwt>
<rscale>  0 0.20016281E+02</rscale>
<asrwt>0</asrwt>
<pdfrwt beam="2">  1        1 0.24337221E-03 0.20016281E+02</pdfrwt>
<pdfrwt beam="1">  1       -1 0.97411244E-02 0.20016281E+02</pdfrwt>
<totfact> 0.33964792E+06</totfact>
</mgrwt>
</event>
<event>
 5    1  0.2115795E-006  0.2000544E+02  0.7818608E-02  0.1745220E+00
          1   -1    0    0  501    0  0.00000000000E+00  0.00000000000E+00  0.10009746988E+02  0.10009748077E+02  0.46700000000E-02 0.  1.
         -1   -1    0    0    0  501 -0.00000000000E+00 -0.00000000000E+00 -0.99956975172E+01  0.99956986081E+01  0.46700000000E-02 0. -1.
       1023    2    1    2    0    0  0.00000000000E+00  0.00000000000E+00  0.14049470520E-01  0.20005446685E+02  0.20005441752E+02 0.  0.
        -13    1    3    3    0    0  0.99581502188E+01  0.92116754380E+00  0.18007681481E+00  0.10002844874E+02  0.10570000000E+00 0.  1.
         13    1    3    3    0    0 -0.99581502188E+01 -0.92116754380E+00 -0.16602734429E+00  0.10002601811E+02  0.10570000000E+00 0. -1.
<mgrwt>
<rscale>  0 0.20005442E+02</rscale>
<asrwt>0</asrwt>
<pdfrwt beam="1">  1        1 0.15399612E-02 0.20005442E+02</pdfrwt>
<pdfrwt beam="2">  1       -1 0.15377998E-02 0.20005442E+02</pdfrwt>
<totfact> 0.38601669E+06</totfact>
</mgrwt>
</event>
<event>
 5    1  0.2115795E-006  0.2000787E+02  0.7818608E-02  0.1745172E+00
         -1   -1    0    0    0  501 -0.00000000000E+00  0.00000000000E+00  0.97087557497E+01  0.97087568728E+01  0.46700000000E-02 0.  1.
          1   -1    0    0  501    0  0.00000000000E+00 -0.00000000000E+00 -0.10308091508E+02  0.10308092566E+02  0.46700000000E-02 0. -1.
       1023    2    1    2    0    0  0.00000000000E+00  0.00000000000E+00 -0.59933575844E+00  0.20016849439E+02  0.20007874902E+02 0.  0.
        -13    1    3    3    0    0  0.86920048447E+01 -0.49497612751E+01 -0.42820560578E+00  0.10012273340E+02  0.10570000000E+00 0.  1.
         13    1    3    3    0    0 -0.86920048447E+01  0.49497612751E+01 -0.17113015265E+00  0.10004576099E+02  0.10570000000E+00 0. -1.
<mgrwt>
<rscale>  0 0.20007875E+02</rscale>
<asrwt>0</asrwt>
<pdfrwt beam="2">  1        1 0.15858604E-02 0.20007875E+02</pdfrwt>
<pdfrwt beam="1">  1       -1 0.14936549E-02 0.20007875E+02</pdfrwt>
<totfact> 0.38636416E+06</totfact>
</mgrwt>
</event>
<event>
 5    1  0.2115795E-006  0.2000263E+02  0.7818608E-02  0.1745276E+00
         -1   -1    0    0    0  501 -0.00000000000E+00  0.00000000000E+00  0.12089393006E+03  0.12089393015E+03  0.46700000000E-02 0. -1.
          1   -1    0    0  501    0  0.00000000000E+00 -0.00000000000E+00 -0.82738241038E+00  0.82739558973E+00  0.46700000000E-02 0.  1.
       1023    2    1    2    0    0  0.00000000000E+00  0.00000000000E+00  0.12006654765E+03  0.12172132574E+03  0.20002631712E+02 0.  0.
        -13    1    3    3    0    0  0.60426212485E+01 -0.79685307860E+01  0.60436553788E+02  0.61258460320E+02  0.10570000000E+00 0. -1.
         13    1    3    3    0    0 -0.60426212485E+01  0.79685307860E+01  0.59629993864E+02  0.60462865423E+02  0.10570000000E+00 0.  1.
<mgrwt>
<rscale>  0 0.20002632E+02</rscale>
<asrwt>0</asrwt>
<pdfrwt beam="2">  1        1 0.12729071E-03 0.20002632E+02</pdfrwt>
<pdfrwt beam="1">  1       -1 0.18599055E-01 0.20002632E+02</pdfrwt>
<totfact> 0.30783465E+06</totfact>
</mgrwt>
</event>
<event>
 4    1  0.2115795E-006  0.2001255E+02  0.7818608E-02  0.1745079E+00
          1   -1    0    0  501    0  0.00000000000E+00  0.00000000000E+00  0.14672003629E+02  0.14672004372E+02  0.46700000000E-02 0. -1.
         -1   -1    0    0    0  501 -0.00000000000E+00 -0.00000000000E+00 -0.68242561369E+01  0.68242577348E+01  0.46700000000E-02 0.  1.
        -13    1    1    2    0    0  0.78384927712E+01  0.62181326099E+01  0.40151528268E+01  0.10781454762E+02  0.10570000000E+00 0. -1.
         13    1    1    2    0    0 -0.78384927712E+01 -0.62181326099E+01  0.38325946654E+01  0.10714807345E+02  0.10570000000E+00 0.  1.
<mgrwt>
<rscale>  0 0.20012550E+02</rscale>
<asrwt>0</asrwt>
<pdfrwt beam="1">  1        1 0.22572315E-02 0.20012550E+02</pdfrwt>
<pdfrwt beam="2">  1       -1 0.10498858E-02 0.20012550E+02</pdfrwt>
<totfact> 0.39155175E+06</totfact>
</mgrwt>
</event>
<event>
 5    1  0.2115795E-006  0.2000717E+02  0.7818608E-02  0.1745186E+00
         -1   -1    0    0    0  501 -0.00000000000E+00  0.00000000000E+00  0.20068425459E+02  0.20068426003E+02  0.46700000000E-02 0. -1.
          1   -1    0    0  501    0  0.00000000000E+00 -0.00000000000E+00 -0.49865236751E+01  0.49865258619E+01  0.46700000000E-02 0.  1.
       1023    2    1    2    0    0  0.00000000000E+00  0.00000000000E+00  0.15081901784E+02  0.25054951865E+02  0.20007170002E+02 0.  0.
        -13    1    3    3    0    0 -0.99999308174E+01 -0.24661813564E+00  0.75825515165E+01  0.12552517550E+02  0.10570000000E+00 0. -1.
         13    1    3    3    0    0  0.99999308174E+01  0.24661813564E+00  0.74993502678E+01  0.12502434314E+02  0.10570000000E+00 0.  1.
<mgrwt>
<rscale>  0 0.20007170E+02</rscale>
<asrwt>0</asrwt>
<pdfrwt beam="2">  1        1 0.76715770E-03 0.20007170E+02</pdfrwt>
<pdfrwt beam="1">  1       -1 0.30874503E-02 0.20007170E+02</pdfrwt>
<totfact> 0.37380378E+06</totfact>
</mgrwt>
</event>
<event>
 5    1  0.2115795E-006  0.2000230E+02  0.7818608E-02  0.1745282E+00
         -1   -1    0    0    0  501 -0.00000000000E+00  0.00000000000E+00  0.69369206132E+01  0.69369221852E+01  0.46700000000E-02 0.  1.
          1   -1    0    0  501    0  0.00000000000E+00 -0.00000000000E+00 -0.14418927741E+02  0.14418928498E+02  0.46700000000E-02 0. -1.
       1023    2    1    2    0    0  0.00000000000E+00  0.00000000000E+00 -0.74820071281E+01  0.21355850683E+02  0.20002298061E+02 0.  0.
        -13    1    3    3    0    0 -0.97877815115E+01  0.20503502939E+01 -0.38316373201E+01  0.10709678813E+02  0.10570000000E+00 0. -1.
         13    1    3    3    0    0  0.97877815115E+01 -0.20503502939E+01 -0.36503698079E+01  0.10646171869E+02  0.10570000000E+00 0.  1.
<mgrwt>
<rscale>  0 0.20002298E+02</rscale>
<asrwt>0</asrwt>
<pdfrwt beam="2">  1        1 0.22182967E-02 0.20002298E+02</pdfrwt>
<pdfrwt beam="1">  1       -1 0.10672187E-02 0.20002298E+02</pdfrwt>
<totfact> 0.39173596E+06</totfact>
</mgrwt>
</event>
<event>
 5    1  0.2115795E-006  0.2000523E+02  0.7818608E-02  0.1745224E+00
         -1   -1    0    0    0  501 -0.00000000000E+00  0.00000000000E+00  0.12882455674E+01  0.12882540320E+01  0.46700000000E-02 0.  1.
          1   -1    0    0  501    0  0.00000000000E+00 -0.00000000000E+00 -0.77665316408E+02  0.77665316549E+02  0.46700000000E-02 0. -1.
       1023    2    1    2    0    0  0.00000000000E+00  0.00000000000E+00 -0.76377070841E+02  0.78953570581E+02  0.20005233245E+02 0.  0.
        -13    1    3    3    0    0  0.97089456669E+01  0.24009249359E+01 -0.37736815972E+02  0.39039806847E+02  0.10570000000E+00 0.  1.
         13    1    3    3    0    0 -0.97089456669E+01 -0.24009249359E+01 -0.38640254869E+02  0.39913763733E+02  0.10570000000E+00 0. -1.
<mgrwt>
<rscale>  0 0.20005233E+02</rscale>
<asrwt>0</asrwt>
<pdfrwt beam="2">  1        1 0.11948507E-01 0.20005233E+02</pdfrwt>
<pdfrwt beam="1">  1       -1 0.19819235E-03 0.20005233E+02</pdfrwt>
<totfact> 0.43213424E+06</totfact>
</mgrwt>
</event>
<event>
 5    1  0.2115795E-006  0.2000999E+02  0.7818608E-02  0.1745129E+00
          1   -1    0    0  501    0  0.00000000000E+00  0.00000000000E+00  0.10349620553E+02  0.10349621607E+02  0.46700000000E-02 0.  1.
         -1   -1    0    0    0  501 -0.00000000000E+00 -0.00000000000E+00 -0.96718466025E+01  0.96718477300E+01  0.46700000000E-02 0. -1.
       1023    2    1    2    0    0  0.00000000000E+00  0.00000000000E+00  0.67777395045E+00  0.20021469337E+02  0.20009993925E+02 0.  0.
        -13    1    3    3    0    0 -0.72830448389E+01 -0.68587116816E+01  0.27463434324E+00  0.10008559565E+02  0.10570000000E+00 0.  1.
         13    1    3    3    0    0  0.72830448389E+01  0.68587116816E+01  0.40313960721E+00  0.10012909771E+02  0.10570000000E+00 0. -1.
<mgrwt>
<rscale>  0 0.20009994E+02</rscale>
<asrwt>0</asrwt>
<pdfrwt beam="1">  1        1 0.15922495E-02 0.20009994E+02</pdfrwt>
<pdfrwt beam="2">  1       -1 0.14879766E-02 0.20009994E+02</pdfrwt>
<totfact> 0.38633348E+06</totfact>
</mgrwt>
</event>
<event>
 5    1  0.2115795E-006  0.2000229E+02  0.7818608E-02  0.1745282E+00
         -1   -1    0    0    0  501 -0.00000000000E+00  0.00000000000E+00  0.15918995295E+02  0.15918995980E+02  0.46700000000E-02 0. -1.
          1   -1    0    0  501    0  0.00000000000E+00 -0.00000000000E+00 -0.62832428946E+01  0.62832446301E+01  0.46700000000E-02 0.  1.
       1023    2    1    2    0    0  0.00000000000E+00  0.00000000000E+00  0.96357524008E+01  0.22202240611E+02  0.20002293963E+02 0.  0.
        -13    1    3    3    0    0 -0.99782281172E+01 -0.66745960672E+00  0.47789511042E+01  0.11084226849E+02  0.10570000000E+00 0.  1.
         13    1    3    3    0    0  0.99782281172E+01  0.66745960672E+00  0.48568012965E+01  0.11118013762E+02  0.10570000000E+00 0. -1.
<mgrwt>
<rscale>  0 0.20002294E+02</rscale>
<asrwt>0</asrwt>
<pdfrwt beam="2">  1        1 0.96665295E-03 0.20002294E+02</pdfrwt>
<pdfrwt beam="1">  1       -1 0.24490764E-02 0.20002294E+02</pdfrwt>
<totfact> 0.37844295E+06</totfact>
</mgrwt>
</event>
<event>
 5    1  0.2115795E-006  0.2001034E+02  0.7818608E-02  0.1745123E+00
          1   -1    0    0  501    0  0.00000000000E+00  0.00000000000E+00  0.72127275469E+02  0.72127275620E+02  0.46700000000E-02 0. -1.
         -1   -1    0    0    0  501 -0.00000000000E+00 -0.00000000000E+00 -0.13878676467E+01  0.13878755036E+01  0.46700000000E-02 0.  1.
       1023    2    1    2    0    0  0.00000000000E+00  0.00000000000E+00  0.70739407822E+02  0.73515151124E+02  0.20010337971E+02 0.  0.
        -13    1    3    3    0    0 -0.63802737802E+01  0.77057438151E+01  0.35650764446E+02  0.37028023973E+02  0.10570000000E+00 0.  1.
         13    1    3    3    0    0  0.63802737802E+01 -0.77057438151E+01  0.35088643376E+02  0.36487127151E+02  0.10570000000E+00 0. -1.
<mgrwt>
<rscale>  0 0.20010338E+02</rscale>
<asrwt>0</asrwt>
<pdfrwt beam="1">  1        1 0.11096509E-01 0.20010338E+02</pdfrwt>
<pdfrwt beam="2">  1       -1 0.21351863E-03 0.20010338E+02</pdfrwt>
<totfact> 0.42898308E+06</totfact>
</mgrwt>
</event>
<event>
 4    1  0.2115795E-006  0.2018165E+02  0.7818608E-02  0.1741740E+00
          1   -1    0    0  501    0  0.00000000000E+00  0.00000000000E+00  0.57380795034E+02  0.57380795224E+02  0.46700000000E-02 0.  1.
         -1   -1    0    0    0  501 -0.00000000000E+00 -0.00000000000E+00 -0.17745410083E+01  0.17745471532E+01  0.46700000000E-02 0. -1.
        -13    1    1    2    0    0  0.60080380662E+01  0.80265294501E+01  0.31134708488E+02  0.32709370852E+02  0.10570000000E+00 0.  1.
         13    1    1    2    0    0 -0.60080380662E+01 -0.80265294501E+01  0.24471545539E+02  0.26445971526E+02  0.10570000000E+00 0. -1.
<mgrwt>
<rscale>  0 0.20181651E+02</rscale>
<asrwt>0</asrwt>
<pdfrwt beam="1">  1        1 0.88278153E-02 0.20181651E+02</pdfrwt>
<pdfrwt beam="2">  1       -1 0.27300679E-03 0.20181651E+02</pdfrwt>
<totfact> 0.41301647E+06</totfact>
</mgrwt>
</event>
<event>
 5    1  0.2115795E-006  0.2000274E+02  0.7818608E-02  0.1745274E+00
          1   -1    0    0  501    0  0.00000000000E+00  0.00000000000E+00  0.10333181565E+01  0.10333287093E+01  0.46700000000E-02 0. -1.
         -1   -1    0    0    0  501 -0.00000000000E+00 -0.00000000000E+00 -0.96801586939E+02  0.96801587052E+02  0.46700000000E-02 0.  1.
       1023    2    1    2    0    0  0.00000000000E+00  0.00000000000E+00 -0.95768268783E+02  0.97834915761E+02  0.20002735722E+02 0.  0.
        -13    1    3    3    0    0 -0.41161116482E+01 -0.91138181505E+01 -0.47345444576E+02  0.48390147251E+02  0.10570000000E+00 0.  1.
         13    1    3    3    0    0  0.41161116482E+01  0.91138181505E+01 -0.48422824207E+02  0.49444768511E+02  0.10570000000E+00 0. -1.
<mgrwt>
<rscale>  0 0.20002736E+02</rscale>
<asrwt>0</asrwt>
<pdfrwt beam="1">  1        1 0.15897292E-03 0.20002736E+02</pdfrwt>
<pdfrwt beam="2">  1       -1 0.14892545E-01 0.20002736E+02</pdfrwt>
<totfact> 0.32031193E+06</totfact>
</mgrwt>
</event>
<event>
 4    1  0.2115795E-006  0.2001768E+02  0.7818608E-02  0.1744977E+00
          1   -1    0    0  501    0  0.00000000000E+00  0.00000000000E+00  0.11016150381E+01  0.11016249366E+01  0.46700000000E-02 0. -1.
         -1   -1    0    0    0  501 -0.00000000000E+00 -0.00000000000E+00 -0.90935934544E+02  0.90935934664E+02  0.46700000000E-02 0.  1.
        -13    1    1    2    0    0  0.90162715619E+01  0.43409977518E+01 -0.44144136263E+02  0.45264261325E+02  0.10570000000E+00 0. -1.
         13    1    1    2    0    0 -0.90162715619E+01 -0.43409977518E+01 -0.45690183243E+02  0.46773298276E+02  0.10570000000E+00 0.  1.
<mgrwt>
<rscale>  0 0.20017678E+02</rscale>
<asrwt>0</asrwt>
<pdfrwt beam="1">  1        1 0.16948008E-03 0.20017678E+02</pdfrwt>
<pdfrwt beam="2">  1       -1 0.13990139E-01 0.20017678E+02</pdfrwt>
<totfact> 0.32302060E+06</totfact>
</mgrwt>
</event>
<event>
 5    1  0.2115795E-006  0.2000175E+02  0.7818608E-02  0.1745293E+00
         -1   -1    0    0    0  501 -0.00000000000E+00  0.00000000000E+00  0.16169380530E+02  0.16169381204E+02  0.46700000000E-02 0. -1.
          1   -1    0    0  501    0  0.00000000000E+00 -0.00000000000E+00 -0.61856099483E+01  0.61856117111E+01  0.46700000000E-02 0.  1.
       1023    2    1    2    0    0  0.00000000000E+00  0.00000000000E+00  0.99837705817E+01  0.22354992916E+02  0.20001750754E+02 0.  0.
        -13    1    3    3    0    0 -0.37946914218E+01  0.92523026507E+01  0.50358658271E+01  0.11197138226E+02  0.10570000000E+00 0.  1.
         13    1    3    3    0    0  0.37946914218E+01 -0.92523026507E+01  0.49479047546E+01  0.11157854690E+02  0.10570000000E+00 0. -1.
<mgrwt>
<rscale>  0 0.20001751E+02</rscale>
<asrwt>0</asrwt>
<pdfrwt beam="2">  1        1 0.95163250E-03 0.20001751E+02</pdfrwt>
<pdfrwt beam="1">  1       -1 0.24875972E-02 0.20001751E+02</pdfrwt>
<totfact> 0.37818249E+06</totfact>
</mgrwt>
</event>
<event>
 4    1  0.2115795E-006  0.2002812E+02  0.7818608E-02  0.1744769E+00
          1   -1    0    0  501    0  0.00000000000E+00  0.00000000000E+00  0.42816731868E+02  0.42816732123E+02  0.46700000000E-02 0. -1.
         -1   -1    0    0    0  501 -0.00000000000E+00 -0.00000000000E+00 -0.23421049578E+01  0.23421096136E+01  0.46700000000E-02 0.  1.
        -13    1    1    2    0    0 -0.98760384520E+01  0.16527560212E+01  0.20349609273E+02  0.22680068519E+02  0.10570000000E+00 0.  1.
         13    1    1    2    0    0  0.98760384520E+01 -0.16527560212E+01  0.20125017637E+02  0.22478773217E+02  0.10570000000E+00 0. -1.
<mgrwt>
<rscale>  0 0.20028119E+02</rscale>
<asrwt>0</asrwt>
<pdfrwt beam="1">  1        1 0.65871894E-02 0.20028119E+02</pdfrwt>
<pdfrwt beam="2">  1       -1 0.36032425E-03 0.20028119E+02</pdfrwt>
<totfact> 0.41155751E+06</totfact>
</mgrwt>
</event>
<event>
 5    1  0.2115795E-006  0.2000655E+02  0.7818608E-02  0.1745198E+00
          1   -1    0    0  501    0  0.00000000000E+00  0.00000000000E+00  0.76365899638E+02  0.76365899780E+02  0.46700000000E-02 0. -1.
         -1   -1    0    0    0  501 -0.00000000000E+00 -0.00000000000E+00 -0.13103389370E+01  0.13103472589E+01  0.46700000000E-02 0.  1.
       1023    2    1    2    0    0  0.00000000000E+00  0.00000000000E+00  0.75055560701E+02  0.77676247039E+02  0.20006552977E+02 0.  0.
        -13    1    3    3    0    0 -0.34328665968E+01 -0.93951531349E+01  0.37643771235E+02  0.38950201037E+02  0.10570000000E+00 0. -1.
         13    1    3    3    0    0  0.34328665968E+01  0.93951531349E+01  0.37411789465E+02  0.38726046002E+02  0.10570000000E+00 0.  1.
<mgrwt>
<rscale>  0 0.20006553E+02</rscale>
<asrwt>0</asrwt>
<pdfrwt beam="1">  1        1 0.11748603E-01 0.20006553E+02</pdfrwt>
<pdfrwt beam="2">  1       -1 0.20159122E-03 0.20006553E+02</pdfrwt>
<totfact> 0.43139404E+06</totfact>
</mgrwt>
</event>
<event>
 4    1  0.2115795E-006  0.2018674E+02  0.7818608E-02  0.1741640E+00
          1   -1    0    0  501    0  0.00000000000E+00  0.00000000000E+00  0.34527917323E+02  0.34527917639E+02  0.46700000000E-02 0.  1.
         -1   -1    0    0    0  501 -0.00000000000E+00 -0.00000000000E+00 -0.29505415474E+01  0.29505452431E+01  0.46700000000E-02 0. -1.
        -13    1    1    2    0    0  0.57137262676E+00 -0.10069027485E+02  0.15062061638E+02  0.18127014494E+02  0.10570000000E+00 0.  1.
         13    1    1    2    0    0 -0.57137262676E+00  0.10069027485E+02  0.16515314138E+02  0.19351448388E+02  0.10570000000E+00 0. -1.
<mgrwt>
<rscale>  0 0.20186741E+02</rscale>
<asrwt>0</asrwt>
<pdfrwt beam="1">  1        1 0.53119874E-02 0.20186741E+02</pdfrwt>
<pdfrwt beam="2">  1       -1 0.45392980E-03 0.20186741E+02</pdfrwt>
<totfact> 0.39923649E+06</totfact>
</mgrwt>
</event>
<event>
 5    1  0.2115795E-006  0.2000139E+02  0.7818608E-02  0.1745300E+00
          1   -1    0    0  501    0  0.00000000000E+00  0.00000000000E+00  0.34167470068E+01  0.34167501983E+01  0.46700000000E-02 0. -1.
         -1   -1    0    0    0  501 -0.00000000000E+00 -0.00000000000E+00 -0.29271659669E+02  0.29271660042E+02  0.46700000000E-02 0.  1.
       1023    2    1    2    0    0  0.00000000000E+00  0.00000000000E+00 -0.25854912662E+02  0.32688410240E+02  0.20001391333E+02 0.  0.
        -13    1    3    3    0    0 -0.55757256645E+01  0.83014120403E+01 -0.12888003125E+02  0.16312999589E+02  0.10570000000E+00 0.  1.
         13    1    3    3    0    0  0.55757256645E+01 -0.83014120403E+01 -0.12966909538E+02  0.16375410651E+02  0.10570000000E+00 0. -1.
<mgrwt>
<rscale>  0 0.20001391E+02</rscale>
<asrwt>0</asrwt>
<pdfrwt beam="1">  1        1 0.52565368E-03 0.20001391E+02</pdfrwt>
<pdfrwt beam="2">  1       -1 0.45033324E-02 0.20001391E+02</pdfrwt>
<totfact> 0.36544085E+06</totfact>
</mgrwt>
</event>
<event>
 5    1  0.2115795E-006  0.2000279E+02  0.7818608E-02  0.1745273E+00
          1   -1    0    0  501    0  0.00000000000E+00  0.00000000000E+00  0.25515931305E+02  0.25515931732E+02  0.46700000000E-02 0. -1.
         -1   -1    0    0    0  501 -0.00000000000E+00 -0.00000000000E+00 -0.39202119889E+01  0.39202147705E+01  0.46700000000E-02 0.  1.
       1023    2    1    2    0    0  0.00000000000E+00  0.00000000000E+00  0.21595719316E+02  0.29436146503E+02  0.20002790509E+02 0.  0.
        -13    1    3    3    0    0 -0.83969576744E+01  0.54310742439E+01  0.10954077837E+02  0.14832682137E+02  0.10570000000E+00 0. -1.
         13    1    3    3    0    0  0.83969576744E+01 -0.54310742439E+01  0.10641641479E+02  0.14603464366E+02  0.10570000000E+00 0.  1.
<mgrwt>
<rscale>  0 0.20002791E+02</rscale>
<asrwt>0</asrwt>
<pdfrwt beam="1">  1        1 0.39255281E-02 0.20002791E+02</pdfrwt>
<pdfrwt beam="2">  1       -1 0.60310978E-03 0.20002791E+02</pdfrwt>
<totfact> 0.40125061E+06</totfact>
</mgrwt>
</event>
<event>
 5    1  0.2115795E-006  0.2000208E+02  0.7818608E-02  0.1745287E+00
          1   -1    0    0  501    0  0.00000000000E+00  0.00000000000E+00  0.11282759101E+01  0.11282855747E+01  0.46700000000E-02 0.  1.
         -1   -1    0    0    0  501 -0.00000000000E+00 -0.00000000000E+00 -0.88648883703E+02  0.88648883826E+02  0.46700000000E-02 0. -1.
       1023    2    1    2    0    0  0.00000000000E+00  0.00000000000E+00 -0.87520607793E+02  0.89777169401E+02  0.20002083821E+02 0.  0.
        -13    1    3    3    0    0 -0.27793664325E+01  0.96060786886E+01 -0.43357815973E+02  0.44496213367E+02  0.10570000000E+00 0.  1.
         13    1    3    3    0    0  0.27793664325E+01 -0.96060786886E+01 -0.44162791820E+02  0.45280956034E+02  0.10570000000E+00 0. -1.
<mgrwt>
<rscale>  0 0.20002084E+02</rscale>
<asrwt>0</asrwt>
<pdfrwt beam="1">  1        1 0.17358173E-03 0.20002084E+02</pdfrwt>
<pdfrwt beam="2">  1       -1 0.13638285E-01 0.20002084E+02</pdfrwt>
<totfact> 0.32485971E+06</totfact>
</mgrwt>
</event>
<event>
 4    1  0.2115795E-006  0.2003576E+02  0.7818608E-02  0.1744618E+00
          1   -1    0    0  501    0  0.00000000000E+00  0.00000000000E+00  0.20249865482E+02  0.20249866021E+02  0.46700000000E-02 0.  1.
         -1   -1    0    0    0  501 -0.00000000000E+00 -0.00000000000E+00 -0.49559791045E+01  0.49559813048E+01  0.46700000000E-02 0. -1.
        -13    1    1    2    0    0 -0.77448415222E+01 -0.63397564871E+01  0.71256673966E+01  0.12286634643E+02  0.10570000000E+00 0. -1.
         13    1    1    2    0    0  0.77448415222E+01  0.63397564871E+01  0.81682189812E+01  0.12919212682E+02  0.10570000000E+00 0.  1.
<mgrwt>
<rscale>  0 0.20035762E+02</rscale>
<asrwt>0</asrwt>
<pdfrwt beam="1">  1        1 0.31153641E-02 0.20035762E+02</pdfrwt>
<pdfrwt beam="2">  1       -1 0.76245853E-03 0.20035762E+02</pdfrwt>
<totfact> 0.39567925E+06</totfact>
</mgrwt>
</event>
<event>
 5    1  0.2115795E-006  0.2000232E+02  0.7818608E-02  0.1745282E+00
         -1   -1    0    0    0  501 -0.00000000000E+00  0.00000000000E+00  0.16966610656E+01  0.16966674926E+01  0.46700000000E-02 0. -1.
          1   -1    0    0  501    0  0.00000000000E+00 -0.00000000000E+00 -0.58952842846E+02  0.58952843031E+02  0.46700000000E-02 0.  1.
       1023    2    1    2    0    0  0.00000000000E+00  0.00000000000E+00 -0.57256181780E+02  0.60649510523E+02  0.20002319233E+02 0.  0.
        -13    1    3    3    0    0 -0.29850612530E+01 -0.95445089818E+01 -0.28814481319E+02  0.30500717181E+02  0.10570000000E+00 0.  1.
         13    1    3    3    0    0  0.29850612530E+01  0.95445089818E+01 -0.28441700461E+02  0.30148793342E+02  0.10570000000E+00 0. -1.
<mgrwt>
<rscale>  0 0.20002319E+02</rscale>
<asrwt>0</asrwt>
<pdfrwt beam="2">  1        1 0.90696671E-02 0.20002319E+02</pdfrwt>
<pdfrwt beam="1">  1       -1 0.26102533E-03 0.20002319E+02</pdfrwt>
<totfact> 0.42217086E+06</totfact>
</mgrwt>
</event>
<event>
 5    1  0.2115795E-006  0.2000205E+02  0.7818608E-02  0.1745287E+00
          1   -1    0    0  501    0  0.00000000000E+00  0.00000000000E+00  0.34965548223E+01  0.34965579409E+01  0.46700000000E-02 0. -1.
         -1   -1    0    0    0  501 -0.00000000000E+00 -0.00000000000E+00 -0.28605416892E+02  0.28605417273E+02  0.46700000000E-02 0.  1.
       1023    2    1    2    0    0  0.00000000000E+00  0.00000000000E+00 -0.25108862070E+02  0.32101975214E+02  0.20002046351E+02 0.  0.
        -13    1    3    3    0    0 -0.95962097877E+01 -0.28145828078E+01 -0.12575564561E+02  0.16067517394E+02  0.10570000000E+00 0.  1.
         13    1    3    3    0    0  0.95962097877E+01  0.28145828078E+01 -0.12533297508E+02  0.16034457821E+02  0.10570000000E+00 0. -1.
<mgrwt>
<rscale>  0 0.20002046E+02</rscale>
<asrwt>0</asrwt>
<pdfrwt beam="1">  1        1 0.53793180E-03 0.20002046E+02</pdfrwt>
<pdfrwt beam="2">  1       -1 0.44008335E-02 0.20002046E+02</pdfrwt>
<totfact> 0.36599760E+06</totfact>
</mgrwt>
</event>
<event>
 5    1  0.2115795E-006  0.2000297E+02  0.7818608E-02  0.1745269E+00
          1   -1    0    0  501    0  0.00000000000E+00  0.00000000000E+00  0.10682555867E+02  0.10682556887E+02  0.46700000000E-02 0. -1.
         -1   -1    0    0    0  501 -0.00000000000E+00 -0.00000000000E+00 -0.93638381013E+01  0.93638392658E+01  0.46700000000E-02 0.  1.
       1023    2    1    2    0    0  0.00000000000E+00  0.00000000000E+00  0.13187177654E+01  0.20046396153E+02  0.20002974333E+02 0.  0.
        -13    1    3    3    0    0 -0.99264761052E+01 -0.12166402267E+01  0.71806716431E+00  0.10027060100E+02  0.10570000000E+00 0.  1.
         13    1    3    3    0    0  0.99264761052E+01  0.12166402267E+01  0.60065060105E+00  0.10019336053E+02  0.10570000000E+00 0. -1.
<mgrwt>
<rscale>  0 0.20002974E+02</rscale>
<asrwt>0</asrwt>
<pdfrwt beam="1">  1        1 0.16434703E-02 0.20002974E+02</pdfrwt>
<pdfrwt beam="2">  1       -1 0.14405906E-02 0.20002974E+02</pdfrwt>
<totfact> 0.38712763E+06</totfact>
</mgrwt>
</event>
<event>
 5    1  0.2115795E-006  0.2000457E+02  0.7818608E-02  0.1745237E+00
          1   -1    0    0  501    0  0.00000000000E+00  0.00000000000E+00  0.11374498297E+02  0.11374499256E+02  0.46700000000E-02 0.  1.
         -1   -1    0    0    0  501 -0.00000000000E+00 -0.00000000000E+00 -0.87956112213E+01  0.87956124611E+01  0.46700000000E-02 0. -1.
       1023    2    1    2    0    0  0.00000000000E+00  0.00000000000E+00  0.25788870759E+01  0.20170111717E+02  0.20004568181E+02 0.  0.
        -13    1    3    3    0    0 -0.84688557308E+01  0.53195826281E+01  0.14130870942E+01  0.10100864535E+02  0.10570000000E+00 0. -1.
         13    1    3    3    0    0  0.84688557308E+01 -0.53195826281E+01  0.11657999817E+01  0.10069247182E+02  0.10570000000E+00 0.  1.
<mgrwt>
<rscale>  0 0.20004568E+02</rscale>
<asrwt>0</asrwt>
<pdfrwt beam="1">  1        1 0.17499230E-02 0.20004568E+02</pdfrwt>
<pdfrwt beam="2">  1       -1 0.13531711E-02 0.20004568E+02</pdfrwt>
<totfact> 0.38801821E+06</totfact>
</mgrwt>
</event>
<event>
 5    1  0.2115795E-006  0.2000217E+02  0.7818608E-02  0.1745285E+00
         -1   -1    0    0    0  501 -0.00000000000E+00  0.00000000000E+00  0.12833914800E+01  0.12833999766E+01  0.46700000000E-02 0.  1.
          1   -1    0    0  501    0  0.00000000000E+00 -0.00000000000E+00 -0.77935162632E+02  0.77935162772E+02  0.46700000000E-02 0. -1.
       1023    2    1    2    0    0  0.00000000000E+00  0.00000000000E+00 -0.76651771152E+02  0.79218562749E+02  0.20002166463E+02 0.  0.
        -13    1    3    3    0    0 -0.10000511208E+02 -0.93971801931E-02 -0.38272662497E+02  0.39557782797E+02  0.10570000000E+00 0. -1.
         13    1    3    3    0    0  0.10000511208E+02  0.93971801931E-02 -0.38379108656E+02  0.39660779952E+02  0.10570000000E+00 0.  1.
<mgrwt>
<rscale>  0 0.20002166E+02</rscale>
<asrwt>0</asrwt>
<pdfrwt beam="2">  1        1 0.11990022E-01 0.20002166E+02</pdfrwt>
<pdfrwt beam="1">  1       -1 0.19744557E-03 0.20002166E+02</pdfrwt>
<totfact> 0.43242111E+06</totfact>
</mgrwt>
</event>
<event>
 5    1  0.2115795E-006  0.2000149E+02  0.7818608E-02  0.1745299E+00
         -1   -1    0    0    0  501 -0.00000000000E+00  0.00000000000E+00  0.49337303353E+01  0.49337325455E+01  0.46700000000E-02 0. -1.
          1   -1    0    0  501    0  0.00000000000E+00 -0.00000000000E+00 -0.20271643964E+02  0.20271644502E+02  0.46700000000E-02 0.  1.
       1023    2    1    2    0    0  0.00000000000E+00  0.00000000000E+00 -0.15337913629E+02  0.25205377048E+02  0.20001485885E+02 0.  0.
        -13    1    3    3    0    0  0.61992249002E+01 -0.78468094040E+01 -0.76315796751E+01  0.12579943880E+02  0.10570000000E+00 0.  1.
         13    1    3    3    0    0 -0.61992249002E+01  0.78468094040E+01 -0.77063339540E+01  0.12625433168E+02  0.10570000000E+00 0. -1.
<mgrwt>
<rscale>  0 0.20001486E+02</rscale>
<asrwt>0</asrwt>
<pdfrwt beam="2">  1        1 0.31187146E-02 0.20001486E+02</pdfrwt>
<pdfrwt beam="1">  1       -1 0.75903566E-03 0.20001486E+02</pdfrwt>
<totfact> 0.39721966E+06</totfact>
</mgrwt>
</event>
<event>
 4    1  0.2115795E-006  0.2004412E+02  0.7818608E-02  0.1744452E+00
         -1   -1    0    0    0  501 -0.00000000000E+00  0.00000000000E+00  0.22799950813E+02  0.22799951291E+02  0.46700000000E-02 0. -1.
          1   -1    0    0  501    0  0.00000000000E+00 -0.00000000000E+00 -0.44053453074E+01  0.44053477827E+01  0.46700000000E-02 0.  1.
        -13    1    1    2    0    0  0.66010585902E+01  0.75379511390E+01  0.89403440381E+01  0.13428909334E+02  0.10570000000E+00 0. -1.
         13    1    1    2    0    0 -0.66010585902E+01 -0.75379511390E+01  0.94542614672E+01  0.13776389740E+02  0.10570000000E+00 0.  1.
<mgrwt>
<rscale>  0 0.20044121E+02</rscale>
<asrwt>0</asrwt>
<pdfrwt beam="2">  1        1 0.67774566E-03 0.20044121E+02</pdfrwt>
<pdfrwt beam="1">  1       -1 0.35076850E-02 0.20044121E+02</pdfrwt>
<totfact> 0.36960595E+06</totfact>
</mgrwt>
</event>
<event>
 4    1  0.2115795E-006  0.2003469E+02  0.7818608E-02  0.1744639E+00
         -1   -1    0    0    0  501 -0.00000000000E+00  0.00000000000E+00  0.12953375883E+01  0.12953460065E+01  0.46700000000E-02 0. -1.
          1   -1    0    0  501    0  0.00000000000E+00 -0.00000000000E+00 -0.77467715287E+02  0.77467715428E+02  0.46700000000E-02 0.  1.
        -13    1    1    2    0    0  0.23830380428E+01 -0.97291273698E+01 -0.38223412885E+02  0.39514241164E+02  0.10570000000E+00 0.  1.
         13    1    1    2    0    0 -0.23830380428E+01  0.97291273698E+01 -0.37948964814E+02  0.39248820271E+02  0.10570000000E+00 0. -1.
<mgrwt>
<rscale>  0 0.20034688E+02</rscale>
<asrwt>0</asrwt>
<pdfrwt beam="2">  1        1 0.11918107E-01 0.20034688E+02</pdfrwt>
<pdfrwt beam="1">  1       -1 0.19928342E-03 0.20034688E+02</pdfrwt>
<totfact> 0.43062751E+06</totfact>
</mgrwt>
</event>
<event>
 5    1  0.2115795E-006  0.2001030E+02  0.7818608E-02  0.1745123E+00
          1   -1    0    0  501    0  0.00000000000E+00  0.00000000000E+00  0.20088076809E+01  0.20088131093E+01  0.46700000000E-02 0. -1.
         -1   -1    0    0    0  501 -0.00000000000E+00 -0.00000000000E+00 -0.49831969910E+02  0.49831970129E+02  0.46700000000E-02 0.  1.
       1023    2    1    2    0    0  0.00000000000E+00  0.00000000000E+00 -0.47823162229E+02  0.51840783238E+02  0.20010296378E+02 0.  0.
        -13    1    3    3    0    0 -0.96635594516E+01 -0.25894281632E+01 -0.23787380864E+02  0.25805816793E+02  0.10570000000E+00 0. -1.
         13    1    3    3    0    0  0.96635594516E+01  0.25894281632E+01 -0.24035781365E+02  0.26034966445E+02  0.10570000000E+00 0.  1.
<mgrwt>
<rscale>  0 0.20010296E+02</rscale>
<asrwt>0</asrwt>
<pdfrwt beam="1">  1        1 0.30904781E-03 0.20010296E+02</pdfrwt>
<pdfrwt beam="2">  1       -1 0.76664564E-02 0.20010296E+02</pdfrwt>
<totfact> 0.34902064E+06</totfact>
</mgrwt>
</event>
<event>
 5    1  0.2115795E-006  0.2000148E+02  0.7818608E-02  0.1745299E+00
          1   -1    0    0  501    0  0.00000000000E+00  0.00000000000E+00  0.24111707624E+02  0.24111708076E+02  0.46700000000E-02 0. -1.
         -1   -1    0    0    0  501 -0.00000000000E+00 -0.00000000000E+00 -0.41479744916E+01  0.41479771205E+01  0.46700000000E-02 0.  1.
       1023    2    1    2    0    0  0.00000000000E+00  0.00000000000E+00  0.19963733132E+02  0.28259685196E+02  0.20001479116E+02 0.  0.
        -13    1    3    3    0    0 -0.99948734912E+01 -0.32492302974E+00  0.10014945394E+02  0.14153210760E+02  0.10570000000E+00 0. -1.
         13    1    3    3    0    0  0.99948734912E+01  0.32492302974E+00  0.99487877382E+01  0.14106474437E+02  0.10570000000E+00 0.  1.
<mgrwt>
<rscale>  0 0.20001479E+02</rscale>
<asrwt>0</asrwt>
<pdfrwt beam="1">  1        1 0.37094937E-02 0.20001479E+02</pdfrwt>
<pdfrwt beam="2">  1       -1 0.63815016E-03 0.20001479E+02</pdfrwt>
<totfact> 0.40025975E+06</totfact>
</mgrwt>
</event>
<event>
 5    1  0.2115795E-006  0.2000389E+02  0.7818608E-02  0.1745251E+00
         -1   -1    0    0    0  501 -0.00000000000E+00  0.00000000000E+00  0.21357602118E+01  0.21357653175E+01  0.46700000000E-02 0.  1.
          1   -1    0    0  501    0  0.00000000000E+00 -0.00000000000E+00 -0.46839870749E+02  0.46839870982E+02  0.46700000000E-02 0. -1.
       1023    2    1    2    0    0  0.00000000000E+00  0.00000000000E+00 -0.44704110538E+02  0.48975636300E+02  0.20003885923E+02 0.  0.
        -13    1    3    3    0    0 -0.36882284621E+01  0.92961426069E+01 -0.22156283306E+02  0.24309120901E+02  0.10570000000E+00 0. -1.
         13    1    3    3    0    0  0.36882284621E+01 -0.92961426069E+01 -0.22547827232E+02  0.24666515399E+02  0.10570000000E+00 0.  1.
<mgrwt>
<rscale>  0 0.20003886E+02</rscale>
<asrwt>0</asrwt>
<pdfrwt beam="2">  1        1 0.72061336E-02 0.20003886E+02</pdfrwt>
<pdfrwt beam="1">  1       -1 0.32857894E-03 0.20003886E+02</pdfrwt>
<totfact> 0.41509959E+06</totfact>
</mgrwt>
</event>
<event>
 5    1  0.2115795E-006  0.2000151E+02  0.7818608E-02  0.1745298E+00
          1   -1    0    0  501    0  0.00000000000E+00  0.00000000000E+00  0.28645182370E+02  0.28645182751E+02  0.46700000000E-02 0.  1.
         -1   -1    0    0    0  501 -0.00000000000E+00 -0.00000000000E+00 -0.34915150273E+01  0.34915181505E+01  0.46700000000E-02 0. -1.
       1023    2    1    2    0    0  0.00000000000E+00  0.00000000000E+00  0.25153667343E+02  0.32136700902E+02  0.20001514043E+02 0.  0.
        -13    1    3    3    0    0  0.92800998926E+01  0.37258746905E+01  0.12513124061E+02  0.16018484400E+02  0.10570000000E+00 0. -1.
         13    1    3    3    0    0 -0.92800998926E+01 -0.37258746905E+01  0.12640543282E+02  0.16118216501E+02  0.10570000000E+00 0.  1.
<mgrwt>
<rscale>  0 0.20001514E+02</rscale>
<asrwt>0</asrwt>
<pdfrwt beam="1">  1        1 0.44069514E-02 0.20001514E+02</pdfrwt>
<pdfrwt beam="2">  1       -1 0.53715643E-03 0.20001514E+02</pdfrwt>
<totfact> 0.40355709E+06</totfact>
</mgrwt>
</event>
<event>
 5    1  0.2115795E-006  0.2000228E+02  0.7818608E-02  0.1745283E+00
          1   -1    0    0  501    0  0.00000000000E+00  0.00000000000E+00  0.24464503309E+01  0.24464547882E+01  0.46700000000E-02 0.  1.
         -1   -1    0    0    0  501 -0.00000000000E+00 -0.00000000000E+00 -0.40884813019E+02  0.40884813286E+02  0.46700000000E-02 0. -1.
       1023    2    1    2    0    0  0.00000000000E+00  0.00000000000E+00 -0.38438362688E+02  0.43331268074E+02  0.20002276539E+02 0.  0.
        -13    1    3    3    0    0 -0.37248180428E+01 -0.92807311341E+01 -0.19377698354E+02  0.21806251531E+02  0.10570000000E+00 0. -1.
         13    1    3    3    0    0  0.37248180428E+01  0.92807311341E+01 -0.19060664334E+02  0.21525016543E+02  0.10570000000E+00 0.  1.
<mgrwt>
<rscale>  0 0.20002277E+02</rscale>
<asrwt>0</asrwt>
<pdfrwt beam="1">  1        1 0.37637737E-03 0.20002277E+02</pdfrwt>
<pdfrwt beam="2">  1       -1 0.62899711E-02 0.20002277E+02</pdfrwt>
<totfact> 0.35593995E+06</totfact>
</mgrwt>
</event>
<event>
 4    1  0.2115795E-006  0.2015103E+02  0.7818608E-02  0.1742341E+00
         -1   -1    0    0    0  501 -0.00000000000E+00  0.00000000000E+00  0.34141270837E+01  0.34141302776E+01  0.46700000000E-02 0. -1.
          1   -1    0    0  501    0  0.00000000000E+00 -0.00000000000E+00 -0.29734072709E+02  0.29734073076E+02  0.46700000000E-02 0.  1.
        -13    1    1    2    0    0  0.15444752650E+01  0.99404031222E+01 -0.14072565444E+02  0.17298707718E+02  0.10570000000E+00 0.  1.
         13    1    1    2    0    0 -0.15444752650E+01 -0.99404031222E+01 -0.12247380182E+02  0.15849495635E+02  0.10570000000E+00 0. -1.
<mgrwt>
<rscale>  0 0.20151026E+02</rscale>
<asrwt>0</asrwt>
<pdfrwt beam="2">  1        1 0.45744728E-02 0.20151026E+02</pdfrwt>
<pdfrwt beam="1">  1       -1 0.52525061E-03 0.20151026E+02</pdfrwt>
<totfact> 0.39764166E+06</totfact>
</mgrwt>
</event>
<event>
 5    1  0.2115795E-006  0.2000203E+02  0.7818608E-02  0.1745288E+00
         -1   -1    0    0    0  501 -0.00000000000E+00  0.00000000000E+00  0.23695024946E+01  0.23695070966E+01  0.46700000000E-02 0. -1.
          1   -1    0    0  501    0  0.00000000000E+00 -0.00000000000E+00 -0.42211457543E+02  0.42211457801E+02  0.46700000000E-02 0.  1.
       1023    2    1    2    0    0  0.00000000000E+00  0.00000000000E+00 -0.39841955048E+02  0.44580964898E+02  0.20002026126E+02 0.  0.
        -13    1    3    3    0    0  0.67484027491E+01 -0.73799318826E+01 -0.20074678114E+02  0.22427844482E+02  0.10570000000E+00 0. -1.
         13    1    3    3    0    0 -0.67484027491E+01  0.73799318826E+01 -0.19767276935E+02  0.22153120416E+02  0.10570000000E+00 0.  1.
<mgrwt>
<rscale>  0 0.20002026E+02</rscale>
<asrwt>0</asrwt>
<pdfrwt beam="2">  1        1 0.64940702E-02 0.20002026E+02</pdfrwt>
<pdfrwt beam="1">  1       -1 0.36453925E-03 0.20002026E+02</pdfrwt>
<totfact> 0.41238207E+06</totfact>
</mgrwt>
</event>
<event>
 5    1  0.2115795E-006  0.2000144E+02  0.7818608E-02  0.1745299E+00
          1   -1    0    0  501    0  0.00000000000E+00  0.00000000000E+00  0.14876584177E+02  0.14876584910E+02  0.46700000000E-02 0. -1.
         -1   -1    0    0    0  501 -0.00000000000E+00 -0.00000000000E+00 -0.67229379776E+01  0.67229395995E+01  0.46700000000E-02 0.  1.
       1023    2    1    2    0    0  0.00000000000E+00  0.00000000000E+00  0.81536461990E+01  0.21599524509E+02  0.20001437765E+02 0.  0.
        -13    1    3    3    0    0 -0.97053215802E+01  0.24103361962E+01  0.40927722103E+01  0.10805782915E+02  0.10570000000E+00 0. -1.
         13    1    3    3    0    0  0.97053215802E+01 -0.24103361962E+01  0.40608739887E+01  0.10793741594E+02  0.10570000000E+00 0.  1.
<mgrwt>
<rscale>  0 0.20001438E+02</rscale>
<asrwt>0</asrwt>
<pdfrwt beam="1">  1        1 0.22887055E-02 0.20001438E+02</pdfrwt>
<pdfrwt beam="2">  1       -1 0.10342983E-02 0.20001438E+02</pdfrwt>
<totfact> 0.39225534E+06</totfact>
</mgrwt>
</event>
<event>
 5    1  0.2115795E-006  0.2000234E+02  0.7818608E-02  0.1745281E+00
         -1   -1    0    0    0  501 -0.00000000000E+00  0.00000000000E+00  0.57619302760E+02  0.57619302950E+02  0.46700000000E-02 0.  1.
          1   -1    0    0  501    0  0.00000000000E+00 -0.00000000000E+00 -0.17359328197E+01  0.17359391013E+01  0.46700000000E-02 0. -1.
       1023    2    1    2    0    0  0.00000000000E+00  0.00000000000E+00  0.55883369941E+02  0.59355242051E+02  0.20002342938E+02 0.  0.
        -13    1    3    3    0    0 -0.46026593349E+00 -0.99900118171E+01  0.27967795901E+02  0.29702204647E+02  0.10570000000E+00 0.  1.
         13    1    3    3    0    0  0.46026593349E+00  0.99900118171E+01  0.27915574039E+02  0.29653037404E+02  0.10570000000E+00 0. -1.
<mgrwt>
<rscale>  0 0.20002343E+02</rscale>
<asrwt>0</asrwt>
<pdfrwt beam="2">  1        1 0.26706712E-03 0.20002343E+02</pdfrwt>
<pdfrwt beam="1">  1       -1 0.88645073E-02 0.20002343E+02</pdfrwt>
<totfact> 0.34393473E+06</totfact>
</mgrwt>
</event>
<event>
 4    1  0.2148139E-006  0.2195343E+02  0.7818608E-02  0.1709059E+00
          1   -1    0    0  501    0  0.00000000000E+00  0.00000000000E+00  0.80454404270E+02  0.80454404406E+02  0.46700000000E-02 0.  1.
         -1   -1    0    0    0  501 -0.00000000000E+00 -0.00000000000E+00 -0.14975932188E+01  0.14976005001E+01  0.46700000000E-02 0. -1.
        -13    1    1    2    0    0 -0.76696864632E+01 -0.75474703593E+01  0.47561609348E+02  0.48763780160E+02  0.10570000000E+00 0.  1.
         13    1    1    2    0    0  0.76696864632E+01  0.75474703593E+01  0.31395201704E+02  0.33188224746E+02  0.10570000000E+00 0. -1.
<mgrwt>
<rscale>  0 0.21953430E+02</rscale>
<asrwt>0</asrwt>
<pdfrwt beam="1">  1        1 0.12377599E-01 0.21953430E+02</pdfrwt>
<pdfrwt beam="2">  1       -1 0.23039957E-03 0.21953430E+02</pdfrwt>
<totfact> 0.35241750E+06</totfact>
</mgrwt>
</event>
<event>
 5    1  0.2115795E-006  0.2000753E+02  0.7818608E-02  0.1745178E+00
         -1   -1    0    0    0  501 -0.00000000000E+00  0.00000000000E+00  0.15567318317E+02  0.15567319018E+02  0.46700000000E-02 0. -1.
          1   -1    0    0  501    0  0.00000000000E+00 -0.00000000000E+00 -0.64285472835E+01  0.64285489797E+01  0.46700000000E-02 0.  1.
       1023    2    1    2    0    0  0.00000000000E+00  0.00000000000E+00  0.91387710340E+01  0.21995867998E+02  0.20007525408E+02 0.  0.
        -13    1    3    3    0    0 -0.15816806050E+01 -0.98771460757E+01  0.46420412243E+01  0.11028120754E+02  0.10570000000E+00 0. -1.
         13    1    3    3    0    0  0.15816806050E+01  0.98771460757E+01  0.44967298097E+01  0.10967747244E+02  0.10570000000E+00 0.  1.
<mgrwt>
<rscale>  0 0.20007525E+02</rscale>
<asrwt>0</asrwt>
<pdfrwt beam="2">  1        1 0.98900746E-03 0.20007525E+02</pdfrwt>
<pdfrwt beam="1">  1       -1 0.23949722E-02 0.20007525E+02</pdfrwt>
<totfact> 0.37862714E+06</totfact>
</mgrwt>
</event>
<event>
 5    1  0.2115795E-006  0.2000385E+02  0.7818608E-02  0.1745252E+00
         -1   -1    0    0    0  501 -0.00000000000E+00  0.00000000000E+00  0.86515322662E+02  0.86515322788E+02  0.46700000000E-02 0.  1.
          1   -1    0    0  501    0  0.00000000000E+00 -0.00000000000E+00 -0.11563049835E+01  0.11563144139E+01  0.46700000000E-02 0. -1.
       1023    2    1    2    0    0  0.00000000000E+00  0.00000000000E+00  0.85359017679E+02  0.87671637202E+02  0.20003851395E+02 0.  0.
        -13    1    3    3    0    0  0.96452169996E+01 -0.26442607747E+01  0.42990008322E+02  0.44138127668E+02  0.10570000000E+00 0.  1.
         13    1    3    3    0    0 -0.96452169996E+01  0.26442607747E+01  0.42369009356E+02  0.43533509534E+02  0.10570000000E+00 0. -1.
<mgrwt>
<rscale>  0 0.20003851E+02</rscale>
<asrwt>0</asrwt>
<pdfrwt beam="2">  1        1 0.17789378E-03 0.20003851E+02</pdfrwt>
<pdfrwt beam="1">  1       -1 0.13310053E-01 0.20003851E+02</pdfrwt>
<totfact> 0.32601001E+06</totfact>
</mgrwt>
</event>
<event>
 4    1  0.2115795E-006  0.2012296E+02  0.7818608E-02  0.1742894E+00
         -1   -1    0    0    0  501 -0.00000000000E+00  0.00000000000E+00  0.78311341556E+01  0.78311355480E+01  0.46700000000E-02 0. -1.
          1   -1    0    0  501    0  0.00000000000E+00 -0.00000000000E+00 -0.12927032159E+02  0.12927033003E+02  0.46700000000E-02 0.  1.
        -13    1    1    2    0    0 -0.24684769947E+01 -0.97150199147E+01 -0.16562653923E+01  0.10160185931E+02  0.10570000000E+00 0. -1.
         13    1    1    2    0    0  0.24684769947E+01  0.97150199147E+01 -0.34396326115E+01  0.10597982620E+02  0.10570000000E+00 0.  1.
<mgrwt>
<rscale>  0 0.20122957E+02</rscale>
<asrwt>0</asrwt>
<pdfrwt beam="2">  1        1 0.19887743E-02 0.20122957E+02</pdfrwt>
<pdfrwt beam="1">  1       -1 0.12047900E-02 0.20122957E+02</pdfrwt>
<totfact> 0.38480822E+06</totfact>
</mgrwt>
</event>
<event>
 5    1  0.2115795E-006  0.2000748E+02  0.7818608E-02  0.1745179E+00
          1   -1    0    0  501    0  0.00000000000E+00  0.00000000000E+00  0.25135893294E+01  0.25135936676E+01  0.46700000000E-02 0. -1.
         -1   -1    0    0    0  501 -0.00000000000E+00 -0.00000000000E+00 -0.39813475774E+02  0.39813476048E+02  0.46700000000E-02 0.  1.
       1023    2    1    2    0    0  0.00000000000E+00  0.00000000000E+00 -0.37299886445E+02  0.42327069715E+02  0.20007481149E+02 0.  0.
        -13    1    3    3    0    0  0.15417975511E+00 -0.10001348078E+02 -0.18409491929E+02  0.20951641949E+02  0.10570000000E+00 0. -1.
         13    1    3    3    0    0 -0.15417975511E+00  0.10001348078E+02 -0.18890394515E+02  0.21375427767E+02  0.10570000000E+00 0.  1.
<mgrwt>
<rscale>  0 0.20007481E+02</rscale>
<asrwt>0</asrwt>
<pdfrwt beam="1">  1        1 0.38670643E-03 0.20007481E+02</pdfrwt>
<pdfrwt beam="2">  1       -1 0.61251500E-02 0.20007481E+02</pdfrwt>
<totfact> 0.35656265E+06</totfact>
</mgrwt>
</event>
<event>
 5    1  0.2115795E-006  0.2000133E+02  0.7818608E-02  0.1745302E+00
          1   -1    0    0  501    0  0.00000000000E+00  0.00000000000E+00  0.21289444835E+02  0.21289445347E+02  0.46700000000E-02 0.  1.
         -1   -1    0    0    0  501 -0.00000000000E+00 -0.00000000000E+00 -0.46977859480E+01  0.46977882692E+01  0.46700000000E-02 0. -1.
       1023    2    1    2    0    0  0.00000000000E+00  0.00000000000E+00  0.16591658887E+02  0.25987233616E+02  0.20001329116E+02 0.  0.
        -13    1    3    3    0    0  0.99315584623E+01  0.11686566670E+01  0.83250910377E+01  0.13012298996E+02  0.10570000000E+00 0. -1.
         13    1    3    3    0    0 -0.99315584623E+01 -0.11686566670E+01  0.82665678494E+01  0.12974934620E+02  0.10570000000E+00 0.  1.
<mgrwt>
<rscale>  0 0.20001329E+02</rscale>
<asrwt>0</asrwt>
<pdfrwt beam="1">  1        1 0.32752994E-02 0.20001329E+02</pdfrwt>
<pdfrwt beam="2">  1       -1 0.72273653E-03 0.20001329E+02</pdfrwt>
<totfact> 0.39806086E+06</totfact>
</mgrwt>
</event>
<event>
 5    1  0.2115795E-006  0.2000819E+02  0.7818608E-02  0.1745165E+00
          1   -1    0    0  501    0  0.00000000000E+00  0.00000000000E+00  0.80820817912E+01  0.80820831404E+01  0.46700000000E-02 0. -1.
         -1   -1    0    0    0  501 -0.00000000000E+00 -0.00000000000E+00 -0.12383178955E+02  0.12383179836E+02  0.46700000000E-02 0.  1.
       1023    2    1    2    0    0  0.00000000000E+00  0.00000000000E+00 -0.43010971638E+01  0.20465262976E+02  0.20008187121E+02 0.  0.
        -13    1    3    3    0    0 -0.99925553769E+01 -0.46855661025E+00 -0.21478001527E+01  0.10232053862E+02  0.10570000000E+00 0. -1.
         13    1    3    3    0    0  0.99925553769E+01  0.46855661025E+00 -0.21532970110E+01  0.10233209114E+02  0.10570000000E+00 0.  1.
<mgrwt>
<rscale>  0 0.20008187E+02</rscale>
<asrwt>0</asrwt>
<pdfrwt beam="1">  1        1 0.12433974E-02 0.20008187E+02</pdfrwt>
<pdfrwt beam="2">  1       -1 0.19051046E-02 0.20008187E+02</pdfrwt>
<totfact> 0.38250357E+06</totfact>
</mgrwt>
</event>
<event>
 5    1  0.2115795E-006  0.2000939E+02  0.7818608E-02  0.1745141E+00
         -1   -1    0    0    0  501 -0.00000000000E+00  0.00000000000E+00  0.17116265806E+02  0.17116266443E+02  0.46700000000E-02 0.  1.
          1   -1    0    0  501    0  0.00000000000E+00 -0.00000000000E+00 -0.58478790890E+01  0.58478809537E+01  0.46700000000E-02 0. -1.
       1023    2    1    2    0    0  0.00000000000E+00  0.00000000000E+00  0.11268386717E+02  0.22964147397E+02  0.20009385959E+02 0.  0.
        -13    1    3    3    0    0  0.66277275158E+01  0.74913684602E+01  0.54184569837E+01  0.11376212990E+02  0.10570000000E+00 0.  1.
         13    1    3    3    0    0 -0.66277275158E+01 -0.74913684602E+01  0.58499297333E+01  0.11587934406E+02  0.10570000000E+00 0. -1.
<mgrwt>
<rscale>  0 0.20009386E+02</rscale>
<asrwt>0</asrwt>
<pdfrwt beam="2">  1        1 0.89967392E-03 0.20009386E+02</pdfrwt>
<pdfrwt beam="1">  1       -1 0.26332718E-02 0.20009386E+02</pdfrwt>
<totfact> 0.37681603E+06</totfact>
</mgrwt>
</event>
<event>
 4    1  0.2115795E-006  0.2003221E+02  0.7818608E-02  0.1744688E+00
         -1   -1    0    0    0  501 -0.00000000000E+00  0.00000000000E+00  0.56920411864E+01  0.56920431021E+01  0.46700000000E-02 0. -1.
          1   -1    0    0  501    0  0.00000000000E+00 -0.00000000000E+00 -0.17625013293E+02  0.17625013911E+02  0.46700000000E-02 0.  1.
        -13    1    1    2    0    0  0.99537788103E+01  0.97730736369E+00 -0.53524211349E+01  0.11344268455E+02  0.10570000000E+00 0.  1.
         13    1    1    2    0    0 -0.99537788103E+01 -0.97730736369E+00 -0.65805509715E+01  0.11972788558E+02  0.10570000000E+00 0. -1.
<mgrwt>
<rscale>  0 0.20032207E+02</rscale>
<asrwt>0</asrwt>
<pdfrwt beam="2">  1        1 0.27115407E-02 0.20032207E+02</pdfrwt>
<pdfrwt beam="1">  1       -1 0.87569885E-03 0.20032207E+02</pdfrwt>
<totfact> 0.39356020E+06</totfact>
</mgrwt>
</event>
<event>
 5    1  0.2115795E-006  0.2000238E+02  0.7818608E-02  0.1745281E+00
          1   -1    0    0  501    0  0.00000000000E+00  0.00000000000E+00  0.63372645880E+02  0.63372646052E+02  0.46700000000E-02 0. -1.
         -1   -1    0    0    0  501 -0.00000000000E+00 -0.00000000000E+00 -0.15783394898E+01  0.15783463986E+01  0.46700000000E-02 0.  1.
       1023    2    1    2    0    0  0.00000000000E+00  0.00000000000E+00  0.61794306390E+02  0.64950992451E+02  0.20002377811E+02 0.  0.
        -13    1    3    3    0    0 -0.99095110599E+01  0.13467494094E+01  0.30827236332E+02  0.32408977395E+02  0.10570000000E+00 0. -1.
         13    1    3    3    0    0  0.99095110599E+01 -0.13467494094E+01  0.30967070058E+02  0.32542015056E+02  0.10570000000E+00 0.  1.
<mgrwt>
<rscale>  0 0.20002378E+02</rscale>
<asrwt>0</asrwt>
<pdfrwt beam="1">  1        1 0.97496395E-02 0.20002378E+02</pdfrwt>
<pdfrwt beam="2">  1       -1 0.24282198E-03 0.20002378E+02</pdfrwt>
<totfact> 0.42462567E+06</totfact>
</mgrwt>
</event>
<event>
 4    1  0.2115795E-006  0.2003566E+02  0.7818608E-02  0.1744620E+00
         -1   -1    0    0    0  501 -0.00000000000E+00  0.00000000000E+00  0.13052989349E+02  0.13052990185E+02  0.46700000000E-02 0.  1.
          1   -1    0    0  501    0  0.00000000000E+00 -0.00000000000E+00 -0.76884217104E+01  0.76884231287E+01  0.46700000000E-02 0. -1.
        -13    1    1    2    0    0 -0.14561004538E+01  0.99096904494E+01  0.25234375256E+01  0.10329622586E+02  0.10570000000E+00 0.  1.
         13    1    1    2    0    0  0.14561004538E+01 -0.99096904494E+01  0.28411301131E+01  0.10411790727E+02  0.10570000000E+00 0. -1.
<mgrwt>
<rscale>  0 0.20035659E+02</rscale>
<asrwt>0</asrwt>
<pdfrwt beam="2">  1        1 0.11828343E-02 0.20035659E+02</pdfrwt>
<pdfrwt beam="1">  1       -1 0.20081524E-02 0.20035659E+02</pdfrwt>
<totfact> 0.38048976E+06</totfact>
</mgrwt>
</event>
<event>
 5    1  0.2115795E-006  0.2000427E+02  0.7818608E-02  0.1745243E+00
         -1   -1    0    0    0  501 -0.00000000000E+00  0.00000000000E+00  0.58461063432E+01  0.58461082084E+01  0.46700000000E-02 0.  1.
          1   -1    0    0  501    0  0.00000000000E+00 -0.00000000000E+00 -0.17112701951E+02  0.17112702588E+02  0.46700000000E-02 0. -1.
       1023    2    1    2    0    0  0.00000000000E+00  0.00000000000E+00 -0.11266595608E+02  0.22958810797E+02  0.20004269959E+02 0.  0.
        -13    1    3    3    0    0 -0.43976733953E+01  0.89827846582E+01 -0.55876755981E+01  0.11457017177E+02  0.10570000000E+00 0.  1.
         13    1    3    3    0    0  0.43976733953E+01 -0.89827846582E+01 -0.56789200096E+01  0.11501793620E+02  0.10570000000E+00 0. -1.
<mgrwt>
<rscale>  0 0.20004270E+02</rscale>
<asrwt>0</asrwt>
<pdfrwt beam="2">  1        1 0.26327236E-02 0.20004270E+02</pdfrwt>
<pdfrwt beam="1">  1       -1 0.89940117E-03 0.20004270E+02</pdfrwt>
<totfact> 0.39432399E+06</totfact>
</mgrwt>
</event>
<event>
 5    1  0.2115795E-006  0.2000888E+02  0.7818608E-02  0.1745152E+00
          1   -1    0    0  501    0  0.00000000000E+00  0.00000000000E+00  0.40289172575E+02  0.40289172846E+02  0.46700000000E-02 0.  1.
         -1   -1    0    0    0  501 -0.00000000000E+00 -0.00000000000E+00 -0.24842573442E+01  0.24842617336E+01  0.46700000000E-02 0. -1.
       1023    2    1    2    0    0  0.00000000000E+00  0.00000000000E+00  0.37804915231E+02  0.42773434580E+02  0.20008875283E+02 0.  0.
        -13    1    3    3    0    0 -0.10884691622E+01  0.99443623645E+01  0.18795740838E+02  0.21292396626E+02  0.10570000000E+00 0.  1.
         13    1    3    3    0    0  0.10884691622E+01 -0.99443623645E+01  0.19009174393E+02  0.21481037953E+02  0.10570000000E+00 0. -1.
<mgrwt>
<rscale>  0 0.20008875E+02</rscale>
<asrwt>0</asrwt>
<pdfrwt beam="1">  1        1 0.61983341E-02 0.20008875E+02</pdfrwt>
<pdfrwt beam="2">  1       -1 0.38219383E-03 0.20008875E+02</pdfrwt>
<totfact> 0.41087821E+06</totfact>
</mgrwt>
</event>
<event>
 5    1  0.2115795E-006  0.2000738E+02  0.7818608E-02  0.1745181E+00
          1   -1    0    0  501    0  0.00000000000E+00  0.00000000000E+00  0.16521800462E+01  0.16521866462E+01  0.46700000000E-02 0. -1.
         -1   -1    0    0    0  501 -0.00000000000E+00 -0.00000000000E+00 -0.60570663904E+02  0.60570664084E+02  0.46700000000E-02 0.  1.
       1023    2    1    2    0    0  0.00000000000E+00  0.00000000000E+00 -0.58918483857E+02  0.62222850730E+02  0.20007383959E+02 0.  0.
        -13    1    3    3    0    0  0.24085820498E+01  0.97086053634E+01 -0.29253062265E+02  0.30916194946E+02  0.10570000000E+00 0.  1.
         13    1    3    3    0    0 -0.24085820498E+01 -0.97086053634E+01 -0.29665421592E+02  0.31306655783E+02  0.10570000000E+00 0. -1.
<mgrwt>
<rscale>  0 0.20007384E+02</rscale>
<asrwt>0</asrwt>
<pdfrwt beam="1">  1        1 0.25418211E-03 0.20007384E+02</pdfrwt>
<pdfrwt beam="2">  1       -1 0.93185625E-02 0.20007384E+02</pdfrwt>
<totfact> 0.34177697E+06</totfact>
</mgrwt>
</event>
<event>
 5    1  0.2115795E-006  0.2000252E+02  0.7818608E-02  0.1745278E+00
         -1   -1    0    0    0  501 -0.00000000000E+00  0.00000000000E+00  0.84034042150E+00  0.84035339763E+00  0.46700000000E-02 0.  1.
          1   -1    0    0  501    0  0.00000000000E+00 -0.00000000000E+00 -0.11902840238E+03  0.11902840247E+03  0.46700000000E-02 0. -1.
       1023    2    1    2    0    0  0.00000000000E+00  0.00000000000E+00 -0.11818806195E+03  0.11986875587E+03  0.20002515945E+02 0.  0.
        -13    1    3    3    0    0  0.45331853217E+01 -0.89138606244E+01 -0.58581730196E+02  0.59429260181E+02  0.10570000000E+00 0. -1.
         13    1    3    3    0    0 -0.45331853217E+01  0.89138606244E+01 -0.59606331758E+02  0.60439495684E+02  0.10570000000E+00 0.  1.
<mgrwt>
<rscale>  0 0.20002516E+02</rscale>
<asrwt>0</asrwt>
<pdfrwt beam="2">  1        1 0.18312050E-01 0.20002516E+02</pdfrwt>
<pdfrwt beam="1">  1       -1 0.12928424E-03 0.20002516E+02</pdfrwt>
<totfact> 0.45243394E+06</totfact>
</mgrwt>
</event>
<event>
 5    1  0.2115795E-006  0.2000557E+02  0.7818608E-02  0.1745217E+00
          1   -1    0    0  501    0  0.00000000000E+00  0.00000000000E+00  0.58570692889E+02  0.58570693075E+02  0.46700000000E-02 0.  1.
         -1   -1    0    0    0  501 -0.00000000000E+00 -0.00000000000E+00 -0.17082855289E+01  0.17082919121E+01  0.46700000000E-02 0. -1.
       1023    2    1    2    0    0  0.00000000000E+00  0.00000000000E+00  0.56862407360E+02  0.60278984987E+02  0.20005565733E+02 0.  0.
        -13    1    3    3    0    0 -0.69782158806E+01 -0.71635006006E+01  0.27881735397E+02  0.29621167751E+02  0.10570000000E+00 0.  1.
         13    1    3    3    0    0  0.69782158806E+01  0.71635006006E+01  0.28980671963E+02  0.30657817236E+02  0.10570000000E+00 0. -1.
<mgrwt>
<rscale>  0 0.20005566E+02</rscale>
<asrwt>0</asrwt>
<pdfrwt beam="1">  1        1 0.90108747E-02 0.20005566E+02</pdfrwt>
<pdfrwt beam="2">  1       -1 0.26281371E-03 0.20005566E+02</pdfrwt>
<totfact> 0.42180418E+06</totfact>
</mgrwt>
</event>
<event>
 5    1  0.2115795E-006  0.2000740E+02  0.7818608E-02  0.1745181E+00
          1   -1    0    0  501    0  0.00000000000E+00  0.00000000000E+00  0.21528196888E+01  0.21528247540E+01  0.46700000000E-02 0. -1.
         -1   -1    0    0    0  501 -0.00000000000E+00 -0.00000000000E+00 -0.46485034269E+02  0.46485034504E+02  0.46700000000E-02 0.  1.
       1023    2    1    2    0    0  0.00000000000E+00  0.00000000000E+00 -0.44332214580E+02  0.48637859258E+02  0.20007401220E+02 0.  0.
        -13    1    3    3    0    0  0.61833061599E-01 -0.10002943298E+02 -0.22135796815E+02  0.24291302375E+02  0.10570000000E+00 0.  1.
         13    1    3    3    0    0 -0.61833061599E-01  0.10002943298E+02 -0.22196417765E+02  0.24346556883E+02  0.10570000000E+00 0. -1.
<mgrwt>
<rscale>  0 0.20007401E+02</rscale>
<asrwt>0</asrwt>
<pdfrwt beam="1">  1        1 0.33120347E-03 0.20007401E+02</pdfrwt>
<pdfrwt beam="2">  1       -1 0.71515434E-02 0.20007401E+02</pdfrwt>
<totfact> 0.35154604E+06</totfact>
</mgrwt>
</event>
<event>
 5    1  0.2115795E-006  0.2000494E+02  0.7818608E-02  0.1745230E+00
         -1   -1    0    0    0  501 -0.00000000000E+00  0.00000000000E+00  0.53240735903E+02  0.53240736108E+02  0.46700000000E-02 0. -1.
          1   -1    0    0  501    0  0.00000000000E+00 -0.00000000000E+00 -0.18791860998E+01  0.18791919025E+01  0.46700000000E-02 0.  1.
       1023    2    1    2    0    0  0.00000000000E+00  0.00000000000E+00  0.51361549803E+02  0.55119928011E+02  0.20004941032E+02 0.  0.
        -13    1    3    3    0    0 -0.21702473106E+01 -0.97633985490E+01  0.25861858324E+02  0.27728700169E+02  0.10570000000E+00 0.  1.
         13    1    3    3    0    0  0.21702473106E+01  0.97633985490E+01  0.25499691480E+02  0.27391227842E+02  0.10570000000E+00 0. -1.
<mgrwt>
<rscale>  0 0.20004941E+02</rscale>
<asrwt>0</asrwt>
<pdfrwt beam="2">  1        1 0.28910606E-03 0.20004941E+02</pdfrwt>
<pdfrwt beam="1">  1       -1 0.81908816E-02 0.20004941E+02</pdfrwt>
<totfact> 0.34682945E+06</totfact>
</mgrwt>
</event>
<event>
 5    1  0.2115795E-006  0.2000181E+02  0.7818608E-02  0.1745292E+00
         -1   -1    0    0    0  501 -0.00000000000E+00  0.00000000000E+00  0.10394577387E+03  0.10394577398E+03  0.46700000000E-02 0.  1.
          1   -1    0    0  501    0  0.00000000000E+00 -0.00000000000E+00 -0.96220828337E+00  0.96221961604E+00  0.46700000000E-02 0. -1.
       1023    2    1    2    0    0  0.00000000000E+00  0.00000000000E+00  0.10298356559E+03  0.10490799360E+03  0.20001808377E+02 0.  0.
        -13    1    3    3    0    0 -0.64350663961E+01  0.76545287549E+01  0.51120091183E+02  0.52089123481E+02  0.10570000000E+00 0. -1.
         13    1    3    3    0    0  0.64350663961E+01 -0.76545287549E+01  0.51863474408E+02  0.52818870115E+02  0.10570000000E+00 0.  1.
<mgrwt>
<rscale>  0 0.20001808E+02</rscale>
<asrwt>0</asrwt>
<pdfrwt beam="2">  1        1 0.14803300E-03 0.20001808E+02</pdfrwt>
<pdfrwt beam="1">  1       -1 0.15991650E-01 0.20001808E+02</pdfrwt>
<totfact> 0.31651429E+06</totfact>
</mgrwt>
</event>
<event>
 4    1  0.2115795E-006  0.2002459E+02  0.7818608E-02  0.1744840E+00
          1   -1    0    0  501    0  0.00000000000E+00  0.00000000000E+00  0.30339432218E+02  0.30339432577E+02  0.46700000000E-02 0.  1.
         -1   -1    0    0    0  501 -0.00000000000E+00 -0.00000000000E+00 -0.33041486150E+01  0.33041519152E+01  0.46700000000E-02 0. -1.
        -13    1    1    2    0    0  0.99596842267E+01 -0.10188123972E+01  0.13450575647E+02  0.16767899282E+02  0.10570000000E+00 0. -1.
         13    1    1    2    0    0 -0.99596842267E+01  0.10188123972E+01  0.13584707955E+02  0.16875685210E+02  0.10570000000E+00 0.  1.
<mgrwt>
<rscale>  0 0.20024590E+02</rscale>
<asrwt>0</asrwt>
<pdfrwt beam="1">  1        1 0.46676052E-02 0.20024590E+02</pdfrwt>
<pdfrwt beam="2">  1       -1 0.50833084E-03 0.20024590E+02</pdfrwt>
<totfact> 0.40369084E+06</totfact>
</mgrwt>
</event>
<event>
 5    1  0.2115795E-006  0.2000177E+02  0.7818608E-02  0.1745293E+00
         -1   -1    0    0    0  501 -0.00000000000E+00  0.00000000000E+00  0.14207704725E+01  0.14207781475E+01  0.46700000000E-02 0. -1.
          1   -1    0    0  501    0  0.00000000000E+00 -0.00000000000E+00 -0.70396593156E+02  0.70396593311E+02  0.46700000000E-02 0.  1.
       1023    2    1    2    0    0  0.00000000000E+00  0.00000000000E+00 -0.68975822683E+02  0.71817371458E+02  0.20001768130E+02 0.  0.
        -13    1    3    3    0    0  0.67150638358E+01 -0.74102663078E+01 -0.34663096397E+02  0.36076939357E+02  0.10570000000E+00 0.  1.
         13    1    3    3    0    0 -0.67150638358E+01  0.74102663078E+01 -0.34312726286E+02  0.35740432101E+02  0.10570000000E+00 0. -1.
<mgrwt>
<rscale>  0 0.20001768E+02</rscale>
<asrwt>0</asrwt>
<pdfrwt beam="2">  1        1 0.10830243E-01 0.20001768E+02</pdfrwt>
<pdfrwt beam="1">  1       -1 0.21858073E-03 0.20001768E+02</pdfrwt>
<totfact> 0.42846739E+06</totfact>
</mgrwt>
</event>
<event>
 5    1  0.2115795E-006  0.2000481E+02  0.7818608E-02  0.1745232E+00
          1   -1    0    0  501    0  0.00000000000E+00  0.00000000000E+00  0.11400590386E+02  0.11400591342E+02  0.46700000000E-02 0.  1.
         -1   -1    0    0    0  501 -0.00000000000E+00 -0.00000000000E+00 -0.87756924525E+01  0.87756936951E+01  0.46700000000E-02 0. -1.
       1023    2    1    2    0    0  0.00000000000E+00  0.00000000000E+00  0.26248979332E+01  0.20176285037E+02  0.20004809140E+02 0.  0.
        -13    1    3    3    0    0  0.24843582363E+01  0.96882879604E+01  0.13571600419E+01  0.10093959348E+02  0.10570000000E+00 0. -1.
         13    1    3    3    0    0 -0.24843582363E+01 -0.96882879604E+01  0.12677378913E+01  0.10082325689E+02  0.10570000000E+00 0.  1.
<mgrwt>
<rscale>  0 0.20004809E+02</rscale>
<asrwt>0</asrwt>
<pdfrwt beam="1">  1        1 0.17539372E-02 0.20004809E+02</pdfrwt>
<pdfrwt beam="2">  1       -1 0.13501067E-02 0.20004809E+02</pdfrwt>
<totfact> 0.38804260E+06</totfact>
</mgrwt>
</event>
<event>
 4    1  0.2115795E-006  0.2022250E+02  0.7818608E-02  0.1740939E+00
         -1   -1    0    0    0  501 -0.00000000000E+00  0.00000000000E+00  0.14648973678E+02  0.14648974423E+02  0.46700000000E-02 0.  1.
          1   -1    0    0  501    0  0.00000000000E+00 -0.00000000000E+00 -0.69791460284E+01  0.69791475908E+01  0.46700000000E-02 0. -1.
        -13    1    1    2    0    0  0.23012974907E+01 -0.97776583232E+01  0.50672202271E+01  0.11251065094E+02  0.10570000000E+00 0. -1.
         13    1    1    2    0    0 -0.23012974907E+01  0.97776583232E+01  0.26026074228E+01  0.10377056920E+02  0.10570000000E+00 0.  1.
<mgrwt>
<rscale>  0 0.20222498E+02</rscale>
<asrwt>0</asrwt>
<pdfrwt beam="2">  1        1 0.10737150E-02 0.20222498E+02</pdfrwt>
<pdfrwt beam="1">  1       -1 0.22536884E-02 0.20222498E+02</pdfrwt>
<totfact> 0.37089595E+06</totfact>
</mgrwt>
</event>
<event>
 4    1  0.2115795E-006  0.2001560E+02  0.7818608E-02  0.1745018E+00
         -1   -1    0    0    0  501 -0.00000000000E+00  0.00000000000E+00  0.10533576737E+02  0.10533577773E+02  0.46700000000E-02 0. -1.
          1   -1    0    0  501    0  0.00000000000E+00 -0.00000000000E+00 -0.95082602915E+01  0.95082614384E+01  0.46700000000E-02 0.  1.
        -13    1    1    2    0    0  0.76392643388E+01 -0.64614255683E+01  0.70385041642E+00  0.10030700769E+02  0.10570000000E+00 0.  1.
         13    1    1    2    0    0 -0.76392643388E+01  0.64614255683E+01  0.32146602949E+00  0.10011138442E+02  0.10570000000E+00 0. -1.
<mgrwt>
<rscale>  0 0.20015595E+02</rscale>
<asrwt>0</asrwt>
<pdfrwt beam="2">  1        1 0.14628094E-02 0.20015595E+02</pdfrwt>
<pdfrwt beam="1">  1       -1 0.16205504E-02 0.20015595E+02</pdfrwt>
<totfact> 0.38477394E+06</totfact>
</mgrwt>
</event>
<event>
 5    1  0.2115795E-006  0.2000198E+02  0.7818608E-02  0.1745289E+00
          1   -1    0    0  501    0  0.00000000000E+00  0.00000000000E+00  0.86986919963E+01  0.86986932499E+01  0.46700000000E-02 0. -1.
         -1   -1    0    0    0  501 -0.00000000000E+00 -0.00000000000E+00 -0.11498254760E+02  0.11498255708E+02  0.46700000000E-02 0.  1.
       1023    2    1    2    0    0  0.00000000000E+00  0.00000000000E+00 -0.27995627633E+01  0.20196948958E+02  0.20001979790E+02 0.  0.
        -13    1    3    3    0    0  0.98243234064E+01  0.18683032696E+01 -0.14272289621E+01  0.10102279075E+02  0.10570000000E+00 0. -1.
         13    1    3    3    0    0 -0.98243234064E+01 -0.18683032696E+01 -0.13723338012E+01  0.10094669883E+02  0.10570000000E+00 0.  1.
<mgrwt>
<rscale>  0 0.20001980E+02</rscale>
<asrwt>0</asrwt>
<pdfrwt beam="1">  1        1 0.13382605E-02 0.20001980E+02</pdfrwt>
<pdfrwt beam="2">  1       -1 0.17689624E-02 0.20001980E+02</pdfrwt>
<totfact> 0.38396190E+06</totfact>
</mgrwt>
</event>
<event>
 5    1  0.2115795E-006  0.2000453E+02  0.7818608E-02  0.1745238E+00
          1   -1    0    0  501    0  0.00000000000E+00  0.00000000000E+00  0.15052291945E+01  0.15052364389E+01  0.46700000000E-02 0. -1.
         -1   -1    0    0    0  501 -0.00000000000E+00 -0.00000000000E+00 -0.66464977242E+02  0.66464977406E+02  0.46700000000E-02 0.  1.
       1023    2    1    2    0    0  0.00000000000E+00  0.00000000000E+00 -0.64959748047E+02  0.67970213845E+02  0.20004527081E+02 0.  0.
        -13    1    3    3    0    0 -0.71965233577E+01  0.69435188165E+01 -0.33084838553E+02  0.34563276994E+02  0.10570000000E+00 0. -1.
         13    1    3    3    0    0  0.71965233577E+01 -0.69435188165E+01 -0.31874909494E+02  0.33406936851E+02  0.10570000000E+00 0.  1.
<mgrwt>
<rscale>  0 0.20004527E+02</rscale>
<asrwt>0</asrwt>
<pdfrwt beam="1">  1        1 0.23157434E-03 0.20004527E+02</pdfrwt>
<pdfrwt beam="2">  1       -1 0.10225379E-01 0.20004527E+02</pdfrwt>
<totfact> 0.33806374E+06</totfact>
</mgrwt>
</event>
<event>
 5    1  0.2115795E-006  0.2000936E+02  0.7818608E-02  0.1745142E+00
          1   -1    0    0  501    0  0.00000000000E+00  0.00000000000E+00  0.65388521592E+01  0.65388538269E+01  0.46700000000E-02 0.  1.
         -1   -1    0    0    0  501 -0.00000000000E+00 -0.00000000000E+00 -0.15307512539E+02  0.15307513251E+02  0.46700000000E-02 0. -1.
       1023    2    1    2    0    0  0.00000000000E+00  0.00000000000E+00 -0.87686603794E+01  0.21846367078E+02  0.20009356553E+02 0.  0.
        -13    1    3    3    0    0 -0.34636851480E+01  0.93853752028E+01 -0.43905468838E+01  0.10925678786E+02  0.10570000000E+00 0.  1.
         13    1    3    3    0    0  0.34636851480E+01 -0.93853752028E+01 -0.43781134955E+01  0.10920688292E+02  0.10570000000E+00 0. -1.
<mgrwt>
<rscale>  0 0.20009357E+02</rscale>
<asrwt>0</asrwt>
<pdfrwt beam="1">  1        1 0.10059774E-02 0.20009357E+02</pdfrwt>
<pdfrwt beam="2">  1       -1 0.23550021E-02 0.20009357E+02</pdfrwt>
<totfact> 0.37885078E+06</totfact>
</mgrwt>
</event>
<event>
 5    1  0.2115795E-006  0.2000133E+02  0.7818608E-02  0.1745302E+00
          1   -1    0    0  501    0  0.00000000000E+00  0.00000000000E+00  0.29826239023E+01  0.29826275583E+01  0.46700000000E-02 0.  1.
         -1   -1    0    0    0  501 -0.00000000000E+00 -0.00000000000E+00 -0.33531973484E+02  0.33531973809E+02  0.46700000000E-02 0. -1.
       1023    2    1    2    0    0  0.00000000000E+00  0.00000000000E+00 -0.30549349582E+02  0.36514601367E+02  0.20001333785E+02 0.  0.
        -13    1    3    3    0    0 -0.16157698978E+01  0.98686300628E+01 -0.15347564828E+02  0.18318282952E+02  0.10570000000E+00 0.  1.
         13    1    3    3    0    0  0.16157698978E+01 -0.98686300628E+01 -0.15201784754E+02  0.18196318416E+02  0.10570000000E+00 0. -1.
<mgrwt>
<rscale>  0 0.20001334E+02</rscale>
<asrwt>0</asrwt>
<pdfrwt beam="1">  1        1 0.45886555E-03 0.20001334E+02</pdfrwt>
<pdfrwt beam="2">  1       -1 0.51587652E-02 0.20001334E+02</pdfrwt>
<totfact> 0.36182816E+06</totfact>
</mgrwt>
</event>
<event>
 4    1  0.2115795E-006  0.2006910E+02  0.7818608E-02  0.1743958E+00
         -1   -1    0    0    0  501 -0.00000000000E+00  0.00000000000E+00  0.12985527754E+01  0.12985611728E+01  0.46700000000E-02 0.  1.
          1   -1    0    0  501    0  0.00000000000E+00 -0.00000000000E+00 -0.77541565875E+02  0.77541566015E+02  0.46700000000E-02 0. -1.
        -13    1    1    2    0    0 -0.61789127012E+01  0.78971191265E+01 -0.36664661126E+02  0.38011208882E+02  0.10570000000E+00 0.  1.
         13    1    1    2    0    0  0.61789127012E+01 -0.78971191265E+01 -0.39578351973E+02  0.40828918306E+02  0.10570000000E+00 0. -1.
<mgrwt>
<rscale>  0 0.20069096E+02</rscale>
<asrwt>0</asrwt>
<pdfrwt beam="2">  1        1 0.11929469E-01 0.20069096E+02</pdfrwt>
<pdfrwt beam="1">  1       -1 0.19977807E-03 0.20069096E+02</pdfrwt>
<totfact> 0.42903358E+06</totfact>
</mgrwt>
</event>
<event>
 5    1  0.2115795E-006  0.2000239E+02  0.7818608E-02  0.1745281E+00
          1   -1    0    0  501    0  0.00000000000E+00  0.00000000000E+00  0.30079431763E+01  0.30079468015E+01  0.46700000000E-02 0. -1.
         -1   -1    0    0    0  501 -0.00000000000E+00 -0.00000000000E+00 -0.33253231228E+02  0.33253231556E+02  0.46700000000E-02 0.  1.
       1023    2    1    2    0    0  0.00000000000E+00  0.00000000000E+00 -0.30245288051E+02  0.36261178357E+02  0.20002390020E+02 0.  0.
        -13    1    3    3    0    0  0.54152944829E+01  0.84075688719E+01 -0.15140814993E+02  0.18145745501E+02  0.10570000000E+00 0.  1.
         13    1    3    3    0    0 -0.54152944829E+01 -0.84075688719E+01 -0.15104473059E+02  0.18115432856E+02  0.10570000000E+00 0. -1.
<mgrwt>
<rscale>  0 0.20002390E+02</rscale>
<asrwt>0</asrwt>
<pdfrwt beam="1">  1        1 0.46276082E-03 0.20002390E+02</pdfrwt>
<pdfrwt beam="2">  1       -1 0.51158818E-02 0.20002390E+02</pdfrwt>
<totfact> 0.36201704E+06</totfact>
</mgrwt>
</event>
<event>
 5    1  0.2115795E-006  0.2000505E+02  0.7818608E-02  0.1745228E+00
          1   -1    0    0  501    0  0.00000000000E+00  0.00000000000E+00  0.41863119338E+02  0.41863119599E+02  0.46700000000E-02 0. -1.
         -1   -1    0    0    0  501 -0.00000000000E+00 -0.00000000000E+00 -0.23899413687E+01  0.23899459313E+01  0.46700000000E-02 0.  1.
       1023    2    1    2    0    0  0.00000000000E+00  0.00000000000E+00  0.39473177970E+02  0.44253065530E+02  0.20005050107E+02 0.  0.
        -13    1    3    3    0    0 -0.97588714913E+01 -0.21911882375E+01  0.19846222322E+02  0.22224324323E+02  0.10570000000E+00 0. -1.
         13    1    3    3    0    0  0.97588714913E+01  0.21911882375E+01  0.19626955647E+02  0.22028741207E+02  0.10570000000E+00 0.  1.
<mgrwt>
<rscale>  0 0.20005050E+02</rscale>
<asrwt>0</asrwt>
<pdfrwt beam="1">  1        1 0.64404803E-02 0.20005050E+02</pdfrwt>
<pdfrwt beam="2">  1       -1 0.36768366E-03 0.20005050E+02</pdfrwt>
<totfact> 0.41202888E+06</totfact>
</mgrwt>
</event>
<event>
 5    1  0.2115795E-006  0.2000455E+02  0.7818608E-02  0.1745238E+00
         -1   -1    0    0    0  501 -0.00000000000E+00  0.00000000000E+00  0.79689860501E+01  0.79689874184E+01  0.46700000000E-02 0. -1.
          1   -1    0    0  501    0  0.00000000000E+00 -0.00000000000E+00 -0.12554355375E+02  0.12554356244E+02  0.46700000000E-02 0.  1.
       1023    2    1    2    0    0  0.00000000000E+00  0.00000000000E+00 -0.45853693251E+01  0.20523343662E+02  0.20004550063E+02 0.  0.
        -13    1    3    3    0    0 -0.99870672109E+01 -0.51941009395E+00 -0.24483935525E+01  0.10296460644E+02  0.10570000000E+00 0.  1.
         13    1    3    3    0    0  0.99870672109E+01  0.51941009395E+00 -0.21369757726E+01  0.10226883018E+02  0.10570000000E+00 0. -1.
<mgrwt>
<rscale>  0 0.20004550E+02</rscale>
<asrwt>0</asrwt>
<pdfrwt beam="2">  1        1 0.19314395E-02 0.20004550E+02</pdfrwt>
<pdfrwt beam="1">  1       -1 0.12259980E-02 0.20004550E+02</pdfrwt>
<totfact> 0.38952213E+06</totfact>
</mgrwt>
</event>
<event>
 4    1  0.2115795E-006  0.2013346E+02  0.7818608E-02  0.1742687E+00
          1   -1    0    0  501    0  0.00000000000E+00  0.00000000000E+00  0.21587693343E+02  0.21587693848E+02  0.46700000000E-02 0. -1.
         -1   -1    0    0    0  501 -0.00000000000E+00 -0.00000000000E+00 -0.46942969723E+01  0.46942992952E+01  0.46700000000E-02 0.  1.
        -13    1    1    2    0    0 -0.20072418299E+01  0.98563861749E+01  0.89531822048E+01  0.13466551610E+02  0.10570000000E+00 0. -1.
         13    1    1    2    0    0  0.20072418299E+01 -0.98563861749E+01  0.79402141659E+01  0.12815441533E+02  0.10570000000E+00 0.  1.
<mgrwt>
<rscale>  0 0.20133463E+02</rscale>
<asrwt>0</asrwt>
<pdfrwt beam="1">  1        1 0.33211838E-02 0.20133463E+02</pdfrwt>
<pdfrwt beam="2">  1       -1 0.72219975E-03 0.20133463E+02</pdfrwt>
<totfact> 0.39246441E+06</totfact>
</mgrwt>
</event>
<event>
 4    1  0.2115795E-006  0.2049667E+02  0.7818608E-02  0.1735628E+00
         -1   -1    0    0    0  501 -0.00000000000E+00  0.00000000000E+00  0.91601376734E+01  0.91601388638E+01  0.46700000000E-02 0. -1.
          1   -1    0    0  501    0  0.00000000000E+00 -0.00000000000E+00 -0.11465802565E+02  0.11465803516E+02  0.46700000000E-02 0.  1.
        -13    1    1    2    0    0 -0.91221359793E+01  0.44358653972E+01 -0.26204246279E+01  0.10477025550E+02  0.10570000000E+00 0.  1.
         13    1    1    2    0    0  0.91221359793E+01 -0.44358653972E+01  0.31475973619E+00  0.10148916830E+02  0.10570000000E+00 0. -1.
<mgrwt>
<rscale>  0 0.20496668E+02</rscale>
<asrwt>0</asrwt>
<pdfrwt beam="2">  1        1 0.17639698E-02 0.20496668E+02</pdfrwt>
<pdfrwt beam="1">  1       -1 0.14092521E-02 0.20496668E+02</pdfrwt>
<totfact> 0.36732644E+06</totfact>
</mgrwt>
</event>
<event>
 5    1  0.2115795E-006  0.2000445E+02  0.7818608E-02  0.1745240E+00
          1   -1    0    0  501    0  0.00000000000E+00  0.00000000000E+00  0.63613705970E+02  0.63613706141E+02  0.46700000000E-02 0.  1.
         -1   -1    0    0    0  501 -0.00000000000E+00 -0.00000000000E+00 -0.15726848774E+01  0.15726918110E+01  0.46700000000E-02 0. -1.
       1023    2    1    2    0    0  0.00000000000E+00  0.00000000000E+00  0.62041021092E+02  0.65186397952E+02  0.20004453999E+02 0.  0.
        -13    1    3    3    0    0  0.97402371481E+01 -0.22717982046E+01  0.30990349006E+02  0.32564492792E+02  0.10570000000E+00 0.  1.
         13    1    3    3    0    0 -0.97402371481E+01  0.22717982046E+01  0.31050672086E+02  0.32621905160E+02  0.10570000000E+00 0. -1.
<mgrwt>
<rscale>  0 0.20004454E+02</rscale>
<asrwt>0</asrwt>
<pdfrwt beam="1">  1        1 0.97867209E-02 0.20004454E+02</pdfrwt>
<pdfrwt beam="2">  1       -1 0.24195216E-03 0.20004454E+02</pdfrwt>
<totfact> 0.42466062E+06</totfact>
</mgrwt>
</event>
<event>
 5    1  0.2115795E-006  0.2000428E+02  0.7818608E-02  0.1745243E+00
         -1   -1    0    0    0  501 -0.00000000000E+00  0.00000000000E+00  0.19150724090E+02  0.19150724660E+02  0.46700000000E-02 0. -1.
          1   -1    0    0  501    0  0.00000000000E+00 -0.00000000000E+00 -0.52239656734E+01  0.52239677608E+01  0.46700000000E-02 0.  1.
       1023    2    1    2    0    0  0.00000000000E+00  0.00000000000E+00  0.13926758417E+02  0.24374692420E+02  0.20004275308E+02 0.  0.
        -13    1    3    3    0    0  0.58570817628E+01 -0.81071528997E+01  0.69826543233E+01  0.12198359267E+02  0.10570000000E+00 0.  1.
         13    1    3    3    0    0 -0.58570817628E+01  0.81071528997E+01  0.69441040934E+01  0.12176333153E+02  0.10570000000E+00 0. -1.
<mgrwt>
<rscale>  0 0.20004275E+02</rscale>
<asrwt>0</asrwt>
<pdfrwt beam="2">  1        1 0.80368723E-03 0.20004275E+02</pdfrwt>
<pdfrwt beam="1">  1       -1 0.29462654E-02 0.20004275E+02</pdfrwt>
<totfact> 0.37486480E+06</totfact>
</mgrwt>
</event>
<event>
 5    1  0.2115795E-006  0.2000218E+02  0.7818608E-02  0.1745285E+00
         -1   -1    0    0    0  501 -0.00000000000E+00  0.00000000000E+00  0.27432367628E+02  0.27432368026E+02  0.46700000000E-02 0.  1.
          1   -1    0    0  501    0  0.00000000000E+00 -0.00000000000E+00 -0.36461198743E+01  0.36461228650E+01  0.46700000000E-02 0. -1.
       1023    2    1    2    0    0  0.00000000000E+00  0.00000000000E+00  0.23786247754E+02  0.31078490891E+02  0.20002175228E+02 0.  0.
        -13    1    3    3    0    0 -0.99752251429E+01 -0.70856350064E+00  0.11802497393E+02  0.15469883519E+02  0.10570000000E+00 0. -1.
         13    1    3    3    0    0  0.99752251429E+01  0.70856350064E+00  0.11983750361E+02  0.15608607372E+02  0.10570000000E+00 0.  1.
<mgrwt>
<rscale>  0 0.20002175E+02</rscale>
<asrwt>0</asrwt>
<pdfrwt beam="2">  1        1 0.56094180E-03 0.20002175E+02</pdfrwt>
<pdfrwt beam="1">  1       -1 0.42203644E-02 0.20002175E+02</pdfrwt>
<totfact> 0.36703181E+06</totfact>
</mgrwt>
</event>
<event>
 4    1  0.2115795E-006  0.2003317E+02  0.7818608E-02  0.1744669E+00
         -1   -1    0    0    0  501 -0.00000000000E+00  0.00000000000E+00  0.20906711678E+01  0.20906763836E+01  0.46700000000E-02 0. -1.
          1   -1    0    0  501    0  0.00000000000E+00 -0.00000000000E+00 -0.47990261157E+02  0.47990261384E+02  0.46700000000E-02 0.  1.
        -13    1    1    2    0    0 -0.50671962597E+01  0.86271420379E+01 -0.24113689935E+02  0.26107188138E+02  0.10570000000E+00 0.  1.
         13    1    1    2    0    0  0.50671962597E+01 -0.86271420379E+01 -0.21785900054E+02  0.23973749630E+02  0.10570000000E+00 0. -1.
<mgrwt>
<rscale>  0 0.20033172E+02</rscale>
<asrwt>0</asrwt>
<pdfrwt beam="2">  1        1 0.73831167E-02 0.20033172E+02</pdfrwt>
<pdfrwt beam="1">  1       -1 0.32164217E-03 0.20033172E+02</pdfrwt>
<totfact> 0.41443349E+06</totfact>
</mgrwt>
</event>
<event>
 5    1  0.2115795E-006  0.2001215E+02  0.7818608E-02  0.1745087E+00
         -1   -1    0    0    0  501 -0.00000000000E+00  0.00000000000E+00  0.60532642228E+02  0.60532642408E+02  0.46700000000E-02 0. -1.
          1   -1    0    0  501    0  0.00000000000E+00 -0.00000000000E+00 -0.16540049032E+01  0.16540114960E+01  0.46700000000E-02 0.  1.
       1023    2    1    2    0    0  0.00000000000E+00  0.00000000000E+00  0.58878637324E+02  0.62186653904E+02  0.20012146076E+02 0.  0.
        -13    1    3    3    0    0  0.10004415553E+02 -0.10501604985E+00  0.29113907664E+02  0.30785226179E+02  0.10570000000E+00 0. -1.
         13    1    3    3    0    0 -0.10004415553E+02  0.10501604985E+00  0.29764729660E+02  0.31401427725E+02  0.10570000000E+00 0.  1.
<mgrwt>
<rscale>  0 0.20012146E+02</rscale>
<asrwt>0</asrwt>
<pdfrwt beam="2">  1        1 0.25446285E-03 0.20012146E+02</pdfrwt>
<pdfrwt beam="1">  1       -1 0.93127134E-02 0.20012146E+02</pdfrwt>
<totfact> 0.34162344E+06</totfact>
</mgrwt>
</event>
<event>
 5    1  0.2115795E-006  0.2000264E+02  0.7818608E-02  0.1745276E+00
          1   -1    0    0  501    0  0.00000000000E+00  0.00000000000E+00  0.32218215339E+02  0.32218215677E+02  0.46700000000E-02 0. -1.
         -1   -1    0    0    0  501 -0.00000000000E+00 -0.00000000000E+00 -0.31046509691E+01  0.31046544814E+01  0.46700000000E-02 0.  1.
       1023    2    1    2    0    0  0.00000000000E+00  0.00000000000E+00  0.29113564370E+02  0.35322870158E+02  0.20002637974E+02 0.  0.
        -13    1    3    3    0    0 -0.76012349649E+01  0.64987557594E+01  0.14646992091E+02  0.17735787245E+02  0.10570000000E+00 0. -1.
         13    1    3    3    0    0  0.76012349649E+01 -0.64987557594E+01  0.14466572279E+02  0.17587082913E+02  0.10570000000E+00 0.  1.
<mgrwt>
<rscale>  0 0.20002638E+02</rscale>
<asrwt>0</asrwt>
<pdfrwt beam="1">  1        1 0.49566487E-02 0.20002638E+02</pdfrwt>
<pdfrwt beam="2">  1       -1 0.47763892E-03 0.20002638E+02</pdfrwt>
<totfact> 0.40595450E+06</totfact>
</mgrwt>
</event>
<event>
 4    1  0.2115795E-006  0.2003707E+02  0.7818608E-02  0.1744592E+00
         -1   -1    0    0    0  501 -0.00000000000E+00  0.00000000000E+00  0.66847295180E+01  0.66847311493E+01  0.46700000000E-02 0.  1.
          1   -1    0    0  501    0  0.00000000000E+00 -0.00000000000E+00 -0.15014971862E+02  0.15014972588E+02  0.46700000000E-02 0. -1.
        -13    1    1    2    0    0 -0.15253421567E+01  0.99005147224E+01 -0.40415560923E+01  0.10802416794E+02  0.10570000000E+00 0.  1.
         13    1    1    2    0    0  0.15253421567E+01 -0.99005147224E+01 -0.42886862515E+01  0.10897286943E+02  0.10570000000E+00 0. -1.
<mgrwt>
<rscale>  0 0.20037071E+02</rscale>
<asrwt>0</asrwt>
<pdfrwt beam="2">  1        1 0.23099959E-02 0.20037071E+02</pdfrwt>
<pdfrwt beam="1">  1       -1 0.10284201E-02 0.20037071E+02</pdfrwt>
<totfact> 0.39082936E+06</totfact>
</mgrwt>
</event>
<event>
 4    1  0.2115795E-006  0.2042462E+02  0.7818608E-02  0.1737014E+00
          1   -1    0    0  501    0  0.00000000000E+00  0.00000000000E+00  0.43613324091E+02  0.43613324341E+02  0.46700000000E-02 0. -1.
         -1   -1    0    0    0  501 -0.00000000000E+00 -0.00000000000E+00 -0.23912673105E+01  0.23912718706E+01  0.46700000000E-02 0.  1.
        -13    1    1    2    0    0 -0.85528879662E+01 -0.55355210506E+01  0.22181538525E+02  0.24409541365E+02  0.10570000000E+00 0.  1.
         13    1    1    2    0    0  0.85528879662E+01  0.55355210506E+01  0.19040518256E+02  0.21595054846E+02  0.10570000000E+00 0. -1.
<mgrwt>
<rscale>  0 0.20424615E+02</rscale>
<asrwt>0</asrwt>
<pdfrwt beam="1">  1        1 0.67097420E-02 0.20424615E+02</pdfrwt>
<pdfrwt beam="2">  1       -1 0.36788768E-03 0.20424615E+02</pdfrwt>
<totfact> 0.39441012E+06</totfact>
</mgrwt>
</event>
<event>
 5    1  0.2115795E-006  0.2000175E+02  0.7818608E-02  0.1745293E+00
         -1   -1    0    0    0  501 -0.00000000000E+00  0.00000000000E+00  0.11065081085E+01  0.11065179633E+01  0.46700000000E-02 0.  1.
          1   -1    0    0  501    0  0.00000000000E+00 -0.00000000000E+00 -0.90389794680E+02  0.90389794800E+02  0.46700000000E-02 0. -1.
       1023    2    1    2    0    0  0.00000000000E+00  0.00000000000E+00 -0.89283286571E+02  0.91496312763E+02  0.20001749633E+02 0.  0.
        -13    1    3    3    0    0  0.92791178569E+01 -0.37282821933E+01 -0.44938391796E+02  0.46037727420E+02  0.10570000000E+00 0.  1.
         13    1    3    3    0    0 -0.92791178569E+01  0.37282821933E+01 -0.44344894775E+02  0.45458585343E+02  0.10570000000E+00 0. -1.
<mgrwt>
<rscale>  0 0.20001750E+02</rscale>
<asrwt>0</asrwt>
<pdfrwt beam="2">  1        1 0.13906117E-01 0.20001750E+02</pdfrwt>
<pdfrwt beam="1">  1       -1 0.17023286E-03 0.20001750E+02</pdfrwt>
<totfact> 0.43878875E+06</totfact>
</mgrwt>
</event>
<event>
 4    1  0.2115795E-006  0.2045093E+02  0.7818608E-02  0.1736507E+00
          1   -1    0    0  501    0  0.00000000000E+00  0.00000000000E+00  0.15204421419E+02  0.15204422136E+02  0.46700000000E-02 0.  1.
         -1   -1    0    0    0  501 -0.00000000000E+00 -0.00000000000E+00 -0.68769541190E+01  0.68769557047E+01  0.46700000000E-02 0. -1.
        -13    1    1    2    0    0 -0.99227544375E+01 -0.18553680749E+01  0.59199104345E+01  0.11702989292E+02  0.10570000000E+00 0.  1.
         13    1    1    2    0    0  0.99227544375E+01  0.18553680749E+01  0.24075568651E+01  0.10378388549E+02  0.10570000000E+00 0. -1.
<mgrwt>
<rscale>  0 0.20450930E+02</rscale>
<asrwt>0</asrwt>
<pdfrwt beam="1">  1        1 0.23391419E-02 0.20450930E+02</pdfrwt>
<pdfrwt beam="2">  1       -1 0.10579931E-02 0.20450930E+02</pdfrwt>
<totfact> 0.37338415E+06</totfact>
</mgrwt>
</event>
<event>
 4    1  0.2115795E-006  0.2011464E+02  0.7818608E-02  0.1743058E+00
          1   -1    0    0  501    0  0.00000000000E+00  0.00000000000E+00  0.15114099905E+02  0.15114100626E+02  0.46700000000E-02 0.  1.
         -1   -1    0    0    0  501 -0.00000000000E+00 -0.00000000000E+00 -0.66924009770E+01  0.66924026063E+01  0.46700000000E-02 0. -1.
        -13    1    1    2    0    0  0.65560107766E+01 -0.76239798750E+01  0.44051555705E+01  0.10978292879E+02  0.10570000000E+00 0.  1.
         13    1    1    2    0    0 -0.65560107766E+01  0.76239798750E+01  0.40165433572E+01  0.10828210354E+02  0.10570000000E+00 0. -1.
<mgrwt>
<rscale>  0 0.20114636E+02</rscale>
<asrwt>0</asrwt>
<pdfrwt beam="1">  1        1 0.23252463E-02 0.20114636E+02</pdfrwt>
<pdfrwt beam="2">  1       -1 0.10296004E-02 0.20114636E+02</pdfrwt>
<totfact> 0.38754435E+06</totfact>
</mgrwt>
</event>
<event>
 5    1  0.2115795E-006  0.2000466E+02  0.7818608E-02  0.1745235E+00
          1   -1    0    0  501    0  0.00000000000E+00  0.00000000000E+00  0.10279227194E+03  0.10279227205E+03  0.46700000000E-02 0.  1.
         -1   -1    0    0    0  501 -0.00000000000E+00 -0.00000000000E+00 -0.97328328770E+00  0.97329449141E+00  0.46700000000E-02 0. -1.
       1023    2    1    2    0    0  0.00000000000E+00  0.00000000000E+00  0.10181898866E+03  0.10376556654E+03  0.20004658175E+02 0.  0.
        -13    1    3    3    0    0  0.25151379995E+01  0.96793982712E+01  0.51619661465E+02  0.52579628111E+02  0.10570000000E+00 0.  1.
         13    1    3    3    0    0 -0.25151379995E+01 -0.96793982712E+01  0.50199327191E+02  0.51185938430E+02  0.10570000000E+00 0. -1.
<mgrwt>
<rscale>  0 0.20004658E+02</rscale>
<asrwt>0</asrwt>
<pdfrwt beam="1">  1        1 0.15814200E-01 0.20004658E+02</pdfrwt>
<pdfrwt beam="2">  1       -1 0.14973673E-03 0.20004658E+02</pdfrwt>
<totfact> 0.44472684E+06</totfact>
</mgrwt>
</event>
<event>
 5    1  0.2115795E-006  0.2000386E+02  0.7818608E-02  0.1745251E+00
          1   -1    0    0  501    0  0.00000000000E+00  0.00000000000E+00  0.18292501456E+02  0.18292502052E+02  0.46700000000E-02 0. -1.
         -1   -1    0    0    0  501 -0.00000000000E+00 -0.00000000000E+00 -0.54688284157E+01  0.54688304096E+01  0.46700000000E-02 0.  1.
       1023    2    1    2    0    0  0.00000000000E+00  0.00000000000E+00  0.12823673040E+02  0.23761332462E+02  0.20003857881E+02 0.  0.
        -13    1    3    3    0    0 -0.99881630967E+01  0.50223684969E+00  0.62829896066E+01  0.11811129276E+02  0.10570000000E+00 0. -1.
         13    1    3    3    0    0  0.99881630967E+01 -0.50223684969E+00  0.65406834339E+01  0.11950203185E+02  0.10570000000E+00 0.  1.
<mgrwt>
<rscale>  0 0.20003858E+02</rscale>
<asrwt>0</asrwt>
<pdfrwt beam="1">  1        1 0.28142311E-02 0.20003858E+02</pdfrwt>
<pdfrwt beam="2">  1       -1 0.84135844E-03 0.20003858E+02</pdfrwt>
<totfact> 0.39541499E+06</totfact>
</mgrwt>
</event>
<event>
 4    1  0.2115795E-006  0.2001463E+02  0.7818608E-02  0.1745037E+00
         -1   -1    0    0    0  501 -0.00000000000E+00  0.00000000000E+00  0.19766648816E+02  0.19766649367E+02  0.46700000000E-02 0. -1.
          1   -1    0    0  501    0  0.00000000000E+00 -0.00000000000E+00 -0.50664282411E+01  0.50664303934E+01  0.46700000000E-02 0.  1.
        -13    1    1    2    0    0 -0.70991528245E+01  0.70437892600E+01  0.69163262466E+01  0.12159756544E+02  0.10570000000E+00 0.  1.
         13    1    1    2    0    0  0.70991528245E+01 -0.70437892600E+01  0.77838943280E+01  0.12673323217E+02  0.10570000000E+00 0. -1.
<mgrwt>
<rscale>  0 0.20014629E+02</rscale>
<asrwt>0</asrwt>
<pdfrwt beam="2">  1        1 0.77945070E-03 0.20014629E+02</pdfrwt>
<pdfrwt beam="1">  1       -1 0.30410231E-02 0.20014629E+02</pdfrwt>
<totfact> 0.37380500E+06</totfact>
</mgrwt>
</event>
<event>
 5    1  0.2115795E-006  0.2000158E+02  0.7818608E-02  0.1745297E+00
          1   -1    0    0  501    0  0.00000000000E+00  0.00000000000E+00  0.96205843708E+00  0.96206977152E+00  0.46700000000E-02 0.  1.
         -1   -1    0    0    0  501 -0.00000000000E+00 -0.00000000000E+00 -0.10395958960E+03  0.10395958971E+03  0.46700000000E-02 0. -1.
       1023    2    1    2    0    0  0.00000000000E+00  0.00000000000E+00 -0.10299753116E+03  0.10492165948E+03  0.20001579978E+02 0.  0.
        -13    1    3    3    0    0  0.36849781093E+01 -0.92964121117E+01 -0.51749577741E+02  0.52707042326E+02  0.10570000000E+00 0.  1.
         13    1    3    3    0    0 -0.36849781093E+01  0.92964121117E+01 -0.51247953422E+02  0.52214617151E+02  0.10570000000E+00 0. -1.
<mgrwt>
<rscale>  0 0.20001580E+02</rscale>
<asrwt>0</asrwt>
<pdfrwt beam="1">  1        1 0.14800995E-03 0.20001580E+02</pdfrwt>
<pdfrwt beam="2">  1       -1 0.15993775E-01 0.20001580E+02</pdfrwt>
<totfact> 0.31651491E+06</totfact>
</mgrwt>
</event>
<event>
 4    1  0.2115795E-006  0.2001683E+02  0.7818608E-02  0.1744994E+00
          1   -1    0    0  501    0  0.00000000000E+00  0.00000000000E+00  0.48129978937E+02  0.48129979164E+02  0.46700000000E-02 0. -1.
         -1   -1    0    0    0  501 -0.00000000000E+00 -0.00000000000E+00 -0.20812022688E+01  0.20812075083E+01  0.46700000000E-02 0.  1.
        -13    1    1    2    0    0 -0.94862097352E+01  0.31756739426E+01  0.23751864263E+02  0.25772762922E+02  0.10570000000E+00 0. -1.
         13    1    1    2    0    0  0.94862097352E+01 -0.31756739426E+01  0.22296912405E+02  0.24438423750E+02  0.10570000000E+00 0.  1.
<mgrwt>
<rscale>  0 0.20016829E+02</rscale>
<asrwt>0</asrwt>
<pdfrwt beam="1">  1        1 0.74046121E-02 0.20016829E+02</pdfrwt>
<pdfrwt beam="2">  1       -1 0.32018540E-03 0.20016829E+02</pdfrwt>
<totfact> 0.41526896E+06</totfact>
</mgrwt>
</event>
<event>
 5    1  0.2115795E-006  0.2000972E+02  0.7818608E-02  0.1745135E+00
          1   -1    0    0  501    0  0.00000000000E+00  0.00000000000E+00  0.11151510600E+03  0.11151510610E+03  0.46700000000E-02 0. -1.
         -1   -1    0    0    0  501 -0.00000000000E+00 -0.00000000000E+00 -0.89760513061E+00  0.89761727891E+00  0.46700000000E-02 0.  1.
       1023    2    1    2    0    0  0.00000000000E+00  0.00000000000E+00  0.11061750087E+03  0.11241272338E+03  0.20009719598E+02 0.  0.
        -13    1    3    3    0    0 -0.39400552555E+01 -0.91936262176E+01  0.56421729256E+02  0.57301566324E+02  0.10570000000E+00 0. -1.
         13    1    3    3    0    0  0.39400552555E+01  0.91936262176E+01  0.54195771617E+02  0.55111157057E+02  0.10570000000E+00 0.  1.
<mgrwt>
<rscale>  0 0.20009720E+02</rscale>
<asrwt>0</asrwt>
<pdfrwt beam="1">  1        1 0.17156168E-01 0.20009720E+02</pdfrwt>
<pdfrwt beam="2">  1       -1 0.13809406E-03 0.20009720E+02</pdfrwt>
<totfact> 0.44860538E+06</totfact>
</mgrwt>
</event>
<event>
 5    1  0.2115795E-006  0.2000130E+02  0.7818608E-02  0.1745302E+00
         -1   -1    0    0    0  501 -0.00000000000E+00  0.00000000000E+00  0.11245739740E+02  0.11245740710E+02  0.46700000000E-02 0. -1.
          1   -1    0    0  501    0  0.00000000000E+00 -0.00000000000E+00 -0.88934085563E+01  0.88934097824E+01  0.46700000000E-02 0.  1.
       1023    2    1    2    0    0  0.00000000000E+00  0.00000000000E+00  0.23523311842E+01  0.20139150493E+02  0.20001297972E+02 0.  0.
        -13    1    3    3    0    0  0.82610159391E+01 -0.56352848432E+01  0.11445158267E+01  0.10065878430E+02  0.10570000000E+00 0.  1.
         13    1    3    3    0    0 -0.82610159391E+01  0.56352848432E+01  0.12078153575E+01  0.10073272062E+02  0.10570000000E+00 0. -1.
<mgrwt>
<rscale>  0 0.20001298E+02</rscale>
<asrwt>0</asrwt>
<pdfrwt beam="2">  1        1 0.13682169E-02 0.20001298E+02</pdfrwt>
<pdfrwt beam="1">  1       -1 0.17301140E-02 0.20001298E+02</pdfrwt>
<totfact> 0.38434467E+06</totfact>
</mgrwt>
</event>
<event>
 5    1  0.2115795E-006  0.2000298E+02  0.7818608E-02  0.1745269E+00
          1   -1    0    0  501    0  0.00000000000E+00  0.00000000000E+00  0.46939277869E+02  0.46939278102E+02  0.46700000000E-02 0.  1.
         -1   -1    0    0    0  501 -0.00000000000E+00 -0.00000000000E+00 -0.21310432182E+01  0.21310483351E+01  0.46700000000E-02 0. -1.
       1023    2    1    2    0    0  0.00000000000E+00  0.00000000000E+00  0.44808234651E+02  0.49070326437E+02  0.20002975880E+02 0.  0.
        -13    1    3    3    0    0  0.77590215942E+01  0.63096123436E+01  0.22576964419E+02  0.24692997365E+02  0.10570000000E+00 0.  1.
         13    1    3    3    0    0 -0.77590215942E+01 -0.63096123436E+01  0.22231270232E+02  0.24377329071E+02  0.10570000000E+00 0. -1.
<mgrwt>
<rscale>  0 0.20002976E+02</rscale>
<asrwt>0</asrwt>
<pdfrwt beam="1">  1        1 0.72214282E-02 0.20002976E+02</pdfrwt>
<pdfrwt beam="2">  1       -1 0.32785320E-03 0.20002976E+02</pdfrwt>
<totfact> 0.41520091E+06</totfact>
</mgrwt>
</event>
<event>
 4    1  0.2115795E-006  0.2017552E+02  0.7818608E-02  0.1741860E+00
         -1   -1    0    0    0  501 -0.00000000000E+00  0.00000000000E+00  0.15198057412E+02  0.15198058130E+02  0.46700000000E-02 0.  1.
          1   -1    0    0  501    0  0.00000000000E+00 -0.00000000000E+00 -0.66957790277E+01  0.66957806562E+01  0.46700000000E-02 0. -1.
        -13    1    1    2    0    0  0.99522527788E+01  0.13856375424E+01  0.32900689573E+01  0.10573696279E+02  0.10570000000E+00 0.  1.
         13    1    1    2    0    0 -0.99522527788E+01 -0.13856375424E+01  0.52122094275E+01  0.11320142507E+02  0.10570000000E+00 0. -1.
<mgrwt>
<rscale>  0 0.20175516E+02</rscale>
<asrwt>0</asrwt>
<pdfrwt beam="2">  1        1 0.10301200E-02 0.20175516E+02</pdfrwt>
<pdfrwt beam="1">  1       -1 0.23381628E-02 0.20175516E+02</pdfrwt>
<totfact> 0.37215962E+06</totfact>
</mgrwt>
</event>
<event>
 5    1  0.2115795E-006  0.2000127E+02  0.7818608E-02  0.1745303E+00
         -1   -1    0    0    0  501 -0.00000000000E+00  0.00000000000E+00  0.19026473074E+02  0.19026473647E+02  0.46700000000E-02 0. -1.
          1   -1    0    0  501    0  0.00000000000E+00 -0.00000000000E+00 -0.52564999188E+01  0.52565019933E+01  0.46700000000E-02 0.  1.
       1023    2    1    2    0    0  0.00000000000E+00  0.00000000000E+00  0.13769973155E+02  0.24282975640E+02  0.20001268591E+02 0.  0.
        -13    1    3    3    0    0  0.82762615409E+01 -0.56128298910E+01  0.68438271391E+01  0.12118147832E+02  0.10570000000E+00 0.  1.
         13    1    3    3    0    0 -0.82762615409E+01  0.56128298910E+01  0.69261460161E+01  0.12164827808E+02  0.10570000000E+00 0. -1.
<mgrwt>
<rscale>  0 0.20001269E+02</rscale>
<asrwt>0</asrwt>
<pdfrwt beam="2">  1        1 0.80869248E-03 0.20001269E+02</pdfrwt>
<pdfrwt beam="1">  1       -1 0.29271500E-02 0.20001269E+02</pdfrwt>
<totfact> 0.37511781E+06</totfact>
</mgrwt>
</event>
<event>
 5    1  0.2115795E-006  0.2001214E+02  0.7818608E-02  0.1745087E+00
          1   -1    0    0  501    0  0.00000000000E+00  0.00000000000E+00  0.59387064369E+01  0.59387082730E+01  0.46700000000E-02 0. -1.
         -1   -1    0    0    0  501 -0.00000000000E+00 -0.00000000000E+00 -0.16859126292E+02  0.16859126939E+02  0.46700000000E-02 0.  1.
       1023    2    1    2    0    0  0.00000000000E+00  0.00000000000E+00 -0.10920419856E+02  0.22797835212E+02  0.20012139330E+02 0.  0.
        -13    1    3    3    0    0 -0.64773844709E+01  0.76204324199E+01 -0.57879311380E+01  0.11555899757E+02  0.10570000000E+00 0. -1.
         13    1    3    3    0    0  0.64773844709E+01 -0.76204324199E+01 -0.51324887176E+01  0.11241935455E+02  0.10570000000E+00 0.  1.
<mgrwt>
<rscale>  0 0.20012139E+02</rscale>
<asrwt>0</asrwt>
<pdfrwt beam="1">  1        1 0.91364734E-03 0.20012139E+02</pdfrwt>
<pdfrwt beam="2">  1       -1 0.25937119E-02 0.20012139E+02</pdfrwt>
<totfact> 0.37698415E+06</totfact>
</mgrwt>
</event>
<event>
 5    1  0.2115795E-006  0.2000236E+02  0.7818608E-02  0.1745281E+00
          1   -1    0    0  501    0  0.00000000000E+00  0.00000000000E+00  0.85208916576E+02  0.85208916704E+02  0.46700000000E-02 0.  1.
         -1   -1    0    0    0  501 -0.00000000000E+00 -0.00000000000E+00 -0.11738585056E+01  0.11738677950E+01  0.46700000000E-02 0. -1.
       1023    2    1    2    0    0  0.00000000000E+00  0.00000000000E+00  0.84035058071E+02  0.86382784499E+02  0.20002361683E+02 0.  0.
        -13    1    3    3    0    0  0.78306264108E+01  0.62203216667E+01  0.42175269174E+02  0.43344845299E+02  0.10570000000E+00 0. -1.
         13    1    3    3    0    0 -0.78306264108E+01 -0.62203216667E+01  0.41859788897E+02  0.43037939200E+02  0.10570000000E+00 0.  1.
<mgrwt>
<rscale>  0 0.20002362E+02</rscale>
<asrwt>0</asrwt>
<pdfrwt beam="1">  1        1 0.13109065E-01 0.20002362E+02</pdfrwt>
<pdfrwt beam="2">  1       -1 0.18059434E-03 0.20002362E+02</pdfrwt>
<totfact> 0.43614671E+06</totfact>
</mgrwt>
</event>
<event>
 4    1  0.2115795E-006  0.2004530E+02  0.7818608E-02  0.1744429E+00
          1   -1    0    0  501    0  0.00000000000E+00  0.00000000000E+00  0.94939238303E+02  0.94939238418E+02  0.46700000000E-02 0. -1.
         -1   -1    0    0    0  501 -0.00000000000E+00 -0.00000000000E+00 -0.10580764883E+01  0.10580867941E+01  0.46700000000E-02 0.  1.
        -13    1    1    2    0    0  0.62993728629E+00 -0.10002233486E+02  0.47076699248E+02  0.48131780356E+02  0.10570000000E+00 0. -1.
         13    1    1    2    0    0 -0.62993728629E+00  0.10002233486E+02  0.46804462567E+02  0.47865544856E+02  0.10570000000E+00 0.  1.
<mgrwt>
<rscale>  0 0.20045296E+02</rscale>
<asrwt>0</asrwt>
<pdfrwt beam="1">  1        1 0.14606044E-01 0.20045296E+02</pdfrwt>
<pdfrwt beam="2">  1       -1 0.16278172E-03 0.20045296E+02</pdfrwt>
<totfact> 0.43893445E+06</totfact>
</mgrwt>
</event>
<event>
 5    1  0.2115795E-006  0.2000182E+02  0.7818608E-02  0.1745292E+00
         -1   -1    0    0    0  501 -0.00000000000E+00  0.00000000000E+00  0.16508133247E+02  0.16508133907E+02  0.46700000000E-02 0.  1.
          1   -1    0    0  501    0  0.00000000000E+00 -0.00000000000E+00 -0.60587192645E+01  0.60587210643E+01  0.46700000000E-02 0. -1.
       1023    2    1    2    0    0  0.00000000000E+00  0.00000000000E+00  0.10449413982E+02  0.22566854971E+02  0.20001817186E+02 0.  0.
        -13    1    3    3    0    0  0.98230072401E+01  0.18737108259E+01  0.51470573765E+01  0.11247472411E+02  0.10570000000E+00 0. -1.
         13    1    3    3    0    0 -0.98230072401E+01 -0.18737108259E+01  0.53023566055E+01  0.11319382561E+02  0.10570000000E+00 0.  1.
<mgrwt>
<rscale>  0 0.20001817E+02</rscale>
<asrwt>0</asrwt>
<pdfrwt beam="2">  1        1 0.93211084E-03 0.20001817E+02</pdfrwt>
<pdfrwt beam="1">  1       -1 0.25397130E-02 0.20001817E+02</pdfrwt>
<totfact> 0.37780027E+06</totfact>
</mgrwt>
</event>
<event>
 5    1  0.2115795E-006  0.2000205E+02  0.7818608E-02  0.1745287E+00
          1   -1    0    0  501    0  0.00000000000E+00  0.00000000000E+00  0.18432904506E+02  0.18432905098E+02  0.46700000000E-02 0. -1.
         -1   -1    0    0    0  501 -0.00000000000E+00 -0.00000000000E+00 -0.54261920403E+01  0.54261940499E+01  0.46700000000E-02 0.  1.
       1023    2    1    2    0    0  0.00000000000E+00  0.00000000000E+00  0.13006712466E+02  0.23859099147E+02  0.20002050969E+02 0.  0.
        -13    1    3    3    0    0  0.26988528089E+01  0.96294024903E+01  0.64892703623E+01  0.11921870706E+02  0.10570000000E+00 0.  1.
         13    1    3    3    0    0 -0.26988528089E+01 -0.96294024903E+01  0.65174421035E+01  0.11937228442E+02  0.10570000000E+00 0. -1.
<mgrwt>
<rscale>  0 0.20002051E+02</rscale>
<asrwt>0</asrwt>
<pdfrwt beam="1">  1        1 0.28358317E-02 0.20002051E+02</pdfrwt>
<pdfrwt beam="2">  1       -1 0.83479896E-03 0.20002051E+02</pdfrwt>
<totfact> 0.39561969E+06</totfact>
</mgrwt>
</event>
<event>
 4    1  0.2115795E-006  0.2001762E+02  0.7818608E-02  0.1744978E+00
          1   -1    0    0  501    0  0.00000000000E+00  0.00000000000E+00  0.44875080296E+01  0.44875104595E+01  0.46700000000E-02 0.  1.
         -1   -1    0    0    0  501 -0.00000000000E+00 -0.00000000000E+00 -0.22323366240E+02  0.22323366729E+02  0.46700000000E-02 0. -1.
        -13    1    1    2    0    0  0.24528939034E+01 -0.96976330030E+01 -0.84852140847E+01  0.13117576183E+02  0.10570000000E+00 0. -1.
         13    1    1    2    0    0 -0.24528939034E+01  0.96976330030E+01 -0.93506441258E+01  0.13693301005E+02  0.10570000000E+00 0.  1.
<mgrwt>
<rscale>  0 0.20017625E+02</rscale>
<asrwt>0</asrwt>
<pdfrwt beam="1">  1        1 0.69038609E-03 0.20017625E+02</pdfrwt>
<pdfrwt beam="2">  1       -1 0.34343642E-02 0.20017625E+02</pdfrwt>
<totfact> 0.37114175E+06</totfact>
</mgrwt>
</event>
<event>
 5    1  0.2115795E-006  0.2000632E+02  0.7818608E-02  0.1745202E+00
          1   -1    0    0  501    0  0.00000000000E+00  0.00000000000E+00  0.30875271643E+02  0.30875271996E+02  0.46700000000E-02 0. -1.
         -1   -1    0    0    0  501 -0.00000000000E+00 -0.00000000000E+00 -0.32408822090E+01  0.32408855736E+01  0.46700000000E-02 0.  1.
       1023    2    1    2    0    0  0.00000000000E+00  0.00000000000E+00  0.27634389434E+02  0.34116157570E+02  0.20006317201E+02 0.  0.
        -13    1    3    3    0    0 -0.88578387416E+01 -0.46454529238E+01  0.13642710967E+02  0.16916745404E+02  0.10570000000E+00 0. -1.
         13    1    3    3    0    0  0.88578387416E+01  0.46454529238E+01  0.13991678467E+02  0.17199412166E+02  0.10570000000E+00 0.  1.
<mgrwt>
<rscale>  0 0.20006317E+02</rscale>
<asrwt>0</asrwt>
<pdfrwt beam="1">  1        1 0.47500420E-02 0.20006317E+02</pdfrwt>
<pdfrwt beam="2">  1       -1 0.49859755E-03 0.20006317E+02</pdfrwt>
<totfact> 0.40488077E+06</totfact>
</mgrwt>
</event>
<event>
 5    1  0.2115795E-006  0.2000505E+02  0.7818608E-02  0.1745228E+00
          1   -1    0    0  501    0  0.00000000000E+00  0.00000000000E+00  0.15529188546E+02  0.15529189248E+02  0.46700000000E-02 0. -1.
         -1   -1    0    0    0  501 -0.00000000000E+00 -0.00000000000E+00 -0.64427359938E+01  0.64427376863E+01  0.46700000000E-02 0.  1.
       1023    2    1    2    0    0  0.00000000000E+00  0.00000000000E+00  0.90864525524E+01  0.21971926935E+02  0.20005048194E+02 0.  0.
        -13    1    3    3    0    0  0.63092692399E+01  0.77607180757E+01  0.44764865428E+01  0.10958363365E+02  0.10570000000E+00 0.  1.
         13    1    3    3    0    0 -0.63092692399E+01 -0.77607180757E+01  0.46099660096E+01  0.11013563569E+02  0.10570000000E+00 0. -1.
<mgrwt>
<rscale>  0 0.20005048E+02</rscale>
<asrwt>0</asrwt>
<pdfrwt beam="1">  1        1 0.23891061E-02 0.20005048E+02</pdfrwt>
<pdfrwt beam="2">  1       -1 0.99119034E-03 0.20005048E+02</pdfrwt>
<totfact> 0.39276152E+06</totfact>
</mgrwt>
</event>
<event>
 5    1  0.2115795E-006  0.2000266E+02  0.7818608E-02  0.1745275E+00
          1   -1    0    0  501    0  0.00000000000E+00  0.00000000000E+00  0.39934224074E+01  0.39934251380E+01  0.46700000000E-02 0.  1.
         -1   -1    0    0    0  501 -0.00000000000E+00 -0.00000000000E+00 -0.25047824520E+02  0.25047824955E+02  0.46700000000E-02 0. -1.
       1023    2    1    2    0    0  0.00000000000E+00  0.00000000000E+00 -0.21054402112E+02  0.29041250093E+02  0.20002658790E+02 0.  0.
        -13    1    3    3    0    0 -0.92556213829E+01 -0.37878832896E+01 -0.10485368694E+02  0.14490297310E+02  0.10570000000E+00 0. -1.
         13    1    3    3    0    0  0.92556213829E+01  0.37878832896E+01 -0.10569033418E+02  0.14550952783E+02  0.10570000000E+00 0.  1.
<mgrwt>
<rscale>  0 0.20002659E+02</rscale>
<asrwt>0</asrwt>
<pdfrwt beam="1">  1        1 0.61437293E-03 0.20002659E+02</pdfrwt>
<pdfrwt beam="2">  1       -1 0.38535116E-02 0.20002659E+02</pdfrwt>
<totfact> 0.36917550E+06</totfact>
</mgrwt>
</event>
<event>
 5    1  0.2115795E-006  0.2000134E+02  0.7818608E-02  0.1745301E+00
         -1   -1    0    0    0  501 -0.00000000000E+00  0.00000000000E+00  0.28945997468E+01  0.28946035139E+01  0.46700000000E-02 0.  1.
          1   -1    0    0  501    0  0.00000000000E+00 -0.00000000000E+00 -0.34551694832E+02  0.34551695148E+02  0.46700000000E-02 0. -1.
       1023    2    1    2    0    0  0.00000000000E+00  0.00000000000E+00 -0.31657095085E+02  0.37446298662E+02  0.20001340311E+02 0.  0.
        -13    1    3    3    0    0 -0.45770714907E+01 -0.88911226837E+01 -0.15873831991E+02  0.18761432797E+02  0.10570000000E+00 0.  1.
         13    1    3    3    0    0  0.45770714907E+01  0.88911226837E+01 -0.15783263094E+02  0.18684865865E+02  0.10570000000E+00 0. -1.
<mgrwt>
<rscale>  0 0.20001340E+02</rscale>
<asrwt>0</asrwt>
<pdfrwt beam="2">  1        1 0.53156454E-02 0.20001340E+02</pdfrwt>
<pdfrwt beam="1">  1       -1 0.44532338E-03 0.20001340E+02</pdfrwt>
<totfact> 0.40755922E+06</totfact>
</mgrwt>
</event>
<event>
 5    1  0.2115795E-006  0.2000585E+02  0.7818608E-02  0.1745212E+00
          1   -1    0    0  501    0  0.00000000000E+00  0.00000000000E+00  0.34144872913E+01  0.34144904849E+01  0.46700000000E-02 0. -1.
         -1   -1    0    0    0  501 -0.00000000000E+00 -0.00000000000E+00 -0.29304095069E+02  0.29304095441E+02  0.46700000000E-02 0.  1.
       1023    2    1    2    0    0  0.00000000000E+00  0.00000000000E+00 -0.25889607778E+02  0.32718585926E+02  0.20005850997E+02 0.  0.
        -13    1    3    3    0    0 -0.67157998650E+01 -0.74119416070E+01 -0.13095583471E+02  0.16478602039E+02  0.10570000000E+00 0. -1.
         13    1    3    3    0    0  0.67157998650E+01  0.74119416070E+01 -0.12794024307E+02  0.16239983887E+02  0.10570000000E+00 0.  1.
<mgrwt>
<rscale>  0 0.20005851E+02</rscale>
<asrwt>0</asrwt>
<pdfrwt beam="1">  1        1 0.52530603E-03 0.20005851E+02</pdfrwt>
<pdfrwt beam="2">  1       -1 0.45083224E-02 0.20005851E+02</pdfrwt>
<totfact> 0.36523345E+06</totfact>
</mgrwt>
</event>
<event>
 5    1  0.2115795E-006  0.2000498E+02  0.7818608E-02  0.1745229E+00
          1   -1    0    0  501    0  0.00000000000E+00  0.00000000000E+00  0.13143283443E+01  0.13143366408E+01  0.46700000000E-02 0. -1.
         -1   -1    0    0    0  501 -0.00000000000E+00 -0.00000000000E+00 -0.76122103987E+02  0.76122104130E+02  0.46700000000E-02 0.  1.
       1023    2    1    2    0    0  0.00000000000E+00  0.00000000000E+00 -0.74807775642E+02  0.77436440771E+02  0.20004975948E+02 0.  0.
        -13    1    3    3    0    0  0.33704358979E+01 -0.94167321442E+01 -0.37161819423E+02  0.38484369265E+02  0.10570000000E+00 0.  1.
         13    1    3    3    0    0 -0.33704358979E+01  0.94167321442E+01 -0.37645956220E+02  0.38952071506E+02  0.10570000000E+00 0. -1.
<mgrwt>
<rscale>  0 0.20004976E+02</rscale>
<asrwt>0</asrwt>
<pdfrwt beam="1">  1        1 0.20220507E-03 0.20004976E+02</pdfrwt>
<pdfrwt beam="2">  1       -1 0.11711090E-01 0.20004976E+02</pdfrwt>
<totfact> 0.33206779E+06</totfact>
</mgrwt>
</event>
<event>
 5    1  0.2115795E-006  0.2000254E+02  0.7818608E-02  0.1745278E+00
         -1   -1    0    0    0  501 -0.00000000000E+00  0.00000000000E+00  0.21483137178E+02  0.21483137685E+02  0.46700000000E-02 0.  1.
          1   -1    0    0  501    0  0.00000000000E+00 -0.00000000000E+00 -0.46559949848E+01  0.46559973269E+01  0.46700000000E-02 0. -1.
       1023    2    1    2    0    0  0.00000000000E+00  0.00000000000E+00  0.16827142193E+02  0.26139135012E+02  0.20002541459E+02 0.  0.
        -13    1    3    3    0    0 -0.96749864132E+01  0.25309884949E+01  0.84848942796E+01  0.13115482007E+02  0.10570000000E+00 0.  1.
         13    1    3    3    0    0  0.96749864132E+01 -0.25309884949E+01  0.83422479133E+01  0.13023653005E+02  0.10570000000E+00 0. -1.
<mgrwt>
<rscale>  0 0.20002541E+02</rscale>
<asrwt>0</asrwt>
<pdfrwt beam="2">  1        1 0.71630712E-03 0.20002541E+02</pdfrwt>
<pdfrwt beam="1">  1       -1 0.33050983E-02 0.20002541E+02</pdfrwt>
<totfact> 0.37257853E+06</totfact>
</mgrwt>
</event>
<event>
 5    1  0.2115795E-006  0.2000490E+02  0.7818608E-02  0.1745231E+00
          1   -1    0    0  501    0  0.00000000000E+00  0.00000000000E+00  0.33556934747E+02  0.33556935072E+02  0.46700000000E-02 0. -1.
         -1   -1    0    0    0  501 -0.00000000000E+00 -0.00000000000E+00 -0.29814688676E+01  0.29814725250E+01  0.46700000000E-02 0.  1.
       1023    2    1    2    0    0  0.00000000000E+00  0.00000000000E+00  0.30575465879E+02  0.36538407597E+02  0.20004902299E+02 0.  0.
        -13    1    3    3    0    0  0.95590807395E+01 -0.29415195416E+01  0.15463821464E+02  0.18416555285E+02  0.10570000000E+00 0. -1.
         13    1    3    3    0    0 -0.95590807395E+01  0.29415195416E+01  0.15111644415E+02  0.18121852312E+02  0.10570000000E+00 0.  1.
<mgrwt>
<rscale>  0 0.20004902E+02</rscale>
<asrwt>0</asrwt>
<pdfrwt beam="1">  1        1 0.51626058E-02 0.20004902E+02</pdfrwt>
<pdfrwt beam="2">  1       -1 0.45868781E-03 0.20004902E+02</pdfrwt>
<totfact> 0.40674295E+06</totfact>
</mgrwt>
</event>
<event>
 5    1  0.2115795E-006  0.2000219E+02  0.7818608E-02  0.1745285E+00
         -1   -1    0    0    0  501 -0.00000000000E+00  0.00000000000E+00  0.10458351468E+02  0.10458352511E+02  0.46700000000E-02 0.  1.
          1   -1    0    0  501    0  0.00000000000E+00 -0.00000000000E+00 -0.95638290211E+01  0.95638301612E+01  0.46700000000E-02 0. -1.
       1023    2    1    2    0    0  0.00000000000E+00  0.00000000000E+00  0.89452244704E+00  0.20022182672E+02  0.20002190594E+02 0.  0.
        -13    1    3    3    0    0 -0.11200152044E+01  0.99376149053E+01  0.43673491924E+00  0.10010621057E+02  0.10570000000E+00 0.  1.
         13    1    3    3    0    0  0.11200152044E+01 -0.99376149053E+01  0.45778752779E+00  0.10011561615E+02  0.10570000000E+00 0. -1.
<mgrwt>
<rscale>  0 0.20002191E+02</rscale>
<asrwt>0</asrwt>
<pdfrwt beam="2">  1        1 0.14713585E-02 0.20002191E+02</pdfrwt>
<pdfrwt beam="1">  1       -1 0.16089773E-02 0.20002191E+02</pdfrwt>
<totfact> 0.38545009E+06</totfact>
</mgrwt>
</event>
<event>
 5    1  0.2115795E-006  0.2000277E+02  0.7818608E-02  0.1745273E+00
          1   -1    0    0  501    0  0.00000000000E+00  0.00000000000E+00  0.62615942871E+02  0.62615943045E+02  0.46700000000E-02 0. -1.
         -1   -1    0    0    0  501 -0.00000000000E+00 -0.00000000000E+00 -0.15974758362E+01  0.15974826623E+01  0.46700000000E-02 0.  1.
       1023    2    1    2    0    0  0.00000000000E+00  0.00000000000E+00  0.61018467034E+02  0.64213425707E+02  0.20002767854E+02 0.  0.
        -13    1    3    3    0    0  0.99856282470E+01  0.54917500297E+00  0.30360613877E+02  0.31965487829E+02  0.10570000000E+00 0.  1.
         13    1    3    3    0    0 -0.99856282470E+01 -0.54917500297E+00  0.30657853157E+02  0.32247937878E+02  0.10570000000E+00 0. -1.
<mgrwt>
<rscale>  0 0.20002768E+02</rscale>
<asrwt>0</asrwt>
<pdfrwt beam="1">  1        1 0.96332220E-02 0.20002768E+02</pdfrwt>
<pdfrwt beam="2">  1       -1 0.24576607E-03 0.20002768E+02</pdfrwt>
<totfact> 0.42418992E+06</totfact>
</mgrwt>
</event>
<event>
 5    1  0.2115795E-006  0.2000663E+02  0.7818608E-02  0.1745196E+00
         -1   -1    0    0    0  501 -0.00000000000E+00  0.00000000000E+00  0.82888608185E+01  0.82888621341E+01  0.46700000000E-02 0. -1.
          1   -1    0    0  501    0  0.00000000000E+00 -0.00000000000E+00 -0.12072378707E+02  0.12072379610E+02  0.46700000000E-02 0.  1.
       1023    2    1    2    0    0  0.00000000000E+00  0.00000000000E+00 -0.37835178885E+01  0.20361241744E+02  0.20006627846E+02 0.  0.
        -13    1    3    3    0    0 -0.26208285680E+01 -0.96516520075E+01 -0.20737812205E+01  0.10214444180E+02  0.10570000000E+00 0.  1.
         13    1    3    3    0    0  0.26208285680E+01  0.96516520075E+01 -0.17097366680E+01  0.10146797565E+02  0.10570000000E+00 0. -1.
<mgrwt>
<rscale>  0 0.20006628E+02</rscale>
<asrwt>0</asrwt>
<pdfrwt beam="2">  1        1 0.18572892E-02 0.20006628E+02</pdfrwt>
<pdfrwt beam="1">  1       -1 0.12752095E-02 0.20006628E+02</pdfrwt>
<totfact> 0.38883496E+06</totfact>
</mgrwt>
</event>
<event>
 5    1  0.2115795E-006  0.2000123E+02  0.7818608E-02  0.1745304E+00
          1   -1    0    0  501    0  0.00000000000E+00  0.00000000000E+00  0.80200871905E+01  0.80200885501E+01  0.46700000000E-02 0. -1.
         -1   -1    0    0    0  501 -0.00000000000E+00 -0.00000000000E+00 -0.12470219121E+02  0.12470219996E+02  0.46700000000E-02 0.  1.
       1023    2    1    2    0    0  0.00000000000E+00  0.00000000000E+00 -0.44501319306E+01  0.20490308546E+02  0.20001226715E+02 0.  0.
        -13    1    3    3    0    0  0.64639954913E+01  0.76300504243E+01 -0.22110251619E+01  0.10242104859E+02  0.10570000000E+00 0. -1.
         13    1    3    3    0    0 -0.64639954913E+01 -0.76300504243E+01 -0.22391067687E+01  0.10248203687E+02  0.10570000000E+00 0.  1.
<mgrwt>
<rscale>  0 0.20001227E+02</rscale>
<asrwt>0</asrwt>
<pdfrwt beam="1">  1        1 0.12338597E-02 0.20001227E+02</pdfrwt>
<pdfrwt beam="2">  1       -1 0.19184954E-02 0.20001227E+02</pdfrwt>
<totfact> 0.38268060E+06</totfact>
</mgrwt>
</event>
<event>
 4    1  0.2115795E-006  0.2005233E+02  0.7818608E-02  0.1744289E+00
          1   -1    0    0  501    0  0.00000000000E+00  0.00000000000E+00  0.15229098920E+01  0.15229170523E+01  0.46700000000E-02 0. -1.
         -1   -1    0    0    0  501 -0.00000000000E+00 -0.00000000000E+00 -0.66007695923E+02  0.66007696088E+02  0.46700000000E-02 0.  1.
        -13    1    1    2    0    0  0.76949710817E+01 -0.64249056369E+01 -0.32728740214E+02  0.34229718096E+02  0.10570000000E+00 0. -1.
         13    1    1    2    0    0 -0.76949710817E+01  0.64249056369E+01 -0.31756045816E+02  0.33300895044E+02  0.10570000000E+00 0.  1.
<mgrwt>
<rscale>  0 0.20052334E+02</rscale>
<asrwt>0</asrwt>
<pdfrwt beam="1">  1        1 0.23429444E-03 0.20052334E+02</pdfrwt>
<pdfrwt beam="2">  1       -1 0.10155029E-01 0.20052334E+02</pdfrwt>
<totfact> 0.33658627E+06</totfact>
</mgrwt>
</event>
<event>
 4    1  0.2115795E-006  0.2167336E+02  0.7818608E-02  0.1713963E+00
          1   -1    0    0  501    0  0.00000000000E+00  0.00000000000E+00  0.13998498344E+02  0.13998499123E+02  0.46700000000E-02 0. -1.
         -1   -1    0    0    0  501 -0.00000000000E+00 -0.00000000000E+00 -0.83890177892E+01  0.83890190890E+01  0.46700000000E-02 0.  1.
        -13    1    1    2    0    0 -0.46194544245E+01 -0.96245760251E+01  0.88593039427E+00  0.10712976617E+02  0.10570000000E+00 0.  1.
         13    1    1    2    0    0  0.46194544245E+01  0.96245760251E+01  0.47235501606E+01  0.11674541595E+02  0.10570000000E+00 0. -1.
<mgrwt>
<rscale>  0 0.21673364E+02</rscale>
<asrwt>0</asrwt>
<pdfrwt beam="1">  1        1 0.21536153E-02 0.21673364E+02</pdfrwt>
<pdfrwt beam="2">  1       -1 0.12906183E-02 0.21673364E+02</pdfrwt>
<totfact> 0.32604196E+06</totfact>
</mgrwt>
</event>
<event>
 4    1  0.2115795E-006  0.2001545E+02  0.7818608E-02  0.1745021E+00
          1   -1    0    0  501    0  0.00000000000E+00  0.00000000000E+00  0.63850303541E+02  0.63850303712E+02  0.46700000000E-02 0.  1.
         -1   -1    0    0    0  501 -0.00000000000E+00 -0.00000000000E+00 -0.15685810440E+01  0.15685879958E+01  0.46700000000E-02 0. -1.
        -13    1    1    2    0    0 -0.28935034225E+01 -0.95750716717E+01  0.32116344409E+02  0.33638149626E+02  0.10570000000E+00 0. -1.
         13    1    1    2    0    0  0.28935034225E+01  0.95750716717E+01  0.30165378088E+02  0.31780742081E+02  0.10570000000E+00 0.  1.
<mgrwt>
<rscale>  0 0.20015455E+02</rscale>
<asrwt>0</asrwt>
<pdfrwt beam="1">  1        1 0.98231237E-02 0.20015455E+02</pdfrwt>
<pdfrwt beam="2">  1       -1 0.24132072E-03 0.20015455E+02</pdfrwt>
<totfact> 0.42427328E+06</totfact>
</mgrwt>
</event>
<event>
 5    1  0.2115795E-006  0.2000195E+02  0.7818608E-02  0.1745289E+00
         -1   -1    0    0    0  501 -0.00000000000E+00  0.00000000000E+00  0.20385326208E+01  0.20385379699E+01  0.46700000000E-02 0. -1.
          1   -1    0    0  501    0  0.00000000000E+00 -0.00000000000E+00 -0.49064378700E+02  0.49064378923E+02  0.46700000000E-02 0.  1.
       1023    2    1    2    0    0  0.00000000000E+00  0.00000000000E+00 -0.47025846080E+02  0.51102916893E+02  0.20001947791E+02 0.  0.
        -13    1    3    3    0    0  0.78237012064E+01 -0.62285507787E+01 -0.23369279745E+02  0.25419275239E+02  0.10570000000E+00 0. -1.
         13    1    3    3    0    0 -0.78237012064E+01  0.62285507787E+01 -0.23656566334E+02  0.25683641654E+02  0.10570000000E+00 0.  1.
<mgrwt>
<rscale>  0 0.20001948E+02</rscale>
<asrwt>0</asrwt>
<pdfrwt beam="2">  1        1 0.75483655E-02 0.20001948E+02</pdfrwt>
<pdfrwt beam="1">  1       -1 0.31362087E-03 0.20001948E+02</pdfrwt>
<totfact> 0.41650819E+06</totfact>
</mgrwt>
</event>
<event>
 5    1  0.2115795E-006  0.2000282E+02  0.7818608E-02  0.1745272E+00
         -1   -1    0    0    0  501 -0.00000000000E+00  0.00000000000E+00  0.15505430123E+02  0.15505430826E+02  0.46700000000E-02 0. -1.
          1   -1    0    0  501    0  0.00000000000E+00 -0.00000000000E+00 -0.64511675992E+01  0.64511692895E+01  0.46700000000E-02 0.  1.
       1023    2    1    2    0    0  0.00000000000E+00  0.00000000000E+00  0.90542625237E+01  0.21956600116E+02  0.20002815272E+02 0.  0.
        -13    1    3    3    0    0  0.83787249239E+01  0.54595111611E+01  0.46233814413E+01  0.11017990829E+02  0.10570000000E+00 0. -1.
         13    1    3    3    0    0 -0.83787249239E+01 -0.54595111611E+01  0.44308810824E+01  0.10938609287E+02  0.10570000000E+00 0.  1.
<mgrwt>
<rscale>  0 0.20002815E+02</rscale>
<asrwt>0</asrwt>
<pdfrwt beam="2">  1        1 0.99248750E-03 0.20002815E+02</pdfrwt>
<pdfrwt beam="1">  1       -1 0.23854510E-02 0.20002815E+02</pdfrwt>
<totfact> 0.37889400E+06</totfact>
</mgrwt>
</event>
<event>
 5    1  0.2115795E-006  0.2000625E+02  0.7818608E-02  0.1745204E+00
         -1   -1    0    0    0  501 -0.00000000000E+00  0.00000000000E+00  0.21023320859E+02  0.21023321378E+02  0.46700000000E-02 0.  1.
          1   -1    0    0  501    0  0.00000000000E+00 -0.00000000000E+00 -0.47595935349E+01  0.47595958260E+01  0.46700000000E-02 0. -1.
       1023    2    1    2    0    0  0.00000000000E+00  0.00000000000E+00  0.16263727324E+02  0.25782917204E+02  0.20006248850E+02 0.  0.
        -13    1    3    3    0    0  0.57429216968E+01  0.81882585367E+01  0.79381303788E+01  0.12769252675E+02  0.10570000000E+00 0. -1.
         13    1    3    3    0    0 -0.57429216968E+01 -0.81882585367E+01  0.83255969456E+01  0.13013664529E+02  0.10570000000E+00 0.  1.
<mgrwt>
<rscale>  0 0.20006249E+02</rscale>
<asrwt>0</asrwt>
<pdfrwt beam="2">  1        1 0.73224539E-03 0.20006249E+02</pdfrwt>
<pdfrwt beam="1">  1       -1 0.32343572E-02 0.20006249E+02</pdfrwt>
<totfact> 0.37288197E+06</totfact>
</mgrwt>
</event>
<event>
 5    1  0.2115795E-006  0.2000213E+02  0.7818608E-02  0.1745286E+00
         -1   -1    0    0    0  501 -0.00000000000E+00  0.00000000000E+00  0.87311927573E+00  0.87313176471E+00  0.46700000000E-02 0. -1.
          1   -1    0    0  501    0  0.00000000000E+00 -0.00000000000E+00 -0.11455545189E+03  0.11455545199E+03  0.46700000000E-02 0.  1.
       1023    2    1    2    0    0  0.00000000000E+00  0.00000000000E+00 -0.11368233261E+03  0.11542858375E+03  0.20002129834E+02 0.  0.
        -13    1    3    3    0    0  0.99905516122E+01  0.44608301776E+00 -0.56818514790E+02  0.57691983039E+02  0.10570000000E+00 0. -1.
         13    1    3    3    0    0 -0.99905516122E+01 -0.44608301776E+00 -0.56863817825E+02  0.57736600711E+02  0.10570000000E+00 0.  1.
<mgrwt>
<rscale>  0 0.20002130E+02</rscale>
<asrwt>0</asrwt>
<pdfrwt beam="2">  1        1 0.17623905E-01 0.20002130E+02</pdfrwt>
<pdfrwt beam="1">  1       -1 0.13432710E-03 0.20002130E+02</pdfrwt>
<totfact> 0.45039481E+06</totfact>
</mgrwt>
</event>
<event>
 4    1  0.2115795E-006  0.2001313E+02  0.7818608E-02  0.1745067E+00
          1   -1    0    0  501    0  0.00000000000E+00  0.00000000000E+00  0.90299384843E+01  0.90299396919E+01  0.46700000000E-02 0. -1.
         -1   -1    0    0    0  501 -0.00000000000E+00 -0.00000000000E+00 -0.11088817191E+02  0.11088818174E+02  0.46700000000E-02 0.  1.
        -13    1    1    2    0    0  0.42924246171E+01 -0.90382143158E+01 -0.11070448249E+01  0.10067320788E+02  0.10570000000E+00 0. -1.
         13    1    1    2    0    0 -0.42924246171E+01  0.90382143158E+01 -0.95183388188E+00  0.10051437078E+02  0.10570000000E+00 0.  1.
<mgrwt>
<rscale>  0 0.20013132E+02</rscale>
<asrwt>0</asrwt>
<pdfrwt beam="1">  1        1 0.13892215E-02 0.20013132E+02</pdfrwt>
<pdfrwt beam="2">  1       -1 0.17059720E-02 0.20013132E+02</pdfrwt>
<totfact> 0.38407030E+06</totfact>
</mgrwt>
</event>
<event>
 5    1  0.2115795E-006  0.2000227E+02  0.7818608E-02  0.1745283E+00
          1   -1    0    0  501    0  0.00000000000E+00  0.00000000000E+00  0.28112408134E+01  0.28112446922E+01  0.46700000000E-02 0. -1.
         -1   -1    0    0    0  501 -0.00000000000E+00 -0.00000000000E+00 -0.35579524525E+02  0.35579524832E+02  0.46700000000E-02 0.  1.
       1023    2    1    2    0    0  0.00000000000E+00  0.00000000000E+00 -0.32768283712E+02  0.38390769524E+02  0.20002269052E+02 0.  0.
        -13    1    3    3    0    0  0.97892881043E+01 -0.20425892911E+01 -0.16568103662E+02  0.19352404606E+02  0.10570000000E+00 0.  1.
         13    1    3    3    0    0 -0.97892881043E+01  0.20425892911E+01 -0.16200180050E+02  0.19038364918E+02  0.10570000000E+00 0. -1.
<mgrwt>
<rscale>  0 0.20002269E+02</rscale>
<asrwt>0</asrwt>
<pdfrwt beam="1">  1        1 0.43249894E-03 0.20002269E+02</pdfrwt>
<pdfrwt beam="2">  1       -1 0.54737730E-02 0.20002269E+02</pdfrwt>
<totfact> 0.36011698E+06</totfact>
</mgrwt>
</event>
<event>
 4    1  0.2115795E-006  0.2011419E+02  0.7818608E-02  0.1743067E+00
         -1   -1    0    0    0  501 -0.00000000000E+00  0.00000000000E+00  0.34953233317E+02  0.34953233629E+02  0.46700000000E-02 0.  1.
          1   -1    0    0  501    0  0.00000000000E+00 -0.00000000000E+00 -0.28937250924E+01  0.28937288607E+01  0.46700000000E-02 0. -1.
        -13    1    1    2    0    0  0.99328466705E+01 -0.14671589010E+01  0.14965432504E+02  0.18021912794E+02  0.10570000000E+00 0. -1.
         13    1    1    2    0    0 -0.99328466705E+01  0.14671589010E+01  0.17094075721E+02  0.19825049697E+02  0.10570000000E+00 0.  1.
<mgrwt>
<rscale>  0 0.20114187E+02</rscale>
<asrwt>0</asrwt>
<pdfrwt beam="2">  1        1 0.44518878E-03 0.20114187E+02</pdfrwt>
<pdfrwt beam="1">  1       -1 0.53774210E-02 0.20114187E+02</pdfrwt>
<totfact> 0.35622416E+06</totfact>
</mgrwt>
</event>
<event>
 5    1  0.2115795E-006  0.2000199E+02  0.7818608E-02  0.1745289E+00
          1   -1    0    0  501    0  0.00000000000E+00  0.00000000000E+00  0.11975833416E+01  0.11975924469E+01  0.46700000000E-02 0.  1.
         -1   -1    0    0    0  501 -0.00000000000E+00 -0.00000000000E+00 -0.83517790413E+02  0.83517790543E+02  0.46700000000E-02 0. -1.
       1023    2    1    2    0    0  0.00000000000E+00  0.00000000000E+00 -0.82320207071E+02  0.84715382990E+02  0.20001990475E+02 0.  0.
        -13    1    3    3    0    0  0.60031532549E+01 -0.79980359218E+01 -0.41363472494E+02  0.42555310560E+02  0.10570000000E+00 0.  1.
         13    1    3    3    0    0 -0.60031532549E+01  0.79980359218E+01 -0.40956734577E+02  0.42160072430E+02  0.10570000000E+00 0. -1.
<mgrwt>
<rscale>  0 0.20001990E+02</rscale>
<asrwt>0</asrwt>
<pdfrwt beam="1">  1        1 0.18424437E-03 0.20001990E+02</pdfrwt>
<pdfrwt beam="2">  1       -1 0.12848887E-01 0.20001990E+02</pdfrwt>
<totfact> 0.32780308E+06</totfact>
</mgrwt>
</event>
<event>
 5    1  0.2115795E-006  0.2000560E+02  0.7818608E-02  0.1745217E+00
         -1   -1    0    0    0  501 -0.00000000000E+00  0.00000000000E+00  0.27531468334E+02  0.27531468730E+02  0.46700000000E-02 0. -1.
          1   -1    0    0  501    0  0.00000000000E+00 -0.00000000000E+00 -0.36342395753E+01  0.36342425757E+01  0.46700000000E-02 0.  1.
       1023    2    1    2    0    0  0.00000000000E+00  0.00000000000E+00  0.23897228759E+02  0.31165711306E+02  0.20005599687E+02 0.  0.
        -13    1    3    3    0    0 -0.11722130431E+01 -0.99313536680E+01  0.12256119507E+02  0.15818644283E+02  0.10570000000E+00 0. -1.
         13    1    3    3    0    0  0.11722130431E+01  0.99313536680E+01  0.11641109252E+02  0.15347067023E+02  0.10570000000E+00 0.  1.
<mgrwt>
<rscale>  0 0.20005600E+02</rscale>
<asrwt>0</asrwt>
<pdfrwt beam="2">  1        1 0.55911404E-03 0.20005600E+02</pdfrwt>
<pdfrwt beam="1">  1       -1 0.42356108E-02 0.20005600E+02</pdfrwt>
<totfact> 0.36680532E+06</totfact>
</mgrwt>
</event>
<event>
 5    1  0.2115795E-006  0.2001142E+02  0.7818608E-02  0.1745101E+00
         -1   -1    0    0    0  501 -0.00000000000E+00  0.00000000000E+00  0.23278068932E+02  0.23278069401E+02  0.46700000000E-02 0. -1.
          1   -1    0    0  501    0  0.00000000000E+00 -0.00000000000E+00 -0.43007966540E+01  0.43007991894E+01  0.46700000000E-02 0.  1.
       1023    2    1    2    0    0  0.00000000000E+00  0.00000000000E+00  0.18977272278E+02  0.27578868590E+02  0.20011424976E+02 0.  0.
        -13    1    3    3    0    0  0.39246781586E+01  0.92007150299E+01  0.91903227979E+01  0.13584162150E+02  0.10570000000E+00 0. -1.
         13    1    3    3    0    0 -0.39246781586E+01 -0.92007150299E+01  0.97869494802E+01  0.13994706440E+02  0.10570000000E+00 0.  1.
<mgrwt>
<rscale>  0 0.20011425E+02</rscale>
<asrwt>0</asrwt>
<pdfrwt beam="2">  1        1 0.66166124E-03 0.20011425E+02</pdfrwt>
<pdfrwt beam="1">  1       -1 0.35812417E-02 0.20011425E+02</pdfrwt>
<totfact> 0.37047819E+06</totfact>
</mgrwt>
</event>
<event>
 4    1  0.2115795E-006  0.2002372E+02  0.7818608E-02  0.1744857E+00
          1   -1    0    0  501    0  0.00000000000E+00  0.00000000000E+00  0.17444855409E+01  0.17444917917E+01  0.46700000000E-02 0.  1.
         -1   -1    0    0    0  501 -0.00000000000E+00 -0.00000000000E+00 -0.57459412324E+02  0.57459412514E+02  0.46700000000E-02 0. -1.
        -13    1    1    2    0    0 -0.93823539188E+01  0.34779592836E+01 -0.26916110435E+02  0.28716074580E+02  0.10570000000E+00 0. -1.
         13    1    1    2    0    0  0.93823539188E+01 -0.34779592836E+01 -0.28798816348E+02  0.30487829725E+02  0.10570000000E+00 0.  1.
<mgrwt>
<rscale>  0 0.20023716E+02</rscale>
<asrwt>0</asrwt>
<pdfrwt beam="1">  1        1 0.26838293E-03 0.20023716E+02</pdfrwt>
<pdfrwt beam="2">  1       -1 0.88399086E-02 0.20023716E+02</pdfrwt>
<totfact> 0.34323613E+06</totfact>
</mgrwt>
</event>
<event>
 5    1  0.2115795E-006  0.2000353E+02  0.7818608E-02  0.1745258E+00
          1   -1    0    0  501    0  0.00000000000E+00  0.00000000000E+00  0.37966572528E+02  0.37966572815E+02  0.46700000000E-02 0.  1.
         -1   -1    0    0    0  501 -0.00000000000E+00 -0.00000000000E+00 -0.26348228082E+01  0.26348269468E+01  0.46700000000E-02 0. -1.
       1023    2    1    2    0    0  0.00000000000E+00  0.00000000000E+00  0.35331749719E+02  0.40601399762E+02  0.20003527798E+02 0.  0.
        -13    1    3    3    0    0 -0.92048306557E+01 -0.39083927764E+01  0.17381229142E+02  0.20052998292E+02  0.10570000000E+00 0. -1.
         13    1    3    3    0    0  0.92048306557E+01  0.39083927764E+01  0.17950520577E+02  0.20548401470E+02  0.10570000000E+00 0.  1.
<mgrwt>
<rscale>  0 0.20003528E+02</rscale>
<asrwt>0</asrwt>
<pdfrwt beam="1">  1        1 0.58410115E-02 0.20003528E+02</pdfrwt>
<pdfrwt beam="2">  1       -1 0.40535769E-03 0.20003528E+02</pdfrwt>
<totfact> 0.40966142E+06</totfact>
</mgrwt>
</event>
<event>
 5    1  0.2115795E-006  0.2000415E+02  0.7818608E-02  0.1745246E+00
         -1   -1    0    0    0  501 -0.00000000000E+00  0.00000000000E+00  0.14023921706E+01  0.14023999461E+01  0.46700000000E-02 0.  1.
          1   -1    0    0  501    0  0.00000000000E+00 -0.00000000000E+00 -0.71336138424E+02  0.71336138577E+02  0.46700000000E-02 0. -1.
       1023    2    1    2    0    0  0.00000000000E+00  0.00000000000E+00 -0.69933746254E+02  0.72738538523E+02  0.20004152604E+02 0.  0.
        -13    1    3    3    0    0 -0.96448973975E+01  0.26438786002E+01 -0.35429939374E+02  0.36814479711E+02  0.10570000000E+00 0.  1.
         13    1    3    3    0    0  0.96448973975E+01 -0.26438786002E+01 -0.34503806880E+02  0.35924058812E+02  0.10570000000E+00 0. -1.
<mgrwt>
<rscale>  0 0.20004153E+02</rscale>
<asrwt>0</asrwt>
<pdfrwt beam="2">  1        1 0.10974788E-01 0.20004153E+02</pdfrwt>
<pdfrwt beam="1">  1       -1 0.21575331E-03 0.20004153E+02</pdfrwt>
<totfact> 0.42885616E+06</totfact>
</mgrwt>
</event>
<event>
 5    1  0.2115795E-006  0.2000525E+02  0.7818608E-02  0.1745224E+00
         -1   -1    0    0    0  501 -0.00000000000E+00  0.00000000000E+00  0.19725707265E+01  0.19725762545E+01  0.46700000000E-02 0.  1.
          1   -1    0    0  501    0  0.00000000000E+00 -0.00000000000E+00 -0.50721796082E+02  0.50721796297E+02  0.46700000000E-02 0. -1.
       1023    2    1    2    0    0  0.00000000000E+00  0.00000000000E+00 -0.48749225355E+02  0.52694372551E+02  0.20005247458E+02 0.  0.
        -13    1    3    3    0    0 -0.96132196141E+01 -0.27607803618E+01 -0.24568342024E+02  0.26526411402E+02  0.10570000000E+00 0.  1.
         13    1    3    3    0    0  0.96132196141E+01  0.27607803618E+01 -0.24180883331E+02  0.26167961149E+02  0.10570000000E+00 0. -1.
<mgrwt>
<rscale>  0 0.20005247E+02</rscale>
<asrwt>0</asrwt>
<pdfrwt beam="2">  1        1 0.78033527E-02 0.20005247E+02</pdfrwt>
<pdfrwt beam="1">  1       -1 0.30347290E-03 0.20005247E+02</pdfrwt>
<totfact> 0.41732730E+06</totfact>
</mgrwt>
</event>
<event>
 4    1  0.2115795E-006  0.2001547E+02  0.7818608E-02  0.1745021E+00
         -1   -1    0    0    0  501 -0.00000000000E+00  0.00000000000E+00  0.76193299361E+02  0.76193299504E+02  0.46700000000E-02 0. -1.
          1   -1    0    0  501    0  0.00000000000E+00 -0.00000000000E+00 -0.13144779444E+01  0.13144862400E+01  0.46700000000E-02 0.  1.
        -13    1    1    2    0    0  0.49346091473E+01 -0.86981747699E+01  0.36016843008E+02  0.37379576837E+02  0.10570000000E+00 0. -1.
         13    1    1    2    0    0 -0.49346091473E+01  0.86981747699E+01  0.38861978409E+02  0.40128208907E+02  0.10570000000E+00 0.  1.
<mgrwt>
<rscale>  0 0.20015468E+02</rscale>
<asrwt>0</asrwt>
<pdfrwt beam="2">  1        1 0.20222796E-03 0.20015468E+02</pdfrwt>
<pdfrwt beam="1">  1       -1 0.11722050E-01 0.20015468E+02</pdfrwt>
<totfact> 0.33164317E+06</totfact>
</mgrwt>
</event>
<event>
 4    1  0.2115795E-006  0.2004490E+02  0.7818608E-02  0.1744437E+00
          1   -1    0    0  501    0  0.00000000000E+00  0.00000000000E+00  0.56068093308E+02  0.56068093502E+02  0.46700000000E-02 0.  1.
         -1   -1    0    0    0  501 -0.00000000000E+00 -0.00000000000E+00 -0.17915599911E+01  0.17915660776E+01  0.46700000000E-02 0. -1.
        -13    1    1    2    0    0 -0.44985425290E+01  0.89393834314E+01  0.28689747424E+02  0.30385230635E+02  0.10570000000E+00 0. -1.
         13    1    1    2    0    0  0.44985425290E+01 -0.89393834314E+01  0.25586785893E+02  0.27474428945E+02  0.10570000000E+00 0.  1.
<mgrwt>
<rscale>  0 0.20044903E+02</rscale>
<asrwt>0</asrwt>
<pdfrwt beam="1">  1        1 0.86258617E-02 0.20044903E+02</pdfrwt>
<pdfrwt beam="2">  1       -1 0.27562508E-03 0.20044903E+02</pdfrwt>
<totfact> 0.41856081E+06</totfact>
</mgrwt>
</event>
<event>
 4    1  0.2115795E-006  0.2001251E+02  0.7818608E-02  0.1745079E+00
          1   -1    0    0  501    0  0.00000000000E+00  0.00000000000E+00  0.34969901576E+01  0.34969932759E+01  0.46700000000E-02 0. -1.
         -1   -1    0    0    0  501 -0.00000000000E+00 -0.00000000000E+00 -0.28631776963E+02  0.28631777344E+02  0.46700000000E-02 0.  1.
        -13    1    1    2    0    0 -0.24466652865E+00 -0.10001708371E+02 -0.12340953650E+02  0.15887238323E+02  0.10570000000E+00 0.  1.
         13    1    1    2    0    0  0.24466652865E+00  0.10001708371E+02 -0.12793833155E+02  0.16241532297E+02  0.10570000000E+00 0. -1.
<mgrwt>
<rscale>  0 0.20012506E+02</rscale>
<asrwt>0</asrwt>
<pdfrwt beam="1">  1        1 0.53799877E-03 0.20012506E+02</pdfrwt>
<pdfrwt beam="2">  1       -1 0.44048889E-02 0.20012506E+02</pdfrwt>
<totfact> 0.36555384E+06</totfact>
</mgrwt>
</event>
<event>
 4    1  0.2115795E-006  0.2001871E+02  0.7818608E-02  0.1744956E+00
          1   -1    0    0  501    0  0.00000000000E+00  0.00000000000E+00  0.34589314666E+02  0.34589314981E+02  0.46700000000E-02 0. -1.
         -1   -1    0    0    0  501 -0.00000000000E+00 -0.00000000000E+00 -0.28964748278E+01  0.28964785926E+01  0.46700000000E-02 0.  1.
        -13    1    1    2    0    0 -0.49365059715E+01 -0.87019941671E+01  0.16383252599E+02  0.19196768788E+02  0.10570000000E+00 0. -1.
         13    1    1    2    0    0  0.49365059715E+01  0.87019941671E+01  0.15309587239E+02  0.18289024786E+02  0.10570000000E+00 0.  1.
<mgrwt>
<rscale>  0 0.20018707E+02</rscale>
<asrwt>0</asrwt>
<pdfrwt beam="1">  1        1 0.53214339E-02 0.20018707E+02</pdfrwt>
<pdfrwt beam="2">  1       -1 0.44561178E-03 0.20018707E+02</pdfrwt>
<totfact> 0.40679564E+06</totfact>
</mgrwt>
</event>
<event>
 5    1  0.2115795E-006  0.2000178E+02  0.7818608E-02  0.1745293E+00
         -1   -1    0    0    0  501 -0.00000000000E+00  0.00000000000E+00  0.39396648003E+01  0.39396675682E+01  0.46700000000E-02 0.  1.
          1   -1    0    0  501    0  0.00000000000E+00 -0.00000000000E+00 -0.25387367974E+02  0.25387368403E+02  0.46700000000E-02 0. -1.
       1023    2    1    2    0    0  0.00000000000E+00  0.00000000000E+00 -0.21447703173E+02  0.29327035971E+02  0.20001776607E+02 0.  0.
        -13    1    3    3    0    0  0.41527463748E+01 -0.90971041649E+01 -0.10631261907E+02  0.14595804495E+02  0.10570000000E+00 0. -1.
         13    1    3    3    0    0 -0.41527463748E+01  0.90971041649E+01 -0.10816441266E+02  0.14731231476E+02  0.10570000000E+00 0.  1.
<mgrwt>
<rscale>  0 0.20001777E+02</rscale>
<asrwt>0</asrwt>
<pdfrwt beam="2">  1        1 0.39057491E-02 0.20001777E+02</pdfrwt>
<pdfrwt beam="1">  1       -1 0.60610254E-03 0.20001777E+02</pdfrwt>
<totfact> 0.40120115E+06</totfact>
</mgrwt>
</event>
<event>
 5    1  0.2115795E-006  0.2000259E+02  0.7818608E-02  0.1745277E+00
         -1   -1    0    0    0  501 -0.00000000000E+00  0.00000000000E+00  0.15892204339E+02  0.15892205025E+02  0.46700000000E-02 0.  1.
          1   -1    0    0  501    0  0.00000000000E+00 -0.00000000000E+00 -0.62940203538E+01  0.62940220863E+01  0.46700000000E-02 0. -1.
       1023    2    1    2    0    0  0.00000000000E+00  0.00000000000E+00  0.95981839854E+01  0.22186227112E+02  0.20002588273E+02 0.  0.
        -13    1    3    3    0    0  0.77068302695E+00 -0.99703492685E+01  0.46731388947E+01  0.11038623849E+02  0.10570000000E+00 0. -1.
         13    1    3    3    0    0 -0.77068302695E+00  0.99703492685E+01  0.49250450907E+01  0.11147603263E+02  0.10570000000E+00 0.  1.
<mgrwt>
<rscale>  0 0.20002588E+02</rscale>
<asrwt>0</asrwt>
<pdfrwt beam="2">  1        1 0.96831101E-03 0.20002588E+02</pdfrwt>
<pdfrwt beam="1">  1       -1 0.24449547E-02 0.20002588E+02</pdfrwt>
<totfact> 0.37846114E+06</totfact>
</mgrwt>
</event>
<event>
 5    1  0.2115795E-006  0.2000954E+02  0.7818608E-02  0.1745138E+00
          1   -1    0    0  501    0  0.00000000000E+00  0.00000000000E+00  0.81684798849E+02  0.81684798983E+02  0.46700000000E-02 0.  1.
         -1   -1    0    0    0  501 -0.00000000000E+00 -0.00000000000E+00 -0.12253812301E+01  0.12253901289E+01  0.46700000000E-02 0. -1.
       1023    2    1    2    0    0  0.00000000000E+00  0.00000000000E+00  0.80459417619E+02  0.82910189112E+02  0.20009537099E+02 0.  0.
        -13    1    3    3    0    0  0.83879498298E+01  0.54450843089E+01  0.39075634233E+02  0.40335133676E+02  0.10570000000E+00 0. -1.
         13    1    3    3    0    0 -0.83879498298E+01 -0.54450843089E+01  0.41383783386E+02  0.42575055435E+02  0.10570000000E+00 0.  1.
<mgrwt>
<rscale>  0 0.20009537E+02</rscale>
<asrwt>0</asrwt>
<pdfrwt beam="1">  1        1 0.12566889E-01 0.20009537E+02</pdfrwt>
<pdfrwt beam="2">  1       -1 0.18852094E-03 0.20009537E+02</pdfrwt>
<totfact> 0.43400333E+06</totfact>
</mgrwt>
</event>
<event>
 5    1  0.2115795E-006  0.2000869E+02  0.7818608E-02  0.1745155E+00
          1   -1    0    0  501    0  0.00000000000E+00  0.00000000000E+00  0.38923676605E+01  0.38923704620E+01  0.46700000000E-02 0.  1.
         -1   -1    0    0    0  501 -0.00000000000E+00 -0.00000000000E+00 -0.25713626266E+02  0.25713626690E+02  0.46700000000E-02 0. -1.
       1023    2    1    2    0    0  0.00000000000E+00  0.00000000000E+00 -0.21821258605E+02  0.29605997152E+02  0.20008691617E+02 0.  0.
        -13    1    3    3    0    0 -0.96500491099E+01 -0.26363656880E+01 -0.10846290487E+02  0.14755577308E+02  0.10570000000E+00 0. -1.
         13    1    3    3    0    0  0.96500491099E+01  0.26363656880E+01 -0.10974968118E+02  0.14850419844E+02  0.10570000000E+00 0.  1.
<mgrwt>
<rscale>  0 0.20008692E+02</rscale>
<asrwt>0</asrwt>
<pdfrwt beam="1">  1        1 0.59882606E-03 0.20008692E+02</pdfrwt>
<pdfrwt beam="2">  1       -1 0.39559426E-02 0.20008692E+02</pdfrwt>
<totfact> 0.36831921E+06</totfact>
</mgrwt>
</event>
<event>
 5    1  0.2115795E-006  0.2000154E+02  0.7818608E-02  0.1745297E+00
         -1   -1    0    0    0  501 -0.00000000000E+00  0.00000000000E+00  0.11884253518E+02  0.11884254436E+02  0.46700000000E-02 0. -1.
          1   -1    0    0  501    0  0.00000000000E+00 -0.00000000000E+00 -0.84157910778E+01  0.84157923735E+01  0.46700000000E-02 0.  1.
       1023    2    1    2    0    0  0.00000000000E+00  0.00000000000E+00  0.34684624406E+01  0.20300046809E+02  0.20001541660E+02 0.  0.
        -13    1    3    3    0    0  0.20815524289E+01  0.97811315381E+01  0.17046409980E+01  0.10144967624E+02  0.10570000000E+00 0.  1.
         13    1    3    3    0    0 -0.20815524289E+01 -0.97811315381E+01  0.17638214426E+01  0.10155079185E+02  0.10570000000E+00 0. -1.
<mgrwt>
<rscale>  0 0.20001542E+02</rscale>
<asrwt>0</asrwt>
<pdfrwt beam="2">  1        1 0.12947373E-02 0.20001542E+02</pdfrwt>
<pdfrwt beam="1">  1       -1 0.18283469E-02 0.20001542E+02</pdfrwt>
<totfact> 0.38344983E+06</totfact>
</mgrwt>
</event>
<event>
 5    1  0.2115795E-006  0.2000242E+02  0.7818608E-02  0.1745280E+00
         -1   -1    0    0    0  501 -0.00000000000E+00  0.00000000000E+00  0.29230759516E+02  0.29230759889E+02  0.46700000000E-02 0.  1.
          1   -1    0    0  501    0  0.00000000000E+00 -0.00000000000E+00 -0.34218796259E+01  0.34218828126E+01  0.46700000000E-02 0. -1.
       1023    2    1    2    0    0  0.00000000000E+00  0.00000000000E+00  0.25808879890E+02  0.32652642702E+02  0.20002419709E+02 0.  0.
        -13    1    3    3    0    0  0.98158231754E+01  0.19113891208E+01  0.12747581035E+02  0.16202338959E+02  0.10570000000E+00 0. -1.
         13    1    3    3    0    0 -0.98158231754E+01 -0.19113891208E+01  0.13061298855E+02  0.16450303743E+02  0.10570000000E+00 0.  1.
<mgrwt>
<rscale>  0 0.20002420E+02</rscale>
<asrwt>0</asrwt>
<pdfrwt beam="2">  1        1 0.52644330E-03 0.20002420E+02</pdfrwt>
<pdfrwt beam="1">  1       -1 0.44970401E-02 0.20002420E+02</pdfrwt>
<totfact> 0.36543517E+06</totfact>
</mgrwt>
</event>
<event>
 4    1  0.2115795E-006  0.2052931E+02  0.7818608E-02  0.1735002E+00
          1   -1    0    0  501    0  0.00000000000E+00  0.00000000000E+00  0.12669814654E+02  0.12669815514E+02  0.46700000000E-02 0. -1.
         -1   -1    0    0    0  501 -0.00000000000E+00 -0.00000000000E+00 -0.83160765530E+01  0.83160778643E+01  0.46700000000E-02 0.  1.
        -13    1    1    2    0    0  0.79906159284E+01  0.60863419081E+01  0.43353456457E+01  0.10940744723E+02  0.10570000000E+00 0. -1.
         13    1    1    2    0    0 -0.79906159284E+01 -0.60863419081E+01  0.18392454811E-01  0.10045148655E+02  0.10570000000E+00 0.  1.
<mgrwt>
<rscale>  0 0.20529313E+02</rscale>
<asrwt>0</asrwt>
<pdfrwt beam="1">  1        1 0.19492024E-02 0.20529313E+02</pdfrwt>
<pdfrwt beam="2">  1       -1 0.12793966E-02 0.20529313E+02</pdfrwt>
<totfact> 0.36746872E+06</totfact>
</mgrwt>
</event>
<event>
 5    1  0.2115795E-006  0.2000349E+02  0.7818608E-02  0.1745259E+00
         -1   -1    0    0    0  501 -0.00000000000E+00  0.00000000000E+00  0.32810356264E+01  0.32810389498E+01  0.46700000000E-02 0.  1.
          1   -1    0    0  501    0  0.00000000000E+00 -0.00000000000E+00 -0.30488800405E+02  0.30488800762E+02  0.46700000000E-02 0. -1.
       1023    2    1    2    0    0  0.00000000000E+00  0.00000000000E+00 -0.27207764778E+02  0.33769839712E+02  0.20003489944E+02 0.  0.
        -13    1    3    3    0    0 -0.31197996602E+00 -0.99953131373E+01 -0.13364457033E+02  0.16692019066E+02  0.10570000000E+00 0. -1.
         13    1    3    3    0    0  0.31197996602E+00  0.99953131373E+01 -0.13843307745E+02  0.17077820647E+02  0.10570000000E+00 0.  1.
<mgrwt>
<rscale>  0 0.20003490E+02</rscale>
<asrwt>0</asrwt>
<pdfrwt beam="2">  1        1 0.46905848E-02 0.20003490E+02</pdfrwt>
<pdfrwt beam="1">  1       -1 0.50477502E-03 0.20003490E+02</pdfrwt>
<totfact> 0.40474473E+06</totfact>
</mgrwt>
</event>
<event>
 5    1  0.2115795E-006  0.2000203E+02  0.7818608E-02  0.1745288E+00
         -1   -1    0    0    0  501 -0.00000000000E+00  0.00000000000E+00  0.10044217988E+01  0.10044326552E+01  0.46700000000E-02 0. -1.
          1   -1    0    0  501    0  0.00000000000E+00 -0.00000000000E+00 -0.99579449719E+02  0.99579449828E+02  0.46700000000E-02 0.  1.
       1023    2    1    2    0    0  0.00000000000E+00  0.00000000000E+00 -0.98575027920E+02  0.10058388248E+03  0.20002032047E+02 0.  0.
        -13    1    3    3    0    0  0.89371610192E+01 -0.44872202625E+01 -0.49116520341E+02  0.50124362696E+02  0.10570000000E+00 0.  1.
         13    1    3    3    0    0 -0.89371610192E+01  0.44872202625E+01 -0.49458507579E+02  0.50459519787E+02  0.10570000000E+00 0. -1.
<mgrwt>
<rscale>  0 0.20002032E+02</rscale>
<asrwt>0</asrwt>
<pdfrwt beam="2">  1        1 0.15319908E-01 0.20002032E+02</pdfrwt>
<pdfrwt beam="1">  1       -1 0.15452735E-03 0.20002032E+02</pdfrwt>
<totfact> 0.44330320E+06</totfact>
</mgrwt>
</event>
<event>
 5    1  0.2115795E-006  0.2000176E+02  0.7818608E-02  0.1745293E+00
          1   -1    0    0  501    0  0.00000000000E+00  0.00000000000E+00  0.80972773832E+01  0.80972787299E+01  0.46700000000E-02 0. -1.
         -1   -1    0    0    0  501 -0.00000000000E+00 -0.00000000000E+00 -0.12352006311E+02  0.12352007193E+02  0.46700000000E-02 0.  1.
       1023    2    1    2    0    0  0.00000000000E+00  0.00000000000E+00 -0.42547289274E+01  0.20449285923E+02  0.20001764335E+02 0.  0.
        -13    1    3    3    0    0  0.54956167286E+01 -0.83549161725E+01 -0.21341587767E+01  0.10226056603E+02  0.10570000000E+00 0. -1.
         13    1    3    3    0    0 -0.54956167286E+01  0.83549161725E+01 -0.21205701507E+01  0.10223229320E+02  0.10570000000E+00 0.  1.
<mgrwt>
<rscale>  0 0.20001764E+02</rscale>
<asrwt>0</asrwt>
<pdfrwt beam="1">  1        1 0.12457351E-02 0.20001764E+02</pdfrwt>
<pdfrwt beam="2">  1       -1 0.19003088E-02 0.20001764E+02</pdfrwt>
<totfact> 0.38281383E+06</totfact>
</mgrwt>
</event>
<event>
 5    1  0.2115795E-006  0.2000553E+02  0.7818608E-02  0.1745218E+00
         -1   -1    0    0    0  501 -0.00000000000E+00  0.00000000000E+00  0.79930290415E+02  0.79930290552E+02  0.46700000000E-02 0.  1.
          1   -1    0    0  501    0  0.00000000000E+00 -0.00000000000E+00 -0.12517774580E+01  0.12517861692E+01  0.46700000000E-02 0. -1.
       1023    2    1    2    0    0  0.00000000000E+00  0.00000000000E+00  0.78678512957E+02  0.81182076721E+02  0.20005528725E+02 0.  0.
        -13    1    3    3    0    0 -0.11175948149E+01 -0.99388954905E+01  0.38868449118E+02  0.40134750168E+02  0.10570000000E+00 0.  1.
         13    1    3    3    0    0  0.11175948149E+01  0.99388954905E+01  0.39810063839E+02  0.41047326552E+02  0.10570000000E+00 0. -1.
<mgrwt>
<rscale>  0 0.20005529E+02</rscale>
<asrwt>0</asrwt>
<pdfrwt beam="2">  1        1 0.19258186E-03 0.20005529E+02</pdfrwt>
<pdfrwt beam="1">  1       -1 0.12296967E-01 0.20005529E+02</pdfrwt>
<totfact> 0.32977538E+06</totfact>
</mgrwt>
</event>
<event>
 5    1  0.2115795E-006  0.2000188E+02  0.7818608E-02  0.1745291E+00
          1   -1    0    0  501    0  0.00000000000E+00  0.00000000000E+00  0.50832083937E+01  0.50832105389E+01  0.46700000000E-02 0.  1.
         -1   -1    0    0    0  501 -0.00000000000E+00 -0.00000000000E+00 -0.19676298576E+02  0.19676299130E+02  0.46700000000E-02 0. -1.
       1023    2    1    2    0    0  0.00000000000E+00  0.00000000000E+00 -0.14593090182E+02  0.24759509669E+02  0.20001875861E+02 0.  0.
        -13    1    3    3    0    0 -0.24511842080E+01  0.96951445237E+01 -0.73693123446E+01  0.12422643369E+02  0.10570000000E+00 0. -1.
         13    1    3    3    0    0  0.24511842080E+01 -0.96951445237E+01 -0.72237778375E+01  0.12336866300E+02  0.10570000000E+00 0.  1.
<mgrwt>
<rscale>  0 0.20001876E+02</rscale>
<asrwt>0</asrwt>
<pdfrwt beam="1">  1        1 0.78203228E-03 0.20001876E+02</pdfrwt>
<pdfrwt beam="2">  1       -1 0.30271230E-02 0.20001876E+02</pdfrwt>
<totfact> 0.37442142E+06</totfact>
</mgrwt>
</event>
<event>
 5    1  0.2115795E-006  0.2000473E+02  0.7818608E-02  0.1745234E+00
          1   -1    0    0  501    0  0.00000000000E+00  0.00000000000E+00  0.32772238861E+02  0.32772239194E+02  0.46700000000E-02 0.  1.
         -1   -1    0    0    0  501 -0.00000000000E+00 -0.00000000000E+00 -0.30528030896E+01  0.30528066615E+01  0.46700000000E-02 0. -1.
       1023    2    1    2    0    0  0.00000000000E+00  0.00000000000E+00  0.29719435772E+02  0.35825045855E+02  0.20004725641E+02 0.  0.
        -13    1    3    3    0    0 -0.11166804751E+01  0.99379481795E+01  0.15150142666E+02  0.18153451038E+02  0.10570000000E+00 0. -1.
         13    1    3    3    0    0  0.11166804751E+01 -0.99379481795E+01  0.14569293105E+02  0.17671594817E+02  0.10570000000E+00 0.  1.
<mgrwt>
<rscale>  0 0.20004726E+02</rscale>
<asrwt>0</asrwt>
<pdfrwt beam="1">  1        1 0.50418830E-02 0.20004726E+02</pdfrwt>
<pdfrwt beam="2">  1       -1 0.46966233E-03 0.20004726E+02</pdfrwt>
<totfact> 0.40623025E+06</totfact>
</mgrwt>
</event>
<event>
 5    1  0.2115795E-006  0.2000174E+02  0.7818608E-02  0.1745294E+00
         -1   -1    0    0    0  501 -0.00000000000E+00  0.00000000000E+00  0.17802501476E+01  0.17802562728E+01  0.46700000000E-02 0.  1.
          1   -1    0    0  501    0  0.00000000000E+00 -0.00000000000E+00 -0.56181530636E+02  0.56181530830E+02  0.46700000000E-02 0. -1.
       1023    2    1    2    0    0  0.00000000000E+00  0.00000000000E+00 -0.54401280488E+02  0.57961787103E+02  0.20001736059E+02 0.  0.
        -13    1    3    3    0    0  0.74708640660E+01  0.66477166517E+01 -0.27245746353E+02  0.29023228859E+02  0.10570000000E+00 0. -1.
         13    1    3    3    0    0 -0.74708640660E+01 -0.66477166517E+01 -0.27155534135E+02  0.28938558244E+02  0.10570000000E+00 0.  1.
<mgrwt>
<rscale>  0 0.20001736E+02</rscale>
<asrwt>0</asrwt>
<pdfrwt beam="2">  1        1 0.86433115E-02 0.20001736E+02</pdfrwt>
<pdfrwt beam="1">  1       -1 0.27388517E-03 0.20001736E+02</pdfrwt>
<totfact> 0.42063341E+06</totfact>
</mgrwt>
</event>
<event>
 5    1  0.2115795E-006  0.2000222E+02  0.7818608E-02  0.1745284E+00
          1   -1    0    0  501    0  0.00000000000E+00  0.00000000000E+00  0.68969258205E+01  0.68969274015E+01  0.46700000000E-02 0. -1.
         -1   -1    0    0    0  501 -0.00000000000E+00 -0.00000000000E+00 -0.14502430434E+02  0.14502431186E+02  0.46700000000E-02 0.  1.
       1023    2    1    2    0    0  0.00000000000E+00  0.00000000000E+00 -0.76055046134E+01  0.21399358587E+02  0.20002221065E+02 0.  0.
        -13    1    3    3    0    0  0.10000402661E+02 -0.48767944565E-01 -0.37763789470E+01  0.10690305989E+02  0.10570000000E+00 0. -1.
         13    1    3    3    0    0 -0.10000402661E+02  0.48767944565E-01 -0.38291256664E+01  0.10709052598E+02  0.10570000000E+00 0.  1.
<mgrwt>
<rscale>  0 0.20002221E+02</rscale>
<asrwt>0</asrwt>
<pdfrwt beam="1">  1        1 0.10610657E-02 0.20002221E+02</pdfrwt>
<pdfrwt beam="2">  1       -1 0.22311433E-02 0.20002221E+02</pdfrwt>
<totfact> 0.38009545E+06</totfact>
</mgrwt>
</event>
<event>
 4    1  0.2115795E-006  0.2172196E+02  0.7818608E-02  0.1713105E+00
          1   -1    0    0  501    0  0.00000000000E+00  0.00000000000E+00  0.84275636727E+02  0.84275636857E+02  0.46700000000E-02 0.  1.
         -1   -1    0    0    0  501 -0.00000000000E+00 -0.00000000000E+00 -0.13996997657E+01  0.13997075562E+01  0.46700000000E-02 0. -1.
        -13    1    1    2    0    0 -0.51894309603E+01  0.95249255256E+01  0.43581498273E+02  0.44911163024E+02  0.10570000000E+00 0.  1.
         13    1    1    2    0    0  0.51894309603E+01 -0.95249255256E+01  0.39294438688E+02  0.40764181388E+02  0.10570000000E+00 0. -1.
<mgrwt>
<rscale>  0 0.21721964E+02</rscale>
<asrwt>0</asrwt>
<pdfrwt beam="1">  1        1 0.12965486E-01 0.21721964E+02</pdfrwt>
<pdfrwt beam="2">  1       -1 0.21533899E-03 0.21721964E+02</pdfrwt>
<totfact> 0.36257584E+06</totfact>
</mgrwt>
</event>
<event>
 4    1  0.2115795E-006  0.2266073E+02  0.7818608E-02  0.1697069E+00
          1   -1    0    0  501    0  0.00000000000E+00  0.00000000000E+00  0.16791589604E+01  0.16791654544E+01  0.46700000000E-02 0.  1.
         -1   -1    0    0    0  501 -0.00000000000E+00 -0.00000000000E+00 -0.76453085644E+02  0.76453085786E+02  0.46700000000E-02 0. -1.
        -13    1    1    2    0    0 -0.77521817526E+01  0.81023688080E+01 -0.42969251248E+02  0.44408472475E+02  0.10570000000E+00 0. -1.
         13    1    1    2    0    0  0.77521817526E+01 -0.81023688080E+01 -0.31804675436E+02  0.33723778766E+02  0.10570000000E+00 0.  1.
<mgrwt>
<rscale>  0 0.22660728E+02</rscale>
<asrwt>0</asrwt>
<pdfrwt beam="1">  1        1 0.25833272E-03 0.22660728E+02</pdfrwt>
<pdfrwt beam="2">  1       -1 0.11762011E-01 0.22660728E+02</pdfrwt>
<totfact> 0.25170586E+06</totfact>
</mgrwt>
</event>
<event>
 4    1  0.1167105E-005  0.2062325E+02  0.7818608E-02  0.1733211E+00
          1   -1    0    0  501    0  0.00000000000E+00  0.00000000000E+00  0.61008978044E+02  0.61008978223E+02  0.46700000000E-02 0.  1.
         -1   -1    0    0    0  501 -0.00000000000E+00 -0.00000000000E+00 -0.17428488135E+01  0.17428550701E+01  0.46700000000E-02 0. -1.
        -13    1    1    2    0    0  0.31823880224E+01  0.96288702192E+01  0.23960341073E+02  0.26018298408E+02  0.10570000000E+00 0.  1.
         13    1    1    2    0    0 -0.31823880224E+01 -0.96288702192E+01  0.35305788158E+02  0.36733534885E+02  0.10570000000E+00 0. -1.
<mgrwt>
<rscale>  0 0.20623252E+02</rscale>
<asrwt>0</asrwt>
<pdfrwt beam="1">  1        1 0.93859976E-02 0.20623252E+02</pdfrwt>
<pdfrwt beam="2">  1       -1 0.26813107E-03 0.20623252E+02</pdfrwt>
<totfact> 0.39548296E+06</totfact>
</mgrwt>
</event>
<event>
 5    1  0.2115795E-006  0.2000782E+02  0.7818608E-02  0.1745173E+00
         -1   -1    0    0    0  501 -0.00000000000E+00  0.00000000000E+00  0.56808741941E+02  0.56808742133E+02  0.46700000000E-02 0.  1.
          1   -1    0    0  501    0  0.00000000000E+00 -0.00000000000E+00 -0.17616653652E+01  0.17616715550E+01  0.46700000000E-02 0. -1.
       1023    2    1    2    0    0  0.00000000000E+00  0.00000000000E+00  0.55047076576E+02  0.58570413688E+02  0.20007816473E+02 0.  0.
        -13    1    3    3    0    0  0.88888164107E+01 -0.45875161891E+01  0.27221499551E+02  0.29001337422E+02  0.10570000000E+00 0.  1.
         13    1    3    3    0    0 -0.88888164107E+01  0.45875161891E+01  0.27825577025E+02  0.29569076266E+02  0.10570000000E+00 0. -1.
<mgrwt>
<rscale>  0 0.20007816E+02</rscale>
<asrwt>0</asrwt>
<pdfrwt beam="2">  1        1 0.27102595E-03 0.20007816E+02</pdfrwt>
<pdfrwt beam="1">  1       -1 0.87398063E-02 0.20007816E+02</pdfrwt>
<totfact> 0.34427503E+06</totfact>
</mgrwt>
</event>
<event>
 5    1  0.2115795E-006  0.2000444E+02  0.7818608E-02  0.1745240E+00
         -1   -1    0    0    0  501 -0.00000000000E+00  0.00000000000E+00  0.10912780139E+03  0.10912780149E+03  0.46700000000E-02 0.  1.
          1   -1    0    0  501    0  0.00000000000E+00 -0.00000000000E+00 -0.91675797592E+00  0.91676987042E+00  0.46700000000E-02 0. -1.
       1023    2    1    2    0    0  0.00000000000E+00  0.00000000000E+00  0.10821104342E+03  0.11004457136E+03  0.20004443734E+02 0.  0.
        -13    1    3    3    0    0  0.53364280510E+01 -0.84590664410E+01  0.54102066464E+02  0.55018888008E+02  0.10570000000E+00 0. -1.
         13    1    3    3    0    0 -0.53364280510E+01  0.84590664410E+01  0.54108976951E+02  0.55025683354E+02  0.10570000000E+00 0.  1.
<mgrwt>
<rscale>  0 0.20004444E+02</rscale>
<asrwt>0</asrwt>
<pdfrwt beam="2">  1        1 0.14104063E-03 0.20004444E+02</pdfrwt>
<pdfrwt beam="1">  1       -1 0.16788891E-01 0.20004444E+02</pdfrwt>
<totfact> 0.31371436E+06</totfact>
</mgrwt>
</event>
<event>
 5    1  0.2115795E-006  0.2000943E+02  0.7818608E-02  0.1745141E+00
         -1   -1    0    0    0  501 -0.00000000000E+00  0.00000000000E+00  0.11180313233E+01  0.11180410765E+01  0.46700000000E-02 0.  1.
          1   -1    0    0  501    0  0.00000000000E+00 -0.00000000000E+00 -0.89526861249E+02  0.89526861371E+02  0.46700000000E-02 0. -1.
       1023    2    1    2    0    0  0.00000000000E+00  0.00000000000E+00 -0.88408829926E+02  0.90644902448E+02  0.20009426050E+02 0.  0.
        -13    1    3    3    0    0 -0.99553894082E+01  0.97165272512E+00 -0.44978824435E+02  0.46077757186E+02  0.10570000000E+00 0. -1.
         13    1    3    3    0    0  0.99553894082E+01 -0.97165272512E+00 -0.43430005491E+02  0.44567145261E+02  0.10570000000E+00 0.  1.
<mgrwt>
<rscale>  0 0.20009426E+02</rscale>
<asrwt>0</asrwt>
<pdfrwt beam="2">  1        1 0.13773358E-01 0.20009426E+02</pdfrwt>
<pdfrwt beam="1">  1       -1 0.17200565E-03 0.20009426E+02</pdfrwt>
<totfact> 0.43798528E+06</totfact>
</mgrwt>
</event>
<event>
 4    1  0.2115795E-006  0.2014814E+02  0.7818608E-02  0.1742398E+00
         -1   -1    0    0    0  501 -0.00000000000E+00  0.00000000000E+00  0.95393248932E+00  0.95394392030E+00  0.46700000000E-02 0. -1.
          1   -1    0    0  501    0  0.00000000000E+00 -0.00000000000E+00 -0.10638723528E+03  0.10638723539E+03  0.46700000000E-02 0.  1.
        -13    1    1    2    0    0  0.30802739818E+01 -0.95808191099E+01 -0.50361008919E+02  0.51356816242E+02  0.10570000000E+00 0.  1.
         13    1    1    2    0    0 -0.30802739818E+01  0.95808191099E+01 -0.55072293875E+02  0.55984363065E+02  0.10570000000E+00 0. -1.
<mgrwt>
<rscale>  0 0.20148137E+02</rscale>
<asrwt>0</asrwt>
<pdfrwt beam="2">  1        1 0.16367258E-01 0.20148137E+02</pdfrwt>
<pdfrwt beam="1">  1       -1 0.14675982E-03 0.20148137E+02</pdfrwt>
<totfact> 0.43945920E+06</totfact>
</mgrwt>
</event>
<event>
 5    1  0.2115795E-006  0.2000226E+02  0.7818608E-02  0.1745283E+00
          1   -1    0    0  501    0  0.00000000000E+00  0.00000000000E+00  0.84336487349E+00  0.84337780309E+00  0.46700000000E-02 0. -1.
         -1   -1    0    0    0  501 -0.00000000000E+00 -0.00000000000E+00 -0.11859846378E+03  0.11859846388E+03  0.46700000000E-02 0.  1.
       1023    2    1    2    0    0  0.00000000000E+00  0.00000000000E+00 -0.11775509891E+03  0.11944184168E+03  0.20002255479E+02 0.  0.
        -13    1    3    3    0    0  0.75935756334E+00  0.99714195929E+01 -0.58432650050E+02  0.59282304248E+02  0.10570000000E+00 0. -1.
         13    1    3    3    0    0 -0.75935756334E+00 -0.99714195929E+01 -0.59322448860E+02  0.60159537430E+02  0.10570000000E+00 0.  1.
<mgrwt>
<rscale>  0 0.20002255E+02</rscale>
<asrwt>0</asrwt>
<pdfrwt beam="1">  1        1 0.12974954E-03 0.20002255E+02</pdfrwt>
<pdfrwt beam="2">  1       -1 0.18245905E-01 0.20002255E+02</pdfrwt>
<totfact> 0.30898492E+06</totfact>
</mgrwt>
</event>
<event>
 5    1  0.2115795E-006  0.2000955E+02  0.7818608E-02  0.1745138E+00
         -1   -1    0    0    0  501 -0.00000000000E+00  0.00000000000E+00  0.50452567863E+01  0.50452589476E+01  0.46700000000E-02 0. -1.
          1   -1    0    0  501    0  0.00000000000E+00 -0.00000000000E+00 -0.19839531430E+02  0.19839531980E+02  0.46700000000E-02 0.  1.
       1023    2    1    2    0    0  0.00000000000E+00  0.00000000000E+00 -0.14794274644E+02  0.24884790927E+02  0.20009554149E+02 0.  0.
        -13    1    3    3    0    0  0.97929507668E+01  0.20438526132E+01 -0.73076847165E+01  0.12389214932E+02  0.10570000000E+00 0.  1.
         13    1    3    3    0    0 -0.97929507668E+01 -0.20438526132E+01 -0.74865899274E+01  0.12495575995E+02  0.10570000000E+00 0. -1.
<mgrwt>
<rscale>  0 0.20009554E+02</rscale>
<asrwt>0</asrwt>
<pdfrwt beam="2">  1        1 0.30522358E-02 0.20009554E+02</pdfrwt>
<pdfrwt beam="1">  1       -1 0.77619357E-03 0.20009554E+02</pdfrwt>
<totfact> 0.39649921E+06</totfact>
</mgrwt>
</event>
<event>
 5    1  0.2115795E-006  0.2000128E+02  0.7818608E-02  0.1745303E+00
          1   -1    0    0  501    0  0.00000000000E+00  0.00000000000E+00  0.13154945225E+01  0.13155028118E+01  0.46700000000E-02 0.  1.
         -1   -1    0    0    0  501 -0.00000000000E+00 -0.00000000000E+00 -0.76026529278E+02  0.76026529422E+02  0.46700000000E-02 0. -1.
       1023    2    1    2    0    0  0.00000000000E+00  0.00000000000E+00 -0.74711034756E+02  0.77342032233E+02  0.20001280852E+02 0.  0.
        -13    1    3    3    0    0  0.99325689346E+01 -0.11600465405E+01 -0.37349017353E+02  0.38664737208E+02  0.10570000000E+00 0.  1.
         13    1    3    3    0    0 -0.99325689346E+01  0.11600465405E+01 -0.37362017402E+02  0.38677295025E+02  0.10570000000E+00 0. -1.
<mgrwt>
<rscale>  0 0.20001281E+02</rscale>
<asrwt>0</asrwt>
<pdfrwt beam="1">  1        1 0.20238448E-03 0.20001281E+02</pdfrwt>
<pdfrwt beam="2">  1       -1 0.11696386E-01 0.20001281E+02</pdfrwt>
<totfact> 0.33226003E+06</totfact>
</mgrwt>
</event>
<event>
 5    1  0.2115795E-006  0.2000846E+02  0.7818608E-02  0.1745160E+00
         -1   -1    0    0    0  501 -0.00000000000E+00  0.00000000000E+00  0.90407838046E+01  0.90407850108E+01  0.46700000000E-02 0.  1.
          1   -1    0    0  501    0  0.00000000000E+00 -0.00000000000E+00 -0.11070348460E+02  0.11070349445E+02  0.46700000000E-02 0. -1.
       1023    2    1    2    0    0  0.00000000000E+00  0.00000000000E+00 -0.20295646557E+01  0.20111134456E+02  0.20008463120E+02 0.  0.
        -13    1    3    3    0    0  0.67067799198E+01  0.74221421332E+01 -0.10813481207E+01  0.10062284879E+02  0.10570000000E+00 0. -1.
         13    1    3    3    0    0 -0.67067799198E+01 -0.74221421332E+01 -0.94821653498E+00  0.10048849577E+02  0.10570000000E+00 0.  1.
<mgrwt>
<rscale>  0 0.20008463E+02</rscale>
<asrwt>0</asrwt>
<pdfrwt beam="2">  1        1 0.17031307E-02 0.20008463E+02</pdfrwt>
<pdfrwt beam="1">  1       -1 0.13908900E-02 0.20008463E+02</pdfrwt>
<totfact> 0.38743372E+06</totfact>
</mgrwt>
</event>
<event>
 5    1  0.2115795E-006  0.2000815E+02  0.7818608E-02  0.1745166E+00
          1   -1    0    0  501    0  0.00000000000E+00  0.00000000000E+00  0.11362862132E+03  0.11362862142E+03  0.46700000000E-02 0. -1.
         -1   -1    0    0    0  501 -0.00000000000E+00 -0.00000000000E+00 -0.88077139451E+00  0.88078377499E+00  0.46700000000E-02 0.  1.
       1023    2    1    2    0    0  0.00000000000E+00  0.00000000000E+00  0.11274784993E+03  0.11450940519E+03  0.20008153697E+02 0.  0.
        -13    1    3    3    0    0  0.99834003598E+01 -0.59854581816E+00  0.55175597060E+02  0.56074809168E+02  0.10570000000E+00 0. -1.
         13    1    3    3    0    0 -0.99834003598E+01  0.59854581816E+00  0.57572252867E+02  0.58434596024E+02  0.10570000000E+00 0.  1.
<mgrwt>
<rscale>  0 0.20008154E+02</rscale>
<asrwt>0</asrwt>
<pdfrwt beam="1">  1        1 0.17481323E-01 0.20008154E+02</pdfrwt>
<pdfrwt beam="2">  1       -1 0.13550429E-03 0.20008154E+02</pdfrwt>
<totfact> 0.44966660E+06</totfact>
</mgrwt>
</event>
<event>
 5    1  0.2115795E-006  0.2000851E+02  0.7818608E-02  0.1745159E+00
         -1   -1    0    0    0  501 -0.00000000000E+00  0.00000000000E+00  0.64127015322E+02  0.64127015492E+02  0.46700000000E-02 0. -1.
          1   -1    0    0  501    0  0.00000000000E+00 -0.00000000000E+00 -0.15607291221E+01  0.15607361088E+01  0.46700000000E-02 0.  1.
       1023    2    1    2    0    0  0.00000000000E+00  0.00000000000E+00  0.62566286200E+02  0.65687751601E+02  0.20008511727E+02 0.  0.
        -13    1    3    3    0    0 -0.73134353535E+00 -0.99748243662E+01  0.31955782781E+02  0.33484551814E+02  0.10570000000E+00 0.  1.
         13    1    3    3    0    0  0.73134353535E+00  0.99748243662E+01  0.30610503419E+02  0.32203199787E+02  0.10570000000E+00 0. -1.
<mgrwt>
<rscale>  0 0.20008512E+02</rscale>
<asrwt>0</asrwt>
<pdfrwt beam="2">  1        1 0.24011277E-03 0.20008512E+02</pdfrwt>
<pdfrwt beam="1">  1       -1 0.98656934E-02 0.20008512E+02</pdfrwt>
<totfact> 0.33941380E+06</totfact>
</mgrwt>
</event>
<event>
 5    1  0.2115795E-006  0.2000165E+02  0.7818608E-02  0.1745295E+00
         -1   -1    0    0    0  501 -0.00000000000E+00  0.00000000000E+00  0.68304814218E+01  0.68304830182E+01  0.46700000000E-02 0.  1.
          1   -1    0    0  501    0  0.00000000000E+00 -0.00000000000E+00 -0.14642672791E+02  0.14642673536E+02  0.46700000000E-02 0. -1.
       1023    2    1    2    0    0  0.00000000000E+00  0.00000000000E+00 -0.78121913697E+01  0.21473156554E+02  0.20001652892E+02 0.  0.
        -13    1    3    3    0    0 -0.66064505071E+01  0.75071697138E+01 -0.38516529329E+01  0.10716771352E+02  0.10570000000E+00 0. -1.
         13    1    3    3    0    0  0.66064505071E+01 -0.75071697138E+01 -0.39605384368E+01  0.10756385202E+02  0.10570000000E+00 0.  1.
<mgrwt>
<rscale>  0 0.20001653E+02</rscale>
<asrwt>0</asrwt>
<pdfrwt beam="2">  1        1 0.22527191E-02 0.20001653E+02</pdfrwt>
<pdfrwt beam="1">  1       -1 0.10508435E-02 0.20001653E+02</pdfrwt>
<totfact> 0.39200137E+06</totfact>
</mgrwt>
</event>
<event>
 5    1  0.2115795E-006  0.2000762E+02  0.7818608E-02  0.1745177E+00
         -1   -1    0    0    0  501 -0.00000000000E+00  0.00000000000E+00  0.16112095766E+02  0.16112096443E+02  0.46700000000E-02 0.  1.
          1   -1    0    0  501    0  0.00000000000E+00 -0.00000000000E+00 -0.62112478429E+01  0.62112495985E+01  0.46700000000E-02 0. -1.
       1023    2    1    2    0    0  0.00000000000E+00  0.00000000000E+00  0.99008479231E+01  0.22323346041E+02  0.20007623269E+02 0.  0.
        -13    1    3    3    0    0 -0.87361594700E+01  0.48727016255E+01  0.49917413013E+01  0.11179998083E+02  0.10570000000E+00 0.  1.
         13    1    3    3    0    0  0.87361594700E+01 -0.48727016255E+01  0.49091066218E+01  0.11143347959E+02  0.10570000000E+00 0. -1.
<mgrwt>
<rscale>  0 0.20007623E+02</rscale>
<asrwt>0</asrwt>
<pdfrwt beam="2">  1        1 0.95557679E-03 0.20007623E+02</pdfrwt>
<pdfrwt beam="1">  1       -1 0.24787841E-02 0.20007623E+02</pdfrwt>
<totfact> 0.37800342E+06</totfact>
</mgrwt>
</event>
<event>
 5    1  0.2115795E-006  0.2001026E+02  0.7818608E-02  0.1745124E+00
         -1   -1    0    0    0  501 -0.00000000000E+00  0.00000000000E+00  0.54812738468E+01  0.54812758362E+01  0.46700000000E-02 0. -1.
          1   -1    0    0  501    0  0.00000000000E+00 -0.00000000000E+00 -0.18262660572E+02  0.18262661169E+02  0.46700000000E-02 0.  1.
       1023    2    1    2    0    0  0.00000000000E+00  0.00000000000E+00 -0.12781386725E+02  0.23743937005E+02  0.20010264813E+02 0.  0.
        -13    1    3    3    0    0 -0.82820163026E+01  0.56110934484E+01 -0.65376495765E+01  0.11951075190E+02  0.10570000000E+00 0. -1.
         13    1    3    3    0    0  0.82820163026E+01 -0.56110934484E+01 -0.62437371488E+01  0.11792861815E+02  0.10570000000E+00 0.  1.
<mgrwt>
<rscale>  0 0.20010265E+02</rscale>
<asrwt>0</asrwt>
<pdfrwt beam="2">  1        1 0.28096402E-02 0.20010265E+02</pdfrwt>
<pdfrwt beam="1">  1       -1 0.84327311E-03 0.20010265E+02</pdfrwt>
<totfact> 0.39510428E+06</totfact>
</mgrwt>
</event>
<event>
 5    1  0.2115795E-006  0.2001153E+02  0.7818608E-02  0.1745099E+00
         -1   -1    0    0    0  501 -0.00000000000E+00  0.00000000000E+00  0.29622244574E+02  0.29622244942E+02  0.46700000000E-02 0. -1.
          1   -1    0    0  501    0  0.00000000000E+00 -0.00000000000E+00 -0.33797313988E+01  0.33797346252E+01  0.46700000000E-02 0.  1.
       1023    2    1    2    0    0  0.00000000000E+00  0.00000000000E+00  0.26242513175E+02  0.33001979567E+02  0.20011525619E+02 0.  0.
        -13    1    3    3    0    0 -0.51889827441E+01 -0.85539170122E+01  0.12964121696E+02  0.16376039265E+02  0.10570000000E+00 0. -1.
         13    1    3    3    0    0  0.51889827441E+01  0.85539170122E+01  0.13278391479E+02  0.16625940302E+02  0.10570000000E+00 0.  1.
<mgrwt>
<rscale>  0 0.20011526E+02</rscale>
<asrwt>0</asrwt>
<pdfrwt beam="2">  1        1 0.51995893E-03 0.20011526E+02</pdfrwt>
<pdfrwt beam="1">  1       -1 0.45572688E-02 0.20011526E+02</pdfrwt>
<totfact> 0.36472946E+06</totfact>
</mgrwt>
</event>
<event>
 5    1  0.2115795E-006  0.2000206E+02  0.7818608E-02  0.1745287E+00
          1   -1    0    0  501    0  0.00000000000E+00  0.00000000000E+00  0.38396437344E+01  0.38396465744E+01  0.46700000000E-02 0. -1.
         -1   -1    0    0    0  501 -0.00000000000E+00 -0.00000000000E+00 -0.26049442039E+02  0.26049442458E+02  0.46700000000E-02 0.  1.
       1023    2    1    2    0    0  0.00000000000E+00  0.00000000000E+00 -0.22209798305E+02  0.29889089032E+02  0.20002062455E+02 0.  0.
        -13    1    3    3    0    0  0.81214024526E+01 -0.58346404245E+01 -0.10961209604E+02  0.14837772580E+02  0.10570000000E+00 0. -1.
         13    1    3    3    0    0 -0.81214024526E+01  0.58346404245E+01 -0.11248588701E+02  0.15051316452E+02  0.10570000000E+00 0.  1.
<mgrwt>
<rscale>  0 0.20002062E+02</rscale>
<asrwt>0</asrwt>
<pdfrwt beam="1">  1        1 0.59071469E-03 0.20002062E+02</pdfrwt>
<pdfrwt beam="2">  1       -1 0.40076066E-02 0.20002062E+02</pdfrwt>
<totfact> 0.36828145E+06</totfact>
</mgrwt>
</event>
<event>
 5    1  0.2115795E-006  0.2000134E+02  0.7818608E-02  0.1745301E+00
          1   -1    0    0  501    0  0.00000000000E+00  0.00000000000E+00  0.72029274993E+01  0.72029290131E+01  0.46700000000E-02 0.  1.
         -1   -1    0    0    0  501 -0.00000000000E+00 -0.00000000000E+00 -0.13885106326E+02  0.13885107111E+02  0.46700000000E-02 0. -1.
       1023    2    1    2    0    0  0.00000000000E+00  0.00000000000E+00 -0.66821788268E+01  0.21088036125E+02  0.20001343798E+02 0.  0.
        -13    1    3    3    0    0  0.55690548961E+01 -0.83057849160E+01 -0.32959813964E+01  0.10529724657E+02  0.10570000000E+00 0. -1.
         13    1    3    3    0    0 -0.55690548961E+01  0.83057849160E+01 -0.33861974304E+01  0.10558311467E+02  0.10570000000E+00 0.  1.
<mgrwt>
<rscale>  0 0.20001344E+02</rscale>
<asrwt>0</asrwt>
<pdfrwt beam="1">  1        1 0.11081429E-02 0.20001344E+02</pdfrwt>
<pdfrwt beam="2">  1       -1 0.21361704E-02 0.20001344E+02</pdfrwt>
<totfact> 0.38088020E+06</totfact>
</mgrwt>
</event>
<event>
 5    1  0.2115795E-006  0.2000828E+02  0.7818608E-02  0.1745163E+00
         -1   -1    0    0    0  501 -0.00000000000E+00  0.00000000000E+00  0.10860957144E+01  0.10861057544E+01  0.46700000000E-02 0.  1.
          1   -1    0    0  501    0  0.00000000000E+00 -0.00000000000E+00 -0.92148724779E+02  0.92148724898E+02  0.46700000000E-02 0. -1.
       1023    2    1    2    0    0  0.00000000000E+00  0.00000000000E+00 -0.91062629065E+02  0.93234830652E+02  0.20008279149E+02 0.  0.
        -13    1    3    3    0    0  0.60879120583E+01 -0.79359615705E+01 -0.46331349602E+02  0.47398811037E+02  0.10570000000E+00 0.  1.
         13    1    3    3    0    0 -0.60879120583E+01  0.79359615705E+01 -0.44731279463E+02  0.45836019615E+02  0.10570000000E+00 0. -1.
<mgrwt>
<rscale>  0 0.20008279E+02</rscale>
<asrwt>0</asrwt>
<pdfrwt beam="2">  1        1 0.14176722E-01 0.20008279E+02</pdfrwt>
<pdfrwt beam="1">  1       -1 0.16709250E-03 0.20008279E+02</pdfrwt>
<totfact> 0.43934902E+06</totfact>
</mgrwt>
</event>
<event>
 5    1  0.2115795E-006  0.2000179E+02  0.7818608E-02  0.1745293E+00
         -1   -1    0    0    0  501 -0.00000000000E+00  0.00000000000E+00  0.55939785082E+01  0.55939804575E+01  0.46700000000E-02 0. -1.
          1   -1    0    0  501    0  0.00000000000E+00 -0.00000000000E+00 -0.17879551720E+02  0.17879552330E+02  0.46700000000E-02 0.  1.
       1023    2    1    2    0    0  0.00000000000E+00  0.00000000000E+00 -0.12285573212E+02  0.23473532788E+02  0.20001785730E+02 0.  0.
        -13    1    3    3    0    0  0.21010946338E+01  0.97770408092E+01 -0.61891384029E+01  0.11761025989E+02  0.10570000000E+00 0.  1.
         13    1    3    3    0    0 -0.21010946338E+01 -0.97770408092E+01 -0.60964348093E+01  0.11712506799E+02  0.10570000000E+00 0. -1.
<mgrwt>
<rscale>  0 0.20001786E+02</rscale>
<asrwt>0</asrwt>
<pdfrwt beam="2">  1        1 0.27507004E-02 0.20001786E+02</pdfrwt>
<pdfrwt beam="1">  1       -1 0.86061228E-03 0.20001786E+02</pdfrwt>
<totfact> 0.39513702E+06</totfact>
</mgrwt>
</event>
<event>
 5    1  0.2115795E-006  0.2000171E+02  0.7818608E-02  0.1745294E+00
         -1   -1    0    0    0  501 -0.00000000000E+00  0.00000000000E+00  0.17855005936E+01  0.17855067008E+01  0.46700000000E-02 0. -1.
          1   -1    0    0  501    0  0.00000000000E+00 -0.00000000000E+00 -0.56016184893E+02  0.56016185088E+02  0.46700000000E-02 0.  1.
       1023    2    1    2    0    0  0.00000000000E+00  0.00000000000E+00 -0.54230684299E+02  0.57801691788E+02  0.20001711277E+02 0.  0.
        -13    1    3    3    0    0 -0.96879859826E+01 -0.24796551668E+01 -0.27076692922E+02  0.28864584429E+02  0.10570000000E+00 0. -1.
         13    1    3    3    0    0  0.96879859826E+01  0.24796551668E+01 -0.27153991377E+02  0.28937107360E+02  0.10570000000E+00 0.  1.
<mgrwt>
<rscale>  0 0.20001711E+02</rscale>
<asrwt>0</asrwt>
<pdfrwt beam="2">  1        1 0.86178737E-02 0.20001711E+02</pdfrwt>
<pdfrwt beam="1">  1       -1 0.27469293E-03 0.20001711E+02</pdfrwt>
<totfact> 0.42054061E+06</totfact>
</mgrwt>
</event>
<event>
 5    1  0.2115795E-006  0.2000270E+02  0.7818608E-02  0.1745274E+00
          1   -1    0    0  501    0  0.00000000000E+00  0.00000000000E+00  0.12292693715E+02  0.12292694602E+02  0.46700000000E-02 0.  1.
         -1   -1    0    0    0  501 -0.00000000000E+00 -0.00000000000E+00 -0.81371107008E+01  0.81371120409E+01  0.46700000000E-02 0. -1.
       1023    2    1    2    0    0  0.00000000000E+00  0.00000000000E+00  0.41555830141E+01  0.20429806643E+02  0.20002703049E+02 0.  0.
        -13    1    3    3    0    0  0.99896731008E+01 -0.46441698894E+00  0.19947659997E+01  0.10198015282E+02  0.10570000000E+00 0.  1.
         13    1    3    3    0    0 -0.99896731008E+01  0.46441698894E+00  0.21608170143E+01  0.10231791361E+02  0.10570000000E+00 0. -1.
<mgrwt>
<rscale>  0 0.20002703E+02</rscale>
<asrwt>0</asrwt>
<pdfrwt beam="1">  1        1 0.18911838E-02 0.20002703E+02</pdfrwt>
<pdfrwt beam="2">  1       -1 0.12518634E-02 0.20002703E+02</pdfrwt>
<totfact> 0.38928260E+06</totfact>
</mgrwt>
</event>
<event>
 5    1  0.2115795E-006  0.2000164E+02  0.7818608E-02  0.1745295E+00
         -1   -1    0    0    0  501 -0.00000000000E+00  0.00000000000E+00  0.19801424430E+01  0.19801479499E+01  0.46700000000E-02 0. -1.
          1   -1    0    0  501    0  0.00000000000E+00 -0.00000000000E+00 -0.50509620856E+02  0.50509621072E+02  0.46700000000E-02 0.  1.
       1023    2    1    2    0    0  0.00000000000E+00  0.00000000000E+00 -0.48529478413E+02  0.52489769021E+02  0.20001639356E+02 0.  0.
        -13    1    3    3    0    0 -0.74768321125E+01 -0.66408763306E+01 -0.24346255042E+02  0.26320250074E+02  0.10570000000E+00 0.  1.
         13    1    3    3    0    0  0.74768321125E+01  0.66408763306E+01 -0.24183223370E+02  0.26169518948E+02  0.10570000000E+00 0. -1.
<mgrwt>
<rscale>  0 0.20001639E+02</rscale>
<asrwt>0</asrwt>
<pdfrwt beam="2">  1        1 0.77707104E-02 0.20001639E+02</pdfrwt>
<pdfrwt beam="1">  1       -1 0.30463778E-03 0.20001639E+02</pdfrwt>
<totfact> 0.41737064E+06</totfact>
</mgrwt>
</event>
<event>
 5    1  0.2115795E-006  0.2000267E+02  0.7818608E-02  0.1745275E+00
         -1   -1    0    0    0  501 -0.00000000000E+00  0.00000000000E+00  0.35314933940E+02  0.35314934249E+02  0.46700000000E-02 0. -1.
          1   -1    0    0  501    0  0.00000000000E+00 -0.00000000000E+00 -0.28324177087E+01  0.28324215586E+01  0.46700000000E-02 0.  1.
       1023    2    1    2    0    0  0.00000000000E+00  0.00000000000E+00  0.32482516231E+02  0.38147355807E+02  0.20002672181E+02 0.  0.
        -13    1    3    3    0    0  0.99870377734E+01 -0.52191518632E+00  0.16331360953E+02  0.19150400571E+02  0.10570000000E+00 0. -1.
         13    1    3    3    0    0 -0.99870377734E+01  0.52191518632E+00  0.16151155278E+02  0.18996955236E+02  0.10570000000E+00 0.  1.
<mgrwt>
<rscale>  0 0.20002672E+02</rscale>
<asrwt>0</asrwt>
<pdfrwt beam="2">  1        1 0.43575690E-03 0.20002672E+02</pdfrwt>
<pdfrwt beam="1">  1       -1 0.54330669E-02 0.20002672E+02</pdfrwt>
<totfact> 0.36031521E+06</totfact>
</mgrwt>
</event>
<event>
 5    1  0.2115795E-006  0.2000150E+02  0.7818608E-02  0.1745298E+00
          1   -1    0    0  501    0  0.00000000000E+00  0.00000000000E+00  0.68780209609E+01  0.68780225463E+01  0.46700000000E-02 0. -1.
         -1   -1    0    0    0  501 -0.00000000000E+00 -0.00000000000E+00 -0.14541247965E+02  0.14541248715E+02  0.46700000000E-02 0.  1.
       1023    2    1    2    0    0  0.00000000000E+00  0.00000000000E+00 -0.76632270042E+01  0.21419271261E+02  0.20001503275E+02 0.  0.
        -13    1    3    3    0    0 -0.81962392056E+01  0.57293557690E+01 -0.38289518131E+01  0.10708683351E+02  0.10570000000E+00 0. -1.
         13    1    3    3    0    0  0.81962392056E+01 -0.57293557690E+01 -0.38342751911E+01  0.10710587910E+02  0.10570000000E+00 0.  1.
<mgrwt>
<rscale>  0 0.20001503E+02</rscale>
<asrwt>0</asrwt>
<pdfrwt beam="1">  1        1 0.10581573E-02 0.20001503E+02</pdfrwt>
<pdfrwt beam="2">  1       -1 0.22371152E-02 0.20001503E+02</pdfrwt>
<totfact> 0.38007896E+06</totfact>
</mgrwt>
</event>
<event>
 4    1  0.2115795E-006  0.2002959E+02  0.7818608E-02  0.1744740E+00
          1   -1    0    0  501    0  0.00000000000E+00  0.00000000000E+00  0.63071088497E+01  0.63071105786E+01  0.46700000000E-02 0.  1.
         -1   -1    0    0    0  501 -0.00000000000E+00 -0.00000000000E+00 -0.15902070636E+02  0.15902071321E+02  0.46700000000E-02 0. -1.
        -13    1    1    2    0    0 -0.99546377807E+01 -0.10092721961E+01 -0.43382893366E+01  0.10906207891E+02  0.10570000000E+00 0.  1.
         13    1    1    2    0    0  0.99546377807E+01  0.10092721961E+01 -0.52566724492E+01  0.11302974009E+02  0.10570000000E+00 0. -1.
<mgrwt>
<rscale>  0 0.20029590E+02</rscale>
<asrwt>0</asrwt>
<pdfrwt beam="1">  1        1 0.97032463E-03 0.20029590E+02</pdfrwt>
<pdfrwt beam="2">  1       -1 0.24464726E-02 0.20029590E+02</pdfrwt>
<totfact> 0.37733103E+06</totfact>
</mgrwt>
</event>
<event>
 5    1  0.2115795E-006  0.2000782E+02  0.7818608E-02  0.1745173E+00
          1   -1    0    0  501    0  0.00000000000E+00  0.00000000000E+00  0.74958398330E+02  0.74958398475E+02  0.46700000000E-02 0.  1.
         -1   -1    0    0    0  501 -0.00000000000E+00 -0.00000000000E+00 -0.13351123142E+01  0.13351204817E+01  0.46700000000E-02 0. -1.
       1023    2    1    2    0    0  0.00000000000E+00  0.00000000000E+00  0.73623286015E+02  0.76293518957E+02  0.20007818249E+02 0.  0.
        -13    1    3    3    0    0  0.54226138031E+01  0.84056825004E+01  0.36497511245E+02  0.37843622162E+02  0.10570000000E+00 0. -1.
         13    1    3    3    0    0 -0.54226138031E+01 -0.84056825004E+01  0.37125774770E+02  0.38449896795E+02  0.10570000000E+00 0.  1.
<mgrwt>
<rscale>  0 0.20007818E+02</rscale>
<asrwt>0</asrwt>
<pdfrwt beam="1">  1        1 0.11532063E-01 0.20007818E+02</pdfrwt>
<pdfrwt beam="2">  1       -1 0.20540251E-03 0.20007818E+02</pdfrwt>
<totfact> 0.43059669E+06</totfact>
</mgrwt>
</event>
<event>
 5    1  0.2115795E-006  0.2001086E+02  0.7818608E-02  0.1745112E+00
         -1   -1    0    0    0  501 -0.00000000000E+00  0.00000000000E+00  0.95336014491E+02  0.95336014606E+02  0.46700000000E-02 0. -1.
          1   -1    0    0  501    0  0.00000000000E+00 -0.00000000000E+00 -0.10500557521E+01  0.10500661367E+01  0.46700000000E-02 0.  1.
       1023    2    1    2    0    0  0.00000000000E+00  0.00000000000E+00  0.94285958739E+02  0.96386080742E+02  0.20010860689E+02 0.  0.
        -13    1    3    3    0    0  0.26469426954E+01 -0.96447542753E+01  0.48416200817E+02  0.49438520050E+02  0.10570000000E+00 0. -1.
         13    1    3    3    0    0 -0.26469426954E+01  0.96447542753E+01  0.45869757922E+02  0.46947560692E+02  0.10570000000E+00 0.  1.
<mgrwt>
<rscale>  0 0.20010861E+02</rscale>
<asrwt>0</asrwt>
<pdfrwt beam="2">  1        1 0.16154772E-03 0.20010861E+02</pdfrwt>
<pdfrwt beam="1">  1       -1 0.14667092E-01 0.20010861E+02</pdfrwt>
<totfact> 0.32082703E+06</totfact>
</mgrwt>
</event>
<event>
 5    1  0.2115795E-006  0.2000502E+02  0.7818608E-02  0.1745228E+00
         -1   -1    0    0    0  501 -0.00000000000E+00  0.00000000000E+00  0.36262440418E+01  0.36262470489E+01  0.46700000000E-02 0. -1.
          1   -1    0    0  501    0  0.00000000000E+00 -0.00000000000E+00 -0.27590572268E+02  0.27590572663E+02  0.46700000000E-02 0.  1.
       1023    2    1    2    0    0  0.00000000000E+00  0.00000000000E+00 -0.23964328226E+02  0.31216819712E+02  0.20005019510E+02 0.  0.
        -13    1    3    3    0    0 -0.44281924295E+01  0.89674695084E+01 -0.12170916148E+02  0.15753309809E+02  0.10570000000E+00 0.  1.
         13    1    3    3    0    0  0.44281924295E+01 -0.89674695084E+01 -0.11793412078E+02  0.15463509903E+02  0.10570000000E+00 0. -1.
<mgrwt>
<rscale>  0 0.20005020E+02</rscale>
<asrwt>0</asrwt>
<pdfrwt beam="2">  1        1 0.42447036E-02 0.20005020E+02</pdfrwt>
<pdfrwt beam="1">  1       -1 0.55788398E-03 0.20005020E+02</pdfrwt>
<totfact> 0.40265406E+06</totfact>
</mgrwt>
</event>
<event>
 5    1  0.2115795E-006  0.2000833E+02  0.7818608E-02  0.1745162E+00
         -1   -1    0    0    0  501 -0.00000000000E+00  0.00000000000E+00  0.90072379289E+01  0.90072391395E+01  0.46700000000E-02 0. -1.
          1   -1    0    0  501    0  0.00000000000E+00 -0.00000000000E+00 -0.11111434970E+02  0.11111435951E+02  0.46700000000E-02 0.  1.
       1023    2    1    2    0    0  0.00000000000E+00  0.00000000000E+00 -0.21041970407E+01  0.20118675091E+02  0.20008334319E+02 0.  0.
        -13    1    3    3    0    0 -0.90205452645E+01  0.43224963130E+01 -0.11869155798E+01  0.10073437960E+02  0.10570000000E+00 0. -1.
         13    1    3    3    0    0  0.90205452645E+01 -0.43224963130E+01 -0.91728146092E+00  0.10045237131E+02  0.10570000000E+00 0.  1.
<mgrwt>
<rscale>  0 0.20008334E+02</rscale>
<asrwt>0</asrwt>
<pdfrwt beam="2">  1        1 0.17094517E-02 0.20008334E+02</pdfrwt>
<pdfrwt beam="1">  1       -1 0.13857291E-02 0.20008334E+02</pdfrwt>
<totfact> 0.38749603E+06</totfact>
</mgrwt>
</event>
<event>
 5    1  0.2115795E-006  0.2000328E+02  0.7818608E-02  0.1745263E+00
         -1   -1    0    0    0  501 -0.00000000000E+00  0.00000000000E+00  0.92490629689E+01  0.92490641479E+01  0.46700000000E-02 0. -1.
          1   -1    0    0  501    0  0.00000000000E+00 -0.00000000000E+00 -0.10815447865E+02  0.10815448873E+02  0.46700000000E-02 0.  1.
       1023    2    1    2    0    0  0.00000000000E+00  0.00000000000E+00 -0.15663848960E+01  0.20064513021E+02  0.20003277760E+02 0.  0.
        -13    1    3    3    0    0  0.23019653200E+01  0.97325380313E+01 -0.76680454907E+00  0.10030977149E+02  0.10570000000E+00 0. -1.
         13    1    3    3    0    0 -0.23019653200E+01 -0.97325380313E+01 -0.79958034694E+00  0.10033535872E+02  0.10570000000E+00 0.  1.
<mgrwt>
<rscale>  0 0.20003278E+02</rscale>
<asrwt>0</asrwt>
<pdfrwt beam="2">  1        1 0.16639152E-02 0.20003278E+02</pdfrwt>
<pdfrwt beam="1">  1       -1 0.14229329E-02 0.20003278E+02</pdfrwt>
<totfact> 0.38730406E+06</totfact>
</mgrwt>
</event>
<event>
 5    1  0.2115795E-006  0.2000454E+02  0.7818608E-02  0.1745238E+00
          1   -1    0    0  501    0  0.00000000000E+00  0.00000000000E+00  0.12923428998E+02  0.12923429842E+02  0.46700000000E-02 0. -1.
         -1   -1    0    0    0  501 -0.00000000000E+00 -0.00000000000E+00 -0.77413939052E+01  0.77413953138E+01  0.46700000000E-02 0.  1.
       1023    2    1    2    0    0  0.00000000000E+00  0.00000000000E+00  0.51820350930E+01  0.20664825156E+02  0.20004537261E+02 0.  0.
        -13    1    3    3    0    0  0.72165627257E+01  0.69249856453E+01  0.25922831704E+01  0.10332729953E+02  0.10570000000E+00 0.  1.
         13    1    3    3    0    0 -0.72165627257E+01 -0.69249856453E+01  0.25897519226E+01  0.10332095202E+02  0.10570000000E+00 0. -1.
<mgrwt>
<rscale>  0 0.20004537E+02</rscale>
<asrwt>0</asrwt>
<pdfrwt beam="1">  1        1 0.19882200E-02 0.20004537E+02</pdfrwt>
<pdfrwt beam="2">  1       -1 0.11909839E-02 0.20004537E+02</pdfrwt>
<totfact> 0.38996411E+06</totfact>
</mgrwt>
</event>
<event>
 5    1  0.2115795E-006  0.2000203E+02  0.7818608E-02  0.1745288E+00
         -1   -1    0    0    0  501 -0.00000000000E+00  0.00000000000E+00  0.12815552476E+01  0.12815637563E+01  0.46700000000E-02 0.  1.
          1   -1    0    0  501    0  0.00000000000E+00 -0.00000000000E+00 -0.78045779899E+02  0.78045780039E+02  0.46700000000E-02 0. -1.
       1023    2    1    2    0    0  0.00000000000E+00  0.00000000000E+00 -0.76764224652E+02  0.79327343795E+02  0.20002032078E+02 0.  0.
        -13    1    3    3    0    0 -0.23517202219E+01 -0.97196753243E+01 -0.38701191604E+02  0.39972441513E+02  0.10570000000E+00 0.  1.
         13    1    3    3    0    0  0.23517202219E+01  0.97196753243E+01 -0.38063033047E+02  0.39354902282E+02  0.10570000000E+00 0. -1.
<mgrwt>
<rscale>  0 0.20002032E+02</rscale>
<asrwt>0</asrwt>
<pdfrwt beam="2">  1        1 0.12007040E-01 0.20002032E+02</pdfrwt>
<pdfrwt beam="1">  1       -1 0.19716307E-03 0.20002032E+02</pdfrwt>
<totfact> 0.43248500E+06</totfact>
</mgrwt>
</event>
<event>
 4    1  0.2115795E-006  0.2090244E+02  0.7818608E-02  0.1727955E+00
          1   -1    0    0  501    0  0.00000000000E+00  0.00000000000E+00  0.47879782083E+01  0.47879804858E+01  0.46700000000E-02 0.  1.
         -1   -1    0    0    0  501 -0.00000000000E+00 -0.00000000000E+00 -0.22812963758E+02  0.22812964236E+02  0.46700000000E-02 0. -1.
        -13    1    1    2    0    0 -0.82763816419E+01  0.63296991853E+01 -0.79452383040E+01  0.13103494536E+02  0.10570000000E+00 0.  1.
         13    1    1    2    0    0  0.82763816419E+01 -0.63296991853E+01 -0.10079747245E+02  0.14497450185E+02  0.10570000000E+00 0. -1.
<mgrwt>
<rscale>  0 0.20902441E+02</rscale>
<asrwt>0</asrwt>
<pdfrwt beam="1">  1        1 0.73661226E-03 0.20902441E+02</pdfrwt>
<pdfrwt beam="2">  1       -1 0.35096869E-02 0.20902441E+02</pdfrwt>
<totfact> 0.33689188E+06</totfact>
</mgrwt>
</event>
<event>
 5    1  0.2115795E-006  0.2000239E+02  0.7818608E-02  0.1745281E+00
         -1   -1    0    0    0  501 -0.00000000000E+00  0.00000000000E+00  0.31175185050E+02  0.31175185400E+02  0.46700000000E-02 0. -1.
          1   -1    0    0  501    0  0.00000000000E+00 -0.00000000000E+00 -0.32084436345E+01  0.32084470331E+01  0.46700000000E-02 0.  1.
       1023    2    1    2    0    0  0.00000000000E+00  0.00000000000E+00  0.27966741415E+02  0.34383632433E+02  0.20002388704E+02 0.  0.
        -13    1    3    3    0    0 -0.42858544540E+01 -0.90352715146E+01  0.14137468427E+02  0.17317155245E+02  0.10570000000E+00 0. -1.
         13    1    3    3    0    0  0.42858544540E+01  0.90352715146E+01  0.13829272988E+02  0.17066477188E+02  0.10570000000E+00 0.  1.
<mgrwt>
<rscale>  0 0.20002389E+02</rscale>
<asrwt>0</asrwt>
<pdfrwt beam="2">  1        1 0.49360699E-03 0.20002389E+02</pdfrwt>
<pdfrwt beam="1">  1       -1 0.47961827E-02 0.20002389E+02</pdfrwt>
<totfact> 0.36376246E+06</totfact>
</mgrwt>
</event>
<event>
 5    1  0.2115795E-006  0.2000299E+02  0.7818608E-02  0.1745269E+00
          1   -1    0    0  501    0  0.00000000000E+00  0.00000000000E+00  0.31893215188E+01  0.31893249379E+01  0.46700000000E-02 0. -1.
         -1   -1    0    0    0  501 -0.00000000000E+00 -0.00000000000E+00 -0.31363986404E+02  0.31363986751E+02  0.46700000000E-02 0.  1.
       1023    2    1    2    0    0  0.00000000000E+00  0.00000000000E+00 -0.28174664885E+02  0.34553311689E+02  0.20002989959E+02 0.  0.
        -13    1    3    3    0    0 -0.11648640527E+01  0.99328414593E+01 -0.14125241924E+02  0.17307567120E+02  0.10570000000E+00 0.  1.
         13    1    3    3    0    0  0.11648640527E+01 -0.99328414593E+01 -0.14049422961E+02  0.17245744569E+02  0.10570000000E+00 0. -1.
<mgrwt>
<rscale>  0 0.20002990E+02</rscale>
<asrwt>0</asrwt>
<pdfrwt beam="1">  1        1 0.49066516E-03 0.20002990E+02</pdfrwt>
<pdfrwt beam="2">  1       -1 0.48252288E-02 0.20002990E+02</pdfrwt>
<totfact> 0.36357804E+06</totfact>
</mgrwt>
</event>
<event>
 5    1  0.2115795E-006  0.2000353E+02  0.7818608E-02  0.1745258E+00
         -1   -1    0    0    0  501 -0.00000000000E+00  0.00000000000E+00  0.81574291528E+02  0.81574291662E+02  0.46700000000E-02 0. -1.
          1   -1    0    0  501    0  0.00000000000E+00 -0.00000000000E+00 -0.12263043875E+01  0.12263132796E+01  0.46700000000E-02 0.  1.
       1023    2    1    2    0    0  0.00000000000E+00  0.00000000000E+00  0.80347987140E+02  0.82800604941E+02  0.20003528217E+02 0.  0.
        -13    1    3    3    0    0 -0.96552534855E+01 -0.26044940588E+01  0.40710565919E+02  0.41920981132E+02  0.10570000000E+00 0.  1.
         13    1    3    3    0    0  0.96552534855E+01  0.26044940588E+01  0.39637421222E+02  0.40879623809E+02  0.10570000000E+00 0. -1.
<mgrwt>
<rscale>  0 0.20003528E+02</rscale>
<asrwt>0</asrwt>
<pdfrwt beam="2">  1        1 0.18866292E-03 0.20003528E+02</pdfrwt>
<pdfrwt beam="1">  1       -1 0.12549891E-01 0.20003528E+02</pdfrwt>
<totfact> 0.32888059E+06</totfact>
</mgrwt>
</event>
<event>
 4    1  0.2115795E-006  0.2005149E+02  0.7818608E-02  0.1744306E+00
         -1   -1    0    0    0  501 -0.00000000000E+00  0.00000000000E+00  0.34926459971E+01  0.34926491192E+01  0.46700000000E-02 0. -1.
          1   -1    0    0  501    0  0.00000000000E+00 -0.00000000000E+00 -0.28779173780E+02  0.28779174159E+02  0.46700000000E-02 0.  1.
        -13    1    1    2    0    0  0.89779818186E+01 -0.44422093139E+01 -0.13300913911E+02  0.16651212103E+02  0.10570000000E+00 0. -1.
         13    1    1    2    0    0 -0.89779818186E+01  0.44422093139E+01 -0.11985613872E+02  0.15620611176E+02  0.10570000000E+00 0.  1.
<mgrwt>
<rscale>  0 0.20051486E+02</rscale>
<asrwt>0</asrwt>
<pdfrwt beam="2">  1        1 0.44275653E-02 0.20051486E+02</pdfrwt>
<pdfrwt beam="1">  1       -1 0.53733044E-03 0.20051486E+02</pdfrwt>
<totfact> 0.40140647E+06</totfact>
</mgrwt>
</event>
<event>
 5    1  0.2115795E-006  0.2000173E+02  0.7818608E-02  0.1745294E+00
          1   -1    0    0  501    0  0.00000000000E+00  0.00000000000E+00  0.23507789786E+02  0.23507790249E+02  0.46700000000E-02 0.  1.
         -1   -1    0    0    0  501 -0.00000000000E+00 -0.00000000000E+00 -0.42546443551E+01  0.42546469181E+01  0.46700000000E-02 0. -1.
       1023    2    1    2    0    0  0.00000000000E+00  0.00000000000E+00  0.19253145430E+02  0.27762437167E+02  0.20001732638E+02 0.  0.
        -13    1    3    3    0    0 -0.34234386702E+01  0.93960567560E+01  0.96521567283E+01  0.13898961000E+02  0.10570000000E+00 0. -1.
         13    1    3    3    0    0  0.34234386702E+01 -0.93960567560E+01  0.96009887022E+01  0.13863476167E+02  0.10570000000E+00 0.  1.
<mgrwt>
<rscale>  0 0.20001733E+02</rscale>
<asrwt>0</asrwt>
<pdfrwt beam="1">  1        1 0.36165832E-02 0.20001733E+02</pdfrwt>
<pdfrwt beam="2">  1       -1 0.65456092E-03 0.20001733E+02</pdfrwt>
<totfact> 0.39978792E+06</totfact>
</mgrwt>
</event>
<event>
 5    1  0.2115795E-006  0.2000139E+02  0.7818608E-02  0.1745300E+00
          1   -1    0    0  501    0  0.00000000000E+00  0.00000000000E+00  0.93240529959E+02  0.93240530076E+02  0.46700000000E-02 0. -1.
         -1   -1    0    0    0  501 -0.00000000000E+00 -0.00000000000E+00 -0.10726393730E+01  0.10726495389E+01  0.46700000000E-02 0.  1.
       1023    2    1    2    0    0  0.00000000000E+00  0.00000000000E+00  0.92167890586E+02  0.94313179615E+02  0.20001394801E+02 0.  0.
        -13    1    3    3    0    0 -0.45726970651E+00  0.99895903728E+01  0.45885867422E+02  0.46963017503E+02  0.10570000000E+00 0.  1.
         13    1    3    3    0    0  0.45726970651E+00 -0.99895903728E+01  0.46282023164E+02  0.47350162112E+02  0.10570000000E+00 0. -1.
<mgrwt>
<rscale>  0 0.20001395E+02</rscale>
<asrwt>0</asrwt>
<pdfrwt beam="1">  1        1 0.14344699E-01 0.20001395E+02</pdfrwt>
<pdfrwt beam="2">  1       -1 0.16502222E-03 0.20001395E+02</pdfrwt>
<totfact> 0.44022495E+06</totfact>
</mgrwt>
</event>
<event>
 5    1  0.2115795E-006  0.2000684E+02  0.7818608E-02  0.1745192E+00
          1   -1    0    0  501    0  0.00000000000E+00  0.00000000000E+00  0.74636774979E+01  0.74636789589E+01  0.46700000000E-02 0. -1.
         -1   -1    0    0    0  501 -0.00000000000E+00 -0.00000000000E+00 -0.13407380865E+02  0.13407381679E+02  0.46700000000E-02 0.  1.
       1023    2    1    2    0    0  0.00000000000E+00  0.00000000000E+00 -0.59437033675E+01  0.20871060638E+02  0.20006837892E+02 0.  0.
        -13    1    3    3    0    0  0.99198438502E+01  0.12815534773E+01 -0.30839008187E+01  0.10467439901E+02  0.10570000000E+00 0. -1.
         13    1    3    3    0    0 -0.99198438502E+01 -0.12815534773E+01 -0.28598025488E+01  0.10403620737E+02  0.10570000000E+00 0.  1.
<mgrwt>
<rscale>  0 0.20006838E+02</rscale>
<asrwt>0</asrwt>
<pdfrwt beam="1">  1        1 0.11482583E-02 0.20006838E+02</pdfrwt>
<pdfrwt beam="2">  1       -1 0.20626742E-02 0.20006838E+02</pdfrwt>
<totfact> 0.38124370E+06</totfact>
</mgrwt>
</event>
<event>
 5    1  0.2115795E-006  0.2000569E+02  0.7818608E-02  0.1745215E+00
         -1   -1    0    0    0  501 -0.00000000000E+00  0.00000000000E+00  0.51896028735E+01  0.51896049747E+01  0.46700000000E-02 0. -1.
          1   -1    0    0  501    0  0.00000000000E+00 -0.00000000000E+00 -0.19280260414E+02  0.19280260980E+02  0.46700000000E-02 0.  1.
       1023    2    1    2    0    0  0.00000000000E+00  0.00000000000E+00 -0.14090657541E+02  0.24469865955E+02  0.20005691938E+02 0.  0.
        -13    1    3    3    0    0  0.47149030995E+00  0.99905905967E+01 -0.69138682378E+01  0.12159233121E+02  0.10570000000E+00 0. -1.
         13    1    3    3    0    0 -0.47149030995E+00 -0.99905905967E+01 -0.71767893031E+01  0.12310632834E+02  0.10570000000E+00 0.  1.
<mgrwt>
<rscale>  0 0.20005692E+02</rscale>
<asrwt>0</asrwt>
<pdfrwt beam="2">  1        1 0.29661941E-02 0.20005692E+02</pdfrwt>
<pdfrwt beam="1">  1       -1 0.79840066E-03 0.20005692E+02</pdfrwt>
<totfact> 0.39619579E+06</totfact>
</mgrwt>
</event>
<event>
 5    1  0.2115795E-006  0.2000304E+02  0.7818608E-02  0.1745268E+00
         -1   -1    0    0    0  501 -0.00000000000E+00  0.00000000000E+00  0.13075871646E+01  0.13075955040E+01  0.46700000000E-02 0. -1.
          1   -1    0    0  501    0  0.00000000000E+00 -0.00000000000E+00 -0.76499740475E+02  0.76499740617E+02  0.46700000000E-02 0.  1.
       1023    2    1    2    0    0  0.00000000000E+00  0.00000000000E+00 -0.75192153310E+02  0.77807336121E+02  0.20003040641E+02 0.  0.
        -13    1    3    3    0    0 -0.17999960743E-01  0.10000006609E+02 -0.38129132739E+02  0.39418807594E+02  0.10570000000E+00 0. -1.
         13    1    3    3    0    0  0.17999960743E-01 -0.10000006609E+02 -0.37063020571E+02  0.38388528527E+02  0.10570000000E+00 0.  1.
<mgrwt>
<rscale>  0 0.20003041E+02</rscale>
<asrwt>0</asrwt>
<pdfrwt beam="2">  1        1 0.11769188E-01 0.20003041E+02</pdfrwt>
<pdfrwt beam="1">  1       -1 0.20116797E-03 0.20003041E+02</pdfrwt>
<totfact> 0.43163154E+06</totfact>
</mgrwt>
</event>
<event>
 5    1  0.2115795E-006  0.2000205E+02  0.7818608E-02  0.1745287E+00
          1   -1    0    0  501    0  0.00000000000E+00  0.00000000000E+00  0.98127339503E+02  0.98127339614E+02  0.46700000000E-02 0.  1.
         -1   -1    0    0    0  501 -0.00000000000E+00 -0.00000000000E+00 -0.10192869421E+01  0.10192976402E+01  0.46700000000E-02 0. -1.
       1023    2    1    2    0    0  0.00000000000E+00  0.00000000000E+00  0.97108052561E+02  0.99146637254E+02  0.20002045062E+02 0.  0.
        -13    1    3    3    0    0  0.68435290599E+01 -0.72916352939E+01  0.48981692049E+02  0.49992191027E+02  0.10570000000E+00 0.  1.
         13    1    3    3    0    0 -0.68435290599E+01  0.72916352939E+01  0.48126360512E+02  0.49154446227E+02  0.10570000000E+00 0. -1.
<mgrwt>
<rscale>  0 0.20002045E+02</rscale>
<asrwt>0</asrwt>
<pdfrwt beam="1">  1        1 0.15096519E-01 0.20002045E+02</pdfrwt>
<pdfrwt beam="2">  1       -1 0.15681416E-03 0.20002045E+02</pdfrwt>
<totfact> 0.44259583E+06</totfact>
</mgrwt>
</event>
<event>
 5    1  0.2115795E-006  0.2000362E+02  0.7818608E-02  0.1745256E+00
          1   -1    0    0  501    0  0.00000000000E+00  0.00000000000E+00  0.92410314587E+00  0.92411494583E+00  0.46700000000E-02 0.  1.
         -1   -1    0    0    0  501 -0.00000000000E+00 -0.00000000000E+00 -0.10825148201E+03  0.10825148211E+03  0.46700000000E-02 0. -1.
       1023    2    1    2    0    0  0.00000000000E+00  0.00000000000E+00 -0.10732737886E+03  0.10917559705E+03  0.20003618143E+02 0.  0.
        -13    1    3    3    0    0 -0.99871068987E+01  0.51826744088E+00 -0.53015454734E+02  0.53950537703E+02  0.10570000000E+00 0. -1.
         13    1    3    3    0    0  0.99871068987E+01 -0.51826744088E+00 -0.54311924128E+02  0.55225059351E+02  0.10570000000E+00 0.  1.
<mgrwt>
<rscale>  0 0.20003618E+02</rscale>
<asrwt>0</asrwt>
<pdfrwt beam="1">  1        1 0.14217072E-03 0.20003618E+02</pdfrwt>
<pdfrwt beam="2">  1       -1 0.16654065E-01 0.20003618E+02</pdfrwt>
<totfact> 0.31419668E+06</totfact>
</mgrwt>
</event>
<event>
 5    1  0.2115795E-006  0.2001230E+02  0.7818608E-02  0.1745084E+00
          1   -1    0    0  501    0  0.00000000000E+00  0.00000000000E+00  0.12120051055E+02  0.12120051955E+02  0.46700000000E-02 0. -1.
         -1   -1    0    0    0  501 -0.00000000000E+00 -0.00000000000E+00 -0.82609400683E+01  0.82609413883E+01  0.46700000000E-02 0.  1.
       1023    2    1    2    0    0  0.00000000000E+00  0.00000000000E+00  0.38591109869E+01  0.20380993343E+02  0.20012300019E+02 0.  0.
        -13    1    3    3    0    0 -0.99966228787E+01  0.29026809660E+00  0.22436874665E+01  0.10249977097E+02  0.10570000000E+00 0. -1.
         13    1    3    3    0    0  0.99966228787E+01 -0.29026809660E+00  0.16154235204E+01  0.10131016246E+02  0.10570000000E+00 0.  1.
<mgrwt>
<rscale>  0 0.20012300E+02</rscale>
<asrwt>0</asrwt>
<pdfrwt beam="1">  1        1 0.18646234E-02 0.20012300E+02</pdfrwt>
<pdfrwt beam="2">  1       -1 0.12709140E-02 0.20012300E+02</pdfrwt>
<totfact> 0.38864608E+06</totfact>
</mgrwt>
</event>
<event>
 5    1  0.2115795E-006  0.2000652E+02  0.7818608E-02  0.1745198E+00
         -1   -1    0    0    0  501 -0.00000000000E+00  0.00000000000E+00  0.95910860307E+00  0.95911997236E+00  0.46700000000E-02 0.  1.
          1   -1    0    0  501    0  0.00000000000E+00 -0.00000000000E+00 -0.10433086260E+03  0.10433086270E+03  0.46700000000E-02 0. -1.
       1023    2    1    2    0    0  0.00000000000E+00  0.00000000000E+00 -0.10337175399E+03  0.10528998267E+03  0.20006522129E+02 0.  0.
        -13    1    3    3    0    0  0.59214805915E+01 -0.80616139735E+01 -0.51804398056E+02  0.52761353117E+02  0.10570000000E+00 0.  1.
         13    1    3    3    0    0 -0.59214805915E+01  0.80616139735E+01 -0.51567355938E+02  0.52528629558E+02  0.10570000000E+00 0. -1.
<mgrwt>
<rscale>  0 0.20006522E+02</rscale>
<asrwt>0</asrwt>
<pdfrwt beam="2">  1        1 0.16050894E-01 0.20006522E+02</pdfrwt>
<pdfrwt beam="1">  1       -1 0.14755613E-03 0.20006522E+02</pdfrwt>
<totfact> 0.44537228E+06</totfact>
</mgrwt>
</event>
<event>
 5    1  0.2115795E-006  0.2000226E+02  0.7818608E-02  0.1745283E+00
         -1   -1    0    0    0  501 -0.00000000000E+00  0.00000000000E+00  0.13398874255E+02  0.13398875069E+02  0.46700000000E-02 0. -1.
          1   -1    0    0  501    0  0.00000000000E+00 -0.00000000000E+00 -0.74649992427E+01  0.74650007034E+01  0.46700000000E-02 0.  1.
       1023    2    1    2    0    0  0.00000000000E+00  0.00000000000E+00  0.59338750124E+01  0.20863875772E+02  0.20002260862E+02 0.  0.
        -13    1    3    3    0    0 -0.91988168859E+01  0.39229653454E+01  0.30290702005E+01  0.10449608987E+02  0.10570000000E+00 0. -1.
         13    1    3    3    0    0  0.91988168859E+01 -0.39229653454E+01  0.29048048119E+01  0.10414266786E+02  0.10570000000E+00 0.  1.
<mgrwt>
<rscale>  0 0.20002261E+02</rscale>
<asrwt>0</asrwt>
<pdfrwt beam="2">  1        1 0.11484616E-02 0.20002261E+02</pdfrwt>
<pdfrwt beam="1">  1       -1 0.20613654E-02 0.20002261E+02</pdfrwt>
<totfact> 0.38144563E+06</totfact>
</mgrwt>
</event>
<event>
 5    1  0.2115795E-006  0.2000375E+02  0.7818608E-02  0.1745254E+00
         -1   -1    0    0    0  501 -0.00000000000E+00  0.00000000000E+00  0.26395133233E+01  0.26395174545E+01  0.46700000000E-02 0. -1.
          1   -1    0    0  501    0  0.00000000000E+00 -0.00000000000E+00 -0.37899940322E+02  0.37899940610E+02  0.46700000000E-02 0.  1.
       1023    2    1    2    0    0  0.00000000000E+00  0.00000000000E+00 -0.35260426999E+02  0.40539458064E+02  0.20003748349E+02 0.  0.
        -13    1    3    3    0    0  0.24094164466E+01 -0.97064258771E+01 -0.17791370261E+02  0.20409900028E+02  0.10570000000E+00 0.  1.
         13    1    3    3    0    0 -0.24094164466E+01  0.97064258771E+01 -0.17469056738E+02  0.20129558036E+02  0.10570000000E+00 0. -1.
<mgrwt>
<rscale>  0 0.20003748E+02</rscale>
<asrwt>0</asrwt>
<pdfrwt beam="2">  1        1 0.58307600E-02 0.20003748E+02</pdfrwt>
<pdfrwt beam="1">  1       -1 0.40607934E-03 0.20003748E+02</pdfrwt>
<totfact> 0.40960902E+06</totfact>
</mgrwt>
</event>
<event>
 5    1  0.2115795E-006  0.2000629E+02  0.7818608E-02  0.1745203E+00
          1   -1    0    0  501    0  0.00000000000E+00  0.00000000000E+00  0.80790436751E+02  0.80790436886E+02  0.46700000000E-02 0.  1.
         -1   -1    0    0    0  501 -0.00000000000E+00 -0.00000000000E+00 -0.12385440717E+01  0.12385528759E+01  0.46700000000E-02 0. -1.
       1023    2    1    2    0    0  0.00000000000E+00  0.00000000000E+00  0.79551892680E+02  0.82028989762E+02  0.20006287324E+02 0.  0.
        -13    1    3    3    0    0  0.98900200023E+01  0.14891306304E+01  0.40380006635E+02  0.41600313869E+02  0.10570000000E+00 0.  1.
         13    1    3    3    0    0 -0.98900200023E+01 -0.14891306304E+01  0.39171886044E+02  0.40428675893E+02  0.10570000000E+00 0. -1.
<mgrwt>
<rscale>  0 0.20006287E+02</rscale>
<asrwt>0</asrwt>
<pdfrwt beam="1">  1        1 0.12429298E-01 0.20006287E+02</pdfrwt>
<pdfrwt beam="2">  1       -1 0.19054595E-03 0.20006287E+02</pdfrwt>
<totfact> 0.43369993E+06</totfact>
</mgrwt>
</event>
<event>
 5    1  0.2115795E-006  0.2000197E+02  0.7818608E-02  0.1745289E+00
          1   -1    0    0  501    0  0.00000000000E+00  0.00000000000E+00  0.98155674435E+02  0.98155674546E+02  0.46700000000E-02 0. -1.
         -1   -1    0    0    0  501 -0.00000000000E+00 -0.00000000000E+00 -0.10189852461E+01  0.10189959473E+01  0.46700000000E-02 0.  1.
       1023    2    1    2    0    0  0.00000000000E+00  0.00000000000E+00  0.97136689189E+02  0.99174670493E+02  0.20001971925E+02 0.  0.
        -13    1    3    3    0    0  0.10315030275E+01  0.99467674120E+01  0.48963989196E+02  0.49974849583E+02  0.10570000000E+00 0.  1.
         13    1    3    3    0    0 -0.10315030275E+01 -0.99467674120E+01  0.48172699993E+02  0.49199820910E+02  0.10570000000E+00 0. -1.
<mgrwt>
<rscale>  0 0.20001972E+02</rscale>
<asrwt>0</asrwt>
<pdfrwt beam="1">  1        1 0.15100876E-01 0.20001972E+02</pdfrwt>
<pdfrwt beam="2">  1       -1 0.15676777E-03 0.20001972E+02</pdfrwt>
<totfact> 0.44261321E+06</totfact>
</mgrwt>
</event>
<event>
 5    1  0.2115795E-006  0.2000730E+02  0.7818608E-02  0.1745183E+00
          1   -1    0    0  501    0  0.00000000000E+00  0.00000000000E+00  0.96247121396E+02  0.96247121509E+02  0.46700000000E-02 0. -1.
         -1   -1    0    0    0  501 -0.00000000000E+00 -0.00000000000E+00 -0.10397457333E+01  0.10397562208E+01  0.46700000000E-02 0.  1.
       1023    2    1    2    0    0  0.00000000000E+00  0.00000000000E+00  0.95207375663E+02  0.97286877730E+02  0.20007303614E+02 0.  0.
        -13    1    3    3    0    0 -0.25781032034E+01 -0.96646930558E+01  0.48064196171E+02  0.49094103862E+02  0.10570000000E+00 0.  1.
         13    1    3    3    0    0  0.25781032034E+01  0.96646930558E+01  0.47143179492E+02  0.48192773868E+02  0.10570000000E+00 0. -1.
<mgrwt>
<rscale>  0 0.20007304E+02</rscale>
<asrwt>0</asrwt>
<pdfrwt beam="1">  1        1 0.14807261E-01 0.20007304E+02</pdfrwt>
<pdfrwt beam="2">  1       -1 0.15996158E-03 0.20007304E+02</pdfrwt>
<totfact> 0.44141971E+06</totfact>
</mgrwt>
</event>
<event>
 4    1  0.2115795E-006  0.2002565E+02  0.7818608E-02  0.1744818E+00
         -1   -1    0    0    0  501 -0.00000000000E+00  0.00000000000E+00  0.25974187303E+01  0.25974229285E+01  0.46700000000E-02 0.  1.
          1   -1    0    0  501    0  0.00000000000E+00 -0.00000000000E+00 -0.38598540944E+02  0.38598541227E+02  0.46700000000E-02 0. -1.
        -13    1    1    2    0    0 -0.80744830172E+01  0.59001146642E+01 -0.16999368696E+02  0.19723040780E+02  0.10570000000E+00 0. -1.
         13    1    1    2    0    0  0.80744830172E+01 -0.59001146642E+01 -0.19001753518E+02  0.21472923375E+02  0.10570000000E+00 0.  1.
<mgrwt>
<rscale>  0 0.20025650E+02</rscale>
<asrwt>0</asrwt>
<pdfrwt beam="2">  1        1 0.59382370E-02 0.20025650E+02</pdfrwt>
<pdfrwt beam="1">  1       -1 0.39960326E-03 0.20025650E+02</pdfrwt>
<totfact> 0.40905308E+06</totfact>
</mgrwt>
</event>
<event>
 4    1  0.2115795E-006  0.2001241E+02  0.7818608E-02  0.1745081E+00
          1   -1    0    0  501    0  0.00000000000E+00  0.00000000000E+00  0.16656419060E+01  0.16656484527E+01  0.46700000000E-02 0. -1.
         -1   -1    0    0    0  501 -0.00000000000E+00 -0.00000000000E+00 -0.60111342174E+02  0.60111342356E+02  0.46700000000E-02 0.  1.
        -13    1    1    2    0    0  0.88185801859E+01 -0.47269789099E+01 -0.29334994286E+02  0.30994592244E+02  0.10570000000E+00 0.  1.
         13    1    1    2    0    0 -0.88185801859E+01  0.47269789099E+01 -0.29110705982E+02  0.30782398565E+02  0.10570000000E+00 0. -1.
<mgrwt>
<rscale>  0 0.20012414E+02</rscale>
<asrwt>0</asrwt>
<pdfrwt beam="1">  1        1 0.25625316E-03 0.20012414E+02</pdfrwt>
<pdfrwt beam="2">  1       -1 0.92478976E-02 0.20012414E+02</pdfrwt>
<totfact> 0.34189181E+06</totfact>
</mgrwt>
</event>
<event>
 5    1  0.2115795E-006  0.2000625E+02  0.7818608E-02  0.1745204E+00
         -1   -1    0    0    0  501 -0.00000000000E+00  0.00000000000E+00  0.96412413155E+01  0.96412424465E+01  0.46700000000E-02 0.  1.
          1   -1    0    0  501    0  0.00000000000E+00 -0.00000000000E+00 -0.10378587269E+02  0.10378588319E+02  0.46700000000E-02 0. -1.
       1023    2    1    2    0    0  0.00000000000E+00  0.00000000000E+00 -0.73734595316E+00  0.20019830766E+02  0.20006247645E+02 0.  0.
        -13    1    3    3    0    0 -0.99982183935E+01  0.27243505057E+00 -0.25580535258E+00  0.10005758380E+02  0.10570000000E+00 0. -1.
         13    1    3    3    0    0  0.99982183935E+01 -0.27243505057E+00 -0.48154060058E+00  0.10014072385E+02  0.10570000000E+00 0.  1.
<mgrwt>
<rscale>  0 0.20006248E+02</rscale>
<asrwt>0</asrwt>
<pdfrwt beam="2">  1        1 0.15967059E-02 0.20006248E+02</pdfrwt>
<pdfrwt beam="1">  1       -1 0.14832681E-02 0.20006248E+02</pdfrwt>
<totfact> 0.38654038E+06</totfact>
</mgrwt>
</event>
<event>
 5    1  0.2115795E-006  0.2000176E+02  0.7818608E-02  0.1745293E+00
          1   -1    0    0  501    0  0.00000000000E+00  0.00000000000E+00  0.46994373375E+02  0.46994373607E+02  0.46700000000E-02 0.  1.
         -1   -1    0    0    0  501 -0.00000000000E+00 -0.00000000000E+00 -0.21282852841E+01  0.21282904076E+01  0.46700000000E-02 0. -1.
       1023    2    1    2    0    0  0.00000000000E+00  0.00000000000E+00  0.44866088091E+02  0.49122664014E+02  0.20001756406E+02 0.  0.
        -13    1    3    3    0    0  0.28124399664E+01 -0.95966798996E+01  0.22476192588E+02  0.24600741644E+02  0.10570000000E+00 0.  1.
         13    1    3    3    0    0 -0.28124399664E+01  0.95966798996E+01  0.22389895502E+02  0.24521922371E+02  0.10570000000E+00 0. -1.
<mgrwt>
<rscale>  0 0.20001756E+02</rscale>
<asrwt>0</asrwt>
<pdfrwt beam="1">  1        1 0.72299043E-02 0.20001756E+02</pdfrwt>
<pdfrwt beam="2">  1       -1 0.32742890E-03 0.20001756E+02</pdfrwt>
<totfact> 0.41529006E+06</totfact>
</mgrwt>
</event>
<event>
 4    1  0.2115795E-006  0.2002228E+02  0.7818608E-02  0.1744885E+00
          1   -1    0    0  501    0  0.00000000000E+00  0.00000000000E+00  0.52395740799E+02  0.52395741007E+02  0.46700000000E-02 0. -1.
         -1   -1    0    0    0  501 -0.00000000000E+00 -0.00000000000E+00 -0.19128040024E+01  0.19128097032E+01  0.46700000000E-02 0.  1.
        -13    1    1    2    0    0 -0.45359703456E+01 -0.89197961468E+01  0.24503712024E+02  0.26468488164E+02  0.10570000000E+00 0.  1.
         13    1    1    2    0    0  0.45359703456E+01  0.89197961468E+01  0.25979224773E+02  0.27840062547E+02  0.10570000000E+00 0. -1.
<mgrwt>
<rscale>  0 0.20022282E+02</rscale>
<asrwt>0</asrwt>
<pdfrwt beam="1">  1        1 0.80608842E-02 0.20022282E+02</pdfrwt>
<pdfrwt beam="2">  1       -1 0.29427797E-03 0.20022282E+02</pdfrwt>
<totfact> 0.41750984E+06</totfact>
</mgrwt>
</event>
<event>
 5    1  0.2115795E-006  0.2000392E+02  0.7818608E-02  0.1745250E+00
          1   -1    0    0  501    0  0.00000000000E+00  0.00000000000E+00  0.24966827116E+01  0.24966870792E+01  0.46700000000E-02 0. -1.
         -1   -1    0    0    0  501 -0.00000000000E+00 -0.00000000000E+00 -0.40068794184E+02  0.40068794457E+02  0.46700000000E-02 0.  1.
       1023    2    1    2    0    0  0.00000000000E+00  0.00000000000E+00 -0.37572111473E+02  0.42565481536E+02  0.20003916063E+02 0.  0.
        -13    1    3    3    0    0  0.78847017198E+01 -0.61517170337E+01 -0.19053931759E+02  0.21519192170E+02  0.10570000000E+00 0.  1.
         13    1    3    3    0    0 -0.78847017198E+01  0.61517170337E+01 -0.18518179713E+02  0.21046289365E+02  0.10570000000E+00 0. -1.
<mgrwt>
<rscale>  0 0.20003916E+02</rscale>
<asrwt>0</asrwt>
<pdfrwt beam="1">  1        1 0.38410542E-03 0.20003916E+02</pdfrwt>
<pdfrwt beam="2">  1       -1 0.61644298E-02 0.20003916E+02</pdfrwt>
<totfact> 0.35650472E+06</totfact>
</mgrwt>
</event>
<event>
 4    1  0.2115795E-006  0.2002907E+02  0.7818608E-02  0.1744751E+00
         -1   -1    0    0    0  501 -0.00000000000E+00  0.00000000000E+00  0.13571339367E+02  0.13571340171E+02  0.46700000000E-02 0. -1.
          1   -1    0    0  501    0  0.00000000000E+00 -0.00000000000E+00 -0.73899065945E+01  0.73899080700E+01  0.46700000000E-02 0.  1.
        -13    1    1    2    0    0 -0.76028138683E+01 -0.65104468639E+01  0.27748679418E+01  0.10387481007E+02  0.10570000000E+00 0.  1.
         13    1    1    2    0    0  0.76028138683E+01  0.65104468639E+01  0.34065648312E+01  0.10573767234E+02  0.10570000000E+00 0. -1.
<mgrwt>
<rscale>  0 0.20029074E+02</rscale>
<asrwt>0</asrwt>
<pdfrwt beam="2">  1        1 0.11369089E-02 0.20029074E+02</pdfrwt>
<pdfrwt beam="1">  1       -1 0.20878985E-02 0.20029074E+02</pdfrwt>
<totfact> 0.38011196E+06</totfact>
</mgrwt>
</event>
<event>
 5    1  0.2115795E-006  0.2000211E+02  0.7818608E-02  0.1745286E+00
          1   -1    0    0  501    0  0.00000000000E+00  0.00000000000E+00  0.69982360796E+02  0.69982360952E+02  0.46700000000E-02 0. -1.
         -1   -1    0    0    0  501 -0.00000000000E+00 -0.00000000000E+00 -0.14292284423E+01  0.14292360719E+01  0.46700000000E-02 0.  1.
       1023    2    1    2    0    0  0.00000000000E+00  0.00000000000E+00  0.68553132353E+02  0.71411597024E+02  0.20002105739E+02 0.  0.
        -13    1    3    3    0    0  0.19028317923E+01 -0.98174966956E+01  0.34002896480E+02  0.35443083270E+02  0.10570000000E+00 0. -1.
         13    1    3    3    0    0 -0.19028317923E+01  0.98174966956E+01  0.34550235874E+02  0.35968513753E+02  0.10570000000E+00 0.  1.
<mgrwt>
<rscale>  0 0.20002106E+02</rscale>
<asrwt>0</asrwt>
<pdfrwt beam="1">  1        1 0.10766516E-01 0.20002106E+02</pdfrwt>
<pdfrwt beam="2">  1       -1 0.21988193E-03 0.20002106E+02</pdfrwt>
<totfact> 0.42822949E+06</totfact>
</mgrwt>
</event>
<event>
 5    1  0.2115795E-006  0.2000164E+02  0.7818608E-02  0.1745295E+00
         -1   -1    0    0    0  501 -0.00000000000E+00  0.00000000000E+00  0.81680125219E+01  0.81680138569E+01  0.46700000000E-02 0. -1.
          1   -1    0    0  501    0  0.00000000000E+00 -0.00000000000E+00 -0.12244888766E+02  0.12244889656E+02  0.46700000000E-02 0.  1.
       1023    2    1    2    0    0  0.00000000000E+00  0.00000000000E+00 -0.40768762438E+01  0.20412903513E+02  0.20001642681E+02 0.  0.
        -13    1    3    3    0    0  0.56752928037E+01  0.82336015780E+01 -0.19729976152E+01  0.10193381943E+02  0.10570000000E+00 0. -1.
         13    1    3    3    0    0 -0.56752928037E+01 -0.82336015780E+01 -0.21038786286E+01  0.10219521570E+02  0.10570000000E+00 0.  1.
<mgrwt>
<rscale>  0 0.20001643E+02</rscale>
<asrwt>0</asrwt>
<pdfrwt beam="2">  1        1 0.18838292E-02 0.20001643E+02</pdfrwt>
<pdfrwt beam="1">  1       -1 0.12566175E-02 0.20001643E+02</pdfrwt>
<totfact> 0.38926986E+06</totfact>
</mgrwt>
</event>
<event>
 4    1  0.2115795E-006  0.2003257E+02  0.7818608E-02  0.1744681E+00
          1   -1    0    0  501    0  0.00000000000E+00  0.00000000000E+00  0.66976009224E+01  0.66976025505E+01  0.46700000000E-02 0.  1.
         -1   -1    0    0    0  501 -0.00000000000E+00 -0.00000000000E+00 -0.14979379112E+02  0.14979379840E+02  0.46700000000E-02 0. -1.
        -13    1    1    2    0    0  0.71619305622E+00 -0.99822162764E+01 -0.37118826629E+01  0.10674587565E+02  0.10570000000E+00 0. -1.
         13    1    1    2    0    0 -0.71619305622E+00  0.99822162764E+01 -0.45698955265E+01  0.11002394825E+02  0.10570000000E+00 0.  1.
<mgrwt>
<rscale>  0 0.20032566E+02</rscale>
<asrwt>0</asrwt>
<pdfrwt beam="1">  1        1 0.10304003E-02 0.20032566E+02</pdfrwt>
<pdfrwt beam="2">  1       -1 0.23045200E-02 0.20032566E+02</pdfrwt>
<totfact> 0.37827001E+06</totfact>
</mgrwt>
</event>
<event>
 5    1  0.2115795E-006  0.2000181E+02  0.7818608E-02  0.1745292E+00
          1   -1    0    0  501    0  0.00000000000E+00  0.00000000000E+00  0.28619107012E+02  0.28619107393E+02  0.46700000000E-02 0. -1.
         -1   -1    0    0    0  501 -0.00000000000E+00 -0.00000000000E+00 -0.34948001820E+01  0.34948033022E+01  0.46700000000E-02 0.  1.
       1023    2    1    2    0    0  0.00000000000E+00  0.00000000000E+00  0.25124306830E+02  0.32113910695E+02  0.20001811579E+02 0.  0.
        -13    1    3    3    0    0  0.43633863211E+01 -0.89980938006E+01  0.12488369849E+02  0.15999230800E+02  0.10570000000E+00 0. -1.
         13    1    3    3    0    0 -0.43633863211E+01  0.89980938006E+01  0.12635936981E+02  0.16114679894E+02  0.10570000000E+00 0.  1.
<mgrwt>
<rscale>  0 0.20001812E+02</rscale>
<asrwt>0</asrwt>
<pdfrwt beam="1">  1        1 0.44029396E-02 0.20001812E+02</pdfrwt>
<pdfrwt beam="2">  1       -1 0.53766186E-03 0.20001812E+02</pdfrwt>
<totfact> 0.40352538E+06</totfact>
</mgrwt>
</event>
<event>
 5    1  0.2115795E-006  0.2000290E+02  0.7818608E-02  0.1745270E+00
         -1   -1    0    0    0  501 -0.00000000000E+00  0.00000000000E+00  0.57093577028E+01  0.57093596127E+01  0.46700000000E-02 0. -1.
          1   -1    0    0  501    0  0.00000000000E+00 -0.00000000000E+00 -0.17520177943E+02  0.17520178565E+02  0.46700000000E-02 0.  1.
       1023    2    1    2    0    0  0.00000000000E+00  0.00000000000E+00 -0.11810820240E+02  0.23229538178E+02  0.20002899020E+02 0.  0.
        -13    1    3    3    0    0  0.91041866963E+01 -0.41390269393E+01 -0.59144362430E+01  0.11619358329E+02  0.10570000000E+00 0. -1.
         13    1    3    3    0    0 -0.91041866963E+01  0.41390269393E+01 -0.58963839972E+01  0.11610179850E+02  0.10570000000E+00 0.  1.
<mgrwt>
<rscale>  0 0.20002899E+02</rscale>
<asrwt>0</asrwt>
<pdfrwt beam="2">  1        1 0.26954122E-02 0.20002899E+02</pdfrwt>
<pdfrwt beam="1">  1       -1 0.87836293E-03 0.20002899E+02</pdfrwt>
<totfact> 0.39476091E+06</totfact>
</mgrwt>
</event>
<event>
 5    1  0.2115795E-006  0.2000721E+02  0.7818608E-02  0.1745185E+00
         -1   -1    0    0    0  501 -0.00000000000E+00  0.00000000000E+00  0.70304509637E+01  0.70304525147E+01  0.46700000000E-02 0. -1.
          1   -1    0    0  501    0  0.00000000000E+00 -0.00000000000E+00 -0.14234088091E+02  0.14234088857E+02  0.46700000000E-02 0.  1.
       1023    2    1    2    0    0  0.00000000000E+00  0.00000000000E+00 -0.72036371275E+01  0.21264541372E+02  0.20007206999E+02 0.  0.
        -13    1    3    3    0    0  0.55976695524E+01  0.82895419746E+01 -0.37107272408E+01  0.10669164902E+02  0.10570000000E+00 0.  1.
         13    1    3    3    0    0 -0.55976695524E+01 -0.82895419746E+01 -0.34929098867E+01  0.10595376470E+02  0.10570000000E+00 0. -1.
<mgrwt>
<rscale>  0 0.20007207E+02</rscale>
<asrwt>0</asrwt>
<pdfrwt beam="2">  1        1 0.21898599E-02 0.20007207E+02</pdfrwt>
<pdfrwt beam="1">  1       -1 0.10816080E-02 0.20007207E+02</pdfrwt>
<totfact> 0.39132146E+06</totfact>
</mgrwt>
</event>
<event>
 5    1  0.2115795E-006  0.2000260E+02  0.7818608E-02  0.1745276E+00
         -1   -1    0    0    0  501 -0.00000000000E+00  0.00000000000E+00  0.29486980752E+01  0.29487017732E+01  0.46700000000E-02 0.  1.
          1   -1    0    0  501    0  0.00000000000E+00 -0.00000000000E+00 -0.33922058208E+02  0.33922058529E+02  0.46700000000E-02 0. -1.
       1023    2    1    2    0    0  0.00000000000E+00  0.00000000000E+00 -0.30973360132E+02  0.36870760302E+02  0.20002598016E+02 0.  0.
        -13    1    3    3    0    0 -0.44941328878E+01  0.89334143449E+01 -0.15685953200E+02  0.18602779969E+02  0.10570000000E+00 0.  1.
         13    1    3    3    0    0  0.44941328878E+01 -0.89334143449E+01 -0.15287406932E+02  0.18267980334E+02  0.10570000000E+00 0. -1.
<mgrwt>
<rscale>  0 0.20002598E+02</rscale>
<asrwt>0</asrwt>
<pdfrwt beam="2">  1        1 0.52187782E-02 0.20002598E+02</pdfrwt>
<pdfrwt beam="1">  1       -1 0.45364619E-03 0.20002598E+02</pdfrwt>
<totfact> 0.40708838E+06</totfact>
</mgrwt>
</event>
<event>
 5    1  0.2115795E-006  0.2000178E+02  0.7818608E-02  0.1745293E+00
         -1   -1    0    0    0  501 -0.00000000000E+00  0.00000000000E+00  0.20839608535E+02  0.20839609058E+02  0.46700000000E-02 0.  1.
          1   -1    0    0  501    0  0.00000000000E+00 -0.00000000000E+00 -0.47994063070E+01  0.47994085790E+01  0.46700000000E-02 0. -1.
       1023    2    1    2    0    0  0.00000000000E+00  0.00000000000E+00  0.16040202228E+02  0.25639017637E+02  0.20001778368E+02 0.  0.
        -13    1    3    3    0    0 -0.10000256796E+02  0.16861497192E-01  0.80643510584E+01  0.12847192331E+02  0.10570000000E+00 0. -1.
         13    1    3    3    0    0  0.10000256796E+02 -0.16861497192E-01  0.79758511693E+01  0.12791825306E+02  0.10570000000E+00 0.  1.
<mgrwt>
<rscale>  0 0.20001778E+02</rscale>
<asrwt>0</asrwt>
<pdfrwt beam="2">  1        1 0.73837043E-03 0.20001778E+02</pdfrwt>
<pdfrwt beam="1">  1       -1 0.32060938E-02 0.20001778E+02</pdfrwt>
<totfact> 0.37324834E+06</totfact>
</mgrwt>
</event>
<event>
 5    1  0.2115795E-006  0.2000166E+02  0.7818608E-02  0.1745295E+00
         -1   -1    0    0    0  501 -0.00000000000E+00  0.00000000000E+00  0.33522193534E+01  0.33522226063E+01  0.46700000000E-02 0. -1.
          1   -1    0    0  501    0  0.00000000000E+00 -0.00000000000E+00 -0.29835930217E+02  0.29835930583E+02  0.46700000000E-02 0.  1.
       1023    2    1    2    0    0  0.00000000000E+00  0.00000000000E+00 -0.26483710864E+02  0.33188153189E+02  0.20001664205E+02 0.  0.
        -13    1    3    3    0    0  0.88984243238E+01  0.45629394014E+01 -0.13334222173E+02  0.16667784042E+02  0.10570000000E+00 0.  1.
         13    1    3    3    0    0 -0.88984243238E+01 -0.45629394014E+01 -0.13149488691E+02  0.16520369147E+02  0.10570000000E+00 0. -1.
<mgrwt>
<rscale>  0 0.20001664E+02</rscale>
<asrwt>0</asrwt>
<pdfrwt beam="2">  1        1 0.45901432E-02 0.20001664E+02</pdfrwt>
<pdfrwt beam="1">  1       -1 0.51572635E-03 0.20001664E+02</pdfrwt>
<totfact> 0.40437858E+06</totfact>
</mgrwt>
</event>
<event>
 5    1  0.2115795E-006  0.2000161E+02  0.7818608E-02  0.1745296E+00
          1   -1    0    0  501    0  0.00000000000E+00  0.00000000000E+00  0.18325344692E+02  0.18325345287E+02  0.46700000000E-02 0.  1.
         -1   -1    0    0    0  501 -0.00000000000E+00 -0.00000000000E+00 -0.54578021047E+01  0.54578041026E+01  0.46700000000E-02 0. -1.
       1023    2    1    2    0    0  0.00000000000E+00  0.00000000000E+00  0.12867542587E+02  0.23783149390E+02  0.20001613501E+02 0.  0.
        -13    1    3    3    0    0  0.60082996711E+01  0.79940733305E+01  0.64225020332E+01  0.11885477618E+02  0.10570000000E+00 0. -1.
         13    1    3    3    0    0 -0.60082996711E+01 -0.79940733305E+01  0.64450405541E+01  0.11897671772E+02  0.10570000000E+00 0.  1.
<mgrwt>
<rscale>  0 0.20001614E+02</rscale>
<asrwt>0</asrwt>
<pdfrwt beam="1">  1        1 0.28192840E-02 0.20001614E+02</pdfrwt>
<pdfrwt beam="2">  1       -1 0.83966206E-03 0.20001614E+02</pdfrwt>
<totfact> 0.39554379E+06</totfact>
</mgrwt>
</event>
<event>
 5    1  0.2115795E-006  0.2000503E+02  0.7818608E-02  0.1745228E+00
          1   -1    0    0  501    0  0.00000000000E+00  0.00000000000E+00  0.15184157487E+02  0.15184158205E+02  0.46700000000E-02 0.  1.
         -1   -1    0    0    0  501 -0.00000000000E+00 -0.00000000000E+00 -0.65891232610E+01  0.65891249159E+01  0.46700000000E-02 0. -1.
       1023    2    1    2    0    0  0.00000000000E+00  0.00000000000E+00  0.85950342260E+01  0.21773283121E+02  0.20005030481E+02 0.  0.
        -13    1    3    3    0    0 -0.18239942400E+01  0.98337168906E+01  0.41876178642E+01  0.10843258677E+02  0.10570000000E+00 0. -1.
         13    1    3    3    0    0  0.18239942400E+01 -0.98337168906E+01  0.44074163619E+01  0.10930024444E+02  0.10570000000E+00 0.  1.
<mgrwt>
<rscale>  0 0.20005030E+02</rscale>
<asrwt>0</asrwt>
<pdfrwt beam="1">  1        1 0.23360244E-02 0.20005030E+02</pdfrwt>
<pdfrwt beam="2">  1       -1 0.10137115E-02 0.20005030E+02</pdfrwt>
<totfact> 0.39241335E+06</totfact>
</mgrwt>
</event>
<event>
 4    1  0.2115795E-006  0.2001555E+02  0.7818608E-02  0.1745019E+00
          1   -1    0    0  501    0  0.00000000000E+00  0.00000000000E+00  0.10013049584E+03  0.10013049595E+03  0.46700000000E-02 0. -1.
         -1   -1    0    0    0  501 -0.00000000000E+00 -0.00000000000E+00 -0.10002448411E+01  0.10002557428E+01  0.46700000000E-02 0.  1.
        -13    1    1    2    0    0 -0.67526637517E+01  0.73854565805E+01  0.49721635979E+02  0.50718790340E+02  0.10570000000E+00 0. -1.
         13    1    1    2    0    0  0.67526637517E+01 -0.73854565805E+01  0.49408615025E+02  0.50411961356E+02  0.10570000000E+00 0.  1.
<mgrwt>
<rscale>  0 0.20015551E+02</rscale>
<asrwt>0</asrwt>
<pdfrwt beam="1">  1        1 0.15404696E-01 0.20015551E+02</pdfrwt>
<pdfrwt beam="2">  1       -1 0.15388464E-03 0.20015551E+02</pdfrwt>
<totfact> 0.44290984E+06</totfact>
</mgrwt>
</event>
<event>
 5    1  0.2115795E-006  0.2000895E+02  0.7818608E-02  0.1745150E+00
          1   -1    0    0  501    0  0.00000000000E+00  0.00000000000E+00  0.23867371442E+02  0.23867371899E+02  0.46700000000E-02 0.  1.
         -1   -1    0    0    0  501 -0.00000000000E+00 -0.00000000000E+00 -0.41935701416E+01  0.41935727419E+01  0.46700000000E-02 0. -1.
       1023    2    1    2    0    0  0.00000000000E+00  0.00000000000E+00  0.19673801300E+02  0.28060944641E+02  0.20008951910E+02 0.  0.
        -13    1    3    3    0    0  0.42593795917E+01 -0.90497512171E+01  0.10110480474E+02  0.14222281797E+02  0.10570000000E+00 0. -1.
         13    1    3    3    0    0 -0.42593795917E+01  0.90497512171E+01  0.95633208264E+01  0.13838662844E+02  0.10570000000E+00 0.  1.
<mgrwt>
<rscale>  0 0.20008952E+02</rscale>
<asrwt>0</asrwt>
<pdfrwt beam="1">  1        1 0.36719034E-02 0.20008952E+02</pdfrwt>
<pdfrwt beam="2">  1       -1 0.64516490E-03 0.20008952E+02</pdfrwt>
<totfact> 0.39973975E+06</totfact>
</mgrwt>
</event>
<event>
 5    1  0.2115795E-006  0.2000927E+02  0.7818608E-02  0.1745144E+00
         -1   -1    0    0    0  501 -0.00000000000E+00  0.00000000000E+00  0.64294602919E+01  0.64294619880E+01  0.46700000000E-02 0. -1.
          1   -1    0    0  501    0  0.00000000000E+00 -0.00000000000E+00 -0.15567825470E+02  0.15567826171E+02  0.46700000000E-02 0.  1.
       1023    2    1    2    0    0  0.00000000000E+00  0.00000000000E+00 -0.91383651782E+01  0.21997288159E+02  0.20009272056E+02 0.  0.
        -13    1    3    3    0    0  0.82965190665E+01 -0.55900256011E+01 -0.45352141694E+01  0.10984532530E+02  0.10570000000E+00 0. -1.
         13    1    3    3    0    0 -0.82965190665E+01  0.55900256011E+01 -0.46031510088E+01  0.11012755629E+02  0.10570000000E+00 0.  1.
<mgrwt>
<rscale>  0 0.20009272E+02</rscale>
<asrwt>0</asrwt>
<pdfrwt beam="2">  1        1 0.23950503E-02 0.20009272E+02</pdfrwt>
<pdfrwt beam="1">  1       -1 0.98914792E-03 0.20009272E+02</pdfrwt>
<totfact> 0.39261369E+06</totfact>
</mgrwt>
</event>
<event>
 5    1  0.2115795E-006  0.2000174E+02  0.7818608E-02  0.1745293E+00
          1   -1    0    0  501    0  0.00000000000E+00  0.00000000000E+00  0.65995411117E+01  0.65995427640E+01  0.46700000000E-02 0. -1.
         -1   -1    0    0    0  501 -0.00000000000E+00 -0.00000000000E+00 -0.15155205887E+02  0.15155206607E+02  0.46700000000E-02 0.  1.
       1023    2    1    2    0    0  0.00000000000E+00  0.00000000000E+00 -0.85556647754E+01  0.21754749371E+02  0.20001742935E+02 0.  0.
        -13    1    3    3    0    0  0.86555851966E+01  0.50082709161E+01 -0.42063042461E+01  0.10849244239E+02  0.10570000000E+00 0. -1.
         13    1    3    3    0    0 -0.86555851966E+01 -0.50082709161E+01 -0.43493605293E+01  0.10905505131E+02  0.10570000000E+00 0.  1.
<mgrwt>
<rscale>  0 0.20001743E+02</rscale>
<asrwt>0</asrwt>
<pdfrwt beam="1">  1        1 0.10153142E-02 0.20001743E+02</pdfrwt>
<pdfrwt beam="2">  1       -1 0.23315703E-02 0.20001743E+02</pdfrwt>
<totfact> 0.37934441E+06</totfact>
</mgrwt>
</event>
<event>
 5    1  0.2115795E-006  0.2000174E+02  0.7818608E-02  0.1745294E+00
          1   -1    0    0  501    0  0.00000000000E+00  0.00000000000E+00  0.27897272280E+01  0.27897311368E+01  0.46700000000E-02 0. -1.
         -1   -1    0    0    0  501 -0.00000000000E+00 -0.00000000000E+00 -0.35851998107E+02  0.35851998411E+02  0.46700000000E-02 0.  1.
       1023    2    1    2    0    0  0.00000000000E+00  0.00000000000E+00 -0.33062270879E+02  0.38641729548E+02  0.20001737594E+02 0.  0.
        -13    1    3    3    0    0 -0.41159464105E+01 -0.91138032887E+01 -0.16649896851E+02  0.19422478289E+02  0.10570000000E+00 0.  1.
         13    1    3    3    0    0  0.41159464105E+01  0.91138032887E+01 -0.16412374028E+02  0.19219251259E+02  0.10570000000E+00 0. -1.
<mgrwt>
<rscale>  0 0.20001738E+02</rscale>
<asrwt>0</asrwt>
<pdfrwt beam="1">  1        1 0.42918915E-03 0.20001738E+02</pdfrwt>
<pdfrwt beam="2">  1       -1 0.55156920E-02 0.20001738E+02</pdfrwt>
<totfact> 0.35991806E+06</totfact>
</mgrwt>
</event>
<event>
 4    1  0.2115795E-006  0.2004273E+02  0.7818608E-02  0.1744480E+00
         -1   -1    0    0    0  501 -0.00000000000E+00  0.00000000000E+00  0.29377850886E+01  0.29377888004E+01  0.46700000000E-02 0. -1.
          1   -1    0    0  501    0  0.00000000000E+00 -0.00000000000E+00 -0.34184838934E+02  0.34184839253E+02  0.46700000000E-02 0.  1.
        -13    1    1    2    0    0  0.93272686819E+00 -0.99771827546E+01 -0.15715340790E+02  0.18638596078E+02  0.10570000000E+00 0.  1.
         13    1    1    2    0    0 -0.93272686819E+00  0.99771827546E+01 -0.15531713055E+02  0.18484031975E+02  0.10570000000E+00 0. -1.
<mgrwt>
<rscale>  0 0.20042733E+02</rscale>
<asrwt>0</asrwt>
<pdfrwt beam="2">  1        1 0.52592060E-02 0.20042733E+02</pdfrwt>
<pdfrwt beam="1">  1       -1 0.45196727E-03 0.20042733E+02</pdfrwt>
<totfact> 0.40544422E+06</totfact>
</mgrwt>
</event>
<event>
 4    1  0.2115795E-006  0.2010953E+02  0.7818608E-02  0.1743159E+00
         -1   -1    0    0    0  501 -0.00000000000E+00  0.00000000000E+00  0.46358869222E+02  0.46358869457E+02  0.46700000000E-02 0.  1.
          1   -1    0    0  501    0  0.00000000000E+00 -0.00000000000E+00 -0.21807725020E+01  0.21807775023E+01  0.46700000000E-02 0. -1.
        -13    1    1    2    0    0 -0.98908146651E+01 -0.17841603785E+01  0.21425115019E+02  0.23665548146E+02  0.10570000000E+00 0.  1.
         13    1    1    2    0    0  0.98908146651E+01  0.17841603785E+01  0.22752981701E+02  0.24874098814E+02  0.10570000000E+00 0. -1.
<mgrwt>
<rscale>  0 0.20109528E+02</rscale>
<asrwt>0</asrwt>
<pdfrwt beam="2">  1        1 0.33550389E-03 0.20109528E+02</pdfrwt>
<pdfrwt beam="1">  1       -1 0.71321337E-02 0.20109528E+02</pdfrwt>
<totfact> 0.34772232E+06</totfact>
</mgrwt>
</event>
<event>
 4    1  0.2115795E-006  0.2004632E+02  0.7818608E-02  0.1744409E+00
          1   -1    0    0  501    0  0.00000000000E+00  0.00000000000E+00  0.48246017348E+01  0.48246039950E+01  0.46700000000E-02 0.  1.
         -1   -1    0    0    0  501 -0.00000000000E+00 -0.00000000000E+00 -0.20823211231E+02  0.20823211755E+02  0.46700000000E-02 0. -1.
        -13    1    1    2    0    0 -0.41631680663E+01 -0.91103365638E+01 -0.84468550232E+01  0.13103081047E+02  0.10570000000E+00 0. -1.
         13    1    1    2    0    0  0.41631680663E+01  0.91103365638E+01 -0.75517544734E+01  0.12544734703E+02  0.10570000000E+00 0.  1.
<mgrwt>
<rscale>  0 0.20046320E+02</rscale>
<asrwt>0</asrwt>
<pdfrwt beam="1">  1        1 0.74224665E-03 0.20046320E+02</pdfrwt>
<pdfrwt beam="2">  1       -1 0.32035711E-02 0.20046320E+02</pdfrwt>
<totfact> 0.37144414E+06</totfact>
</mgrwt>
</event>
<event>
 5    1  0.2115795E-006  0.2000545E+02  0.7818608E-02  0.1745220E+00
         -1   -1    0    0    0  501 -0.00000000000E+00  0.00000000000E+00  0.36666890477E+01  0.36666920216E+01  0.46700000000E-02 0. -1.
          1   -1    0    0  501    0  0.00000000000E+00 -0.00000000000E+00 -0.27287407772E+02  0.27287408171E+02  0.46700000000E-02 0.  1.
       1023    2    1    2    0    0  0.00000000000E+00  0.00000000000E+00 -0.23620718724E+02  0.30954100193E+02  0.20005448401E+02 0.  0.
        -13    1    3    3    0    0 -0.97318077599E+01 -0.23022940492E+01 -0.11522220542E+02  0.15257174669E+02  0.10570000000E+00 0. -1.
         13    1    3    3    0    0  0.97318077599E+01  0.23022940492E+01 -0.12098498182E+02  0.15696925524E+02  0.10570000000E+00 0.  1.
<mgrwt>
<rscale>  0 0.20005448E+02</rscale>
<asrwt>0</asrwt>
<pdfrwt beam="2">  1        1 0.41980629E-02 0.20005448E+02</pdfrwt>
<pdfrwt beam="1">  1       -1 0.56410629E-03 0.20005448E+02</pdfrwt>
<totfact> 0.40241828E+06</totfact>
</mgrwt>
</event>
<event>
 4    1  0.2115795E-006  0.2044576E+02  0.7818608E-02  0.1736606E+00
          1   -1    0    0  501    0  0.00000000000E+00  0.00000000000E+00  0.54832820988E+01  0.54832840875E+01  0.46700000000E-02 0.  1.
         -1   -1    0    0    0  501 -0.00000000000E+00 -0.00000000000E+00 -0.19059249262E+02  0.19059249834E+02  0.46700000000E-02 0. -1.
        -13    1    1    2    0    0 -0.87518522109E+01 -0.51622120368E+01 -0.54444510695E+01  0.11528077471E+02  0.10570000000E+00 0.  1.
         13    1    1    2    0    0  0.87518522109E+01  0.51622120368E+01 -0.81315160935E+01  0.13014456451E+02  0.10570000000E+00 0. -1.
<mgrwt>
<rscale>  0 0.20445760E+02</rscale>
<asrwt>0</asrwt>
<pdfrwt beam="1">  1        1 0.84358207E-03 0.20445760E+02</pdfrwt>
<pdfrwt beam="2">  1       -1 0.29321924E-02 0.20445760E+02</pdfrwt>
<totfact> 0.35735715E+06</totfact>
</mgrwt>
</event>
<event>
 5    1  0.2115795E-006  0.2000287E+02  0.7818608E-02  0.1745271E+00
          1   -1    0    0  501    0  0.00000000000E+00  0.00000000000E+00  0.22533319035E+01  0.22533367428E+01  0.46700000000E-02 0.  1.
         -1   -1    0    0    0  501 -0.00000000000E+00 -0.00000000000E+00 -0.44391403927E+02  0.44391404173E+02  0.46700000000E-02 0. -1.
       1023    2    1    2    0    0  0.00000000000E+00  0.00000000000E+00 -0.42138072023E+02  0.46644740915E+02  0.20002868325E+02 0.  0.
        -13    1    3    3    0    0 -0.49487917156E+01 -0.86897724493E+01 -0.20785078180E+02  0.23065847743E+02  0.10570000000E+00 0. -1.
         13    1    3    3    0    0  0.49487917156E+01  0.86897724493E+01 -0.21352993844E+02  0.23578893173E+02  0.10570000000E+00 0.  1.
<mgrwt>
<rscale>  0 0.20002868E+02</rscale>
<asrwt>0</asrwt>
<pdfrwt beam="1">  1        1 0.34666687E-03 0.20002868E+02</pdfrwt>
<pdfrwt beam="2">  1       -1 0.68294465E-02 0.20002868E+02</pdfrwt>
<totfact> 0.35326603E+06</totfact>
</mgrwt>
</event>
<event>
 4    1  0.2115795E-006  0.2010819E+02  0.7818608E-02  0.1743185E+00
         -1   -1    0    0    0  501 -0.00000000000E+00  0.00000000000E+00  0.26804684708E+01  0.26804725389E+01  0.46700000000E-02 0. -1.
          1   -1    0    0  501    0  0.00000000000E+00 -0.00000000000E+00 -0.37711579464E+02  0.37711579754E+02  0.46700000000E-02 0.  1.
        -13    1    1    2    0    0 -0.20566020194E+01  0.98274127794E+01 -0.16479620836E+02  0.19297583506E+02  0.10570000000E+00 0.  1.
         13    1    1    2    0    0  0.20566020194E+01 -0.98274127794E+01 -0.18551490158E+02  0.21094468786E+02  0.10570000000E+00 0. -1.
<mgrwt>
<rscale>  0 0.20108186E+02</rscale>
<asrwt>0</asrwt>
<pdfrwt beam="2">  1        1 0.58017814E-02 0.20108186E+02</pdfrwt>
<pdfrwt beam="1">  1       -1 0.41238013E-03 0.20108186E+02</pdfrwt>
<totfact> 0.40476279E+06</totfact>
</mgrwt>
</event>
<event>
 5    1  0.2115795E-006  0.2000739E+02  0.7818608E-02  0.1745181E+00
          1   -1    0    0  501    0  0.00000000000E+00  0.00000000000E+00  0.61429269591E+02  0.61429269769E+02  0.46700000000E-02 0. -1.
         -1   -1    0    0    0  501 -0.00000000000E+00 -0.00000000000E+00 -0.16290887015E+01  0.16290953951E+01  0.46700000000E-02 0.  1.
       1023    2    1    2    0    0  0.00000000000E+00  0.00000000000E+00  0.59800180890E+02  0.63058365164E+02  0.20007393201E+02 0.  0.
        -13    1    3    3    0    0 -0.95295218942E+01 -0.30363269285E+01  0.29338897501E+02  0.30996986108E+02  0.10570000000E+00 0. -1.
         13    1    3    3    0    0  0.95295218942E+01  0.30363269285E+01  0.30461283389E+02  0.32061379055E+02  0.10570000000E+00 0.  1.
<mgrwt>
<rscale>  0 0.20007393E+02</rscale>
<asrwt>0</asrwt>
<pdfrwt beam="1">  1        1 0.94506573E-02 0.20007393E+02</pdfrwt>
<pdfrwt beam="2">  1       -1 0.25062956E-03 0.20007393E+02</pdfrwt>
<totfact> 0.42331550E+06</totfact>
</mgrwt>
</event>
<event>
 5    1  0.2115795E-006  0.2000179E+02  0.7818608E-02  0.1745293E+00
          1   -1    0    0  501    0  0.00000000000E+00  0.00000000000E+00  0.88896353225E+01  0.88896365491E+01  0.46700000000E-02 0. -1.
         -1   -1    0    0    0  501 -0.00000000000E+00 -0.00000000000E+00 -0.11251061796E+02  0.11251062766E+02  0.46700000000E-02 0.  1.
       1023    2    1    2    0    0  0.00000000000E+00  0.00000000000E+00 -0.23614264738E+01  0.20140699315E+02  0.20001785768E+02 0.  0.
        -13    1    3    3    0    0 -0.24196675257E+01  0.97031721935E+01 -0.11620254626E+01  0.10068158581E+02  0.10570000000E+00 0. -1.
         13    1    3    3    0    0  0.24196675257E+01 -0.97031721935E+01 -0.11994010112E+01  0.10072540733E+02  0.10570000000E+00 0.  1.
<mgrwt>
<rscale>  0 0.20001786E+02</rscale>
<asrwt>0</asrwt>
<pdfrwt beam="1">  1        1 0.13676364E-02 0.20001786E+02</pdfrwt>
<pdfrwt beam="2">  1       -1 0.17309327E-02 0.20001786E+02</pdfrwt>
<totfact> 0.38431663E+06</totfact>
</mgrwt>
</event>
<event>
 5    1  0.2115795E-006  0.2000195E+02  0.7818608E-02  0.1745289E+00
          1   -1    0    0  501    0  0.00000000000E+00  0.00000000000E+00  0.47790382914E+01  0.47790405731E+01  0.46700000000E-02 0. -1.
         -1   -1    0    0    0  501 -0.00000000000E+00 -0.00000000000E+00 -0.20928779593E+02  0.20928780114E+02  0.46700000000E-02 0.  1.
       1023    2    1    2    0    0  0.00000000000E+00  0.00000000000E+00 -0.16149741302E+02  0.25707820688E+02  0.20001947415E+02 0.  0.
        -13    1    3    3    0    0  0.86591026502E+01 -0.50028207313E+01 -0.80817475772E+01  0.12858230452E+02  0.10570000000E+00 0.  1.
         13    1    3    3    0    0 -0.86591026502E+01  0.50028207313E+01 -0.80679937248E+01  0.12849590235E+02  0.10570000000E+00 0. -1.
<mgrwt>
<rscale>  0 0.20001947E+02</rscale>
<asrwt>0</asrwt>
<pdfrwt beam="1">  1        1 0.73523689E-03 0.20001947E+02</pdfrwt>
<pdfrwt beam="2">  1       -1 0.32198124E-02 0.20001947E+02</pdfrwt>
<totfact> 0.37315241E+06</totfact>
</mgrwt>
</event>
<event>
 5    1  0.2115795E-006  0.2000121E+02  0.7818608E-02  0.1745304E+00
          1   -1    0    0  501    0  0.00000000000E+00  0.00000000000E+00  0.77738936926E+01  0.77738950953E+01  0.46700000000E-02 0. -1.
         -1   -1    0    0    0  501 -0.00000000000E+00 -0.00000000000E+00 -0.12865124917E+02  0.12865125764E+02  0.46700000000E-02 0.  1.
       1023    2    1    2    0    0  0.00000000000E+00  0.00000000000E+00 -0.50912312241E+01  0.20639020860E+02  0.20001213630E+02 0.  0.
        -13    1    3    3    0    0 -0.44575830680E+01 -0.89515863940E+01 -0.25500417422E+01  0.10320602267E+02  0.10570000000E+00 0. -1.
         13    1    3    3    0    0  0.44575830680E+01  0.89515863940E+01 -0.25411894819E+01  0.10318418593E+02  0.10570000000E+00 0.  1.
<mgrwt>
<rscale>  0 0.20001214E+02</rscale>
<asrwt>0</asrwt>
<pdfrwt beam="1">  1        1 0.11959838E-02 0.20001214E+02</pdfrwt>
<pdfrwt beam="2">  1       -1 0.19792502E-02 0.20001214E+02</pdfrwt>
<totfact> 0.38216788E+06</totfact>
</mgrwt>
</event>
<event>
 5    1  0.2115795E-006  0.2000304E+02  0.7818608E-02  0.1745268E+00
         -1   -1    0    0    0  501 -0.00000000000E+00  0.00000000000E+00  0.36326042345E+01  0.36326072364E+01  0.46700000000E-02 0. -1.
          1   -1    0    0  501    0  0.00000000000E+00 -0.00000000000E+00 -0.27536827638E+02  0.27536828034E+02  0.46700000000E-02 0.  1.
       1023    2    1    2    0    0  0.00000000000E+00  0.00000000000E+00 -0.23904223403E+02  0.31169435270E+02  0.20003044732E+02 0.  0.
        -13    1    3    3    0    0 -0.75686703756E+01  0.65366669421E+01 -0.11826568074E+02  0.15488436682E+02  0.10570000000E+00 0.  1.
         13    1    3    3    0    0  0.75686703756E+01 -0.65366669421E+01 -0.12077655329E+02  0.15680998588E+02  0.10570000000E+00 0. -1.
<mgrwt>
<rscale>  0 0.20003045E+02</rscale>
<asrwt>0</asrwt>
<pdfrwt beam="2">  1        1 0.42364352E-02 0.20003045E+02</pdfrwt>
<pdfrwt beam="1">  1       -1 0.55886247E-03 0.20003045E+02</pdfrwt>
<totfact> 0.40270462E+06</totfact>
</mgrwt>
</event>
<event>
 5    1  0.2115795E-006  0.2000578E+02  0.7818608E-02  0.1745213E+00
          1   -1    0    0  501    0  0.00000000000E+00  0.00000000000E+00  0.39836814168E+01  0.39836841541E+01  0.46700000000E-02 0.  1.
         -1   -1    0    0    0  501 -0.00000000000E+00 -0.00000000000E+00 -0.25116901637E+02  0.25116902072E+02  0.46700000000E-02 0. -1.
       1023    2    1    2    0    0  0.00000000000E+00  0.00000000000E+00 -0.21133220221E+02  0.29100586226E+02  0.20005777210E+02 0.  0.
        -13    1    3    3    0    0 -0.63560642790E+00 -0.99821142369E+01 -0.10562550852E+02  0.14547345227E+02  0.10570000000E+00 0.  1.
         13    1    3    3    0    0  0.63560642790E+00  0.99821142369E+01 -0.10570669368E+02  0.14553240998E+02  0.10570000000E+00 0. -1.
<mgrwt>
<rscale>  0 0.20005777E+02</rscale>
<asrwt>0</asrwt>
<pdfrwt beam="1">  1        1 0.61287432E-03 0.20005777E+02</pdfrwt>
<pdfrwt beam="2">  1       -1 0.38641389E-02 0.20005777E+02</pdfrwt>
<totfact> 0.36898520E+06</totfact>
</mgrwt>
</event>
<event>
 4    1  0.2115795E-006  0.2088223E+02  0.7818608E-02  0.1728332E+00
          1   -1    0    0  501    0  0.00000000000E+00  0.00000000000E+00  0.27514940358E+02  0.27514940754E+02  0.46700000000E-02 0.  1.
         -1   -1    0    0    0  501 -0.00000000000E+00 -0.00000000000E+00 -0.39620961203E+01  0.39620988725E+01  0.46700000000E-02 0. -1.
        -13    1    1    2    0    0  0.49267095356E+01  0.91658950704E+01  0.10497725653E+02  0.14781729116E+02  0.10570000000E+00 0.  1.
         13    1    1    2    0    0 -0.49267095356E+01 -0.91658950704E+01  0.13055118585E+02  0.16695310511E+02  0.10570000000E+00 0. -1.
<mgrwt>
<rscale>  0 0.20882231E+02</rscale>
<asrwt>0</asrwt>
<pdfrwt beam="1">  1        1 0.42330681E-02 0.20882231E+02</pdfrwt>
<pdfrwt beam="2">  1       -1 0.60955348E-03 0.20882231E+02</pdfrwt>
<totfact> 0.36559789E+06</totfact>
</mgrwt>
</event>
<event>
 5    1  0.2115795E-006  0.2000276E+02  0.7818608E-02  0.1745273E+00
          1   -1    0    0  501    0  0.00000000000E+00  0.00000000000E+00  0.12545224422E+02  0.12545225291E+02  0.46700000000E-02 0.  1.
         -1   -1    0    0    0  501 -0.00000000000E+00 -0.00000000000E+00 -0.79733623199E+01  0.79733636875E+01  0.46700000000E-02 0. -1.
       1023    2    1    2    0    0  0.00000000000E+00  0.00000000000E+00  0.45718621019E+01  0.20518588979E+02  0.20002764074E+02 0.  0.
        -13    1    3    3    0    0  0.84525447904E+01 -0.53444199865E+01  0.23784326004E+01  0.10279905279E+02  0.10570000000E+00 0. -1.
         13    1    3    3    0    0 -0.84525447904E+01  0.53444199865E+01  0.21934295015E+01  0.10238683699E+02  0.10570000000E+00 0.  1.
<mgrwt>
<rscale>  0 0.20002764E+02</rscale>
<asrwt>0</asrwt>
<pdfrwt beam="1">  1        1 0.19300347E-02 0.20002764E+02</pdfrwt>
<pdfrwt beam="2">  1       -1 0.12266713E-02 0.20002764E+02</pdfrwt>
<totfact> 0.38958955E+06</totfact>
</mgrwt>
</event>
<event>
 5    1  0.2115795E-006  0.2000852E+02  0.7818608E-02  0.1745159E+00
         -1   -1    0    0    0  501 -0.00000000000E+00  0.00000000000E+00  0.42242141690E+02  0.42242141949E+02  0.46700000000E-02 0.  1.
          1   -1    0    0  501    0  0.00000000000E+00 -0.00000000000E+00 -0.23693187667E+01  0.23693233690E+01  0.46700000000E-02 0. -1.
       1023    2    1    2    0    0  0.00000000000E+00  0.00000000000E+00  0.39872822924E+02  0.44611465318E+02  0.20008518932E+02 0.  0.
        -13    1    3    3    0    0  0.62959143631E+01 -0.77716576380E+01  0.19508492927E+02  0.21923267751E+02  0.10570000000E+00 0.  1.
         13    1    3    3    0    0 -0.62959143631E+01  0.77716576380E+01  0.20364329997E+02  0.22688197566E+02  0.10570000000E+00 0. -1.
<mgrwt>
<rscale>  0 0.20008519E+02</rscale>
<asrwt>0</asrwt>
<pdfrwt beam="2">  1        1 0.36451093E-03 0.20008519E+02</pdfrwt>
<pdfrwt beam="1">  1       -1 0.64987917E-02 0.20008519E+02</pdfrwt>
<totfact> 0.35466055E+06</totfact>
</mgrwt>
</event>
<event>
 5    1  0.2115795E-006  0.2000737E+02  0.7818608E-02  0.1745182E+00
          1   -1    0    0  501    0  0.00000000000E+00  0.00000000000E+00  0.29334804009E+01  0.29334841182E+01  0.46700000000E-02 0.  1.
         -1   -1    0    0    0  501 -0.00000000000E+00 -0.00000000000E+00 -0.34114287510E+02  0.34114287830E+02  0.46700000000E-02 0. -1.
       1023    2    1    2    0    0  0.00000000000E+00  0.00000000000E+00 -0.31180807109E+02  0.37047771948E+02  0.20007365502E+02 0.  0.
        -13    1    3    3    0    0 -0.68837578002E+01  0.72540999761E+01 -0.15158482602E+02  0.18160364952E+02  0.10570000000E+00 0.  1.
         13    1    3    3    0    0  0.68837578002E+01 -0.72540999761E+01 -0.16022324507E+02  0.18887406996E+02  0.10570000000E+00 0. -1.
<mgrwt>
<rscale>  0 0.20007366E+02</rscale>
<asrwt>0</asrwt>
<pdfrwt beam="1">  1        1 0.45130501E-03 0.20007366E+02</pdfrwt>
<pdfrwt beam="2">  1       -1 0.52483520E-02 0.20007366E+02</pdfrwt>
<totfact> 0.36110852E+06</totfact>
</mgrwt>
</event>
<event>
 4    1  0.2115795E-006  0.2001855E+02  0.7818608E-02  0.1744959E+00
         -1   -1    0    0    0  501 -0.00000000000E+00  0.00000000000E+00  0.26697686218E+02  0.26697686626E+02  0.46700000000E-02 0.  1.
          1   -1    0    0  501    0  0.00000000000E+00 -0.00000000000E+00 -0.37525914599E+01  0.37525943657E+01  0.46700000000E-02 0. -1.
        -13    1    1    2    0    0 -0.52648819769E+01  0.85033065432E+01  0.12060061385E+02  0.15667847890E+02  0.10570000000E+00 0.  1.
         13    1    1    2    0    0  0.52648819769E+01 -0.85033065432E+01  0.10885033373E+02  0.14782433102E+02  0.10570000000E+00 0. -1.
<mgrwt>
<rscale>  0 0.20018547E+02</rscale>
<asrwt>0</asrwt>
<pdfrwt beam="2">  1        1 0.57732203E-03 0.20018547E+02</pdfrwt>
<pdfrwt beam="1">  1       -1 0.41073365E-02 0.20018547E+02</pdfrwt>
<totfact> 0.36702904E+06</totfact>
</mgrwt>
</event>
<event>
 5    1  0.2115795E-006  0.2000274E+02  0.7818608E-02  0.1745274E+00
         -1   -1    0    0    0  501 -0.00000000000E+00  0.00000000000E+00  0.12153766039E+02  0.12153766937E+02  0.46700000000E-02 0. -1.
          1   -1    0    0  501    0  0.00000000000E+00 -0.00000000000E+00 -0.82301540621E+01  0.82301553871E+01  0.46700000000E-02 0.  1.
       1023    2    1    2    0    0  0.00000000000E+00  0.00000000000E+00  0.39236119772E+01  0.20383922324E+02  0.20002738771E+02 0.  0.
        -13    1    3    3    0    0 -0.91555300699E+01  0.40232878938E+01  0.18852697495E+01  0.10177229036E+02  0.10570000000E+00 0.  1.
         13    1    3    3    0    0  0.91555300699E+01 -0.40232878938E+01  0.20383422277E+01  0.10206693287E+02  0.10570000000E+00 0. -1.
<mgrwt>
<rscale>  0 0.20002739E+02</rscale>
<asrwt>0</asrwt>
<pdfrwt beam="2">  1        1 0.12661777E-02 0.20002739E+02</pdfrwt>
<pdfrwt beam="1">  1       -1 0.18698103E-02 0.20002739E+02</pdfrwt>
<totfact> 0.38303649E+06</totfact>
</mgrwt>
</event>
<event>
 4    1  0.2115795E-006  0.2024164E+02  0.7818608E-02  0.1740565E+00
          1   -1    0    0  501    0  0.00000000000E+00  0.00000000000E+00  0.28966641284E+01  0.28966678929E+01  0.46700000000E-02 0.  1.
         -1   -1    0    0    0  501 -0.00000000000E+00 -0.00000000000E+00 -0.35361682771E+02  0.35361683079E+02  0.46700000000E-02 0. -1.
        -13    1    1    2    0    0 -0.19439875845E+01  0.98777369451E+01 -0.14276435999E+02  0.17469303713E+02  0.10570000000E+00 0.  1.
         13    1    1    2    0    0  0.19439875845E+01 -0.98777369451E+01 -0.18188582643E+02  0.20789047259E+02  0.10570000000E+00 0. -1.
<mgrwt>
<rscale>  0 0.20241640E+02</rscale>
<asrwt>0</asrwt>
<pdfrwt beam="1">  1        1 0.44564097E-03 0.20241640E+02</pdfrwt>
<pdfrwt beam="2">  1       -1 0.54402589E-02 0.20241640E+02</pdfrwt>
<totfact> 0.35097914E+06</totfact>
</mgrwt>
</event>
<event>
 5    1  0.2115795E-006  0.2000583E+02  0.7818608E-02  0.1745212E+00
          1   -1    0    0  501    0  0.00000000000E+00  0.00000000000E+00  0.54525611195E+02  0.54525611395E+02  0.46700000000E-02 0.  1.
         -1   -1    0    0    0  501 -0.00000000000E+00 -0.00000000000E+00 -0.18350664844E+01  0.18350724266E+01  0.46700000000E-02 0. -1.
       1023    2    1    2    0    0  0.00000000000E+00  0.00000000000E+00  0.52690544711E+02  0.56360683822E+02  0.20005828624E+02 0.  0.
        -13    1    3    3    0    0  0.10648593633E+01  0.99454575406E+01  0.26437472730E+02  0.28266538309E+02  0.10570000000E+00 0. -1.
         13    1    3    3    0    0 -0.10648593633E+01 -0.99454575406E+01  0.26253071980E+02  0.28094145512E+02  0.10570000000E+00 0.  1.
<mgrwt>
<rscale>  0 0.20005829E+02</rscale>
<asrwt>0</asrwt>
<pdfrwt beam="1">  1        1 0.83885558E-02 0.20005829E+02</pdfrwt>
<pdfrwt beam="2">  1       -1 0.28231840E-03 0.20005829E+02</pdfrwt>
<totfact> 0.41949851E+06</totfact>
</mgrwt>
</event>
<event>
 5    1  0.2115795E-006  0.2000370E+02  0.7818608E-02  0.1745254E+00
         -1   -1    0    0    0  501 -0.00000000000E+00  0.00000000000E+00  0.19555868497E+01  0.19555924257E+01  0.46700000000E-02 0.  1.
          1   -1    0    0  501    0  0.00000000000E+00 -0.00000000000E+00 -0.51154397824E+02  0.51154398037E+02  0.46700000000E-02 0. -1.
       1023    2    1    2    0    0  0.00000000000E+00  0.00000000000E+00 -0.49198810974E+02  0.53109990463E+02  0.20003701799E+02 0.  0.
        -13    1    3    3    0    0 -0.99675234582E+01 -0.80557453458E+00 -0.25022333449E+02  0.26946777506E+02  0.10570000000E+00 0. -1.
         13    1    3    3    0    0  0.99675234582E+01  0.80557453458E+00 -0.24176477525E+02  0.26163212957E+02  0.10570000000E+00 0.  1.
<mgrwt>
<rscale>  0 0.20003702E+02</rscale>
<asrwt>0</asrwt>
<pdfrwt beam="2">  1        1 0.78699068E-02 0.20003702E+02</pdfrwt>
<pdfrwt beam="1">  1       -1 0.30086000E-03 0.20003702E+02</pdfrwt>
<totfact> 0.41765120E+06</totfact>
</mgrwt>
</event>
<event>
 4    1  0.2115795E-006  0.2013243E+02  0.7818608E-02  0.1742707E+00
          1   -1    0    0  501    0  0.00000000000E+00  0.00000000000E+00  0.20452855592E+02  0.20452856125E+02  0.46700000000E-02 0. -1.
         -1   -1    0    0    0  501 -0.00000000000E+00 -0.00000000000E+00 -0.49542520395E+01  0.49542542405E+01  0.46700000000E-02 0.  1.
        -13    1    1    2    0    0 -0.72899771909E+01 -0.69284263408E+01  0.82705622076E+01  0.13021529508E+02  0.10570000000E+00 0.  1.
         13    1    1    2    0    0  0.72899771909E+01  0.69284263408E+01  0.72280413445E+01  0.12385580857E+02  0.10570000000E+00 0. -1.
<mgrwt>
<rscale>  0 0.20132425E+02</rscale>
<asrwt>0</asrwt>
<pdfrwt beam="1">  1        1 0.31465934E-02 0.20132425E+02</pdfrwt>
<pdfrwt beam="2">  1       -1 0.76219283E-03 0.20132425E+02</pdfrwt>
<totfact> 0.39159571E+06</totfact>
</mgrwt>
</event>
<event>
 4    1  0.2115795E-006  0.2005286E+02  0.7818608E-02  0.1744279E+00
         -1   -1    0    0    0  501 -0.00000000000E+00  0.00000000000E+00  0.28272008204E+01  0.28272046773E+01  0.46700000000E-02 0. -1.
          1   -1    0    0  501    0  0.00000000000E+00 -0.00000000000E+00 -0.35557847853E+02  0.35557848160E+02  0.46700000000E-02 0.  1.
        -13    1    1    2    0    0 -0.68570131701E+01 -0.73082555847E+01 -0.15794730826E+02  0.18705986306E+02  0.10570000000E+00 0. -1.
         13    1    1    2    0    0  0.68570131701E+01  0.73082555847E+01 -0.16935916207E+02  0.19679066532E+02  0.10570000000E+00 0.  1.
<mgrwt>
<rscale>  0 0.20052856E+02</rscale>
<asrwt>0</asrwt>
<pdfrwt beam="2">  1        1 0.54704381E-02 0.20052856E+02</pdfrwt>
<pdfrwt beam="1">  1       -1 0.43495432E-03 0.20052856E+02</pdfrwt>
<totfact> 0.40588007E+06</totfact>
</mgrwt>
</event>
<event>
 5    1  0.2115795E-006  0.2000171E+02  0.7818608E-02  0.1745294E+00
          1   -1    0    0  501    0  0.00000000000E+00  0.00000000000E+00  0.85106966492E+01  0.85106979305E+01  0.46700000000E-02 0. -1.
         -1   -1    0    0    0  501 -0.00000000000E+00 -0.00000000000E+00 -0.11751923032E+02  0.11751923960E+02  0.46700000000E-02 0.  1.
       1023    2    1    2    0    0  0.00000000000E+00  0.00000000000E+00 -0.32412263831E+01  0.20262621891E+02  0.20001707363E+02 0.  0.
        -13    1    3    3    0    0  0.99874261618E+01  0.50649540753E+00 -0.15941393688E+01  0.10127076170E+02  0.10570000000E+00 0. -1.
         13    1    3    3    0    0 -0.99874261618E+01 -0.50649540753E+00 -0.16470870143E+01  0.10135545721E+02  0.10570000000E+00 0.  1.
<mgrwt>
<rscale>  0 0.20001707E+02</rscale>
<asrwt>0</asrwt>
<pdfrwt beam="1">  1        1 0.13093381E-02 0.20001707E+02</pdfrwt>
<pdfrwt beam="2">  1       -1 0.18079883E-02 0.20001707E+02</pdfrwt>
<totfact> 0.38362332E+06</totfact>
</mgrwt>
</event>
<event>
 5    1  0.2115795E-006  0.2000168E+02  0.7818608E-02  0.1745295E+00
         -1   -1    0    0    0  501 -0.00000000000E+00  0.00000000000E+00  0.99961769042E+00  0.99962859898E+00  0.46700000000E-02 0. -1.
          1   -1    0    0  501    0  0.00000000000E+00 -0.00000000000E+00 -0.10005447988E+03  0.10005447998E+03  0.46700000000E-02 0.  1.
       1023    2    1    2    0    0  0.00000000000E+00  0.00000000000E+00 -0.99054862185E+02  0.10105410858E+03  0.20001678407E+02 0.  0.
        -13    1    3    3    0    0  0.63239185783E+01 -0.77468341828E+01 -0.49603424227E+02  0.50601543984E+02  0.10570000000E+00 0. -1.
         13    1    3    3    0    0 -0.63239185783E+01  0.77468341828E+01 -0.49451437958E+02  0.50452564599E+02  0.10570000000E+00 0.  1.
<mgrwt>
<rscale>  0 0.20001678E+02</rscale>
<asrwt>0</asrwt>
<pdfrwt beam="2">  1        1 0.15392990E-01 0.20001678E+02</pdfrwt>
<pdfrwt beam="1">  1       -1 0.15378826E-03 0.20001678E+02</pdfrwt>
<totfact> 0.44355101E+06</totfact>
</mgrwt>
</event>
<event>
 5    1  0.2115795E-006  0.2000197E+02  0.7818608E-02  0.1745289E+00
         -1   -1    0    0    0  501 -0.00000000000E+00  0.00000000000E+00  0.39010963514E+01  0.39010991466E+01  0.46700000000E-02 0. -1.
          1   -1    0    0  501    0  0.00000000000E+00 -0.00000000000E+00 -0.25638855511E+02  0.25638855936E+02  0.46700000000E-02 0.  1.
       1023    2    1    2    0    0  0.00000000000E+00  0.00000000000E+00 -0.21737759159E+02  0.29539955083E+02  0.20001969228E+02 0.  0.
        -13    1    3    3    0    0  0.73439929114E+01 -0.67874462399E+01 -0.10765897101E+02  0.14694195154E+02  0.10570000000E+00 0. -1.
         13    1    3    3    0    0 -0.73439929114E+01  0.67874462399E+01 -0.10971862058E+02  0.14845759929E+02  0.10570000000E+00 0.  1.
<mgrwt>
<rscale>  0 0.20001969E+02</rscale>
<asrwt>0</asrwt>
<pdfrwt beam="2">  1        1 0.39444395E-02 0.20001969E+02</pdfrwt>
<pdfrwt beam="1">  1       -1 0.60016893E-03 0.20001969E+02</pdfrwt>
<totfact> 0.40137805E+06</totfact>
</mgrwt>
</event>
<event>
 5    1  0.2115795E-006  0.2000293E+02  0.7818608E-02  0.1745270E+00
          1   -1    0    0  501    0  0.00000000000E+00  0.00000000000E+00  0.16229808968E+01  0.16229876155E+01  0.46700000000E-02 0. -1.
         -1   -1    0    0    0  501 -0.00000000000E+00 -0.00000000000E+00 -0.61632969858E+02  0.61632970035E+02  0.46700000000E-02 0.  1.
       1023    2    1    2    0    0  0.00000000000E+00  0.00000000000E+00 -0.60009988961E+02  0.63255957651E+02  0.20002934863E+02 0.  0.
        -13    1    3    3    0    0  0.14172819064E+01 -0.98992911999E+01 -0.29637237574E+02  0.31279093301E+02  0.10570000000E+00 0.  1.
         13    1    3    3    0    0 -0.14172819064E+01  0.98992911999E+01 -0.30372751388E+02  0.31976864349E+02  0.10570000000E+00 0. -1.
<mgrwt>
<rscale>  0 0.20002935E+02</rscale>
<asrwt>0</asrwt>
<pdfrwt beam="1">  1        1 0.24968995E-03 0.20002935E+02</pdfrwt>
<pdfrwt beam="2">  1       -1 0.94819941E-02 0.20002935E+02</pdfrwt>
<totfact> 0.34124473E+06</totfact>
</mgrwt>
</event>
<event>
 5    1  0.2115795E-006  0.2000182E+02  0.7818608E-02  0.1745292E+00
         -1   -1    0    0    0  501 -0.00000000000E+00  0.00000000000E+00  0.95609297585E+00  0.95610438100E+00  0.46700000000E-02 0. -1.
          1   -1    0    0  501    0  0.00000000000E+00 -0.00000000000E+00 -0.10461073005E+03  0.10461073015E+03  0.46700000000E-02 0.  1.
       1023    2    1    2    0    0  0.00000000000E+00  0.00000000000E+00 -0.10365463707E+03  0.10556683453E+03  0.20001819088E+02 0.  0.
        -13    1    3    3    0    0  0.98322772658E+01  0.18253846327E+01 -0.52018630905E+02  0.52971264276E+02  0.10570000000E+00 0.  1.
         13    1    3    3    0    0 -0.98322772658E+01 -0.18253846327E+01 -0.51636006168E+02  0.52595570258E+02  0.10570000000E+00 0. -1.
<mgrwt>
<rscale>  0 0.20001819E+02</rscale>
<asrwt>0</asrwt>
<pdfrwt beam="2">  1        1 0.16093950E-01 0.20001819E+02</pdfrwt>
<pdfrwt beam="1">  1       -1 0.14709220E-03 0.20001819E+02</pdfrwt>
<totfact> 0.44573675E+06</totfact>
</mgrwt>
</event>
<event>
 5    1  0.2115795E-006  0.2000160E+02  0.7818608E-02  0.1745296E+00
          1   -1    0    0  501    0  0.00000000000E+00  0.00000000000E+00  0.12150347715E+01  0.12150437461E+01  0.46700000000E-02 0.  1.
         -1   -1    0    0    0  501 -0.00000000000E+00 -0.00000000000E+00 -0.82315037368E+02  0.82315037500E+02  0.46700000000E-02 0. -1.
       1023    2    1    2    0    0  0.00000000000E+00  0.00000000000E+00 -0.81100002596E+02  0.83530081246E+02  0.20001601234E+02 0.  0.
        -13    1    3    3    0    0 -0.21392692261E+01  0.97686259502E+01 -0.40750922847E+02  0.41960116911E+02  0.10570000000E+00 0.  1.
         13    1    3    3    0    0  0.21392692261E+01 -0.97686259502E+01 -0.40349079749E+02  0.41569964335E+02  0.10570000000E+00 0. -1.
<mgrwt>
<rscale>  0 0.20001601E+02</rscale>
<asrwt>0</asrwt>
<pdfrwt beam="1">  1        1 0.18692919E-03 0.20001601E+02</pdfrwt>
<pdfrwt beam="2">  1       -1 0.12663848E-01 0.20001601E+02</pdfrwt>
<totfact> 0.32851691E+06</totfact>
</mgrwt>
</event>
<event>
 5    1  0.2115795E-006  0.2001165E+02  0.7818608E-02  0.1745097E+00
         -1   -1    0    0    0  501 -0.00000000000E+00  0.00000000000E+00  0.17840050505E+01  0.17840111628E+01  0.46700000000E-02 0.  1.
          1   -1    0    0  501    0  0.00000000000E+00 -0.00000000000E+00 -0.56118857653E+02  0.56118857848E+02  0.46700000000E-02 0. -1.
       1023    2    1    2    0    0  0.00000000000E+00  0.00000000000E+00 -0.54334852603E+02  0.57902869011E+02  0.20011647415E+02 0.  0.
        -13    1    3    3    0    0  0.67482472118E+01 -0.73801669006E+01 -0.28080731512E+02  0.29808461192E+02  0.10570000000E+00 0. -1.
         13    1    3    3    0    0 -0.67482472118E+01  0.73801669006E+01 -0.26254121091E+02  0.28094407819E+02  0.10570000000E+00 0.  1.
<mgrwt>
<rscale>  0 0.20011647E+02</rscale>
<asrwt>0</asrwt>
<pdfrwt beam="2">  1        1 0.86336695E-02 0.20011647E+02</pdfrwt>
<pdfrwt beam="1">  1       -1 0.27446284E-03 0.20011647E+02</pdfrwt>
<totfact> 0.42013553E+06</totfact>
</mgrwt>
</event>
<event>
 5    1  0.2115795E-006  0.2000125E+02  0.7818608E-02  0.1745303E+00
          1   -1    0    0  501    0  0.00000000000E+00  0.00000000000E+00  0.74201344879E+02  0.74201345026E+02  0.46700000000E-02 0. -1.
         -1   -1    0    0    0  501 -0.00000000000E+00 -0.00000000000E+00 -0.13478485050E+01  0.13478565952E+01  0.46700000000E-02 0.  1.
       1023    2    1    2    0    0  0.00000000000E+00  0.00000000000E+00  0.72853496374E+02  0.75549201621E+02  0.20001248253E+02 0.  0.
        -13    1    3    3    0    0 -0.74033730636E+01 -0.67224521972E+01  0.36412531200E+02  0.37760891107E+02  0.10570000000E+00 0. -1.
         13    1    3    3    0    0  0.74033730636E+01  0.67224521972E+01  0.36440965174E+02  0.37788310515E+02  0.10570000000E+00 0.  1.
<mgrwt>
<rscale>  0 0.20001248E+02</rscale>
<asrwt>0</asrwt>
<pdfrwt beam="1">  1        1 0.11415592E-01 0.20001248E+02</pdfrwt>
<pdfrwt beam="2">  1       -1 0.20736194E-03 0.20001248E+02</pdfrwt>
<totfact> 0.43051151E+06</totfact>
</mgrwt>
</event>
<event>
 5    1  0.2115795E-006  0.2000126E+02  0.7818608E-02  0.1745303E+00
          1   -1    0    0  501    0  0.00000000000E+00  0.00000000000E+00  0.43562889417E+02  0.43562889668E+02  0.46700000000E-02 0.  1.
         -1   -1    0    0    0  501 -0.00000000000E+00 -0.00000000000E+00 -0.22958179654E+01  0.22958227151E+01  0.46700000000E-02 0. -1.
       1023    2    1    2    0    0  0.00000000000E+00  0.00000000000E+00  0.41267071452E+02  0.45858712383E+02  0.20001257840E+02 0.  0.
        -13    1    3    3    0    0 -0.98485395404E+01 -0.17342472776E+01  0.20651532180E+02  0.22945550736E+02  0.10570000000E+00 0. -1.
         13    1    3    3    0    0  0.98485395404E+01  0.17342472776E+01  0.20615539272E+02  0.22913161647E+02  0.10570000000E+00 0.  1.
<mgrwt>
<rscale>  0 0.20001258E+02</rscale>
<asrwt>0</asrwt>
<pdfrwt beam="1">  1        1 0.67019836E-02 0.20001258E+02</pdfrwt>
<pdfrwt beam="2">  1       -1 0.35320314E-03 0.20001258E+02</pdfrwt>
<totfact> 0.41324472E+06</totfact>
</mgrwt>
</event>
<event>
 5    1  0.2115795E-006  0.2000741E+02  0.7818608E-02  0.1745181E+00
          1   -1    0    0  501    0  0.00000000000E+00  0.00000000000E+00  0.21418476540E+02  0.21418477049E+02  0.46700000000E-02 0. -1.
         -1   -1    0    0    0  501 -0.00000000000E+00 -0.00000000000E+00 -0.46723259136E+01  0.46723282474E+01  0.46700000000E-02 0.  1.
       1023    2    1    2    0    0  0.00000000000E+00  0.00000000000E+00  0.16746150626E+02  0.26090805296E+02  0.20007412632E+02 0.  0.
        -13    1    3    3    0    0 -0.54370372664E+01  0.83965215905E+01  0.83674653400E+01  0.13041801937E+02  0.10570000000E+00 0. -1.
         13    1    3    3    0    0  0.54370372664E+01 -0.83965215905E+01  0.83786852861E+01  0.13049003359E+02  0.10570000000E+00 0.  1.
<mgrwt>
<rscale>  0 0.20007413E+02</rscale>
<asrwt>0</asrwt>
<pdfrwt beam="1">  1        1 0.32951504E-02 0.20007413E+02</pdfrwt>
<pdfrwt beam="2">  1       -1 0.71881960E-03 0.20007413E+02</pdfrwt>
<totfact> 0.39789372E+06</totfact>
</mgrwt>
</event>
<event>
 5    1  0.2115795E-006  0.2000199E+02  0.7818608E-02  0.1745288E+00
          1   -1    0    0  501    0  0.00000000000E+00  0.00000000000E+00  0.17526567811E+02  0.17526568433E+02  0.46700000000E-02 0.  1.
         -1   -1    0    0    0  501 -0.00000000000E+00 -0.00000000000E+00 -0.57067595369E+01  0.57067614477E+01  0.46700000000E-02 0. -1.
       1023    2    1    2    0    0  0.00000000000E+00  0.00000000000E+00  0.11819808274E+02  0.23233329880E+02  0.20001993643E+02 0.  0.
        -13    1    3    3    0    0 -0.80012640339E+01  0.59989945522E+01  0.58813772848E+01  0.11602152086E+02  0.10570000000E+00 0.  1.
         13    1    3    3    0    0  0.80012640339E+01 -0.59989945522E+01  0.59384309888E+01  0.11631177794E+02  0.10570000000E+00 0. -1.
<mgrwt>
<rscale>  0 0.20001994E+02</rscale>
<asrwt>0</asrwt>
<pdfrwt beam="1">  1        1 0.26963952E-02 0.20001994E+02</pdfrwt>
<pdfrwt beam="2">  1       -1 0.87796320E-03 0.20001994E+02</pdfrwt>
<totfact> 0.39480690E+06</totfact>
</mgrwt>
</event>
<event>
 5    1  0.2115795E-006  0.2001141E+02  0.7818608E-02  0.1745101E+00
         -1   -1    0    0    0  501 -0.00000000000E+00  0.00000000000E+00  0.24445848486E+02  0.24445848933E+02  0.46700000000E-02 0.  1.
          1   -1    0    0  501    0  0.00000000000E+00 -0.00000000000E+00 -0.40953402232E+01  0.40953428859E+01  0.46700000000E-02 0. -1.
       1023    2    1    2    0    0  0.00000000000E+00  0.00000000000E+00  0.20350508263E+02  0.28541191818E+02  0.20011407843E+02 0.  0.
        -13    1    3    3    0    0 -0.87996933125E+01  0.47514164646E+01  0.10608742983E+02  0.14579683158E+02  0.10570000000E+00 0.  1.
         13    1    3    3    0    0  0.87996933125E+01 -0.47514164646E+01  0.97417652802E+01  0.13961508661E+02  0.10570000000E+00 0. -1.
<mgrwt>
<rscale>  0 0.20011408E+02</rscale>
<asrwt>0</asrwt>
<pdfrwt beam="2">  1        1 0.63005257E-03 0.20011408E+02</pdfrwt>
<pdfrwt beam="1">  1       -1 0.37609001E-02 0.20011408E+02</pdfrwt>
<totfact> 0.36937912E+06</totfact>
</mgrwt>
</event>
<event>
 5    1  0.2115795E-006  0.2000741E+02  0.7818608E-02  0.1745181E+00
         -1   -1    0    0    0  501 -0.00000000000E+00  0.00000000000E+00  0.10825720859E+02  0.10825721867E+02  0.46700000000E-02 0. -1.
          1   -1    0    0  501    0  0.00000000000E+00 -0.00000000000E+00 -0.92441001838E+01  0.92441013634E+01  0.46700000000E-02 0.  1.
       1023    2    1    2    0    0  0.00000000000E+00  0.00000000000E+00  0.15816206755E+01  0.20069823230E+02  0.20007405642E+02 0.  0.
        -13    1    3    3    0    0  0.51706995478E+01  0.85619147910E+01  0.93401051369E+00  0.10046196635E+02  0.10570000000E+00 0. -1.
         13    1    3    3    0    0 -0.51706995478E+01 -0.85619147910E+01  0.64761016177E+00  0.10023626595E+02  0.10570000000E+00 0.  1.
<mgrwt>
<rscale>  0 0.20007406E+02</rscale>
<asrwt>0</asrwt>
<pdfrwt beam="2">  1        1 0.14221694E-02 0.20007406E+02</pdfrwt>
<pdfrwt beam="1">  1       -1 0.16654957E-02 0.20007406E+02</pdfrwt>
<totfact> 0.38468952E+06</totfact>
</mgrwt>
</event>
<event>
 5    1  0.2115795E-006  0.2000237E+02  0.7818608E-02  0.1745281E+00
         -1   -1    0    0    0  501 -0.00000000000E+00  0.00000000000E+00  0.28356496346E+01  0.28356534800E+01  0.46700000000E-02 0. -1.
          1   -1    0    0  501    0  0.00000000000E+00 -0.00000000000E+00 -0.35273606048E+02  0.35273606357E+02  0.46700000000E-02 0.  1.
       1023    2    1    2    0    0  0.00000000000E+00  0.00000000000E+00 -0.32437956413E+02  0.38109259837E+02  0.20002366586E+02 0.  0.
        -13    1    3    3    0    0  0.96596052721E+01 -0.25873367836E+01 -0.16411483861E+02  0.19218487471E+02  0.10570000000E+00 0. -1.
         13    1    3    3    0    0 -0.96596052721E+01  0.25873367836E+01 -0.16026472552E+02  0.18890772366E+02  0.10570000000E+00 0.  1.
<mgrwt>
<rscale>  0 0.20002367E+02</rscale>
<asrwt>0</asrwt>
<pdfrwt beam="2">  1        1 0.54267086E-02 0.20002367E+02</pdfrwt>
<pdfrwt beam="1">  1       -1 0.43625414E-03 0.20002367E+02</pdfrwt>
<totfact> 0.40798379E+06</totfact>
</mgrwt>
</event>
<event>
 4    1  0.2115795E-006  0.2064423E+02  0.7818608E-02  0.1732812E+00
          1   -1    0    0  501    0  0.00000000000E+00  0.00000000000E+00  0.17114013529E+02  0.17114014166E+02  0.46700000000E-02 0.  1.
         -1   -1    0    0    0  501 -0.00000000000E+00 -0.00000000000E+00 -0.62256626119E+01  0.62256643634E+01  0.46700000000E-02 0. -1.
        -13    1    1    2    0    0 -0.84878968042E+01 -0.57305283368E+01  0.39912403734E+01  0.10992020714E+02  0.10570000000E+00 0. -1.
         13    1    1    2    0    0  0.84878968042E+01  0.57305283368E+01  0.68971105434E+01  0.12347657815E+02  0.10570000000E+00 0.  1.
<mgrwt>
<rscale>  0 0.20644234E+02</rscale>
<asrwt>0</asrwt>
<pdfrwt beam="1">  1        1 0.26329254E-02 0.20644234E+02</pdfrwt>
<pdfrwt beam="2">  1       -1 0.95779442E-03 0.20644234E+02</pdfrwt>
<totfact> 0.36728047E+06</totfact>
</mgrwt>
</event>
<event>
 5    1  0.2115795E-006  0.2000376E+02  0.7818608E-02  0.1745253E+00
         -1   -1    0    0    0  501 -0.00000000000E+00  0.00000000000E+00  0.19643499939E+01  0.19643555451E+01  0.46700000000E-02 0.  1.
          1   -1    0    0  501    0  0.00000000000E+00 -0.00000000000E+00 -0.50926493523E+02  0.50926493737E+02  0.46700000000E-02 0. -1.
       1023    2    1    2    0    0  0.00000000000E+00  0.00000000000E+00 -0.48962143529E+02  0.52890849283E+02  0.20003760617E+02 0.  0.
        -13    1    3    3    0    0  0.10109801430E+01  0.99488861217E+01 -0.24890867263E+02  0.26824780735E+02  0.10570000000E+00 0. -1.
         13    1    3    3    0    0 -0.10109801430E+01 -0.99488861217E+01 -0.24071276267E+02  0.26066068547E+02  0.10570000000E+00 0.  1.
<mgrwt>
<rscale>  0 0.20003761E+02</rscale>
<asrwt>0</asrwt>
<pdfrwt beam="2">  1        1 0.78348446E-02 0.20003761E+02</pdfrwt>
<pdfrwt beam="1">  1       -1 0.30220817E-03 0.20003761E+02</pdfrwt>
<totfact> 0.41751566E+06</totfact>
</mgrwt>
</event>
<event>
 5    1  0.2115795E-006  0.2000134E+02  0.7818608E-02  0.1745301E+00
          1   -1    0    0  501    0  0.00000000000E+00  0.00000000000E+00  0.10715245608E+01  0.10715347373E+01  0.46700000000E-02 0. -1.
         -1   -1    0    0    0  501 -0.00000000000E+00 -0.00000000000E+00 -0.93337063390E+02  0.93337063507E+02  0.46700000000E-02 0.  1.
       1023    2    1    2    0    0  0.00000000000E+00  0.00000000000E+00 -0.92265538829E+02  0.94408598244E+02  0.20001344129E+02 0.  0.
        -13    1    3    3    0    0 -0.80558693157E+01  0.59249336041E+01 -0.46038295143E+02  0.47111969401E+02  0.10570000000E+00 0. -1.
         13    1    3    3    0    0  0.80558693157E+01 -0.59249336041E+01 -0.46227243686E+02  0.47296628843E+02  0.10570000000E+00 0.  1.
<mgrwt>
<rscale>  0 0.20001344E+02</rscale>
<asrwt>0</asrwt>
<pdfrwt beam="1">  1        1 0.16485080E-03 0.20001344E+02</pdfrwt>
<pdfrwt beam="2">  1       -1 0.14359543E-01 0.20001344E+02</pdfrwt>
<totfact> 0.32226275E+06</totfact>
</mgrwt>
</event>
<event>
 5    1  0.2115795E-006  0.2000141E+02  0.7818608E-02  0.1745300E+00
         -1   -1    0    0    0  501 -0.00000000000E+00  0.00000000000E+00  0.85826462873E+02  0.85826463000E+02  0.46700000000E-02 0.  1.
          1   -1    0    0  501    0  0.00000000000E+00 -0.00000000000E+00 -0.11653017331E+01  0.11653110907E+01  0.46700000000E-02 0. -1.
       1023    2    1    2    0    0  0.00000000000E+00  0.00000000000E+00  0.84661161140E+02  0.86991774091E+02  0.20001413798E+02 0.  0.
        -13    1    3    3    0    0 -0.94989720913E+01  0.31257825999E+01  0.42524029853E+02  0.43684153592E+02  0.10570000000E+00 0. -1.
         13    1    3    3    0    0  0.94989720913E+01 -0.31257825999E+01  0.42137131287E+02  0.43307620498E+02  0.10570000000E+00 0.  1.
<mgrwt>
<rscale>  0 0.20001414E+02</rscale>
<asrwt>0</asrwt>
<pdfrwt beam="2">  1        1 0.17927793E-03 0.20001414E+02</pdfrwt>
<pdfrwt beam="1">  1       -1 0.13204071E-01 0.20001414E+02</pdfrwt>
<totfact> 0.32649167E+06</totfact>
</mgrwt>
</event>
<event>
 4    1  0.2115795E-006  0.2005219E+02  0.7818608E-02  0.1744292E+00
         -1   -1    0    0    0  501 -0.00000000000E+00  0.00000000000E+00  0.19131147101E+01  0.19131204099E+01  0.46700000000E-02 0. -1.
          1   -1    0    0  501    0  0.00000000000E+00 -0.00000000000E+00 -0.52543829924E+02  0.52543830132E+02  0.46700000000E-02 0.  1.
        -13    1    1    2    0    0 -0.95108091957E+01 -0.31503991830E+01 -0.24332958412E+02  0.26315101066E+02  0.10570000000E+00 0. -1.
         13    1    1    2    0    0  0.95108091957E+01  0.31503991830E+01 -0.26297756803E+02  0.28141849476E+02  0.10570000000E+00 0.  1.
<mgrwt>
<rscale>  0 0.20052185E+02</rscale>
<asrwt>0</asrwt>
<pdfrwt beam="2">  1        1 0.80836655E-02 0.20052185E+02</pdfrwt>
<pdfrwt beam="1">  1       -1 0.29432583E-03 0.20052185E+02</pdfrwt>
<totfact> 0.41621292E+06</totfact>
</mgrwt>
</event>
<event>
 5    1  0.2115795E-006  0.2000271E+02  0.7818608E-02  0.1745274E+00
          1   -1    0    0  501    0  0.00000000000E+00  0.00000000000E+00  0.45535305337E+01  0.45535329285E+01  0.46700000000E-02 0. -1.
         -1   -1    0    0    0  501 -0.00000000000E+00 -0.00000000000E+00 -0.21966926354E+02  0.21966926851E+02  0.46700000000E-02 0.  1.
       1023    2    1    2    0    0  0.00000000000E+00  0.00000000000E+00 -0.17413395821E+02  0.26520459779E+02  0.20002710639E+02 0.  0.
        -13    1    3    3    0    0  0.18776002518E+01 -0.98228852605E+01 -0.87576728761E+01  0.13293700171E+02  0.10570000000E+00 0. -1.
         13    1    3    3    0    0 -0.18776002518E+01  0.98228852605E+01 -0.86557229446E+01  0.13226759608E+02  0.10570000000E+00 0.  1.
<mgrwt>
<rscale>  0 0.20002711E+02</rscale>
<asrwt>0</asrwt>
<pdfrwt beam="1">  1        1 0.70054339E-03 0.20002711E+02</pdfrwt>
<pdfrwt beam="2">  1       -1 0.33795273E-02 0.20002711E+02</pdfrwt>
<totfact> 0.37209709E+06</totfact>
</mgrwt>
</event>
<event>
 4    1  0.2115795E-006  0.2425043E+02  0.7818608E-02  0.1672008E+00
         -1   -1    0    0    0  501 -0.00000000000E+00  0.00000000000E+00  0.36064607947E+02  0.36064608250E+02  0.46700000000E-02 0. -1.
          1   -1    0    0  501    0  0.00000000000E+00 -0.00000000000E+00 -0.40765928437E+01  0.40765955185E+01  0.46700000000E-02 0.  1.
        -13    1    1    2    0    0 -0.10898922192E+02 -0.27658368757E+01  0.23501977018E+02  0.26053607328E+02  0.10570000000E+00 0. -1.
         13    1    1    2    0    0  0.10898922192E+02  0.27658368757E+01  0.84860380858E+01  0.14087596440E+02  0.10570000000E+00 0.  1.
<mgrwt>
<rscale>  0 0.24250425E+02</rscale>
<asrwt>0</asrwt>
<pdfrwt beam="2">  1        1 0.62716839E-03 0.24250425E+02</pdfrwt>
<pdfrwt beam="1">  1       -1 0.55484012E-02 0.24250425E+02</pdfrwt>
<totfact> 0.23393761E+06</totfact>
</mgrwt>
</event>
<event>
 5    1  0.2115795E-006  0.2000586E+02  0.7818608E-02  0.1745211E+00
          1   -1    0    0  501    0  0.00000000000E+00  0.00000000000E+00  0.46836973870E+02  0.46836974103E+02  0.46700000000E-02 0.  1.
         -1   -1    0    0    0  501 -0.00000000000E+00 -0.00000000000E+00 -0.21363147083E+01  0.21363198127E+01  0.46700000000E-02 0. -1.
       1023    2    1    2    0    0  0.00000000000E+00  0.00000000000E+00  0.44700659162E+02  0.48973293916E+02  0.20005863827E+02 0.  0.
        -13    1    3    3    0    0  0.67587830745E+01  0.73727057533E+01  0.22589372566E+02  0.24704834834E+02  0.10570000000E+00 0.  1.
         13    1    3    3    0    0 -0.67587830745E+01 -0.73727057533E+01  0.22111286596E+02  0.24268459082E+02  0.10570000000E+00 0. -1.
<mgrwt>
<rscale>  0 0.20005864E+02</rscale>
<asrwt>0</asrwt>
<pdfrwt beam="1">  1        1 0.72056889E-02 0.20005864E+02</pdfrwt>
<pdfrwt beam="2">  1       -1 0.32866420E-03 0.20005864E+02</pdfrwt>
<totfact> 0.41500661E+06</totfact>
</mgrwt>
</event>
<event>
 5    1  0.2115795E-006  0.2001144E+02  0.7818608E-02  0.1745101E+00
         -1   -1    0    0    0  501 -0.00000000000E+00  0.00000000000E+00  0.10626049547E+03  0.10626049557E+03  0.46700000000E-02 0.  1.
          1   -1    0    0  501    0  0.00000000000E+00 -0.00000000000E+00 -0.94215433269E+00  0.94216590657E+00  0.46700000000E-02 0. -1.
       1023    2    1    2    0    0  0.00000000000E+00  0.00000000000E+00  0.10531834114E+03  0.10720266148E+03  0.20011437937E+02 0.  0.
        -13    1    3    3    0    0 -0.82800770043E+01 -0.56163578322E+01  0.52709735021E+02  0.53651006411E+02  0.10570000000E+00 0.  1.
         13    1    3    3    0    0  0.82800770043E+01  0.56163578322E+01  0.52608606117E+02  0.53551655069E+02  0.10570000000E+00 0. -1.
<mgrwt>
<rscale>  0 0.20011438E+02</rscale>
<asrwt>0</asrwt>
<pdfrwt beam="2">  1        1 0.14494773E-03 0.20011438E+02</pdfrwt>
<pdfrwt beam="1">  1       -1 0.16347768E-01 0.20011438E+02</pdfrwt>
<totfact> 0.31496460E+06</totfact>
</mgrwt>
</event>
<event>
 5    1  0.2115795E-006  0.2000481E+02  0.7818608E-02  0.1745232E+00
         -1   -1    0    0    0  501 -0.00000000000E+00  0.00000000000E+00  0.23427359695E+02  0.23427360160E+02  0.46700000000E-02 0. -1.
          1   -1    0    0  501    0  0.00000000000E+00 -0.00000000000E+00 -0.42705671964E+01  0.42705697498E+01  0.46700000000E-02 0.  1.
       1023    2    1    2    0    0  0.00000000000E+00  0.00000000000E+00  0.19156792498E+02  0.27697929910E+02  0.20004814982E+02 0.  0.
        -13    1    3    3    0    0  0.53957624929E+01  0.84195431476E+01  0.93230074470E+01  0.13672329723E+02  0.10570000000E+00 0.  1.
         13    1    3    3    0    0 -0.53957624929E+01 -0.84195431476E+01  0.98337850515E+01  0.14025600188E+02  0.10570000000E+00 0. -1.
<mgrwt>
<rscale>  0 0.20004815E+02</rscale>
<asrwt>0</asrwt>
<pdfrwt beam="2">  1        1 0.65701058E-03 0.20004815E+02</pdfrwt>
<pdfrwt beam="1">  1       -1 0.36042094E-02 0.20004815E+02</pdfrwt>
<totfact> 0.37060543E+06</totfact>
</mgrwt>
</event>
<event>
 4    1  0.2115795E-006  0.2004088E+02  0.7818608E-02  0.1744516E+00
          1   -1    0    0  501    0  0.00000000000E+00  0.00000000000E+00  0.95172666307E+02  0.95172666422E+02  0.46700000000E-02 0.  1.
         -1   -1    0    0    0  501 -0.00000000000E+00 -0.00000000000E+00 -0.10550161091E+01  0.10550264448E+01  0.46700000000E-02 0. -1.
        -13    1    1    2    0    0 -0.99642347941E+01 -0.10160787944E+01  0.48413814950E+02  0.49439124604E+02  0.10570000000E+00 0. -1.
         13    1    1    2    0    0  0.99642347941E+01  0.10160787944E+01  0.45703835249E+02  0.46788568263E+02  0.10570000000E+00 0.  1.
<mgrwt>
<rscale>  0 0.20040878E+02</rscale>
<asrwt>0</asrwt>
<pdfrwt beam="1">  1        1 0.14641954E-01 0.20040878E+02</pdfrwt>
<pdfrwt beam="2">  1       -1 0.16231093E-03 0.20040878E+02</pdfrwt>
<totfact> 0.43926269E+06</totfact>
</mgrwt>
</event>
<event>
 4    1  0.2115795E-006  0.2120184E+02  0.7818608E-02  0.1722433E+00
         -1   -1    0    0    0  501 -0.00000000000E+00  0.00000000000E+00  0.33687519531E+01  0.33687551901E+01  0.46700000000E-02 0. -1.
          1   -1    0    0  501    0  0.00000000000E+00 -0.00000000000E+00 -0.33359383343E+02  0.33359383670E+02  0.46700000000E-02 0.  1.
        -13    1    1    2    0    0 -0.10527839831E+02  0.59581678219E-01 -0.17137656471E+02  0.20113413517E+02  0.10570000000E+00 0.  1.
         13    1    1    2    0    0  0.10527839831E+02 -0.59581678219E-01 -0.12852974919E+02  0.16614725344E+02  0.10570000000E+00 0. -1.
<mgrwt>
<rscale>  0 0.21201845E+02</rscale>
<asrwt>0</asrwt>
<pdfrwt beam="2">  1        1 0.51322129E-02 0.21201845E+02</pdfrwt>
<pdfrwt beam="1">  1       -1 0.51826983E-03 0.21201845E+02</pdfrwt>
<totfact> 0.35687846E+06</totfact>
</mgrwt>
</event>
<event>
 5    1  0.2115795E-006  0.2000135E+02  0.7818608E-02  0.1745301E+00
         -1   -1    0    0    0  501 -0.00000000000E+00  0.00000000000E+00  0.10667631684E+03  0.10667631694E+03  0.46700000000E-02 0.  1.
          1   -1    0    0  501    0  0.00000000000E+00 -0.00000000000E+00 -0.93753568982E+00  0.93754732072E+00  0.46700000000E-02 0. -1.
       1023    2    1    2    0    0  0.00000000000E+00  0.00000000000E+00  0.10573878115E+03  0.10761386426E+03  0.20001348516E+02 0.  0.
        -13    1    3    3    0    0  0.38107764205E+01 -0.92455457661E+01  0.52941512569E+02  0.53877797459E+02  0.10570000000E+00 0. -1.
         13    1    3    3    0    0 -0.38107764205E+01  0.92455457661E+01  0.52797268580E+02  0.53736066802E+02  0.10570000000E+00 0.  1.
<mgrwt>
<rscale>  0 0.20001349E+02</rscale>
<asrwt>0</asrwt>
<pdfrwt beam="2">  1        1 0.14423716E-03 0.20001349E+02</pdfrwt>
<pdfrwt beam="1">  1       -1 0.16411742E-01 0.20001349E+02</pdfrwt>
<totfact> 0.31509507E+06</totfact>
</mgrwt>
</event>
<event>
 5    1  0.2115795E-006  0.2000345E+02  0.7818608E-02  0.1745260E+00
         -1   -1    0    0    0  501 -0.00000000000E+00  0.00000000000E+00  0.13461868170E+01  0.13461949172E+01  0.46700000000E-02 0.  1.
          1   -1    0    0  501    0  0.00000000000E+00 -0.00000000000E+00 -0.74309285600E+02  0.74309285747E+02  0.46700000000E-02 0. -1.
       1023    2    1    2    0    0  0.00000000000E+00  0.00000000000E+00 -0.72963098783E+02  0.75655480664E+02  0.20003448965E+02 0.  0.
        -13    1    3    3    0    0 -0.83460983944E+01  0.55096062889E+01 -0.36099568882E+02  0.37459353516E+02  0.10570000000E+00 0.  1.
         13    1    3    3    0    0  0.83460983944E+01 -0.55096062889E+01 -0.36863529901E+02  0.38196127148E+02  0.10570000000E+00 0. -1.
<mgrwt>
<rscale>  0 0.20003449E+02</rscale>
<asrwt>0</asrwt>
<pdfrwt beam="2">  1        1 0.11432195E-01 0.20003449E+02</pdfrwt>
<pdfrwt beam="1">  1       -1 0.20710636E-03 0.20003449E+02</pdfrwt>
<totfact> 0.43046353E+06</totfact>
</mgrwt>
</event>
<event>
 5    1  0.2115795E-006  0.2000528E+02  0.7818608E-02  0.1745223E+00
          1   -1    0    0  501    0  0.00000000000E+00  0.00000000000E+00  0.94534318898E+01  0.94534330433E+01  0.46700000000E-02 0. -1.
         -1   -1    0    0    0  501 -0.00000000000E+00 -0.00000000000E+00 -0.10583750156E+02  0.10583751186E+02  0.46700000000E-02 0.  1.
       1023    2    1    2    0    0  0.00000000000E+00  0.00000000000E+00 -0.11303182664E+01  0.20037184230E+02  0.20005277616E+02 0.  0.
        -13    1    3    3    0    0  0.69387139084E+01 -0.72021952319E+01 -0.72111157200E+00  0.10027389553E+02  0.10570000000E+00 0.  1.
         13    1    3    3    0    0 -0.69387139084E+01  0.72021952319E+01 -0.40920669439E+00  0.10009794677E+02  0.10570000000E+00 0. -1.
<mgrwt>
<rscale>  0 0.20005278E+02</rscale>
<asrwt>0</asrwt>
<pdfrwt beam="1">  1        1 0.14543743E-02 0.20005278E+02</pdfrwt>
<pdfrwt beam="2">  1       -1 0.16282694E-02 0.20005278E+02</pdfrwt>
<totfact> 0.38513371E+06</totfact>
</mgrwt>
</event>
<event>
 5    1  0.2115795E-006  0.2000205E+02  0.7818608E-02  0.1745287E+00
          1   -1    0    0  501    0  0.00000000000E+00  0.00000000000E+00  0.16032424111E+01  0.16032492126E+01  0.46700000000E-02 0. -1.
         -1   -1    0    0    0  501 -0.00000000000E+00 -0.00000000000E+00 -0.62386231549E+02  0.62386231724E+02  0.46700000000E-02 0.  1.
       1023    2    1    2    0    0  0.00000000000E+00  0.00000000000E+00 -0.60782989138E+02  0.63989480936E+02  0.20002047445E+02 0.  0.
        -13    1    3    3    0    0 -0.48658108300E+01 -0.87368594306E+01 -0.30461237527E+02  0.32060988629E+02  0.10570000000E+00 0.  1.
         13    1    3    3    0    0  0.48658108300E+01  0.87368594306E+01 -0.30321751611E+02  0.31928492307E+02  0.10570000000E+00 0. -1.
<mgrwt>
<rscale>  0 0.20002047E+02</rscale>
<asrwt>0</asrwt>
<pdfrwt beam="1">  1        1 0.24665326E-03 0.20002047E+02</pdfrwt>
<pdfrwt beam="2">  1       -1 0.95978804E-02 0.20002047E+02</pdfrwt>
<totfact> 0.34078501E+06</totfact>
</mgrwt>
</event>
<event>
 5    1  0.2115795E-006  0.2000214E+02  0.7818608E-02  0.1745285E+00
          1   -1    0    0  501    0  0.00000000000E+00  0.00000000000E+00  0.59077722292E+02  0.59077722477E+02  0.46700000000E-02 0. -1.
         -1   -1    0    0    0  501 -0.00000000000E+00 -0.00000000000E+00 -0.16930449346E+01  0.16930513754E+01  0.46700000000E-02 0.  1.
       1023    2    1    2    0    0  0.00000000000E+00  0.00000000000E+00  0.57384677358E+02  0.60770773852E+02  0.20002143864E+02 0.  0.
        -13    1    3    3    0    0 -0.72964670356E+01 -0.68389874395E+01  0.28664016234E+02  0.30358642584E+02  0.10570000000E+00 0. -1.
         13    1    3    3    0    0  0.72964670356E+01  0.68389874395E+01  0.28720661124E+02  0.30412131269E+02  0.10570000000E+00 0.  1.
<mgrwt>
<rscale>  0 0.20002144E+02</rscale>
<asrwt>0</asrwt>
<pdfrwt beam="1">  1        1 0.90888808E-02 0.20002144E+02</pdfrwt>
<pdfrwt beam="2">  1       -1 0.26046896E-03 0.20002144E+02</pdfrwt>
<totfact> 0.42224918E+06</totfact>
</mgrwt>
</event>
<event>
 5    1  0.2115795E-006  0.2000823E+02  0.7818608E-02  0.1745164E+00
         -1   -1    0    0    0  501 -0.00000000000E+00  0.00000000000E+00  0.13129905678E+01  0.13129988728E+01  0.46700000000E-02 0. -1.
          1   -1    0    0  501    0  0.00000000000E+00 -0.00000000000E+00 -0.76224445844E+02  0.76224445987E+02  0.46700000000E-02 0.  1.
       1023    2    1    2    0    0  0.00000000000E+00  0.00000000000E+00 -0.74911455276E+02  0.77537444860E+02  0.20008228902E+02 0.  0.
        -13    1    3    3    0    0  0.77525643051E+01 -0.63178448244E+01 -0.38353897378E+02  0.39636473520E+02  0.10570000000E+00 0.  1.
         13    1    3    3    0    0 -0.77525643051E+01  0.63178448244E+01 -0.36557557898E+02  0.37900971340E+02  0.10570000000E+00 0. -1.
<mgrwt>
<rscale>  0 0.20008229E+02</rscale>
<asrwt>0</asrwt>
<pdfrwt beam="2">  1        1 0.11726835E-01 0.20008229E+02</pdfrwt>
<pdfrwt beam="1">  1       -1 0.20199926E-03 0.20008229E+02</pdfrwt>
<totfact> 0.43124018E+06</totfact>
</mgrwt>
</event>
<event>
 5    1  0.2115795E-006  0.2000176E+02  0.7818608E-02  0.1745293E+00
          1   -1    0    0  501    0  0.00000000000E+00  0.00000000000E+00  0.16208855261E+02  0.16208855934E+02  0.46700000000E-02 0. -1.
         -1   -1    0    0    0  501 -0.00000000000E+00 -0.00000000000E+00 -0.61705511137E+01  0.61705528808E+01  0.46700000000E-02 0.  1.
       1023    2    1    2    0    0  0.00000000000E+00  0.00000000000E+00  0.10038304147E+02  0.22379408814E+02  0.20001759641E+02 0.  0.
        -13    1    3    3    0    0  0.97836434906E+01 -0.20704155015E+01  0.50316310167E+01  0.11195301848E+02  0.10570000000E+00 0. -1.
         13    1    3    3    0    0 -0.97836434906E+01  0.20704155015E+01  0.50066731305E+01  0.11184106966E+02  0.10570000000E+00 0.  1.
<mgrwt>
<rscale>  0 0.20001760E+02</rscale>
<asrwt>0</asrwt>
<pdfrwt beam="1">  1        1 0.24936702E-02 0.20001760E+02</pdfrwt>
<pdfrwt beam="2">  1       -1 0.94931574E-03 0.20001760E+02</pdfrwt>
<totfact> 0.39357678E+06</totfact>
</mgrwt>
</event>
<event>
 5    1  0.2115795E-006  0.2000123E+02  0.7818608E-02  0.1745304E+00
         -1   -1    0    0    0  501 -0.00000000000E+00  0.00000000000E+00  0.19948448226E+02  0.19948448772E+02  0.46700000000E-02 0. -1.
          1   -1    0    0  501    0  0.00000000000E+00 -0.00000000000E+00 -0.50135357903E+01  0.50135379653E+01  0.46700000000E-02 0.  1.
       1023    2    1    2    0    0  0.00000000000E+00  0.00000000000E+00  0.14934912435E+02  0.24961986738E+02  0.20001229273E+02 0.  0.
        -13    1    3    3    0    0  0.58367108079E+01  0.81199574020E+01  0.74489722666E+01  0.12469934306E+02  0.10570000000E+00 0.  1.
         13    1    3    3    0    0 -0.58367108079E+01 -0.81199574020E+01  0.74859401687E+01  0.12492052432E+02  0.10570000000E+00 0. -1.
<mgrwt>
<rscale>  0 0.20001229E+02</rscale>
<asrwt>0</asrwt>
<pdfrwt beam="2">  1        1 0.77131341E-03 0.20001229E+02</pdfrwt>
<pdfrwt beam="1">  1       -1 0.30689922E-02 0.20001229E+02</pdfrwt>
<totfact> 0.37416987E+06</totfact>
</mgrwt>
</event>
<event>
 5    1  0.2115795E-006  0.2000721E+02  0.7818608E-02  0.1745185E+00
          1   -1    0    0  501    0  0.00000000000E+00  0.00000000000E+00  0.22287968873E+01  0.22288017798E+01  0.46700000000E-02 0.  1.
         -1   -1    0    0    0  501 -0.00000000000E+00 -0.00000000000E+00 -0.44899561349E+02  0.44899561592E+02  0.46700000000E-02 0. -1.
       1023    2    1    2    0    0  0.00000000000E+00  0.00000000000E+00 -0.42670764462E+02  0.47128363372E+02  0.20007211059E+02 0.  0.
        -13    1    3    3    0    0 -0.93431772241E+01  0.35685753658E+01 -0.20918903831E+02  0.23187095565E+02  0.10570000000E+00 0.  1.
         13    1    3    3    0    0  0.93431772241E+01 -0.35685753658E+01 -0.21751860631E+02  0.23941267806E+02  0.10570000000E+00 0. -1.
<mgrwt>
<rscale>  0 0.20007211E+02</rscale>
<asrwt>0</asrwt>
<pdfrwt beam="1">  1        1 0.34289226E-03 0.20007211E+02</pdfrwt>
<pdfrwt beam="2">  1       -1 0.69076246E-02 0.20007211E+02</pdfrwt>
<totfact> 0.35272017E+06</totfact>
</mgrwt>
</event>
<event>
 5    1  0.2115795E-006  0.2000478E+02  0.7818608E-02  0.1745233E+00
         -1   -1    0    0    0  501 -0.00000000000E+00  0.00000000000E+00  0.73706686139E+02  0.73706686287E+02  0.46700000000E-02 0.  1.
          1   -1    0    0  501    0  0.00000000000E+00 -0.00000000000E+00 -0.13573731737E+01  0.13573812072E+01  0.46700000000E-02 0. -1.
       1023    2    1    2    0    0  0.00000000000E+00  0.00000000000E+00  0.72349312965E+02  0.75064067494E+02  0.20004777985E+02 0.  0.
        -13    1    3    3    0    0 -0.48172331051E+01  0.87651780222E+01  0.36363487933E+02  0.37714035951E+02  0.10570000000E+00 0.  1.
         13    1    3    3    0    0  0.48172331051E+01 -0.87651780222E+01  0.35985825032E+02  0.37350031543E+02  0.10570000000E+00 0. -1.
<mgrwt>
<rscale>  0 0.20004778E+02</rscale>
<asrwt>0</asrwt>
<pdfrwt beam="2">  1        1 0.20882719E-03 0.20004778E+02</pdfrwt>
<pdfrwt beam="1">  1       -1 0.11339495E-01 0.20004778E+02</pdfrwt>
<totfact> 0.33354084E+06</totfact>
</mgrwt>
</event>
<event>
 5    1  0.2115795E-006  0.2000402E+02  0.7818608E-02  0.1745248E+00
          1   -1    0    0  501    0  0.00000000000E+00  0.00000000000E+00  0.16634780148E+02  0.16634780803E+02  0.46700000000E-02 0.  1.
         -1   -1    0    0    0  501 -0.00000000000E+00 -0.00000000000E+00 -0.60139141430E+01  0.60139159562E+01  0.46700000000E-02 0. -1.
       1023    2    1    2    0    0  0.00000000000E+00  0.00000000000E+00  0.10620866005E+02  0.22648696759E+02  0.20004016352E+02 0.  0.
        -13    1    3    3    0    0  0.30766256301E+01 -0.95158570079E+01  0.51872604827E+01  0.11266587934E+02  0.10570000000E+00 0.  1.
         13    1    3    3    0    0 -0.30766256301E+01  0.95158570079E+01  0.54336055222E+01  0.11382108826E+02  0.10570000000E+00 0. -1.
<mgrwt>
<rscale>  0 0.20004016E+02</rscale>
<asrwt>0</asrwt>
<pdfrwt beam="1">  1        1 0.25591971E-02 0.20004016E+02</pdfrwt>
<pdfrwt beam="2">  1       -1 0.92521776E-03 0.20004016E+02</pdfrwt>
<totfact> 0.39388571E+06</totfact>
</mgrwt>
</event>
<event>
 4    1  0.2115795E-006  0.2001731E+02  0.7818608E-02  0.1744984E+00
         -1   -1    0    0    0  501 -0.00000000000E+00  0.00000000000E+00  0.15475829578E+01  0.15475900039E+01  0.46700000000E-02 0. -1.
          1   -1    0    0  501    0  0.00000000000E+00 -0.00000000000E+00 -0.64728660275E+02  0.64728660444E+02  0.46700000000E-02 0.  1.
        -13    1    1    2    0    0  0.97598709400E+01  0.22144658216E+01 -0.31406238421E+02  0.32962432008E+02  0.10570000000E+00 0.  1.
         13    1    1    2    0    0 -0.97598709400E+01 -0.22144658216E+01 -0.31774838897E+02  0.33313818440E+02  0.10570000000E+00 0. -1.
<mgrwt>
<rscale>  0 0.20017314E+02</rscale>
<asrwt>0</asrwt>
<pdfrwt beam="2">  1        1 0.99582539E-02 0.20017314E+02</pdfrwt>
<pdfrwt beam="1">  1       -1 0.23809029E-03 0.20017314E+02</pdfrwt>
<totfact> 0.42466711E+06</totfact>
</mgrwt>
</event>
<event>
 5    1  0.2115795E-006  0.2000900E+02  0.7818608E-02  0.1745149E+00
         -1   -1    0    0    0  501 -0.00000000000E+00  0.00000000000E+00  0.52566469050E+02  0.52566469257E+02  0.46700000000E-02 0. -1.
          1   -1    0    0  501    0  0.00000000000E+00 -0.00000000000E+00 -0.19040619292E+01  0.19040676561E+01  0.46700000000E-02 0.  1.
       1023    2    1    2    0    0  0.00000000000E+00  0.00000000000E+00  0.50662407120E+02  0.54470536913E+02  0.20008995387E+02 0.  0.
        -13    1    3    3    0    0 -0.41848673286E+01  0.90826129547E+01  0.26060805808E+02  0.27913862944E+02  0.10570000000E+00 0. -1.
         13    1    3    3    0    0  0.41848673286E+01 -0.90826129547E+01  0.24601601313E+02  0.26556673969E+02  0.10570000000E+00 0.  1.
<mgrwt>
<rscale>  0 0.20008995E+02</rscale>
<asrwt>0</asrwt>
<pdfrwt beam="2">  1        1 0.29293306E-03 0.20008995E+02</pdfrwt>
<pdfrwt beam="1">  1       -1 0.80871494E-02 0.20008995E+02</pdfrwt>
<totfact> 0.34714405E+06</totfact>
</mgrwt>
</event>
<event>
 4    1  0.2115795E-006  0.2001752E+02  0.7818608E-02  0.1744980E+00
         -1   -1    0    0    0  501 -0.00000000000E+00  0.00000000000E+00  0.27738415170E+02  0.27738415563E+02  0.46700000000E-02 0.  1.
          1   -1    0    0  501    0  0.00000000000E+00 -0.00000000000E+00 -0.36114260013E+01  0.36114290207E+01  0.46700000000E-02 0. -1.
        -13    1    1    2    0    0  0.99630056577E+01 -0.94769968116E+00  0.11958455174E+02  0.15594083463E+02  0.10570000000E+00 0.  1.
         13    1    1    2    0    0 -0.99630056577E+01  0.94769968116E+00  0.12168533995E+02  0.15755761121E+02  0.10570000000E+00 0. -1.
<mgrwt>
<rscale>  0 0.20017521E+02</rscale>
<asrwt>0</asrwt>
<pdfrwt beam="2">  1        1 0.55560427E-03 0.20017521E+02</pdfrwt>
<pdfrwt beam="1">  1       -1 0.42674487E-02 0.20017521E+02</pdfrwt>
<totfact> 0.36614095E+06</totfact>
</mgrwt>
</event>
<event>
 4    1  0.2115795E-006  0.2021422E+02  0.7818608E-02  0.1741101E+00
          1   -1    0    0  501    0  0.00000000000E+00  0.00000000000E+00  0.21851745100E+02  0.21851745599E+02  0.46700000000E-02 0.  1.
         -1   -1    0    0    0  501 -0.00000000000E+00 -0.00000000000E+00 -0.46748495792E+01  0.46748519118E+01  0.46700000000E-02 0. -1.
        -13    1    1    2    0    0 -0.10067047309E+02  0.48767544174E+00  0.95697775934E+01  0.13898743991E+02  0.10570000000E+00 0. -1.
         13    1    1    2    0    0  0.10067047309E+02 -0.48767544174E+00  0.76071179275E+01  0.12627853520E+02  0.10570000000E+00 0.  1.
<mgrwt>
<rscale>  0 0.20214219E+02</rscale>
<asrwt>0</asrwt>
<pdfrwt beam="1">  1        1 0.33618072E-02 0.20214219E+02</pdfrwt>
<pdfrwt beam="2">  1       -1 0.71920784E-03 0.20214219E+02</pdfrwt>
<totfact> 0.38916229E+06</totfact>
</mgrwt>
</event>
<event>
 5    1  0.2115795E-006  0.2000141E+02  0.7818608E-02  0.1745300E+00
          1   -1    0    0  501    0  0.00000000000E+00  0.00000000000E+00  0.15930843430E+01  0.15930911878E+01  0.46700000000E-02 0.  1.
         -1   -1    0    0    0  501 -0.00000000000E+00 -0.00000000000E+00 -0.62780054433E+02  0.62780054607E+02  0.46700000000E-02 0. -1.
       1023    2    1    2    0    0  0.00000000000E+00  0.00000000000E+00 -0.61186970090E+02  0.64373145795E+02  0.20001414717E+02 0.  0.
        -13    1    3    3    0    0  0.88513199329E+01  0.46536611385E+01 -0.30518099989E+02  0.32114919056E+02  0.10570000000E+00 0.  1.
         13    1    3    3    0    0 -0.88513199329E+01 -0.46536611385E+01 -0.30668870101E+02  0.32258226739E+02  0.10570000000E+00 0. -1.
<mgrwt>
<rscale>  0 0.20001415E+02</rscale>
<asrwt>0</asrwt>
<pdfrwt beam="1">  1        1 0.24509049E-03 0.20001415E+02</pdfrwt>
<pdfrwt beam="2">  1       -1 0.96584685E-02 0.20001415E+02</pdfrwt>
<totfact> 0.34055187E+06</totfact>
</mgrwt>
</event>
<event>
 5    1  0.2115795E-006  0.2000345E+02  0.7818608E-02  0.1745259E+00
          1   -1    0    0  501    0  0.00000000000E+00  0.00000000000E+00  0.93074396125E+01  0.93074407841E+01  0.46700000000E-02 0. -1.
         -1   -1    0    0    0  501 -0.00000000000E+00 -0.00000000000E+00 -0.10747797624E+02  0.10747798639E+02  0.46700000000E-02 0.  1.
       1023    2    1    2    0    0  0.00000000000E+00  0.00000000000E+00 -0.14403580115E+01  0.20055239423E+02  0.20003449630E+02 0.  0.
        -13    1    3    3    0    0 -0.87368436120E+01  0.48658496278E+01 -0.84048085096E+00  0.10036259734E+02  0.10570000000E+00 0. -1.
         13    1    3    3    0    0  0.87368436120E+01 -0.48658496278E+01 -0.59987716057E+00  0.10018979689E+02  0.10570000000E+00 0.  1.
<mgrwt>
<rscale>  0 0.20003450E+02</rscale>
<asrwt>0</asrwt>
<pdfrwt beam="1">  1        1 0.14319139E-02 0.20003450E+02</pdfrwt>
<pdfrwt beam="2">  1       -1 0.16535075E-02 0.20003450E+02</pdfrwt>
<totfact> 0.38496951E+06</totfact>
</mgrwt>
</event>
<event>
 5    1  0.2115795E-006  0.2000957E+02  0.7818608E-02  0.1745138E+00
          1   -1    0    0  501    0  0.00000000000E+00  0.00000000000E+00  0.43363963333E+02  0.43363963584E+02  0.46700000000E-02 0. -1.
         -1   -1    0    0    0  501 -0.00000000000E+00 -0.00000000000E+00 -0.23082661572E+01  0.23082708813E+01  0.46700000000E-02 0.  1.
       1023    2    1    2    0    0  0.00000000000E+00  0.00000000000E+00  0.41055697175E+02  0.45672234466E+02  0.20009565975E+02 0.  0.
        -13    1    3    3    0    0  0.82839792011E+00 -0.99693221328E+01  0.20765967346E+02  0.23050167011E+02  0.10570000000E+00 0. -1.
         13    1    3    3    0    0 -0.82839792011E+00  0.99693221328E+01  0.20289729829E+02  0.22622067455E+02  0.10570000000E+00 0.  1.
<mgrwt>
<rscale>  0 0.20009566E+02</rscale>
<asrwt>0</asrwt>
<pdfrwt beam="1">  1        1 0.66713788E-02 0.20009566E+02</pdfrwt>
<pdfrwt beam="2">  1       -1 0.35511828E-03 0.20009566E+02</pdfrwt>
<totfact> 0.41274176E+06</totfact>
</mgrwt>
</event>
<event>
 5    1  0.2115795E-006  0.2000227E+02  0.7818608E-02  0.1745283E+00
          1   -1    0    0  501    0  0.00000000000E+00  0.00000000000E+00  0.59698956621E+01  0.59698974887E+01  0.46700000000E-02 0.  1.
         -1   -1    0    0    0  501 -0.00000000000E+00 -0.00000000000E+00 -0.16754512088E+02  0.16754512738E+02  0.46700000000E-02 0. -1.
       1023    2    1    2    0    0  0.00000000000E+00  0.00000000000E+00 -0.10784616425E+02  0.22724410227E+02  0.20002271589E+02 0.  0.
        -13    1    3    3    0    0 -0.75328255214E+01  0.65777792151E+01 -0.53581317943E+01  0.11345985570E+02  0.10570000000E+00 0.  1.
         13    1    3    3    0    0  0.75328255214E+01 -0.65777792151E+01 -0.54264846312E+01  0.11378424657E+02  0.10570000000E+00 0. -1.
<mgrwt>
<rscale>  0 0.20002272E+02</rscale>
<asrwt>0</asrwt>
<pdfrwt beam="1">  1        1 0.91844568E-03 0.20002272E+02</pdfrwt>
<pdfrwt beam="2">  1       -1 0.25776174E-02 0.20002272E+02</pdfrwt>
<totfact> 0.37750804E+06</totfact>
</mgrwt>
</event>
<event>
 5    1  0.2115795E-006  0.2000421E+02  0.7818608E-02  0.1745244E+00
         -1   -1    0    0    0  501 -0.00000000000E+00  0.00000000000E+00  0.10196509340E+03  0.10196509351E+03  0.46700000000E-02 0. -1.
          1   -1    0    0  501    0  0.00000000000E+00 -0.00000000000E+00 -0.98113513608E+00  0.98114625013E+00  0.46700000000E-02 0.  1.
       1023    2    1    2    0    0  0.00000000000E+00  0.00000000000E+00  0.10098395826E+03  0.10294623976E+03  0.20004210893E+02 0.  0.
        -13    1    3    3    0    0 -0.14224578230E+01  0.98991612031E+01  0.51104403978E+02  0.52073871157E+02  0.10570000000E+00 0.  1.
         13    1    3    3    0    0  0.14224578230E+01 -0.98991612031E+01  0.49879554286E+02  0.50872368601E+02  0.10570000000E+00 0. -1.
<mgrwt>
<rscale>  0 0.20004211E+02</rscale>
<asrwt>0</asrwt>
<pdfrwt beam="2">  1        1 0.15094469E-03 0.20004211E+02</pdfrwt>
<pdfrwt beam="1">  1       -1 0.15686942E-01 0.20004211E+02</pdfrwt>
<totfact> 0.31748084E+06</totfact>
</mgrwt>
</event>
<event>
 5    1  0.2115795E-006  0.2000818E+02  0.7818608E-02  0.1745165E+00
         -1   -1    0    0    0  501 -0.00000000000E+00  0.00000000000E+00  0.70550294285E+01  0.70550309741E+01  0.46700000000E-02 0.  1.
          1   -1    0    0  501    0  0.00000000000E+00 -0.00000000000E+00 -0.14185879648E+02  0.14185880416E+02  0.46700000000E-02 0. -1.
       1023    2    1    2    0    0  0.00000000000E+00  0.00000000000E+00 -0.71308502193E+01  0.21240911391E+02  0.20008180623E+02 0.  0.
        -13    1    3    3    0    0 -0.55236758115E+01  0.83395095907E+01 -0.36828557820E+01  0.10659878699E+02  0.10570000000E+00 0. -1.
         13    1    3    3    0    0  0.55236758115E+01 -0.83395095907E+01 -0.34479944373E+01  0.10581032691E+02  0.10570000000E+00 0.  1.
<mgrwt>
<rscale>  0 0.20008181E+02</rscale>
<asrwt>0</asrwt>
<pdfrwt beam="2">  1        1 0.21824432E-02 0.20008181E+02</pdfrwt>
<pdfrwt beam="1">  1       -1 0.10853893E-02 0.20008181E+02</pdfrwt>
<totfact> 0.39122655E+06</totfact>
</mgrwt>
</event>
<event>
 5    1  0.2115795E-006  0.2000135E+02  0.7818608E-02  0.1745301E+00
          1   -1    0    0  501    0  0.00000000000E+00  0.00000000000E+00  0.40897362522E+01  0.40897389184E+01  0.46700000000E-02 0.  1.
         -1   -1    0    0    0  501 -0.00000000000E+00 -0.00000000000E+00 -0.24454741359E+02  0.24454741805E+02  0.46700000000E-02 0. -1.
       1023    2    1    2    0    0  0.00000000000E+00  0.00000000000E+00 -0.20365005107E+02  0.28544480723E+02  0.20001348624E+02 0.  0.
        -13    1    3    3    0    0 -0.98340211142E+01  0.18148808635E+01 -0.10215983142E+02  0.14296127023E+02  0.10570000000E+00 0. -1.
         13    1    3    3    0    0  0.98340211142E+01 -0.18148808635E+01 -0.10149021965E+02  0.14248353700E+02  0.10570000000E+00 0.  1.
<mgrwt>
<rscale>  0 0.20001349E+02</rscale>
<asrwt>0</asrwt>
<pdfrwt beam="1">  1        1 0.62919045E-03 0.20001349E+02</pdfrwt>
<pdfrwt beam="2">  1       -1 0.37622681E-02 0.20001349E+02</pdfrwt>
<totfact> 0.36977944E+06</totfact>
</mgrwt>
</event>
<event>
 5    1  0.2115795E-006  0.2000200E+02  0.7818608E-02  0.1745288E+00
         -1   -1    0    0    0  501 -0.00000000000E+00  0.00000000000E+00  0.71741839087E+02  0.71741839239E+02  0.46700000000E-02 0.  1.
          1   -1    0    0  501    0  0.00000000000E+00 -0.00000000000E+00 -0.13941611564E+01  0.13941689779E+01  0.46700000000E-02 0. -1.
       1023    2    1    2    0    0  0.00000000000E+00  0.00000000000E+00  0.70347677930E+02  0.73136008217E+02  0.20001997592E+02 0.  0.
        -13    1    3    3    0    0 -0.27562946734E+01  0.96130708985E+01  0.35256574945E+02  0.36647585756E+02  0.10570000000E+00 0.  1.
         13    1    3    3    0    0  0.27562946734E+01 -0.96130708985E+01  0.35091102986E+02  0.36488422461E+02  0.10570000000E+00 0. -1.
<mgrwt>
<rscale>  0 0.20001998E+02</rscale>
<asrwt>0</asrwt>
<pdfrwt beam="2">  1        1 0.21448695E-03 0.20001998E+02</pdfrwt>
<pdfrwt beam="1">  1       -1 0.11037206E-01 0.20001998E+02</pdfrwt>
<totfact> 0.33485003E+06</totfact>
</mgrwt>
</event>
<event>
 5    1  0.2115795E-006  0.2001153E+02  0.7818608E-02  0.1745099E+00
         -1   -1    0    0    0  501 -0.00000000000E+00  0.00000000000E+00  0.32864057850E+02  0.32864058182E+02  0.46700000000E-02 0. -1.
          1   -1    0    0  501    0  0.00000000000E+00 -0.00000000000E+00 -0.30463445787E+01  0.30463481582E+01  0.46700000000E-02 0.  1.
       1023    2    1    2    0    0  0.00000000000E+00  0.00000000000E+00  0.29817713271E+02  0.35910406340E+02  0.20011528147E+02 0.  0.
        -13    1    3    3    0    0 -0.98090187450E+01  0.19687192582E+01  0.15100773928E+02  0.18114559061E+02  0.10570000000E+00 0. -1.
         13    1    3    3    0    0  0.98090187450E+01 -0.19687192582E+01  0.14716939344E+02  0.17795847280E+02  0.10570000000E+00 0.  1.
<mgrwt>
<rscale>  0 0.20011528E+02</rscale>
<asrwt>0</asrwt>
<pdfrwt beam="2">  1        1 0.46866870E-03 0.20011528E+02</pdfrwt>
<pdfrwt beam="1">  1       -1 0.50560092E-02 0.20011528E+02</pdfrwt>
<totfact> 0.36197680E+06</totfact>
</mgrwt>
</event>
<event>
 4    1  0.2115795E-006  0.2007233E+02  0.7818608E-02  0.1743893E+00
          1   -1    0    0  501    0  0.00000000000E+00  0.00000000000E+00  0.84162992525E+02  0.84162992654E+02  0.46700000000E-02 0.  1.
         -1   -1    0    0    0  501 -0.00000000000E+00 -0.00000000000E+00 -0.11967757503E+01  0.11967848618E+01  0.46700000000E-02 0. -1.
        -13    1    1    2    0    0 -0.25877724271E+01  0.96593876049E+01  0.45074273419E+02  0.46170354469E+02  0.10570000000E+00 0. -1.
         13    1    1    2    0    0  0.25877724271E+01 -0.96593876049E+01  0.37891943355E+02  0.39189423047E+02  0.10570000000E+00 0.  1.
<mgrwt>
<rscale>  0 0.20072331E+02</rscale>
<asrwt>0</asrwt>
<pdfrwt beam="1">  1        1 0.12948158E-01 0.20072331E+02</pdfrwt>
<pdfrwt beam="2">  1       -1 0.18411999E-03 0.20072331E+02</pdfrwt>
<totfact> 0.43226393E+06</totfact>
</mgrwt>
</event>
<event>
 5    1  0.2115795E-006  0.2000126E+02  0.7818608E-02  0.1745303E+00
         -1   -1    0    0    0  501 -0.00000000000E+00  0.00000000000E+00  0.24067093278E+02  0.24067093731E+02  0.46700000000E-02 0.  1.
          1   -1    0    0  501    0  0.00000000000E+00 -0.00000000000E+00 -0.41555731660E+01  0.41555757901E+01  0.46700000000E-02 0. -1.
       1023    2    1    2    0    0  0.00000000000E+00  0.00000000000E+00  0.19911520112E+02  0.28222669521E+02  0.20001261003E+02 0.  0.
        -13    1    3    3    0    0  0.99935709080E+01  0.36021599122E+00  0.99346938987E+01  0.14096472268E+02  0.10570000000E+00 0.  1.
         13    1    3    3    0    0 -0.99935709080E+01 -0.36021599122E+00  0.99768262132E+01  0.14126197253E+02  0.10570000000E+00 0. -1.
<mgrwt>
<rscale>  0 0.20001261E+02</rscale>
<asrwt>0</asrwt>
<pdfrwt beam="2">  1        1 0.63931918E-03 0.20001261E+02</pdfrwt>
<pdfrwt beam="1">  1       -1 0.37026300E-02 0.20001261E+02</pdfrwt>
<totfact> 0.37014594E+06</totfact>
</mgrwt>
</event>
<event>
 4    1  0.2115795E-006  0.2001830E+02  0.7818608E-02  0.1744964E+00
         -1   -1    0    0    0  501 -0.00000000000E+00  0.00000000000E+00  0.18906955573E+01  0.18907013247E+01  0.46700000000E-02 0.  1.
          1   -1    0    0  501    0  0.00000000000E+00 -0.00000000000E+00 -0.52987355639E+02  0.52987355845E+02  0.46700000000E-02 0. -1.
        -13    1    1    2    0    0 -0.76261173417E+01  0.64784248554E+01 -0.24971365970E+02  0.26901820481E+02  0.10570000000E+00 0.  1.
         13    1    1    2    0    0  0.76261173417E+01 -0.64784248554E+01 -0.26125294113E+02  0.27976236689E+02  0.10570000000E+00 0. -1.
<mgrwt>
<rscale>  0 0.20018304E+02</rscale>
<asrwt>0</asrwt>
<pdfrwt beam="2">  1        1 0.81519002E-02 0.20018304E+02</pdfrwt>
<pdfrwt beam="1">  1       -1 0.29087674E-03 0.20018304E+02</pdfrwt>
<totfact> 0.41803551E+06</totfact>
</mgrwt>
</event>
<event>
 5    1  0.2115795E-006  0.2001060E+02  0.7818608E-02  0.1745117E+00
          1   -1    0    0  501    0  0.00000000000E+00  0.00000000000E+00  0.49487946390E+02  0.49487946611E+02  0.46700000000E-02 0.  1.
         -1   -1    0    0    0  501 -0.00000000000E+00 -0.00000000000E+00 -0.20228343426E+01  0.20228397333E+01  0.46700000000E-02 0. -1.
       1023    2    1    2    0    0  0.00000000000E+00  0.00000000000E+00  0.47465112048E+02  0.51510786344E+02  0.20010603391E+02 0.  0.
        -13    1    3    3    0    0  0.89064007167E+01  0.45509232356E+01  0.23101943658E+02  0.25174309312E+02  0.10570000000E+00 0. -1.
         13    1    3    3    0    0 -0.89064007167E+01 -0.45509232356E+01  0.24363168389E+02  0.26336477032E+02  0.10570000000E+00 0.  1.
<mgrwt>
<rscale>  0 0.20010603E+02</rscale>
<asrwt>0</asrwt>
<pdfrwt beam="1">  1        1 0.76135306E-02 0.20010603E+02</pdfrwt>
<pdfrwt beam="2">  1       -1 0.31120572E-03 0.20010603E+02</pdfrwt>
<totfact> 0.41635690E+06</totfact>
</mgrwt>
</event>
<event>
 5    1  0.2115795E-006  0.2000375E+02  0.7818608E-02  0.1745254E+00
          1   -1    0    0  501    0  0.00000000000E+00  0.00000000000E+00  0.11077352956E+01  0.11077451395E+01  0.46700000000E-02 0.  1.
         -1   -1    0    0    0  501 -0.00000000000E+00 -0.00000000000E+00 -0.90307715449E+02  0.90307715570E+02  0.46700000000E-02 0. -1.
       1023    2    1    2    0    0  0.00000000000E+00  0.00000000000E+00 -0.89199980154E+02  0.91415460709E+02  0.20003749582E+02 0.  0.
        -13    1    3    3    0    0 -0.90734123751E+01  0.42069903608E+01 -0.44475103663E+02  0.45585870600E+02  0.10570000000E+00 0. -1.
         13    1    3    3    0    0  0.90734123751E+01 -0.42069903608E+01 -0.44724876490E+02  0.45829590109E+02  0.10570000000E+00 0.  1.
<mgrwt>
<rscale>  0 0.20003750E+02</rscale>
<asrwt>0</asrwt>
<pdfrwt beam="1">  1        1 0.17042165E-03 0.20003750E+02</pdfrwt>
<pdfrwt beam="2">  1       -1 0.13893490E-01 0.20003750E+02</pdfrwt>
<totfact> 0.32386577E+06</totfact>
</mgrwt>
</event>
<event>
 5    1  0.2115795E-006  0.2000649E+02  0.7818608E-02  0.1745199E+00
          1   -1    0    0  501    0  0.00000000000E+00  0.00000000000E+00  0.53015006701E+01  0.53015027270E+01  0.46700000000E-02 0. -1.
         -1   -1    0    0    0  501 -0.00000000000E+00 -0.00000000000E+00 -0.18874822974E+02  0.18874823551E+02  0.46700000000E-02 0.  1.
       1023    2    1    2    0    0  0.00000000000E+00  0.00000000000E+00 -0.13573322304E+02  0.24176326278E+02  0.20006490796E+02 0.  0.
        -13    1    3    3    0    0 -0.62221070862E+01 -0.78306768791E+01 -0.69559657430E+01  0.12183215868E+02  0.10570000000E+00 0. -1.
         13    1    3    3    0    0  0.62221070862E+01  0.78306768791E+01 -0.66173565605E+01  0.11993110410E+02  0.10570000000E+00 0.  1.
<mgrwt>
<rscale>  0 0.20006491E+02</rscale>
<asrwt>0</asrwt>
<pdfrwt beam="1">  1        1 0.81561570E-03 0.20006491E+02</pdfrwt>
<pdfrwt beam="2">  1       -1 0.29038191E-02 0.20006491E+02</pdfrwt>
<totfact> 0.37506064E+06</totfact>
</mgrwt>
</event>
<event>
 5    1  0.2115795E-006  0.2000136E+02  0.7818608E-02  0.1745301E+00
         -1   -1    0    0    0  501 -0.00000000000E+00  0.00000000000E+00  0.35561070208E+01  0.35561100872E+01  0.46700000000E-02 0. -1.
          1   -1    0    0  501    0  0.00000000000E+00 -0.00000000000E+00 -0.28124441078E+02  0.28124441466E+02  0.46700000000E-02 0.  1.
       1023    2    1    2    0    0  0.00000000000E+00  0.00000000000E+00 -0.24568334057E+02  0.31680551553E+02  0.20001357663E+02 0.  0.
        -13    1    3    3    0    0  0.26078316240E+01  0.96540796698E+01 -0.12253925075E+02  0.15816823078E+02  0.10570000000E+00 0.  1.
         13    1    3    3    0    0 -0.26078316240E+01 -0.96540796698E+01 -0.12314408982E+02  0.15863728475E+02  0.10570000000E+00 0. -1.
<mgrwt>
<rscale>  0 0.20001358E+02</rscale>
<asrwt>0</asrwt>
<pdfrwt beam="2">  1        1 0.43268372E-02 0.20001358E+02</pdfrwt>
<pdfrwt beam="1">  1       -1 0.54709367E-03 0.20001358E+02</pdfrwt>
<totfact> 0.40319757E+06</totfact>
</mgrwt>
</event>
<event>
 4    1  0.2115795E-006  0.2001706E+02  0.7818608E-02  0.1744989E+00
         -1   -1    0    0    0  501 -0.00000000000E+00  0.00000000000E+00  0.10016763865E+03  0.10016763876E+03  0.46700000000E-02 0. -1.
          1   -1    0    0  501    0  0.00000000000E+00 -0.00000000000E+00 -0.10000244236E+01  0.10000353278E+01  0.46700000000E-02 0.  1.
        -13    1    1    2    0    0  0.99802601376E+01 -0.73004295077E+00  0.48852893451E+02  0.49867373363E+02  0.10570000000E+00 0.  1.
         13    1    1    2    0    0 -0.99802601376E+01  0.73004295077E+00  0.50314720779E+02  0.51300300727E+02  0.10570000000E+00 0. -1.
<mgrwt>
<rscale>  0 0.20017057E+02</rscale>
<asrwt>0</asrwt>
<pdfrwt beam="2">  1        1 0.15385072E-03 0.20017057E+02</pdfrwt>
<pdfrwt beam="1">  1       -1 0.15410411E-01 0.20017057E+02</pdfrwt>
<totfact> 0.31799363E+06</totfact>
</mgrwt>
</event>
<event>
 5    1  0.2115795E-006  0.2000277E+02  0.7818608E-02  0.1745273E+00
         -1   -1    0    0    0  501 -0.00000000000E+00  0.00000000000E+00  0.17479070128E+01  0.17479132514E+01  0.46700000000E-02 0.  1.
          1   -1    0    0  501    0  0.00000000000E+00 -0.00000000000E+00 -0.57227038956E+02  0.57227039147E+02  0.46700000000E-02 0. -1.
       1023    2    1    2    0    0  0.00000000000E+00  0.00000000000E+00 -0.55479131944E+02  0.58974952398E+02  0.20002773037E+02 0.  0.
        -13    1    3    3    0    0 -0.98509451961E+01  0.17225878751E+01 -0.27473731735E+02  0.29237399648E+02  0.10570000000E+00 0. -1.
         13    1    3    3    0    0  0.98509451961E+01 -0.17225878751E+01 -0.28005400208E+02  0.29737552750E+02  0.10570000000E+00 0.  1.
<mgrwt>
<rscale>  0 0.20002773E+02</rscale>
<asrwt>0</asrwt>
<pdfrwt beam="2">  1        1 0.88041589E-02 0.20002773E+02</pdfrwt>
<pdfrwt beam="1">  1       -1 0.26890931E-03 0.20002773E+02</pdfrwt>
<totfact> 0.42117731E+06</totfact>
</mgrwt>
</event>
<event>
 5    1  0.2115795E-006  0.2000350E+02  0.7818608E-02  0.1745259E+00
         -1   -1    0    0    0  501 -0.00000000000E+00  0.00000000000E+00  0.69897155198E+01  0.69897170798E+01  0.46700000000E-02 0. -1.
          1   -1    0    0  501    0  0.00000000000E+00 -0.00000000000E+00 -0.14311733664E+02  0.14311734426E+02  0.46700000000E-02 0.  1.
       1023    2    1    2    0    0  0.00000000000E+00  0.00000000000E+00 -0.73220181438E+01  0.21301451505E+02  0.20003496858E+02 0.  0.
        -13    1    3    3    0    0  0.15734059184E+01  0.98762385196E+01 -0.35651357930E+01  0.10617770914E+02  0.10570000000E+00 0.  1.
         13    1    3    3    0    0 -0.15734059184E+01 -0.98762385196E+01 -0.37568823508E+01  0.10683680591E+02  0.10570000000E+00 0. -1.
<mgrwt>
<rscale>  0 0.20003497E+02</rscale>
<asrwt>0</asrwt>
<pdfrwt beam="2">  1        1 0.22018054E-02 0.20003497E+02</pdfrwt>
<pdfrwt beam="1">  1       -1 0.10753410E-02 0.20003497E+02</pdfrwt>
<totfact> 0.39156846E+06</totfact>
</mgrwt>
</event>
<event>
 5    1  0.2115795E-006  0.2000355E+02  0.7818608E-02  0.1745258E+00
          1   -1    0    0  501    0  0.00000000000E+00  0.00000000000E+00  0.29478193675E+02  0.29478194045E+02  0.46700000000E-02 0.  1.
         -1   -1    0    0    0  501 -0.00000000000E+00 -0.00000000000E+00 -0.33935391656E+01  0.33935423789E+01  0.46700000000E-02 0. -1.
       1023    2    1    2    0    0  0.00000000000E+00  0.00000000000E+00  0.26084654509E+02  0.32871736424E+02  0.20003546052E+02 0.  0.
        -13    1    3    3    0    0 -0.28830552981E+01  0.95764932212E+01  0.12951411241E+02  0.16363723778E+02  0.10570000000E+00 0.  1.
         13    1    3    3    0    0  0.28830552981E+01 -0.95764932212E+01  0.13133243268E+02  0.16508012645E+02  0.10570000000E+00 0. -1.
<mgrwt>
<rscale>  0 0.20003546E+02</rscale>
<asrwt>0</asrwt>
<pdfrwt beam="1">  1        1 0.45351070E-02 0.20003546E+02</pdfrwt>
<pdfrwt beam="2">  1       -1 0.52208323E-03 0.20003546E+02</pdfrwt>
<totfact> 0.40404623E+06</totfact>
</mgrwt>
</event>
<event>
 5    1  0.2115795E-006  0.2000850E+02  0.7818608E-02  0.1745159E+00
          1   -1    0    0  501    0  0.00000000000E+00  0.00000000000E+00  0.13243717428E+01  0.13243799765E+01  0.46700000000E-02 0.  1.
         -1   -1    0    0    0  501 -0.00000000000E+00 -0.00000000000E+00 -0.75571458570E+02  0.75571458714E+02  0.46700000000E-02 0. -1.
       1023    2    1    2    0    0  0.00000000000E+00  0.00000000000E+00 -0.74247086827E+02  0.76895838690E+02  0.20008500834E+02 0.  0.
        -13    1    3    3    0    0  0.94039571126E+01  0.34107796294E+01 -0.37421898789E+02  0.38735997580E+02  0.10570000000E+00 0.  1.
         13    1    3    3    0    0 -0.94039571126E+01 -0.34107796294E+01 -0.36825188038E+02  0.38159841110E+02  0.10570000000E+00 0. -1.
<mgrwt>
<rscale>  0 0.20008501E+02</rscale>
<asrwt>0</asrwt>
<pdfrwt beam="1">  1        1 0.20375020E-03 0.20008501E+02</pdfrwt>
<pdfrwt beam="2">  1       -1 0.11626376E-01 0.20008501E+02</pdfrwt>
<totfact> 0.33227180E+06</totfact>
</mgrwt>
</event>
<event>
 5    1  0.2115795E-006  0.2000208E+02  0.7818608E-02  0.1745287E+00
         -1   -1    0    0    0  501 -0.00000000000E+00  0.00000000000E+00  0.36368308154E+02  0.36368308454E+02  0.46700000000E-02 0.  1.
          1   -1    0    0  501    0  0.00000000000E+00 -0.00000000000E+00 -0.27502153819E+01  0.27502193468E+01  0.46700000000E-02 0. -1.
       1023    2    1    2    0    0  0.00000000000E+00  0.00000000000E+00  0.33618092773E+02  0.39118527801E+02  0.20002076284E+02 0.  0.
        -13    1    3    3    0    0  0.40892761093E+01 -0.91261583885E+01  0.16759362024E+02  0.19516565629E+02  0.10570000000E+00 0.  1.
         13    1    3    3    0    0 -0.40892761093E+01  0.91261583885E+01  0.16858730749E+02  0.19601962172E+02  0.10570000000E+00 0. -1.
<mgrwt>
<rscale>  0 0.20002076E+02</rscale>
<asrwt>0</asrwt>
<pdfrwt beam="2">  1        1 0.42311041E-03 0.20002076E+02</pdfrwt>
<pdfrwt beam="1">  1       -1 0.55951243E-02 0.20002076E+02</pdfrwt>
<totfact> 0.35948957E+06</totfact>
</mgrwt>
</event>
<event>
 4    1  0.2115795E-006  0.2001703E+02  0.7818608E-02  0.1744990E+00
         -1   -1    0    0    0  501 -0.00000000000E+00  0.00000000000E+00  0.14508208000E+01  0.14508283161E+01  0.46700000000E-02 0. -1.
          1   -1    0    0  501    0  0.00000000000E+00 -0.00000000000E+00 -0.69043757260E+02  0.69043757418E+02  0.46700000000E-02 0.  1.
        -13    1    1    2    0    0  0.81048414142E+01 -0.58698103107E+01 -0.34243182859E+02  0.35675620138E+02  0.10570000000E+00 0. -1.
         13    1    1    2    0    0 -0.81048414142E+01  0.58698103107E+01 -0.33349753601E+02  0.34818965596E+02  0.10570000000E+00 0.  1.
<mgrwt>
<rscale>  0 0.20017032E+02</rscale>
<asrwt>0</asrwt>
<pdfrwt beam="2">  1        1 0.10622115E-01 0.20017032E+02</pdfrwt>
<pdfrwt beam="1">  1       -1 0.22320384E-03 0.20017032E+02</pdfrwt>
<totfact> 0.42701920E+06</totfact>
</mgrwt>
</event>
<event>
 5    1  0.2115795E-006  0.2001065E+02  0.7818608E-02  0.1745116E+00
         -1   -1    0    0    0  501 -0.00000000000E+00  0.00000000000E+00  0.17543156775E+01  0.17543218933E+01  0.46700000000E-02 0.  1.
          1   -1    0    0  501    0  0.00000000000E+00 -0.00000000000E+00 -0.57062919777E+02  0.57062919968E+02  0.46700000000E-02 0. -1.
       1023    2    1    2    0    0  0.00000000000E+00  0.00000000000E+00 -0.55308604099E+02  0.58817241861E+02  0.20010653481E+02 0.  0.
        -13    1    3    3    0    0 -0.50227453220E+01 -0.86485565909E+01 -0.28431350074E+02  0.30139315540E+02  0.10570000000E+00 0.  1.
         13    1    3    3    0    0  0.50227453220E+01  0.86485565909E+01 -0.26877254025E+02  0.28677926321E+02  0.10570000000E+00 0. -1.
<mgrwt>
<rscale>  0 0.20010653E+02</rscale>
<asrwt>0</asrwt>
<pdfrwt beam="2">  1        1 0.87789098E-02 0.20010653E+02</pdfrwt>
<pdfrwt beam="1">  1       -1 0.26989526E-03 0.20010653E+02</pdfrwt>
<totfact> 0.42071657E+06</totfact>
</mgrwt>
</event>
<event>
 5    1  0.2115795E-006  0.2000149E+02  0.7818608E-02  0.1745298E+00
          1   -1    0    0  501    0  0.00000000000E+00  0.00000000000E+00  0.22525145626E+01  0.22525194036E+01  0.46700000000E-02 0. -1.
         -1   -1    0    0    0  501 -0.00000000000E+00 -0.00000000000E+00 -0.44401395345E+02  0.44401395590E+02  0.46700000000E-02 0.  1.
       1023    2    1    2    0    0  0.00000000000E+00  0.00000000000E+00 -0.42148880782E+02  0.46653914994E+02  0.20001490771E+02 0.  0.
        -13    1    3    3    0    0  0.73945264176E+01 -0.67322997506E+01 -0.21006240358E+02  0.23265343053E+02  0.10570000000E+00 0.  1.
         13    1    3    3    0    0 -0.73945264176E+01  0.67322997506E+01 -0.21142640424E+02  0.23388571941E+02  0.10570000000E+00 0. -1.
<mgrwt>
<rscale>  0 0.20001491E+02</rscale>
<asrwt>0</asrwt>
<pdfrwt beam="1">  1        1 0.34654113E-03 0.20001491E+02</pdfrwt>
<pdfrwt beam="2">  1       -1 0.68309836E-02 0.20001491E+02</pdfrwt>
<totfact> 0.35331209E+06</totfact>
</mgrwt>
</event>
<event>
 4    1  0.2115795E-006  0.2002856E+02  0.7818608E-02  0.1744761E+00
          1   -1    0    0  501    0  0.00000000000E+00  0.00000000000E+00  0.12723947450E+01  0.12724033150E+01  0.46700000000E-02 0.  1.
         -1   -1    0    0    0  501 -0.00000000000E+00 -0.00000000000E+00 -0.78816319508E+02  0.78816319647E+02  0.46700000000E-02 0. -1.
        -13    1    1    2    0    0 -0.33039388545E+01  0.94525714169E+01 -0.38425001908E+02  0.39708425585E+02  0.10570000000E+00 0. -1.
         13    1    1    2    0    0  0.33039388545E+01 -0.94525714169E+01 -0.39118922856E+02  0.40380297377E+02  0.10570000000E+00 0.  1.
<mgrwt>
<rscale>  0 0.20028562E+02</rscale>
<asrwt>0</asrwt>
<pdfrwt beam="1">  1        1 0.19575377E-03 0.20028562E+02</pdfrwt>
<pdfrwt beam="2">  1       -1 0.12125584E-01 0.20028562E+02</pdfrwt>
<totfact> 0.32960238E+06</totfact>
</mgrwt>
</event>
<event>
 5    1  0.2115795E-006  0.2001226E+02  0.7818608E-02  0.1745084E+00
          1   -1    0    0  501    0  0.00000000000E+00  0.00000000000E+00  0.17801499666E+02  0.17801500278E+02  0.46700000000E-02 0.  1.
         -1   -1    0    0    0  501 -0.00000000000E+00 -0.00000000000E+00 -0.56243899502E+01  0.56243918890E+01  0.46700000000E-02 0. -1.
       1023    2    1    2    0    0  0.00000000000E+00  0.00000000000E+00  0.12177109715E+02  0.23425892167E+02  0.20012256814E+02 0.  0.
        -13    1    3    3    0    0  0.84968778235E+01 -0.52832510755E+01  0.61376429327E+01  0.11738462759E+02  0.10570000000E+00 0.  1.
         13    1    3    3    0    0 -0.84968778235E+01  0.52832510755E+01  0.60394667828E+01  0.11687429409E+02  0.10570000000E+00 0. -1.
<mgrwt>
<rscale>  0 0.20012257E+02</rscale>
<asrwt>0</asrwt>
<pdfrwt beam="1">  1        1 0.27386925E-02 0.20012257E+02</pdfrwt>
<pdfrwt beam="2">  1       -1 0.86529096E-03 0.20012257E+02</pdfrwt>
<totfact> 0.39460235E+06</totfact>
</mgrwt>
</event>
<event>
 5    1  0.2115795E-006  0.2000164E+02  0.7818608E-02  0.1745296E+00
         -1   -1    0    0    0  501 -0.00000000000E+00  0.00000000000E+00  0.71786580769E+02  0.71786580921E+02  0.46700000000E-02 0. -1.
          1   -1    0    0  501    0  0.00000000000E+00 -0.00000000000E+00 -0.13932418871E+01  0.13932497138E+01  0.46700000000E-02 0.  1.
       1023    2    1    2    0    0  0.00000000000E+00  0.00000000000E+00  0.70393338882E+02  0.73179830635E+02  0.20001636253E+02 0.  0.
        -13    1    3    3    0    0  0.48418098228E+01 -0.87499167036E+01  0.35313863425E+02  0.36702646869E+02  0.10570000000E+00 0.  1.
         13    1    3    3    0    0 -0.48418098228E+01  0.87499167036E+01  0.35079475456E+02  0.36477183766E+02  0.10570000000E+00 0. -1.
<mgrwt>
<rscale>  0 0.20001636E+02</rscale>
<asrwt>0</asrwt>
<pdfrwt beam="2">  1        1 0.21434546E-03 0.20001636E+02</pdfrwt>
<pdfrwt beam="1">  1       -1 0.11044093E-01 0.20001636E+02</pdfrwt>
<totfact> 0.33483565E+06</totfact>
</mgrwt>
</event>
<event>
 5    1  0.2115795E-006  0.2000403E+02  0.7818608E-02  0.1745248E+00
         -1   -1    0    0    0  501 -0.00000000000E+00  0.00000000000E+00  0.49589388730E+02  0.49589388950E+02  0.46700000000E-02 0. -1.
          1   -1    0    0  501    0  0.00000000000E+00 -0.00000000000E+00 -0.20173708120E+01  0.20173762173E+01  0.46700000000E-02 0.  1.
       1023    2    1    2    0    0  0.00000000000E+00  0.00000000000E+00  0.47572017918E+02  0.51606765167E+02  0.20004032649E+02 0.  0.
        -13    1    3    3    0    0 -0.62421662373E+01 -0.78140600977E+01  0.23968128840E+02  0.25971263872E+02  0.10570000000E+00 0.  1.
         13    1    3    3    0    0  0.62421662373E+01  0.78140600977E+01  0.23603889078E+02  0.25635501295E+02  0.10570000000E+00 0. -1.
<mgrwt>
<rscale>  0 0.20004033E+02</rscale>
<asrwt>0</asrwt>
<pdfrwt beam="2">  1        1 0.31036518E-03 0.20004033E+02</pdfrwt>
<pdfrwt beam="1">  1       -1 0.76291370E-02 0.20004033E+02</pdfrwt>
<totfact> 0.34943385E+06</totfact>
</mgrwt>
</event>
<event>
 5    1  0.2115795E-006  0.2001195E+02  0.7818608E-02  0.1745091E+00
         -1   -1    0    0    0  501 -0.00000000000E+00  0.00000000000E+00  0.91584320765E+01  0.91584332672E+01  0.46700000000E-02 0.  1.
          1   -1    0    0  501    0  0.00000000000E+00 -0.00000000000E+00 -0.10931950959E+02  0.10931951956E+02  0.46700000000E-02 0. -1.
       1023    2    1    2    0    0  0.00000000000E+00  0.00000000000E+00 -0.17735188822E+01  0.20090385223E+02  0.20011951659E+02 0.  0.
        -13    1    3    3    0    0  0.83041875680E+00 -0.99703335589E+01 -0.99316174002E+00  0.10054585487E+02  0.10570000000E+00 0. -1.
         13    1    3    3    0    0 -0.83041875680E+00  0.99703335589E+01 -0.78035714221E+00  0.10035799736E+02  0.10570000000E+00 0.  1.
<mgrwt>
<rscale>  0 0.20011952E+02</rscale>
<asrwt>0</asrwt>
<pdfrwt beam="2">  1        1 0.16818388E-02 0.20011952E+02</pdfrwt>
<pdfrwt beam="1">  1       -1 0.14089897E-02 0.20011952E+02</pdfrwt>
<totfact> 0.38708847E+06</totfact>
</mgrwt>
</event>
<event>
 4    1  0.2115795E-006  0.2002291E+02  0.7818608E-02  0.1744873E+00
         -1   -1    0    0    0  501 -0.00000000000E+00  0.00000000000E+00  0.47253826430E+02  0.47253826660E+02  0.46700000000E-02 0. -1.
          1   -1    0    0  501    0  0.00000000000E+00 -0.00000000000E+00 -0.21210793170E+01  0.21210844580E+01  0.46700000000E-02 0.  1.
        -13    1    1    2    0    0 -0.82033972599E+01  0.57314612172E+01  0.21901490163E+02  0.24079697218E+02  0.10570000000E+00 0. -1.
         13    1    1    2    0    0  0.82033972599E+01 -0.57314612172E+01  0.23231256950E+02  0.25295213900E+02  0.10570000000E+00 0.  1.
<mgrwt>
<rscale>  0 0.20022912E+02</rscale>
<asrwt>0</asrwt>
<pdfrwt beam="2">  1        1 0.32632032E-03 0.20022912E+02</pdfrwt>
<pdfrwt beam="1">  1       -1 0.72698197E-02 0.20022912E+02</pdfrwt>
<totfact> 0.35038822E+06</totfact>
</mgrwt>
</event>
<event>
 4    1  0.2115795E-006  0.2001438E+02  0.7818608E-02  0.1745042E+00
         -1   -1    0    0    0  501 -0.00000000000E+00  0.00000000000E+00  0.28331713750E+01  0.28331752238E+01  0.46700000000E-02 0.  1.
          1   -1    0    0  501    0  0.00000000000E+00 -0.00000000000E+00 -0.35346874313E+02  0.35346874622E+02  0.46700000000E-02 0. -1.
        -13    1    1    2    0    0  0.11074307621E+01  0.99437385377E+01 -0.16577880180E+02  0.19363409378E+02  0.10570000000E+00 0.  1.
         13    1    1    2    0    0 -0.11074307621E+01 -0.99437385377E+01 -0.15935822759E+02  0.18816640467E+02  0.10570000000E+00 0. -1.
<mgrwt>
<rscale>  0 0.20014378E+02</rscale>
<asrwt>0</asrwt>
<pdfrwt beam="2">  1        1 0.54379807E-02 0.20014378E+02</pdfrwt>
<pdfrwt beam="1">  1       -1 0.43587286E-03 0.20014378E+02</pdfrwt>
<totfact> 0.40748558E+06</totfact>
</mgrwt>
</event>
<event>
 5    1  0.2115795E-006  0.2000264E+02  0.7818608E-02  0.1745276E+00
         -1   -1    0    0    0  501 -0.00000000000E+00  0.00000000000E+00  0.62454755953E+02  0.62454756128E+02  0.46700000000E-02 0.  1.
          1   -1    0    0  501    0  0.00000000000E+00 -0.00000000000E+00 -0.16015776071E+01  0.16015844156E+01  0.46700000000E-02 0. -1.
       1023    2    1    2    0    0  0.00000000000E+00  0.00000000000E+00  0.60853178346E+02  0.64056340543E+02  0.20002636051E+02 0.  0.
        -13    1    3    3    0    0  0.10000165662E+02  0.98968903943E-01  0.30280479934E+02  0.31889367281E+02  0.10570000000E+00 0. -1.
         13    1    3    3    0    0 -0.10000165662E+02 -0.98968903943E-01  0.30572698413E+02  0.32166973262E+02  0.10570000000E+00 0.  1.
<mgrwt>
<rscale>  0 0.20002636E+02</rscale>
<asrwt>0</asrwt>
<pdfrwt beam="2">  1        1 0.24639711E-03 0.20002636E+02</pdfrwt>
<pdfrwt beam="1">  1       -1 0.96084240E-02 0.20002636E+02</pdfrwt>
<totfact> 0.34071826E+06</totfact>
</mgrwt>
</event>
<event>
 4    1  0.2115795E-006  0.2005556E+02  0.7818608E-02  0.1744226E+00
          1   -1    0    0  501    0  0.00000000000E+00  0.00000000000E+00  0.20331513092E+02  0.20331513629E+02  0.46700000000E-02 0.  1.
         -1   -1    0    0    0  501 -0.00000000000E+00 -0.00000000000E+00 -0.49458344487E+01  0.49458366535E+01  0.46700000000E-02 0. -1.
        -13    1    1    2    0    0 -0.26954993669E+01  0.96565271895E+01  0.74711946401E+01  0.12503765674E+02  0.10570000000E+00 0.  1.
         13    1    1    2    0    0  0.26954993669E+01 -0.96565271895E+01  0.79144840034E+01  0.12773584608E+02  0.10570000000E+00 0. -1.
<mgrwt>
<rscale>  0 0.20055556E+02</rscale>
<asrwt>0</asrwt>
<pdfrwt beam="1">  1        1 0.31279254E-02 0.20055556E+02</pdfrwt>
<pdfrwt beam="2">  1       -1 0.76089781E-03 0.20055556E+02</pdfrwt>
<totfact> 0.39487136E+06</totfact>
</mgrwt>
</event>
<event>
 5    1  0.2115795E-006  0.2000405E+02  0.7818608E-02  0.1745247E+00
         -1   -1    0    0    0  501 -0.00000000000E+00  0.00000000000E+00  0.71786385250E+01  0.71786400440E+01  0.46700000000E-02 0. -1.
          1   -1    0    0  501    0  0.00000000000E+00 -0.00000000000E+00 -0.13935861699E+02  0.13935862481E+02  0.46700000000E-02 0.  1.
       1023    2    1    2    0    0  0.00000000000E+00  0.00000000000E+00 -0.67572231736E+01  0.21114502525E+02  0.20004053386E+02 0.  0.
        -13    1    3    3    0    0  0.23971034390E+01  0.97093546083E+01 -0.34927516865E+01  0.10593779243E+02  0.10570000000E+00 0.  1.
         13    1    3    3    0    0 -0.23971034390E+01 -0.97093546083E+01 -0.32644714871E+01  0.10520723283E+02  0.10570000000E+00 0. -1.
<mgrwt>
<rscale>  0 0.20004053E+02</rscale>
<asrwt>0</asrwt>
<pdfrwt beam="2">  1        1 0.21439789E-02 0.20004053E+02</pdfrwt>
<pdfrwt beam="1">  1       -1 0.11044061E-02 0.20004053E+02</pdfrwt>
<totfact> 0.39113601E+06</totfact>
</mgrwt>
</event>
<event>
 4    1  0.2115795E-006  0.2066686E+02  0.7818608E-02  0.1732383E+00
          1   -1    0    0  501    0  0.00000000000E+00  0.00000000000E+00  0.18139271871E+01  0.18139331986E+01  0.46700000000E-02 0.  1.
         -1   -1    0    0    0  501 -0.00000000000E+00 -0.00000000000E+00 -0.58866516919E+02  0.58866517104E+02  0.46700000000E-02 0. -1.
        -13    1    1    2    0    0  0.67396012435E+01  0.76472781343E+01 -0.33496505221E+02  0.35013284940E+02  0.10570000000E+00 0. -1.
         13    1    1    2    0    0 -0.67396012435E+01 -0.76472781343E+01 -0.23556084511E+02  0.25667165363E+02  0.10570000000E+00 0.  1.
<mgrwt>
<rscale>  0 0.20666859E+02</rscale>
<asrwt>0</asrwt>
<pdfrwt beam="1">  1        1 0.27906624E-03 0.20666859E+02</pdfrwt>
<pdfrwt beam="2">  1       -1 0.90563862E-02 0.20666859E+02</pdfrwt>
<totfact> 0.31925177E+06</totfact>
</mgrwt>
</event>
<event>
 5    1  0.2115795E-006  0.2001058E+02  0.7818608E-02  0.1745118E+00
         -1   -1    0    0    0  501 -0.00000000000E+00  0.00000000000E+00  0.41136413069E+02  0.41136413334E+02  0.46700000000E-02 0. -1.
          1   -1    0    0  501    0  0.00000000000E+00 -0.00000000000E+00 -0.24335068815E+01  0.24335113624E+01  0.46700000000E-02 0.  1.
       1023    2    1    2    0    0  0.00000000000E+00  0.00000000000E+00  0.38702906188E+02  0.43569924697E+02  0.20010581968E+02 0.  0.
        -13    1    3    3    0    0  0.89914709646E+01 -0.43853580029E+01  0.19069570977E+02  0.21534568133E+02  0.10570000000E+00 0.  1.
         13    1    3    3    0    0 -0.89914709646E+01  0.43853580029E+01  0.19633335211E+02  0.22035356564E+02  0.10570000000E+00 0. -1.
<mgrwt>
<rscale>  0 0.20010582E+02</rscale>
<asrwt>0</asrwt>
<pdfrwt beam="2">  1        1 0.37438608E-03 0.20010582E+02</pdfrwt>
<pdfrwt beam="1">  1       -1 0.63286786E-02 0.20010582E+02</pdfrwt>
<totfact> 0.35542231E+06</totfact>
</mgrwt>
</event>
<event>
 5    1  0.2115795E-006  0.2000330E+02  0.7818608E-02  0.1745262E+00
         -1   -1    0    0    0  501 -0.00000000000E+00  0.00000000000E+00  0.18544387646E+01  0.18544446448E+01  0.46700000000E-02 0.  1.
          1   -1    0    0  501    0  0.00000000000E+00 -0.00000000000E+00 -0.53942398454E+02  0.53942398656E+02  0.46700000000E-02 0. -1.
       1023    2    1    2    0    0  0.00000000000E+00  0.00000000000E+00 -0.52087959689E+02  0.55796843301E+02  0.20003304171E+02 0.  0.
        -13    1    3    3    0    0 -0.99468491001E+01 -0.10312629594E+01 -0.26424008204E+02  0.28253189066E+02  0.10570000000E+00 0.  1.
         13    1    3    3    0    0  0.99468491001E+01  0.10312629594E+01 -0.25663951485E+02  0.27543654235E+02  0.10570000000E+00 0. -1.
<mgrwt>
<rscale>  0 0.20003304E+02</rscale>
<asrwt>0</asrwt>
<pdfrwt beam="2">  1        1 0.82988298E-02 0.20003304E+02</pdfrwt>
<pdfrwt beam="1">  1       -1 0.28529878E-03 0.20003304E+02</pdfrwt>
<totfact> 0.41928172E+06</totfact>
</mgrwt>
</event>
<event>
 5    1  0.2115795E-006  0.2000156E+02  0.7818608E-02  0.1745297E+00
         -1   -1    0    0    0  501 -0.00000000000E+00  0.00000000000E+00  0.25156670216E+01  0.25156713562E+01  0.46700000000E-02 0. -1.
          1   -1    0    0  501    0  0.00000000000E+00 -0.00000000000E+00 -0.39757041213E+02  0.39757041488E+02  0.46700000000E-02 0.  1.
       1023    2    1    2    0    0  0.00000000000E+00  0.00000000000E+00 -0.37241374192E+02  0.42272712844E+02  0.20001557427E+02 0.  0.
        -13    1    3    3    0    0 -0.49938243354E+01 -0.86638935979E+01 -0.18503611232E+02  0.21033215039E+02  0.10570000000E+00 0.  1.
         13    1    3    3    0    0  0.49938243354E+01  0.86638935979E+01 -0.18737762960E+02  0.21239497805E+02  0.10570000000E+00 0. -1.
<mgrwt>
<rscale>  0 0.20001557E+02</rscale>
<asrwt>0</asrwt>
<pdfrwt beam="2">  1        1 0.61164677E-02 0.20001557E+02</pdfrwt>
<pdfrwt beam="1">  1       -1 0.38702608E-03 0.20001557E+02</pdfrwt>
<totfact> 0.41088052E+06</totfact>
</mgrwt>
</event>
<event>
 5    1  0.2115795E-006  0.2000293E+02  0.7818608E-02  0.1745270E+00
          1   -1    0    0  501    0  0.00000000000E+00  0.00000000000E+00  0.21042060293E+02  0.21042060811E+02  0.46700000000E-02 0. -1.
         -1   -1    0    0    0  501 -0.00000000000E+00 -0.00000000000E+00 -0.47537757157E+01  0.47537780095E+01  0.46700000000E-02 0.  1.
       1023    2    1    2    0    0  0.00000000000E+00  0.00000000000E+00  0.16288284577E+02  0.25795838820E+02  0.20002926936E+02 0.  0.
        -13    1    3    3    0    0  0.87297261507E+01 -0.48790931126E+01  0.82299831750E+01  0.12952121981E+02  0.10570000000E+00 0. -1.
         13    1    3    3    0    0 -0.87297261507E+01  0.48790931126E+01  0.80583014019E+01  0.12843716839E+02  0.10570000000E+00 0.  1.
<mgrwt>
<rscale>  0 0.20002927E+02</rscale>
<asrwt>0</asrwt>
<pdfrwt beam="1">  1        1 0.32372402E-02 0.20002927E+02</pdfrwt>
<pdfrwt beam="2">  1       -1 0.73135034E-03 0.20002927E+02</pdfrwt>
<totfact> 0.39778902E+06</totfact>
</mgrwt>
</event>
<event>
 5    1  0.2115795E-006  0.2000406E+02  0.7818608E-02  0.1745247E+00
          1   -1    0    0  501    0  0.00000000000E+00  0.00000000000E+00  0.68077464126E+02  0.68077464286E+02  0.46700000000E-02 0. -1.
         -1   -1    0    0    0  501 -0.00000000000E+00 -0.00000000000E+00 -0.14695079314E+01  0.14695153519E+01  0.46700000000E-02 0.  1.
       1023    2    1    2    0    0  0.00000000000E+00  0.00000000000E+00  0.66607956194E+02  0.69546979638E+02  0.20004063296E+02 0.  0.
        -13    1    3    3    0    0 -0.47954926730E+00  0.99899209925E+01  0.33195383183E+02  0.34669484076E+02  0.10570000000E+00 0. -1.
         13    1    3    3    0    0  0.47954926730E+00 -0.99899209925E+01  0.33412573011E+02  0.34877495562E+02  0.10570000000E+00 0.  1.
<mgrwt>
<rscale>  0 0.20004063E+02</rscale>
<asrwt>0</asrwt>
<pdfrwt beam="1">  1        1 0.10473459E-01 0.20004063E+02</pdfrwt>
<pdfrwt beam="2">  1       -1 0.22607868E-03 0.20004063E+02</pdfrwt>
<totfact> 0.42711181E+06</totfact>
</mgrwt>
</event>
<event>
 5    1  0.2115795E-006  0.2000157E+02  0.7818608E-02  0.1745297E+00
         -1   -1    0    0    0  501 -0.00000000000E+00  0.00000000000E+00  0.35244591280E+02  0.35244591590E+02  0.46700000000E-02 0.  1.
          1   -1    0    0  501    0  0.00000000000E+00 -0.00000000000E+00 -0.28377591501E+01  0.28377629928E+01  0.46700000000E-02 0. -1.
       1023    2    1    2    0    0  0.00000000000E+00  0.00000000000E+00  0.32406832130E+02  0.38082354582E+02  0.20001573984E+02 0.  0.
        -13    1    3    3    0    0 -0.94336250156E+01 -0.33183255793E+01  0.16200477218E+02  0.19038676429E+02  0.10570000000E+00 0. -1.
         13    1    3    3    0    0  0.94336250156E+01  0.33183255793E+01  0.16206354912E+02  0.19043678153E+02  0.10570000000E+00 0.  1.
<mgrwt>
<rscale>  0 0.20001574E+02</rscale>
<asrwt>0</asrwt>
<pdfrwt beam="2">  1        1 0.43657862E-03 0.20001574E+02</pdfrwt>
<pdfrwt beam="1">  1       -1 0.54222455E-02 0.20001574E+02</pdfrwt>
<totfact> 0.36041578E+06</totfact>
</mgrwt>
</event>
<event>
 4    1  0.2115795E-006  0.2024839E+02  0.7818608E-02  0.1740433E+00
          1   -1    0    0  501    0  0.00000000000E+00  0.00000000000E+00  0.11576360239E+02  0.11576361181E+02  0.46700000000E-02 0.  1.
         -1   -1    0    0    0  501 -0.00000000000E+00 -0.00000000000E+00 -0.88541902248E+01  0.88541914563E+01  0.46700000000E-02 0. -1.
        -13    1    1    2    0    0 -0.94472976700E+01 -0.34258449653E+01  0.12519889311E+00  0.10050606660E+02  0.10570000000E+00 0. -1.
         13    1    1    2    0    0  0.94472976700E+01  0.34258449653E+01  0.25969711213E+01  0.10379945977E+02  0.10570000000E+00 0.  1.
<mgrwt>
<rscale>  0 0.20248389E+02</rscale>
<asrwt>0</asrwt>
<pdfrwt beam="1">  1        1 0.17809787E-02 0.20248389E+02</pdfrwt>
<pdfrwt beam="2">  1       -1 0.13621833E-02 0.20248389E+02</pdfrwt>
<totfact> 0.37778858E+06</totfact>
</mgrwt>
</event>
<event>
 5    1  0.2115795E-006  0.2000230E+02  0.7818608E-02  0.1745282E+00
         -1   -1    0    0    0  501 -0.00000000000E+00  0.00000000000E+00  0.63158355279E+01  0.63158372545E+01  0.46700000000E-02 0.  1.
          1   -1    0    0  501    0  0.00000000000E+00 -0.00000000000E+00 -0.15836849369E+02  0.15836850057E+02  0.46700000000E-02 0. -1.
       1023    2    1    2    0    0  0.00000000000E+00  0.00000000000E+00 -0.95210138407E+01  0.22152687312E+02  0.20002296132E+02 0.  0.
        -13    1    3    3    0    0  0.74958073555E+01 -0.66195655709E+01 -0.48463933319E+01  0.11113256817E+02  0.10570000000E+00 0. -1.
         13    1    3    3    0    0 -0.74958073555E+01  0.66195655709E+01 -0.46746205088E+01  0.11039430495E+02  0.10570000000E+00 0.  1.
<mgrwt>
<rscale>  0 0.20002296E+02</rscale>
<asrwt>0</asrwt>
<pdfrwt beam="2">  1        1 0.24364385E-02 0.20002296E+02</pdfrwt>
<pdfrwt beam="1">  1       -1 0.97166719E-03 0.20002296E+02</pdfrwt>
<totfact> 0.39318916E+06</totfact>
</mgrwt>
</event>
<event>
 5    1  0.2115795E-006  0.2000178E+02  0.7818608E-02  0.1745293E+00
          1   -1    0    0  501    0  0.00000000000E+00  0.00000000000E+00  0.74392261079E+02  0.74392261225E+02  0.46700000000E-02 0.  1.
         -1   -1    0    0    0  501 -0.00000000000E+00 -0.00000000000E+00 -0.13444609648E+01  0.13444690754E+01  0.46700000000E-02 0. -1.
       1023    2    1    2    0    0  0.00000000000E+00  0.00000000000E+00  0.73047800114E+02  0.75736730301E+02  0.20001780300E+02 0.  0.
        -13    1    3    3    0    0 -0.99290279867E+01 -0.11894242894E+01  0.36824549122E+02  0.38158340077E+02  0.10570000000E+00 0.  1.
         13    1    3    3    0    0  0.99290279867E+01  0.11894242894E+01  0.36223250992E+02  0.37578390224E+02  0.10570000000E+00 0. -1.
<mgrwt>
<rscale>  0 0.20001780E+02</rscale>
<asrwt>0</asrwt>
<pdfrwt beam="1">  1        1 0.11444964E-01 0.20001780E+02</pdfrwt>
<pdfrwt beam="2">  1       -1 0.20684079E-03 0.20001780E+02</pdfrwt>
<totfact> 0.43058669E+06</totfact>
</mgrwt>
</event>
<event>
 4    1  0.2115795E-006  0.2002789E+02  0.7818608E-02  0.1744774E+00
          1   -1    0    0  501    0  0.00000000000E+00  0.00000000000E+00  0.11364201495E+02  0.11364202454E+02  0.46700000000E-02 0. -1.
         -1   -1    0    0    0  501 -0.00000000000E+00 -0.00000000000E+00 -0.88241157744E+01  0.88241170102E+01  0.46700000000E-02 0.  1.
        -13    1    1    2    0    0 -0.75440781758E+01  0.65775124871E+01  0.96580848089E+00  0.10055881093E+02  0.10570000000E+00 0.  1.
         13    1    1    2    0    0  0.75440781758E+01 -0.65775124871E+01  0.15742772395E+01  0.10132438372E+02  0.10570000000E+00 0. -1.
<mgrwt>
<rscale>  0 0.20027886E+02</rscale>
<asrwt>0</asrwt>
<pdfrwt beam="1">  1        1 0.17483389E-02 0.20027886E+02</pdfrwt>
<pdfrwt beam="2">  1       -1 0.13575564E-02 0.20027886E+02</pdfrwt>
<totfact> 0.38698391E+06</totfact>
</mgrwt>
</event>
<event>
 5    1  0.2115795E-006  0.2000176E+02  0.7818608E-02  0.1745293E+00
          1   -1    0    0  501    0  0.00000000000E+00  0.00000000000E+00  0.15889550844E+01  0.15889619471E+01  0.46700000000E-02 0.  1.
         -1   -1    0    0    0  501 -0.00000000000E+00 -0.00000000000E+00 -0.62945405051E+02  0.62945405224E+02  0.46700000000E-02 0. -1.
       1023    2    1    2    0    0  0.00000000000E+00  0.00000000000E+00 -0.61356449967E+02  0.64534367171E+02  0.20001764765E+02 0.  0.
        -13    1    3    3    0    0 -0.97937632141E+01 -0.20218987745E+01 -0.30757478901E+02  0.32342534740E+02  0.10570000000E+00 0.  1.
         13    1    3    3    0    0  0.97937632141E+01  0.20218987745E+01 -0.30598971065E+02  0.32191832431E+02  0.10570000000E+00 0. -1.
<mgrwt>
<rscale>  0 0.20001765E+02</rscale>
<asrwt>0</asrwt>
<pdfrwt beam="1">  1        1 0.24445522E-03 0.20001765E+02</pdfrwt>
<pdfrwt beam="2">  1       -1 0.96839071E-02 0.20001765E+02</pdfrwt>
<totfact> 0.34043115E+06</totfact>
</mgrwt>
</event>
<event>
 5    1  0.2115795E-006  0.2000722E+02  0.7818608E-02  0.1745185E+00
         -1   -1    0    0    0  501 -0.00000000000E+00  0.00000000000E+00  0.30500203327E+01  0.30500239079E+01  0.46700000000E-02 0. -1.
          1   -1    0    0  501    0  0.00000000000E+00 -0.00000000000E+00 -0.32810311991E+02  0.32810312323E+02  0.46700000000E-02 0.  1.
       1023    2    1    2    0    0  0.00000000000E+00  0.00000000000E+00 -0.29760291658E+02  0.35860336231E+02  0.20007217574E+02 0.  0.
        -13    1    3    3    0    0 -0.64819200220E+01 -0.76187478008E+01 -0.14843806899E+02  0.17900010641E+02  0.10570000000E+00 0. -1.
         13    1    3    3    0    0  0.64819200220E+01  0.76187478008E+01 -0.14916484760E+02  0.17960325590E+02  0.10570000000E+00 0.  1.
<mgrwt>
<rscale>  0 0.20007218E+02</rscale>
<asrwt>0</asrwt>
<pdfrwt beam="2">  1        1 0.50477404E-02 0.20007218E+02</pdfrwt>
<pdfrwt beam="1">  1       -1 0.46923422E-03 0.20007218E+02</pdfrwt>
<totfact> 0.40614271E+06</totfact>
</mgrwt>
</event>
<event>
 5    1  0.2115795E-006  0.2000223E+02  0.7818608E-02  0.1745284E+00
         -1   -1    0    0    0  501 -0.00000000000E+00  0.00000000000E+00  0.81842049871E+02  0.81842050004E+02  0.46700000000E-02 0.  1.
          1   -1    0    0  501    0  0.00000000000E+00 -0.00000000000E+00 -0.12221339828E+01  0.12221429052E+01  0.46700000000E-02 0. -1.
       1023    2    1    2    0    0  0.00000000000E+00  0.00000000000E+00  0.80619915888E+02  0.83064192910E+02  0.20002232522E+02 0.  0.
        -13    1    3    3    0    0 -0.97833746906E+01  0.20727592185E+01  0.40226606370E+02  0.41451197614E+02  0.10570000000E+00 0. -1.
         13    1    3    3    0    0  0.97833746906E+01 -0.20727592185E+01  0.40393309518E+02  0.41612995295E+02  0.10570000000E+00 0.  1.
<mgrwt>
<rscale>  0 0.20002233E+02</rscale>
<asrwt>0</asrwt>
<pdfrwt beam="2">  1        1 0.18802131E-03 0.20002233E+02</pdfrwt>
<pdfrwt beam="1">  1       -1 0.12591085E-01 0.20002233E+02</pdfrwt>
<totfact> 0.32877054E+06</totfact>
</mgrwt>
</event>
<event>
 5    1  0.2115795E-006  0.2000245E+02  0.7818608E-02  0.1745279E+00
          1   -1    0    0  501    0  0.00000000000E+00  0.00000000000E+00  0.36241989778E+01  0.36242019866E+01  0.46700000000E-02 0.  1.
         -1   -1    0    0    0  501 -0.00000000000E+00 -0.00000000000E+00 -0.27599044309E+02  0.27599044705E+02  0.46700000000E-02 0. -1.
       1023    2    1    2    0    0  0.00000000000E+00  0.00000000000E+00 -0.23974845332E+02  0.31223246691E+02  0.20002447982E+02 0.  0.
        -13    1    3    3    0    0 -0.92721365204E+01  0.37455707089E+01 -0.11820076364E+02  0.15483126084E+02  0.10570000000E+00 0.  1.
         13    1    3    3    0    0  0.92721365204E+01 -0.37455707089E+01 -0.12154768968E+02  0.15740120607E+02  0.10570000000E+00 0. -1.
<mgrwt>
<rscale>  0 0.20002448E+02</rscale>
<asrwt>0</asrwt>
<pdfrwt beam="1">  1        1 0.55756935E-03 0.20002448E+02</pdfrwt>
<pdfrwt beam="2">  1       -1 0.42460069E-02 0.20002448E+02</pdfrwt>
<totfact> 0.36687219E+06</totfact>
</mgrwt>
</event>
<event>
 5    1  0.2115795E-006  0.2000682E+02  0.7818608E-02  0.1745192E+00
         -1   -1    0    0    0  501 -0.00000000000E+00  0.00000000000E+00  0.76757282443E+01  0.76757296650E+01  0.46700000000E-02 0.  1.
          1   -1    0    0  501    0  0.00000000000E+00 -0.00000000000E+00 -0.13036966011E+02  0.13036966848E+02  0.46700000000E-02 0. -1.
       1023    2    1    2    0    0  0.00000000000E+00  0.00000000000E+00 -0.53612377669E+01  0.20712696513E+02  0.20006821997E+02 0.  0.
        -13    1    3    3    0    0  0.88666092469E+01  0.46299155704E+01 -0.26136737658E+01  0.10339020300E+02  0.10570000000E+00 0.  1.
         13    1    3    3    0    0 -0.88666092469E+01 -0.46299155704E+01 -0.27475640012E+01  0.10373676212E+02  0.10570000000E+00 0. -1.
<mgrwt>
<rscale>  0 0.20006822E+02</rscale>
<asrwt>0</asrwt>
<pdfrwt beam="2">  1        1 0.20056873E-02 0.20006822E+02</pdfrwt>
<pdfrwt beam="1">  1       -1 0.11808814E-02 0.20006822E+02</pdfrwt>
<totfact> 0.38999700E+06</totfact>
</mgrwt>
</event>
<event>
 5    1  0.2115795E-006  0.2000211E+02  0.7818608E-02  0.1745286E+00
         -1   -1    0    0    0  501 -0.00000000000E+00  0.00000000000E+00  0.11792685726E+01  0.11792778194E+01  0.46700000000E-02 0.  1.
          1   -1    0    0  501    0  0.00000000000E+00 -0.00000000000E+00 -0.84815838076E+02  0.84815838205E+02  0.46700000000E-02 0. -1.
       1023    2    1    2    0    0  0.00000000000E+00  0.00000000000E+00 -0.83636569504E+02  0.85995116024E+02  0.20002105431E+02 0.  0.
        -13    1    3    3    0    0 -0.63289856100E+01  0.77429582338E+01 -0.41729979594E+02  0.42911674758E+02  0.10570000000E+00 0.  1.
         13    1    3    3    0    0  0.63289856100E+01 -0.77429582338E+01 -0.41906589909E+02  0.43083441267E+02  0.10570000000E+00 0. -1.
<mgrwt>
<rscale>  0 0.20002105E+02</rscale>
<asrwt>0</asrwt>
<pdfrwt beam="2">  1        1 0.13048586E-01 0.20002105E+02</pdfrwt>
<pdfrwt beam="1">  1       -1 0.18142672E-03 0.20002105E+02</pdfrwt>
<totfact> 0.43595901E+06</totfact>
</mgrwt>
</event>
<event>
 5    1  0.2115795E-006  0.2000174E+02  0.7818608E-02  0.1745294E+00
         -1   -1    0    0    0  501 -0.00000000000E+00  0.00000000000E+00  0.12240485277E+02  0.12240486168E+02  0.46700000000E-02 0. -1.
          1   -1    0    0  501    0  0.00000000000E+00 -0.00000000000E+00 -0.81710274344E+01  0.81710287689E+01  0.46700000000E-02 0.  1.
       1023    2    1    2    0    0  0.00000000000E+00  0.00000000000E+00  0.40694578425E+01  0.20411514937E+02  0.20001736297E+02 0.  0.
        -13    1    3    3    0    0  0.30792812446E+01 -0.95143084772E+01  0.19873839534E+01  0.10196318269E+02  0.10570000000E+00 0.  1.
         13    1    3    3    0    0 -0.30792812446E+01  0.95143084772E+01  0.20820738891E+01  0.10215196667E+02  0.10570000000E+00 0. -1.
<mgrwt>
<rscale>  0 0.20001736E+02</rscale>
<asrwt>0</asrwt>
<pdfrwt beam="2">  1        1 0.12570813E-02 0.20001736E+02</pdfrwt>
<pdfrwt beam="1">  1       -1 0.18831518E-02 0.20001736E+02</pdfrwt>
<totfact> 0.38296289E+06</totfact>
</mgrwt>
</event>
<event>
 5    1  0.2115795E-006  0.2000922E+02  0.7818608E-02  0.1745145E+00
          1   -1    0    0  501    0  0.00000000000E+00  0.00000000000E+00  0.63798751948E+02  0.63798752118E+02  0.46700000000E-02 0.  1.
         -1   -1    0    0    0  501 -0.00000000000E+00 -0.00000000000E+00 -0.15688699001E+01  0.15688768506E+01  0.46700000000E-02 0. -1.
       1023    2    1    2    0    0  0.00000000000E+00  0.00000000000E+00  0.62229882047E+02  0.65367628969E+02  0.20009215312E+02 0.  0.
        -13    1    3    3    0    0  0.86865116915E+01  0.49622614660E+01  0.31240519812E+02  0.32803365297E+02  0.10570000000E+00 0.  1.
         13    1    3    3    0    0 -0.86865116915E+01 -0.49622614660E+01  0.30989362236E+02  0.32564263672E+02  0.10570000000E+00 0. -1.
<mgrwt>
<rscale>  0 0.20009215E+02</rscale>
<asrwt>0</asrwt>
<pdfrwt beam="1">  1        1 0.98151898E-02 0.20009215E+02</pdfrwt>
<pdfrwt beam="2">  1       -1 0.24136523E-03 0.20009215E+02</pdfrwt>
<totfact> 0.42453833E+06</totfact>
</mgrwt>
</event>
<event>
 5    1  0.2115795E-006  0.2001093E+02  0.7818608E-02  0.1745111E+00
         -1   -1    0    0    0  501 -0.00000000000E+00  0.00000000000E+00  0.15335864294E+02  0.15335865005E+02  0.46700000000E-02 0.  1.
          1   -1    0    0  501    0  0.00000000000E+00 -0.00000000000E+00 -0.65277875740E+01  0.65277892445E+01  0.46700000000E-02 0. -1.
       1023    2    1    2    0    0  0.00000000000E+00  0.00000000000E+00  0.88080767198E+01  0.21863654249E+02  0.20010926056E+02 0.  0.
        -13    1    3    3    0    0  0.75416680987E+01  0.65678407284E+01  0.40858193415E+01  0.10803628174E+02  0.10570000000E+00 0.  1.
         13    1    3    3    0    0 -0.75416680987E+01 -0.65678407284E+01  0.47222573784E+01  0.11060026075E+02  0.10570000000E+00 0. -1.
<mgrwt>
<rscale>  0 0.20010926E+02</rscale>
<asrwt>0</asrwt>
<pdfrwt beam="2">  1        1 0.10042752E-02 0.20010926E+02</pdfrwt>
<pdfrwt beam="1">  1       -1 0.23593639E-02 0.20010926E+02</pdfrwt>
<totfact> 0.37875275E+06</totfact>
</mgrwt>
</event>
