<event>
 4    1  0.1754914E-001  0.4464211E+02  0.7818608E-02  0.1476588E+00
          3   -1    0    0  501    0  0.00000000000E+00  0.00000000000E+00  0.11432610000E+03  0.11432613783E+03  0.93000000000E-01 0.  1.
         -3   -1    0    0    0  501 -0.00000000000E+00 -0.00000000000E+00 -0.43574333500E+01  0.43584256791E+01  0.93000000000E-01 0. -1.
        -11    1    1    2    0    0  0.20163093374E+02  0.71464856964E+01  0.71925739029E+02  0.75039553086E+02  0.51100000000E-03 0.  1.
         11    1    1    2    0    0 -0.20163093374E+02 -0.71464856964E+01  0.38042927621E+02  0.43645010419E+02  0.51100000000E-03 0. -1.
<mgrwt>
<rscale>  0 0.44642110E+02</rscale>
<asrwt>0</asrwt>
<pdfrwt beam="1">  1        3 0.17588709E-01 0.44642110E+02</pdfrwt>
<pdfrwt beam="2">  1       -3 0.67045364E-03 0.44642110E+02</pdfrwt>
<totfact> 0.21212473E+05</totfact>
</mgrwt>
</event>
<event>
 4    1  0.1754914E-001  0.3371302E+02  0.7818608E-02  0.1560335E+00
          3   -1    0    0  501    0  0.00000000000E+00  0.00000000000E+00  0.55981366064E+01  0.55989090423E+01  0.93000000000E-01 0. -1.
         -3   -1    0    0    0  501 -0.00000000000E+00 -0.00000000000E+00 -0.50752217196E+02  0.50752302404E+02  0.93000000000E-01 0.  1.
        -11    1    1    2    0    0  0.13734122219E+01 -0.11833062012E+02 -0.26424255420E+01  0.12202050267E+02  0.51100000000E-03 0. -1.
         11    1    1    2    0    0 -0.13734122219E+01  0.11833062012E+02 -0.42511655048E+02  0.44149161180E+02  0.51100000000E-03 0.  1.
<mgrwt>
<rscale>  0 0.33713025E+02</rscale>
<asrwt>0</asrwt>
<pdfrwt beam="1">  1        3 0.86131779E-03 0.33713025E+02</pdfrwt>
<pdfrwt beam="2">  1       -3 0.78080991E-02 0.33713025E+02</pdfrwt>
<totfact> 0.48792585E+05</totfact>
</mgrwt>
</event>
<event>
 4    1  0.1754914E-001  0.4495843E+02  0.7818608E-02  0.1474601E+00
          3   -1    0    0  501    0  0.00000000000E+00  0.00000000000E+00  0.24791043220E+02  0.24791217657E+02  0.93000000000E-01 0. -1.
         -3   -1    0    0    0  501 -0.00000000000E+00 -0.00000000000E+00 -0.20382617121E+02  0.20382829286E+02  0.93000000000E-01 0.  1.
        -11    1    1    2    0    0  0.40712348569E+01  0.21044699876E+02  0.90087464046E+01  0.23251061442E+02  0.51100000000E-03 0. -1.
         11    1    1    2    0    0 -0.40712348569E+01 -0.21044699876E+02 -0.46003203054E+01  0.21922985501E+02  0.51100000000E-03 0.  1.
<mgrwt>
<rscale>  0 0.44958429E+02</rscale>
<asrwt>0</asrwt>
<pdfrwt beam="1">  1        3 0.38140364E-02 0.44958429E+02</pdfrwt>
<pdfrwt beam="2">  1       -3 0.31358170E-02 0.44958429E+02</pdfrwt>
<totfact> 0.25004133E+05</totfact>
</mgrwt>
</event>
<event>
 4    1  0.1754914E-001  0.3113371E+02  0.7818608E-02  0.1585885E+00
          3   -1    0    0  501    0  0.00000000000E+00  0.00000000000E+00  0.39895449041E+01  0.39906287151E+01  0.93000000000E-01 0.  1.
         -3   -1    0    0    0  501 -0.00000000000E+00 -0.00000000000E+00 -0.60731118787E+02  0.60731189995E+02  0.93000000000E-01 0. -1.
        -11    1    1    2    0    0  0.47349709979E+01  0.10974854598E+02 -0.49102876566E+02  0.50536718048E+02  0.51100000000E-03 0. -1.
         11    1    1    2    0    0 -0.47349709979E+01 -0.10974854598E+02 -0.76386973175E+01  0.14185100661E+02  0.51100000000E-03 0.  1.
<mgrwt>
<rscale>  0 0.31133705E+02</rscale>
<asrwt>0</asrwt>
<pdfrwt beam="1">  1        3 0.61386503E-03 0.31133705E+02</pdfrwt>
<pdfrwt beam="2">  1       -3 0.93433372E-02 0.31133705E+02</pdfrwt>
<totfact> 0.57518803E+05</totfact>
</mgrwt>
</event>
<event>
 4    1  0.1754914E-001  0.2519310E+02  0.7818608E-02  0.1658244E+00
          3   -1    0    0  501    0  0.00000000000E+00  0.00000000000E+00  0.32695133147E+01  0.32708357212E+01  0.93000000000E-01 0. -1.
         -3   -1    0    0    0  501 -0.00000000000E+00 -0.00000000000E+00 -0.48519935326E+02  0.48520024454E+02  0.93000000000E-01 0.  1.
        -11    1    1    2    0    0 -0.79687521091E-01 -0.11576745503E+02 -0.12419521145E+02  0.16978571562E+02  0.51100000000E-03 0. -1.
         11    1    1    2    0    0  0.79687521091E-01  0.11576745503E+02 -0.32830900867E+02  0.34812288614E+02  0.51100000000E-03 0.  1.
<mgrwt>
<rscale>  0 0.25193104E+02</rscale>
<asrwt>0</asrwt>
<pdfrwt beam="1">  1        3 0.50311067E-03 0.25193104E+02</pdfrwt>
<pdfrwt beam="2">  1       -3 0.74647135E-02 0.25193104E+02</pdfrwt>
<totfact> 0.96973625E+05</totfact>
</mgrwt>
</event>
<event>
 4    1  0.1754914E-001  0.2928309E+02  0.7818608E-02  0.1606151E+00
         -3   -1    0    0    0  501 -0.00000000000E+00  0.00000000000E+00  0.46905136618E+02  0.46905228814E+02  0.93000000000E-01 0.  1.
          3   -1    0    0  501    0  0.00000000000E+00 -0.00000000000E+00 -0.45698230068E+01  0.45707692256E+01  0.93000000000E-01 0. -1.
        -11    1    1    2    0    0  0.10000169936E+02  0.97927600996E+01  0.28723112052E+02  0.31951818654E+02  0.51100000000E-03 0.  1.
         11    1    1    2    0    0 -0.10000169936E+02 -0.97927600996E+01  0.13612201559E+02  0.19524179385E+02  0.51100000000E-03 0. -1.
<mgrwt>
<rscale>  0 0.29283094E+02</rscale>
<asrwt>0</asrwt>
<pdfrwt beam="2">  1        3 0.70312954E-03 0.29283094E+02</pdfrwt>
<pdfrwt beam="1">  1       -3 0.72162551E-02 0.29283094E+02</pdfrwt>
<totfact> 0.68837326E+05</totfact>
</mgrwt>
</event>
<event>
 4    1  0.1754914E-001  0.3320743E+02  0.7818608E-02  0.1565121E+00
         -3   -1    0    0    0  501 -0.00000000000E+00  0.00000000000E+00  0.64721126357E+02  0.64721193174E+02  0.93000000000E-01 0.  1.
          3   -1    0    0  501    0  0.00000000000E+00 -0.00000000000E+00 -0.42589817712E+01  0.42599970337E+01  0.93000000000E-01 0. -1.
        -11    1    1    2    0    0  0.37483982375E+01 -0.15847867215E+02  0.23506955289E+02  0.28596893745E+02  0.51100000000E-03 0. -1.
         11    1    1    2    0    0 -0.37483982375E+01  0.15847867215E+02  0.36955189297E+02  0.40384296463E+02  0.51100000000E-03 0.  1.
<mgrwt>
<rscale>  0 0.33207434E+02</rscale>
<asrwt>0</asrwt>
<pdfrwt beam="2">  1        3 0.65531121E-03 0.33207434E+02</pdfrwt>
<pdfrwt beam="1">  1       -3 0.99571795E-02 0.33207434E+02</pdfrwt>
<totfact> 0.48869843E+05</totfact>
</mgrwt>
</event>
<event>
 4    1  0.1754914E-001  0.2577505E+02  0.7818608E-02  0.1650113E+00
         -3   -1    0    0    0  501 -0.00000000000E+00  0.00000000000E+00  0.55544426047E+02  0.55544503903E+02  0.93000000000E-01 0.  1.
          3   -1    0    0  501    0  0.00000000000E+00 -0.00000000000E+00 -0.29893864274E+01  0.29908326954E+01  0.93000000000E-01 0. -1.
        -11    1    1    2    0    0  0.11860470207E+02 -0.45151380435E+01  0.21183606963E+02  0.24694178045E+02  0.51100000000E-03 0.  1.
         11    1    1    2    0    0 -0.11860470207E+02  0.45151380435E+01  0.31371432656E+02  0.33841158554E+02  0.51100000000E-03 0. -1.
<mgrwt>
<rscale>  0 0.25775055E+02</rscale>
<asrwt>0</asrwt>
<pdfrwt beam="2">  1        3 0.46002286E-03 0.25775055E+02</pdfrwt>
<pdfrwt beam="1">  1       -3 0.85454133E-02 0.25775055E+02</pdfrwt>
<totfact> 0.90337625E+05</totfact>
</mgrwt>
</event>
<event>
 4    1  0.1754914E-001  0.1041794E+03  0.7818608E-02  0.1271745E+00
          3   -1    0    0  501    0  0.00000000000E+00  0.00000000000E+00  0.50975564796E+02  0.50975649631E+02  0.93000000000E-01 0. -1.
         -3   -1    0    0    0  501 -0.00000000000E+00 -0.00000000000E+00 -0.53228031244E+02  0.53228112488E+02  0.93000000000E-01 0.  1.
        -11    1    1    2    0    0 -0.40809844361E+02 -0.19272428263E+02 -0.27141304782E+02  0.52664222328E+02  0.51100000000E-03 0.  1.
         11    1    1    2    0    0  0.40809844361E+02  0.19272428263E+02  0.24888838334E+02  0.51539539791E+02  0.51100000000E-03 0. -1.
<mgrwt>
<rscale>  0 0.10417941E+03</rscale>
<asrwt>0</asrwt>
<pdfrwt beam="1">  1        3 0.78424073E-02 0.10417941E+03</pdfrwt>
<pdfrwt beam="2">  1       -3 0.81889407E-02 0.10417941E+03</pdfrwt>
<totfact> 0.23833023E+04</totfact>
</mgrwt>
</event>
<event>
 4    1  0.1754914E-001  0.2374041E+02  0.7818608E-02  0.1679782E+00
          3   -1    0    0  501    0  0.00000000000E+00  0.00000000000E+00  0.63063403867E+02  0.63063472441E+02  0.93000000000E-01 0. -1.
         -3   -1    0    0    0  501 -0.00000000000E+00 -0.00000000000E+00 -0.22332507230E+01  0.22351862992E+01  0.93000000000E-01 0.  1.
        -11    1    1    2    0    0  0.45511252931E+01  0.10411038280E+02  0.39863194072E+02  0.41450895062E+02  0.51100000000E-03 0. -1.
         11    1    1    2    0    0 -0.45511252931E+01 -0.10411038280E+02  0.20966959072E+02  0.23847763679E+02  0.51100000000E-03 0.  1.
<mgrwt>
<rscale>  0 0.23740415E+02</rscale>
<asrwt>0</asrwt>
<pdfrwt beam="1">  1        3 0.97022171E-02 0.23740415E+02</pdfrwt>
<pdfrwt beam="2">  1       -3 0.34373117E-03 0.23740415E+02</pdfrwt>
<totfact> 0.10659493E+06</totfact>
</mgrwt>
</event>
<event>
 4    1  0.1754914E-001  0.3310784E+02  0.7818608E-02  0.1566075E+00
          3   -1    0    0  501    0  0.00000000000E+00  0.00000000000E+00  0.64900334271E+01  0.64906997223E+01  0.93000000000E-01 0. -1.
         -3   -1    0    0    0  501 -0.00000000000E+00 -0.00000000000E+00 -0.42220672227E+02  0.42220774653E+02  0.93000000000E-01 0.  1.
        -11    1    1    2    0    0  0.12718200153E+02  0.28772680489E+01 -0.32869738354E+02  0.35361716393E+02  0.51100000000E-03 0.  1.
         11    1    1    2    0    0 -0.12718200153E+02 -0.28772680489E+01 -0.28609004462E+01  0.13349757982E+02  0.51100000000E-03 0. -1.
<mgrwt>
<rscale>  0 0.33107842E+02</rscale>
<asrwt>0</asrwt>
<pdfrwt beam="1">  1        3 0.99852584E-03 0.33107842E+02</pdfrwt>
<pdfrwt beam="2">  1       -3 0.64955470E-02 0.33107842E+02</pdfrwt>
<totfact> 0.52040181E+05</totfact>
</mgrwt>
</event>
<event>
 4    1  0.1754914E-001  0.2935912E+02  0.7818608E-02  0.1605283E+00
          3   -1    0    0  501    0  0.00000000000E+00  0.00000000000E+00  0.78449121657E+01  0.78454633953E+01  0.93000000000E-01 0.  1.
         -3   -1    0    0    0  501 -0.00000000000E+00 -0.00000000000E+00 -0.27467099792E+02  0.27467257234E+02  0.93000000000E-01 0. -1.
        -11    1    1    2    0    0  0.36575323862E+01 -0.12622033396E+02 -0.17679574282E+02  0.22028631761E+02  0.51100000000E-03 0.  1.
         11    1    1    2    0    0 -0.36575323862E+01  0.12622033396E+02 -0.19426133442E+01  0.13284088869E+02  0.51100000000E-03 0. -1.
<mgrwt>
<rscale>  0 0.29359121E+02</rscale>
<asrwt>0</asrwt>
<pdfrwt beam="1">  1        3 0.12069641E-02 0.29359121E+02</pdfrwt>
<pdfrwt beam="2">  1       -3 0.42257621E-02 0.29359121E+02</pdfrwt>
<totfact> 0.71814608E+05</totfact>
</mgrwt>
</event>
<event>
 4    1  0.1754914E-001  0.6459471E+02  0.7818608E-02  0.1379503E+00
          3   -1    0    0  501    0  0.00000000000E+00  0.00000000000E+00  0.33085951035E+02  0.33086081740E+02  0.93000000000E-01 0. -1.
         -3   -1    0    0    0  501 -0.00000000000E+00 -0.00000000000E+00 -0.31527290982E+02  0.31527428149E+02  0.93000000000E-01 0.  1.
        -11    1    1    2    0    0  0.24106557246E+02 -0.18775271559E+02  0.11245746844E+02  0.32559234431E+02  0.51100000000E-03 0. -1.
         11    1    1    2    0    0 -0.24106557246E+02  0.18775271559E+02 -0.96870867917E+01  0.32054275458E+02  0.51100000000E-03 0.  1.
<mgrwt>
<rscale>  0 0.64594708E+02</rscale>
<asrwt>0</asrwt>
<pdfrwt beam="1">  1        3 0.50901669E-02 0.64594708E+02</pdfrwt>
<pdfrwt beam="2">  1       -3 0.48503731E-02 0.64594708E+02</pdfrwt>
<totfact> 0.94275037E+04</totfact>
</mgrwt>
</event>
<event>
 4    1  0.1754914E-001  0.3842576E+02  0.7818608E-02  0.1520126E+00
         -3   -1    0    0    0  501 -0.00000000000E+00  0.00000000000E+00  0.18729868027E+01  0.18752942604E+01  0.93000000000E-01 0. -1.
          3   -1    0    0  501    0  0.00000000000E+00 -0.00000000000E+00 -0.19695986050E+03  0.19695988245E+03  0.93000000000E-01 0.  1.
        -11    1    1    2    0    0 -0.18533815020E+02 -0.50626814036E+01 -0.97760537815E+02  0.99630596687E+02  0.51100000000E-03 0.  1.
         11    1    1    2    0    0  0.18533815020E+02  0.50626814036E+01 -0.97326335880E+02  0.99204580027E+02  0.51100000000E-03 0. -1.
<mgrwt>
<rscale>  0 0.38425762E+02</rscale>
<asrwt>0</asrwt>
<pdfrwt beam="2">  1        3 0.30301680E-01 0.38425762E+02</pdfrwt>
<pdfrwt beam="1">  1       -3 0.28833116E-03 0.38425762E+02</pdfrwt>
<totfact> 0.25878764E+05</totfact>
</mgrwt>
</event>
<event>
 4    1  0.1754914E-001  0.3793793E+02  0.7818608E-02  0.1523959E+00
         -3   -1    0    0    0  501 -0.00000000000E+00  0.00000000000E+00  0.19320975238E+02  0.19321199061E+02  0.93000000000E-01 0. -1.
          3   -1    0    0  501    0  0.00000000000E+00 -0.00000000000E+00 -0.18622922486E+02  0.18623154698E+02  0.93000000000E-01 0.  1.
        -11    1    1    2    0    0  0.71467674727E+01 -0.13855371776E+02  0.11157060330E+02  0.19171009567E+02  0.51100000000E-03 0. -1.
         11    1    1    2    0    0 -0.71467674727E+01  0.13855371776E+02 -0.10459007578E+02  0.18773344192E+02  0.51100000000E-03 0.  1.
<mgrwt>
<rscale>  0 0.37937932E+02</rscale>
<asrwt>0</asrwt>
<pdfrwt beam="2">  1        3 0.28651001E-02 0.37937932E+02</pdfrwt>
<pdfrwt beam="1">  1       -3 0.29724928E-02 0.37937932E+02</pdfrwt>
<totfact> 0.38745703E+05</totfact>
</mgrwt>
</event>
<event>
 4    1  0.1754914E-001  0.2471625E+02  0.7818608E-02  0.1665111E+00
          3   -1    0    0  501    0  0.00000000000E+00  0.00000000000E+00  0.52837052103E+02  0.52837133949E+02  0.93000000000E-01 0.  1.
         -3   -1    0    0    0  501 -0.00000000000E+00 -0.00000000000E+00 -0.28896264914E+01  0.28911226642E+01  0.93000000000E-01 0. -1.
        -11    1    1    2    0    0  0.70886238518E+01 -0.83912563963E+01  0.37740599317E+02  0.39306673849E+02  0.51100000000E-03 0.  1.
         11    1    1    2    0    0 -0.70886238518E+01  0.83912563963E+01  0.12206826294E+02  0.16421582763E+02  0.51100000000E-03 0. -1.
<mgrwt>
<rscale>  0 0.24716255E+02</rscale>
<asrwt>0</asrwt>
<pdfrwt beam="1">  1        3 0.81288986E-02 0.24716255E+02</pdfrwt>
<pdfrwt beam="2">  1       -3 0.44467931E-03 0.24716255E+02</pdfrwt>
<totfact> 0.10007913E+06</totfact>
</mgrwt>
</event>
<event>
 4    1  0.1754914E-001  0.3625557E+02  0.7818608E-02  0.1537725E+00
         -3   -1    0    0    0  501 -0.00000000000E+00  0.00000000000E+00  0.15251568093E+02  0.15251851635E+02  0.93000000000E-01 0. -1.
          3   -1    0    0  501    0  0.00000000000E+00 -0.00000000000E+00 -0.21545824467E+02  0.21546025178E+02  0.93000000000E-01 0.  1.
        -11    1    1    2    0    0 -0.11546460725E+02 -0.32104788537E+01 -0.16951623696E+02  0.20760189690E+02  0.51100000000E-03 0.  1.
         11    1    1    2    0    0  0.11546460725E+02  0.32104788537E+01  0.10657367323E+02  0.16037687123E+02  0.51100000000E-03 0. -1.
<mgrwt>
<rscale>  0 0.36255566E+02</rscale>
<asrwt>0</asrwt>
<pdfrwt beam="2">  1        3 0.33147795E-02 0.36255566E+02</pdfrwt>
<pdfrwt beam="1">  1       -3 0.23464323E-02 0.36255566E+02</pdfrwt>
<totfact> 0.43388551E+05</totfact>
</mgrwt>
</event>
<event>
 4    1  0.1754914E-001  0.2717533E+02  0.7818608E-02  0.1631589E+00
         -3   -1    0    0    0  501 -0.00000000000E+00  0.00000000000E+00  0.87103499415E+01  0.87108464057E+01  0.93000000000E-01 0. -1.
          3   -1    0    0  501    0  0.00000000000E+00 -0.00000000000E+00 -0.21194800174E+02  0.21195004209E+02  0.93000000000E-01 0.  1.
        -11    1    1    2    0    0 -0.42716580464E+01  0.10764755978E+02  0.15779522940E+01  0.11688326117E+02  0.51100000000E-03 0. -1.
         11    1    1    2    0    0  0.42716580464E+01 -0.10764755978E+02 -0.14062402526E+02  0.18217524497E+02  0.51100000000E-03 0.  1.
<mgrwt>
<rscale>  0 0.27175327E+02</rscale>
<asrwt>0</asrwt>
<pdfrwt beam="2">  1        3 0.32607924E-02 0.27175327E+02</pdfrwt>
<pdfrwt beam="1">  1       -3 0.13401077E-02 0.27175327E+02</pdfrwt>
<totfact> 0.87307719E+05</totfact>
</mgrwt>
</event>
<event>
 4    1  0.1754914E-001  0.2871457E+02  0.7818608E-02  0.1612748E+00
          3   -1    0    0  501    0  0.00000000000E+00  0.00000000000E+00  0.13925918829E+02  0.13926229362E+02  0.93000000000E-01 0. -1.
         -3   -1    0    0    0  501 -0.00000000000E+00 -0.00000000000E+00 -0.14801387960E+02  0.14801680125E+02  0.93000000000E-01 0.  1.
        -11    1    1    2    0    0  0.31200240988E+01  0.11766427562E+02  0.71781752571E+01  0.14131863580E+02  0.51100000000E-03 0.  1.
         11    1    1    2    0    0 -0.31200240988E+01 -0.11766427562E+02 -0.80536443878E+01  0.14596045908E+02  0.51100000000E-03 0. -1.
<mgrwt>
<rscale>  0 0.28714567E+02</rscale>
<asrwt>0</asrwt>
<pdfrwt beam="1">  1        3 0.21424954E-02 0.28714567E+02</pdfrwt>
<pdfrwt beam="2">  1       -3 0.22771830E-02 0.28714567E+02</pdfrwt>
<totfact> 0.77205248E+05</totfact>
</mgrwt>
</event>
<event>
 4    1  0.1754914E-001  0.3949337E+02  0.7818608E-02  0.1511973E+00
          3   -1    0    0  501    0  0.00000000000E+00  0.00000000000E+00  0.35081097991E+02  0.35081221262E+02  0.93000000000E-01 0. -1.
         -3   -1    0    0    0  501 -0.00000000000E+00 -0.00000000000E+00 -0.11114808758E+02  0.11115197827E+02  0.93000000000E-01 0.  1.
        -11    1    1    2    0    0 -0.95230082387E+01 -0.11123638618E+02  0.27479630546E+02  0.31137647908E+02  0.51100000000E-03 0. -1.
         11    1    1    2    0    0  0.95230082387E+01  0.11123638618E+02 -0.35133413133E+01  0.15058771181E+02  0.51100000000E-03 0.  1.
<mgrwt>
<rscale>  0 0.39493368E+02</rscale>
<asrwt>0</asrwt>
<pdfrwt beam="1">  1        3 0.53971314E-02 0.39493368E+02</pdfrwt>
<pdfrwt beam="2">  1       -3 0.17100100E-02 0.39493368E+02</pdfrwt>
<totfact> 0.34306194E+05</totfact>
</mgrwt>
</event>
<event>
 4    1  0.1754914E-001  0.4314385E+02  0.7818608E-02  0.1486273E+00
          3   -1    0    0  501    0  0.00000000000E+00  0.00000000000E+00  0.12484656761E+02  0.12485003142E+02  0.93000000000E-01 0.  1.
         -3   -1    0    0    0  501 -0.00000000000E+00 -0.00000000000E+00 -0.37272665807E+02  0.37272781831E+02  0.93000000000E-01 0. -1.
        -11    1    1    2    0    0  0.15069400899E+02  0.14025548721E+01 -0.30122359345E+02  0.33710688756E+02  0.51100000000E-03 0. -1.
         11    1    1    2    0    0 -0.15069400899E+02 -0.14025548721E+01  0.53343502987E+01  0.16047096216E+02  0.51100000000E-03 0.  1.
<mgrwt>
<rscale>  0 0.43143850E+02</rscale>
<asrwt>0</asrwt>
<pdfrwt beam="1">  1        3 0.19207520E-02 0.43143850E+02</pdfrwt>
<pdfrwt beam="2">  1       -3 0.57342918E-02 0.43143850E+02</pdfrwt>
<totfact> 0.27349408E+05</totfact>
</mgrwt>
</event>
<event>
 4    1  0.1754914E-001  0.2051566E+02  0.7818608E-02  0.1735264E+00
          3   -1    0    0  501    0  0.00000000000E+00  0.00000000000E+00  0.14121666616E+01  0.14152256640E+01  0.93000000000E-01 0. -1.
         -3   -1    0    0    0  501 -0.00000000000E+00 -0.00000000000E+00 -0.74428066680E+02  0.74428124783E+02  0.93000000000E-01 0.  1.
        -11    1    1    2    0    0  0.91917913937E+00  0.10116981680E+02 -0.41768440929E+02  0.42986054325E+02  0.51100000000E-03 0.  1.
         11    1    1    2    0    0 -0.91917913937E+00 -0.10116981680E+02 -0.31247459090E+02  0.32857296121E+02  0.51100000000E-03 0. -1.
<mgrwt>
<rscale>  0 0.20515656E+02</rscale>
<asrwt>0</asrwt>
<pdfrwt beam="1">  1        3 0.21749624E-03 0.20515656E+02</pdfrwt>
<pdfrwt beam="2">  1       -3 0.11450709E-01 0.20515656E+02</pdfrwt>
<totfact> 0.14272864E+06</totfact>
</mgrwt>
</event>
<event>
 4    1  0.1754914E-001  0.2012466E+02  0.7818608E-02  0.1742860E+00
          3   -1    0    0  501    0  0.00000000000E+00  0.00000000000E+00  0.54236677447E+02  0.54236757181E+02  0.93000000000E-01 0.  1.
         -3   -1    0    0    0  501 -0.00000000000E+00 -0.00000000000E+00 -0.18655874266E+01  0.18679040250E+01  0.93000000000E-01 0. -1.
        -11    1    1    2    0    0 -0.71397562663E+01  0.70102344294E+01  0.29150359419E+02  0.30819846866E+02  0.51100000000E-03 0.  1.
         11    1    1    2    0    0  0.71397562663E+01 -0.70102344294E+01  0.23220730601E+02  0.25284814340E+02  0.51100000000E-03 0. -1.
<mgrwt>
<rscale>  0 0.20124660E+02</rscale>
<asrwt>0</asrwt>
<pdfrwt beam="1">  1        3 0.83442887E-02 0.20124660E+02</pdfrwt>
<pdfrwt beam="2">  1       -3 0.28719778E-03 0.20124660E+02</pdfrwt>
<totfact> 0.15708642E+06</totfact>
</mgrwt>
</event>
<event>
 4    1  0.1754914E-001  0.2637825E+02  0.7818608E-02  0.1641960E+00
          3   -1    0    0  501    0  0.00000000000E+00  0.00000000000E+00  0.39996128217E+02  0.39996236340E+02  0.93000000000E-01 0. -1.
         -3   -1    0    0    0  501 -0.00000000000E+00 -0.00000000000E+00 -0.43486361084E+01  0.43496304445E+01  0.93000000000E-01 0.  1.
        -11    1    1    2    0    0  0.98292217188E+01 -0.30876919355E+01  0.31667055958E+02  0.33300899002E+02  0.51100000000E-03 0. -1.
         11    1    1    2    0    0 -0.98292217188E+01  0.30876919355E+01  0.39804361507E+01  0.11044967782E+02  0.51100000000E-03 0.  1.
<mgrwt>
<rscale>  0 0.26378253E+02</rscale>
<asrwt>0</asrwt>
<pdfrwt beam="1">  1        3 0.61533354E-02 0.26378253E+02</pdfrwt>
<pdfrwt beam="2">  1       -3 0.66910573E-03 0.26378253E+02</pdfrwt>
<totfact> 0.89319311E+05</totfact>
</mgrwt>
</event>
<event>
 4    1  0.1754914E-001  0.2397093E+02  0.7818608E-02  0.1676238E+00
         -3   -1    0    0    0  501 -0.00000000000E+00  0.00000000000E+00  0.83762269056E+02  0.83762320684E+02  0.93000000000E-01 0. -1.
          3   -1    0    0  501    0  0.00000000000E+00 -0.00000000000E+00 -0.17136753799E+01  0.17161970480E+01  0.93000000000E-01 0.  1.
        -11    1    1    2    0    0 -0.11139825099E+02  0.15011873084E+01  0.26191571038E+02  0.28501713287E+02  0.51100000000E-03 0.  1.
         11    1    1    2    0    0  0.11139825099E+02 -0.15011873084E+01  0.55857022638E+02  0.56976804445E+02  0.51100000000E-03 0. -1.
<mgrwt>
<rscale>  0 0.23970926E+02</rscale>
<asrwt>0</asrwt>
<pdfrwt beam="2">  1        3 0.26384038E-03 0.23970926E+02</pdfrwt>
<pdfrwt beam="1">  1       -3 0.12886698E-01 0.23970926E+02</pdfrwt>
<totfact> 0.98927827E+05</totfact>
</mgrwt>
</event>
<event>
 4    1  0.1754914E-001  0.3880201E+02  0.7818608E-02  0.1517217E+00
         -3   -1    0    0    0  501 -0.00000000000E+00  0.00000000000E+00  0.43464458500E+02  0.43464557995E+02  0.93000000000E-01 0.  1.
          3   -1    0    0  501    0  0.00000000000E+00 -0.00000000000E+00 -0.86595687988E+01  0.86600681741E+01  0.93000000000E-01 0. -1.
        -11    1    1    2    0    0 -0.57132688546E+00 -0.18944249572E+02  0.11833123981E+02  0.22343541118E+02  0.51100000000E-03 0. -1.
         11    1    1    2    0    0  0.57132688546E+00  0.18944249572E+02  0.22971765720E+02  0.29781085051E+02  0.51100000000E-03 0.  1.
<mgrwt>
<rscale>  0 0.38802014E+02</rscale>
<asrwt>0</asrwt>
<pdfrwt beam="2">  1        3 0.13322874E-02 0.38802014E+02</pdfrwt>
<pdfrwt beam="1">  1       -3 0.66868859E-02 0.38802014E+02</pdfrwt>
<totfact> 0.35225550E+05</totfact>
</mgrwt>
</event>
<event>
 4    1  0.1754914E-001  0.3197725E+02  0.7818608E-02  0.1577208E+00
         -3   -1    0    0    0  501 -0.00000000000E+00  0.00000000000E+00  0.22109186961E+02  0.22109382558E+02  0.93000000000E-01 0. -1.
          3   -1    0    0  501    0  0.00000000000E+00 -0.00000000000E+00 -0.11562006402E+02  0.11562380423E+02  0.93000000000E-01 0.  1.
        -11    1    1    2    0    0  0.14751620918E+02  0.60340709343E+01  0.66120986619E+01  0.17255149397E+02  0.51100000000E-03 0.  1.
         11    1    1    2    0    0 -0.14751620918E+02 -0.60340709343E+01  0.39350818973E+01  0.16416613583E+02  0.51100000000E-03 0. -1.
<mgrwt>
<rscale>  0 0.31977251E+02</rscale>
<asrwt>0</asrwt>
<pdfrwt beam="2">  1        3 0.17788141E-02 0.31977251E+02</pdfrwt>
<pdfrwt beam="1">  1       -3 0.34014572E-02 0.31977251E+02</pdfrwt>
<totfact> 0.59084819E+05</totfact>
</mgrwt>
</event>
<event>
 4    1  0.1754914E-001  0.2465125E+02  0.7818608E-02  0.1666062E+00
         -3   -1    0    0    0  501 -0.00000000000E+00  0.00000000000E+00  0.60073977649E+02  0.60074049635E+02  0.93000000000E-01 0. -1.
          3   -1    0    0  501    0  0.00000000000E+00 -0.00000000000E+00 -0.25279714691E+01  0.25296815508E+01  0.93000000000E-01 0.  1.
        -11    1    1    2    0    0 -0.11524343952E+02 -0.17658536921E+01  0.18617131465E+02  0.21966481899E+02  0.51100000000E-03 0.  1.
         11    1    1    2    0    0  0.11524343952E+02  0.17658536921E+01  0.38928874715E+02  0.40637249287E+02  0.51100000000E-03 0. -1.
<mgrwt>
<rscale>  0 0.24651254E+02</rscale>
<asrwt>0</asrwt>
<pdfrwt beam="2">  1        3 0.38905577E-03 0.24651254E+02</pdfrwt>
<pdfrwt beam="1">  1       -3 0.92422876E-02 0.24651254E+02</pdfrwt>
<totfact> 0.98755583E+05</totfact>
</mgrwt>
</event>
<event>
 4    1  0.1754914E-001  0.7385261E+02  0.7818608E-02  0.1347461E+00
          3   -1    0    0  501    0  0.00000000000E+00  0.00000000000E+00  0.11885043801E+03  0.11885047439E+03  0.93000000000E-01 0. -1.
         -3   -1    0    0    0  501 -0.00000000000E+00 -0.00000000000E+00 -0.11472614064E+02  0.11472990999E+02  0.93000000000E-01 0.  1.
        -11    1    1    2    0    0  0.32880693362E+02 -0.12749461905E+02  0.73008594292E+02  0.81079859494E+02  0.51100000000E-03 0. -1.
         11    1    1    2    0    0 -0.32880693362E+02  0.12749461905E+02  0.34369229651E+02  0.49243605898E+02  0.51100000000E-03 0.  1.
<mgrwt>
<rscale>  0 0.73852614E+02</rscale>
<asrwt>0</asrwt>
<pdfrwt beam="1">  1        3 0.18284714E-01 0.73852614E+02</pdfrwt>
<pdfrwt beam="2">  1       -3 0.17650494E-02 0.73852614E+02</pdfrwt>
<totfact> 0.57218378E+04</totfact>
</mgrwt>
</event>
<event>
 4    1  0.1754914E-001  0.2400234E+02  0.7818608E-02  0.1675759E+00
          3   -1    0    0  501    0  0.00000000000E+00  0.00000000000E+00  0.62869975390E+01  0.62876853496E+01  0.93000000000E-01 0. -1.
         -3   -1    0    0    0  501 -0.00000000000E+00 -0.00000000000E+00 -0.22906843514E+02  0.22907032300E+02  0.93000000000E-01 0.  1.
        -11    1    1    2    0    0  0.65912436251E+01 -0.75651045459E+01 -0.16318569448E+02  0.19156487371E+02  0.51100000000E-03 0.  1.
         11    1    1    2    0    0 -0.65912436251E+01  0.75651045459E+01 -0.30127652751E+00  0.10038230278E+02  0.51100000000E-03 0. -1.
<mgrwt>
<rscale>  0 0.24002339E+02</rscale>
<asrwt>0</asrwt>
<pdfrwt beam="1">  1        3 0.96729783E-03 0.24002339E+02</pdfrwt>
<pdfrwt beam="2">  1       -3 0.35241972E-02 0.24002339E+02</pdfrwt>
<totfact> 0.11596671E+06</totfact>
</mgrwt>
</event>
<event>
 4    1  0.1754914E-001  0.3900821E+02  0.7818608E-02  0.1515639E+00
         -3   -1    0    0    0  501 -0.00000000000E+00  0.00000000000E+00  0.12354341822E+02  0.12354691856E+02  0.93000000000E-01 0. -1.
          3   -1    0    0  501    0  0.00000000000E+00 -0.00000000000E+00 -0.30790756477E+02  0.30790896925E+02  0.93000000000E-01 0.  1.
        -11    1    1    2    0    0  0.57137926681E+01 -0.92505864387E+01 -0.27127889929E+02  0.29225728192E+02  0.51100000000E-03 0.  1.
         11    1    1    2    0    0 -0.57137926681E+01  0.92505864387E+01  0.86914752737E+01  0.13919860589E+02  0.51100000000E-03 0. -1.
<mgrwt>
<rscale>  0 0.39008210E+02</rscale>
<asrwt>0</asrwt>
<pdfrwt beam="2">  1        3 0.47370772E-02 0.39008210E+02</pdfrwt>
<pdfrwt beam="1">  1       -3 0.19007057E-02 0.39008210E+02</pdfrwt>
<totfact> 0.35664694E+05</totfact>
</mgrwt>
</event>
<event>
 4    1  0.1754914E-001  0.3286157E+02  0.7818608E-02  0.1568454E+00
         -3   -1    0    0    0  501 -0.00000000000E+00  0.00000000000E+00  0.53385765500E+01  0.53393865359E+01  0.93000000000E-01 0.  1.
          3   -1    0    0  501    0  0.00000000000E+00 -0.00000000000E+00 -0.50565111568E+02  0.50565197092E+02  0.93000000000E-01 0. -1.
        -11    1    1    2    0    0 -0.52552905534E+01  0.90281501795E+01 -0.10376574552E+01  0.10497728693E+02  0.51100000000E-03 0.  1.
         11    1    1    2    0    0  0.52552905534E+01 -0.90281501795E+01 -0.44188877563E+02  0.45406854934E+02  0.51100000000E-03 0. -1.
<mgrwt>
<rscale>  0 0.32861573E+02</rscale>
<asrwt>0</asrwt>
<pdfrwt beam="2">  1        3 0.77793165E-02 0.32861573E+02</pdfrwt>
<pdfrwt beam="1">  1       -3 0.82138839E-03 0.32861573E+02</pdfrwt>
<totfact> 0.51894143E+05</totfact>
</mgrwt>
</event>
<event>
 4    1  0.1754914E-001  0.2292419E+02  0.7818608E-02  0.1692742E+00
          3   -1    0    0  501    0  0.00000000000E+00  0.00000000000E+00  0.63120104393E+01  0.63126955246E+01  0.93000000000E-01 0. -1.
         -3   -1    0    0    0  501 -0.00000000000E+00 -0.00000000000E+00 -0.20812313613E+02  0.20812521398E+02  0.93000000000E-01 0.  1.
        -11    1    1    2    0    0  0.10914951305E+02  0.34240654223E+01 -0.63974967274E+01  0.13106805508E+02  0.51100000000E-03 0.  1.
         11    1    1    2    0    0 -0.10914951305E+02 -0.34240654223E+01 -0.81028064463E+01  0.14018411414E+02  0.51100000000E-03 0. -1.
<mgrwt>
<rscale>  0 0.22924192E+02</rscale>
<asrwt>0</asrwt>
<pdfrwt beam="1">  1        3 0.97114722E-03 0.22924192E+02</pdfrwt>
<pdfrwt beam="2">  1       -3 0.32019631E-02 0.22924192E+02</pdfrwt>
<totfact> 0.12935718E+06</totfact>
</mgrwt>
</event>
<event>
 4    1  0.1754914E-001  0.3920460E+02  0.7818608E-02  0.1514148E+00
          3   -1    0    0  501    0  0.00000000000E+00  0.00000000000E+00  0.14334576793E+03  0.14334579810E+03  0.93000000000E-01 0.  1.
         -3   -1    0    0    0  501 -0.00000000000E+00 -0.00000000000E+00 -0.26797457694E+01  0.26813590563E+01  0.93000000000E-01 0. -1.
        -11    1    1    2    0    0 -0.90002961800E+01  0.15882456789E+02  0.43734979852E+02  0.47392048151E+02  0.51100000000E-03 0.  1.
         11    1    1    2    0    0  0.90002961800E+01 -0.15882456789E+02  0.96931042306E+02  0.98635109002E+02  0.51100000000E-03 0. -1.
<mgrwt>
<rscale>  0 0.39204602E+02</rscale>
<asrwt>0</asrwt>
<pdfrwt beam="1">  1        3 0.22053324E-01 0.39204602E+02</pdfrwt>
<pdfrwt beam="2">  1       -3 0.41239495E-03 0.39204602E+02</pdfrwt>
<totfact> 0.27432489E+05</totfact>
</mgrwt>
</event>
<event>
 4    1  0.1754914E-001  0.4682904E+02  0.7818608E-02  0.1463236E+00
          3   -1    0    0  501    0  0.00000000000E+00  0.00000000000E+00  0.40687198827E+02  0.40687305113E+02  0.93000000000E-01 0. -1.
         -3   -1    0    0    0  501 -0.00000000000E+00 -0.00000000000E+00 -0.13474219566E+02  0.13474540509E+02  0.93000000000E-01 0.  1.
        -11    1    1    2    0    0 -0.23040860850E+02 -0.71573166703E+00  0.88593700531E+01  0.24695788680E+02  0.51100000000E-03 0. -1.
         11    1    1    2    0    0  0.23040860850E+02  0.71573166703E+00  0.18353609207E+02  0.29466056942E+02  0.51100000000E-03 0.  1.
<mgrwt>
<rscale>  0 0.46829043E+02</rscale>
<asrwt>0</asrwt>
<pdfrwt beam="1">  1        3 0.62596018E-02 0.46829043E+02</pdfrwt>
<pdfrwt beam="2">  1       -3 0.20729898E-02 0.46829043E+02</pdfrwt>
<totfact> 0.22037646E+05</totfact>
</mgrwt>
</event>
<event>
 4    1  0.1754914E-001  0.2325012E+02  0.7818608E-02  0.1687488E+00
          3   -1    0    0  501    0  0.00000000000E+00  0.00000000000E+00  0.42013800859E+02  0.42013903789E+02  0.93000000000E-01 0. -1.
         -3   -1    0    0    0  501 -0.00000000000E+00 -0.00000000000E+00 -0.32158304764E+01  0.32171749491E+01  0.93000000000E-01 0.  1.
        -11    1    1    2    0    0  0.10196471590E+02  0.49650505428E+01  0.14430660261E+02  0.18353847434E+02  0.51100000000E-03 0.  1.
         11    1    1    2    0    0 -0.10196471590E+02 -0.49650505428E+01  0.24367310122E+02  0.26877231305E+02  0.51100000000E-03 0. -1.
<mgrwt>
<rscale>  0 0.23250118E+02</rscale>
<asrwt>0</asrwt>
<pdfrwt beam="1">  1        3 0.64637733E-02 0.23250118E+02</pdfrwt>
<pdfrwt beam="2">  1       -3 0.49485447E-03 0.23250118E+02</pdfrwt>
<totfact> 0.11829921E+06</totfact>
</mgrwt>
</event>
<event>
 4    1  0.1754914E-001  0.4747312E+02  0.7818608E-02  0.1459468E+00
         -3   -1    0    0    0  501 -0.00000000000E+00  0.00000000000E+00  0.64827552110E+01  0.64834222542E+01  0.93000000000E-01 0. -1.
          3   -1    0    0  501    0  0.00000000000E+00 -0.00000000000E+00 -0.86906086534E+02  0.86906136294E+02  0.93000000000E-01 0.  1.
        -11    1    1    2    0    0 -0.17959653344E+02 -0.46140417201E+01 -0.11060718468E+02  0.21591156119E+02  0.51100000000E-03 0. -1.
         11    1    1    2    0    0  0.17959653344E+02  0.46140417201E+01 -0.69362612854E+02  0.71798402430E+02  0.51100000000E-03 0.  1.
<mgrwt>
<rscale>  0 0.47473123E+02</rscale>
<asrwt>0</asrwt>
<pdfrwt beam="2">  1        3 0.13370221E-01 0.47473123E+02</pdfrwt>
<pdfrwt beam="1">  1       -3 0.99740216E-03 0.47473123E+02</pdfrwt>
<totfact> 0.19301900E+05</totfact>
</mgrwt>
</event>
<event>
 4    1  0.1754914E-001  0.6729098E+02  0.7818608E-02  0.1369555E+00
         -3   -1    0    0    0  501 -0.00000000000E+00  0.00000000000E+00  0.17233099975E+03  0.17233102485E+03  0.93000000000E-01 0.  1.
          3   -1    0    0  501    0  0.00000000000E+00 -0.00000000000E+00 -0.65685102039E+01  0.65691685394E+01  0.93000000000E-01 0. -1.
        -11    1    1    2    0    0 -0.13293700066E+02  0.23851100460E+02  0.30619410793E+02  0.41026159608E+02  0.51100000000E-03 0. -1.
         11    1    1    2    0    0  0.13293700066E+02 -0.23851100460E+02  0.13514307876E+03  0.13787403378E+03  0.51100000000E-03 0.  1.
<mgrwt>
<rscale>  0 0.67290982E+02</rscale>
<asrwt>0</asrwt>
<pdfrwt beam="2">  1        3 0.10105928E-02 0.67290982E+02</pdfrwt>
<pdfrwt beam="1">  1       -3 0.26512509E-01 0.67290982E+02</pdfrwt>
<totfact> 0.66262063E+04</totfact>
</mgrwt>
</event>
<event>
 4    1  0.1754914E-001  0.3121785E+02  0.7818608E-02  0.1585004E+00
          3   -1    0    0  501    0  0.00000000000E+00  0.00000000000E+00  0.47803336725E+01  0.47812382309E+01  0.93000000000E-01 0. -1.
         -3   -1    0    0    0  501 -0.00000000000E+00 -0.00000000000E+00 -0.50961083000E+02  0.50961167859E+02  0.93000000000E-01 0.  1.
        -11    1    1    2    0    0  0.11068011501E+02  0.10998671985E+02 -0.23819834658E+02  0.28475536649E+02  0.51100000000E-03 0.  1.
         11    1    1    2    0    0 -0.11068011501E+02 -0.10998671985E+02 -0.22360914669E+02  0.27266869441E+02  0.51100000000E-03 0. -1.
<mgrwt>
<rscale>  0 0.31217851E+02</rscale>
<asrwt>0</asrwt>
<pdfrwt beam="1">  1        3 0.73551210E-03 0.31217851E+02</pdfrwt>
<pdfrwt beam="2">  1       -3 0.78402423E-02 0.31217851E+02</pdfrwt>
<totfact> 0.58585152E+05</totfact>
</mgrwt>
</event>
<event>
 4    1  0.1754914E-001  0.2643372E+02  0.7818608E-02  0.1641224E+00
          3   -1    0    0  501    0  0.00000000000E+00  0.00000000000E+00  0.12984719399E+02  0.12985052440E+02  0.93000000000E-01 0.  1.
         -3   -1    0    0    0  501 -0.00000000000E+00 -0.00000000000E+00 -0.13452486661E+02  0.13452808122E+02  0.93000000000E-01 0. -1.
        -11    1    1    2    0    0  0.12490129935E+02 -0.43217650089E+01 -0.30035735645E+00  0.13220106406E+02  0.51100000000E-03 0. -1.
         11    1    1    2    0    0 -0.12490129935E+02  0.43217650089E+01 -0.16740990615E+00  0.13217754156E+02  0.51100000000E-03 0.  1.
<mgrwt>
<rscale>  0 0.26433722E+02</rscale>
<asrwt>0</asrwt>
<pdfrwt beam="1">  1        3 0.19976995E-02 0.26433722E+02</pdfrwt>
<pdfrwt beam="2">  1       -3 0.20696637E-02 0.26433722E+02</pdfrwt>
<totfact> 0.94089585E+05</totfact>
</mgrwt>
</event>
<event>
 4    1  0.1754914E-001  0.2674484E+02  0.7818608E-02  0.1637135E+00
         -3   -1    0    0    0  501 -0.00000000000E+00  0.00000000000E+00  0.45156935797E+02  0.45157031563E+02  0.93000000000E-01 0. -1.
          3   -1    0    0  501    0  0.00000000000E+00 -0.00000000000E+00 -0.39593585896E+01  0.39604506614E+01  0.93000000000E-01 0.  1.
        -11    1    1    2    0    0 -0.37762506309E+01 -0.11302039788E+02  0.94540380138E+01  0.15211015983E+02  0.51100000000E-03 0.  1.
         11    1    1    2    0    0  0.37762506309E+01  0.11302039788E+02  0.31743539193E+02  0.33906466242E+02  0.51100000000E-03 0. -1.
<mgrwt>
<rscale>  0 0.26744844E+02</rscale>
<asrwt>0</asrwt>
<pdfrwt beam="2">  1        3 0.60922343E-03 0.26744844E+02</pdfrwt>
<pdfrwt beam="1">  1       -3 0.69473126E-02 0.26744844E+02</pdfrwt>
<totfact> 0.85346710E+05</totfact>
</mgrwt>
</event>
<event>
 4    1  0.1754914E-001  0.2915152E+02  0.7818608E-02  0.1607661E+00
         -3   -1    0    0    0  501 -0.00000000000E+00  0.00000000000E+00  0.45546438091E+01  0.45555931807E+01  0.93000000000E-01 0.  1.
          3   -1    0    0  501    0  0.00000000000E+00 -0.00000000000E+00 -0.46639453850E+02  0.46639546572E+02  0.93000000000E-01 0. -1.
        -11    1    1    2    0    0 -0.84347348796E+01 -0.61050106550E+01 -0.31297003536E+01  0.10872485095E+02  0.51100000000E-03 0.  1.
         11    1    1    2    0    0  0.84347348796E+01  0.61050106550E+01 -0.38955109688E+02  0.40322654657E+02  0.51100000000E-03 0. -1.
<mgrwt>
<rscale>  0 0.29151520E+02</rscale>
<asrwt>0</asrwt>
<pdfrwt beam="2">  1        3 0.71753804E-02 0.29151520E+02</pdfrwt>
<pdfrwt beam="1">  1       -3 0.70079462E-03 0.29151520E+02</pdfrwt>
<totfact> 0.69605021E+05</totfact>
</mgrwt>
</event>
<event>
 4    1  0.1754914E-001  0.2712696E+02  0.7818608E-02  0.1632206E+00
         -3   -1    0    0    0  501 -0.00000000000E+00  0.00000000000E+00  0.21245018093E+01  0.21265363712E+01  0.93000000000E-01 0.  1.
          3   -1    0    0  501    0  0.00000000000E+00 -0.00000000000E+00 -0.86549976338E+02  0.86550026303E+02  0.93000000000E-01 0. -1.
        -11    1    1    2    0    0 -0.73008119278E+01 -0.94240762211E+01 -0.21064670382E+02  0.24204036977E+02  0.51100000000E-03 0.  1.
         11    1    1    2    0    0  0.73008119278E+01  0.94240762211E+01 -0.63360804147E+02  0.64472525697E+02  0.51100000000E-03 0. -1.
<mgrwt>
<rscale>  0 0.27126961E+02</rscale>
<asrwt>0</asrwt>
<pdfrwt beam="2">  1        3 0.13315539E-01 0.27126961E+02</pdfrwt>
<pdfrwt beam="1">  1       -3 0.32700685E-03 0.27126961E+02</pdfrwt>
<totfact> 0.74249971E+05</totfact>
</mgrwt>
</event>
<event>
 4    1  0.1754914E-001  0.2702261E+02  0.7818608E-02  0.1633542E+00
          3   -1    0    0  501    0  0.00000000000E+00  0.00000000000E+00  0.59949670767E+01  0.59956883884E+01  0.93000000000E-01 0.  1.
         -3   -1    0    0    0  501 -0.00000000000E+00 -0.00000000000E+00 -0.30448822208E+02  0.30448964233E+02  0.93000000000E-01 0. -1.
        -11    1    1    2    0    0 -0.12817465596E+02  0.42400643404E+01 -0.11500835271E+02  0.17735128478E+02  0.51100000000E-03 0. -1.
         11    1    1    2    0    0  0.12817465596E+02 -0.42400643404E+01 -0.12953019861E+02  0.18709524144E+02  0.51100000000E-03 0.  1.
<mgrwt>
<rscale>  0 0.27022614E+02</rscale>
<asrwt>0</asrwt>
<pdfrwt beam="1">  1        3 0.92236906E-03 0.27022614E+02</pdfrwt>
<pdfrwt beam="2">  1       -3 0.46845005E-02 0.27022614E+02</pdfrwt>
<totfact> 0.86617421E+05</totfact>
</mgrwt>
</event>
<event>
 4    1  0.1754914E-001  0.2121088E+02  0.7818608E-02  0.1722268E+00
         -3   -1    0    0    0  501 -0.00000000000E+00  0.00000000000E+00  0.10740304484E+02  0.10740707118E+02  0.93000000000E-01 0. -1.
          3   -1    0    0  501    0  0.00000000000E+00 -0.00000000000E+00 -0.10471462550E+02  0.10471875521E+02  0.93000000000E-01 0.  1.
        -11    1    1    2    0    0 -0.64646460946E+01 -0.83301173037E+01 -0.10027028493E+01  0.10591879752E+02  0.51100000000E-03 0. -1.
         11    1    1    2    0    0  0.64646460946E+01  0.83301173037E+01  0.12715447833E+01  0.10620702887E+02  0.51100000000E-03 0.  1.
<mgrwt>
<rscale>  0 0.21210879E+02</rscale>
<asrwt>0</asrwt>
<pdfrwt beam="2">  1        3 0.16110570E-02 0.21210879E+02</pdfrwt>
<pdfrwt beam="1">  1       -3 0.16524173E-02 0.21210879E+02</pdfrwt>
<totfact> 0.15670438E+06</totfact>
</mgrwt>
</event>
<event>
 4    1  0.1754914E-001  0.2535465E+02  0.7818608E-02  0.1655960E+00
          3   -1    0    0  501    0  0.00000000000E+00  0.00000000000E+00  0.31807549931E+02  0.31807685889E+02  0.93000000000E-01 0. -1.
         -3   -1    0    0    0  501 -0.00000000000E+00 -0.00000000000E+00 -0.50521427164E+01  0.50529986174E+01  0.93000000000E-01 0.  1.
        -11    1    1    2    0    0 -0.17631151204E+01 -0.10709590735E+02  0.38543842780E+01  0.11517820413E+02  0.51100000000E-03 0.  1.
         11    1    1    2    0    0  0.17631151204E+01  0.10709590735E+02  0.22901022936E+02  0.25342864093E+02  0.51100000000E-03 0. -1.
<mgrwt>
<rscale>  0 0.25354649E+02</rscale>
<asrwt>0</asrwt>
<pdfrwt beam="1">  1        3 0.48935454E-02 0.25354649E+02</pdfrwt>
<pdfrwt beam="2">  1       -3 0.77732904E-03 0.25354649E+02</pdfrwt>
<totfact> 0.99986992E+05</totfact>
</mgrwt>
</event>
<event>
 4    1  0.1754914E-001  0.2363870E+02  0.7818608E-02  0.1681361E+00
          3   -1    0    0  501    0  0.00000000000E+00  0.00000000000E+00  0.26405962280E+01  0.26422334188E+01  0.93000000000E-01 0.  1.
         -3   -1    0    0    0  501 -0.00000000000E+00 -0.00000000000E+00 -0.52885541025E+02  0.52885622795E+02  0.93000000000E-01 0. -1.
        -11    1    1    2    0    0 -0.74161282713E+01 -0.89282453937E+01 -0.30366930869E+02  0.32509429632E+02  0.51100000000E-03 0. -1.
         11    1    1    2    0    0  0.74161282713E+01  0.89282453937E+01 -0.19878013928E+02  0.23018426582E+02  0.51100000000E-03 0.  1.
<mgrwt>
<rscale>  0 0.23638704E+02</rscale>
<asrwt>0</asrwt>
<pdfrwt beam="1">  1        3 0.40637784E-03 0.23638704E+02</pdfrwt>
<pdfrwt beam="2">  1       -3 0.81363685E-02 0.23638704E+02</pdfrwt>
<totfact> 0.11063095E+06</totfact>
</mgrwt>
</event>
<event>
 4    1  0.1754914E-001  0.2520062E+02  0.7818608E-02  0.1658137E+00
          3   -1    0    0  501    0  0.00000000000E+00  0.00000000000E+00  0.38917045093E+01  0.38928155605E+01  0.93000000000E-01 0.  1.
         -3   -1    0    0    0  501 -0.00000000000E+00 -0.00000000000E+00 -0.40789471663E+02  0.40789577682E+02  0.93000000000E-01 0. -1.
        -11    1    1    2    0    0  0.11148543496E+02  0.26594866286E+01 -0.91669353505E+01  0.14676361783E+02  0.51100000000E-03 0.  1.
         11    1    1    2    0    0 -0.11148543496E+02 -0.26594866286E+01 -0.27730831803E+02  0.30006031460E+02  0.51100000000E-03 0. -1.
<mgrwt>
<rscale>  0 0.25200616E+02</rscale>
<asrwt>0</asrwt>
<pdfrwt beam="1">  1        3 0.59881742E-03 0.25200616E+02</pdfrwt>
<pdfrwt beam="2">  1       -3 0.62753967E-02 0.25200616E+02</pdfrwt>
<totfact> 0.98971766E+05</totfact>
</mgrwt>
</event>
<event>
 4    1  0.1754914E-001  0.2623565E+02  0.7818608E-02  0.1643863E+00
          3   -1    0    0  501    0  0.00000000000E+00  0.00000000000E+00  0.19195818658E+01  0.19218333797E+01  0.93000000000E-01 0. -1.
         -3   -1    0    0    0  501 -0.00000000000E+00 -0.00000000000E+00 -0.89588304711E+02  0.89588352982E+02  0.93000000000E-01 0.  1.
        -11    1    1    2    0    0 -0.12883775477E+02  0.10923058553E+01 -0.51549494131E+02  0.53146355924E+02  0.51100000000E-03 0. -1.
         11    1    1    2    0    0  0.12883775477E+02 -0.10923058553E+01 -0.36119228715E+02  0.38363830438E+02  0.51100000000E-03 0.  1.
<mgrwt>
<rscale>  0 0.26235648E+02</rscale>
<asrwt>0</asrwt>
<pdfrwt beam="1">  1        3 0.29549726E-03 0.26235648E+02</pdfrwt>
<pdfrwt beam="2">  1       -3 0.13782990E-01 0.26235648E+02</pdfrwt>
<totfact> 0.79550476E+05</totfact>
</mgrwt>
</event>
<event>
 4    1  0.1754914E-001  0.6605358E+02  0.7818608E-02  0.1374052E+00
          3   -1    0    0  501    0  0.00000000000E+00  0.00000000000E+00  0.91426158579E+02  0.91426205880E+02  0.93000000000E-01 0. -1.
         -3   -1    0    0    0  501 -0.00000000000E+00 -0.00000000000E+00 -0.11930369239E+02  0.11930731711E+02  0.93000000000E-01 0.  1.
        -11    1    1    2    0    0 -0.24209869401E+02 -0.12203444011E+02  0.69260107206E+02  0.74377444649E+02  0.51100000000E-03 0. -1.
         11    1    1    2    0    0  0.24209869401E+02  0.12203444011E+02  0.10235682135E+02  0.28979492942E+02  0.51100000000E-03 0.  1.
<mgrwt>
<rscale>  0 0.66053584E+02</rscale>
<asrwt>0</asrwt>
<pdfrwt beam="1">  1        3 0.14065595E-01 0.66053584E+02</pdfrwt>
<pdfrwt beam="2">  1       -3 0.18354729E-02 0.66053584E+02</pdfrwt>
<totfact> 0.81243161E+04</totfact>
</mgrwt>
</event>
<event>
 4    1  0.1754914E-001  0.2633417E+02  0.7818608E-02  0.1642546E+00
         -3   -1    0    0    0  501 -0.00000000000E+00  0.00000000000E+00  0.54105766171E+01  0.54113758259E+01  0.93000000000E-01 0. -1.
          3   -1    0    0  501    0  0.00000000000E+00 -0.00000000000E+00 -0.32039963162E+02  0.32040098134E+02  0.93000000000E-01 0.  1.
        -11    1    1    2    0    0  0.11677316729E+02  0.42039145378E+01 -0.19568901726E+02  0.23172711073E+02  0.51100000000E-03 0.  1.
         11    1    1    2    0    0 -0.11677316729E+02 -0.42039145378E+01 -0.70604848187E+01  0.14278762887E+02  0.51100000000E-03 0. -1.
<mgrwt>
<rscale>  0 0.26334173E+02</rscale>
<asrwt>0</asrwt>
<pdfrwt beam="2">  1        3 0.49292969E-02 0.26334173E+02</pdfrwt>
<pdfrwt beam="1">  1       -3 0.83246828E-03 0.26334173E+02</pdfrwt>
<totfact> 0.91573848E+05</totfact>
</mgrwt>
</event>
<event>
 4    1  0.1754914E-001  0.2166524E+02  0.7818608E-02  0.1714107E+00
         -3   -1    0    0    0  501 -0.00000000000E+00  0.00000000000E+00  0.15949003653E+02  0.15949274796E+02  0.93000000000E-01 0. -1.
          3   -1    0    0  501    0  0.00000000000E+00 -0.00000000000E+00 -0.73569253756E+01  0.73575131656E+01  0.93000000000E-01 0.  1.
        -11    1    1    2    0    0 -0.10317841705E+02  0.11362153917E+00  0.74846877610E+00  0.10345577464E+02  0.51100000000E-03 0.  1.
         11    1    1    2    0    0  0.10317841705E+02 -0.11362153917E+00  0.78436095011E+01  0.12961210498E+02  0.51100000000E-03 0. -1.
<mgrwt>
<rscale>  0 0.21665238E+02</rscale>
<asrwt>0</asrwt>
<pdfrwt beam="2">  1        3 0.11319008E-02 0.21665238E+02</pdfrwt>
<pdfrwt beam="1">  1       -3 0.24537589E-02 0.21665238E+02</pdfrwt>
<totfact> 0.14847855E+06</totfact>
</mgrwt>
</event>
<event>
 4    1  0.1754914E-001  0.7880220E+02  0.7818608E-02  0.1332485E+00
          3   -1    0    0  501    0  0.00000000000E+00  0.00000000000E+00  0.46014683643E+02  0.46014777624E+02  0.93000000000E-01 0. -1.
         -3   -1    0    0    0  501 -0.00000000000E+00 -0.00000000000E+00 -0.33737881151E+02  0.33738009330E+02  0.93000000000E-01 0.  1.
        -11    1    1    2    0    0 -0.20834185471E+02 -0.33409345714E+02  0.46375691642E+01  0.39645361813E+02  0.51100000000E-03 0.  1.
         11    1    1    2    0    0  0.20834185471E+02  0.33409345714E+02  0.76392333279E+01  0.40107425140E+02  0.51100000000E-03 0. -1.
<mgrwt>
<rscale>  0 0.78802203E+02</rscale>
<asrwt>0</asrwt>
<pdfrwt beam="1">  1        3 0.70791991E-02 0.78802203E+02</pdfrwt>
<pdfrwt beam="2">  1       -3 0.51904604E-02 0.78802203E+02</pdfrwt>
<totfact> 0.53748190E+04</totfact>
</mgrwt>
</event>
<event>
 4    1  0.1754914E-001  0.2570470E+02  0.7818608E-02  0.1651082E+00
         -3   -1    0    0    0  501 -0.00000000000E+00  0.00000000000E+00  0.35800202600E+01  0.35812280103E+01  0.93000000000E-01 0.  1.
          3   -1    0    0  501    0  0.00000000000E+00 -0.00000000000E+00 -0.46131192120E+02  0.46131285863E+02  0.93000000000E-01 0. -1.
        -11    1    1    2    0    0  0.62802146194E+01 -0.95704497965E+01 -0.99740372342E+01  0.15182754163E+02  0.51100000000E-03 0.  1.
         11    1    1    2    0    0 -0.62802146194E+01  0.95704497965E+01 -0.32577134626E+02  0.34529759710E+02  0.51100000000E-03 0. -1.
<mgrwt>
<rscale>  0 0.25704704E+02</rscale>
<asrwt>0</asrwt>
<pdfrwt beam="2">  1        3 0.70972062E-02 0.25704704E+02</pdfrwt>
<pdfrwt beam="1">  1       -3 0.55087249E-03 0.25704704E+02</pdfrwt>
<totfact> 0.93218551E+05</totfact>
</mgrwt>
</event>
<event>
 4    1  0.1754914E-001  0.2064985E+02  0.7818608E-02  0.1732705E+00
         -3   -1    0    0    0  501 -0.00000000000E+00  0.00000000000E+00  0.25462397567E+01  0.25479375775E+01  0.93000000000E-01 0.  1.
          3   -1    0    0  501    0  0.00000000000E+00 -0.00000000000E+00 -0.41851556201E+02  0.41851659530E+02  0.93000000000E-01 0. -1.
        -11    1    1    2    0    0  0.97007958191E+01 -0.31763766506E+01 -0.16315282856E+02  0.19245343932E+02  0.51100000000E-03 0. -1.
         11    1    1    2    0    0 -0.97007958191E+01  0.31763766506E+01 -0.22990033588E+02  0.25154253175E+02  0.51100000000E-03 0.  1.
<mgrwt>
<rscale>  0 0.20649850E+02</rscale>
<asrwt>0</asrwt>
<pdfrwt beam="2">  1        3 0.64388390E-02 0.20649850E+02</pdfrwt>
<pdfrwt beam="1">  1       -3 0.39186777E-03 0.20649850E+02</pdfrwt>
<totfact> 0.15384163E+06</totfact>
</mgrwt>
</event>
<event>
 4    1  0.1754914E-001  0.2765238E+02  0.7818608E-02  0.1625589E+00
          3   -1    0    0  501    0  0.00000000000E+00  0.00000000000E+00  0.61864226802E+02  0.61864296705E+02  0.93000000000E-01 0. -1.
         -3   -1    0    0    0  501 -0.00000000000E+00 -0.00000000000E+00 -0.30892770987E+01  0.30906766238E+01  0.93000000000E-01 0.  1.
        -11    1    1    2    0    0 -0.97933210412E+01  0.59690832158E+01  0.11249371510E+02  0.16065100407E+02  0.51100000000E-03 0. -1.
         11    1    1    2    0    0  0.97933210412E+01 -0.59690832158E+01  0.47525578193E+02  0.48889872921E+02  0.51100000000E-03 0.  1.
<mgrwt>
<rscale>  0 0.27652375E+02</rscale>
<asrwt>0</asrwt>
<pdfrwt beam="1">  1        3 0.95176855E-02 0.27652375E+02</pdfrwt>
<pdfrwt beam="2">  1       -3 0.47538648E-03 0.27652375E+02</pdfrwt>
<totfact> 0.75613903E+05</totfact>
</mgrwt>
</event>
<event>
 4    1  0.1754914E-001  0.2184344E+02  0.7818608E-02  0.1710974E+00
          3   -1    0    0  501    0  0.00000000000E+00  0.00000000000E+00  0.58878638816E+01  0.58885983127E+01  0.93000000000E-01 0.  1.
         -3   -1    0    0    0  501 -0.00000000000E+00 -0.00000000000E+00 -0.20257186377E+02  0.20257399856E+02  0.93000000000E-01 0. -1.
        -11    1    1    2    0    0  0.42718499729E+01 -0.95998386174E+01 -0.36180957016E+01  0.11112885334E+02  0.51100000000E-03 0.  1.
         11    1    1    2    0    0 -0.42718499729E+01  0.95998386174E+01 -0.10751226794E+02  0.15033112835E+02  0.51100000000E-03 0. -1.
<mgrwt>
<rscale>  0 0.21843438E+02</rscale>
<asrwt>0</asrwt>
<pdfrwt beam="1">  1        3 0.90589814E-03 0.21843438E+02</pdfrwt>
<pdfrwt beam="2">  1       -3 0.31165631E-02 0.21843438E+02</pdfrwt>
<totfact> 0.14439505E+06</totfact>
</mgrwt>
</event>
<event>
 4    1  0.1754914E-001  0.2938591E+02  0.7818608E-02  0.1604977E+00
          3   -1    0    0  501    0  0.00000000000E+00  0.00000000000E+00  0.26375323721E+02  0.26375487681E+02  0.93000000000E-01 0.  1.
         -3   -1    0    0    0  501 -0.00000000000E+00 -0.00000000000E+00 -0.81845820906E+01  0.81851104450E+01  0.93000000000E-01 0. -1.
        -11    1    1    2    0    0 -0.65249477087E+01  0.85281356075E+01 -0.26995644852E+01  0.11072113087E+02  0.51100000000E-03 0. -1.
         11    1    1    2    0    0  0.65249477087E+01 -0.85281356075E+01  0.20890306116E+02  0.23488485039E+02  0.51100000000E-03 0.  1.
<mgrwt>
<rscale>  0 0.29385913E+02</rscale>
<asrwt>0</asrwt>
<pdfrwt beam="1">  1        3 0.40577954E-02 0.29385913E+02</pdfrwt>
<pdfrwt beam="2">  1       -3 0.12592197E-02 0.29385913E+02</pdfrwt>
<totfact> 0.71826832E+05</totfact>
</mgrwt>
</event>
<event>
 4    1  0.1754914E-001  0.2315230E+02  0.7818608E-02  0.1689053E+00
         -3   -1    0    0    0  501 -0.00000000000E+00  0.00000000000E+00  0.16177016041E+01  0.16203726362E+01  0.93000000000E-01 0. -1.
          3   -1    0    0  501    0  0.00000000000E+00 -0.00000000000E+00 -0.82766993357E+02  0.82767045606E+02  0.93000000000E-01 0.  1.
        -11    1    1    2    0    0 -0.57059007442E+01 -0.94572611337E+01 -0.27943081998E+02  0.30046845479E+02  0.51100000000E-03 0. -1.
         11    1    1    2    0    0  0.57059007442E+01  0.94572611337E+01 -0.53206209755E+02  0.54340572763E+02  0.51100000000E-03 0.  1.
<mgrwt>
<rscale>  0 0.23152296E+02</rscale>
<asrwt>0</asrwt>
<pdfrwt beam="2">  1        3 0.12733590E-01 0.23152296E+02</pdfrwt>
<pdfrwt beam="1">  1       -3 0.24908672E-03 0.23152296E+02</pdfrwt>
<totfact> 0.10712978E+06</totfact>
</mgrwt>
</event>
<event>
 4    1  0.1754914E-001  0.2869894E+02  0.7818608E-02  0.1612932E+00
          3   -1    0    0  501    0  0.00000000000E+00  0.00000000000E+00  0.64578877686E+01  0.64585573801E+01  0.93000000000E-01 0.  1.
         -3   -1    0    0    0  501 -0.00000000000E+00 -0.00000000000E+00 -0.31882222408E+02  0.31882358048E+02  0.93000000000E-01 0. -1.
        -11    1    1    2    0    0  0.11057232952E+02 -0.91446419272E+01 -0.12521473362E+02  0.19044006195E+02  0.51100000000E-03 0. -1.
         11    1    1    2    0    0 -0.11057232952E+02  0.91446419272E+01 -0.12902861278E+02  0.19296909233E+02  0.51100000000E-03 0.  1.
<mgrwt>
<rscale>  0 0.28698937E+02</rscale>
<asrwt>0</asrwt>
<pdfrwt beam="1">  1        3 0.99358316E-03 0.28698937E+02</pdfrwt>
<pdfrwt beam="2">  1       -3 0.49050191E-02 0.28698937E+02</pdfrwt>
<totfact> 0.74986629E+05</totfact>
</mgrwt>
</event>
<event>
 4    1  0.1754914E-001  0.2244932E+02  0.7818608E-02  0.1700595E+00
          3   -1    0    0  501    0  0.00000000000E+00  0.00000000000E+00  0.11768570004E+01  0.11805258995E+01  0.93000000000E-01 0. -1.
         -3   -1    0    0    0  501 -0.00000000000E+00 -0.00000000000E+00 -0.10688855707E+03  0.10688859753E+03  0.93000000000E-01 0.  1.
        -11    1    1    2    0    0 -0.58703732200E+01  0.93388975133E+01 -0.62857549288E+02  0.63818083576E+02  0.51100000000E-03 0. -1.
         11    1    1    2    0    0  0.58703732200E+01 -0.93388975133E+01 -0.42854150784E+02  0.44251039854E+02  0.51100000000E-03 0.  1.
<mgrwt>
<rscale>  0 0.22449319E+02</rscale>
<asrwt>0</asrwt>
<pdfrwt beam="1">  1        3 0.18134034E-03 0.22449319E+02</pdfrwt>
<pdfrwt beam="2">  1       -3 0.16444671E-01 0.22449319E+02</pdfrwt>
<totfact> 0.10818405E+06</totfact>
</mgrwt>
</event>
<event>
 4    1  0.1754914E-001  0.2372089E+02  0.7818608E-02  0.1680084E+00
          3   -1    0    0  501    0  0.00000000000E+00  0.00000000000E+00  0.22490522181E+02  0.22490714461E+02  0.93000000000E-01 0. -1.
         -3   -1    0    0    0  501 -0.00000000000E+00 -0.00000000000E+00 -0.62540779186E+01  0.62547693492E+01  0.93000000000E-01 0.  1.
        -11    1    1    2    0    0  0.37080558825E+01 -0.11264659141E+02  0.79156085076E+01  0.14258298717E+02  0.51100000000E-03 0. -1.
         11    1    1    2    0    0 -0.37080558825E+01  0.11264659141E+02  0.83208357543E+01  0.14487185093E+02  0.51100000000E-03 0.  1.
<mgrwt>
<rscale>  0 0.23720892E+02</rscale>
<asrwt>0</asrwt>
<pdfrwt beam="1">  1        3 0.34601484E-02 0.23720892E+02</pdfrwt>
<pdfrwt beam="2">  1       -3 0.96223380E-03 0.23720892E+02</pdfrwt>
<totfact> 0.11923173E+06</totfact>
</mgrwt>
</event>
<event>
 4    1  0.1754914E-001  0.2592947E+02  0.7818608E-02  0.1648000E+00
         -3   -1    0    0    0  501 -0.00000000000E+00  0.00000000000E+00  0.12678298861E+01  0.12712362566E+01  0.93000000000E-01 0.  1.
          3   -1    0    0  501    0  0.00000000000E+00 -0.00000000000E+00 -0.13239511003E+03  0.13239514269E+03  0.93000000000E-01 0. -1.
        -11    1    1    2    0    0  0.47483823747E+01  0.11937029624E+02 -0.56568935927E+02  0.58009346864E+02  0.51100000000E-03 0.  1.
         11    1    1    2    0    0 -0.47483823747E+01 -0.11937029624E+02 -0.74558344216E+02  0.75657032085E+02  0.51100000000E-03 0. -1.
<mgrwt>
<rscale>  0 0.25929467E+02</rscale>
<asrwt>0</asrwt>
<pdfrwt beam="2">  1        3 0.20368732E-01 0.25929467E+02</pdfrwt>
<pdfrwt beam="1">  1       -3 0.19531540E-03 0.25929467E+02</pdfrwt>
<totfact> 0.73994370E+05</totfact>
</mgrwt>
</event>
<event>
 4    1  0.1754914E-001  0.3378435E+02  0.7818608E-02  0.1559669E+00
         -3   -1    0    0    0  501 -0.00000000000E+00  0.00000000000E+00  0.41036387437E+02  0.41036492819E+02  0.93000000000E-01 0.  1.
          3   -1    0    0  501    0  0.00000000000E+00 -0.00000000000E+00 -0.69530501805E+01  0.69536721100E+01  0.93000000000E-01 0. -1.
        -11    1    1    2    0    0 -0.12362568420E+02  0.74533661995E+01  0.45802197975E+01  0.15144773993E+02  0.51100000000E-03 0. -1.
         11    1    1    2    0    0  0.12362568420E+02 -0.74533661995E+01  0.29503117459E+02  0.32845390936E+02  0.51100000000E-03 0.  1.
<mgrwt>
<rscale>  0 0.33784346E+02</rscale>
<asrwt>0</asrwt>
<pdfrwt beam="2">  1        3 0.10697560E-02 0.33784346E+02</pdfrwt>
<pdfrwt beam="1">  1       -3 0.63133464E-02 0.33784346E+02</pdfrwt>
<totfact> 0.49707473E+05</totfact>
</mgrwt>
</event>
<event>
 4    1  0.1754914E-001  0.2482761E+02  0.7818608E-02  0.1663490E+00
         -3   -1    0    0    0  501 -0.00000000000E+00  0.00000000000E+00  0.29049876444E+01  0.29064759098E+01  0.93000000000E-01 0.  1.
          3   -1    0    0  501    0  0.00000000000E+00 -0.00000000000E+00 -0.53032462304E+02  0.53032543848E+02  0.93000000000E-01 0. -1.
        -11    1    1    2    0    0  0.98754801818E+01  0.58667572722E+01 -0.14457749225E+02  0.18465385526E+02  0.51100000000E-03 0.  1.
         11    1    1    2    0    0 -0.98754801818E+01 -0.58667572722E+01 -0.35669725434E+02  0.37473634232E+02  0.51100000000E-03 0. -1.
<mgrwt>
<rscale>  0 0.24827610E+02</rscale>
<asrwt>0</asrwt>
<pdfrwt beam="2">  1        3 0.81589604E-02 0.24827610E+02</pdfrwt>
<pdfrwt beam="1">  1       -3 0.44704197E-03 0.24827610E+02</pdfrwt>
<totfact> 0.99013178E+05</totfact>
</mgrwt>
</event>
<event>
 4    1  0.1754914E-001  0.2631574E+02  0.7818608E-02  0.1642792E+00
          3   -1    0    0  501    0  0.00000000000E+00  0.00000000000E+00  0.14681021397E+02  0.14681315958E+02  0.93000000000E-01 0. -1.
         -3   -1    0    0    0  501 -0.00000000000E+00 -0.00000000000E+00 -0.11792147800E+02  0.11792514521E+02  0.93000000000E-01 0.  1.
        -11    1    1    2    0    0  0.12909124052E+02 -0.11779305009E+01  0.37155470329E+01  0.13484743011E+02  0.51100000000E-03 0. -1.
         11    1    1    2    0    0 -0.12909124052E+02  0.11779305009E+01 -0.82667343562E+00  0.12989087469E+02  0.51100000000E-03 0.  1.
<mgrwt>
<rscale>  0 0.26315739E+02</rscale>
<asrwt>0</asrwt>
<pdfrwt beam="1">  1        3 0.22586696E-02 0.26315739E+02</pdfrwt>
<pdfrwt beam="2">  1       -3 0.18142274E-02 0.26315739E+02</pdfrwt>
<totfact> 0.95041688E+05</totfact>
</mgrwt>
</event>
<event>
 4    1  0.1754914E-001  0.7107492E+02  0.7818608E-02  0.1356475E+00
         -3   -1    0    0    0  501 -0.00000000000E+00  0.00000000000E+00  0.32870449611E+02  0.32870581173E+02  0.93000000000E-01 0.  1.
          3   -1    0    0  501    0  0.00000000000E+00 -0.00000000000E+00 -0.38420596036E+02  0.38420708593E+02  0.93000000000E-01 0. -1.
        -11    1    1    2    0    0  0.18760485080E+02 -0.81236125344E+01 -0.31931796822E+02  0.37915544696E+02  0.51100000000E-03 0. -1.
         11    1    1    2    0    0 -0.18760485080E+02  0.81236125344E+01  0.26381650397E+02  0.33375745070E+02  0.51100000000E-03 0.  1.
<mgrwt>
<rscale>  0 0.71074917E+02</rscale>
<asrwt>0</asrwt>
<pdfrwt beam="2">  1        3 0.59108797E-02 0.71074917E+02</pdfrwt>
<pdfrwt beam="1">  1       -3 0.50570110E-02 0.71074917E+02</pdfrwt>
<totfact> 0.72144696E+04</totfact>
</mgrwt>
</event>
<event>
 4    1  0.1754914E-001  0.2896935E+02  0.7818608E-02  0.1609769E+00
         -3   -1    0    0    0  501 -0.00000000000E+00  0.00000000000E+00  0.14784504491E+02  0.14784796990E+02  0.93000000000E-01 0.  1.
          3   -1    0    0  501    0  0.00000000000E+00 -0.00000000000E+00 -0.14190340072E+02  0.14190644819E+02  0.93000000000E-01 0. -1.
        -11    1    1    2    0    0  0.49118866083E+00 -0.14416360154E+02  0.16138287898E+01  0.14514721837E+02  0.51100000000E-03 0. -1.
         11    1    1    2    0    0 -0.49118866083E+00  0.14416360154E+02 -0.10196643713E+01  0.14460719971E+02  0.51100000000E-03 0.  1.
<mgrwt>
<rscale>  0 0.28969349E+02</rscale>
<asrwt>0</asrwt>
<pdfrwt beam="2">  1        3 0.21831752E-02 0.28969349E+02</pdfrwt>
<pdfrwt beam="1">  1       -3 0.22745851E-02 0.28969349E+02</pdfrwt>
<totfact> 0.75581766E+05</totfact>
</mgrwt>
</event>
<event>
 4    1  0.1754914E-001  0.2823842E+02  0.7818608E-02  0.1618419E+00
          3   -1    0    0  501    0  0.00000000000E+00  0.00000000000E+00  0.92004376354E+02  0.92004423357E+02  0.93000000000E-01 0. -1.
         -3   -1    0    0    0  501 -0.00000000000E+00 -0.00000000000E+00 -0.21657214335E+01  0.21677173080E+01  0.93000000000E-01 0.  1.
        -11    1    1    2    0    0 -0.64526933608E+01  0.11614573507E+02  0.60848981162E+02  0.62282694853E+02  0.51100000000E-03 0. -1.
         11    1    1    2    0    0  0.64526933608E+01 -0.11614573507E+02  0.28989673758E+02  0.31889445813E+02  0.51100000000E-03 0.  1.
<mgrwt>
<rscale>  0 0.28238416E+02</rscale>
<asrwt>0</asrwt>
<pdfrwt beam="1">  1        3 0.14154678E-01 0.28238416E+02</pdfrwt>
<pdfrwt beam="2">  1       -3 0.33334502E-03 0.28238416E+02</pdfrwt>
<totfact> 0.66824917E+05</totfact>
</mgrwt>
</event>
<event>
 4    1  0.1754914E-001  0.2807317E+02  0.7818608E-02  0.1620419E+00
         -3   -1    0    0    0  501 -0.00000000000E+00  0.00000000000E+00  0.32520555681E+02  0.32520688658E+02  0.93000000000E-01 0.  1.
          3   -1    0    0  501    0  0.00000000000E+00 -0.00000000000E+00 -0.60579949798E+01  0.60587087878E+01  0.93000000000E-01 0. -1.
        -11    1    1    2    0    0  0.42351631432E+01  0.12670297444E+02  0.73120258186E+01  0.15229535975E+02  0.51100000000E-03 0. -1.
         11    1    1    2    0    0 -0.42351631432E+01 -0.12670297444E+02  0.19150534883E+02  0.23349861471E+02  0.51100000000E-03 0.  1.
<mgrwt>
<rscale>  0 0.28073168E+02</rscale>
<asrwt>0</asrwt>
<pdfrwt beam="2">  1        3 0.93206436E-03 0.28073168E+02</pdfrwt>
<pdfrwt beam="1">  1       -3 0.50032276E-02 0.28073168E+02</pdfrwt>
<totfact> 0.78836957E+05</totfact>
</mgrwt>
</event>
<event>
 4    1  0.1754914E-001  0.4726972E+02  0.7818608E-02  0.1460650E+00
          3   -1    0    0  501    0  0.00000000000E+00  0.00000000000E+00  0.47774179295E+02  0.47774269815E+02  0.93000000000E-01 0. -1.
         -3   -1    0    0    0  501 -0.00000000000E+00 -0.00000000000E+00 -0.11692358357E+02  0.11692728209E+02  0.93000000000E-01 0.  1.
        -11    1    1    2    0    0 -0.48711874900E+01 -0.23031409906E+02  0.20689427905E+02  0.31340496759E+02  0.51100000000E-03 0. -1.
         11    1    1    2    0    0  0.48711874900E+01  0.23031409906E+02  0.15392393033E+02  0.28126501264E+02  0.51100000000E-03 0.  1.
<mgrwt>
<rscale>  0 0.47269716E+02</rscale>
<asrwt>0</asrwt>
<pdfrwt beam="1">  1        3 0.73499092E-02 0.47269716E+02</pdfrwt>
<pdfrwt beam="2">  1       -3 0.17988598E-02 0.47269716E+02</pdfrwt>
<totfact> 0.21226424E+05</totfact>
</mgrwt>
</event>
<event>
 4    1  0.1754914E-001  0.4741511E+02  0.7818608E-02  0.1459804E+00
         -3   -1    0    0    0  501 -0.00000000000E+00  0.00000000000E+00  0.26497943592E+02  0.26498106793E+02  0.93000000000E-01 0. -1.
          3   -1    0    0  501    0  0.00000000000E+00 -0.00000000000E+00 -0.21210682683E+02  0.21210886566E+02  0.93000000000E-01 0.  1.
        -11    1    1    2    0    0  0.12265014313E+02  0.11171055497E+02  0.19684513551E+02  0.25743021016E+02  0.51100000000E-03 0. -1.
         11    1    1    2    0    0 -0.12265014313E+02 -0.11171055497E+02 -0.14397252643E+02  0.21965972342E+02  0.51100000000E-03 0.  1.
<mgrwt>
<rscale>  0 0.47415113E+02</rscale>
<asrwt>0</asrwt>
<pdfrwt beam="2">  1        3 0.32632102E-02 0.47415113E+02</pdfrwt>
<pdfrwt beam="1">  1       -3 0.40766349E-02 0.47415113E+02</pdfrwt>
<totfact> 0.21738743E+05</totfact>
</mgrwt>
</event>
<event>
 4    1  0.1754914E-001  0.2914419E+02  0.7818608E-02  0.1607746E+00
          3   -1    0    0  501    0  0.00000000000E+00  0.00000000000E+00  0.54921404113E+01  0.54929277528E+01  0.93000000000E-01 0. -1.
         -3   -1    0    0    0  501 -0.00000000000E+00 -0.00000000000E+00 -0.38660003348E+02  0.38660115208E+02  0.93000000000E-01 0.  1.
        -11    1    1    2    0    0 -0.11372926028E+02  0.70074964688E+01 -0.77634390662E+01  0.15450548197E+02  0.51100000000E-03 0. -1.
         11    1    1    2    0    0  0.11372926028E+02 -0.70074964688E+01 -0.25404423871E+02  0.28702494764E+02  0.51100000000E-03 0.  1.
<mgrwt>
<rscale>  0 0.29144194E+02</rscale>
<asrwt>0</asrwt>
<pdfrwt beam="1">  1        3 0.84501387E-03 0.29144194E+02</pdfrwt>
<pdfrwt beam="2">  1       -3 0.59477618E-02 0.29144194E+02</pdfrwt>
<totfact> 0.71105402E+05</totfact>
</mgrwt>
</event>
<event>
 4    1  0.1754914E-001  0.2550012E+02  0.7818608E-02  0.1653921E+00
          3   -1    0    0  501    0  0.00000000000E+00  0.00000000000E+00  0.32459143315E+02  0.32459276544E+02  0.93000000000E-01 0. -1.
         -3   -1    0    0    0  501 -0.00000000000E+00 -0.00000000000E+00 -0.50076908648E+01  0.50085543620E+01  0.93000000000E-01 0.  1.
        -11    1    1    2    0    0 -0.10637632203E+02  0.64065190120E+01  0.17974404295E+02  0.21846782710E+02  0.51100000000E-03 0. -1.
         11    1    1    2    0    0  0.10637632203E+02 -0.64065190120E+01  0.94770481553E+01  0.15621048196E+02  0.51100000000E-03 0.  1.
<mgrwt>
<rscale>  0 0.25500120E+02</rscale>
<asrwt>0</asrwt>
<pdfrwt beam="1">  1        3 0.49937911E-02 0.25500120E+02</pdfrwt>
<pdfrwt beam="2">  1       -3 0.77049063E-03 0.25500120E+02</pdfrwt>
<totfact> 0.98512133E+05</totfact>
</mgrwt>
</event>
<event>
 4    1  0.1754914E-001  0.3456232E+02  0.7818608E-02  0.1552522E+00
          3   -1    0    0  501    0  0.00000000000E+00  0.00000000000E+00  0.44960889976E+01  0.44970507307E+01  0.93000000000E-01 0. -1.
         -3   -1    0    0    0  501 -0.00000000000E+00 -0.00000000000E+00 -0.66413731765E+02  0.66413796880E+02  0.93000000000E-01 0.  1.
        -11    1    1    2    0    0  0.12129811271E+02 -0.79179947643E+01 -0.11623811399E+02  0.18572559174E+02  0.51100000000E-03 0. -1.
         11    1    1    2    0    0 -0.12129811271E+02  0.79179947643E+01 -0.50293831368E+02  0.52338288437E+02  0.51100000000E-03 0.  1.
<mgrwt>
<rscale>  0 0.34562318E+02</rscale>
<asrwt>0</asrwt>
<pdfrwt beam="1">  1        3 0.69178504E-03 0.34562318E+02</pdfrwt>
<pdfrwt beam="2">  1       -3 0.10217575E-01 0.34562318E+02</pdfrwt>
<totfact> 0.44229641E+05</totfact>
</mgrwt>
</event>
<event>
 4    1  0.1754914E-001  0.3005311E+02  0.7818608E-02  0.1597502E+00
         -3   -1    0    0    0  501 -0.00000000000E+00  0.00000000000E+00  0.28883463424E+02  0.28883613146E+02  0.93000000000E-01 0. -1.
          3   -1    0    0  501    0  0.00000000000E+00 -0.00000000000E+00 -0.78170846509E+01  0.78176378427E+01  0.93000000000E-01 0.  1.
        -11    1    1    2    0    0  0.45321689937E+01 -0.13191119232E+02  0.37062705753E+01  0.14432000007E+02  0.51100000000E-03 0. -1.
         11    1    1    2    0    0 -0.45321689937E+01  0.13191119232E+02  0.17360108197E+02  0.22269250981E+02  0.51100000000E-03 0.  1.
<mgrwt>
<rscale>  0 0.30053111E+02</rscale>
<asrwt>0</asrwt>
<pdfrwt beam="2">  1        3 0.12026825E-02 0.30053111E+02</pdfrwt>
<pdfrwt beam="1">  1       -3 0.44436638E-02 0.30053111E+02</pdfrwt>
<totfact> 0.67715927E+05</totfact>
</mgrwt>
</event>
<event>
 4    1  0.1754914E-001  0.3436497E+02  0.7818608E-02  0.1554313E+00
          3   -1    0    0  501    0  0.00000000000E+00  0.00000000000E+00  0.92768111843E+01  0.92772773349E+01  0.93000000000E-01 0. -1.
         -3   -1    0    0    0  501 -0.00000000000E+00 -0.00000000000E+00 -0.31824015537E+02  0.31824151425E+02  0.93000000000E-01 0.  1.
        -11    1    1    2    0    0  0.91393611912E+01 -0.92174054893E+01  0.21916256616E+01  0.13164030927E+02  0.51100000000E-03 0. -1.
         11    1    1    2    0    0 -0.91393611912E+01  0.92174054893E+01 -0.24738830014E+02  0.27937397833E+02  0.51100000000E-03 0.  1.
<mgrwt>
<rscale>  0 0.34364968E+02</rscale>
<asrwt>0</asrwt>
<pdfrwt beam="1">  1        3 0.14272480E-02 0.34364968E+02</pdfrwt>
<pdfrwt beam="2">  1       -3 0.48960487E-02 0.34364968E+02</pdfrwt>
<totfact> 0.48701683E+05</totfact>
</mgrwt>
</event>
<event>
 4    1  0.1754914E-001  0.3783722E+02  0.7818608E-02  0.1524758E+00
         -3   -1    0    0    0  501 -0.00000000000E+00  0.00000000000E+00  0.95600573860E+01  0.95605097262E+01  0.93000000000E-01 0.  1.
          3   -1    0    0  501    0  0.00000000000E+00 -0.00000000000E+00 -0.37437061897E+02  0.37437177411E+02  0.93000000000E-01 0. -1.
        -11    1    1    2    0    0 -0.27119152480E+01 -0.16499196985E+02 -0.24932039648E+02  0.30019736620E+02  0.51100000000E-03 0. -1.
         11    1    1    2    0    0  0.27119152480E+01  0.16499196985E+02 -0.29449648631E+01  0.16977950517E+02  0.51100000000E-03 0.  1.
<mgrwt>
<rscale>  0 0.37837220E+02</rscale>
<asrwt>0</asrwt>
<pdfrwt beam="2">  1        3 0.57595916E-02 0.37837220E+02</pdfrwt>
<pdfrwt beam="1">  1       -3 0.14708218E-02 0.37837220E+02</pdfrwt>
<totfact> 0.37983804E+05</totfact>
</mgrwt>
</event>
<event>
 4    1  0.1754914E-001  0.1132255E+03  0.7818608E-02  0.1254711E+00
          3   -1    0    0  501    0  0.00000000000E+00  0.00000000000E+00  0.65462392017E+02  0.65462458078E+02  0.93000000000E-01 0. -1.
         -3   -1    0    0    0  501 -0.00000000000E+00 -0.00000000000E+00 -0.48959286597E+02  0.48959374925E+02  0.93000000000E-01 0.  1.
        -11    1    1    2    0    0  0.95486142771E+01 -0.53638334927E+01 -0.47878599910E+02  0.49115242786E+02  0.51100000000E-03 0.  1.
         11    1    1    2    0    0 -0.95486142771E+01  0.53638334927E+01  0.64381705330E+02  0.65306590218E+02  0.51100000000E-03 0. -1.
<mgrwt>
<rscale>  0 0.11322545E+03</rscale>
<asrwt>0</asrwt>
<pdfrwt beam="1">  1        3 0.10071149E-01 0.11322545E+03</pdfrwt>
<pdfrwt beam="2">  1       -3 0.75322099E-02 0.11322545E+03</pdfrwt>
<totfact> 0.18519119E+04</totfact>
</mgrwt>
</event>
<event>
 4    1  0.1754914E-001  0.3902057E+02  0.7818608E-02  0.1515545E+00
          3   -1    0    0  501    0  0.00000000000E+00  0.00000000000E+00  0.43086303833E+01  0.43096339497E+01  0.93000000000E-01 0.  1.
         -3   -1    0    0    0  501 -0.00000000000E+00 -0.00000000000E+00 -0.88334899764E+02  0.88334948720E+02  0.93000000000E-01 0. -1.
        -11    1    1    2    0    0 -0.93252834105E+00 -0.18531392433E+02 -0.56331470884E+02  0.59308656424E+02  0.51100000000E-03 0. -1.
         11    1    1    2    0    0  0.93252834105E+00  0.18531392433E+02 -0.27694798497E+02  0.33335926245E+02  0.51100000000E-03 0.  1.
<mgrwt>
<rscale>  0 0.39020568E+02</rscale>
<asrwt>0</asrwt>
<pdfrwt beam="1">  1        3 0.66294724E-03 0.39020568E+02</pdfrwt>
<pdfrwt beam="2">  1       -3 0.13590064E-01 0.39020568E+02</pdfrwt>
<totfact> 0.31303038E+05</totfact>
</mgrwt>
</event>
<event>
 4    1  0.1754914E-001  0.2788572E+02  0.7818608E-02  0.1622708E+00
         -3   -1    0    0    0  501 -0.00000000000E+00  0.00000000000E+00  0.10491208475E+03  0.10491212597E+03  0.93000000000E-01 0. -1.
          3   -1    0    0  501    0  0.00000000000E+00 -0.00000000000E+00 -0.18518038482E+01  0.18541376681E+01  0.93000000000E-01 0.  1.
        -11    1    1    2    0    0 -0.11056209625E+02  0.80230886944E+01  0.62218793476E+02  0.63700769111E+02  0.51100000000E-03 0. -1.
         11    1    1    2    0    0  0.11056209625E+02 -0.80230886944E+01  0.40841487427E+02  0.43065494529E+02  0.51100000000E-03 0.  1.
<mgrwt>
<rscale>  0 0.27885723E+02</rscale>
<asrwt>0</asrwt>
<pdfrwt beam="2">  1        3 0.28507550E-03 0.27885723E+02</pdfrwt>
<pdfrwt beam="1">  1       -3 0.16140509E-01 0.27885723E+02</pdfrwt>
<totfact> 0.66725817E+05</totfact>
</mgrwt>
</event>
<event>
 4    1  0.1754914E-001  0.2353799E+02  0.7818608E-02  0.1682935E+00
          3   -1    0    0  501    0  0.00000000000E+00  0.00000000000E+00  0.90092522711E+01  0.90097322649E+01  0.93000000000E-01 0.  1.
         -3   -1    0    0    0  501 -0.00000000000E+00 -0.00000000000E+00 -0.15373083604E+02  0.15373364905E+02  0.93000000000E-01 0. -1.
        -11    1    1    2    0    0  0.51823478440E+01 -0.10200221031E+02 -0.60392140355E+01  0.12937285058E+02  0.51100000000E-03 0.  1.
         11    1    1    2    0    0 -0.51823478440E+01  0.10200221031E+02 -0.32461729772E+00  0.11445812112E+02  0.51100000000E-03 0. -1.
<mgrwt>
<rscale>  0 0.23537992E+02</rscale>
<asrwt>0</asrwt>
<pdfrwt beam="1">  1        3 0.13860974E-02 0.23537992E+02</pdfrwt>
<pdfrwt beam="2">  1       -3 0.23651484E-02 0.23537992E+02</pdfrwt>
<totfact> 0.12312964E+06</totfact>
</mgrwt>
</event>
<event>
 4    1  0.1754914E-001  0.2914636E+02  0.7818608E-02  0.1607721E+00
          3   -1    0    0  501    0  0.00000000000E+00  0.00000000000E+00  0.66500127273E+02  0.66500192303E+02  0.93000000000E-01 0. -1.
         -3   -1    0    0    0  501 -0.00000000000E+00 -0.00000000000E+00 -0.31928984768E+01  0.31942526017E+01  0.93000000000E-01 0.  1.
        -11    1    1    2    0    0 -0.96800324368E+01 -0.36989239555E+01  0.71520942939E+01  0.12591168312E+02  0.51100000000E-03 0.  1.
         11    1    1    2    0    0  0.96800324368E+01  0.36989239555E+01  0.56155134502E+02  0.57103276593E+02  0.51100000000E-03 0. -1.
<mgrwt>
<rscale>  0 0.29146362E+02</rscale>
<asrwt>0</asrwt>
<pdfrwt beam="1">  1        3 0.10230897E-01 0.29146362E+02</pdfrwt>
<pdfrwt beam="2">  1       -3 0.49132435E-03 0.29146362E+02</pdfrwt>
<totfact> 0.66154990E+05</totfact>
</mgrwt>
</event>
<event>
 4    1  0.1754914E-001  0.5205331E+02  0.7818608E-02  0.1434571E+00
          3   -1    0    0  501    0  0.00000000000E+00  0.00000000000E+00  0.88234574069E+02  0.88234623081E+02  0.93000000000E-01 0. -1.
         -3   -1    0    0    0  501 -0.00000000000E+00 -0.00000000000E+00 -0.76767799521E+01  0.76773432535E+01  0.93000000000E-01 0.  1.
        -11    1    1    2    0    0  0.16653608157E+02 -0.42750788977E+01  0.76280687161E+02  0.78194387255E+02  0.51100000000E-03 0. -1.
         11    1    1    2    0    0 -0.16653608157E+02  0.42750788977E+01  0.42771069562E+01  0.17717579079E+02  0.51100000000E-03 0.  1.
<mgrwt>
<rscale>  0 0.52053310E+02</rscale>
<asrwt>0</asrwt>
<pdfrwt beam="1">  1        3 0.13574597E-01 0.52053310E+02</pdfrwt>
<pdfrwt beam="2">  1       -3 0.11810902E-02 0.52053310E+02</pdfrwt>
<totfact> 0.15232183E+05</totfact>
</mgrwt>
</event>
<event>
 4    1  0.1754914E-001  0.2426528E+02  0.7818608E-02  0.1671785E+00
          3   -1    0    0  501    0  0.00000000000E+00  0.00000000000E+00  0.35205417889E+02  0.35205540725E+02  0.93000000000E-01 0. -1.
         -3   -1    0    0    0  501 -0.00000000000E+00 -0.00000000000E+00 -0.41805550442E+01  0.41815893482E+01  0.93000000000E-01 0.  1.
        -11    1    1    2    0    0 -0.85992243173E+01 -0.72502780331E+01  0.22895314493E+02  0.25508990894E+02  0.51100000000E-03 0. -1.
         11    1    1    2    0    0  0.85992243173E+01  0.72502780331E+01  0.81295483512E+01  0.13878139179E+02  0.51100000000E-03 0.  1.
<mgrwt>
<rscale>  0 0.24265282E+02</rscale>
<asrwt>0</asrwt>
<pdfrwt beam="1">  1        3 0.54163074E-02 0.24265282E+02</pdfrwt>
<pdfrwt beam="2">  1       -3 0.64325130E-03 0.24265282E+02</pdfrwt>
<totfact> 0.10951234E+06</totfact>
</mgrwt>
</event>
<event>
 4    1  0.1754914E-001  0.2403311E+02  0.7818608E-02  0.1675291E+00
          3   -1    0    0  501    0  0.00000000000E+00  0.00000000000E+00  0.42487748945E+02  0.42487850727E+02  0.93000000000E-01 0.  1.
         -3   -1    0    0    0  501 -0.00000000000E+00 -0.00000000000E+00 -0.33978292444E+01  0.33991017304E+01  0.93000000000E-01 0. -1.
        -11    1    1    2    0    0 -0.70955967734E+01 -0.77869939603E+01  0.85083395864E+01  0.13541662058E+02  0.51100000000E-03 0. -1.
         11    1    1    2    0    0  0.70955967734E+01  0.77869939603E+01  0.30581580114E+02  0.32345290400E+02  0.51100000000E-03 0.  1.
<mgrwt>
<rscale>  0 0.24033114E+02</rscale>
<asrwt>0</asrwt>
<pdfrwt beam="1">  1        3 0.65366818E-02 0.24033114E+02</pdfrwt>
<pdfrwt beam="2">  1       -3 0.52284873E-03 0.24033114E+02</pdfrwt>
<totfact> 0.10968131E+06</totfact>
</mgrwt>
</event>
<event>
 4    1  0.1754914E-001  0.2578772E+02  0.7818608E-02  0.1649939E+00
         -3   -1    0    0    0  501 -0.00000000000E+00  0.00000000000E+00  0.39647430942E+01  0.39658336833E+01  0.93000000000E-01 0.  1.
          3   -1    0    0  501    0  0.00000000000E+00 -0.00000000000E+00 -0.41925596673E+02  0.41925699820E+02  0.93000000000E-01 0. -1.
        -11    1    1    2    0    0  0.29869421227E+01 -0.11952838069E+02 -0.12213437015E+02  0.17348204666E+02  0.51100000000E-03 0.  1.
         11    1    1    2    0    0 -0.29869421227E+01  0.11952838069E+02 -0.25747416564E+02  0.28543328838E+02  0.51100000000E-03 0. -1.
<mgrwt>
<rscale>  0 0.25787719E+02</rscale>
<asrwt>0</asrwt>
<pdfrwt beam="2">  1        3 0.64501833E-02 0.25787719E+02</pdfrwt>
<pdfrwt beam="1">  1       -3 0.61005233E-03 0.25787719E+02</pdfrwt>
<totfact> 0.93595420E+05</totfact>
</mgrwt>
</event>
<event>
 4    1  0.1754914E-001  0.2722464E+02  0.7818608E-02  0.1630962E+00
         -3   -1    0    0    0  501 -0.00000000000E+00  0.00000000000E+00  0.32195119378E+02  0.32195253700E+02  0.93000000000E-01 0.  1.
          3   -1    0    0  501    0  0.00000000000E+00 -0.00000000000E+00 -0.57548632184E+01  0.57556146207E+01  0.93000000000E-01 0. -1.
        -11    1    1    2    0    0  0.88128158256E+01  0.61270654874E+01  0.24890464677E+02  0.27106122673E+02  0.51100000000E-03 0.  1.
         11    1    1    2    0    0 -0.88128158256E+01 -0.61270654874E+01  0.15497914833E+01  0.10844745648E+02  0.51100000000E-03 0. -1.
<mgrwt>
<rscale>  0 0.27224644E+02</rscale>
<asrwt>0</asrwt>
<pdfrwt beam="2">  1        3 0.88543170E-03 0.27224644E+02</pdfrwt>
<pdfrwt beam="1">  1       -3 0.49531634E-02 0.27224644E+02</pdfrwt>
<totfact> 0.84754427E+05</totfact>
</mgrwt>
</event>
<event>
 4    1  0.1754914E-001  0.4507258E+02  0.7818608E-02  0.1473889E+00
          3   -1    0    0  501    0  0.00000000000E+00  0.00000000000E+00  0.43329614086E+01  0.43339593409E+01  0.93000000000E-01 0.  1.
         -3   -1    0    0    0  501 -0.00000000000E+00 -0.00000000000E+00 -0.11719962774E+03  0.11719966464E+03  0.93000000000E-01 0. -1.
        -11    1    1    2    0    0  0.52293894894E+01  0.21505632497E+02 -0.67887664528E+02  0.71404297762E+02  0.51100000000E-03 0.  1.
         11    1    1    2    0    0 -0.52293894894E+01 -0.21505632497E+02 -0.44979001804E+02  0.50129326218E+02  0.51100000000E-03 0. -1.
<mgrwt>
<rscale>  0 0.45072579E+02</rscale>
<asrwt>0</asrwt>
<pdfrwt beam="1">  1        3 0.66668914E-03 0.45072579E+02</pdfrwt>
<pdfrwt beam="2">  1       -3 0.18030789E-01 0.45072579E+02</pdfrwt>
<totfact> 0.20587686E+05</totfact>
</mgrwt>
</event>
<event>
 4    1  0.1754914E-001  0.4367173E+02  0.7818608E-02  0.1482808E+00
         -3   -1    0    0    0  501 -0.00000000000E+00  0.00000000000E+00  0.53251450639E+01  0.53259570926E+01  0.93000000000E-01 0.  1.
          3   -1    0    0  501    0  0.00000000000E+00 -0.00000000000E+00 -0.89530762353E+02  0.89530810655E+02  0.93000000000E-01 0. -1.
        -11    1    1    2    0    0  0.28120099351E+01 -0.21593032872E+02 -0.38574575107E+02  0.44296323927E+02  0.51100000000E-03 0. -1.
         11    1    1    2    0    0 -0.28120099351E+01  0.21593032872E+02 -0.45631042182E+02  0.50560443821E+02  0.51100000000E-03 0.  1.
<mgrwt>
<rscale>  0 0.43671735E+02</rscale>
<asrwt>0</asrwt>
<pdfrwt beam="2">  1        3 0.13774029E-01 0.43671735E+02</pdfrwt>
<pdfrwt beam="1">  1       -3 0.81931933E-03 0.43671735E+02</pdfrwt>
<totfact> 0.23655558E+05</totfact>
</mgrwt>
</event>
<event>
 4    1  0.1754914E-001  0.4390565E+02  0.7818608E-02  0.1481291E+00
         -3   -1    0    0    0  501 -0.00000000000E+00  0.00000000000E+00  0.75812952942E+02  0.75813009984E+02  0.93000000000E-01 0. -1.
          3   -1    0    0  501    0  0.00000000000E+00 -0.00000000000E+00 -0.63563847584E+01  0.63570650616E+01  0.93000000000E-01 0.  1.
        -11    1    1    2    0    0  0.90958229290E+01  0.13920174254E+02  0.79047481048E+01  0.18411688920E+02  0.51100000000E-03 0.  1.
         11    1    1    2    0    0 -0.90958229290E+01 -0.13920174254E+02  0.61551820079E+02  0.63758386125E+02  0.51100000000E-03 0. -1.
<mgrwt>
<rscale>  0 0.43905653E+02</rscale>
<asrwt>0</asrwt>
<pdfrwt beam="2">  1        3 0.97796208E-03 0.43905653E+02</pdfrwt>
<pdfrwt beam="1">  1       -3 0.11663588E-01 0.43905653E+02</pdfrwt>
<totfact> 0.24075723E+05</totfact>
</mgrwt>
</event>
<event>
 4    1  0.1754914E-001  0.3022432E+02  0.7818608E-02  0.1595622E+00
          3   -1    0    0  501    0  0.00000000000E+00  0.00000000000E+00  0.35441328741E+02  0.35441450759E+02  0.93000000000E-01 0.  1.
         -3   -1    0    0    0  501 -0.00000000000E+00 -0.00000000000E+00 -0.64433478022E+01  0.64440189245E+01  0.93000000000E-01 0. -1.
        -11    1    1    2    0    0  0.10549387349E+02  0.10648439078E+02  0.17164160266E+02  0.22787874542E+02  0.51100000000E-03 0. -1.
         11    1    1    2    0    0 -0.10549387349E+02 -0.10648439078E+02  0.11833820673E+02  0.19097595142E+02  0.51100000000E-03 0.  1.
<mgrwt>
<rscale>  0 0.30224323E+02</rscale>
<asrwt>0</asrwt>
<pdfrwt beam="1">  1        3 0.54525731E-02 0.30224323E+02</pdfrwt>
<pdfrwt beam="2">  1       -3 0.99134530E-03 0.30224323E+02</pdfrwt>
<totfact> 0.65771558E+05</totfact>
</mgrwt>
</event>
<event>
 4    1  0.1754914E-001  0.3870818E+02  0.7818608E-02  0.1517939E+00
         -3   -1    0    0    0  501 -0.00000000000E+00  0.00000000000E+00  0.51681305275E+01  0.51689672227E+01  0.93000000000E-01 0.  1.
          3   -1    0    0  501    0  0.00000000000E+00 -0.00000000000E+00 -0.72472258911E+02  0.72472318582E+02  0.93000000000E-01 0. -1.
        -11    1    1    2    0    0 -0.17014961618E+02  0.53847325971E+01 -0.18631686450E+02  0.25800077601E+02  0.51100000000E-03 0. -1.
         11    1    1    2    0    0  0.17014961618E+02 -0.53847325971E+01 -0.48672441933E+02  0.51841208203E+02  0.51100000000E-03 0.  1.
<mgrwt>
<rscale>  0 0.38708185E+02</rscale>
<asrwt>0</asrwt>
<pdfrwt beam="2">  1        3 0.11149646E-01 0.38708185E+02</pdfrwt>
<pdfrwt beam="1">  1       -3 0.79516601E-03 0.38708185E+02</pdfrwt>
<totfact> 0.33117619E+05</totfact>
</mgrwt>
</event>
<event>
 4    1  0.1754914E-001  0.6688465E+02  0.7818608E-02  0.1371019E+00
          3   -1    0    0  501    0  0.00000000000E+00  0.00000000000E+00  0.46285794182E+02  0.46285887612E+02  0.93000000000E-01 0. -1.
         -3   -1    0    0    0  501 -0.00000000000E+00 -0.00000000000E+00 -0.24162479604E+02  0.24162658580E+02  0.93000000000E-01 0.  1.
        -11    1    1    2    0    0 -0.95812799128E+01 -0.76170124034E+01  0.43841806595E+02  0.45518389784E+02  0.51100000000E-03 0. -1.
         11    1    1    2    0    0  0.95812799128E+01  0.76170124034E+01 -0.21718492018E+02  0.24930156408E+02  0.51100000000E-03 0.  1.
<mgrwt>
<rscale>  0 0.66884652E+02</rscale>
<asrwt>0</asrwt>
<pdfrwt beam="1">  1        3 0.71209123E-02 0.66884652E+02</pdfrwt>
<pdfrwt beam="2">  1       -3 0.37173255E-02 0.66884652E+02</pdfrwt>
<totfact> 0.84835268E+04</totfact>
</mgrwt>
</event>
<event>
 4    1  0.1754914E-001  0.2697518E+02  0.7818608E-02  0.1634152E+00
         -3   -1    0    0    0  501 -0.00000000000E+00  0.00000000000E+00  0.18944546589E+02  0.18944774859E+02  0.93000000000E-01 0. -1.
          3   -1    0    0  501    0  0.00000000000E+00 -0.00000000000E+00 -0.96019958197E+01  0.96024461843E+01  0.93000000000E-01 0.  1.
        -11    1    1    2    0    0  0.46948604939E+01 -0.91278238882E+01  0.13930822970E+02  0.17303950788E+02  0.51100000000E-03 0. -1.
         11    1    1    2    0    0 -0.46948604939E+01  0.91278238882E+01 -0.45882722005E+01  0.11243270256E+02  0.51100000000E-03 0.  1.
<mgrwt>
<rscale>  0 0.26975184E+02</rscale>
<asrwt>0</asrwt>
<pdfrwt beam="2">  1        3 0.14772823E-02 0.26975184E+02</pdfrwt>
<pdfrwt beam="1">  1       -3 0.29145978E-02 0.26975184E+02</pdfrwt>
<totfact> 0.89199891E+05</totfact>
</mgrwt>
</event>
<event>
 4    1  0.1754914E-001  0.2580139E+02  0.7818608E-02  0.1649751E+00
          3   -1    0    0  501    0  0.00000000000E+00  0.00000000000E+00  0.39485630282E+01  0.39496580849E+01  0.93000000000E-01 0. -1.
         -3   -1    0    0    0  501 -0.00000000000E+00 -0.00000000000E+00 -0.42141999812E+02  0.42142102429E+02  0.93000000000E-01 0.  1.
        -11    1    1    2    0    0 -0.11941778708E+02 -0.42158721924E+01 -0.14703362928E+02  0.19405373965E+02  0.51100000000E-03 0. -1.
         11    1    1    2    0    0  0.11941778708E+02  0.42158721924E+01 -0.23490073855E+02  0.26686386549E+02  0.51100000000E-03 0.  1.
<mgrwt>
<rscale>  0 0.25801391E+02</rscale>
<asrwt>0</asrwt>
<pdfrwt beam="1">  1        3 0.60756339E-03 0.25801391E+02</pdfrwt>
<pdfrwt beam="2">  1       -3 0.64834764E-02 0.25801391E+02</pdfrwt>
<totfact> 0.93438676E+05</totfact>
</mgrwt>
</event>
<event>
 4    1  0.1754914E-001  0.2500986E+02  0.7818608E-02  0.1660860E+00
          3   -1    0    0  501    0  0.00000000000E+00  0.00000000000E+00  0.15359055741E+02  0.15359337299E+02  0.93000000000E-01 0.  1.
         -3   -1    0    0    0  501 -0.00000000000E+00 -0.00000000000E+00 -0.10180591328E+02  0.10181016098E+02  0.93000000000E-01 0. -1.
        -11    1    1    2    0    0 -0.11209761329E+02 -0.34287565914E+01 -0.18572218478E+01  0.11868630673E+02  0.51100000000E-03 0. -1.
         11    1    1    2    0    0  0.11209761329E+02  0.34287565914E+01  0.70356862610E+01  0.13671722724E+02  0.51100000000E-03 0.  1.
<mgrwt>
<rscale>  0 0.25009861E+02</rscale>
<asrwt>0</asrwt>
<pdfrwt beam="1">  1        3 0.23629860E-02 0.25009861E+02</pdfrwt>
<pdfrwt beam="2">  1       -3 0.15662992E-02 0.25009861E+02</pdfrwt>
<totfact> 0.10702816E+06</totfact>
</mgrwt>
</event>
<event>
 4    1  0.1754914E-001  0.2622077E+02  0.7818608E-02  0.1644062E+00
          3   -1    0    0  501    0  0.00000000000E+00  0.00000000000E+00  0.12214987852E+03  0.12214991392E+03  0.93000000000E-01 0.  1.
         -3   -1    0    0    0  501 -0.00000000000E+00 -0.00000000000E+00 -0.14055691620E+01  0.14086424916E+01  0.93000000000E-01 0. -1.
        -11    1    1    2    0    0 -0.12903314425E+02 -0.23208090415E+01  0.60475094496E+02  0.61879873403E+02  0.51100000000E-03 0.  1.
         11    1    1    2    0    0  0.12903314425E+02  0.23208090415E+01  0.60269214861E+02  0.61678683011E+02  0.51100000000E-03 0. -1.
<mgrwt>
<rscale>  0 0.26220767E+02</rscale>
<asrwt>0</asrwt>
<pdfrwt beam="1">  1        3 0.18792526E-01 0.26220767E+02</pdfrwt>
<pdfrwt beam="2">  1       -3 0.21648057E-03 0.26220767E+02</pdfrwt>
<totfact> 0.73806113E+05</totfact>
</mgrwt>
</event>
<event>
 4    1  0.1754914E-001  0.4252336E+02  0.7818608E-02  0.1490423E+00
         -3   -1    0    0    0  501 -0.00000000000E+00  0.00000000000E+00  0.17021124393E+02  0.17021378457E+02  0.93000000000E-01 0.  1.
          3   -1    0    0  501    0  0.00000000000E+00 -0.00000000000E+00 -0.26558177966E+02  0.26558340797E+02  0.93000000000E-01 0. -1.
        -11    1    1    2    0    0  0.11452612038E+02  0.65344976973E+01 -0.21862111455E+02  0.25530646294E+02  0.51100000000E-03 0. -1.
         11    1    1    2    0    0 -0.11452612038E+02 -0.65344976973E+01  0.12325057882E+02  0.18049072960E+02  0.51100000000E-03 0.  1.
<mgrwt>
<rscale>  0 0.42523365E+02</rscale>
<asrwt>0</asrwt>
<pdfrwt beam="2">  1        3 0.40859056E-02 0.42523365E+02</pdfrwt>
<pdfrwt beam="1">  1       -3 0.26186666E-02 0.42523365E+02</pdfrwt>
<totfact> 0.28836903E+05</totfact>
</mgrwt>
</event>
<event>
 4    1  0.1754914E-001  0.4896768E+02  0.7818608E-02  0.1450990E+00
          3   -1    0    0  501    0  0.00000000000E+00  0.00000000000E+00  0.71713645946E+01  0.71719675926E+01  0.93000000000E-01 0. -1.
         -3   -1    0    0    0  501 -0.00000000000E+00 -0.00000000000E+00 -0.83586417679E+02  0.83586469416E+02  0.93000000000E-01 0.  1.
        -11    1    1    2    0    0  0.23059326089E+02 -0.72228538449E+01 -0.30897314935E+02  0.39224306340E+02  0.51100000000E-03 0. -1.
         11    1    1    2    0    0 -0.23059326089E+02  0.72228538449E+01 -0.45517738149E+02  0.51534130669E+02  0.51100000000E-03 0.  1.
<mgrwt>
<rscale>  0 0.48967679E+02</rscale>
<asrwt>0</asrwt>
<pdfrwt beam="1">  1        3 0.11033373E-02 0.48967679E+02</pdfrwt>
<pdfrwt beam="2">  1       -3 0.12859499E-01 0.48967679E+02</pdfrwt>
<totfact> 0.17977991E+05</totfact>
</mgrwt>
</event>
<event>
 4    1  0.1754914E-001  0.2548674E+02  0.7818608E-02  0.1654108E+00
         -3   -1    0    0    0  501 -0.00000000000E+00  0.00000000000E+00  0.10472828419E+03  0.10472832548E+03  0.93000000000E-01 0. -1.
          3   -1    0    0  501    0  0.00000000000E+00 -0.00000000000E+00 -0.15491810477E+01  0.15519700121E+01  0.93000000000E-01 0.  1.
        -11    1    1    2    0    0 -0.27011172891E+01  0.12394784808E+02  0.46539266098E+02  0.48237226436E+02  0.51100000000E-03 0.  1.
         11    1    1    2    0    0  0.27011172891E+01 -0.12394784808E+02  0.56639837041E+02  0.58043069055E+02  0.51100000000E-03 0. -1.
<mgrwt>
<rscale>  0 0.25486739E+02</rscale>
<asrwt>0</asrwt>
<pdfrwt beam="2">  1        3 0.23855329E-03 0.25486739E+02</pdfrwt>
<pdfrwt beam="1">  1       -3 0.16112259E-01 0.25486739E+02</pdfrwt>
<totfact> 0.81928670E+05</totfact>
</mgrwt>
</event>
<event>
 4    1  0.1754914E-001  0.3059858E+02  0.7818608E-02  0.1591565E+00
         -3   -1    0    0    0  501 -0.00000000000E+00  0.00000000000E+00  0.17873193706E+02  0.17873435659E+02  0.93000000000E-01 0. -1.
          3   -1    0    0  501    0  0.00000000000E+00 -0.00000000000E+00 -0.13095556992E+02  0.13095887214E+02  0.93000000000E-01 0.  1.
        -11    1    1    2    0    0  0.86676104416E+01  0.10835297214E+02 -0.41342025890E+01  0.14478355148E+02  0.51100000000E-03 0.  1.
         11    1    1    2    0    0 -0.86676104416E+01 -0.10835297214E+02  0.89118393033E+01  0.16490967725E+02  0.51100000000E-03 0. -1.
<mgrwt>
<rscale>  0 0.30598581E+02</rscale>
<asrwt>0</asrwt>
<pdfrwt beam="2">  1        3 0.20147451E-02 0.30598581E+02</pdfrwt>
<pdfrwt beam="1">  1       -3 0.27497661E-02 0.30598581E+02</pdfrwt>
<totfact> 0.66100589E+05</totfact>
</mgrwt>
</event>
<event>
 4    1  0.1754914E-001  0.3891499E+02  0.7818608E-02  0.1516351E+00
          3   -1    0    0  501    0  0.00000000000E+00  0.00000000000E+00  0.93700618359E+01  0.93705233477E+01  0.93000000000E-01 0.  1.
         -3   -1    0    0    0  501 -0.00000000000E+00 -0.00000000000E+00 -0.40403138766E+02  0.40403245800E+02  0.93000000000E-01 0. -1.
        -11    1    1    2    0    0 -0.74529695606E+01  0.70779638887E+01  0.56147009714E+01  0.11711925347E+02  0.51100000000E-03 0.  1.
         11    1    1    2    0    0  0.74529695606E+01 -0.70779638887E+01 -0.36647777901E+02  0.38061843800E+02  0.51100000000E-03 0. -1.
<mgrwt>
<rscale>  0 0.38914987E+02</rscale>
<asrwt>0</asrwt>
<pdfrwt beam="1">  1        3 0.14415917E-02 0.38914987E+02</pdfrwt>
<pdfrwt beam="2">  1       -3 0.62159111E-02 0.38914987E+02</pdfrwt>
<totfact> 0.35207494E+05</totfact>
</mgrwt>
</event>
<event>
 4    1  0.1754914E-001  0.2500319E+02  0.7818608E-02  0.1660956E+00
          3   -1    0    0  501    0  0.00000000000E+00  0.00000000000E+00  0.11883328810E+02  0.11883692718E+02  0.93000000000E-01 0.  1.
         -3   -1    0    0    0  501 -0.00000000000E+00 -0.00000000000E+00 -0.13151300685E+02  0.13151629507E+02  0.93000000000E-01 0. -1.
        -11    1    1    2    0    0 -0.63720627999E+01 -0.98911834463E+01  0.35965123559E+01  0.12303397729E+02  0.51100000000E-03 0.  1.
         11    1    1    2    0    0  0.63720627999E+01  0.98911834463E+01 -0.48644842302E+01  0.12731924496E+02  0.51100000000E-03 0. -1.
<mgrwt>
<rscale>  0 0.25003192E+02</rscale>
<asrwt>0</asrwt>
<pdfrwt beam="1">  1        3 0.18282577E-02 0.25003192E+02</pdfrwt>
<pdfrwt beam="2">  1       -3 0.20233303E-02 0.25003192E+02</pdfrwt>
<totfact> 0.10728025E+06</totfact>
</mgrwt>
</event>
<event>
 4    1  0.1754914E-001  0.2047137E+02  0.7818608E-02  0.1736114E+00
          3   -1    0    0  501    0  0.00000000000E+00  0.00000000000E+00  0.16566500073E+01  0.16592583423E+01  0.93000000000E-01 0. -1.
         -3   -1    0    0    0  501 -0.00000000000E+00 -0.00000000000E+00 -0.63189248823E+02  0.63189317260E+02  0.93000000000E-01 0.  1.
        -11    1    1    2    0    0 -0.17224326504E+01 -0.10074491399E+02 -0.32521794346E+02  0.34090016998E+02  0.51100000000E-03 0.  1.
         11    1    1    2    0    0  0.17224326504E+01  0.10074491399E+02 -0.29010804470E+02  0.30758558604E+02  0.51100000000E-03 0. -1.
<mgrwt>
<rscale>  0 0.20471371E+02</rscale>
<asrwt>0</asrwt>
<pdfrwt beam="1">  1        3 0.25507519E-03 0.20471371E+02</pdfrwt>
<pdfrwt beam="2">  1       -3 0.97216270E-02 0.20471371E+02</pdfrwt>
<totfact> 0.14773022E+06</totfact>
</mgrwt>
</event>
<event>
 4    1  0.1754914E-001  0.2492776E+02  0.7818608E-02  0.1662042E+00
         -3   -1    0    0    0  501 -0.00000000000E+00  0.00000000000E+00  0.35726352845E+01  0.35738455306E+01  0.93000000000E-01 0. -1.
          3   -1    0    0  501    0  0.00000000000E+00 -0.00000000000E+00 -0.43474201031E+02  0.43474300504E+02  0.93000000000E-01 0.  1.
        -11    1    1    2    0    0  0.11378886933E+02 -0.24655366713E+01 -0.11554522961E+02  0.16403199079E+02  0.51100000000E-03 0. -1.
         11    1    1    2    0    0 -0.11378886933E+02  0.24655366713E+01 -0.28347042786E+02  0.30644946955E+02  0.51100000000E-03 0.  1.
<mgrwt>
<rscale>  0 0.24927758E+02</rscale>
<asrwt>0</asrwt>
<pdfrwt beam="2">  1        3 0.66884390E-02 0.24927758E+02</pdfrwt>
<pdfrwt beam="1">  1       -3 0.54973698E-03 0.24927758E+02</pdfrwt>
<totfact> 0.10070067E+06</totfact>
</mgrwt>
</event>
<event>
 4    1  0.1754914E-001  0.3897549E+02  0.7818608E-02  0.1515889E+00
         -3   -1    0    0    0  501 -0.00000000000E+00  0.00000000000E+00  0.94398776513E+01  0.94403357499E+01  0.93000000000E-01 0.  1.
          3   -1    0    0  501    0  0.00000000000E+00 -0.00000000000E+00 -0.40229140951E+02  0.40229248448E+02  0.93000000000E-01 0. -1.
        -11    1    1    2    0    0  0.13757182713E+02  0.11800471134E+02 -0.24518784554E+02  0.30490686962E+02  0.51100000000E-03 0. -1.
         11    1    1    2    0    0 -0.13757182713E+02 -0.11800471134E+02 -0.62704787463E+01  0.19178897235E+02  0.51100000000E-03 0.  1.
<mgrwt>
<rscale>  0 0.38975491E+02</rscale>
<asrwt>0</asrwt>
<pdfrwt beam="2">  1        3 0.61891420E-02 0.38975491E+02</pdfrwt>
<pdfrwt beam="1">  1       -3 0.14523324E-02 0.38975491E+02</pdfrwt>
<totfact> 0.35082099E+05</totfact>
</mgrwt>
</event>
<event>
 4    1  0.1754914E-001  0.2183285E+02  0.7818608E-02  0.1711159E+00
          3   -1    0    0  501    0  0.00000000000E+00  0.00000000000E+00  0.52111723369E+01  0.52120021225E+01  0.93000000000E-01 0.  1.
         -3   -1    0    0    0  501 -0.00000000000E+00 -0.00000000000E+00 -0.22865108946E+02  0.22865298076E+02  0.93000000000E-01 0. -1.
        -11    1    1    2    0    0 -0.54277503394E+01  0.87388535029E+01 -0.41298921003E+01  0.11085307543E+02  0.51100000000E-03 0.  1.
         11    1    1    2    0    0  0.54277503394E+01 -0.87388535029E+01 -0.13524044509E+02  0.16991992656E+02  0.51100000000E-03 0. -1.
<mgrwt>
<rscale>  0 0.21832849E+02</rscale>
<asrwt>0</asrwt>
<pdfrwt beam="1">  1        3 0.80179721E-03 0.21832849E+02</pdfrwt>
<pdfrwt beam="2">  1       -3 0.35177874E-02 0.21832849E+02</pdfrwt>
<totfact> 0.14359681E+06</totfact>
</mgrwt>
</event>
<event>
 4    1  0.1754914E-001  0.4334047E+02  0.7818608E-02  0.1484976E+00
         -3   -1    0    0    0  501 -0.00000000000E+00  0.00000000000E+00  0.29572558785E+01  0.29587178525E+01  0.93000000000E-01 0.  1.
          3   -1    0    0  501    0  0.00000000000E+00 -0.00000000000E+00 -0.15875480779E+03  0.15875483503E+03  0.93000000000E-01 0. -1.
        -11    1    1    2    0    0 -0.67581664041E+01 -0.20570274312E+02 -0.74582374908E+02  0.77661699991E+02  0.51100000000E-03 0. -1.
         11    1    1    2    0    0  0.67581664041E+01  0.20570274312E+02 -0.81215177007E+02  0.84051852894E+02  0.51100000000E-03 0.  1.
<mgrwt>
<rscale>  0 0.43340466E+02</rscale>
<asrwt>0</asrwt>
<pdfrwt beam="2">  1        3 0.24423925E-01 0.43340466E+02</pdfrwt>
<pdfrwt beam="1">  1       -3 0.45507712E-03 0.43340466E+02</pdfrwt>
<totfact> 0.20812299E+05</totfact>
</mgrwt>
</event>
<event>
 4    1  0.1754914E-001  0.2187566E+02  0.7818608E-02  0.1710411E+00
         -3   -1    0    0    0  501 -0.00000000000E+00  0.00000000000E+00  0.50655641730E+01  0.50664178066E+01  0.93000000000E-01 0.  1.
          3   -1    0    0  501    0  0.00000000000E+00 -0.00000000000E+00 -0.23614607112E+02  0.23614790240E+02  0.93000000000E-01 0. -1.
        -11    1    1    2    0    0 -0.95800911430E+01 -0.46693529955E+01 -0.60482611953E+01  0.12254079625E+02  0.51100000000E-03 0.  1.
         11    1    1    2    0    0  0.95800911430E+01  0.46693529955E+01 -0.12500781744E+02  0.16427128422E+02  0.51100000000E-03 0. -1.
<mgrwt>
<rscale>  0 0.21875665E+02</rscale>
<asrwt>0</asrwt>
<pdfrwt beam="2">  1        3 0.36330962E-02 0.21875665E+02</pdfrwt>
<pdfrwt beam="1">  1       -3 0.77939733E-03 0.21875665E+02</pdfrwt>
<totfact> 0.14267665E+06</totfact>
</mgrwt>
</event>
<event>
 4    1  0.1754914E-001  0.2679589E+02  0.7818608E-02  0.1636471E+00
         -3   -1    0    0    0  501 -0.00000000000E+00  0.00000000000E+00  0.56509306336E+01  0.56516958539E+01  0.93000000000E-01 0. -1.
          3   -1    0    0  501    0  0.00000000000E+00 -0.00000000000E+00 -0.31762577523E+02  0.31762713673E+02  0.93000000000E-01 0.  1.
        -11    1    1    2    0    0 -0.10814051938E+02  0.25817521513E+00 -0.24093862485E+02  0.26410690704E+02  0.51100000000E-03 0.  1.
         11    1    1    2    0    0  0.10814051938E+02 -0.25817521513E+00 -0.20177844041E+01  0.11003718823E+02  0.51100000000E-03 0. -1.
<mgrwt>
<rscale>  0 0.26795894E+02</rscale>
<asrwt>0</asrwt>
<pdfrwt beam="2">  1        3 0.48866196E-02 0.26795894E+02</pdfrwt>
<pdfrwt beam="1">  1       -3 0.86944330E-03 0.26795894E+02</pdfrwt>
<totfact> 0.88025747E+05</totfact>
</mgrwt>
</event>
<event>
 4    1  0.1754914E-001  0.2151702E+02  0.7818608E-02  0.1716741E+00
         -3   -1    0    0    0  501 -0.00000000000E+00  0.00000000000E+00  0.17925967954E+01  0.17950075963E+01  0.93000000000E-01 0. -1.
          3   -1    0    0  501    0  0.00000000000E+00 -0.00000000000E+00 -0.64522798985E+02  0.64522866008E+02  0.93000000000E-01 0.  1.
        -11    1    1    2    0    0 -0.81322057589E+01 -0.67885240677E+01 -0.37154793039E+02  0.38635417372E+02  0.51100000000E-03 0. -1.
         11    1    1    2    0    0  0.81322057589E+01  0.67885240677E+01 -0.25575409151E+02  0.27682456232E+02  0.51100000000E-03 0.  1.
<mgrwt>
<rscale>  0 0.21517019E+02</rscale>
<asrwt>0</asrwt>
<pdfrwt beam="2">  1        3 0.99267733E-02 0.21517019E+02</pdfrwt>
<pdfrwt beam="1">  1       -3 0.27597477E-03 0.21517019E+02</pdfrwt>
<totfact> 0.13200817E+06</totfact>
</mgrwt>
</event>
<event>
 4    1  0.1754914E-001  0.5269307E+02  0.7818608E-02  0.1431334E+00
         -3   -1    0    0    0  501 -0.00000000000E+00  0.00000000000E+00  0.63484728669E+01  0.63491540178E+01  0.93000000000E-01 0.  1.
          3   -1    0    0  501    0  0.00000000000E+00 -0.00000000000E+00 -0.10933311895E+03  0.10933315851E+03  0.93000000000E-01 0. -1.
        -11    1    1    2    0    0 -0.55274138778E+01  0.25483749350E+02 -0.59755379497E+02  0.65197232796E+02  0.51100000000E-03 0. -1.
         11    1    1    2    0    0  0.55274138778E+01 -0.25483749350E+02 -0.43229266589E+02  0.50485079728E+02  0.51100000000E-03 0.  1.
<mgrwt>
<rscale>  0 0.52693075E+02</rscale>
<asrwt>0</asrwt>
<pdfrwt beam="2">  1        3 0.16820534E-01 0.52693075E+02</pdfrwt>
<pdfrwt beam="1">  1       -3 0.97674365E-03 0.52693075E+02</pdfrwt>
<totfact> 0.14121024E+05</totfact>
</mgrwt>
</event>
<event>
 4    1  0.1754914E-001  0.2809750E+02  0.7818608E-02  0.1620123E+00
          3   -1    0    0  501    0  0.00000000000E+00  0.00000000000E+00  0.42805592231E+01  0.42815693691E+01  0.93000000000E-01 0.  1.
         -3   -1    0    0    0  501 -0.00000000000E+00 -0.00000000000E+00 -0.46101356076E+02  0.46101449880E+02  0.93000000000E-01 0. -1.
        -11    1    1    2    0    0 -0.88143109885E+01  0.67949508836E+01 -0.36283866654E+02  0.37952370352E+02  0.51100000000E-03 0. -1.
         11    1    1    2    0    0  0.88143109885E+01 -0.67949508836E+01 -0.55369301988E+01  0.12430648897E+02  0.51100000000E-03 0.  1.
<mgrwt>
<rscale>  0 0.28097501E+02</rscale>
<asrwt>0</asrwt>
<pdfrwt beam="1">  1        3 0.65863252E-03 0.28097501E+02</pdfrwt>
<pdfrwt beam="2">  1       -3 0.70926009E-02 0.28097501E+02</pdfrwt>
<totfact> 0.75955172E+05</totfact>
</mgrwt>
</event>
<event>
 4    1  0.1754914E-001  0.2243554E+02  0.7818608E-02  0.1700827E+00
         -3   -1    0    0    0  501 -0.00000000000E+00  0.00000000000E+00  0.34934716072E+02  0.34934839860E+02  0.93000000000E-01 0.  1.
          3   -1    0    0  501    0  0.00000000000E+00 -0.00000000000E+00 -0.36013691917E+01  0.36025697849E+01  0.93000000000E-01 0. -1.
        -11    1    1    2    0    0 -0.11061517337E+02  0.16070301784E+01  0.17294969297E+02  0.20592612147E+02  0.51100000000E-03 0.  1.
         11    1    1    2    0    0  0.11061517337E+02 -0.16070301784E+01  0.14038377583E+02  0.17944797497E+02  0.51100000000E-03 0. -1.
<mgrwt>
<rscale>  0 0.22435537E+02</rscale>
<asrwt>0</asrwt>
<pdfrwt beam="2">  1        3 0.55415868E-03 0.22435537E+02</pdfrwt>
<pdfrwt beam="1">  1       -3 0.53746735E-02 0.22435537E+02</pdfrwt>
<totfact> 0.13069724E+06</totfact>
</mgrwt>
</event>
<event>
 4    1  0.1754914E-001  0.3718676E+02  0.7818608E-02  0.1529997E+00
          3   -1    0    0  501    0  0.00000000000E+00  0.00000000000E+00  0.11751621829E+03  0.11751625509E+03  0.93000000000E-01 0.  1.
         -3   -1    0    0    0  501 -0.00000000000E+00 -0.00000000000E+00 -0.29410670650E+01  0.29425370823E+01  0.93000000000E-01 0. -1.
        -11    1    1    2    0    0 -0.12420619590E+01 -0.16198510985E+02  0.86581123574E+02  0.88092141736E+02  0.51100000000E-03 0. -1.
         11    1    1    2    0    0  0.12420619590E+01  0.16198510985E+02  0.27994027651E+02  0.32366650435E+02  0.51100000000E-03 0.  1.
<mgrwt>
<rscale>  0 0.37186763E+02</rscale>
<asrwt>0</asrwt>
<pdfrwt beam="1">  1        3 0.18079532E-01 0.37186763E+02</pdfrwt>
<pdfrwt beam="2">  1       -3 0.45258782E-03 0.37186763E+02</pdfrwt>
<totfact> 0.32940816E+05</totfact>
</mgrwt>
</event>
<event>
 4    1  0.1754914E-001  0.2644642E+02  0.7818608E-02  0.1641055E+00
          3   -1    0    0  501    0  0.00000000000E+00  0.00000000000E+00  0.50668021768E+02  0.50668107117E+02  0.93000000000E-01 0. -1.
         -3   -1    0    0    0  501 -0.00000000000E+00 -0.00000000000E+00 -0.34502454471E+01  0.34514986086E+01  0.93000000000E-01 0.  1.
        -11    1    1    2    0    0 -0.12187901263E+02  0.50874872031E+01  0.24944329525E+02  0.28224936474E+02  0.51100000000E-03 0. -1.
         11    1    1    2    0    0  0.12187901263E+02 -0.50874872031E+01  0.22273446796E+02  0.25894669252E+02  0.51100000000E-03 0.  1.
<mgrwt>
<rscale>  0 0.26446424E+02</rscale>
<asrwt>0</asrwt>
<pdfrwt beam="1">  1        3 0.77951825E-02 0.26446424E+02</pdfrwt>
<pdfrwt beam="2">  1       -3 0.53091000E-03 0.26446424E+02</pdfrwt>
<totfact> 0.86281931E+05</totfact>
</mgrwt>
</event>
<event>
 4    1  0.1754914E-001  0.3310214E+02  0.7818608E-02  0.1566130E+00
         -3   -1    0    0    0  501 -0.00000000000E+00  0.00000000000E+00  0.35000477635E+01  0.35012831001E+01  0.93000000000E-01 0.  1.
          3   -1    0    0  501    0  0.00000000000E+00 -0.00000000000E+00 -0.78251837542E+02  0.78251892806E+02  0.93000000000E-01 0. -1.
        -11    1    1    2    0    0 -0.85474640801E+01 -0.11208978648E+02 -0.15953601458E+02  0.21288911298E+02  0.51100000000E-03 0.  1.
         11    1    1    2    0    0  0.85474640801E+01  0.11208978648E+02 -0.58798188320E+02  0.60464264607E+02  0.51100000000E-03 0. -1.
<mgrwt>
<rscale>  0 0.33102140E+02</rscale>
<asrwt>0</asrwt>
<pdfrwt beam="2">  1        3 0.12038842E-01 0.33102140E+02</pdfrwt>
<pdfrwt beam="1">  1       -3 0.53856822E-03 0.33102140E+02</pdfrwt>
<totfact> 0.47630362E+05</totfact>
</mgrwt>
</event>
<event>
 4    1  0.1754914E-001  0.5044209E+02  0.7818608E-02  0.1442972E+00
         -3   -1    0    0    0  501 -0.00000000000E+00  0.00000000000E+00  0.58200914449E+02  0.58200988752E+02  0.93000000000E-01 0.  1.
          3   -1    0    0  501    0  0.00000000000E+00 -0.00000000000E+00 -0.10929123064E+02  0.10929518743E+02  0.93000000000E-01 0. -1.
        -11    1    1    2    0    0  0.11039937379E+02  0.76652947891E+01 -0.56126167924E+01  0.14564972676E+02  0.51100000000E-03 0. -1.
         11    1    1    2    0    0 -0.11039937379E+02 -0.76652947891E+01  0.52884408177E+02  0.54565534819E+02  0.51100000000E-03 0.  1.
<mgrwt>
<rscale>  0 0.50442094E+02</rscale>
<asrwt>0</asrwt>
<pdfrwt beam="2">  1        3 0.16814397E-02 0.50442094E+02</pdfrwt>
<pdfrwt beam="1">  1       -3 0.89540229E-02 0.50442094E+02</pdfrwt>
<totfact> 0.17593186E+05</totfact>
</mgrwt>
</event>
<event>
 4    1  0.1754914E-001  0.3244889E+02  0.7818608E-02  0.1572497E+00
          3   -1    0    0  501    0  0.00000000000E+00  0.00000000000E+00  0.41939778564E+01  0.41950088510E+01  0.93000000000E-01 0. -1.
         -3   -1    0    0    0  501 -0.00000000000E+00 -0.00000000000E+00 -0.62755666374E+02  0.62755735284E+02  0.93000000000E-01 0.  1.
        -11    1    1    2    0    0  0.78335657963E+01 -0.81335622959E+01 -0.52446119700E+01  0.12450925415E+02  0.51100000000E-03 0. -1.
         11    1    1    2    0    0 -0.78335657963E+01  0.81335622959E+01 -0.53317076547E+02  0.54499818720E+02  0.51100000000E-03 0.  1.
<mgrwt>
<rscale>  0 0.32448895E+02</rscale>
<asrwt>0</asrwt>
<pdfrwt beam="1">  1        3 0.64531202E-03 0.32448895E+02</pdfrwt>
<pdfrwt beam="2">  1       -3 0.96548018E-02 0.32448895E+02</pdfrwt>
<totfact> 0.51884986E+05</totfact>
</mgrwt>
</event>
<event>
 4    1  0.1754914E-001  0.3722807E+02  0.7818608E-02  0.1529660E+00
         -3   -1    0    0    0  501 -0.00000000000E+00  0.00000000000E+00  0.10050431990E+03  0.10050436293E+03  0.93000000000E-01 0.  1.
          3   -1    0    0  501    0  0.00000000000E+00 -0.00000000000E+00 -0.34467652231E+01  0.34480196495E+01  0.93000000000E-01 0. -1.
        -11    1    1    2    0    0 -0.48872320869E+01  0.12900097311E+02  0.13632171490E+02  0.19394165305E+02  0.51100000000E-03 0. -1.
         11    1    1    2    0    0  0.48872320869E+01 -0.12900097311E+02  0.83425383192E+02  0.84558217277E+02  0.51100000000E-03 0.  1.
<mgrwt>
<rscale>  0 0.37228066E+02</rscale>
<asrwt>0</asrwt>
<pdfrwt beam="2">  1        3 0.53037142E-03 0.37228066E+02</pdfrwt>
<pdfrwt beam="1">  1       -3 0.15462302E-01 0.37228066E+02</pdfrwt>
<totfact> 0.34128506E+05</totfact>
</mgrwt>
</event>
<event>
 4    1  0.1754914E-001  0.1226819E+03  0.7818608E-02  0.1238737E+00
         -3   -1    0    0    0  501 -0.00000000000E+00  0.00000000000E+00  0.16860360477E+03  0.16860363042E+03  0.93000000000E-01 0. -1.
          3   -1    0    0  501    0  0.00000000000E+00 -0.00000000000E+00 -0.22316783334E+02  0.22316977112E+02  0.93000000000E-01 0.  1.
        -11    1    1    2    0    0 -0.87376233774E+00  0.61334417015E+02  0.72844501190E+02  0.95231273881E+02  0.51100000000E-03 0. -1.
         11    1    1    2    0    0  0.87376233774E+00 -0.61334417015E+02  0.73442320249E+02  0.95689333653E+02  0.51100000000E-03 0.  1.
<mgrwt>
<rscale>  0 0.12268188E+03</rscale>
<asrwt>0</asrwt>
<pdfrwt beam="2">  1        3 0.34333683E-02 0.12268188E+03</pdfrwt>
<pdfrwt beam="1">  1       -3 0.25939032E-01 0.12268188E+03</pdfrwt>
<totfact> 0.12808982E+04</totfact>
</mgrwt>
</event>
<event>
 4    1  0.1754914E-001  0.1286986E+03  0.7818608E-02  0.1229400E+00
          3   -1    0    0  501    0  0.00000000000E+00  0.00000000000E+00  0.13903173820E+02  0.13903484861E+02  0.93000000000E-01 0. -1.
         -3   -1    0    0    0  501 -0.00000000000E+00 -0.00000000000E+00 -0.29782972750E+03  0.29782974202E+03  0.93000000000E-01 0.  1.
        -11    1    1    2    0    0 -0.25092358559E+02  0.53600420409E+02 -0.20315420678E+03  0.21159929881E+03  0.51100000000E-03 0.  1.
         11    1    1    2    0    0  0.25092358559E+02 -0.53600420409E+02 -0.80772346903E+02  0.10013392807E+03  0.51100000000E-03 0. -1.
<mgrwt>
<rscale>  0 0.12869855E+03</rscale>
<asrwt>0</asrwt>
<pdfrwt beam="1">  1        3 0.21389751E-02 0.12869855E+03</pdfrwt>
<pdfrwt beam="2">  1       -3 0.45819978E-01 0.12869855E+03</pdfrwt>
<totfact> 0.91719792E+03</totfact>
</mgrwt>
</event>
<event>
 4    1  0.1754914E-001  0.3978927E+02  0.7818608E-02  0.1509768E+00
          3   -1    0    0  501    0  0.00000000000E+00  0.00000000000E+00  0.13994075905E+02  0.13994384926E+02  0.93000000000E-01 0.  1.
         -3   -1    0    0    0  501 -0.00000000000E+00 -0.00000000000E+00 -0.28282452451E+02  0.28282605354E+02  0.93000000000E-01 0. -1.
        -11    1    1    2    0    0  0.12970452406E+02  0.11862480406E+01 -0.23122939022E+02  0.26538841899E+02  0.51100000000E-03 0. -1.
         11    1    1    2    0    0 -0.12970452406E+02 -0.11862480406E+01  0.88345624770E+01  0.15738148381E+02  0.51100000000E-03 0.  1.
<mgrwt>
<rscale>  0 0.39789272E+02</rscale>
<asrwt>0</asrwt>
<pdfrwt beam="1">  1        3 0.21529703E-02 0.39789272E+02</pdfrwt>
<pdfrwt beam="2">  1       -3 0.43511821E-02 0.39789272E+02</pdfrwt>
<totfact> 0.34068727E+05</totfact>
</mgrwt>
</event>
<event>
 4    1  0.1754914E-001  0.2524263E+02  0.7818608E-02  0.1657541E+00
          3   -1    0    0  501    0  0.00000000000E+00  0.00000000000E+00  0.19608145173E+01  0.19630187394E+01  0.93000000000E-01 0.  1.
         -3   -1    0    0    0  501 -0.00000000000E+00 -0.00000000000E+00 -0.81192630356E+02  0.81192683619E+02  0.93000000000E-01 0. -1.
        -11    1    1    2    0    0 -0.10954785236E+02  0.60808379623E+01 -0.44626686577E+02  0.46352185116E+02  0.51100000000E-03 0.  1.
         11    1    1    2    0    0  0.10954785236E+02 -0.60808379623E+01 -0.34605129262E+02  0.36803517242E+02  0.51100000000E-03 0. -1.
<mgrwt>
<rscale>  0 0.25242627E+02</rscale>
<asrwt>0</asrwt>
<pdfrwt beam="1">  1        3 0.30183749E-03 0.25242627E+02</pdfrwt>
<pdfrwt beam="2">  1       -3 0.12491345E-01 0.25242627E+02</pdfrwt>
<totfact> 0.88641777E+05</totfact>
</mgrwt>
</event>
<event>
 4    1  0.1754914E-001  0.2588078E+02  0.7818608E-02  0.1648664E+00
          3   -1    0    0  501    0  0.00000000000E+00  0.00000000000E+00  0.23078360392E+01  0.23097091124E+01  0.93000000000E-01 0.  1.
         -3   -1    0    0    0  501 -0.00000000000E+00 -0.00000000000E+00 -0.72527389699E+02  0.72527449324E+02  0.93000000000E-01 0. -1.
        -11    1    1    2    0    0 -0.75285897902E+01 -0.82797385881E+01 -0.53898558789E+02  0.55048055144E+02  0.51100000000E-03 0.  1.
         11    1    1    2    0    0  0.75285897902E+01  0.82797385881E+01 -0.16320994870E+02  0.19789103293E+02  0.51100000000E-03 0. -1.
<mgrwt>
<rscale>  0 0.25880776E+02</rscale>
<asrwt>0</asrwt>
<pdfrwt beam="1">  1        3 0.35520042E-03 0.25880776E+02</pdfrwt>
<pdfrwt beam="2">  1       -3 0.11158207E-01 0.25880776E+02</pdfrwt>
<totfact> 0.85616351E+05</totfact>
</mgrwt>
</event>
<event>
 4    1  0.1754914E-001  0.2096881E+02  0.7818608E-02  0.1726721E+00
          3   -1    0    0  501    0  0.00000000000E+00  0.00000000000E+00  0.72356260167E+01  0.72362236598E+01  0.93000000000E-01 0.  1.
         -3   -1    0    0    0  501 -0.00000000000E+00 -0.00000000000E+00 -0.15190507949E+02  0.15190792631E+02  0.93000000000E-01 0. -1.
        -11    1    1    2    0    0  0.24533947352E+01  0.98013530078E+01 -0.98328526173E+00  0.10151478546E+02  0.51100000000E-03 0.  1.
         11    1    1    2    0    0 -0.24533947352E+01 -0.98013530078E+01 -0.69715966707E+01  0.12275537744E+02  0.51100000000E-03 0. -1.
<mgrwt>
<rscale>  0 0.20968808E+02</rscale>
<asrwt>0</asrwt>
<pdfrwt beam="1">  1        3 0.11132411E-02 0.20968808E+02</pdfrwt>
<pdfrwt beam="2">  1       -3 0.23370691E-02 0.20968808E+02</pdfrwt>
<totfact> 0.15998839E+06</totfact>
</mgrwt>
</event>
<event>
 4    1  0.1754914E-001  0.4122065E+02  0.7818608E-02  0.1499416E+00
         -3   -1    0    0    0  501 -0.00000000000E+00  0.00000000000E+00  0.67075840332E+02  0.67075904804E+02  0.93000000000E-01 0. -1.
          3   -1    0    0  501    0  0.00000000000E+00 -0.00000000000E+00 -0.63325059565E+01  0.63331888247E+01  0.93000000000E-01 0.  1.
        -11    1    1    2    0    0  0.10497824996E+01 -0.20139412289E+02  0.22797660758E+02  0.30437334098E+02  0.51100000000E-03 0.  1.
         11    1    1    2    0    0 -0.10497824996E+01  0.20139412289E+02  0.37945673617E+02  0.42971759531E+02  0.51100000000E-03 0. -1.
<mgrwt>
<rscale>  0 0.41220654E+02</rscale>
<asrwt>0</asrwt>
<pdfrwt beam="2">  1        3 0.97428915E-03 0.41220654E+02</pdfrwt>
<pdfrwt beam="1">  1       -3 0.10319418E-01 0.41220654E+02</pdfrwt>
<totfact> 0.28732694E+05</totfact>
</mgrwt>
</event>
<event>
 4    1  0.1754914E-001  0.2893709E+02  0.7818608E-02  0.1610144E+00
         -3   -1    0    0    0  501 -0.00000000000E+00  0.00000000000E+00  0.62857727298E+01  0.62864606744E+01  0.93000000000E-01 0.  1.
          3   -1    0    0  501    0  0.00000000000E+00 -0.00000000000E+00 -0.33301017110E+02  0.33301146970E+02  0.93000000000E-01 0. -1.
        -11    1    1    2    0    0 -0.90894552753E+01  0.11182686826E+02 -0.15274552351E+02  0.20999586464E+02  0.51100000000E-03 0. -1.
         11    1    1    2    0    0  0.90894552753E+01 -0.11182686826E+02 -0.11740692029E+02  0.18588021181E+02  0.51100000000E-03 0.  1.
<mgrwt>
<rscale>  0 0.28937091E+02</rscale>
<asrwt>0</asrwt>
<pdfrwt beam="2">  1        3 0.51232962E-02 0.28937091E+02</pdfrwt>
<pdfrwt beam="1">  1       -3 0.96710489E-03 0.28937091E+02</pdfrwt>
<totfact> 0.73281747E+05</totfact>
</mgrwt>
</event>
<event>
 4    1  0.1754914E-001  0.4579565E+02  0.7818608E-02  0.1469435E+00
          3   -1    0    0  501    0  0.00000000000E+00  0.00000000000E+00  0.19796616240E+02  0.19796834685E+02  0.93000000000E-01 0. -1.
         -3   -1    0    0    0  501 -0.00000000000E+00 -0.00000000000E+00 -0.26484400391E+02  0.26484563675E+02  0.93000000000E-01 0.  1.
        -11    1    1    2    0    0  0.13107018347E+02  0.18531577847E+02 -0.63920133027E+01  0.23581160738E+02  0.51100000000E-03 0. -1.
         11    1    1    2    0    0 -0.13107018347E+02 -0.18531577847E+02 -0.29577084777E+00  0.22700237622E+02  0.51100000000E-03 0.  1.
<mgrwt>
<rscale>  0 0.45795648E+02</rscale>
<asrwt>0</asrwt>
<pdfrwt beam="1">  1        3 0.30456626E-02 0.45795648E+02</pdfrwt>
<pdfrwt beam="2">  1       -3 0.40745525E-02 0.45795648E+02</pdfrwt>
<totfact> 0.23806874E+05</totfact>
</mgrwt>
</event>
<event>
 4    1  0.1754914E-001  0.3550532E+02  0.7818608E-02  0.1544158E+00
          3   -1    0    0  501    0  0.00000000000E+00  0.00000000000E+00  0.44388346896E+01  0.44398088248E+01  0.93000000000E-01 0. -1.
         -3   -1    0    0    0  501 -0.00000000000E+00 -0.00000000000E+00 -0.70991123735E+02  0.70991184651E+02  0.93000000000E-01 0.  1.
        -11    1    1    2    0    0  0.16683474873E+02 -0.60630994644E+01 -0.32767192136E+02  0.37266451262E+02  0.51100000000E-03 0. -1.
         11    1    1    2    0    0 -0.16683474873E+02  0.60630994644E+01 -0.33785096910E+02  0.38164542214E+02  0.51100000000E-03 0.  1.
<mgrwt>
<rscale>  0 0.35505318E+02</rscale>
<asrwt>0</asrwt>
<pdfrwt beam="1">  1        3 0.68297732E-03 0.35505318E+02</pdfrwt>
<pdfrwt beam="2">  1       -3 0.10921790E-01 0.35505318E+02</pdfrwt>
<totfact> 0.41003516E+05</totfact>
</mgrwt>
</event>
<event>
 4    1  0.1754914E-001  0.2582241E+02  0.7818608E-02  0.1649463E+00
          3   -1    0    0  501    0  0.00000000000E+00  0.00000000000E+00  0.15997587601E+02  0.15997857921E+02  0.93000000000E-01 0. -1.
         -3   -1    0    0    0  501 -0.00000000000E+00 -0.00000000000E+00 -0.10419707177E+02  0.10420122200E+02  0.93000000000E-01 0.  1.
        -11    1    1    2    0    0  0.10410743388E+02  0.59228839689E+01  0.77203951823E+01  0.14250215242E+02  0.51100000000E-03 0. -1.
         11    1    1    2    0    0 -0.10410743388E+02 -0.59228839689E+01 -0.21425147580E+01  0.12167764879E+02  0.51100000000E-03 0.  1.
<mgrwt>
<rscale>  0 0.25822411E+02</rscale>
<asrwt>0</asrwt>
<pdfrwt beam="1">  1        3 0.24612200E-02 0.25822411E+02</pdfrwt>
<pdfrwt beam="2">  1       -3 0.16030846E-02 0.25822411E+02</pdfrwt>
<totfact> 0.99245635E+05</totfact>
</mgrwt>
</event>
<event>
 4    1  0.1754914E-001  0.3549391E+02  0.7818608E-02  0.1544258E+00
          3   -1    0    0  501    0  0.00000000000E+00  0.00000000000E+00  0.26868737760E+01  0.26884827856E+01  0.93000000000E-01 0. -1.
         -3   -1    0    0    0  501 -0.00000000000E+00 -0.00000000000E+00 -0.11718295039E+03  0.11718298729E+03  0.93000000000E-01 0.  1.
        -11    1    1    2    0    0  0.97896866834E+01  0.13792212122E+02 -0.39095139474E+02  0.42596866214E+02  0.51100000000E-03 0.  1.
         11    1    1    2    0    0 -0.97896866834E+01 -0.13792212122E+02 -0.75400937136E+02  0.77274603861E+02  0.51100000000E-03 0. -1.
<mgrwt>
<rscale>  0 0.35493912E+02</rscale>
<asrwt>0</asrwt>
<pdfrwt beam="1">  1        3 0.41349190E-03 0.35493912E+02</pdfrwt>
<pdfrwt beam="2">  1       -3 0.18028269E-01 0.35493912E+02</pdfrwt>
<totfact> 0.36875585E+05</totfact>
</mgrwt>
</event>
<event>
 4    1  0.1754914E-001  0.5178324E+02  0.7818608E-02  0.1435954E+00
          3   -1    0    0  501    0  0.00000000000E+00  0.00000000000E+00  0.10825828591E+03  0.10825832586E+03  0.93000000000E-01 0. -1.
         -3   -1    0    0    0  501 -0.00000000000E+00 -0.00000000000E+00 -0.61919843267E+01  0.61926826903E+01  0.93000000000E-01 0.  1.
        -11    1    1    2    0    0  0.16397597376E+02 -0.15339376975E+02  0.79526504451E+02  0.82635601263E+02  0.51100000000E-03 0. -1.
         11    1    1    2    0    0 -0.16397597376E+02  0.15339376975E+02  0.22539797137E+02  0.31815407288E+02  0.51100000000E-03 0.  1.
<mgrwt>
<rscale>  0 0.51783235E+02</rscale>
<asrwt>0</asrwt>
<pdfrwt beam="1">  1        3 0.16655175E-01 0.51783235E+02</pdfrwt>
<pdfrwt beam="2">  1       -3 0.95266990E-03 0.51783235E+02</pdfrwt>
<totfact> 0.14796645E+05</totfact>
</mgrwt>
</event>
<event>
 4    1  0.1754914E-001  0.2784772E+02  0.7818608E-02  0.1623175E+00
         -3   -1    0    0    0  501 -0.00000000000E+00  0.00000000000E+00  0.13022369229E+03  0.13022372550E+03  0.93000000000E-01 0.  1.
          3   -1    0    0  501    0  0.00000000000E+00 -0.00000000000E+00 -0.14872903968E+01  0.14901951967E+01  0.93000000000E-01 0. -1.
        -11    1    1    2    0    0 -0.78297117447E+01 -0.11490437112E+02  0.67841947899E+02  0.69252179937E+02  0.51100000000E-03 0. -1.
         11    1    1    2    0    0  0.78297117447E+01  0.11490437112E+02  0.60894453999E+02  0.62461740763E+02  0.51100000000E-03 0.  1.
<mgrwt>
<rscale>  0 0.27847724E+02</rscale>
<asrwt>0</asrwt>
<pdfrwt beam="2">  1        3 0.22903991E-03 0.27847724E+02</pdfrwt>
<pdfrwt beam="1">  1       -3 0.20034640E-01 0.27847724E+02</pdfrwt>
<totfact> 0.63211095E+05</totfact>
</mgrwt>
</event>
<event>
 4    1  0.1754914E-001  0.5087665E+02  0.7818608E-02  0.1440670E+00
         -3   -1    0    0    0  501 -0.00000000000E+00  0.00000000000E+00  0.33252900073E+02  0.33253030122E+02  0.93000000000E-01 0.  1.
          3   -1    0    0  501    0  0.00000000000E+00 -0.00000000000E+00 -0.19459930154E+02  0.19460152379E+02  0.93000000000E-01 0. -1.
        -11    1    1    2    0    0  0.63520469151E+01  0.19101056532E+02 -0.92184003256E+01  0.22139958570E+02  0.51100000000E-03 0. -1.
         11    1    1    2    0    0 -0.63520469151E+01 -0.19101056532E+02  0.23011370245E+02  0.30573223930E+02  0.51100000000E-03 0.  1.
<mgrwt>
<rscale>  0 0.50876651E+02</rscale>
<asrwt>0</asrwt>
<pdfrwt beam="2">  1        3 0.29938625E-02 0.50876651E+02</pdfrwt>
<pdfrwt beam="1">  1       -3 0.51158579E-02 0.50876651E+02</pdfrwt>
<totfact> 0.17962078E+05</totfact>
</mgrwt>
</event>
<event>
 4    1  0.1754914E-001  0.2836899E+02  0.7818608E-02  0.1616850E+00
         -3   -1    0    0    0  501 -0.00000000000E+00  0.00000000000E+00  0.53486748823E+01  0.53494833392E+01  0.93000000000E-01 0.  1.
          3   -1    0    0  501    0  0.00000000000E+00 -0.00000000000E+00 -0.37613053395E+02  0.37613168368E+02  0.93000000000E-01 0. -1.
        -11    1    1    2    0    0  0.79316015889E+01 -0.11703408204E+02 -0.17871972682E+02  0.22787880006E+02  0.51100000000E-03 0. -1.
         11    1    1    2    0    0 -0.79316015889E+01  0.11703408204E+02 -0.14392405830E+02  0.20174771701E+02  0.51100000000E-03 0.  1.
<mgrwt>
<rscale>  0 0.28368985E+02</rscale>
<asrwt>0</asrwt>
<pdfrwt beam="2">  1        3 0.57866945E-02 0.28368985E+02</pdfrwt>
<pdfrwt beam="1">  1       -3 0.82294412E-03 0.28368985E+02</pdfrwt>
<totfact> 0.75930806E+05</totfact>
</mgrwt>
</event>
<event>
 4    1  0.1754914E-001  0.4592898E+02  0.7818608E-02  0.1468624E+00
         -3   -1    0    0    0  501 -0.00000000000E+00  0.00000000000E+00  0.13163682154E+02  0.13164010668E+02  0.93000000000E-01 0.  1.
          3   -1    0    0  501    0  0.00000000000E+00 -0.00000000000E+00 -0.40061445736E+02  0.40061553683E+02  0.93000000000E-01 0. -1.
        -11    1    1    2    0    0 -0.19770158455E+02  0.75672040646E+01 -0.23765139869E+02  0.31826146735E+02  0.51100000000E-03 0. -1.
         11    1    1    2    0    0  0.19770158455E+02 -0.75672040646E+01 -0.31326237125E+01  0.21399417616E+02  0.51100000000E-03 0.  1.
<mgrwt>
<rscale>  0 0.45928978E+02</rscale>
<asrwt>0</asrwt>
<pdfrwt beam="2">  1        3 0.61633329E-02 0.45928978E+02</pdfrwt>
<pdfrwt beam="1">  1       -3 0.20252155E-02 0.45928978E+02</pdfrwt>
<totfact> 0.23190373E+05</totfact>
</mgrwt>
</event>
<event>
 4    1  0.1754914E-001  0.2565142E+02  0.7818608E-02  0.1651818E+00
          3   -1    0    0  501    0  0.00000000000E+00  0.00000000000E+00  0.62885221726E+01  0.62892098164E+01  0.93000000000E-01 0. -1.
         -3   -1    0    0    0  501 -0.00000000000E+00 -0.00000000000E+00 -0.26156383338E+02  0.26156548670E+02  0.93000000000E-01 0.  1.
        -11    1    1    2    0    0  0.58787833566E+01 -0.10889494733E+02 -0.14196688404E+02  0.18833139706E+02  0.51100000000E-03 0.  1.
         11    1    1    2    0    0 -0.58787833566E+01  0.10889494733E+02 -0.56711727616E+01  0.13612618780E+02  0.51100000000E-03 0. -1.
<mgrwt>
<rscale>  0 0.25651420E+02</rscale>
<asrwt>0</asrwt>
<pdfrwt beam="1">  1        3 0.96753057E-03 0.25651420E+02</pdfrwt>
<pdfrwt beam="2">  1       -3 0.40241245E-02 0.25651420E+02</pdfrwt>
<totfact> 0.98776229E+05</totfact>
</mgrwt>
</event>
<event>
 4    1  0.1754914E-001  0.2246699E+02  0.7818608E-02  0.1700299E+00
         -3   -1    0    0    0  501 -0.00000000000E+00  0.00000000000E+00  0.21829794225E+02  0.21829992325E+02  0.93000000000E-01 0. -1.
          3   -1    0    0  501    0  0.00000000000E+00 -0.00000000000E+00 -0.57800974002E+01  0.57808455225E+01  0.93000000000E-01 0.  1.
        -11    1    1    2    0    0  0.16751263592E+01 -0.99091736481E+01  0.18563412550E+01  0.10219773668E+02  0.51100000000E-03 0.  1.
         11    1    1    2    0    0 -0.16751263592E+01  0.99091736481E+01  0.14193355570E+02  0.17391064180E+02  0.51100000000E-03 0. -1.
<mgrwt>
<rscale>  0 0.22466989E+02</rscale>
<asrwt>0</asrwt>
<pdfrwt beam="2">  1        3 0.88931855E-03 0.22466989E+02</pdfrwt>
<pdfrwt beam="1">  1       -3 0.33585026E-02 0.22466989E+02</pdfrwt>
<totfact> 0.13503206E+06</totfact>
</mgrwt>
</event>
<event>
 4    1  0.1754914E-001  0.6646158E+02  0.7818608E-02  0.1372556E+00
         -3   -1    0    0    0  501 -0.00000000000E+00  0.00000000000E+00  0.78956077674E+01  0.78961554580E+01  0.93000000000E-01 0.  1.
          3   -1    0    0  501    0  0.00000000000E+00 -0.00000000000E+00 -0.13985532560E+03  0.13985535652E+03  0.93000000000E-01 0. -1.
        -11    1    1    2    0    0  0.10659858544E+02  0.22383306440E+02 -0.11517247662E+03  0.11781062924E+03  0.51100000000E-03 0. -1.
         11    1    1    2    0    0 -0.10659858544E+02 -0.22383306440E+02 -0.16787241215E+02  0.29940882739E+02  0.51100000000E-03 0.  1.
<mgrwt>
<rscale>  0 0.66461584E+02</rscale>
<asrwt>0</asrwt>
<pdfrwt beam="2">  1        3 0.21516247E-01 0.66461584E+02</pdfrwt>
<pdfrwt beam="1">  1       -3 0.12147535E-02 0.66461584E+02</pdfrwt>
<totfact> 0.72769991E+04</totfact>
</mgrwt>
</event>
<event>
 4    1  0.1754914E-001  0.2281736E+02  0.7818608E-02  0.1694488E+00
         -3   -1    0    0    0  501 -0.00000000000E+00  0.00000000000E+00  0.58911786894E+01  0.58919127073E+01  0.93000000000E-01 0. -1.
          3   -1    0    0  501    0  0.00000000000E+00 -0.00000000000E+00 -0.22091506344E+02  0.22091702097E+02  0.93000000000E-01 0.  1.
        -11    1    1    2    0    0 -0.10104941026E+02  0.23644120112E+01 -0.22882200711E+01  0.10627145838E+02  0.51100000000E-03 0. -1.
         11    1    1    2    0    0  0.10104941026E+02 -0.23644120112E+01 -0.13912107584E+02  0.17356468967E+02  0.51100000000E-03 0.  1.
<mgrwt>
<rscale>  0 0.22817364E+02</rscale>
<asrwt>0</asrwt>
<pdfrwt beam="2">  1        3 0.33987648E-02 0.22817364E+02</pdfrwt>
<pdfrwt beam="1">  1       -3 0.90640672E-03 0.22817364E+02</pdfrwt>
<totfact> 0.13031418E+06</totfact>
</mgrwt>
</event>
<event>
 4    1  0.1754914E-001  0.4032167E+02  0.7818608E-02  0.1505858E+00
         -3   -1    0    0    0  501 -0.00000000000E+00  0.00000000000E+00  0.45465861334E+01  0.45475371872E+01  0.93000000000E-01 0.  1.
          3   -1    0    0  501    0  0.00000000000E+00 -0.00000000000E+00 -0.89388480084E+02  0.89388528463E+02  0.93000000000E-01 0. -1.
        -11    1    1    2    0    0 -0.34251436389E+01  0.17126659514E+02 -0.65880736368E+02  0.68156624767E+02  0.51100000000E-03 0. -1.
         11    1    1    2    0    0  0.34251436389E+01 -0.17126659514E+02 -0.18961157583E+02  0.25779440882E+02  0.51100000000E-03 0.  1.
<mgrwt>
<rscale>  0 0.40321675E+02</rscale>
<asrwt>0</asrwt>
<pdfrwt beam="2">  1        3 0.13752149E-01 0.40321675E+02</pdfrwt>
<pdfrwt beam="1">  1       -3 0.69955174E-03 0.40321675E+02</pdfrwt>
<totfact> 0.28815926E+05</totfact>
</mgrwt>
</event>
<event>
 4    1  0.1754914E-001  0.2661955E+02  0.7818608E-02  0.1638773E+00
          3   -1    0    0  501    0  0.00000000000E+00  0.00000000000E+00  0.20419503508E+02  0.20419715290E+02  0.93000000000E-01 0.  1.
         -3   -1    0    0    0  501 -0.00000000000E+00 -0.00000000000E+00 -0.86750317345E+01  0.86755302198E+01  0.93000000000E-01 0. -1.
        -11    1    1    2    0    0 -0.11526952945E+02 -0.66130954532E+01  0.66802433302E+01  0.14873779845E+02  0.51100000000E-03 0. -1.
         11    1    1    2    0    0  0.11526952945E+02  0.66130954532E+01  0.50642284434E+01  0.14221465665E+02  0.51100000000E-03 0.  1.
<mgrwt>
<rscale>  0 0.26619555E+02</rscale>
<asrwt>0</asrwt>
<pdfrwt beam="1">  1        3 0.31415167E-02 0.26619555E+02</pdfrwt>
<pdfrwt beam="2">  1       -3 0.13346749E-02 0.26619555E+02</pdfrwt>
<totfact> 0.91778635E+05</totfact>
</mgrwt>
</event>
<event>
 4    1  0.1754914E-001  0.4522443E+02  0.7818608E-02  0.1472945E+00
          3   -1    0    0  501    0  0.00000000000E+00  0.00000000000E+00  0.50549850675E+01  0.50558404873E+01  0.93000000000E-01 0.  1.
         -3   -1    0    0    0  501 -0.00000000000E+00 -0.00000000000E+00 -0.10114068020E+03  0.10114072295E+03  0.93000000000E-01 0. -1.
        -11    1    1    2    0    0 -0.87677111877E+01  0.13709301803E+02 -0.11175571818E+02  0.19741102328E+02  0.51100000000E-03 0.  1.
         11    1    1    2    0    0  0.87677111877E+01 -0.13709301803E+02 -0.84910123312E+02  0.86455461114E+02  0.51100000000E-03 0. -1.
<mgrwt>
<rscale>  0 0.45224432E+02</rscale>
<asrwt>0</asrwt>
<pdfrwt beam="1">  1        3 0.77775917E-03 0.45224432E+02</pdfrwt>
<pdfrwt beam="2">  1       -3 0.15560172E-01 0.45224432E+02</pdfrwt>
<totfact> 0.21135507E+05</totfact>
</mgrwt>
</event>
<event>
 4    1  0.1754914E-001  0.8055664E+02  0.7818608E-02  0.1327479E+00
         -3   -1    0    0    0  501 -0.00000000000E+00  0.00000000000E+00  0.16341268337E+02  0.16341532972E+02  0.93000000000E-01 0. -1.
          3   -1    0    0  501    0  0.00000000000E+00 -0.00000000000E+00 -0.99277815933E+02  0.99277859492E+02  0.93000000000E-01 0.  1.
        -11    1    1    2    0    0 -0.14294230994E+02 -0.34259536008E+02 -0.63901574651E+02  0.73901637941E+02  0.51100000000E-03 0.  1.
         11    1    1    2    0    0  0.14294230994E+02  0.34259536008E+02 -0.19034972944E+02  0.41717754523E+02  0.51100000000E-03 0. -1.
<mgrwt>
<rscale>  0 0.80556645E+02</rscale>
<asrwt>0</asrwt>
<pdfrwt beam="2">  1        3 0.15273533E-01 0.80556645E+02</pdfrwt>
<pdfrwt beam="1">  1       -3 0.25140651E-02 0.80556645E+02</pdfrwt>
<totfact> 0.46833716E+04</totfact>
</mgrwt>
</event>
<event>
 4    1  0.1754914E-001  0.4255051E+02  0.7818608E-02  0.1490239E+00
         -3   -1    0    0    0  501 -0.00000000000E+00  0.00000000000E+00  0.27751574030E+02  0.27751729859E+02  0.93000000000E-01 0. -1.
          3   -1    0    0  501    0  0.00000000000E+00 -0.00000000000E+00 -0.16309967417E+02  0.16310232559E+02  0.93000000000E-01 0.  1.
        -11    1    1    2    0    0 -0.72214119663E+01 -0.11021123477E+02  0.23018119151E+02  0.26522589673E+02  0.51100000000E-03 0. -1.
         11    1    1    2    0    0  0.72214119663E+01  0.11021123477E+02 -0.11576512538E+02  0.17539372744E+02  0.51100000000E-03 0.  1.
<mgrwt>
<rscale>  0 0.42550513E+02</rscale>
<asrwt>0</asrwt>
<pdfrwt beam="2">  1        3 0.25092581E-02 0.42550513E+02</pdfrwt>
<pdfrwt beam="1">  1       -3 0.42695053E-02 0.42550513E+02</pdfrwt>
<totfact> 0.28753219E+05</totfact>
</mgrwt>
</event>
<event>
 4    1  0.1754914E-001  0.3213067E+02  0.7818608E-02  0.1575665E+00
         -3   -1    0    0    0  501 -0.00000000000E+00  0.00000000000E+00  0.65254077817E+01  0.65260704652E+01  0.93000000000E-01 0. -1.
          3   -1    0    0  501    0  0.00000000000E+00 -0.00000000000E+00 -0.39549582079E+02  0.39549691423E+02  0.93000000000E-01 0.  1.
        -11    1    1    2    0    0 -0.55657783064E+01  0.93915644127E+01  0.38952936635E+00  0.10923877684E+02  0.51100000000E-03 0. -1.
         11    1    1    2    0    0  0.55657783064E+01 -0.93915644127E+01 -0.33413703664E+02  0.35151884204E+02  0.51100000000E-03 0.  1.
<mgrwt>
<rscale>  0 0.32130667E+02</rscale>
<asrwt>0</asrwt>
<pdfrwt beam="2">  1        3 0.60846103E-02 0.32130667E+02</pdfrwt>
<pdfrwt beam="1">  1       -3 0.10039683E-02 0.32130667E+02</pdfrwt>
<totfact> 0.56277122E+05</totfact>
</mgrwt>
</event>
<event>
 4    1  0.1754914E-001  0.3293102E+02  0.7818608E-02  0.1567781E+00
         -3   -1    0    0    0  501 -0.00000000000E+00  0.00000000000E+00  0.16905311431E+02  0.16905567237E+02  0.93000000000E-01 0. -1.
          3   -1    0    0  501    0  0.00000000000E+00 -0.00000000000E+00 -0.16036633554E+02  0.16036903216E+02  0.93000000000E-01 0.  1.
        -11    1    1    2    0    0 -0.14620975375E+02 -0.18684320724E+01  0.77750780070E+01  0.16664807158E+02  0.51100000000E-03 0. -1.
         11    1    1    2    0    0  0.14620975375E+02  0.18684320724E+01 -0.69064001299E+01  0.16277663295E+02  0.51100000000E-03 0.  1.
<mgrwt>
<rscale>  0 0.32931015E+02</rscale>
<asrwt>0</asrwt>
<pdfrwt beam="2">  1        3 0.24672148E-02 0.32931015E+02</pdfrwt>
<pdfrwt beam="1">  1       -3 0.26008576E-02 0.32931015E+02</pdfrwt>
<totfact> 0.55241494E+05</totfact>
</mgrwt>
</event>
<event>
 4    1  0.1754914E-001  0.2533644E+02  0.7818608E-02  0.1656216E+00
         -3   -1    0    0    0  501 -0.00000000000E+00  0.00000000000E+00  0.12033902904E+03  0.12033906497E+03  0.93000000000E-01 0.  1.
          3   -1    0    0  501    0  0.00000000000E+00 -0.00000000000E+00 -0.13319392246E+01  0.13351820468E+01  0.93000000000E-01 0. -1.
        -11    1    1    2    0    0 -0.12160431204E+02 -0.28203258812E+01  0.69863051052E+02  0.70969544367E+02  0.51100000000E-03 0. -1.
         11    1    1    2    0    0  0.12160431204E+02  0.28203258812E+01  0.49144038759E+02  0.50704702651E+02  0.51100000000E-03 0.  1.
<mgrwt>
<rscale>  0 0.25336435E+02</rscale>
<asrwt>0</asrwt>
<pdfrwt beam="2">  1        3 0.20516595E-03 0.25336435E+02</pdfrwt>
<pdfrwt beam="1">  1       -3 0.18513948E-01 0.25336435E+02</pdfrwt>
<totfact> 0.80100286E+05</totfact>
</mgrwt>
</event>
<event>
 4    1  0.1754914E-001  0.2682944E+02  0.7818608E-02  0.1636035E+00
          3   -1    0    0  501    0  0.00000000000E+00  0.00000000000E+00  0.29363669968E+01  0.29378393659E+01  0.93000000000E-01 0. -1.
         -3   -1    0    0    0  501 -0.00000000000E+00 -0.00000000000E+00 -0.61267952761E+02  0.61268023344E+02  0.93000000000E-01 0.  1.
        -11    1    1    2    0    0  0.94972804761E+01  0.58089844297E+01 -0.47076137847E+02  0.48374635827E+02  0.51100000000E-03 0.  1.
         11    1    1    2    0    0 -0.94972804761E+01 -0.58089844297E+01 -0.11255447917E+02  0.15831226883E+02  0.51100000000E-03 0. -1.
<mgrwt>
<rscale>  0 0.26829441E+02</rscale>
<asrwt>0</asrwt>
<pdfrwt beam="1">  1        3 0.45186750E-03 0.26829441E+02</pdfrwt>
<pdfrwt beam="2">  1       -3 0.94259566E-02 0.26829441E+02</pdfrwt>
<totfact> 0.81190161E+05</totfact>
</mgrwt>
</event>
<event>
 4    1  0.1754914E-001  0.4212305E+02  0.7818608E-02  0.1493145E+00
          3   -1    0    0  501    0  0.00000000000E+00  0.00000000000E+00  0.62572105358E+01  0.62579016203E+01  0.93000000000E-01 0.  1.
         -3   -1    0    0    0  501 -0.00000000000E+00 -0.00000000000E+00 -0.70887617372E+02  0.70887678377E+02  0.93000000000E-01 0. -1.
        -11    1    1    2    0    0  0.19912410957E+02 -0.67922497699E+01 -0.34099314413E+02  0.40067468235E+02  0.51100000000E-03 0. -1.
         11    1    1    2    0    0 -0.19912410957E+02  0.67922497699E+01 -0.30531092423E+02  0.37078111762E+02  0.51100000000E-03 0.  1.
<mgrwt>
<rscale>  0 0.42123046E+02</rscale>
<asrwt>0</asrwt>
<pdfrwt beam="1">  1        3 0.96270568E-03 0.42123046E+02</pdfrwt>
<pdfrwt beam="2">  1       -3 0.10905845E-01 0.42123046E+02</pdfrwt>
<totfact> 0.26994630E+05</totfact>
</mgrwt>
</event>
<event>
 4    1  0.1754914E-001  0.2157320E+02  0.7818608E-02  0.1715740E+00
          3   -1    0    0  501    0  0.00000000000E+00  0.00000000000E+00  0.60931411725E+02  0.60931482698E+02  0.93000000000E-01 0.  1.
         -3   -1    0    0    0  501 -0.00000000000E+00 -0.00000000000E+00 -0.19083311956E+01  0.19105959677E+01  0.93000000000E-01 0. -1.
        -11    1    1    2    0    0  0.38726758471E+01 -0.93995097306E+01  0.40015333604E+02  0.41286502941E+02  0.51100000000E-03 0. -1.
         11    1    1    2    0    0 -0.38726758471E+01  0.93995097306E+01  0.19007746925E+02  0.21555575725E+02  0.51100000000E-03 0.  1.
<mgrwt>
<rscale>  0 0.21573197E+02</rscale>
<asrwt>0</asrwt>
<pdfrwt beam="1">  1        3 0.93742429E-02 0.21573197E+02</pdfrwt>
<pdfrwt beam="2">  1       -3 0.29376909E-03 0.21573197E+02</pdfrwt>
<totfact> 0.13252910E+06</totfact>
</mgrwt>
</event>
<event>
 4    1  0.1754914E-001  0.2640408E+02  0.7818608E-02  0.1641617E+00
          3   -1    0    0  501    0  0.00000000000E+00  0.00000000000E+00  0.19119653252E+01  0.19142257977E+01  0.93000000000E-01 0.  1.
         -3   -1    0    0    0  501 -0.00000000000E+00 -0.00000000000E+00 -0.91103359608E+02  0.91103407076E+02  0.93000000000E-01 0. -1.
        -11    1    1    2    0    0 -0.11853760819E+02  0.66635819823E+00 -0.24255044091E+02  0.27004867023E+02  0.51100000000E-03 0.  1.
         11    1    1    2    0    0  0.11853760819E+02 -0.66635819823E+00 -0.64936350192E+02  0.66012765851E+02  0.51100000000E-03 0. -1.
<mgrwt>
<rscale>  0 0.26404076E+02</rscale>
<asrwt>0</asrwt>
<pdfrwt beam="1">  1        3 0.29432612E-03 0.26404076E+02</pdfrwt>
<pdfrwt beam="2">  1       -3 0.14016076E-01 0.26404076E+02</pdfrwt>
<totfact> 0.78112527E+05</totfact>
</mgrwt>
</event>
<event>
 4    1  0.1754914E-001  0.7143872E+02  0.7818608E-02  0.1355268E+00
         -3   -1    0    0    0  501 -0.00000000000E+00  0.00000000000E+00  0.13252104434E+03  0.13252107697E+03  0.93000000000E-01 0.  1.
          3   -1    0    0  501    0  0.00000000000E+00 -0.00000000000E+00 -0.96274397811E+01  0.96278889555E+01  0.93000000000E-01 0. -1.
        -11    1    1    2    0    0  0.29976457459E+02  0.86956384100E+01  0.26886585011E+02  0.41195759284E+02  0.51100000000E-03 0. -1.
         11    1    1    2    0    0 -0.29976457459E+02 -0.86956384100E+01  0.96007019549E+02  0.10095320665E+03  0.51100000000E-03 0.  1.
<mgrwt>
<rscale>  0 0.71438718E+02</rscale>
<asrwt>0</asrwt>
<pdfrwt beam="2">  1        3 0.14811817E-02 0.71438718E+02</pdfrwt>
<pdfrwt beam="1">  1       -3 0.20387890E-01 0.71438718E+02</pdfrwt>
<totfact> 0.60950661E+04</totfact>
</mgrwt>
</event>
<event>
 4    1  0.1754914E-001  0.4222636E+02  0.7818608E-02  0.1492439E+00
         -3   -1    0    0    0  501 -0.00000000000E+00  0.00000000000E+00  0.35643221102E+01  0.35655351780E+01  0.93000000000E-01 0. -1.
          3   -1    0    0  501    0  0.00000000000E+00 -0.00000000000E+00 -0.12504091263E+03  0.12504094721E+03  0.93000000000E-01 0.  1.
        -11    1    1    2    0    0  0.21088009635E+02 -0.54206607890E+00 -0.63407939635E+02  0.66824881557E+02  0.51100000000E-03 0. -1.
         11    1    1    2    0    0 -0.21088009635E+02  0.54206607890E+00 -0.58068650880E+02  0.61781600831E+02  0.51100000000E-03 0.  1.
<mgrwt>
<rscale>  0 0.42226358E+02</rscale>
<asrwt>0</asrwt>
<pdfrwt beam="2">  1        3 0.19237156E-01 0.42226358E+02</pdfrwt>
<pdfrwt beam="1">  1       -3 0.54845332E-03 0.42226358E+02</pdfrwt>
<totfact> 0.23788713E+05</totfact>
</mgrwt>
</event>
<event>
 4    1  0.1754914E-001  0.2410413E+02  0.7818608E-02  0.1674213E+00
          3   -1    0    0  501    0  0.00000000000E+00  0.00000000000E+00  0.37283139975E+01  0.37294737248E+01  0.93000000000E-01 0.  1.
         -3   -1    0    0    0  501 -0.00000000000E+00 -0.00000000000E+00 -0.38951956270E+02  0.38952067291E+02  0.93000000000E-01 0. -1.
        -11    1    1    2    0    0 -0.48633477863E+01  0.10563947611E+02 -0.23212181861E+02  0.25962560117E+02  0.51100000000E-03 0. -1.
         11    1    1    2    0    0  0.48633477863E+01 -0.10563947611E+02 -0.12011460412E+02  0.16718980899E+02  0.51100000000E-03 0.  1.
<mgrwt>
<rscale>  0 0.24104128E+02</rscale>
<asrwt>0</asrwt>
<pdfrwt beam="1">  1        3 0.57368454E-03 0.24104128E+02</pdfrwt>
<pdfrwt beam="2">  1       -3 0.59927061E-02 0.24104128E+02</pdfrwt>
<totfact> 0.11004206E+06</totfact>
</mgrwt>
</event>
<event>
 4    1  0.1754914E-001  0.3750040E+02  0.7818608E-02  0.1527455E+00
         -3   -1    0    0    0  501 -0.00000000000E+00  0.00000000000E+00  0.56442259255E+02  0.56442335873E+02  0.93000000000E-01 0. -1.
          3   -1    0    0  501    0  0.00000000000E+00 -0.00000000000E+00 -0.62284169058E+01  0.62291111848E+01  0.93000000000E-01 0.  1.
        -11    1    1    2    0    0  0.76245891233E+00 -0.18423292594E+02  0.19422062428E+02  0.26780880546E+02  0.51100000000E-03 0. -1.
         11    1    1    2    0    0 -0.76245891233E+00  0.18423292594E+02  0.30791779921E+02  0.35890566512E+02  0.51100000000E-03 0.  1.
<mgrwt>
<rscale>  0 0.37500404E+02</rscale>
<asrwt>0</asrwt>
<pdfrwt beam="2">  1        3 0.95827727E-03 0.37500404E+02</pdfrwt>
<pdfrwt beam="1">  1       -3 0.86834839E-02 0.37500404E+02</pdfrwt>
<totfact> 0.37178412E+05</totfact>
</mgrwt>
</event>
<event>
 4    1  0.1754914E-001  0.2267830E+02  0.7818608E-02  0.1696778E+00
          3   -1    0    0  501    0  0.00000000000E+00  0.00000000000E+00  0.30227037595E+01  0.30241340938E+01  0.93000000000E-01 0.  1.
         -3   -1    0    0    0  501 -0.00000000000E+00 -0.00000000000E+00 -0.42525315407E+02  0.42525417099E+02  0.93000000000E-01 0. -1.
        -11    1    1    2    0    0 -0.59116604194E+01  0.87761964412E+01 -0.27936307822E+02  0.29873176059E+02  0.51100000000E-03 0. -1.
         11    1    1    2    0    0  0.59116604194E+01 -0.87761964412E+01 -0.11566303826E+02  0.15676375134E+02  0.51100000000E-03 0.  1.
<mgrwt>
<rscale>  0 0.22678300E+02</rscale>
<asrwt>0</asrwt>
<pdfrwt beam="1">  1        3 0.46514923E-03 0.22678300E+02</pdfrwt>
<pdfrwt beam="2">  1       -3 0.65424736E-02 0.22678300E+02</pdfrwt>
<totfact> 0.12489605E+06</totfact>
</mgrwt>
</event>
<event>
 4    1  0.1754914E-001  0.2260082E+02  0.7818608E-02  0.1698064E+00
          3   -1    0    0  501    0  0.00000000000E+00  0.00000000000E+00  0.55330822972E+02  0.55330901130E+02  0.93000000000E-01 0. -1.
         -3   -1    0    0    0  501 -0.00000000000E+00 -0.00000000000E+00 -0.23069055867E+01  0.23087794148E+01  0.93000000000E-01 0.  1.
        -11    1    1    2    0    0  0.63621387717E+01 -0.81767337620E+01  0.38020575813E+02  0.39406851818E+02  0.51100000000E-03 0. -1.
         11    1    1    2    0    0 -0.63621387717E+01  0.81767337620E+01  0.15003341572E+02  0.18232828726E+02  0.51100000000E-03 0.  1.
<mgrwt>
<rscale>  0 0.22600818E+02</rscale>
<asrwt>0</asrwt>
<pdfrwt beam="1">  1        3 0.85125850E-02 0.22600818E+02</pdfrwt>
<pdfrwt beam="2">  1       -3 0.35505868E-03 0.22600818E+02</pdfrwt>
<totfact> 0.12143247E+06</totfact>
</mgrwt>
</event>
<event>
 4    1  0.1754914E-001  0.3172234E+02  0.7818608E-02  0.1579795E+00
         -3   -1    0    0    0  501 -0.00000000000E+00  0.00000000000E+00  0.34637644995E+02  0.34637769844E+02  0.93000000000E-01 0.  1.
          3   -1    0    0  501    0  0.00000000000E+00 -0.00000000000E+00 -0.72626654316E+01  0.72632608497E+01  0.93000000000E-01 0. -1.
        -11    1    1    2    0    0  0.23032307519E+01 -0.14510939972E+02  0.21580101853E+02  0.26106953997E+02  0.51100000000E-03 0.  1.
         11    1    1    2    0    0 -0.23032307519E+01  0.14510939972E+02  0.57948777101E+01  0.15794076697E+02  0.51100000000E-03 0. -1.
<mgrwt>
<rscale>  0 0.31722340E+02</rscale>
<asrwt>0</asrwt>
<pdfrwt beam="2">  1        3 0.11173886E-02 0.31722340E+02</pdfrwt>
<pdfrwt beam="1">  1       -3 0.53289238E-02 0.31722340E+02</pdfrwt>
<totfact> 0.58720686E+05</totfact>
</mgrwt>
</event>
<event>
 4    1  0.1754914E-001  0.2506137E+02  0.7818608E-02  0.1660122E+00
         -3   -1    0    0    0  501 -0.00000000000E+00  0.00000000000E+00  0.98101916523E+01  0.98106324595E+01  0.93000000000E-01 0. -1.
          3   -1    0    0  501    0  0.00000000000E+00 -0.00000000000E+00 -0.16004677117E+02  0.16004947317E+02  0.93000000000E-01 0.  1.
        -11    1    1    2    0    0 -0.68096762335E+01 -0.99401757891E+01  0.44714130087E+00  0.12057309846E+02  0.51100000000E-03 0. -1.
         11    1    1    2    0    0  0.68096762335E+01  0.99401757891E+01 -0.66416267659E+01  0.13758269931E+02  0.51100000000E-03 0.  1.
<mgrwt>
<rscale>  0 0.25061375E+02</rscale>
<asrwt>0</asrwt>
<pdfrwt beam="2">  1        3 0.24623127E-02 0.25061375E+02</pdfrwt>
<pdfrwt beam="1">  1       -3 0.15093149E-02 0.25061375E+02</pdfrwt>
<totfact> 0.10643118E+06</totfact>
</mgrwt>
</event>
<event>
 4    1  0.1754914E-001  0.3079789E+02  0.7818608E-02  0.1589433E+00
         -3   -1    0    0    0  501 -0.00000000000E+00  0.00000000000E+00  0.19545276161E+02  0.19545497415E+02  0.93000000000E-01 0.  1.
          3   -1    0    0  501    0  0.00000000000E+00 -0.00000000000E+00 -0.12131748236E+02  0.12132104692E+02  0.93000000000E-01 0. -1.
        -11    1    1    2    0    0  0.12689882860E+02  0.22209443457E+01  0.12383467979E+02  0.17869415218E+02  0.51100000000E-03 0.  1.
         11    1    1    2    0    0 -0.12689882860E+02 -0.22209443457E+01 -0.49699400545E+01  0.13808186890E+02  0.51100000000E-03 0. -1.
<mgrwt>
<rscale>  0 0.30797891E+02</rscale>
<asrwt>0</asrwt>
<pdfrwt beam="2">  1        3 0.18664673E-02 0.30797891E+02</pdfrwt>
<pdfrwt beam="1">  1       -3 0.30070100E-02 0.30797891E+02</pdfrwt>
<totfact> 0.64954864E+05</totfact>
</mgrwt>
</event>
<event>
 4    1  0.1754914E-001  0.6331257E+02  0.7818608E-02  0.1384434E+00
         -3   -1    0    0    0  501 -0.00000000000E+00  0.00000000000E+00  0.56849463999E+01  0.56857070422E+01  0.93000000000E-01 0.  1.
          3   -1    0    0  501    0  0.00000000000E+00 -0.00000000000E+00 -0.17626356842E+03  0.17626359295E+03  0.93000000000E-01 0. -1.
        -11    1    1    2    0    0 -0.24770905477E+02 -0.45977723011E+01 -0.14037262188E+03  0.14261560308E+03  0.51100000000E-03 0. -1.
         11    1    1    2    0    0  0.24770905477E+02  0.45977723011E+01 -0.30206000136E+02  0.39333696912E+02  0.51100000000E-03 0.  1.
<mgrwt>
<rscale>  0 0.63312570E+02</rscale>
<asrwt>0</asrwt>
<pdfrwt beam="2">  1        3 0.27117528E-01 0.63312570E+02</pdfrwt>
<pdfrwt beam="1">  1       -3 0.87466767E-03 0.63312570E+02</pdfrwt>
<totfact> 0.77139553E+04</totfact>
</mgrwt>
</event>
<event>
 4    1  0.1754914E-001  0.7485194E+02  0.7818608E-02  0.1344330E+00
         -3   -1    0    0    0  501 -0.00000000000E+00  0.00000000000E+00  0.60640799578E+01  0.60647930496E+01  0.93000000000E-01 0.  1.
          3   -1    0    0  501    0  0.00000000000E+00 -0.00000000000E+00 -0.23096933215E+03  0.23096935087E+03  0.93000000000E-01 0. -1.
        -11    1    1    2    0    0 -0.43024422265E+01 -0.29866726375E+02 -0.18256288977E+03  0.18503983645E+03  0.51100000000E-03 0. -1.
         11    1    1    2    0    0  0.43024422265E+01  0.29866726375E+02 -0.42342362425E+02  0.51994307471E+02  0.51100000000E-03 0.  1.
<mgrwt>
<rscale>  0 0.74851940E+02</rscale>
<asrwt>0</asrwt>
<pdfrwt beam="2">  1        3 0.35533793E-01 0.74851940E+02</pdfrwt>
<pdfrwt beam="1">  1       -3 0.93299185E-03 0.74851940E+02</pdfrwt>
<totfact> 0.45101042E+04</totfact>
</mgrwt>
</event>
<event>
 4    1  0.1754914E-001  0.5295203E+02  0.7818608E-02  0.1430040E+00
          3   -1    0    0  501    0  0.00000000000E+00  0.00000000000E+00  0.18642814033E+03  0.18642816353E+03  0.93000000000E-01 0. -1.
         -3   -1    0    0    0  501 -0.00000000000E+00 -0.00000000000E+00 -0.37594533221E+01  0.37606034464E+01  0.93000000000E-01 0.  1.
        -11    1    1    2    0    0 -0.83910580712E+00 -0.24984909453E+02  0.12265232522E+03  0.12517404955E+03  0.51100000000E-03 0. -1.
         11    1    1    2    0    0  0.83910580712E+00  0.24984909453E+02  0.60016361788E+02  0.65014717422E+02  0.51100000000E-03 0.  1.
<mgrwt>
<rscale>  0 0.52952034E+02</rscale>
<asrwt>0</asrwt>
<pdfrwt beam="1">  1        3 0.28681346E-01 0.52952034E+02</pdfrwt>
<pdfrwt beam="2">  1       -3 0.57846761E-03 0.52952034E+02</pdfrwt>
<totfact> 0.11966663E+05</totfact>
</mgrwt>
</event>
<event>
 4    1  0.1754914E-001  0.2720700E+02  0.7818608E-02  0.1631186E+00
         -3   -1    0    0    0  501 -0.00000000000E+00  0.00000000000E+00  0.37178337136E+01  0.37189967090E+01  0.93000000000E-01 0. -1.
          3   -1    0    0  501    0  0.00000000000E+00 -0.00000000000E+00 -0.49766015129E+02  0.49766102026E+02  0.93000000000E-01 0.  1.
        -11    1    1    2    0    0  0.70534027696E+01  0.79663588375E+01 -0.63615639693E+01  0.12396889132E+02  0.51100000000E-03 0. -1.
         11    1    1    2    0    0 -0.70534027696E+01 -0.79663588375E+01 -0.39686617446E+02  0.41088209603E+02  0.51100000000E-03 0.  1.
<mgrwt>
<rscale>  0 0.27206999E+02</rscale>
<asrwt>0</asrwt>
<pdfrwt beam="2">  1        3 0.76564057E-02 0.27206999E+02</pdfrwt>
<pdfrwt beam="1">  1       -3 0.57207060E-03 0.27206999E+02</pdfrwt>
<totfact> 0.81030607E+05</totfact>
</mgrwt>
</event>
<event>
 4    1  0.1754914E-001  0.3089845E+02  0.7818608E-02  0.1588365E+00
         -3   -1    0    0    0  501 -0.00000000000E+00  0.00000000000E+00  0.18746568159E+02  0.18746798840E+02  0.93000000000E-01 0. -1.
          3   -1    0    0  501    0  0.00000000000E+00 -0.00000000000E+00 -0.12731375248E+02  0.12731714916E+02  0.93000000000E-01 0.  1.
        -11    1    1    2    0    0  0.37852120905E+01  0.14009038431E+02  0.84078230485E+01  0.16771179953E+02  0.51100000000E-03 0. -1.
         11    1    1    2    0    0 -0.37852120905E+01 -0.14009038431E+02 -0.23926301370E+01  0.14707333802E+02  0.51100000000E-03 0.  1.
<mgrwt>
<rscale>  0 0.30898451E+02</rscale>
<asrwt>0</asrwt>
<pdfrwt beam="2">  1        3 0.19587170E-02 0.30898451E+02</pdfrwt>
<pdfrwt beam="1">  1       -3 0.28841313E-02 0.30898451E+02</pdfrwt>
<totfact> 0.64500497E+05</totfact>
</mgrwt>
</event>
<event>
 4    1  0.1754914E-001  0.8412703E+02  0.7818608E-02  0.1317731E+00
          3   -1    0    0  501    0  0.00000000000E+00  0.00000000000E+00  0.16896036892E+02  0.16896292837E+02  0.93000000000E-01 0. -1.
         -3   -1    0    0    0  501 -0.00000000000E+00 -0.00000000000E+00 -0.10471812227E+03  0.10471816356E+03  0.93000000000E-01 0.  1.
        -11    1    1    2    0    0 -0.10536083929E+02 -0.18732655223E+02  0.83594813165E+01  0.23060840496E+02  0.51100000000E-03 0. -1.
         11    1    1    2    0    0  0.10536083929E+02  0.18732655223E+02 -0.96181566693E+02  0.98553615906E+02  0.51100000000E-03 0.  1.
<mgrwt>
<rscale>  0 0.84127031E+02</rscale>
<asrwt>0</asrwt>
<pdfrwt beam="1">  1        3 0.25994132E-02 0.84127031E+02</pdfrwt>
<pdfrwt beam="2">  1       -3 0.16110503E-01 0.84127031E+02</pdfrwt>
<totfact> 0.41176068E+04</totfact>
</mgrwt>
</event>
<event>
 4    1  0.1754914E-001  0.2378074E+02  0.7818608E-02  0.1679158E+00
         -3   -1    0    0    0  501 -0.00000000000E+00  0.00000000000E+00  0.16352930377E+02  0.16353194823E+02  0.93000000000E-01 0. -1.
          3   -1    0    0  501    0  0.00000000000E+00 -0.00000000000E+00 -0.86450153129E+01  0.86455155288E+01  0.93000000000E-01 0.  1.
        -11    1    1    2    0    0 -0.56030724217E+01 -0.10313175444E+02  0.18525329745E+01  0.11882250922E+02  0.51100000000E-03 0.  1.
         11    1    1    2    0    0  0.56030724217E+01  0.10313175444E+02  0.58553820895E+01  0.13116459430E+02  0.51100000000E-03 0. -1.
<mgrwt>
<rscale>  0 0.23780739E+02</rscale>
<asrwt>0</asrwt>
<pdfrwt beam="2">  1        3 0.13300612E-02 0.23780739E+02</pdfrwt>
<pdfrwt beam="1">  1       -3 0.25158942E-02 0.23780739E+02</pdfrwt>
<totfact> 0.12008760E+06</totfact>
</mgrwt>
</event>
<event>
 4    1  0.1754914E-001  0.2286309E+02  0.7818608E-02  0.1693739E+00
          3   -1    0    0  501    0  0.00000000000E+00  0.00000000000E+00  0.99029411672E+02  0.99029455341E+02  0.93000000000E-01 0. -1.
         -3   -1    0    0    0  501 -0.00000000000E+00 -0.00000000000E+00 -0.13179273462E+01  0.13212045602E+01  0.93000000000E-01 0.  1.
        -11    1    1    2    0    0  0.11176510374E+02  0.22458422691E+01  0.52585274629E+02  0.53806777452E+02  0.51100000000E-03 0. -1.
         11    1    1    2    0    0 -0.11176510374E+02 -0.22458422691E+01  0.45126209696E+02  0.46543882449E+02  0.51100000000E-03 0.  1.
<mgrwt>
<rscale>  0 0.22863088E+02</rscale>
<asrwt>0</asrwt>
<pdfrwt beam="1">  1        3 0.15235555E-01 0.22863088E+02</pdfrwt>
<pdfrwt beam="2">  1       -3 0.20301343E-03 0.22863088E+02</pdfrwt>
<totfact> 0.10584625E+06</totfact>
</mgrwt>
</event>
<event>
 4    1  0.1754914E-001  0.2453237E+02  0.7818608E-02  0.1667811E+00
         -3   -1    0    0    0  501 -0.00000000000E+00  0.00000000000E+00  0.28352411442E+01  0.28367660013E+01  0.93000000000E-01 0.  1.
          3   -1    0    0  501    0  0.00000000000E+00 -0.00000000000E+00 -0.53051736873E+02  0.53051818388E+02  0.93000000000E-01 0. -1.
        -11    1    1    2    0    0  0.29752655656E+01  0.10959779842E+02 -0.14547236249E+02  0.18455109377E+02  0.51100000000E-03 0.  1.
         11    1    1    2    0    0 -0.29752655656E+01 -0.10959779842E+02 -0.35669259480E+02  0.37433475012E+02  0.51100000000E-03 0. -1.
<mgrwt>
<rscale>  0 0.24532375E+02</rscale>
<asrwt>0</asrwt>
<pdfrwt beam="2">  1        3 0.81619285E-02 0.24532375E+02</pdfrwt>
<pdfrwt beam="1">  1       -3 0.43631455E-03 0.24532375E+02</pdfrwt>
<totfact> 0.10172487E+06</totfact>
</mgrwt>
</event>
<event>
 4    1  0.1754914E-001  0.3211869E+02  0.7818608E-02  0.1575785E+00
          3   -1    0    0  501    0  0.00000000000E+00  0.00000000000E+00  0.63355085749E+01  0.63361911195E+01  0.93000000000E-01 0. -1.
         -3   -1    0    0    0  501 -0.00000000000E+00 -0.00000000000E+00 -0.40704542049E+02  0.40704648290E+02  0.93000000000E-01 0.  1.
        -11    1    1    2    0    0 -0.20572668753E+01 -0.12553192682E+02 -0.28279434784E+01  0.13031203247E+02  0.51100000000E-03 0. -1.
         11    1    1    2    0    0  0.20572668753E+01  0.12553192682E+02 -0.31541089995E+02  0.34009636162E+02  0.51100000000E-03 0.  1.
<mgrwt>
<rscale>  0 0.32118688E+02</rscale>
<asrwt>0</asrwt>
<pdfrwt beam="1">  1        3 0.97475433E-03 0.32118688E+02</pdfrwt>
<pdfrwt beam="2">  1       -3 0.62622978E-02 0.32118688E+02</pdfrwt>
<totfact> 0.56174272E+05</totfact>
</mgrwt>
</event>
<event>
 4    1  0.1754914E-001  0.3270277E+02  0.7818608E-02  0.1570001E+00
          3   -1    0    0  501    0  0.00000000000E+00  0.00000000000E+00  0.53834450392E+02  0.53834530722E+02  0.93000000000E-01 0.  1.
         -3   -1    0    0    0  501 -0.00000000000E+00 -0.00000000000E+00 -0.49659612995E+01  0.49668320516E+01  0.93000000000E-01 0. -1.
        -11    1    1    2    0    0  0.21990382987E+01 -0.14613438850E+02  0.11850508955E+02  0.18942621973E+02  0.51100000000E-03 0. -1.
         11    1    1    2    0    0 -0.21990382987E+01  0.14613438850E+02  0.37017980137E+02  0.39858740800E+02  0.51100000000E-03 0.  1.
<mgrwt>
<rscale>  0 0.32702768E+02</rscale>
<asrwt>0</asrwt>
<pdfrwt beam="1">  1        3 0.82822970E-02 0.32702768E+02</pdfrwt>
<pdfrwt beam="2">  1       -3 0.76406714E-03 0.32702768E+02</pdfrwt>
<totfact> 0.52071634E+05</totfact>
</mgrwt>
</event>
<event>
 4    1  0.1754914E-001  0.3307449E+02  0.7818608E-02  0.1566396E+00
         -3   -1    0    0    0  501 -0.00000000000E+00  0.00000000000E+00  0.89948377355E+01  0.89953184984E+01  0.93000000000E-01 0.  1.
          3   -1    0    0  501    0  0.00000000000E+00 -0.00000000000E+00 -0.30402794659E+02  0.30402936899E+02  0.93000000000E-01 0. -1.
        -11    1    1    2    0    0 -0.13608479367E+02 -0.80323001441E+01 -0.16511836157E+02  0.22854962040E+02  0.51100000000E-03 0. -1.
         11    1    1    2    0    0  0.13608479367E+02  0.80323001441E+01 -0.48961207664E+01  0.16543293358E+02  0.51100000000E-03 0.  1.
<mgrwt>
<rscale>  0 0.33074490E+02</rscale>
<asrwt>0</asrwt>
<pdfrwt beam="2">  1        3 0.46774009E-02 0.33074490E+02</pdfrwt>
<pdfrwt beam="1">  1       -3 0.13838691E-02 0.33074490E+02</pdfrwt>
<totfact> 0.53605366E+05</totfact>
</mgrwt>
</event>
<event>
 4    1  0.1754914E-001  0.2937878E+02  0.7818608E-02  0.1605059E+00
          3   -1    0    0  501    0  0.00000000000E+00  0.00000000000E+00  0.44668238363E+02  0.44668335176E+02  0.93000000000E-01 0.  1.
         -3   -1    0    0    0  501 -0.00000000000E+00 -0.00000000000E+00 -0.48301340477E+01  0.48310292815E+01  0.93000000000E-01 0. -1.
        -11    1    1    2    0    0 -0.11712938495E+01 -0.13550763358E+02  0.10570992266E+02  0.17226171792E+02  0.51100000000E-03 0. -1.
         11    1    1    2    0    0  0.11712938495E+01  0.13550763358E+02  0.29267112049E+02  0.32273192665E+02  0.51100000000E-03 0.  1.
<mgrwt>
<rscale>  0 0.29378777E+02</rscale>
<asrwt>0</asrwt>
<pdfrwt beam="1">  1        3 0.68721128E-02 0.29378777E+02</pdfrwt>
<pdfrwt beam="2">  1       -3 0.74317388E-03 0.29378777E+02</pdfrwt>
<totfact> 0.68702738E+05</totfact>
</mgrwt>
</event>
<event>
 4    1  0.1754914E-001  0.2038732E+02  0.7818608E-02  0.1737734E+00
          3   -1    0    0  501    0  0.00000000000E+00  0.00000000000E+00  0.13194541568E+01  0.13227275879E+01  0.93000000000E-01 0.  1.
         -3   -1    0    0    0  501 -0.00000000000E+00 -0.00000000000E+00 -0.78651894289E+02  0.78651949271E+02  0.93000000000E-01 0. -1.
        -11    1    1    2    0    0  0.78062418700E+01 -0.64864558379E+01 -0.34946538105E+02  0.36390548872E+02  0.51100000000E-03 0. -1.
         11    1    1    2    0    0 -0.78062418700E+01  0.64864558379E+01 -0.42385902027E+02  0.43584127987E+02  0.51100000000E-03 0.  1.
<mgrwt>
<rscale>  0 0.20387316E+02</rscale>
<asrwt>0</asrwt>
<pdfrwt beam="1">  1        3 0.20324904E-03 0.20387316E+02</pdfrwt>
<pdfrwt beam="2">  1       -3 0.12100544E-01 0.20387316E+02</pdfrwt>
<totfact> 0.14311780E+06</totfact>
</mgrwt>
</event>
<event>
 4    1  0.1754914E-001  0.1060435E+03  0.7818608E-02  0.1268077E+00
          3   -1    0    0  501    0  0.00000000000E+00  0.00000000000E+00  0.15108073449E+02  0.15108359684E+02  0.93000000000E-01 0. -1.
         -3   -1    0    0    0  501 -0.00000000000E+00 -0.00000000000E+00 -0.18607777984E+03  0.18607780308E+03  0.93000000000E-01 0.  1.
        -11    1    1    2    0    0 -0.28508784897E+02 -0.24273116270E+02 -0.15670893591E+03  0.16111991057E+03  0.51100000000E-03 0.  1.
         11    1    1    2    0    0  0.28508784897E+02  0.24273116270E+02 -0.14260770487E+02  0.40066252194E+02  0.51100000000E-03 0. -1.
<mgrwt>
<rscale>  0 0.10604354E+03</rscale>
<asrwt>0</asrwt>
<pdfrwt beam="1">  1        3 0.23243429E-02 0.10604354E+03</pdfrwt>
<pdfrwt beam="2">  1       -3 0.28627373E-01 0.10604354E+03</pdfrwt>
<totfact> 0.18844700E+04</totfact>
</mgrwt>
</event>
<event>
 4    1  0.1754914E-001  0.2381903E+02  0.7818608E-02  0.1678568E+00
          3   -1    0    0  501    0  0.00000000000E+00  0.00000000000E+00  0.17627626264E+01  0.17652141731E+01  0.93000000000E-01 0.  1.
         -3   -1    0    0    0  501 -0.00000000000E+00 -0.00000000000E+00 -0.80404236222E+02  0.80404290006E+02  0.93000000000E-01 0. -1.
        -11    1    1    2    0    0 -0.23055031662E+01  0.11126118287E+02 -0.27012039617E+02  0.29304541244E+02  0.51100000000E-03 0.  1.
         11    1    1    2    0    0  0.23055031662E+01 -0.11126118287E+02 -0.51629433979E+02  0.52864962936E+02  0.51100000000E-03 0. -1.
<mgrwt>
<rscale>  0 0.23819027E+02</rscale>
<asrwt>0</asrwt>
<pdfrwt beam="1">  1        3 0.27138703E-03 0.23819027E+02</pdfrwt>
<pdfrwt beam="2">  1       -3 0.12370072E-01 0.23819027E+02</pdfrwt>
<totfact> 0.10118892E+06</totfact>
</mgrwt>
</event>
<event>
 4    1  0.1754914E-001  0.2223768E+02  0.7818608E-02  0.1704174E+00
          3   -1    0    0  501    0  0.00000000000E+00  0.00000000000E+00  0.31444172138E+02  0.31444309667E+02  0.93000000000E-01 0. -1.
         -3   -1    0    0    0  501 -0.00000000000E+00 -0.00000000000E+00 -0.39309885914E+01  0.39320885425E+01  0.93000000000E-01 0.  1.
        -11    1    1    2    0    0  0.59204742333E+01 -0.93120110691E+01  0.15927948513E+02  0.19376922083E+02  0.51100000000E-03 0. -1.
         11    1    1    2    0    0 -0.59204742333E+01  0.93120110691E+01  0.11585235033E+02  0.15999476127E+02  0.51100000000E-03 0.  1.
<mgrwt>
<rscale>  0 0.22237677E+02</rscale>
<asrwt>0</asrwt>
<pdfrwt beam="1">  1        3 0.48376601E-02 0.22237677E+02</pdfrwt>
<pdfrwt beam="2">  1       -3 0.60486267E-03 0.22237677E+02</pdfrwt>
<totfact> 0.13460883E+06</totfact>
</mgrwt>
</event>
<event>
 4    1  0.1754914E-001  0.2961857E+02  0.7818608E-02  0.1602344E+00
         -3   -1    0    0    0  501 -0.00000000000E+00  0.00000000000E+00  0.21541017318E+02  0.21541218074E+02  0.93000000000E-01 0.  1.
          3   -1    0    0  501    0  0.00000000000E+00 -0.00000000000E+00 -0.10180809057E+02  0.10181233818E+02  0.93000000000E-01 0. -1.
        -11    1    1    2    0    0  0.87445616576E+00 -0.14780359829E+02  0.53566681333E+01  0.15745399455E+02  0.51100000000E-03 0. -1.
         11    1    1    2    0    0 -0.87445616576E+00  0.14780359829E+02  0.60035401275E+01  0.15977052437E+02  0.51100000000E-03 0.  1.
<mgrwt>
<rscale>  0 0.29618569E+02</rscale>
<asrwt>0</asrwt>
<pdfrwt beam="2">  1        3 0.15663265E-02 0.29618569E+02</pdfrwt>
<pdfrwt beam="1">  1       -3 0.33140507E-02 0.29618569E+02</pdfrwt>
<totfact> 0.71159662E+05</totfact>
</mgrwt>
</event>
<event>
 4    1  0.1754914E-001  0.2791173E+02  0.7818608E-02  0.1622389E+00
         -3   -1    0    0    0  501 -0.00000000000E+00  0.00000000000E+00  0.56362468778E+01  0.56370140914E+01  0.93000000000E-01 0. -1.
          3   -1    0    0  501    0  0.00000000000E+00 -0.00000000000E+00 -0.34552828735E+02  0.34552953891E+02  0.93000000000E-01 0.  1.
        -11    1    1    2    0    0 -0.10608019341E+01 -0.10915285946E+02 -0.20302828038E+01  0.11153063101E+02  0.51100000000E-03 0.  1.
         11    1    1    2    0    0  0.10608019341E+01  0.10915285946E+02 -0.26886299054E+02  0.29036904881E+02  0.51100000000E-03 0. -1.
<mgrwt>
<rscale>  0 0.27911733E+02</rscale>
<asrwt>0</asrwt>
<pdfrwt beam="2">  1        3 0.53158883E-02 0.27911733E+02</pdfrwt>
<pdfrwt beam="1">  1       -3 0.86718357E-03 0.27911733E+02</pdfrwt>
<totfact> 0.79487636E+05</totfact>
</mgrwt>
</event>
<event>
 4    1  0.1754914E-001  0.7992363E+02  0.7818608E-02  0.1329268E+00
         -3   -1    0    0    0  501 -0.00000000000E+00  0.00000000000E+00  0.78694749289E+02  0.78694804242E+02  0.93000000000E-01 0.  1.
          3   -1    0    0  501    0  0.00000000000E+00 -0.00000000000E+00 -0.20292754370E+02  0.20292967474E+02  0.93000000000E-01 0. -1.
        -11    1    1    2    0    0  0.26749641593E+00  0.35637314385E+02  0.68093987426E+01  0.36283021406E+02  0.51100000000E-03 0. -1.
         11    1    1    2    0    0 -0.26749641593E+00 -0.35637314385E+02  0.51592596177E+02  0.62704750310E+02  0.51100000000E-03 0.  1.
<mgrwt>
<rscale>  0 0.79923626E+02</rscale>
<asrwt>0</asrwt>
<pdfrwt beam="2">  1        3 0.31219828E-02 0.79923626E+02</pdfrwt>
<pdfrwt beam="1">  1       -3 0.12106905E-01 0.79923626E+02</pdfrwt>
<totfact> 0.49575741E+04</totfact>
</mgrwt>
</event>
<event>
 4    1  0.1754914E-001  0.3103825E+02  0.7818608E-02  0.1586888E+00
         -3   -1    0    0    0  501 -0.00000000000E+00  0.00000000000E+00  0.84750342894E+02  0.84750393921E+02  0.93000000000E-01 0. -1.
          3   -1    0    0  501    0  0.00000000000E+00 -0.00000000000E+00 -0.28409847146E+01  0.28425064905E+01  0.93000000000E-01 0.  1.
        -11    1    1    2    0    0 -0.17285303911E+01 -0.12490301259E+02  0.15423239531E+02  0.19921640513E+02  0.51100000000E-03 0.  1.
         11    1    1    2    0    0  0.17285303911E+01  0.12490301259E+02  0.66486118649E+02  0.67671259898E+02  0.51100000000E-03 0. -1.
<mgrwt>
<rscale>  0 0.31038255E+02</rscale>
<asrwt>0</asrwt>
<pdfrwt beam="2">  1        3 0.43719552E-03 0.31038255E+02</pdfrwt>
<pdfrwt beam="1">  1       -3 0.13038636E-01 0.31038255E+02</pdfrwt>
<totfact> 0.54595486E+05</totfact>
</mgrwt>
</event>
<event>
 4    1  0.1754914E-001  0.3300731E+02  0.7818608E-02  0.1567043E+00
          3   -1    0    0  501    0  0.00000000000E+00  0.00000000000E+00  0.78428920831E+01  0.78434434547E+01  0.93000000000E-01 0.  1.
         -3   -1    0    0    0  501 -0.00000000000E+00 -0.00000000000E+00 -0.34726515254E+02  0.34726639784E+02  0.93000000000E-01 0. -1.
        -11    1    1    2    0    0 -0.22692917781E+01 -0.11796597744E+02 -0.28036783217E+02  0.30501977263E+02  0.51100000000E-03 0. -1.
         11    1    1    2    0    0  0.22692917781E+01  0.11796597744E+02  0.11531600463E+01  0.12068105976E+02  0.51100000000E-03 0.  1.
<mgrwt>
<rscale>  0 0.33007314E+02</rscale>
<asrwt>0</asrwt>
<pdfrwt beam="1">  1        3 0.12066508E-02 0.33007314E+02</pdfrwt>
<pdfrwt beam="2">  1       -3 0.53425927E-02 0.33007314E+02</pdfrwt>
<totfact> 0.53360950E+05</totfact>
</mgrwt>
</event>
<event>
 4    1  0.1754914E-001  0.6151727E+02  0.7818608E-02  0.1391573E+00
         -3   -1    0    0    0  501 -0.00000000000E+00  0.00000000000E+00  0.39595682604E+02  0.39595791820E+02  0.93000000000E-01 0.  1.
          3   -1    0    0  501    0  0.00000000000E+00 -0.00000000000E+00 -0.23893626645E+02  0.23893807634E+02  0.93000000000E-01 0. -1.
        -11    1    1    2    0    0  0.17577507578E+02  0.18048564606E+02 -0.10360519235E+02  0.27240774880E+02  0.51100000000E-03 0. -1.
         11    1    1    2    0    0 -0.17577507578E+02 -0.18048564606E+02  0.26062575194E+02  0.36248824574E+02  0.51100000000E-03 0.  1.
<mgrwt>
<rscale>  0 0.61517271E+02</rscale>
<asrwt>0</asrwt>
<pdfrwt beam="2">  1        3 0.36759649E-02 0.61517271E+02</pdfrwt>
<pdfrwt beam="1">  1       -3 0.60916658E-02 0.61517271E+02</pdfrwt>
<totfact> 0.10736638E+05</totfact>
</mgrwt>
</event>
<event>
 4    1  0.1754914E-001  0.3956202E+02  0.7818608E-02  0.1511459E+00
         -3   -1    0    0    0  501 -0.00000000000E+00  0.00000000000E+00  0.62249071782E+01  0.62256018486E+01  0.93000000000E-01 0.  1.
          3   -1    0    0  501    0  0.00000000000E+00 -0.00000000000E+00 -0.62854284130E+02  0.62854352932E+02  0.93000000000E-01 0. -1.
        -11    1    1    2    0    0 -0.15857317902E+02  0.75959325830E+01 -0.44139538281E+02  0.47512646346E+02  0.51100000000E-03 0. -1.
         11    1    1    2    0    0  0.15857317902E+02 -0.75959325830E+01 -0.12489838670E+02  0.21567308435E+02  0.51100000000E-03 0.  1.
<mgrwt>
<rscale>  0 0.39562025E+02</rscale>
<asrwt>0</asrwt>
<pdfrwt beam="2">  1        3 0.96699482E-02 0.39562025E+02</pdfrwt>
<pdfrwt beam="1">  1       -3 0.95773680E-03 0.39562025E+02</pdfrwt>
<totfact> 0.32107813E+05</totfact>
</mgrwt>
</event>
<event>
 4    1  0.1754914E-001  0.2918845E+02  0.7818608E-02  0.1607236E+00
         -3   -1    0    0    0  501 -0.00000000000E+00  0.00000000000E+00  0.26631897630E+01  0.26648130730E+01  0.93000000000E-01 0. -1.
          3   -1    0    0  501    0  0.00000000000E+00 -0.00000000000E+00 -0.79950014839E+02  0.79950068929E+02  0.93000000000E-01 0.  1.
        -11    1    1    2    0    0  0.65862953774E+00 -0.12012248686E+02 -0.62028628597E+02  0.63184481301E+02  0.51100000000E-03 0.  1.
         11    1    1    2    0    0 -0.65862953774E+00  0.12012248686E+02 -0.15258196478E+02  0.19430400701E+02  0.51100000000E-03 0. -1.
<mgrwt>
<rscale>  0 0.29188446E+02</rscale>
<asrwt>0</asrwt>
<pdfrwt beam="2">  1        3 0.12300129E-01 0.29188446E+02</pdfrwt>
<pdfrwt beam="1">  1       -3 0.40985059E-03 0.29188446E+02</pdfrwt>
<totfact> 0.63751945E+05</totfact>
</mgrwt>
</event>
<event>
 4    1  0.1754914E-001  0.6077747E+02  0.7818608E-02  0.1394598E+00
         -3   -1    0    0    0  501 -0.00000000000E+00  0.00000000000E+00  0.10923528616E+02  0.10923924498E+02  0.93000000000E-01 0.  1.
          3   -1    0    0  501    0  0.00000000000E+00 -0.00000000000E+00 -0.84538045578E+02  0.84538096732E+02  0.93000000000E-01 0. -1.
        -11    1    1    2    0    0 -0.16745747040E+02  0.17039948337E+02 -0.73095812853E+01  0.24984192244E+02  0.51100000000E-03 0. -1.
         11    1    1    2    0    0  0.16745747040E+02 -0.17039948337E+02 -0.66304935676E+02  0.70477828986E+02  0.51100000000E-03 0.  1.
<mgrwt>
<rscale>  0 0.60777466E+02</rscale>
<asrwt>0</asrwt>
<pdfrwt beam="2">  1        3 0.13005887E-01 0.60777466E+02</pdfrwt>
<pdfrwt beam="1">  1       -3 0.16805773E-02 0.60777466E+02</pdfrwt>
<totfact> 0.10264915E+05</totfact>
</mgrwt>
</event>
<event>
 4    1  0.1754914E-001  0.3105497E+02  0.7818608E-02  0.1586712E+00
         -3   -1    0    0    0  501 -0.00000000000E+00  0.00000000000E+00  0.22887718761E+02  0.22887907705E+02  0.93000000000E-01 0. -1.
          3   -1    0    0  501    0  0.00000000000E+00 -0.00000000000E+00 -0.10533716670E+02  0.10534127201E+02  0.93000000000E-01 0.  1.
        -11    1    1    2    0    0  0.66780259701E+01 -0.13067917356E+02  0.71722814483E+00  0.14692886420E+02  0.51100000000E-03 0.  1.
         11    1    1    2    0    0 -0.66780259701E+01  0.13067917356E+02  0.11636773946E+02  0.18729148486E+02  0.51100000000E-03 0. -1.
<mgrwt>
<rscale>  0 0.31054968E+02</rscale>
<asrwt>0</asrwt>
<pdfrwt beam="2">  1        3 0.16206179E-02 0.31054968E+02</pdfrwt>
<pdfrwt beam="1">  1       -3 0.35212336E-02 0.31054968E+02</pdfrwt>
<totfact> 0.63349652E+05</totfact>
</mgrwt>
</event>
<event>
 4    1  0.1754914E-001  0.5873721E+02  0.7818608E-02  0.1403209E+00
         -3   -1    0    0    0  501 -0.00000000000E+00  0.00000000000E+00  0.29152617861E+02  0.29152766201E+02  0.93000000000E-01 0. -1.
          3   -1    0    0  501    0  0.00000000000E+00 -0.00000000000E+00 -0.29585899997E+02  0.29586046165E+02  0.93000000000E-01 0.  1.
        -11    1    1    2    0    0  0.18942510136E+02 -0.21279069527E+02 -0.73510902626E+01  0.29422032875E+02  0.51100000000E-03 0. -1.
         11    1    1    2    0    0 -0.18942510136E+02  0.21279069527E+02  0.69178081266E+01  0.29316779491E+02  0.51100000000E-03 0.  1.
<mgrwt>
<rscale>  0 0.58737214E+02</rscale>
<asrwt>0</asrwt>
<pdfrwt beam="2">  1        3 0.45516996E-02 0.58737214E+02</pdfrwt>
<pdfrwt beam="1">  1       -3 0.44850408E-02 0.58737214E+02</pdfrwt>
<totfact> 0.12245500E+05</totfact>
</mgrwt>
</event>
<event>
 4    1  0.1754914E-001  0.6945757E+02  0.7818608E-02  0.1361947E+00
         -3   -1    0    0    0  501 -0.00000000000E+00  0.00000000000E+00  0.63891868540E+02  0.63891936224E+02  0.93000000000E-01 0.  1.
          3   -1    0    0  501    0  0.00000000000E+00 -0.00000000000E+00 -0.18876834417E+02  0.18877063506E+02  0.93000000000E-01 0. -1.
        -11    1    1    2    0    0 -0.34074727031E+02 -0.51596296205E+01  0.17398734907E+02  0.38606019954E+02  0.51100000000E-03 0. -1.
         11    1    1    2    0    0  0.34074727031E+02  0.51596296205E+01  0.27616299215E+02  0.44162979776E+02  0.51100000000E-03 0.  1.
<mgrwt>
<rscale>  0 0.69457570E+02</rscale>
<asrwt>0</asrwt>
<pdfrwt beam="2">  1        3 0.29041512E-02 0.69457570E+02</pdfrwt>
<pdfrwt beam="1">  1       -3 0.98295410E-02 0.69457570E+02</pdfrwt>
<totfact> 0.74626738E+04</totfact>
</mgrwt>
</event>
<event>
 4    1  0.1754914E-001  0.3543282E+02  0.7818608E-02  0.1544790E+00
          3   -1    0    0  501    0  0.00000000000E+00  0.00000000000E+00  0.12651459180E+02  0.12651800993E+02  0.93000000000E-01 0.  1.
         -3   -1    0    0    0  501 -0.00000000000E+00 -0.00000000000E+00 -0.24808320866E+02  0.24808495182E+02  0.93000000000E-01 0. -1.
        -11    1    1    2    0    0  0.12785633673E+02  0.13244240269E+01  0.68111885658E+01  0.14547124024E+02  0.51100000000E-03 0.  1.
         11    1    1    2    0    0 -0.12785633673E+02 -0.13244240269E+01 -0.18968050252E+02  0.22913172152E+02  0.51100000000E-03 0. -1.
<mgrwt>
<rscale>  0 0.35432817E+02</rscale>
<asrwt>0</asrwt>
<pdfrwt beam="1">  1        3 0.19464180E-02 0.35432817E+02</pdfrwt>
<pdfrwt beam="2">  1       -3 0.38167045E-02 0.35432817E+02</pdfrwt>
<totfact> 0.45763933E+05</totfact>
</mgrwt>
</event>
<event>
 4    1  0.1754914E-001  0.5014173E+02  0.7818608E-02  0.1444579E+00
          3   -1    0    0  501    0  0.00000000000E+00  0.00000000000E+00  0.35040363734E+02  0.35040487148E+02  0.93000000000E-01 0. -1.
         -3   -1    0    0    0  501 -0.00000000000E+00 -0.00000000000E+00 -0.17937560023E+02  0.17937801107E+02  0.93000000000E-01 0.  1.
        -11    1    1    2    0    0 -0.20344055463E+02 -0.82605221627E+01 -0.42340418904E+01  0.22361662060E+02  0.51100000000E-03 0. -1.
         11    1    1    2    0    0  0.20344055463E+02  0.82605221627E+01  0.21336845601E+02  0.30616626195E+02  0.51100000000E-03 0.  1.
<mgrwt>
<rscale>  0 0.50141730E+02</rscale>
<asrwt>0</asrwt>
<pdfrwt beam="1">  1        3 0.53908532E-02 0.50141730E+02</pdfrwt>
<pdfrwt beam="2">  1       -3 0.27596527E-02 0.50141730E+02</pdfrwt>
<totfact> 0.18620380E+05</totfact>
</mgrwt>
</event>
<event>
 4    1  0.1754914E-001  0.2715124E+02  0.7818608E-02  0.1631896E+00
          3   -1    0    0  501    0  0.00000000000E+00  0.00000000000E+00  0.58248560844E+02  0.58248635086E+02  0.93000000000E-01 0. -1.
         -3   -1    0    0    0  501 -0.00000000000E+00 -0.00000000000E+00 -0.31632226309E+01  0.31645894541E+01  0.93000000000E-01 0.  1.
        -11    1    1    2    0    0 -0.12617201507E+02  0.47431942542E+00  0.38824661364E+02  0.40826132355E+02  0.51100000000E-03 0. -1.
         11    1    1    2    0    0  0.12617201507E+02 -0.47431942542E+00  0.16260676850E+02  0.20587092186E+02  0.51100000000E-03 0.  1.
<mgrwt>
<rscale>  0 0.27151237E+02</rscale>
<asrwt>0</asrwt>
<pdfrwt beam="1">  1        3 0.89614263E-02 0.27151237E+02</pdfrwt>
<pdfrwt beam="2">  1       -3 0.48676058E-03 0.27151237E+02</pdfrwt>
<totfact> 0.79612609E+05</totfact>
</mgrwt>
</event>
<event>
 4    1  0.1754914E-001  0.3410660E+02  0.7818608E-02  0.1556680E+00
          3   -1    0    0  501    0  0.00000000000E+00  0.00000000000E+00  0.13534729573E+02  0.13535049081E+02  0.93000000000E-01 0. -1.
         -3   -1    0    0    0  501 -0.00000000000E+00 -0.00000000000E+00 -0.21485906644E+02  0.21486107914E+02  0.93000000000E-01 0.  1.
        -11    1    1    2    0    0 -0.16336048828E+01 -0.14111817860E+02  0.57115239220E+01  0.15311223792E+02  0.51100000000E-03 0. -1.
         11    1    1    2    0    0  0.16336048828E+01  0.14111817860E+02 -0.13662700992E+02  0.19709933204E+02  0.51100000000E-03 0.  1.
<mgrwt>
<rscale>  0 0.34106601E+02</rscale>
<asrwt>0</asrwt>
<pdfrwt beam="1">  1        3 0.20823062E-02 0.34106601E+02</pdfrwt>
<pdfrwt beam="2">  1       -3 0.33055642E-02 0.34106601E+02</pdfrwt>
<totfact> 0.50499803E+05</totfact>
</mgrwt>
</event>
<event>
 4    1  0.1754914E-001  0.4583789E+02  0.7818608E-02  0.1469178E+00
          3   -1    0    0  501    0  0.00000000000E+00  0.00000000000E+00  0.10290701665E+03  0.10290705867E+03  0.93000000000E-01 0.  1.
         -3   -1    0    0    0  501 -0.00000000000E+00 -0.00000000000E+00 -0.51039278065E+01  0.51047750248E+01  0.93000000000E-01 0. -1.
        -11    1    1    2    0    0  0.83694071472E+01 -0.14901254550E+02  0.84884412538E+02  0.86587862055E+02  0.51100000000E-03 0.  1.
         11    1    1    2    0    0 -0.83694071472E+01  0.14901254550E+02  0.12918676304E+02  0.21423971641E+02  0.51100000000E-03 0. -1.
<mgrwt>
<rscale>  0 0.45837889E+02</rscale>
<asrwt>0</asrwt>
<pdfrwt beam="1">  1        3 0.15831916E-01 0.45837889E+02</pdfrwt>
<pdfrwt beam="2">  1       -3 0.78528812E-03 0.45837889E+02</pdfrwt>
<totfact> 0.20354688E+05</totfact>
</mgrwt>
</event>
<event>
 4    1  0.1754914E-001  0.2147702E+02  0.7818608E-02  0.1717457E+00
          3   -1    0    0  501    0  0.00000000000E+00  0.00000000000E+00  0.17026070841E+02  0.17026324832E+02  0.93000000000E-01 0. -1.
         -3   -1    0    0    0  501 -0.00000000000E+00 -0.00000000000E+00 -0.67722595554E+01  0.67728980862E+01  0.93000000000E-01 0.  1.
        -11    1    1    2    0    0 -0.68771167472E+01 -0.81508584016E+01  0.37320919275E+01  0.11298660888E+02  0.51100000000E-03 0. -1.
         11    1    1    2    0    0  0.68771167472E+01  0.81508584016E+01  0.65217193585E+01  0.12500562031E+02  0.51100000000E-03 0.  1.
<mgrwt>
<rscale>  0 0.21477019E+02</rscale>
<asrwt>0</asrwt>
<pdfrwt beam="1">  1        3 0.26194642E-02 0.21477019E+02</pdfrwt>
<pdfrwt beam="2">  1       -3 0.10419547E-02 0.21477019E+02</pdfrwt>
<totfact> 0.15107973E+06</totfact>
</mgrwt>
</event>
<event>
 4    1  0.1754914E-001  0.3739270E+02  0.7818608E-02  0.1528324E+00
         -3   -1    0    0    0  501 -0.00000000000E+00  0.00000000000E+00  0.15464397466E+02  0.15464677105E+02  0.93000000000E-01 0.  1.
          3   -1    0    0  501    0  0.00000000000E+00 -0.00000000000E+00 -0.22603184236E+02  0.22603375558E+02  0.93000000000E-01 0. -1.
        -11    1    1    2    0    0  0.46473333293E+01  0.13074183593E+02 -0.16326538312E+02  0.21426335133E+02  0.51100000000E-03 0. -1.
         11    1    1    2    0    0 -0.46473333293E+01 -0.13074183593E+02  0.91877515416E+01  0.16641717530E+02  0.51100000000E-03 0.  1.
<mgrwt>
<rscale>  0 0.37392705E+02</rscale>
<asrwt>0</asrwt>
<pdfrwt beam="2">  1        3 0.34774492E-02 0.37392705E+02</pdfrwt>
<pdfrwt beam="1">  1       -3 0.23791743E-02 0.37392705E+02</pdfrwt>
<totfact> 0.40114225E+05</totfact>
</mgrwt>
</event>
<event>
 4    1  0.1754914E-001  0.3591957E+02  0.7818608E-02  0.1540583E+00
         -3   -1    0    0    0  501 -0.00000000000E+00  0.00000000000E+00  0.45332467764E+01  0.45342006281E+01  0.93000000000E-01 0.  1.
          3   -1    0    0  501    0  0.00000000000E+00 -0.00000000000E+00 -0.71144487749E+02  0.71144548533E+02  0.93000000000E-01 0. -1.
        -11    1    1    2    0    0 -0.12911847884E+02  0.63006931558E+01 -0.56011195835E+02  0.57824463760E+02  0.51100000000E-03 0. -1.
         11    1    1    2    0    0  0.12911847884E+02 -0.63006931558E+01 -0.10600045137E+02  0.17854285401E+02  0.51100000000E-03 0.  1.
<mgrwt>
<rscale>  0 0.35919572E+02</rscale>
<asrwt>0</asrwt>
<pdfrwt beam="2">  1        3 0.10945383E-01 0.35919572E+02</pdfrwt>
<pdfrwt beam="1">  1       -3 0.69750068E-03 0.35919572E+02</pdfrwt>
<totfact> 0.39850193E+05</totfact>
</mgrwt>
</event>
<event>
 4    1  0.1754914E-001  0.2565473E+02  0.7818608E-02  0.1651772E+00
         -3   -1    0    0    0  501 -0.00000000000E+00  0.00000000000E+00  0.73257105588E+02  0.73257164620E+02  0.93000000000E-01 0.  1.
          3   -1    0    0  501    0  0.00000000000E+00 -0.00000000000E+00 -0.22450561316E+01  0.22469815384E+01  0.93000000000E-01 0. -1.
        -11    1    1    2    0    0 -0.45045513186E+01 -0.12000911546E+02  0.34099582145E+02  0.36429306379E+02  0.51100000000E-03 0. -1.
         11    1    1    2    0    0  0.45045513186E+01  0.12000911546E+02  0.36912467312E+02  0.39074839780E+02  0.51100000000E-03 0.  1.
<mgrwt>
<rscale>  0 0.25654725E+02</rscale>
<asrwt>0</asrwt>
<pdfrwt beam="2">  1        3 0.34554592E-03 0.25654725E+02</pdfrwt>
<pdfrwt beam="1">  1       -3 0.11270476E-01 0.25654725E+02</pdfrwt>
<totfact> 0.87177346E+05</totfact>
</mgrwt>
</event>
<event>
 4    1  0.1754914E-001  0.2170616E+02  0.7818608E-02  0.1713384E+00
         -3   -1    0    0    0  501 -0.00000000000E+00  0.00000000000E+00  0.45680458450E+01  0.45689924318E+01  0.93000000000E-01 0. -1.
          3   -1    0    0  501    0  0.00000000000E+00 -0.00000000000E+00 -0.25781806518E+02  0.25781974252E+02  0.93000000000E-01 0.  1.
        -11    1    1    2    0    0 -0.97802137201E+01 -0.46634444658E+01 -0.11479076281E+02  0.15785103333E+02  0.51100000000E-03 0.  1.
         11    1    1    2    0    0  0.97802137201E+01  0.46634444658E+01 -0.97346843919E+01  0.14565863351E+02  0.51100000000E-03 0. -1.
<mgrwt>
<rscale>  0 0.21706164E+02</rscale>
<asrwt>0</asrwt>
<pdfrwt beam="2">  1        3 0.39665174E-02 0.21706164E+02</pdfrwt>
<pdfrwt beam="1">  1       -3 0.70286201E-03 0.21706164E+02</pdfrwt>
<totfact> 0.14432283E+06</totfact>
</mgrwt>
</event>
<event>
 4    1  0.1754914E-001  0.2170729E+02  0.7818608E-02  0.1713364E+00
         -3   -1    0    0    0  501 -0.00000000000E+00  0.00000000000E+00  0.42239190676E+02  0.42239293058E+02  0.93000000000E-01 0.  1.
          3   -1    0    0  501    0  0.00000000000E+00 -0.00000000000E+00 -0.27880372682E+01  0.27895879282E+01  0.93000000000E-01 0. -1.
        -11    1    1    2    0    0 -0.38434796262E+01 -0.95486292226E+01  0.26867243407E+02  0.28771468927E+02  0.51100000000E-03 0.  1.
         11    1    1    2    0    0  0.38434796262E+01  0.95486292226E+01  0.12583910002E+02  0.16257412059E+02  0.51100000000E-03 0. -1.
<mgrwt>
<rscale>  0 0.21707294E+02</rscale>
<asrwt>0</asrwt>
<pdfrwt beam="2">  1        3 0.42905604E-03 0.21707294E+02</pdfrwt>
<pdfrwt beam="1">  1       -3 0.64984632E-02 0.21707294E+02</pdfrwt>
<totfact> 0.13772819E+06</totfact>
</mgrwt>
</event>
<event>
 4    1  0.1754914E-001  0.2208174E+02  0.7818608E-02  0.1706842E+00
         -3   -1    0    0    0  501 -0.00000000000E+00  0.00000000000E+00  0.49062686886E+02  0.49062775028E+02  0.93000000000E-01 0.  1.
          3   -1    0    0  501    0  0.00000000000E+00 -0.00000000000E+00 -0.24836324770E+01  0.24853730667E+01  0.93000000000E-01 0. -1.
        -11    1    1    2    0    0 -0.10323093216E+02 -0.75405575899E+00  0.32259902952E+02  0.33879731291E+02  0.51100000000E-03 0.  1.
         11    1    1    2    0    0  0.10323093216E+02  0.75405575899E+00  0.14319151457E+02  0.17668416803E+02  0.51100000000E-03 0. -1.
<mgrwt>
<rscale>  0 0.22081740E+02</rscale>
<asrwt>0</asrwt>
<pdfrwt beam="2">  1        3 0.38223800E-03 0.22081740E+02</pdfrwt>
<pdfrwt beam="1">  1       -3 0.75482458E-02 0.22081740E+02</pdfrwt>
<totfact> 0.13009403E+06</totfact>
</mgrwt>
</event>
<event>
 4    1  0.1754914E-001  0.3371176E+02  0.7818608E-02  0.1560347E+00
          3   -1    0    0  501    0  0.00000000000E+00  0.00000000000E+00  0.27030436416E+02  0.27030596402E+02  0.93000000000E-01 0.  1.
         -3   -1    0    0    0  501 -0.00000000000E+00 -0.00000000000E+00 -0.10510744146E+02  0.10511155574E+02  0.93000000000E-01 0. -1.
        -11    1    1    2    0    0 -0.50297517559E+01  0.14943822815E+02  0.14895361872E+02  0.21690736470E+02  0.51100000000E-03 0.  1.
         11    1    1    2    0    0  0.50297517559E+01 -0.14943822815E+02  0.16243303975E+01  0.15851015506E+02  0.51100000000E-03 0. -1.
<mgrwt>
<rscale>  0 0.33711762E+02</rscale>
<asrwt>0</asrwt>
<pdfrwt beam="1">  1        3 0.41585726E-02 0.33711762E+02</pdfrwt>
<pdfrwt beam="2">  1       -3 0.16170815E-02 0.33711762E+02</pdfrwt>
<totfact> 0.51519819E+05</totfact>
</mgrwt>
</event>
<event>
 4    1  0.1754914E-001  0.2669330E+02  0.7818608E-02  0.1637808E+00
         -3   -1    0    0    0  501 -0.00000000000E+00  0.00000000000E+00  0.12578880042E+02  0.12579223827E+02  0.93000000000E-01 0.  1.
          3   -1    0    0  501    0  0.00000000000E+00 -0.00000000000E+00 -0.14160590729E+02  0.14160896115E+02  0.93000000000E-01 0. -1.
        -11    1    1    2    0    0  0.10864881461E+02 -0.13187438041E+01 -0.84428607421E+01  0.13822685417E+02  0.51100000000E-03 0. -1.
         11    1    1    2    0    0 -0.10864881461E+02  0.13187438041E+01  0.68611500549E+01  0.12917434525E+02  0.51100000000E-03 0.  1.
<mgrwt>
<rscale>  0 0.26693299E+02</rscale>
<asrwt>0</asrwt>
<pdfrwt beam="2">  1        3 0.21786024E-02 0.26693299E+02</pdfrwt>
<pdfrwt beam="1">  1       -3 0.19352622E-02 0.26693299E+02</pdfrwt>
<totfact> 0.91917964E+05</totfact>
</mgrwt>
</event>
<event>
 4    1  0.1754914E-001  0.2095903E+02  0.7818608E-02  0.1726903E+00
         -3   -1    0    0    0  501 -0.00000000000E+00  0.00000000000E+00  0.96890711456E+01  0.96895174629E+01  0.93000000000E-01 0.  1.
          3   -1    0    0  501    0  0.00000000000E+00 -0.00000000000E+00 -0.11333542598E+02  0.11333924158E+02  0.93000000000E-01 0. -1.
        -11    1    1    2    0    0  0.67410266087E+01  0.78246732948E+01 -0.26034326752E+01  0.10651047548E+02  0.51100000000E-03 0. -1.
         11    1    1    2    0    0 -0.67410266087E+01 -0.78246732948E+01  0.95896122319E+00  0.10372394073E+02  0.51100000000E-03 0.  1.
<mgrwt>
<rscale>  0 0.20959027E+02</rscale>
<asrwt>0</asrwt>
<pdfrwt beam="2">  1        3 0.17436856E-02 0.20959027E+02</pdfrwt>
<pdfrwt beam="1">  1       -3 0.14906900E-02 0.20959027E+02</pdfrwt>
<totfact> 0.16095909E+06</totfact>
</mgrwt>
</event>
<event>
 4    1  0.1754914E-001  0.2415135E+02  0.7818608E-02  0.1673499E+00
         -3   -1    0    0    0  501 -0.00000000000E+00  0.00000000000E+00  0.91188319906E+01  0.91193062166E+01  0.93000000000E-01 0.  1.
          3   -1    0    0  501    0  0.00000000000E+00 -0.00000000000E+00 -0.15990265424E+02  0.15990535867E+02  0.93000000000E-01 0. -1.
        -11    1    1    2    0    0 -0.10633007950E+02  0.54936732829E+01 -0.17655416245E+01  0.12097869304E+02  0.51100000000E-03 0. -1.
         11    1    1    2    0    0  0.10633007950E+02 -0.54936732829E+01 -0.51058918086E+01  0.13011972780E+02  0.51100000000E-03 0.  1.
<mgrwt>
<rscale>  0 0.24151347E+02</rscale>
<asrwt>0</asrwt>
<pdfrwt beam="2">  1        3 0.24600981E-02 0.24151347E+02</pdfrwt>
<pdfrwt beam="1">  1       -3 0.14029545E-02 0.24151347E+02</pdfrwt>
<totfact> 0.11595901E+06</totfact>
</mgrwt>
</event>
<event>
 4    1  0.1754914E-001  0.2406412E+02  0.7818608E-02  0.1674820E+00
         -3   -1    0    0    0  501 -0.00000000000E+00  0.00000000000E+00  0.13445825628E+02  0.13446147248E+02  0.93000000000E-01 0.  1.
          3   -1    0    0  501    0  0.00000000000E+00 -0.00000000000E+00 -0.10766290998E+02  0.10766692661E+02  0.93000000000E-01 0. -1.
        -11    1    1    2    0    0 -0.83919865331E+01  0.80692902232E+01 -0.17173562678E+01  0.11768100760E+02  0.51100000000E-03 0. -1.
         11    1    1    2    0    0  0.83919865331E+01 -0.80692902232E+01  0.43968908978E+01  0.12444739150E+02  0.51100000000E-03 0.  1.
<mgrwt>
<rscale>  0 0.24064117E+02</rscale>
<asrwt>0</asrwt>
<pdfrwt beam="2">  1        3 0.16564081E-02 0.24064117E+02</pdfrwt>
<pdfrwt beam="1">  1       -3 0.20686442E-02 0.24064117E+02</pdfrwt>
<totfact> 0.11726673E+06</totfact>
</mgrwt>
</event>
<event>
 4    1  0.1754914E-001  0.2690213E+02  0.7818608E-02  0.1635094E+00
          3   -1    0    0  501    0  0.00000000000E+00  0.00000000000E+00  0.19363299907E+01  0.19385620529E+01  0.93000000000E-01 0.  1.
         -3   -1    0    0    0  501 -0.00000000000E+00 -0.00000000000E+00 -0.93384155256E+02  0.93384201565E+02  0.93000000000E-01 0. -1.
        -11    1    1    2    0    0  0.25900284016E+01  0.12854117779E+02 -0.56350637051E+02  0.57856122298E+02  0.51100000000E-03 0. -1.
         11    1    1    2    0    0 -0.25900284016E+01 -0.12854117779E+02 -0.35097188214E+02  0.37466641320E+02  0.51100000000E-03 0.  1.
<mgrwt>
<rscale>  0 0.26902129E+02</rscale>
<asrwt>0</asrwt>
<pdfrwt beam="1">  1        3 0.29807225E-03 0.26902129E+02</pdfrwt>
<pdfrwt beam="2">  1       -3 0.14366965E-01 0.26902129E+02</pdfrwt>
<totfact> 0.74443853E+05</totfact>
</mgrwt>
</event>
<event>
 4    1  0.1754914E-001  0.2421300E+02  0.7818608E-02  0.1672570E+00
          3   -1    0    0  501    0  0.00000000000E+00  0.00000000000E+00  0.53714096613E+02  0.53714177123E+02  0.93000000000E-01 0. -1.
         -3   -1    0    0    0  501 -0.00000000000E+00 -0.00000000000E+00 -0.27277830275E+01  0.27293679204E+01  0.93000000000E-01 0.  1.
        -11    1    1    2    0    0 -0.12032175669E+02 -0.11987937777E+01  0.26886075523E+02  0.29480017218E+02  0.51100000000E-03 0. -1.
         11    1    1    2    0    0  0.12032175669E+02  0.11987937777E+01  0.24100238062E+02  0.26963527825E+02  0.51100000000E-03 0.  1.
<mgrwt>
<rscale>  0 0.24213005E+02</rscale>
<asrwt>0</asrwt>
<pdfrwt beam="1">  1        3 0.82638356E-02 0.24213005E+02</pdfrwt>
<pdfrwt beam="2">  1       -3 0.41978702E-03 0.24213005E+02</pdfrwt>
<totfact> 0.10458354E+06</totfact>
</mgrwt>
</event>
<event>
 4    1  0.1754914E-001  0.2229226E+02  0.7818608E-02  0.1703246E+00
         -3   -1    0    0    0  501 -0.00000000000E+00  0.00000000000E+00  0.61020010869E+02  0.61020081739E+02  0.93000000000E-01 0. -1.
          3   -1    0    0  501    0  0.00000000000E+00 -0.00000000000E+00 -0.20348572363E+01  0.20369813382E+01  0.93000000000E-01 0.  1.
        -11    1    1    2    0    0  0.98342993973E+01 -0.42099530297E+01  0.20637915713E+02  0.23245660120E+02  0.51100000000E-03 0.  1.
         11    1    1    2    0    0 -0.98342993973E+01  0.42099530297E+01  0.38347237919E+02  0.39811402958E+02  0.51100000000E-03 0. -1.
<mgrwt>
<rscale>  0 0.22292260E+02</rscale>
<asrwt>0</asrwt>
<pdfrwt beam="2">  1        3 0.31322387E-03 0.22292260E+02</pdfrwt>
<pdfrwt beam="1">  1       -3 0.93878609E-02 0.22292260E+02</pdfrwt>
<totfact> 0.12328726E+06</totfact>
</mgrwt>
</event>
<event>
 4    1  0.1754914E-001  0.2240227E+02  0.7818608E-02  0.1701386E+00
         -3   -1    0    0    0  501 -0.00000000000E+00  0.00000000000E+00  0.87454365941E+01  0.87459310666E+01  0.93000000000E-01 0.  1.
          3   -1    0    0  501    0  0.00000000000E+00 -0.00000000000E+00 -0.14345336347E+02  0.14345637801E+02  0.93000000000E-01 0. -1.
        -11    1    1    2    0    0  0.96760207400E+01 -0.43230179683E+01  0.93814231851E+00  0.10639265622E+02  0.51100000000E-03 0.  1.
         11    1    1    2    0    0 -0.96760207400E+01  0.43230179683E+01 -0.65380420715E+01  0.12452303245E+02  0.51100000000E-03 0. -1.
<mgrwt>
<rscale>  0 0.22402269E+02</rscale>
<asrwt>0</asrwt>
<pdfrwt beam="2">  1        3 0.22070361E-02 0.22402269E+02</pdfrwt>
<pdfrwt beam="1">  1       -3 0.13455130E-02 0.22402269E+02</pdfrwt>
<totfact> 0.13803165E+06</totfact>
</mgrwt>
</event>
<event>
 4    1  0.1754914E-001  0.3116072E+02  0.7818608E-02  0.1585602E+00
         -3   -1    0    0    0  501 -0.00000000000E+00  0.00000000000E+00  0.54027900269E+01  0.54035903874E+01  0.93000000000E-01 0.  1.
          3   -1    0    0  501    0  0.00000000000E+00 -0.00000000000E+00 -0.44925879657E+02  0.44925975916E+02  0.93000000000E-01 0. -1.
        -11    1    1    2    0    0 -0.11908825259E+01  0.13121494333E+02 -0.63298719115E+01  0.14617082246E+02  0.51100000000E-03 0. -1.
         11    1    1    2    0    0  0.11908825259E+01 -0.13121494333E+02 -0.33193217719E+02  0.35712484057E+02  0.51100000000E-03 0.  1.
<mgrwt>
<rscale>  0 0.31160723E+02</rscale>
<asrwt>0</asrwt>
<pdfrwt beam="2">  1        3 0.69117425E-02 0.31160723E+02</pdfrwt>
<pdfrwt beam="1">  1       -3 0.83126747E-03 0.31160723E+02</pdfrwt>
<totfact> 0.59739957E+05</totfact>
</mgrwt>
</event>
<event>
 4    1  0.1754914E-001  0.3034475E+02  0.7818608E-02  0.1594309E+00
          3   -1    0    0  501    0  0.00000000000E+00  0.00000000000E+00  0.65807343556E+01  0.65813914683E+01  0.93000000000E-01 0.  1.
         -3   -1    0    0    0  501 -0.00000000000E+00 -0.00000000000E+00 -0.34978572399E+02  0.34978696032E+02  0.93000000000E-01 0. -1.
        -11    1    1    2    0    0 -0.13152406552E+02  0.56431697917E+01 -0.73004764355E+01  0.16066366106E+02  0.51100000000E-03 0. -1.
         11    1    1    2    0    0  0.13152406552E+02 -0.56431697917E+01 -0.21097361608E+02  0.25493721394E+02  0.51100000000E-03 0.  1.
<mgrwt>
<rscale>  0 0.30344747E+02</rscale>
<asrwt>0</asrwt>
<pdfrwt beam="1">  1        3 0.10124808E-02 0.30344747E+02</pdfrwt>
<pdfrwt beam="2">  1       -3 0.53813788E-02 0.30344747E+02</pdfrwt>
<totfact> 0.65232764E+05</totfact>
</mgrwt>
</event>
<event>
 4    1  0.1754914E-001  0.4479404E+02  0.7818608E-02  0.1475632E+00
         -3   -1    0    0    0  501 -0.00000000000E+00  0.00000000000E+00  0.32351028210E+01  0.32364392876E+01  0.93000000000E-01 0.  1.
          3   -1    0    0  501    0  0.00000000000E+00 -0.00000000000E+00 -0.15502399532E+03  0.15502402322E+03  0.93000000000E-01 0. -1.
        -11    1    1    2    0    0 -0.20212459245E+02 -0.96246116561E+01 -0.73524739083E+02  0.76857425898E+02  0.51100000000E-03 0.  1.
         11    1    1    2    0    0  0.20212459245E+02  0.96246116561E+01 -0.78264153416E+02  0.81403036605E+02  0.51100000000E-03 0. -1.
<mgrwt>
<rscale>  0 0.44794041E+02</rscale>
<asrwt>0</asrwt>
<pdfrwt beam="2">  1        3 0.23849945E-01 0.44794041E+02</pdfrwt>
<pdfrwt beam="1">  1       -3 0.49781320E-03 0.44794041E+02</pdfrwt>
<totfact> 0.19328463E+05</totfact>
</mgrwt>
</event>
<event>
 4    1  0.1754914E-001  0.2785300E+02  0.7818608E-02  0.1623110E+00
         -3   -1    0    0    0  501 -0.00000000000E+00  0.00000000000E+00  0.35831577568E+02  0.35831698258E+02  0.93000000000E-01 0.  1.
          3   -1    0    0  501    0  0.00000000000E+00 -0.00000000000E+00 -0.54122216400E+01  0.54130206059E+01  0.93000000000E-01 0. -1.
        -11    1    1    2    0    0  0.82046863470E+01  0.10446100799E+02  0.90133657216E+01  0.16052372468E+02  0.51100000000E-03 0.  1.
         11    1    1    2    0    0 -0.82046863470E+01 -0.10446100799E+02  0.21405990207E+02  0.25192346396E+02  0.51100000000E-03 0. -1.
<mgrwt>
<rscale>  0 0.27853000E+02</rscale>
<asrwt>0</asrwt>
<pdfrwt beam="2">  1        3 0.83272024E-03 0.27853000E+02</pdfrwt>
<pdfrwt beam="1">  1       -3 0.55126211E-02 0.27853000E+02</pdfrwt>
<totfact> 0.79624865E+05</totfact>
</mgrwt>
</event>
<event>
 4    1  0.1754914E-001  0.2860363E+02  0.7818608E-02  0.1614057E+00
          3   -1    0    0  501    0  0.00000000000E+00  0.00000000000E+00  0.10086113608E+02  0.10086542357E+02  0.93000000000E-01 0. -1.
         -3   -1    0    0    0  501 -0.00000000000E+00 -0.00000000000E+00 -0.20278585169E+02  0.20278798423E+02  0.93000000000E-01 0.  1.
        -11    1    1    2    0    0  0.12398333853E+02  0.71228597199E+01 -0.47812315004E+01  0.15076935625E+02  0.51100000000E-03 0. -1.
         11    1    1    2    0    0 -0.12398333853E+02 -0.71228597199E+01 -0.54112400611E+01  0.15288405155E+02  0.51100000000E-03 0.  1.
<mgrwt>
<rscale>  0 0.28603626E+02</rscale>
<asrwt>0</asrwt>
<pdfrwt beam="1">  1        3 0.15517592E-02 0.28603626E+02</pdfrwt>
<pdfrwt beam="2">  1       -3 0.31198317E-02 0.28603626E+02</pdfrwt>
<totfact> 0.77487104E+05</totfact>
</mgrwt>
</event>
<event>
 4    1  0.1754914E-001  0.2727394E+02  0.7818608E-02  0.1630337E+00
         -3   -1    0    0    0  501 -0.00000000000E+00  0.00000000000E+00  0.55367200022E+01  0.55375010052E+01  0.93000000000E-01 0. -1.
          3   -1    0    0  501    0  0.00000000000E+00 -0.00000000000E+00 -0.33584724568E+02  0.33584853332E+02  0.93000000000E-01 0.  1.
        -11    1    1    2    0    0  0.68540383646E+01 -0.11703903214E+02 -0.11991461012E+02  0.18103986572E+02  0.51100000000E-03 0. -1.
         11    1    1    2    0    0 -0.68540383646E+01  0.11703903214E+02 -0.16056543553E+02  0.21018367764E+02  0.51100000000E-03 0.  1.
<mgrwt>
<rscale>  0 0.27273945E+02</rscale>
<asrwt>0</asrwt>
<pdfrwt beam="2">  1        3 0.51669506E-02 0.27273945E+02</pdfrwt>
<pdfrwt beam="1">  1       -3 0.85187308E-03 0.27273945E+02</pdfrwt>
<totfact> 0.84090717E+05</totfact>
</mgrwt>
</event>
<event>
 4    1  0.1754914E-001  0.2217882E+02  0.7818608E-02  0.1705178E+00
          3   -1    0    0  501    0  0.00000000000E+00  0.00000000000E+00  0.27727673268E+02  0.27727829231E+02  0.93000000000E-01 0.  1.
         -3   -1    0    0    0  501 -0.00000000000E+00 -0.00000000000E+00 -0.44344436616E+01  0.44354187613E+01  0.93000000000E-01 0. -1.
        -11    1    1    2    0    0 -0.70759108538E+00 -0.11047835547E+02  0.10707196416E+02  0.15401279517E+02  0.51100000000E-03 0.  1.
         11    1    1    2    0    0  0.70759108538E+00  0.11047835547E+02  0.12586033191E+02  0.16761968475E+02  0.51100000000E-03 0. -1.
<mgrwt>
<rscale>  0 0.22178818E+02</rscale>
<asrwt>0</asrwt>
<pdfrwt beam="1">  1        3 0.42658830E-02 0.22178818E+02</pdfrwt>
<pdfrwt beam="2">  1       -3 0.68230909E-03 0.22178818E+02</pdfrwt>
<totfact> 0.13682379E+06</totfact>
</mgrwt>
</event>
<event>
 4    1  0.1754914E-001  0.3523863E+02  0.7818608E-02  0.1546492E+00
          3   -1    0    0  501    0  0.00000000000E+00  0.00000000000E+00  0.65092191908E+01  0.65098835222E+01  0.93000000000E-01 0.  1.
         -3   -1    0    0    0  501 -0.00000000000E+00 -0.00000000000E+00 -0.47689241453E+02  0.47689332134E+02  0.93000000000E-01 0. -1.
        -11    1    1    2    0    0  0.79124500763E+01  0.93923664110E+01 -0.11581990727E+01  0.12335511273E+02  0.51100000000E-03 0.  1.
         11    1    1    2    0    0 -0.79124500763E+01 -0.93923664110E+01 -0.40021823190E+02  0.41863704384E+02  0.51100000000E-03 0. -1.
<mgrwt>
<rscale>  0 0.35238626E+02</rscale>
<asrwt>0</asrwt>
<pdfrwt beam="1">  1        3 0.10014764E-02 0.35238626E+02</pdfrwt>
<pdfrwt beam="2">  1       -3 0.73368642E-02 0.35238626E+02</pdfrwt>
<totfact> 0.44182109E+05</totfact>
</mgrwt>
</event>
<event>
 4    1  0.1754914E-001  0.2669079E+02  0.7818608E-02  0.1637840E+00
          3   -1    0    0  501    0  0.00000000000E+00  0.00000000000E+00  0.72053137231E+01  0.72059138802E+01  0.93000000000E-01 0. -1.
         -3   -1    0    0    0  501 -0.00000000000E+00 -0.00000000000E+00 -0.24716091906E+02  0.24716266873E+02  0.93000000000E-01 0.  1.
        -11    1    1    2    0    0 -0.33383200657E+01  0.12167307529E+02 -0.13956519228E+02  0.18814148469E+02  0.51100000000E-03 0.  1.
         11    1    1    2    0    0  0.33383200657E+01 -0.12167307529E+02 -0.35542589548E+01  0.13108032284E+02  0.51100000000E-03 0. -1.
<mgrwt>
<rscale>  0 0.26690790E+02</rscale>
<asrwt>0</asrwt>
<pdfrwt beam="1">  1        3 0.11085694E-02 0.26690790E+02</pdfrwt>
<pdfrwt beam="2">  1       -3 0.38025353E-02 0.26690790E+02</pdfrwt>
<totfact> 0.90387744E+05</totfact>
</mgrwt>
</event>
<event>
 4    1  0.1754914E-001  0.3315015E+02  0.7818608E-02  0.1565669E+00
          3   -1    0    0  501    0  0.00000000000E+00  0.00000000000E+00  0.13839063859E+02  0.13839376340E+02  0.93000000000E-01 0. -1.
         -3   -1    0    0    0  501 -0.00000000000E+00 -0.00000000000E+00 -0.19851359728E+02  0.19851577571E+02  0.93000000000E-01 0.  1.
        -11    1    1    2    0    0  0.69549578917E+01  0.14778961861E+02 -0.58706411568E+01  0.17356658112E+02  0.51100000000E-03 0.  1.
         11    1    1    2    0    0 -0.69549578917E+01 -0.14778961861E+02 -0.14165471304E+00  0.16334295800E+02  0.51100000000E-03 0. -1.
<mgrwt>
<rscale>  0 0.33150153E+02</rscale>
<asrwt>0</asrwt>
<pdfrwt beam="1">  1        3 0.21291275E-02 0.33150153E+02</pdfrwt>
<pdfrwt beam="2">  1       -3 0.30540962E-02 0.33150153E+02</pdfrwt>
<totfact> 0.54254168E+05</totfact>
</mgrwt>
</event>
<event>
 4    1  0.1754914E-001  0.5053383E+02  0.7818608E-02  0.1442483E+00
         -3   -1    0    0    0  501 -0.00000000000E+00  0.00000000000E+00  0.15754236140E+03  0.15754238885E+03  0.93000000000E-01 0. -1.
          3   -1    0    0  501    0  0.00000000000E+00 -0.00000000000E+00 -0.40517902043E+01  0.40528573698E+01  0.93000000000E-01 0.  1.
        -11    1    1    2    0    0  0.23619798938E+02  0.89637608380E+01  0.75414738619E+02  0.79533808607E+02  0.51100000000E-03 0.  1.
         11    1    1    2    0    0 -0.23619798938E+02 -0.89637608380E+01  0.78075832572E+02  0.82061437608E+02  0.51100000000E-03 0. -1.
<mgrwt>
<rscale>  0 0.50533832E+02</rscale>
<asrwt>0</asrwt>
<pdfrwt beam="2">  1        3 0.62343663E-03 0.50533832E+02</pdfrwt>
<pdfrwt beam="1">  1       -3 0.24237367E-01 0.50533832E+02</pdfrwt>
<totfact> 0.14236291E+05</totfact>
</mgrwt>
</event>
<event>
 4    1  0.1754914E-001  0.2687312E+02  0.7818608E-02  0.1635469E+00
         -3   -1    0    0    0  501 -0.00000000000E+00  0.00000000000E+00  0.38375445437E+01  0.38386712707E+01  0.93000000000E-01 0.  1.
          3   -1    0    0  501    0  0.00000000000E+00 -0.00000000000E+00 -0.47037943171E+02  0.47038035108E+02  0.93000000000E-01 0. -1.
        -11    1    1    2    0    0 -0.11092596975E+02 -0.64778600701E+01 -0.29061697404E+02  0.31774056005E+02  0.51100000000E-03 0.  1.
         11    1    1    2    0    0  0.11092596975E+02  0.64778600701E+01 -0.14138701223E+02  0.19102650373E+02  0.51100000000E-03 0. -1.
<mgrwt>
<rscale>  0 0.26873124E+02</rscale>
<asrwt>0</asrwt>
<pdfrwt beam="2">  1        3 0.72367000E-02 0.26873124E+02</pdfrwt>
<pdfrwt beam="1">  1       -3 0.59048524E-03 0.26873124E+02</pdfrwt>
<totfact> 0.83977009E+05</totfact>
</mgrwt>
</event>
<event>
 4    1  0.1754914E-001  0.4424546E+02  0.7818608E-02  0.1479108E+00
         -3   -1    0    0    0  501 -0.00000000000E+00  0.00000000000E+00  0.13744774473E+02  0.13745089098E+02  0.93000000000E-01 0. -1.
          3   -1    0    0  501    0  0.00000000000E+00 -0.00000000000E+00 -0.35606576370E+02  0.35606697822E+02  0.93000000000E-01 0.  1.
        -11    1    1    2    0    0  0.86066662951E+01 -0.75931895976E+01 -0.32026112440E+02  0.34020627732E+02  0.51100000000E-03 0.  1.
         11    1    1    2    0    0 -0.86066662951E+01  0.75931895976E+01  0.10164310543E+02  0.15331159188E+02  0.51100000000E-03 0. -1.
<mgrwt>
<rscale>  0 0.44245457E+02</rscale>
<asrwt>0</asrwt>
<pdfrwt beam="2">  1        3 0.54779684E-02 0.44245457E+02</pdfrwt>
<pdfrwt beam="1">  1       -3 0.21146142E-02 0.44245457E+02</pdfrwt>
<totfact> 0.25718806E+05</totfact>
</mgrwt>
</event>
<event>
 4    1  0.1754914E-001  0.3435947E+02  0.7818608E-02  0.1554363E+00
          3   -1    0    0  501    0  0.00000000000E+00  0.00000000000E+00  0.65824053607E+01  0.65830623066E+01  0.93000000000E-01 0. -1.
         -3   -1    0    0    0  501 -0.00000000000E+00 -0.00000000000E+00 -0.44835283348E+02  0.44835379801E+02  0.93000000000E-01 0.  1.
        -11    1    1    2    0    0  0.16125266925E+02 -0.58333999000E+01 -0.20689238485E+02  0.26871869625E+02  0.51100000000E-03 0.  1.
         11    1    1    2    0    0 -0.16125266925E+02  0.58333999000E+01 -0.17563639503E+02  0.24546572483E+02  0.51100000000E-03 0. -1.
<mgrwt>
<rscale>  0 0.34359475E+02</rscale>
<asrwt>0</asrwt>
<pdfrwt beam="1">  1        3 0.10127357E-02 0.34359475E+02</pdfrwt>
<pdfrwt beam="2">  1       -3 0.68977937E-02 0.34359475E+02</pdfrwt>
<totfact> 0.47289465E+05</totfact>
</mgrwt>
</event>
<event>
 4    1  0.1754914E-001  0.2458144E+02  0.7818608E-02  0.1667088E+00
          3   -1    0    0  501    0  0.00000000000E+00  0.00000000000E+00  0.11561148057E+02  0.11561522106E+02  0.93000000000E-01 0.  1.
         -3   -1    0    0    0  501 -0.00000000000E+00 -0.00000000000E+00 -0.13065580763E+02  0.13065911743E+02  0.93000000000E-01 0. -1.
        -11    1    1    2    0    0  0.11505735108E+02 -0.43045670730E+01 -0.36347394187E+00  0.12289969554E+02  0.51100000000E-03 0. -1.
         11    1    1    2    0    0 -0.11505735108E+02  0.43045670730E+01 -0.11409587639E+01  0.12337464295E+02  0.51100000000E-03 0.  1.
<mgrwt>
<rscale>  0 0.24581440E+02</rscale>
<asrwt>0</asrwt>
<pdfrwt beam="1">  1        3 0.17786924E-02 0.24581440E+02</pdfrwt>
<pdfrwt beam="2">  1       -3 0.20101436E-02 0.24581440E+02</pdfrwt>
<totfact> 0.11163948E+06</totfact>
</mgrwt>
</event>
<event>
 4    1  0.1754914E-001  0.2633031E+02  0.7818608E-02  0.1642598E+00
         -3   -1    0    0    0  501 -0.00000000000E+00  0.00000000000E+00  0.41510999849E+01  0.41521416262E+01  0.93000000000E-01 0.  1.
          3   -1    0    0  501    0  0.00000000000E+00 -0.00000000000E+00 -0.41746761787E+02  0.41746865376E+02  0.93000000000E-01 0. -1.
        -11    1    1    2    0    0 -0.21898884131E+01  0.10185999355E+02 -0.32827192392E+02  0.34440887833E+02  0.51100000000E-03 0. -1.
         11    1    1    2    0    0  0.21898884131E+01 -0.10185999355E+02 -0.47684694100E+01  0.11458119169E+02  0.51100000000E-03 0.  1.
<mgrwt>
<rscale>  0 0.26330307E+02</rscale>
<asrwt>0</asrwt>
<pdfrwt beam="2">  1        3 0.64226665E-02 0.26330307E+02</pdfrwt>
<pdfrwt beam="1">  1       -3 0.63871889E-03 0.26330307E+02</pdfrwt>
<totfact> 0.89272440E+05</totfact>
</mgrwt>
</event>
<event>
 4    1  0.1754914E-001  0.5131247E+02  0.7818608E-02  0.1438388E+00
         -3   -1    0    0    0  501 -0.00000000000E+00  0.00000000000E+00  0.82596988543E+02  0.82597040900E+02  0.93000000000E-01 0. -1.
          3   -1    0    0  501    0  0.00000000000E+00 -0.00000000000E+00 -0.79690005736E+01  0.79695432204E+01  0.93000000000E-01 0.  1.
        -11    1    1    2    0    0  0.46998544990E+01 -0.15703398103E+02  0.72150180010E+02  0.73988741171E+02  0.51100000000E-03 0. -1.
         11    1    1    2    0    0 -0.46998544990E+01  0.15703398103E+02  0.24778079589E+01  0.16577842949E+02  0.51100000000E-03 0.  1.
<mgrwt>
<rscale>  0 0.51312470E+02</rscale>
<asrwt>0</asrwt>
<pdfrwt beam="2">  1        3 0.12260459E-02 0.51312470E+02</pdfrwt>
<pdfrwt beam="1">  1       -3 0.12707274E-01 0.51312470E+02</pdfrwt>
<totfact> 0.15993937E+05</totfact>
</mgrwt>
</event>
<event>
 4    1  0.1754914E-001  0.4149540E+02  0.7818608E-02  0.1497487E+00
         -3   -1    0    0    0  501 -0.00000000000E+00  0.00000000000E+00  0.12857858243E+02  0.12858194570E+02  0.93000000000E-01 0. -1.
          3   -1    0    0  501    0  0.00000000000E+00 -0.00000000000E+00 -0.33478063307E+02  0.33478192480E+02  0.93000000000E-01 0.  1.
        -11    1    1    2    0    0 -0.50969555073E+01  0.10987351656E+02  0.85004921981E+01  0.14797270685E+02  0.51100000000E-03 0. -1.
         11    1    1    2    0    0  0.50969555073E+01 -0.10987351656E+02 -0.29120697261E+02  0.31539116365E+02  0.51100000000E-03 0.  1.
<mgrwt>
<rscale>  0 0.41495396E+02</rscale>
<asrwt>0</asrwt>
<pdfrwt beam="2">  1        3 0.51505071E-02 0.41495396E+02</pdfrwt>
<pdfrwt beam="1">  1       -3 0.19781679E-02 0.41495396E+02</pdfrwt>
<totfact> 0.30386981E+05</totfact>
</mgrwt>
</event>
<event>
 4    1  0.1754914E-001  0.2566334E+02  0.7818608E-02  0.1651653E+00
          3   -1    0    0  501    0  0.00000000000E+00  0.00000000000E+00  0.20389770560E+01  0.20410968705E+01  0.93000000000E-01 0. -1.
         -3   -1    0    0    0  501 -0.00000000000E+00 -0.00000000000E+00 -0.80708037670E+02  0.80708091252E+02  0.93000000000E-01 0.  1.
        -11    1    1    2    0    0  0.56964747835E+01  0.10770790624E+02 -0.52309335648E+02  0.53709648591E+02  0.51100000000E-03 0.  1.
         11    1    1    2    0    0 -0.56964747835E+01 -0.10770790624E+02 -0.26359724966E+02  0.29039539531E+02  0.51100000000E-03 0. -1.
<mgrwt>
<rscale>  0 0.25663340E+02</rscale>
<asrwt>0</asrwt>
<pdfrwt beam="1">  1        3 0.31385603E-03 0.25663340E+02</pdfrwt>
<pdfrwt beam="2">  1       -3 0.12416786E-01 0.25663340E+02</pdfrwt>
<totfact> 0.85488628E+05</totfact>
</mgrwt>
</event>
<event>
 4    1  0.1754914E-001  0.2549160E+02  0.7818608E-02  0.1654040E+00
          3   -1    0    0  501    0  0.00000000000E+00  0.00000000000E+00  0.34478090906E+02  0.34478216333E+02  0.93000000000E-01 0. -1.
         -3   -1    0    0    0  501 -0.00000000000E+00 -0.00000000000E+00 -0.47112507782E+01  0.47121685979E+01  0.93000000000E-01 0.  1.
        -11    1    1    2    0    0  0.10883634172E+02  0.60754150947E+01  0.18977372256E+02  0.22704731211E+02  0.51100000000E-03 0. -1.
         11    1    1    2    0    0 -0.10883634172E+02 -0.60754150947E+01  0.10789467871E+02  0.16485653720E+02  0.51100000000E-03 0.  1.
<mgrwt>
<rscale>  0 0.25491597E+02</rscale>
<asrwt>0</asrwt>
<pdfrwt beam="1">  1        3 0.53044016E-02 0.25491597E+02</pdfrwt>
<pdfrwt beam="2">  1       -3 0.72488811E-03 0.25491597E+02</pdfrwt>
<totfact> 0.98058140E+05</totfact>
</mgrwt>
</event>
<event>
 4    1  0.1754914E-001  0.3129894E+02  0.7818608E-02  0.1584159E+00
          3   -1    0    0  501    0  0.00000000000E+00  0.00000000000E+00  0.11361797460E+03  0.11361801266E+03  0.93000000000E-01 0.  1.
         -3   -1    0    0    0  501 -0.00000000000E+00 -0.00000000000E+00 -0.21544788451E+01  0.21564851249E+01  0.93000000000E-01 0. -1.
        -11    1    1    2    0    0  0.78181954671E+01 -0.13096089287E+02  0.42772534580E+02  0.45410587418E+02  0.51100000000E-03 0. -1.
         11    1    1    2    0    0 -0.78181954671E+01  0.13096089287E+02  0.68690961171E+02  0.70363910365E+02  0.51100000000E-03 0.  1.
<mgrwt>
<rscale>  0 0.31298937E+02</rscale>
<asrwt>0</asrwt>
<pdfrwt beam="1">  1        3 0.17479850E-01 0.31298937E+02</pdfrwt>
<pdfrwt beam="2">  1       -3 0.33161545E-03 0.31298937E+02</pdfrwt>
<totfact> 0.50037606E+05</totfact>
</mgrwt>
</event>
<event>
 4    1  0.1754914E-001  0.2811047E+02  0.7818608E-02  0.1619966E+00
         -3   -1    0    0    0  501 -0.00000000000E+00  0.00000000000E+00  0.15829995937E+02  0.15830269118E+02  0.93000000000E-01 0. -1.
          3   -1    0    0  501    0  0.00000000000E+00 -0.00000000000E+00 -0.12478897634E+02  0.12479244174E+02  0.93000000000E-01 0.  1.
        -11    1    1    2    0    0 -0.13375967240E+02  0.39898982891E+01  0.33346002988E+01  0.14351144462E+02  0.51100000000E-03 0. -1.
         11    1    1    2    0    0  0.13375967240E+02 -0.39898982891E+01  0.16498004460E-01  0.13958368830E+02  0.51100000000E-03 0.  1.
<mgrwt>
<rscale>  0 0.28110473E+02</rscale>
<asrwt>0</asrwt>
<pdfrwt beam="2">  1        3 0.19198781E-02 0.28110473E+02</pdfrwt>
<pdfrwt beam="1">  1       -3 0.24354316E-02 0.28110473E+02</pdfrwt>
<totfact> 0.81201557E+05</totfact>
</mgrwt>
</event>
<event>
 4    1  0.1754914E-001  0.2274688E+02  0.7818608E-02  0.1695646E+00
          3   -1    0    0  501    0  0.00000000000E+00  0.00000000000E+00  0.39606720553E+01  0.39617637650E+01  0.93000000000E-01 0. -1.
         -3   -1    0    0    0  501 -0.00000000000E+00 -0.00000000000E+00 -0.32654250240E+02  0.32654382673E+02  0.93000000000E-01 0.  1.
        -11    1    1    2    0    0 -0.99725186419E+01 -0.54409720457E+01 -0.15228297281E+02  0.18998851102E+02  0.51100000000E-03 0. -1.
         11    1    1    2    0    0  0.99725186419E+01  0.54409720457E+01 -0.13465280904E+02  0.17617295336E+02  0.51100000000E-03 0.  1.
<mgrwt>
<rscale>  0 0.22746884E+02</rscale>
<asrwt>0</asrwt>
<pdfrwt beam="1">  1        3 0.60942835E-03 0.22746884E+02</pdfrwt>
<pdfrwt beam="2">  1       -3 0.50238248E-02 0.22746884E+02</pdfrwt>
<totfact> 0.12755504E+06</totfact>
</mgrwt>
</event>
<event>
 4    1  0.1754914E-001  0.2840604E+02  0.7818608E-02  0.1616407E+00
          3   -1    0    0  501    0  0.00000000000E+00  0.00000000000E+00  0.21516963938E+02  0.21517164918E+02  0.93000000000E-01 0.  1.
         -3   -1    0    0    0  501 -0.00000000000E+00 -0.00000000000E+00 -0.93747225066E+01  0.93751837889E+01  0.93000000000E-01 0. -1.
        -11    1    1    2    0    0  0.51038502932E+01 -0.11815296579E+02  0.12603103541E+02  0.18013571001E+02  0.51100000000E-03 0.  1.
         11    1    1    2    0    0 -0.51038502932E+01  0.11815296579E+02 -0.46086210958E+00  0.12878777706E+02  0.51100000000E-03 0. -1.
<mgrwt>
<rscale>  0 0.28406041E+02</rscale>
<asrwt>0</asrwt>
<pdfrwt beam="1">  1        3 0.33103530E-02 0.28406041E+02</pdfrwt>
<pdfrwt beam="2">  1       -3 0.14423160E-02 0.28406041E+02</pdfrwt>
<totfact> 0.78600253E+05</totfact>
</mgrwt>
</event>
<event>
 4    1  0.1754914E-001  0.4025006E+02  0.7818608E-02  0.1506379E+00
         -3   -1    0    0    0  501 -0.00000000000E+00  0.00000000000E+00  0.33312878679E+01  0.33325857616E+01  0.93000000000E-01 0. -1.
          3   -1    0    0  501    0  0.00000000000E+00 -0.00000000000E+00 -0.12155468521E+03  0.12155472079E+03  0.93000000000E-01 0.  1.
        -11    1    1    2    0    0 -0.31317313761E+01 -0.19439963217E+02 -0.72016078946E+02  0.74659463823E+02  0.51100000000E-03 0.  1.
         11    1    1    2    0    0  0.31317313761E+01  0.19439963217E+02 -0.46207318401E+02  0.50227842730E+02  0.51100000000E-03 0. -1.
<mgrwt>
<rscale>  0 0.40250064E+02</rscale>
<asrwt>0</asrwt>
<pdfrwt beam="2">  1        3 0.18700820E-01 0.40250064E+02</pdfrwt>
<pdfrwt beam="1">  1       -3 0.51260849E-03 0.40250064E+02</pdfrwt>
<totfact> 0.26949027E+05</totfact>
</mgrwt>
</event>
<event>
 4    1  0.1754914E-001  0.2168370E+02  0.7818608E-02  0.1713780E+00
         -3   -1    0    0    0  501 -0.00000000000E+00  0.00000000000E+00  0.32417959129E+01  0.32431296214E+01  0.93000000000E-01 0.  1.
          3   -1    0    0  501    0  0.00000000000E+00 -0.00000000000E+00 -0.36250602837E+02  0.36250722131E+02  0.93000000000E-01 0. -1.
        -11    1    1    2    0    0  0.67855610608E+01 -0.79089231052E+01 -0.21953544264E+02  0.24301296459E+02  0.51100000000E-03 0.  1.
         11    1    1    2    0    0 -0.67855610608E+01  0.79089231052E+01 -0.11055262660E+02  0.15192555293E+02  0.51100000000E-03 0. -1.
<mgrwt>
<rscale>  0 0.21683703E+02</rscale>
<asrwt>0</asrwt>
<pdfrwt beam="2">  1        3 0.55771273E-02 0.21683703E+02</pdfrwt>
<pdfrwt beam="1">  1       -3 0.49884963E-03 0.21683703E+02</pdfrwt>
<totfact> 0.14042414E+06</totfact>
</mgrwt>
</event>
<event>
 4    1  0.1754914E-001  0.2573234E+02  0.7818608E-02  0.1650701E+00
          3   -1    0    0  501    0  0.00000000000E+00  0.00000000000E+00  0.20695071122E+02  0.20695280084E+02  0.93000000000E-01 0.  1.
         -3   -1    0    0    0  501 -0.00000000000E+00 -0.00000000000E+00 -0.79984035581E+01  0.79989442102E+01  0.93000000000E-01 0. -1.
        -11    1    1    2    0    0 -0.12516649330E+02  0.18452054142E+01  0.89556245275E+01  0.15500790445E+02  0.51100000000E-03 0.  1.
         11    1    1    2    0    0  0.12516649330E+02 -0.18452054142E+01  0.37410430362E+01  0.13193433849E+02  0.51100000000E-03 0. -1.
<mgrwt>
<rscale>  0 0.25732336E+02</rscale>
<asrwt>0</asrwt>
<pdfrwt beam="1">  1        3 0.31839147E-02 0.25732336E+02</pdfrwt>
<pdfrwt beam="2">  1       -3 0.12305813E-02 0.25732336E+02</pdfrwt>
<totfact> 0.99277482E+05</totfact>
</mgrwt>
</event>
<event>
 4    1  0.1754914E-001  0.2648342E+02  0.7818608E-02  0.1640566E+00
         -3   -1    0    0    0  501 -0.00000000000E+00  0.00000000000E+00  0.70324848707E+01  0.70330997758E+01  0.93000000000E-01 0.  1.
          3   -1    0    0  501    0  0.00000000000E+00 -0.00000000000E+00 -0.24931490692E+02  0.24931664146E+02  0.93000000000E-01 0. -1.
        -11    1    1    2    0    0 -0.84652124055E+00 -0.11924699488E+02 -0.15822665482E+02  0.19831081647E+02  0.51100000000E-03 0. -1.
         11    1    1    2    0    0  0.84652124055E+00  0.11924699488E+02 -0.20763403386E+01  0.12133682275E+02  0.51100000000E-03 0.  1.
<mgrwt>
<rscale>  0 0.26483424E+02</rscale>
<asrwt>0</asrwt>
<pdfrwt beam="2">  1        3 0.38356746E-02 0.26483424E+02</pdfrwt>
<pdfrwt beam="1">  1       -3 0.10819814E-02 0.26483424E+02</pdfrwt>
<totfact> 0.91992726E+05</totfact>
</mgrwt>
</event>
<event>
 4    1  0.1754914E-001  0.3155722E+02  0.7818608E-02  0.1581487E+00
          3   -1    0    0  501    0  0.00000000000E+00  0.00000000000E+00  0.13161313213E+02  0.13161641786E+02  0.93000000000E-01 0. -1.
         -3   -1    0    0    0  501 -0.00000000000E+00 -0.00000000000E+00 -0.18915712267E+02  0.18915940885E+02  0.93000000000E-01 0.  1.
        -11    1    1    2    0    0 -0.88877040323E+01 -0.12622920396E+02 -0.61921316982E+01  0.16633457173E+02  0.51100000000E-03 0. -1.
         11    1    1    2    0    0  0.88877040323E+01  0.12622920396E+02  0.43773264430E+00  0.15444125499E+02  0.51100000000E-03 0.  1.
<mgrwt>
<rscale>  0 0.31557221E+02</rscale>
<asrwt>0</asrwt>
<pdfrwt beam="1">  1        3 0.20248603E-02 0.31557221E+02</pdfrwt>
<pdfrwt beam="2">  1       -3 0.29101524E-02 0.31557221E+02</pdfrwt>
<totfact> 0.61261736E+05</totfact>
</mgrwt>
</event>
<event>
 4    1  0.1754914E-001  0.2956143E+02  0.7818608E-02  0.1602988E+00
         -3   -1    0    0    0  501 -0.00000000000E+00  0.00000000000E+00  0.50979094618E+01  0.50987576801E+01  0.93000000000E-01 0. -1.
          3   -1    0    0  501    0  0.00000000000E+00 -0.00000000000E+00 -0.42850263619E+02  0.42850364540E+02  0.93000000000E-01 0.  1.
        -11    1    1    2    0    0  0.11073896240E+02  0.10175001938E+01 -0.34669239730E+02  0.36409101448E+02  0.51100000000E-03 0.  1.
         11    1    1    2    0    0 -0.11073896240E+02 -0.10175001938E+01 -0.30831144274E+01  0.11540020772E+02  0.51100000000E-03 0. -1.
<mgrwt>
<rscale>  0 0.29561429E+02</rscale>
<asrwt>0</asrwt>
<pdfrwt beam="2">  1        3 0.65924210E-02 0.29561429E+02</pdfrwt>
<pdfrwt beam="1">  1       -3 0.78436680E-03 0.29561429E+02</pdfrwt>
<totfact> 0.68028647E+05</totfact>
</mgrwt>
</event>
<event>
 4    1  0.1754914E-001  0.6546789E+02  0.7818608E-02  0.1376220E+00
         -3   -1    0    0    0  501 -0.00000000000E+00  0.00000000000E+00  0.12696606402E+03  0.12696609808E+03  0.93000000000E-01 0.  1.
          3   -1    0    0  501    0  0.00000000000E+00 -0.00000000000E+00 -0.84390582940E+01  0.84395707172E+01  0.93000000000E-01 0. -1.
        -11    1    1    2    0    0 -0.54461730408E+01 -0.22928820302E+02  0.12275863337E+02  0.26572324365E+02  0.51100000000E-03 0. -1.
         11    1    1    2    0    0  0.54461730408E+01  0.22928820302E+02  0.10625114239E+03  0.10883334443E+03  0.51100000000E-03 0.  1.
<mgrwt>
<rscale>  0 0.65467886E+02</rscale>
<asrwt>0</asrwt>
<pdfrwt beam="2">  1        3 0.12983587E-02 0.65467886E+02</pdfrwt>
<pdfrwt beam="1">  1       -3 0.19533282E-01 0.65467886E+02</pdfrwt>
<totfact> 0.77628004E+04</totfact>
</mgrwt>
</event>
<event>
 4    1  0.1754914E-001  0.3271522E+02  0.7818608E-02  0.1569879E+00
         -3   -1    0    0    0  501 -0.00000000000E+00  0.00000000000E+00  0.18132971529E+02  0.18133210016E+02  0.93000000000E-01 0.  1.
          3   -1    0    0  501    0  0.00000000000E+00 -0.00000000000E+00 -0.14755591981E+02  0.14755885054E+02  0.93000000000E-01 0. -1.
        -11    1    1    2    0    0 -0.43872819860E+01  0.11801753168E+02 -0.88091183290E+01  0.15366528139E+02  0.51100000000E-03 0. -1.
         11    1    1    2    0    0  0.43872819860E+01 -0.11801753168E+02  0.12186497877E+02  0.17522566930E+02  0.51100000000E-03 0.  1.
<mgrwt>
<rscale>  0 0.32715224E+02</rscale>
<asrwt>0</asrwt>
<pdfrwt beam="2">  1        3 0.22701320E-02 0.32715224E+02</pdfrwt>
<pdfrwt beam="1">  1       -3 0.27897288E-02 0.32715224E+02</pdfrwt>
<totfact> 0.56118683E+05</totfact>
</mgrwt>
</event>
<event>
 4    1  0.1754914E-001  0.3752226E+02  0.7818608E-02  0.1527279E+00
          3   -1    0    0  501    0  0.00000000000E+00  0.00000000000E+00  0.14986175389E+03  0.14986178275E+03  0.93000000000E-01 0.  1.
         -3   -1    0    0    0  501 -0.00000000000E+00 -0.00000000000E+00 -0.23477476784E+01  0.23495889346E+01  0.93000000000E-01 0. -1.
        -11    1    1    2    0    0  0.15336140426E+02  0.93959589746E+01  0.95412611957E+02  0.97092985169E+02  0.51100000000E-03 0.  1.
         11    1    1    2    0    0 -0.15336140426E+02 -0.93959589746E+01  0.52101394255E+02  0.55118386513E+02  0.51100000000E-03 0. -1.
<mgrwt>
<rscale>  0 0.37522255E+02</rscale>
<asrwt>0</asrwt>
<pdfrwt beam="1">  1        3 0.23055795E-01 0.37522255E+02</pdfrwt>
<pdfrwt beam="2">  1       -3 0.36133586E-03 0.37522255E+02</pdfrwt>
<totfact> 0.30088783E+05</totfact>
</mgrwt>
</event>
<event>
 4    1  0.1754914E-001  0.2022013E+02  0.7818608E-02  0.1740986E+00
          3   -1    0    0  501    0  0.00000000000E+00  0.00000000000E+00  0.37654279686E+02  0.37654394533E+02  0.93000000000E-01 0.  1.
         -3   -1    0    0    0  501 -0.00000000000E+00 -0.00000000000E+00 -0.27136066921E+01  0.27151998599E+01  0.93000000000E-01 0. -1.
        -11    1    1    2    0    0  0.97494375448E+01  0.22854315473E+01  0.20250179532E+02  0.22590805677E+02  0.51100000000E-03 0. -1.
         11    1    1    2    0    0 -0.97494375448E+01 -0.22854315473E+01  0.14690493462E+02  0.17778788716E+02  0.51100000000E-03 0.  1.
<mgrwt>
<rscale>  0 0.20220127E+02</rscale>
<asrwt>0</asrwt>
<pdfrwt beam="1">  1        3 0.57930974E-02 0.20220127E+02</pdfrwt>
<pdfrwt beam="2">  1       -3 0.41760935E-03 0.20220127E+02</pdfrwt>
<totfact> 0.16303840E+06</totfact>
</mgrwt>
</event>
<event>
 4    1  0.1754914E-001  0.3556492E+02  0.7818608E-02  0.1543640E+00
         -3   -1    0    0    0  501 -0.00000000000E+00  0.00000000000E+00  0.62040083014E+02  0.62040152719E+02  0.93000000000E-01 0.  1.
          3   -1    0    0  501    0  0.00000000000E+00 -0.00000000000E+00 -0.50964630424E+01  0.50973115014E+01  0.93000000000E-01 0. -1.
        -11    1    1    2    0    0 -0.69244885290E+01  0.16222507811E+02  0.24209724046E+02  0.29953781726E+02  0.51100000000E-03 0.  1.
         11    1    1    2    0    0  0.69244885290E+01 -0.16222507811E+02  0.32733895926E+02  0.37183682494E+02  0.51100000000E-03 0. -1.
<mgrwt>
<rscale>  0 0.35564916E+02</rscale>
<asrwt>0</asrwt>
<pdfrwt beam="2">  1        3 0.78414185E-03 0.35564916E+02</pdfrwt>
<pdfrwt beam="1">  1       -3 0.95446990E-02 0.35564916E+02</pdfrwt>
<totfact> 0.41732245E+05</totfact>
</mgrwt>
</event>
<event>
 4    1  0.1754914E-001  0.2065018E+02  0.7818608E-02  0.1732699E+00
         -3   -1    0    0    0  501 -0.00000000000E+00  0.00000000000E+00  0.28109904623E+01  0.28125284672E+01  0.93000000000E-01 0. -1.
          3   -1    0    0  501    0  0.00000000000E+00 -0.00000000000E+00 -0.37913282571E+02  0.37913396634E+02  0.93000000000E-01 0.  1.
        -11    1    1    2    0    0  0.64325433393E+01  0.80717574385E+01 -0.18097101504E+02  0.20833529827E+02  0.51100000000E-03 0.  1.
         11    1    1    2    0    0 -0.64325433393E+01 -0.80717574385E+01 -0.17005190605E+02  0.19892395274E+02  0.51100000000E-03 0. -1.
<mgrwt>
<rscale>  0 0.20650183E+02</rscale>
<asrwt>0</asrwt>
<pdfrwt beam="2">  1        3 0.58329394E-02 0.20650183E+02</pdfrwt>
<pdfrwt beam="1">  1       -3 0.43258718E-03 0.20650183E+02</pdfrwt>
<totfact> 0.15560062E+06</totfact>
</mgrwt>
</event>
<event>
 4    1  0.1754914E-001  0.2199298E+02  0.7818608E-02  0.1708373E+00
         -3   -1    0    0    0  501 -0.00000000000E+00  0.00000000000E+00  0.45281200173E+01  0.45290749487E+01  0.93000000000E-01 0.  1.
          3   -1    0    0  501    0  0.00000000000E+00 -0.00000000000E+00 -0.26701002291E+02  0.26701164251E+02  0.93000000000E-01 0. -1.
        -11    1    1    2    0    0  0.98084612213E+01 -0.48358015878E+01 -0.12725241755E+02  0.16778637207E+02  0.51100000000E-03 0.  1.
         11    1    1    2    0    0 -0.98084612213E+01  0.48358015878E+01 -0.94476405185E+01  0.14451601993E+02  0.51100000000E-03 0. -1.
<mgrwt>
<rscale>  0 0.21992979E+02</rscale>
<asrwt>0</asrwt>
<pdfrwt beam="2">  1        3 0.41079323E-02 0.21992979E+02</pdfrwt>
<pdfrwt beam="1">  1       -3 0.69671978E-03 0.21992979E+02</pdfrwt>
<totfact> 0.13981119E+06</totfact>
</mgrwt>
</event>
<event>
 4    1  0.1754914E-001  0.3246435E+02  0.7818608E-02  0.1572344E+00
          3   -1    0    0  501    0  0.00000000000E+00  0.00000000000E+00  0.16739376499E+03  0.16739379082E+03  0.93000000000E-01 0.  1.
         -3   -1    0    0    0  501 -0.00000000000E+00 -0.00000000000E+00 -0.15726341717E+01  0.15753816166E+01  0.93000000000E-01 0. -1.
        -11    1    1    2    0    0  0.13175278595E+02 -0.94463646618E+01  0.78676816919E+02  0.80329716121E+02  0.51100000000E-03 0.  1.
         11    1    1    2    0    0 -0.13175278595E+02  0.94463646618E+01  0.87144313899E+02  0.88639456319E+02  0.51100000000E-03 0. -1.
<mgrwt>
<rscale>  0 0.32464347E+02</rscale>
<asrwt>0</asrwt>
<pdfrwt beam="1">  1        3 0.25753089E-01 0.32464347E+02</pdfrwt>
<pdfrwt beam="2">  1       -3 0.24215715E-03 0.32464347E+02</pdfrwt>
<totfact> 0.40947517E+05</totfact>
</mgrwt>
</event>
<event>
 4    1  0.1754914E-001  0.4459575E+02  0.7818608E-02  0.1476881E+00
          3   -1    0    0  501    0  0.00000000000E+00  0.00000000000E+00  0.59596542232E+01  0.59603798084E+01  0.93000000000E-01 0. -1.
         -3   -1    0    0    0  501 -0.00000000000E+00 -0.00000000000E+00 -0.83421027899E+02  0.83421079738E+02  0.93000000000E-01 0.  1.
        -11    1    1    2    0    0 -0.17225461061E+02  0.97730121690E+01 -0.18196369997E+02  0.26894909499E+02  0.51100000000E-03 0. -1.
         11    1    1    2    0    0  0.17225461061E+02 -0.97730121690E+01 -0.59265003678E+02  0.62486550047E+02  0.51100000000E-03 0.  1.
<mgrwt>
<rscale>  0 0.44595750E+02</rscale>
<asrwt>0</asrwt>
<pdfrwt beam="1">  1        3 0.91692975E-03 0.44595750E+02</pdfrwt>
<pdfrwt beam="2">  1       -3 0.12834063E-01 0.44595750E+02</pdfrwt>
<totfact> 0.22762784E+05</totfact>
</mgrwt>
</event>
<event>
 4    1  0.1754914E-001  0.3021523E+02  0.7818608E-02  0.1595722E+00
          3   -1    0    0  501    0  0.00000000000E+00  0.00000000000E+00  0.51839911501E+02  0.51839994921E+02  0.93000000000E-01 0. -1.
         -3   -1    0    0    0  501 -0.00000000000E+00 -0.00000000000E+00 -0.44022072491E+01  0.44031894876E+01  0.93000000000E-01 0.  1.
        -11    1    1    2    0    0  0.75247478065E+01 -0.76848057406E+01  0.43467610488E+02  0.44778468382E+02  0.51100000000E-03 0. -1.
         11    1    1    2    0    0 -0.75247478065E+01  0.76848057406E+01  0.39700937637E+01  0.11464716027E+02  0.51100000000E-03 0.  1.
<mgrwt>
<rscale>  0 0.30215228E+02</rscale>
<asrwt>0</asrwt>
<pdfrwt beam="1">  1        3 0.79754529E-02 0.30215228E+02</pdfrwt>
<pdfrwt beam="2">  1       -3 0.67734464E-03 0.30215228E+02</pdfrwt>
<totfact> 0.63133396E+05</totfact>
</mgrwt>
</event>
<event>
 4    1  0.1754914E-001  0.2730381E+02  0.7818608E-02  0.1629958E+00
         -3   -1    0    0    0  501 -0.00000000000E+00  0.00000000000E+00  0.21267444629E+01  0.21287768813E+01  0.93000000000E-01 0.  1.
          3   -1    0    0  501    0  0.00000000000E+00 -0.00000000000E+00 -0.87589814639E+02  0.87589864011E+02  0.93000000000E-01 0. -1.
        -11    1    1    2    0    0  0.91031363961E+01  0.66527128842E+01 -0.68024479682E+02  0.68952559903E+02  0.51100000000E-03 0. -1.
         11    1    1    2    0    0 -0.91031363961E+01 -0.66527128842E+01 -0.17438590495E+02  0.20766080990E+02  0.51100000000E-03 0.  1.
<mgrwt>
<rscale>  0 0.27303812E+02</rscale>
<asrwt>0</asrwt>
<pdfrwt beam="2">  1        3 0.13475513E-01 0.27303812E+02</pdfrwt>
<pdfrwt beam="1">  1       -3 0.32735166E-03 0.27303812E+02</pdfrwt>
<totfact> 0.72968246E+05</totfact>
</mgrwt>
</event>
<event>
 4    1  0.1754914E-001  0.2770150E+02  0.7818608E-02  0.1624980E+00
         -3   -1    0    0    0  501 -0.00000000000E+00  0.00000000000E+00  0.10594533445E+02  0.10594941620E+02  0.93000000000E-01 0. -1.
          3   -1    0    0  501    0  0.00000000000E+00 -0.00000000000E+00 -0.18106886971E+02  0.18107125801E+02  0.93000000000E-01 0.  1.
        -11    1    1    2    0    0  0.89528987228E+01  0.10463274454E+02 -0.22162937727E+01  0.13947991475E+02  0.51100000000E-03 0. -1.
         11    1    1    2    0    0 -0.89528987228E+01 -0.10463274454E+02 -0.52960597532E+01  0.14754075946E+02  0.51100000000E-03 0.  1.
<mgrwt>
<rscale>  0 0.27701502E+02</rscale>
<asrwt>0</asrwt>
<pdfrwt beam="2">  1        3 0.27857247E-02 0.27701502E+02</pdfrwt>
<pdfrwt beam="1">  1       -3 0.16299780E-02 0.27701502E+02</pdfrwt>
<totfact> 0.83878117E+05</totfact>
</mgrwt>
</event>
<event>
 4    1  0.1754914E-001  0.2292235E+02  0.7818608E-02  0.1692772E+00
          3   -1    0    0  501    0  0.00000000000E+00  0.00000000000E+00  0.38554950150E+01  0.38566164977E+01  0.93000000000E-01 0.  1.
         -3   -1    0    0    0  501 -0.00000000000E+00 -0.00000000000E+00 -0.34064325951E+02  0.34064452902E+02  0.93000000000E-01 0. -1.
        -11    1    1    2    0    0 -0.10430980043E+02 -0.67347763873E+00 -0.22881442467E+02  0.25155900430E+02  0.51100000000E-03 0. -1.
         11    1    1    2    0    0  0.10430980043E+02  0.67347763873E+00 -0.73273884691E+01  0.12765168970E+02  0.51100000000E-03 0.  1.
<mgrwt>
<rscale>  0 0.22922348E+02</rscale>
<asrwt>0</asrwt>
<pdfrwt beam="1">  1        3 0.59324913E-03 0.22922348E+02</pdfrwt>
<pdfrwt beam="2">  1       -3 0.52407614E-02 0.22922348E+02</pdfrwt>
<totfact> 0.12488640E+06</totfact>
</mgrwt>
</event>
<event>
 4    1  0.1754914E-001  0.2204614E+02  0.7818608E-02  0.1707455E+00
          3   -1    0    0  501    0  0.00000000000E+00  0.00000000000E+00  0.81389302612E+01  0.81394615790E+01  0.93000000000E-01 0.  1.
         -3   -1    0    0    0  501 -0.00000000000E+00 -0.00000000000E+00 -0.14928085707E+02  0.14928375393E+02  0.93000000000E-01 0. -1.
        -11    1    1    2    0    0  0.89425555114E+01  0.56774273120E+01 -0.65864631702E+01  0.12473330642E+02  0.51100000000E-03 0. -1.
         11    1    1    2    0    0 -0.89425555114E+01 -0.56774273120E+01 -0.20269227597E+00  0.10594506330E+02  0.51100000000E-03 0.  1.
<mgrwt>
<rscale>  0 0.22046144E+02</rscale>
<asrwt>0</asrwt>
<pdfrwt beam="1">  1        3 0.12522063E-02 0.22046144E+02</pdfrwt>
<pdfrwt beam="2">  1       -3 0.22966917E-02 0.22046144E+02</pdfrwt>
<totfact> 0.14301467E+06</totfact>
</mgrwt>
</event>
<event>
 4    1  0.1754914E-001  0.2801756E+02  0.7818608E-02  0.1621096E+00
         -3   -1    0    0    0  501 -0.00000000000E+00  0.00000000000E+00  0.24193774985E+02  0.24193953729E+02  0.93000000000E-01 0.  1.
          3   -1    0    0  501    0  0.00000000000E+00 -0.00000000000E+00 -0.81109461153E+01  0.81114792662E+01  0.93000000000E-01 0. -1.
        -11    1    1    2    0    0 -0.83979358969E+01 -0.10545680687E+02  0.36493678810E+01  0.13966194710E+02  0.51100000000E-03 0. -1.
         11    1    1    2    0    0  0.83979358969E+01  0.10545680687E+02  0.12433460989E+02  0.18339238286E+02  0.51100000000E-03 0.  1.
<mgrwt>
<rscale>  0 0.28017559E+02</rscale>
<asrwt>0</asrwt>
<pdfrwt beam="2">  1        3 0.12478926E-02 0.28017559E+02</pdfrwt>
<pdfrwt beam="1">  1       -3 0.37221740E-02 0.28017559E+02</pdfrwt>
<totfact> 0.80771495E+05</totfact>
</mgrwt>
</event>
<event>
 4    1  0.1754914E-001  0.2153676E+02  0.7818608E-02  0.1716389E+00
         -3   -1    0    0    0  501 -0.00000000000E+00  0.00000000000E+00  0.33962020165E+01  0.33974751120E+01  0.93000000000E-01 0.  1.
          3   -1    0    0  501    0  0.00000000000E+00 -0.00000000000E+00 -0.34135715676E+02  0.34135842362E+02  0.93000000000E-01 0. -1.
        -11    1    1    2    0    0 -0.10552830835E+02 -0.21315503944E+01 -0.14971167828E+02  0.18440217247E+02  0.51100000000E-03 0.  1.
         11    1    1    2    0    0  0.10552830835E+02  0.21315503944E+01 -0.15768345832E+02  0.19093100227E+02  0.51100000000E-03 0. -1.
<mgrwt>
<rscale>  0 0.21536764E+02</rscale>
<asrwt>0</asrwt>
<pdfrwt beam="2">  1        3 0.52517560E-02 0.21536764E+02</pdfrwt>
<pdfrwt beam="1">  1       -3 0.52260032E-03 0.21536764E+02</pdfrwt>
<totfact> 0.14341808E+06</totfact>
</mgrwt>
</event>
<event>
 4    1  0.1754914E-001  0.2723041E+02  0.7818608E-02  0.1630889E+00
         -3   -1    0    0    0  501 -0.00000000000E+00  0.00000000000E+00  0.27043207150E+01  0.27059193502E+01  0.93000000000E-01 0.  1.
          3   -1    0    0  501    0  0.00000000000E+00 -0.00000000000E+00 -0.68525410014E+02  0.68525473122E+02  0.93000000000E-01 0. -1.
        -11    1    1    2    0    0 -0.12311543181E+02 -0.10405213344E+01 -0.47873056516E+02  0.49441746739E+02  0.51100000000E-03 0. -1.
         11    1    1    2    0    0  0.12311543181E+02  0.10405213344E+01 -0.17948032782E+02  0.21789645733E+02  0.51100000000E-03 0.  1.
<mgrwt>
<rscale>  0 0.27230415E+02</rscale>
<asrwt>0</asrwt>
<pdfrwt beam="2">  1        3 0.10542497E-01 0.27230415E+02</pdfrwt>
<pdfrwt beam="1">  1       -3 0.41617722E-03 0.27230415E+02</pdfrwt>
<totfact> 0.77001415E+05</totfact>
</mgrwt>
</event>
<event>
 4    1  0.1754914E-001  0.2828852E+02  0.7818608E-02  0.1617816E+00
         -3   -1    0    0    0  501 -0.00000000000E+00  0.00000000000E+00  0.13973216902E+02  0.13973526384E+02  0.93000000000E-01 0.  1.
          3   -1    0    0  501    0  0.00000000000E+00 -0.00000000000E+00 -0.14316779537E+02  0.14317081592E+02  0.93000000000E-01 0. -1.
        -11    1    1    2    0    0  0.89122345319E+00  0.13938428829E+02 -0.24048898667E+01  0.14172422976E+02  0.51100000000E-03 0. -1.
         11    1    1    2    0    0 -0.89122345319E+00 -0.13938428829E+02  0.20613272319E+01  0.14118185000E+02  0.51100000000E-03 0.  1.
<mgrwt>
<rscale>  0 0.28288522E+02</rscale>
<asrwt>0</asrwt>
<pdfrwt beam="2">  1        3 0.22026285E-02 0.28288522E+02</pdfrwt>
<pdfrwt beam="1">  1       -3 0.21497727E-02 0.28288522E+02</pdfrwt>
<totfact> 0.80032266E+05</totfact>
</mgrwt>
</event>
<event>
 4    1  0.1754914E-001  0.2381445E+02  0.7818608E-02  0.1678638E+00
          3   -1    0    0  501    0  0.00000000000E+00  0.00000000000E+00  0.71072411662E+02  0.71072472509E+02  0.93000000000E-01 0. -1.
         -3   -1    0    0    0  501 -0.00000000000E+00 -0.00000000000E+00 -0.19937490956E+01  0.19959169462E+01  0.93000000000E-01 0.  1.
        -11    1    1    2    0    0 -0.77287927049E+01 -0.90471579701E+01  0.33178628818E+02  0.35247790208E+02  0.51100000000E-03 0.  1.
         11    1    1    2    0    0  0.77287927049E+01  0.90471579701E+01  0.35900033748E+02  0.37820599247E+02  0.51100000000E-03 0. -1.
<mgrwt>
<rscale>  0 0.23814448E+02</rscale>
<asrwt>0</asrwt>
<pdfrwt beam="1">  1        3 0.10934387E-01 0.23814448E+02</pdfrwt>
<pdfrwt beam="2">  1       -3 0.30690212E-03 0.23814448E+02</pdfrwt>
<totfact> 0.10365550E+06</totfact>
</mgrwt>
</event>
<event>
 4    1  0.1754914E-001  0.7123172E+02  0.7818608E-02  0.1355954E+00
          3   -1    0    0  501    0  0.00000000000E+00  0.00000000000E+00  0.74454718165E+01  0.74460526166E+01  0.93000000000E-01 0. -1.
         -3   -1    0    0    0  501 -0.00000000000E+00 -0.00000000000E+00 -0.17036337100E+03  0.17036339639E+03  0.93000000000E-01 0.  1.
        -11    1    1    2    0    0  0.10281124011E+02  0.34031976259E+02 -0.76097815494E+02  0.83992585639E+02  0.51100000000E-03 0. -1.
         11    1    1    2    0    0 -0.10281124011E+02 -0.34031976259E+02 -0.86820083693E+02  0.93816863365E+02  0.51100000000E-03 0.  1.
<mgrwt>
<rscale>  0 0.71231722E+02</rscale>
<asrwt>0</asrwt>
<pdfrwt beam="1">  1        3 0.11455040E-02 0.71231722E+02</pdfrwt>
<pdfrwt beam="2">  1       -3 0.26209793E-01 0.71231722E+02</pdfrwt>
<totfact> 0.57240595E+04</totfact>
</mgrwt>
</event>
<event>
 4    1  0.1754914E-001  0.2146456E+02  0.7818608E-02  0.1717680E+00
          3   -1    0    0  501    0  0.00000000000E+00  0.00000000000E+00  0.22122496873E+02  0.22122692351E+02  0.93000000000E-01 0.  1.
         -3   -1    0    0    0  501 -0.00000000000E+00 -0.00000000000E+00 -0.52059146575E+01  0.52067452810E+01  0.93000000000E-01 0. -1.
        -11    1    1    2    0    0 -0.83422106108E+00  0.10015753456E+02  0.13251241532E+02  0.16631495557E+02  0.51100000000E-03 0.  1.
         11    1    1    2    0    0  0.83422106108E+00 -0.10015753456E+02  0.36653406832E+01  0.10697942076E+02  0.51100000000E-03 0. -1.
<mgrwt>
<rscale>  0 0.21464562E+02</rscale>
<asrwt>0</asrwt>
<pdfrwt beam="1">  1        3 0.34035399E-02 0.21464562E+02</pdfrwt>
<pdfrwt beam="2">  1       -3 0.80098889E-03 0.21464562E+02</pdfrwt>
<totfact> 0.14942707E+06</totfact>
</mgrwt>
</event>
<event>
 4    1  0.1754914E-001  0.2665510E+02  0.7818608E-02  0.1638307E+00
          3   -1    0    0  501    0  0.00000000000E+00  0.00000000000E+00  0.36243739541E+01  0.36255669293E+01  0.93000000000E-01 0.  1.
         -3   -1    0    0    0  501 -0.00000000000E+00 -0.00000000000E+00 -0.48998764706E+02  0.48998852963E+02  0.93000000000E-01 0. -1.
        -11    1    1    2    0    0 -0.33108212286E+01  0.11468159201E+02 -0.10983349535E+02  0.16220794676E+02  0.51100000000E-03 0.  1.
         11    1    1    2    0    0  0.33108212286E+01 -0.11468159201E+02 -0.34391041217E+02  0.36403625217E+02  0.51100000000E-03 0. -1.
<mgrwt>
<rscale>  0 0.26655098E+02</rscale>
<asrwt>0</asrwt>
<pdfrwt beam="1">  1        3 0.55769459E-03 0.26655098E+02</pdfrwt>
<pdfrwt beam="2">  1       -3 0.75383696E-02 0.26655098E+02</pdfrwt>
<totfact> 0.85129722E+05</totfact>
</mgrwt>
</event>
<event>
 4    1  0.1754914E-001  0.3673860E+02  0.7818608E-02  0.1533682E+00
          3   -1    0    0  501    0  0.00000000000E+00  0.00000000000E+00  0.26792042341E+01  0.26808178468E+01  0.93000000000E-01 0. -1.
         -3   -1    0    0    0  501 -0.00000000000E+00 -0.00000000000E+00 -0.12590497855E+03  0.12590501290E+03  0.93000000000E-01 0.  1.
        -11    1    1    2    0    0 -0.16631789794E+02  0.54532511573E+01 -0.42101498894E+02  0.45594852662E+02  0.51100000000E-03 0. -1.
         11    1    1    2    0    0  0.16631789794E+02 -0.54532511573E+01 -0.81124275424E+02  0.82990978084E+02  0.51100000000E-03 0.  1.
<mgrwt>
<rscale>  0 0.36738596E+02</rscale>
<asrwt>0</asrwt>
<pdfrwt beam="1">  1        3 0.41231213E-03 0.36738596E+02</pdfrwt>
<pdfrwt beam="2">  1       -3 0.19370119E-01 0.36738596E+02</pdfrwt>
<totfact> 0.33306434E+05</totfact>
</mgrwt>
</event>
<event>
 4    1  0.1754914E-001  0.3162301E+02  0.7818608E-02  0.1580812E+00
          3   -1    0    0  501    0  0.00000000000E+00  0.00000000000E+00  0.85035307519E+02  0.85035358374E+02  0.93000000000E-01 0. -1.
         -3   -1    0    0    0  501 -0.00000000000E+00 -0.00000000000E+00 -0.29392113089E+01  0.29406822539E+01  0.93000000000E-01 0.  1.
        -11    1    1    2    0    0 -0.80052833144E+01 -0.11780648672E+02  0.60148118645E+02  0.61811523367E+02  0.51100000000E-03 0.  1.
         11    1    1    2    0    0  0.80052833144E+01  0.11780648672E+02  0.21947977565E+02  0.26164517261E+02  0.51100000000E-03 0. -1.
<mgrwt>
<rscale>  0 0.31623009E+02</rscale>
<asrwt>0</asrwt>
<pdfrwt beam="1">  1        3 0.13082469E-01 0.31623009E+02</pdfrwt>
<pdfrwt beam="2">  1       -3 0.45230351E-03 0.31623009E+02</pdfrwt>
<totfact> 0.52207331E+05</totfact>
</mgrwt>
</event>
<event>
 4    1  0.1754914E-001  0.2336232E+02  0.7818608E-02  0.1685703E+00
          3   -1    0    0  501    0  0.00000000000E+00  0.00000000000E+00  0.18722058764E+02  0.18722289746E+02  0.93000000000E-01 0.  1.
         -3   -1    0    0    0  501 -0.00000000000E+00 -0.00000000000E+00 -0.72875933369E+01  0.72881867185E+01  0.93000000000E-01 0. -1.
        -11    1    1    2    0    0  0.86948211485E+01  0.63110697846E+01  0.61279074423E+00  0.10761274524E+02  0.51100000000E-03 0. -1.
         11    1    1    2    0    0 -0.86948211485E+01 -0.63110697846E+01  0.10821674682E+02  0.15249201941E+02  0.51100000000E-03 0.  1.
<mgrwt>
<rscale>  0 0.23362318E+02</rscale>
<asrwt>0</asrwt>
<pdfrwt beam="1">  1        3 0.28803801E-02 0.23362318E+02</pdfrwt>
<pdfrwt beam="2">  1       -3 0.11212316E-02 0.23362318E+02</pdfrwt>
<totfact> 0.12449623E+06</totfact>
</mgrwt>
</event>
<event>
 4    1  0.1754914E-001  0.2229638E+02  0.7818608E-02  0.1703176E+00
          3   -1    0    0  501    0  0.00000000000E+00  0.00000000000E+00  0.65392671617E+02  0.65392737748E+02  0.93000000000E-01 0.  1.
         -3   -1    0    0    0  501 -0.00000000000E+00 -0.00000000000E+00 -0.18993467780E+01  0.19016222504E+01  0.93000000000E-01 0. -1.
        -11    1    1    2    0    0  0.50008657276E+00  0.10788177532E+02  0.23400286163E+02  0.25772238045E+02  0.51100000000E-03 0. -1.
         11    1    1    2    0    0 -0.50008657276E+00 -0.10788177532E+02  0.40093038675E+02  0.41522121954E+02  0.51100000000E-03 0.  1.
<mgrwt>
<rscale>  0 0.22296381E+02</rscale>
<asrwt>0</asrwt>
<pdfrwt beam="1">  1        3 0.10060590E-01 0.22296381E+02</pdfrwt>
<pdfrwt beam="2">  1       -3 0.29238735E-03 0.22296381E+02</pdfrwt>
<totfact> 0.12178286E+06</totfact>
</mgrwt>
</event>
<event>
 4    1  0.1754914E-001  0.3068280E+02  0.7818608E-02  0.1590662E+00
          3   -1    0    0  501    0  0.00000000000E+00  0.00000000000E+00  0.30255313388E+02  0.30255456321E+02  0.93000000000E-01 0.  1.
         -3   -1    0    0    0  501 -0.00000000000E+00 -0.00000000000E+00 -0.77786400586E+01  0.77791959842E+01  0.93000000000E-01 0. -1.
        -11    1    1    2    0    0  0.74632001465E+01 -0.13046785148E+02  0.15047087550E+02  0.21268117057E+02  0.51100000000E-03 0. -1.
         11    1    1    2    0    0 -0.74632001465E+01  0.13046785148E+02  0.74295857793E+01  0.16766535249E+02  0.51100000000E-03 0.  1.
<mgrwt>
<rscale>  0 0.30682795E+02</rscale>
<asrwt>0</asrwt>
<pdfrwt beam="1">  1        3 0.46547172E-02 0.30682795E+02</pdfrwt>
<pdfrwt beam="2">  1       -3 0.11967676E-02 0.30682795E+02</pdfrwt>
<totfact> 0.64240275E+05</totfact>
</mgrwt>
</event>
<event>
 4    1  0.1754914E-001  0.2298372E+02  0.7818608E-02  0.1691774E+00
         -3   -1    0    0    0  501 -0.00000000000E+00  0.00000000000E+00  0.58129587794E+01  0.58137026731E+01  0.93000000000E-01 0. -1.
          3   -1    0    0  501    0  0.00000000000E+00 -0.00000000000E+00 -0.22716411629E+02  0.22716601997E+02  0.93000000000E-01 0.  1.
        -11    1    1    2    0    0 -0.93287310693E+01  0.60937236246E+01 -0.49618103553E+01  0.12197469133E+02  0.51100000000E-03 0.  1.
         11    1    1    2    0    0  0.93287310693E+01 -0.60937236246E+01 -0.11941642494E+02  0.16332835537E+02  0.51100000000E-03 0. -1.
<mgrwt>
<rscale>  0 0.22983724E+02</rscale>
<asrwt>0</asrwt>
<pdfrwt beam="2">  1        3 0.34949044E-02 0.22983724E+02</pdfrwt>
<pdfrwt beam="1">  1       -3 0.89437323E-03 0.22983724E+02</pdfrwt>
<totfact> 0.12799611E+06</totfact>
</mgrwt>
</event>
<event>
 4    1  0.1754914E-001  0.2777950E+02  0.7818608E-02  0.1624015E+00
          3   -1    0    0  501    0  0.00000000000E+00  0.00000000000E+00  0.20286037220E+01  0.20307343649E+01  0.93000000000E-01 0. -1.
         -3   -1    0    0    0  501 -0.00000000000E+00 -0.00000000000E+00 -0.95050334575E+02  0.95050380071E+02  0.93000000000E-01 0.  1.
        -11    1    1    2    0    0 -0.89337736952E+01  0.10494711246E+02 -0.52537396636E+02  0.54315092950E+02  0.51100000000E-03 0. -1.
         11    1    1    2    0    0  0.89337736952E+01 -0.10494711246E+02 -0.40484334216E+02  0.42766021486E+02  0.51100000000E-03 0.  1.
<mgrwt>
<rscale>  0 0.27779495E+02</rscale>
<asrwt>0</asrwt>
<pdfrwt beam="1">  1        3 0.31226035E-03 0.27779495E+02</pdfrwt>
<pdfrwt beam="2">  1       -3 0.14623292E-01 0.27779495E+02</pdfrwt>
<totfact> 0.68896315E+05</totfact>
</mgrwt>
</event>
<event>
 4    1  0.1754914E-001  0.3084283E+02  0.7818608E-02  0.1588955E+00
         -3   -1    0    0    0  501 -0.00000000000E+00  0.00000000000E+00  0.14465773013E+02  0.14466071957E+02  0.93000000000E-01 0.  1.
          3   -1    0    0  501    0  0.00000000000E+00 -0.00000000000E+00 -0.16439590909E+02  0.16439853960E+02  0.93000000000E-01 0. -1.
        -11    1    1    2    0    0 -0.40980012138E+01 -0.12493380987E+02  0.70882295014E+01  0.14937241384E+02  0.51100000000E-03 0.  1.
         11    1    1    2    0    0  0.40980012138E+01  0.12493380987E+02 -0.90620473971E+01  0.15968684533E+02  0.51100000000E-03 0. -1.
<mgrwt>
<rscale>  0 0.30842832E+02</rscale>
<asrwt>0</asrwt>
<pdfrwt beam="2">  1        3 0.25292111E-02 0.30842832E+02</pdfrwt>
<pdfrwt beam="1">  1       -3 0.22255468E-02 0.30842832E+02</pdfrwt>
<totfact> 0.64890180E+05</totfact>
</mgrwt>
</event>
<event>
 4    1  0.1754914E-001  0.2661581E+02  0.7818608E-02  0.1638822E+00
          3   -1    0    0  501    0  0.00000000000E+00  0.00000000000E+00  0.21344278320E+02  0.21344480926E+02  0.93000000000E-01 0. -1.
         -3   -1    0    0    0  501 -0.00000000000E+00 -0.00000000000E+00 -0.82968205615E+01  0.82973417689E+01  0.93000000000E-01 0.  1.
        -11    1    1    2    0    0 -0.73088022772E+01 -0.99893767603E+01  0.11967637564E+02  0.17217159693E+02  0.51100000000E-03 0. -1.
         11    1    1    2    0    0  0.73088022772E+01  0.99893767603E+01  0.10798201946E+01  0.12424663001E+02  0.51100000000E-03 0.  1.
<mgrwt>
<rscale>  0 0.26615813E+02</rscale>
<asrwt>0</asrwt>
<pdfrwt beam="1">  1        3 0.32837908E-02 0.26615813E+02</pdfrwt>
<pdfrwt beam="2">  1       -3 0.12764896E-02 0.26615813E+02</pdfrwt>
<totfact> 0.91642685E+05</totfact>
</mgrwt>
</event>
<event>
 4    1  0.1754914E-001  0.2516144E+02  0.7818608E-02  0.1658694E+00
         -3   -1    0    0    0  501 -0.00000000000E+00  0.00000000000E+00  0.26809166991E+01  0.26825292817E+01  0.93000000000E-01 0.  1.
          3   -1    0    0  501    0  0.00000000000E+00 -0.00000000000E+00 -0.59018053339E+02  0.59018126613E+02  0.93000000000E-01 0. -1.
        -11    1    1    2    0    0  0.49000489553E+01  0.11585166785E+02 -0.28705389953E+02  0.31340484709E+02  0.51100000000E-03 0. -1.
         11    1    1    2    0    0 -0.49000489553E+01 -0.11585166785E+02 -0.27631746687E+02  0.30360171185E+02  0.51100000000E-03 0.  1.
<mgrwt>
<rscale>  0 0.25161438E+02</rscale>
<asrwt>0</asrwt>
<pdfrwt beam="2">  1        3 0.90798292E-02 0.25161438E+02</pdfrwt>
<pdfrwt beam="1">  1       -3 0.41257845E-03 0.25161438E+02</pdfrwt>
<totfact> 0.94531759E+05</totfact>
</mgrwt>
</event>
<event>
 4    1  0.1754914E-001  0.3175198E+02  0.7818608E-02  0.1579493E+00
          3   -1    0    0  501    0  0.00000000000E+00  0.00000000000E+00  0.20888539692E+02  0.20888746718E+02  0.93000000000E-01 0.  1.
         -3   -1    0    0    0  501 -0.00000000000E+00 -0.00000000000E+00 -0.12065841348E+02  0.12066199751E+02  0.93000000000E-01 0. -1.
        -11    1    1    2    0    0 -0.11954546682E+02  0.43845879989E+01  0.14252750436E+02  0.19112213203E+02  0.51100000000E-03 0.  1.
         11    1    1    2    0    0  0.11954546682E+02 -0.43845879989E+01 -0.54300520917E+01  0.13842733266E+02  0.51100000000E-03 0. -1.
<mgrwt>
<rscale>  0 0.31751984E+02</rscale>
<asrwt>0</asrwt>
<pdfrwt beam="1">  1        3 0.32136650E-02 0.31751984E+02</pdfrwt>
<pdfrwt beam="2">  1       -3 0.18563268E-02 0.31751984E+02</pdfrwt>
<totfact> 0.60211256E+05</totfact>
</mgrwt>
</event>
<event>
 4    1  0.1754914E-001  0.7225706E+02  0.7818608E-02  0.1352582E+00
         -3   -1    0    0    0  501 -0.00000000000E+00  0.00000000000E+00  0.35199564656E+02  0.35199687512E+02  0.93000000000E-01 0.  1.
          3   -1    0    0  501    0  0.00000000000E+00 -0.00000000000E+00 -0.37081770134E+02  0.37081886755E+02  0.93000000000E-01 0. -1.
        -11    1    1    2    0    0 -0.59881628885E+01 -0.35570117096E+02 -0.29861775350E+01  0.36194040691E+02  0.51100000000E-03 0. -1.
         11    1    1    2    0    0  0.59881628885E+01  0.35570117096E+02  0.11039720563E+01  0.36087533576E+02  0.51100000000E-03 0.  1.
<mgrwt>
<rscale>  0 0.72257064E+02</rscale>
<asrwt>0</asrwt>
<pdfrwt beam="2">  1        3 0.57049061E-02 0.72257064E+02</pdfrwt>
<pdfrwt beam="1">  1       -3 0.54153361E-02 0.72257064E+02</pdfrwt>
<totfact> 0.68902679E+04</totfact>
</mgrwt>
</event>
<event>
 4    1  0.1754914E-001  0.4141134E+02  0.7818608E-02  0.1498075E+00
          3   -1    0    0  501    0  0.00000000000E+00  0.00000000000E+00  0.91631537448E+02  0.91631584642E+02  0.93000000000E-01 0. -1.
         -3   -1    0    0    0  501 -0.00000000000E+00 -0.00000000000E+00 -0.46782795656E+01  0.46792038526E+01  0.93000000000E-01 0.  1.
        -11    1    1    2    0    0 -0.14509059127E+02  0.13468358803E+02  0.57588010116E+02  0.60895717378E+02  0.51100000000E-03 0. -1.
         11    1    1    2    0    0  0.14509059127E+02 -0.13468358803E+02  0.29365247766E+02  0.35415071117E+02  0.51100000000E-03 0.  1.
<mgrwt>
<rscale>  0 0.41411338E+02</rscale>
<asrwt>0</asrwt>
<pdfrwt beam="1">  1        3 0.14097235E-01 0.41411338E+02</pdfrwt>
<pdfrwt beam="2">  1       -3 0.71981002E-03 0.41411338E+02</pdfrwt>
<totfact> 0.26852205E+05</totfact>
</mgrwt>
</event>
<event>
 4    1  0.1754914E-001  0.4254144E+02  0.7818608E-02  0.1490301E+00
         -3   -1    0    0    0  501 -0.00000000000E+00  0.00000000000E+00  0.11106775931E+02  0.11107165281E+02  0.93000000000E-01 0.  1.
          3   -1    0    0  501    0  0.00000000000E+00 -0.00000000000E+00 -0.40734661604E+02  0.40734767766E+02  0.93000000000E-01 0. -1.
        -11    1    1    2    0    0  0.11197129296E+02  0.50068819022E+01 -0.35991298990E+02  0.38023915818E+02  0.51100000000E-03 0. -1.
         11    1    1    2    0    0 -0.11197129296E+02 -0.50068819022E+01  0.63634133175E+01  0.13818017230E+02  0.51100000000E-03 0.  1.
<mgrwt>
<rscale>  0 0.42541443E+02</rscale>
<asrwt>0</asrwt>
<pdfrwt beam="2">  1        3 0.62669090E-02 0.42541443E+02</pdfrwt>
<pdfrwt beam="1">  1       -3 0.17087729E-02 0.42541443E+02</pdfrwt>
<totfact> 0.28150812E+05</totfact>
</mgrwt>
</event>
<event>
 4    1  0.1754914E-001  0.2573485E+02  0.7818608E-02  0.1650666E+00
         -3   -1    0    0    0  501 -0.00000000000E+00  0.00000000000E+00  0.10286958549E+03  0.10286962753E+03  0.93000000000E-01 0.  1.
          3   -1    0    0  501    0  0.00000000000E+00 -0.00000000000E+00 -0.16081334352E+01  0.16108203330E+01  0.93000000000E-01 0. -1.
        -11    1    1    2    0    0 -0.12038235005E+02  0.29861490364E+01  0.36723397789E+02  0.38761374247E+02  0.51100000000E-03 0. -1.
         11    1    1    2    0    0  0.12038235005E+02 -0.29861490364E+01  0.64538054271E+02  0.65719073620E+02  0.51100000000E-03 0.  1.
<mgrwt>
<rscale>  0 0.25734846E+02</rscale>
<asrwt>0</asrwt>
<pdfrwt beam="2">  1        3 0.24761508E-03 0.25734846E+02</pdfrwt>
<pdfrwt beam="1">  1       -3 0.15826299E-01 0.25734846E+02</pdfrwt>
<totfact> 0.80503938E+05</totfact>
</mgrwt>
</event>
<event>
 4    1  0.1754914E-001  0.3647365E+02  0.7818608E-02  0.1535890E+00
         -3   -1    0    0    0  501 -0.00000000000E+00  0.00000000000E+00  0.72019737076E+02  0.72019797122E+02  0.93000000000E-01 0.  1.
          3   -1    0    0  501    0  0.00000000000E+00 -0.00000000000E+00 -0.46173965191E+01  0.46183329908E+01  0.93000000000E-01 0. -1.
        -11    1    1    2    0    0 -0.14637972004E+02  0.44170332550E+01  0.12815553575E+02  0.19950409040E+02  0.51100000000E-03 0. -1.
         11    1    1    2    0    0  0.14637972004E+02 -0.44170332550E+01  0.54586786982E+02  0.56687721073E+02  0.51100000000E-03 0.  1.
<mgrwt>
<rscale>  0 0.36473655E+02</rscale>
<asrwt>0</asrwt>
<pdfrwt beam="2">  1        3 0.71044539E-03 0.36473655E+02</pdfrwt>
<pdfrwt beam="1">  1       -3 0.11080036E-01 0.36473655E+02</pdfrwt>
<totfact> 0.38324783E+05</totfact>
</mgrwt>
</event>
<event>
 4    1  0.1754914E-001  0.5867789E+02  0.7818608E-02  0.1403465E+00
         -3   -1    0    0    0  501 -0.00000000000E+00  0.00000000000E+00  0.18526512307E+02  0.18526745728E+02  0.93000000000E-01 0.  1.
          3   -1    0    0  501    0  0.00000000000E+00 -0.00000000000E+00 -0.46461156347E+02  0.46461249424E+02  0.93000000000E-01 0. -1.
        -11    1    1    2    0    0 -0.98575675923E+01 -0.27441867297E+02 -0.17564020555E+02  0.34040013776E+02  0.51100000000E-03 0. -1.
         11    1    1    2    0    0  0.98575675923E+01  0.27441867297E+02 -0.10370623484E+02  0.30947981376E+02  0.51100000000E-03 0.  1.
<mgrwt>
<rscale>  0 0.58677893E+02</rscale>
<asrwt>0</asrwt>
<pdfrwt beam="2">  1        3 0.71478953E-02 0.58677893E+02</pdfrwt>
<pdfrwt beam="1">  1       -3 0.28502578E-02 0.58677893E+02</pdfrwt>
<totfact> 0.12085508E+05</totfact>
</mgrwt>
</event>
<event>
 4    1  0.1754914E-001  0.3658808E+02  0.7818608E-02  0.1534934E+00
          3   -1    0    0  501    0  0.00000000000E+00  0.00000000000E+00  0.54489548714E+01  0.54497484520E+01  0.93000000000E-01 0. -1.
         -3   -1    0    0    0  501 -0.00000000000E+00 -0.00000000000E+00 -0.61414148714E+02  0.61414219129E+02  0.93000000000E-01 0.  1.
        -11    1    1    2    0    0 -0.11795007292E+02  0.12905054961E+02 -0.37825432373E+02  0.41670444862E+02  0.51100000000E-03 0.  1.
         11    1    1    2    0    0  0.11795007292E+02 -0.12905054961E+02 -0.18139761469E+02  0.25193522719E+02  0.51100000000E-03 0. -1.
<mgrwt>
<rscale>  0 0.36588075E+02</rscale>
<asrwt>0</asrwt>
<pdfrwt beam="1">  1        3 0.83836725E-03 0.36588075E+02</pdfrwt>
<pdfrwt beam="2">  1       -3 0.94483965E-02 0.36588075E+02</pdfrwt>
<totfact> 0.39014460E+05</totfact>
</mgrwt>
</event>
<event>
 4    1  0.1754914E-001  0.5115156E+02  0.7818608E-02  0.1439228E+00
         -3   -1    0    0    0  501 -0.00000000000E+00  0.00000000000E+00  0.43529422231E+02  0.43529521578E+02  0.93000000000E-01 0. -1.
          3   -1    0    0  501    0  0.00000000000E+00 -0.00000000000E+00 -0.15026826984E+02  0.15027114766E+02  0.93000000000E-01 0.  1.
        -11    1    1    2    0    0 -0.12738125554E+02  0.12338354894E+02  0.35348140564E+02  0.39547261419E+02  0.51100000000E-03 0. -1.
         11    1    1    2    0    0  0.12738125554E+02 -0.12338354894E+02 -0.68455453162E+01  0.19009374926E+02  0.51100000000E-03 0.  1.
<mgrwt>
<rscale>  0 0.51151556E+02</rscale>
<asrwt>0</asrwt>
<pdfrwt beam="2">  1        3 0.23118493E-02 0.51151556E+02</pdfrwt>
<pdfrwt beam="1">  1       -3 0.66968640E-02 0.51151556E+02</pdfrwt>
<totfact> 0.17449471E+05</totfact>
</mgrwt>
</event>
<event>
 4    1  0.1754914E-001  0.3868645E+02  0.7818608E-02  0.1518106E+00
         -3   -1    0    0    0  501 -0.00000000000E+00  0.00000000000E+00  0.66759176116E+02  0.66759240894E+02  0.93000000000E-01 0.  1.
          3   -1    0    0  501    0  0.00000000000E+00 -0.00000000000E+00 -0.56041748233E+01  0.56049464270E+01  0.93000000000E-01 0. -1.
        -11    1    1    2    0    0  0.16466938515E+02 -0.17777529422E+01  0.11887175923E+02  0.20386893369E+02  0.51100000000E-03 0. -1.
         11    1    1    2    0    0 -0.16466938515E+02  0.17777529422E+01  0.49267825370E+02  0.51977293951E+02  0.51100000000E-03 0.  1.
<mgrwt>
<rscale>  0 0.38686450E+02</rscale>
<asrwt>0</asrwt>
<pdfrwt beam="2">  1        3 0.86224508E-03 0.38686450E+02</pdfrwt>
<pdfrwt beam="1">  1       -3 0.10270707E-01 0.38686450E+02</pdfrwt>
<totfact> 0.33616520E+05</totfact>
</mgrwt>
</event>
<event>
 4    1  0.1754914E-001  0.2204772E+02  0.7818608E-02  0.1707428E+00
         -3   -1    0    0    0  501 -0.00000000000E+00  0.00000000000E+00  0.28532717385E+01  0.28547869647E+01  0.93000000000E-01 0. -1.
          3   -1    0    0  501    0  0.00000000000E+00 -0.00000000000E+00 -0.42578757231E+02  0.42578858796E+02  0.93000000000E-01 0.  1.
        -11    1    1    2    0    0 -0.10359905810E+02  0.20944089575E+01 -0.13408027908E+02  0.17073060942E+02  0.51100000000E-03 0. -1.
         11    1    1    2    0    0  0.10359905810E+02 -0.20944089575E+01 -0.26317457584E+02  0.28360584818E+02  0.51100000000E-03 0.  1.
<mgrwt>
<rscale>  0 0.22047720E+02</rscale>
<asrwt>0</asrwt>
<pdfrwt beam="2">  1        3 0.65507019E-02 0.22047720E+02</pdfrwt>
<pdfrwt beam="1">  1       -3 0.43908928E-03 0.22047720E+02</pdfrwt>
<totfact> 0.13292502E+06</totfact>
</mgrwt>
</event>
<event>
 4    1  0.1754914E-001  0.3509705E+02  0.7818608E-02  0.1547740E+00
          3   -1    0    0  501    0  0.00000000000E+00  0.00000000000E+00  0.22752736610E+02  0.22752926675E+02  0.93000000000E-01 0. -1.
         -3   -1    0    0    0  501 -0.00000000000E+00 -0.00000000000E+00 -0.13534258204E+02  0.13534577723E+02  0.93000000000E-01 0.  1.
        -11    1    1    2    0    0 -0.51983113224E+01  0.10117118320E+02  0.18425590968E+02  0.21653658502E+02  0.51100000000E-03 0. -1.
         11    1    1    2    0    0  0.51983113224E+01 -0.10117118320E+02 -0.92071125622E+01  0.14633845896E+02  0.51100000000E-03 0.  1.
<mgrwt>
<rscale>  0 0.35097046E+02</rscale>
<asrwt>0</asrwt>
<pdfrwt beam="1">  1        3 0.35004602E-02 0.35097046E+02</pdfrwt>
<pdfrwt beam="2">  1       -3 0.20822328E-02 0.35097046E+02</pdfrwt>
<totfact> 0.46982430E+05</totfact>
</mgrwt>
</event>
<event>
 4    1  0.1754914E-001  0.2757670E+03  0.7818608E-02  0.1098024E+00
          3   -1    0    0  501    0  0.00000000000E+00  0.00000000000E+00  0.48383922792E+02  0.48384012171E+02  0.93000000000E-01 0. -1.
         -3   -1    0    0    0  501 -0.00000000000E+00 -0.00000000000E+00 -0.39293720873E+03  0.39293721973E+03  0.93000000000E-01 0.  1.
        -11    1    1    2    0    0 -0.12246425919E+03  0.59502181092E+02 -0.20711343189E+03  0.24785878642E+03  0.51100000000E-03 0.  1.
         11    1    1    2    0    0  0.12246425919E+03 -0.59502181092E+02 -0.13743985405E+03  0.19346244549E+03  0.51100000000E-03 0. -1.
<mgrwt>
<rscale>  0 0.27576704E+03</rscale>
<asrwt>0</asrwt>
<pdfrwt beam="1">  1        3 0.74436884E-02 0.27576704E+03</pdfrwt>
<pdfrwt beam="2">  1       -3 0.60451884E-01 0.27576704E+03</pdfrwt>
<totfact> 0.82681622E+02</totfact>
</mgrwt>
</event>
<event>
 4    1  0.1754914E-001  0.2058078E+02  0.7818608E-02  0.1734019E+00
         -3   -1    0    0    0  501 -0.00000000000E+00  0.00000000000E+00  0.32926156510E+02  0.32926287849E+02  0.93000000000E-01 0. -1.
          3   -1    0    0  501    0  0.00000000000E+00 -0.00000000000E+00 -0.32152400585E+01  0.32165847779E+01  0.93000000000E-01 0.  1.
        -11    1    1    2    0    0  0.46743509195E+01  0.91353471515E+01  0.16202145498E+02  0.19178468216E+02  0.51100000000E-03 0. -1.
         11    1    1    2    0    0 -0.46743509195E+01 -0.91353471515E+01  0.13508770953E+02  0.16964404411E+02  0.51100000000E-03 0.  1.
<mgrwt>
<rscale>  0 0.20580784E+02</rscale>
<asrwt>0</asrwt>
<pdfrwt beam="2">  1        3 0.49476589E-03 0.20580784E+02</pdfrwt>
<pdfrwt beam="1">  1       -3 0.50656758E-02 0.20580784E+02</pdfrwt>
<totfact> 0.15906201E+06</totfact>
</mgrwt>
</event>
<event>
 4    1  0.1754914E-001  0.2262831E+02  0.7818608E-02  0.1697607E+00
         -3   -1    0    0    0  501 -0.00000000000E+00  0.00000000000E+00  0.28754647297E+02  0.28754797690E+02  0.93000000000E-01 0. -1.
          3   -1    0    0  501    0  0.00000000000E+00 -0.00000000000E+00 -0.44511566518E+01  0.44521280911E+01  0.93000000000E-01 0.  1.
        -11    1    1    2    0    0 -0.70678208609E+01 -0.76583135358E+01  0.56870665511E+01  0.11872092661E+02  0.51100000000E-03 0.  1.
         11    1    1    2    0    0  0.70678208609E+01  0.76583135358E+01  0.18616424094E+02  0.21334833120E+02  0.51100000000E-03 0. -1.
<mgrwt>
<rscale>  0 0.22628307E+02</rscale>
<asrwt>0</asrwt>
<pdfrwt beam="2">  1        3 0.68487964E-03 0.22628307E+02</pdfrwt>
<pdfrwt beam="1">  1       -3 0.44238781E-02 0.22628307E+02</pdfrwt>
<totfact> 0.13046463E+06</totfact>
</mgrwt>
</event>
<event>
 4    1  0.1754914E-001  0.4797135E+02  0.7818608E-02  0.1456601E+00
         -3   -1    0    0    0  501 -0.00000000000E+00  0.00000000000E+00  0.18402228042E+02  0.18402463039E+02  0.93000000000E-01 0.  1.
          3   -1    0    0  501    0  0.00000000000E+00 -0.00000000000E+00 -0.31262699489E+02  0.31262837817E+02  0.93000000000E-01 0. -1.
        -11    1    1    2    0    0  0.86586548025E+01  0.14326197009E+02 -0.24215323465E+02  0.29437970624E+02  0.51100000000E-03 0. -1.
         11    1    1    2    0    0 -0.86586548025E+01 -0.14326197009E+02  0.11354852017E+02  0.20227330232E+02  0.51100000000E-03 0.  1.
<mgrwt>
<rscale>  0 0.47971350E+02</rscale>
<asrwt>0</asrwt>
<pdfrwt beam="2">  1        3 0.48096748E-02 0.47971350E+02</pdfrwt>
<pdfrwt beam="1">  1       -3 0.28311407E-02 0.47971350E+02</pdfrwt>
<totfact> 0.20999340E+05</totfact>
</mgrwt>
</event>
<event>
 4    1  0.1754914E-001  0.2703197E+02  0.7818608E-02  0.1633422E+00
          3   -1    0    0  501    0  0.00000000000E+00  0.00000000000E+00  0.82003511637E+01  0.82008785022E+01  0.93000000000E-01 0. -1.
         -3   -1    0    0    0  501 -0.00000000000E+00 -0.00000000000E+00 -0.22275985756E+02  0.22276179888E+02  0.93000000000E-01 0.  1.
        -11    1    1    2    0    0  0.98164815686E+01  0.46159789513E+01  0.20527253513E+01  0.11040120185E+02  0.51100000000E-03 0. -1.
         11    1    1    2    0    0 -0.98164815686E+01 -0.46159789513E+01 -0.16128359944E+02  0.19436938205E+02  0.51100000000E-03 0.  1.
<mgrwt>
<rscale>  0 0.27031974E+02</rscale>
<asrwt>0</asrwt>
<pdfrwt beam="1">  1        3 0.12616480E-02 0.27031974E+02</pdfrwt>
<pdfrwt beam="2">  1       -3 0.34271302E-02 0.27031974E+02</pdfrwt>
<totfact> 0.88211609E+05</totfact>
</mgrwt>
</event>
<event>
 4    1  0.1754914E-001  0.3067890E+02  0.7818608E-02  0.1590703E+00
         -3   -1    0    0    0  501 -0.00000000000E+00  0.00000000000E+00  0.70464358922E+02  0.70464420293E+02  0.93000000000E-01 0.  1.
          3   -1    0    0  501    0  0.00000000000E+00 -0.00000000000E+00 -0.33385473587E+01  0.33398424314E+01  0.93000000000E-01 0. -1.
        -11    1    1    2    0    0  0.10824512303E+02  0.34670154310E+01  0.58343778357E+02  0.59440615204E+02  0.51100000000E-03 0.  1.
         11    1    1    2    0    0 -0.10824512303E+02 -0.34670154310E+01  0.87820332060E+01  0.14363647520E+02  0.51100000000E-03 0. -1.
<mgrwt>
<rscale>  0 0.30678895E+02</rscale>
<asrwt>0</asrwt>
<pdfrwt beam="2">  1        3 0.51372701E-03 0.30678895E+02</pdfrwt>
<pdfrwt beam="1">  1       -3 0.10840775E-01 0.30678895E+02</pdfrwt>
<totfact> 0.58109212E+05</totfact>
</mgrwt>
</event>
<event>
 4    1  0.1754914E-001  0.3948762E+02  0.7818608E-02  0.1512016E+00
         -3   -1    0    0    0  501 -0.00000000000E+00  0.00000000000E+00  0.45047926430E+02  0.45048022428E+02  0.93000000000E-01 0.  1.
          3   -1    0    0  501    0  0.00000000000E+00 -0.00000000000E+00 -0.86530507660E+01  0.86535505176E+01  0.93000000000E-01 0. -1.
        -11    1    1    2    0    0  0.49763661580E+01 -0.16321668137E+02  0.46894753157E+01  0.17696108327E+02  0.51100000000E-03 0. -1.
         11    1    1    2    0    0 -0.49763661580E+01  0.16321668137E+02  0.31705400349E+02  0.36005464619E+02  0.51100000000E-03 0.  1.
<mgrwt>
<rscale>  0 0.39487618E+02</rscale>
<asrwt>0</asrwt>
<pdfrwt beam="2">  1        3 0.13312844E-02 0.39487618E+02</pdfrwt>
<pdfrwt beam="1">  1       -3 0.69304961E-02 0.39487618E+02</pdfrwt>
<totfact> 0.33610046E+05</totfact>
</mgrwt>
</event>
<event>
 4    1  0.1754914E-001  0.2546417E+02  0.7818608E-02  0.1654423E+00
          3   -1    0    0  501    0  0.00000000000E+00  0.00000000000E+00  0.35346131893E+02  0.35346254240E+02  0.93000000000E-01 0. -1.
         -3   -1    0    0    0  501 -0.00000000000E+00 -0.00000000000E+00 -0.45856425936E+01  0.45865855488E+01  0.93000000000E-01 0.  1.
        -11    1    1    2    0    0 -0.28379571484E+01 -0.12074641512E+02  0.19885920724E+02  0.23437167314E+02  0.51100000000E-03 0. -1.
         11    1    1    2    0    0  0.28379571484E+01  0.12074641512E+02  0.10874568576E+02  0.16495672475E+02  0.51100000000E-03 0.  1.
<mgrwt>
<rscale>  0 0.25464171E+02</rscale>
<asrwt>0</asrwt>
<pdfrwt beam="1">  1        3 0.54379485E-02 0.25464171E+02</pdfrwt>
<pdfrwt beam="2">  1       -3 0.70556541E-03 0.25464171E+02</pdfrwt>
<totfact> 0.98071585E+05</totfact>
</mgrwt>
</event>
<event>
 4    1  0.1754914E-001  0.3518704E+02  0.7818608E-02  0.1546946E+00
          3   -1    0    0  501    0  0.00000000000E+00  0.00000000000E+00  0.13955646079E+02  0.13955955951E+02  0.93000000000E-01 0.  1.
         -3   -1    0    0    0  501 -0.00000000000E+00 -0.00000000000E+00 -0.22179033790E+02  0.22179228771E+02  0.93000000000E-01 0. -1.
        -11    1    1    2    0    0 -0.13294677107E+02  0.11523024403E+02 -0.40523763552E+01  0.18054093307E+02  0.51100000000E-03 0.  1.
         11    1    1    2    0    0  0.13294677107E+02 -0.11523024403E+02 -0.41710113559E+01  0.18081091415E+02  0.51100000000E-03 0. -1.
<mgrwt>
<rscale>  0 0.35187036E+02</rscale>
<asrwt>0</asrwt>
<pdfrwt beam="1">  1        3 0.21470613E-02 0.35187036E+02</pdfrwt>
<pdfrwt beam="2">  1       -3 0.34121979E-02 0.35187036E+02</pdfrwt>
<totfact> 0.46718341E+05</totfact>
</mgrwt>
</event>
<event>
 4    1  0.1754914E-001  0.3632634E+02  0.7818608E-02  0.1537128E+00
         -3   -1    0    0    0  501 -0.00000000000E+00  0.00000000000E+00  0.54361860522E+01  0.54369814966E+01  0.93000000000E-01 0. -1.
          3   -1    0    0  501    0  0.00000000000E+00 -0.00000000000E+00 -0.60680781931E+02  0.60680853197E+02  0.93000000000E-01 0.  1.
        -11    1    1    2    0    0  0.61195308352E+01 -0.15755140470E+02 -0.15517890500E+02  0.22945109167E+02  0.51100000000E-03 0. -1.
         11    1    1    2    0    0 -0.61195308352E+01  0.15755140470E+02 -0.39726705379E+02  0.43172725527E+02  0.51100000000E-03 0.  1.
<mgrwt>
<rscale>  0 0.36326336E+02</rscale>
<asrwt>0</asrwt>
<pdfrwt beam="2">  1        3 0.93355711E-02 0.36326336E+02</pdfrwt>
<pdfrwt beam="1">  1       -3 0.83640303E-03 0.36326336E+02</pdfrwt>
<totfact> 0.39766888E+05</totfact>
</mgrwt>
</event>
<event>
 4    1  0.1754914E-001  0.2095867E+02  0.7818608E-02  0.1726909E+00
          3   -1    0    0  501    0  0.00000000000E+00  0.00000000000E+00  0.10946254474E+02  0.10946649533E+02  0.93000000000E-01 0.  1.
         -3   -1    0    0    0  501 -0.00000000000E+00 -0.00000000000E+00 -0.10031536233E+02  0.10031967314E+02  0.93000000000E-01 0. -1.
        -11    1    1    2    0    0  0.10099476356E+02  0.27907715836E+01  0.62659073203E+00  0.10496687330E+02  0.51100000000E-03 0. -1.
         11    1    1    2    0    0 -0.10099476356E+02 -0.27907715836E+01  0.28812750851E+00  0.10481929518E+02  0.51100000000E-03 0.  1.
<mgrwt>
<rscale>  0 0.20958665E+02</rscale>
<asrwt>0</asrwt>
<pdfrwt beam="1">  1        3 0.16841027E-02 0.20958665E+02</pdfrwt>
<pdfrwt beam="2">  1       -3 0.15433768E-02 0.20958665E+02</pdfrwt>
<totfact> 0.16099125E+06</totfact>
</mgrwt>
</event>
<event>
 4    1  0.1754914E-001  0.2654045E+02  0.7818608E-02  0.1639813E+00
         -3   -1    0    0    0  501 -0.00000000000E+00  0.00000000000E+00  0.49467516454E+02  0.49467603875E+02  0.93000000000E-01 0. -1.
          3   -1    0    0  501    0  0.00000000000E+00 -0.00000000000E+00 -0.35591924432E+01  0.35604072587E+01  0.93000000000E-01 0.  1.
        -11    1    1    2    0    0 -0.41920615164E+01 -0.12020463491E+02  0.30439095525E+02  0.32993991255E+02  0.51100000000E-03 0. -1.
         11    1    1    2    0    0  0.41920615164E+01  0.12020463491E+02  0.15469228486E+02  0.20034019879E+02  0.51100000000E-03 0.  1.
<mgrwt>
<rscale>  0 0.26540455E+02</rscale>
<asrwt>0</asrwt>
<pdfrwt beam="2">  1        3 0.54766830E-03 0.26540455E+02</pdfrwt>
<pdfrwt beam="1">  1       -3 0.76104865E-02 0.26540455E+02</pdfrwt>
<totfact> 0.85869048E+05</totfact>
</mgrwt>
</event>
<event>
 4    1  0.1754914E-001  0.3178525E+02  0.7818608E-02  0.1579154E+00
         -3   -1    0    0    0  501 -0.00000000000E+00  0.00000000000E+00  0.10882490958E+03  0.10882494932E+03  0.93000000000E-01 0.  1.
          3   -1    0    0  501    0  0.00000000000E+00 -0.00000000000E+00 -0.23199631304E+01  0.23218264203E+01  0.93000000000E-01 0. -1.
        -11    1    1    2    0    0  0.78696834040E+01  0.13402721240E+02  0.64855687738E+02  0.66692016656E+02  0.51100000000E-03 0.  1.
         11    1    1    2    0    0 -0.78696834040E+01 -0.13402721240E+02  0.41649258712E+02  0.44454759082E+02  0.51100000000E-03 0. -1.
<mgrwt>
<rscale>  0 0.31785250E+02</rscale>
<asrwt>0</asrwt>
<pdfrwt beam="2">  1        3 0.35706377E-03 0.31785250E+02</pdfrwt>
<pdfrwt beam="1">  1       -3 0.16742441E-01 0.31785250E+02</pdfrwt>
<totfact> 0.48795126E+05</totfact>
</mgrwt>
</event>
<event>
 4    1  0.1754914E-001  0.2901357E+02  0.7818608E-02  0.1609255E+00
          3   -1    0    0  501    0  0.00000000000E+00  0.00000000000E+00  0.58235300892E+01  0.58242726327E+01  0.93000000000E-01 0.  1.
         -3   -1    0    0    0  501 -0.00000000000E+00 -0.00000000000E+00 -0.36134228041E+02  0.36134347720E+02  0.93000000000E-01 0. -1.
        -11    1    1    2    0    0 -0.14411890878E+02  0.12754453375E+01 -0.16684119909E+02  0.22083686669E+02  0.51100000000E-03 0. -1.
         11    1    1    2    0    0  0.14411890878E+02 -0.12754453375E+01 -0.13626578043E+02  0.19874933683E+02  0.51100000000E-03 0.  1.
<mgrwt>
<rscale>  0 0.29013573E+02</rscale>
<asrwt>0</asrwt>
<pdfrwt beam="1">  1        3 0.89599405E-03 0.29013573E+02</pdfrwt>
<pdfrwt beam="2">  1       -3 0.55591782E-02 0.29013573E+02</pdfrwt>
<totfact> 0.72320945E+05</totfact>
</mgrwt>
</event>
<event>
 4    1  0.1754914E-001  0.2573875E+02  0.7818608E-02  0.1650612E+00
          3   -1    0    0  501    0  0.00000000000E+00  0.00000000000E+00  0.17361852290E+02  0.17362101368E+02  0.93000000000E-01 0. -1.
         -3   -1    0    0    0  501 -0.00000000000E+00 -0.00000000000E+00 -0.95388065451E+01  0.95392598929E+01  0.93000000000E-01 0.  1.
        -11    1    1    2    0    0 -0.93550076499E+01  0.57632276536E+01  0.10914147356E+02  0.15487077642E+02  0.51100000000E-03 0. -1.
         11    1    1    2    0    0  0.93550076499E+01 -0.57632276536E+01 -0.30911016112E+01  0.11414283620E+02  0.51100000000E-03 0.  1.
<mgrwt>
<rscale>  0 0.25738749E+02</rscale>
<asrwt>0</asrwt>
<pdfrwt beam="1">  1        3 0.26711082E-02 0.25738749E+02</pdfrwt>
<pdfrwt beam="2">  1       -3 0.14675627E-02 0.25738749E+02</pdfrwt>
<totfact> 0.99818128E+05</totfact>
</mgrwt>
</event>
<event>
 4    1  0.1754914E-001  0.2156701E+02  0.7818608E-02  0.1715850E+00
         -3   -1    0    0    0  501 -0.00000000000E+00  0.00000000000E+00  0.16904437031E+01  0.16929999744E+01  0.93000000000E-01 0. -1.
          3   -1    0    0  501    0  0.00000000000E+00 -0.00000000000E+00 -0.68734449716E+02  0.68734512632E+02  0.93000000000E-01 0.  1.
        -11    1    1    2    0    0 -0.97722180692E+01  0.31819248298E+01 -0.44185344238E+02  0.45364805051E+02  0.51100000000E-03 0.  1.
         11    1    1    2    0    0  0.97722180692E+01 -0.31819248298E+01 -0.22858661775E+02  0.25062707556E+02  0.51100000000E-03 0. -1.
<mgrwt>
<rscale>  0 0.21567007E+02</rscale>
<asrwt>0</asrwt>
<pdfrwt beam="2">  1        3 0.10574730E-01 0.21567007E+02</pdfrwt>
<pdfrwt beam="1">  1       -3 0.26026979E-03 0.21567007E+02</pdfrwt>
<totfact> 0.12987748E+06</totfact>
</mgrwt>
</event>
<event>
 4    1  0.1754914E-001  0.4690541E+02  0.7818608E-02  0.1462785E+00
         -3   -1    0    0    0  501 -0.00000000000E+00  0.00000000000E+00  0.73621879187E+01  0.73627752886E+01  0.93000000000E-01 0.  1.
          3   -1    0    0  501    0  0.00000000000E+00 -0.00000000000E+00 -0.74706444650E+02  0.74706502537E+02  0.93000000000E-01 0. -1.
        -11    1    1    2    0    0 -0.94999467066E+01 -0.12693122476E+02 -0.63909905145E+02  0.65847098049E+02  0.51100000000E-03 0. -1.
         11    1    1    2    0    0  0.94999467066E+01  0.12693122476E+02 -0.34343515866E+01  0.16222179776E+02  0.51100000000E-03 0.  1.
<mgrwt>
<rscale>  0 0.46905410E+02</rscale>
<asrwt>0</asrwt>
<pdfrwt beam="2">  1        3 0.11493348E-01 0.46905410E+02</pdfrwt>
<pdfrwt beam="1">  1       -3 0.11326940E-02 0.46905410E+02</pdfrwt>
<totfact> 0.20437385E+05</totfact>
</mgrwt>
</event>
<event>
 4    1  0.1754914E-001  0.4918172E+02  0.7818608E-02  0.1449806E+00
          3   -1    0    0  501    0  0.00000000000E+00  0.00000000000E+00  0.81290013721E+02  0.81290066920E+02  0.93000000000E-01 0.  1.
         -3   -1    0    0    0  501 -0.00000000000E+00 -0.00000000000E+00 -0.74385811604E+01  0.74391624985E+01  0.93000000000E-01 0. -1.
        -11    1    1    2    0    0 -0.22285458163E+01 -0.12683849685E+02  0.74720160220E+02  0.75821822735E+02  0.51100000000E-03 0.  1.
         11    1    1    2    0    0  0.22285458163E+01  0.12683849685E+02 -0.86872765883E+00  0.12907406684E+02  0.51100000000E-03 0. -1.
<mgrwt>
<rscale>  0 0.49181725E+02</rscale>
<asrwt>0</asrwt>
<pdfrwt beam="1">  1        3 0.12506204E-01 0.49181725E+02</pdfrwt>
<pdfrwt beam="2">  1       -3 0.11444460E-02 0.49181725E+02</pdfrwt>
<totfact> 0.17866601E+05</totfact>
</mgrwt>
</event>
<event>
 4    1  0.1754914E-001  0.2726533E+02  0.7818608E-02  0.1630446E+00
          3   -1    0    0  501    0  0.00000000000E+00  0.00000000000E+00  0.74866384012E+01  0.74872160080E+01  0.93000000000E-01 0. -1.
         -3   -1    0    0    0  501 -0.00000000000E+00 -0.00000000000E+00 -0.24822551252E+02  0.24822725468E+02  0.93000000000E-01 0.  1.
        -11    1    1    2    0    0  0.12140314398E+02 -0.61590100814E+01 -0.95298261459E+01  0.16617407303E+02  0.51100000000E-03 0. -1.
         11    1    1    2    0    0 -0.12140314398E+02  0.61590100814E+01 -0.78060867052E+01  0.15692534173E+02  0.51100000000E-03 0.  1.
<mgrwt>
<rscale>  0 0.27265334E+02</rscale>
<asrwt>0</asrwt>
<pdfrwt beam="1">  1        3 0.11518484E-02 0.27265334E+02</pdfrwt>
<pdfrwt beam="2">  1       -3 0.38189118E-02 0.27265334E+02</pdfrwt>
<totfact> 0.85981117E+05</totfact>
</mgrwt>
</event>
<event>
 4    1  0.1754914E-001  0.4095771E+02  0.7818608E-02  0.1501280E+00
          3   -1    0    0  501    0  0.00000000000E+00  0.00000000000E+00  0.45860494439E+01  0.45869923154E+01  0.93000000000E-01 0. -1.
         -3   -1    0    0    0  501 -0.00000000000E+00 -0.00000000000E+00 -0.91437292477E+02  0.91437339772E+02  0.93000000000E-01 0.  1.
        -11    1    1    2    0    0 -0.81976473005E+01 -0.16227618866E+02 -0.21326975066E+02  0.28024576733E+02  0.51100000000E-03 0. -1.
         11    1    1    2    0    0  0.81976473005E+01  0.16227618866E+02 -0.65524267968E+02  0.67999755355E+02  0.51100000000E-03 0.  1.
<mgrwt>
<rscale>  0 0.40957709E+02</rscale>
<asrwt>0</asrwt>
<pdfrwt beam="1">  1        3 0.70562230E-03 0.40957709E+02</pdfrwt>
<pdfrwt beam="2">  1       -3 0.14067351E-01 0.40957709E+02</pdfrwt>
<totfact> 0.27605161E+05</totfact>
</mgrwt>
</event>
<event>
 4    1  0.1754914E-001  0.2583234E+02  0.7818608E-02  0.1649327E+00
         -3   -1    0    0    0  501 -0.00000000000E+00  0.00000000000E+00  0.69768206233E+01  0.69774404340E+01  0.93000000000E-01 0.  1.
          3   -1    0    0  501    0  0.00000000000E+00 -0.00000000000E+00 -0.23909903777E+02  0.23910084642E+02  0.93000000000E-01 0. -1.
        -11    1    1    2    0    0 -0.94804861296E+01 -0.67847223143E+01 -0.15114782765E+02  0.19088444998E+02  0.51100000000E-03 0. -1.
         11    1    1    2    0    0  0.94804861296E+01  0.67847223143E+01 -0.18183003881E+01  0.11799080078E+02  0.51100000000E-03 0.  1.
<mgrwt>
<rscale>  0 0.25832342E+02</rscale>
<asrwt>0</asrwt>
<pdfrwt beam="2">  1        3 0.36785083E-02 0.25832342E+02</pdfrwt>
<pdfrwt beam="1">  1       -3 0.10734186E-02 0.25832342E+02</pdfrwt>
<totfact> 0.97697881E+05</totfact>
</mgrwt>
</event>
<event>
 4    1  0.1754914E-001  0.6751219E+02  0.7818608E-02  0.1368763E+00
          3   -1    0    0  501    0  0.00000000000E+00  0.00000000000E+00  0.30170456543E+02  0.30170599878E+02  0.93000000000E-01 0. -1.
         -3   -1    0    0    0  501 -0.00000000000E+00 -0.00000000000E+00 -0.37767580077E+02  0.37767694580E+02  0.93000000000E-01 0.  1.
        -11    1    1    2    0    0 -0.17194075995E+01 -0.12335674182E+02  0.27773790130E+02  0.30438604410E+02  0.51100000000E-03 0. -1.
         11    1    1    2    0    0  0.17194075995E+01  0.12335674182E+02 -0.35370913663E+02  0.37499690048E+02  0.51100000000E-03 0.  1.
<mgrwt>
<rscale>  0 0.67512188E+02</rscale>
<asrwt>0</asrwt>
<pdfrwt beam="1">  1        3 0.46416285E-02 0.67512188E+02</pdfrwt>
<pdfrwt beam="2">  1       -3 0.58104168E-02 0.67512188E+02</pdfrwt>
<totfact> 0.83285150E+04</totfact>
</mgrwt>
</event>
<event>
 4    1  0.1754914E-001  0.4417357E+02  0.7818608E-02  0.1479568E+00
          3   -1    0    0  501    0  0.00000000000E+00  0.00000000000E+00  0.63573390645E+01  0.63580192656E+01  0.93000000000E-01 0.  1.
         -3   -1    0    0    0  501 -0.00000000000E+00 -0.00000000000E+00 -0.76729495155E+02  0.76729551515E+02  0.93000000000E-01 0. -1.
        -11    1    1    2    0    0 -0.15329667220E+02  0.10168189646E+00 -0.65093343569E+02  0.66874153554E+02  0.51100000000E-03 0. -1.
         11    1    1    2    0    0  0.15329667220E+02 -0.10168189646E+00 -0.52788125217E+01  0.16213417227E+02  0.51100000000E-03 0.  1.
<mgrwt>
<rscale>  0 0.44173567E+02</rscale>
<asrwt>0</asrwt>
<pdfrwt beam="1">  1        3 0.97810888E-03 0.44173567E+02</pdfrwt>
<pdfrwt beam="2">  1       -3 0.11804594E-01 0.44173567E+02</pdfrwt>
<totfact> 0.23663136E+05</totfact>
</mgrwt>
</event>
<event>
 4    1  0.1754914E-001  0.3499063E+02  0.7818608E-02  0.1548684E+00
          3   -1    0    0  501    0  0.00000000000E+00  0.00000000000E+00  0.12186685474E+03  0.12186689023E+03  0.93000000000E-01 0. -1.
         -3   -1    0    0    0  501 -0.00000000000E+00 -0.00000000000E+00 -0.25107462000E+01  0.25124680059E+01  0.93000000000E-01 0.  1.
        -11    1    1    2    0    0 -0.17150971514E+02 -0.33864879788E+01  0.57262195586E+02  0.59871388562E+02  0.51100000000E-03 0.  1.
         11    1    1    2    0    0  0.17150971514E+02  0.33864879788E+01  0.62093912955E+02  0.64507969670E+02  0.51100000000E-03 0. -1.
<mgrwt>
<rscale>  0 0.34990629E+02</rscale>
<asrwt>0</asrwt>
<pdfrwt beam="1">  1        3 0.18748874E-01 0.34990629E+02</pdfrwt>
<pdfrwt beam="2">  1       -3 0.38640398E-03 0.34990629E+02</pdfrwt>
<totfact> 0.37755552E+05</totfact>
</mgrwt>
</event>
<event>
 4    1  0.1754914E-001  0.3317191E+02  0.7818608E-02  0.1565461E+00
         -3   -1    0    0    0  501 -0.00000000000E+00  0.00000000000E+00  0.69039308006E+02  0.69039370644E+02  0.93000000000E-01 0.  1.
          3   -1    0    0  501    0  0.00000000000E+00 -0.00000000000E+00 -0.39839921547E+01  0.39850774759E+01  0.93000000000E-01 0. -1.
        -11    1    1    2    0    0  0.13426030041E+02  0.12871129736E+00  0.11091560499E+02  0.17415440385E+02  0.51100000000E-03 0. -1.
         11    1    1    2    0    0 -0.13426030041E+02 -0.12871129736E+00  0.53963755353E+02  0.55609007735E+02  0.51100000000E-03 0.  1.
<mgrwt>
<rscale>  0 0.33171914E+02</rscale>
<asrwt>0</asrwt>
<pdfrwt beam="2">  1        3 0.61301023E-03 0.33171914E+02</pdfrwt>
<pdfrwt beam="1">  1       -3 0.10621519E-01 0.33171914E+02</pdfrwt>
<totfact> 0.48475851E+05</totfact>
</mgrwt>
</event>
<event>
 4    1  0.1754914E-001  0.2088171E+02  0.7818608E-02  0.1728342E+00
          3   -1    0    0  501    0  0.00000000000E+00  0.00000000000E+00  0.36918744887E+01  0.36930456591E+01  0.93000000000E-01 0. -1.
         -3   -1    0    0    0  501 -0.00000000000E+00 -0.00000000000E+00 -0.29521477598E+02  0.29521624084E+02  0.93000000000E-01 0.  1.
        -11    1    1    2    0    0 -0.55086187459E+00 -0.10133802586E+02 -0.90140524023E+01  0.13573892022E+02  0.51100000000E-03 0. -1.
         11    1    1    2    0    0  0.55086187459E+00  0.10133802586E+02 -0.16815550707E+02  0.19640777721E+02  0.51100000000E-03 0.  1.
<mgrwt>
<rscale>  0 0.20881712E+02</rscale>
<asrwt>0</asrwt>
<pdfrwt beam="1">  1        3 0.56808207E-03 0.20881712E+02</pdfrwt>
<pdfrwt beam="2">  1       -3 0.45418670E-02 0.20881712E+02</pdfrwt>
<totfact> 0.15559884E+06</totfact>
</mgrwt>
</event>
<event>
 4    1  0.1754914E-001  0.2191763E+02  0.7818608E-02  0.1709681E+00
         -3   -1    0    0    0  501 -0.00000000000E+00  0.00000000000E+00  0.24256790473E+02  0.24256968753E+02  0.93000000000E-01 0. -1.
          3   -1    0    0  501    0  0.00000000000E+00 -0.00000000000E+00 -0.49503756255E+01  0.49512491185E+01  0.93000000000E-01 0.  1.
        -11    1    1    2    0    0  0.24000462452E+00 -0.10593190358E+02  0.13380373741E+02  0.17067738159E+02  0.51100000000E-03 0. -1.
         11    1    1    2    0    0 -0.24000462452E+00  0.10593190358E+02  0.59260411071E+01  0.12140479712E+02  0.51100000000E-03 0.  1.
<mgrwt>
<rscale>  0 0.21917626E+02</rscale>
<asrwt>0</asrwt>
<pdfrwt beam="2">  1        3 0.76167716E-03 0.21917626E+02</pdfrwt>
<pdfrwt beam="1">  1       -3 0.37318948E-02 0.21917626E+02</pdfrwt>
<totfact> 0.14183612E+06</totfact>
</mgrwt>
</event>
<event>
 4    1  0.1754914E-001  0.3155399E+02  0.7818608E-02  0.1581520E+00
          3   -1    0    0  501    0  0.00000000000E+00  0.00000000000E+00  0.30194796460E+02  0.30194939680E+02  0.93000000000E-01 0.  1.
         -3   -1    0    0    0  501 -0.00000000000E+00 -0.00000000000E+00 -0.82431658567E+01  0.82436904564E+01  0.93000000000E-01 0. -1.
        -11    1    1    2    0    0 -0.88801127029E+01  0.11698190897E+02  0.17995937332E+02  0.23228384201E+02  0.51100000000E-03 0.  1.
         11    1    1    2    0    0  0.88801127029E+01 -0.11698190897E+02  0.39556932713E+01  0.15210245935E+02  0.51100000000E-03 0. -1.
<mgrwt>
<rscale>  0 0.31553989E+02</rscale>
<asrwt>0</asrwt>
<pdfrwt beam="1">  1        3 0.46454048E-02 0.31553989E+02</pdfrwt>
<pdfrwt beam="2">  1       -3 0.12682307E-02 0.31553989E+02</pdfrwt>
<totfact> 0.60078991E+05</totfact>
</mgrwt>
</event>
<event>
 4    1  0.1754914E-001  0.3217533E+02  0.7818608E-02  0.1575217E+00
          3   -1    0    0  501    0  0.00000000000E+00  0.00000000000E+00  0.38116302846E+01  0.38127646697E+01  0.93000000000E-01 0.  1.
         -3   -1    0    0    0  501 -0.00000000000E+00 -0.00000000000E+00 -0.67889582214E+02  0.67889645913E+02  0.93000000000E-01 0. -1.
        -11    1    1    2    0    0  0.13775917649E+02  0.48314305519E+01 -0.47103029022E+02  0.49313425875E+02  0.51100000000E-03 0. -1.
         11    1    1    2    0    0 -0.13775917649E+02 -0.48314305519E+01 -0.16974922908E+02  0.22388984708E+02  0.51100000000E-03 0.  1.
<mgrwt>
<rscale>  0 0.32175328E+02</rscale>
<asrwt>0</asrwt>
<pdfrwt beam="1">  1        3 0.58649687E-03 0.32175328E+02</pdfrwt>
<pdfrwt beam="2">  1       -3 0.10444642E-01 0.32175328E+02</pdfrwt>
<totfact> 0.52266107E+05</totfact>
</mgrwt>
</event>
<event>
 4    1  0.1754914E-001  0.3517943E+02  0.7818608E-02  0.1547013E+00
         -3   -1    0    0    0  501 -0.00000000000E+00  0.00000000000E+00  0.22791166361E+02  0.22791356105E+02  0.93000000000E-01 0.  1.
          3   -1    0    0  501    0  0.00000000000E+00 -0.00000000000E+00 -0.13574945271E+02  0.13575263832E+02  0.93000000000E-01 0. -1.
        -11    1    1    2    0    0 -0.11571609994E+02  0.22381656143E+01  0.18105792115E+02  0.21603963793E+02  0.51100000000E-03 0.  1.
         11    1    1    2    0    0  0.11571609994E+02 -0.22381656143E+01 -0.88895710244E+01  0.14762656144E+02  0.51100000000E-03 0. -1.
<mgrwt>
<rscale>  0 0.35179430E+02</rscale>
<asrwt>0</asrwt>
<pdfrwt beam="2">  1        3 0.20884922E-02 0.35179430E+02</pdfrwt>
<pdfrwt beam="1">  1       -3 0.35063724E-02 0.35179430E+02</pdfrwt>
<totfact> 0.46709941E+05</totfact>
</mgrwt>
</event>
<event>
 4    1  0.1754914E-001  0.3480647E+02  0.7818608E-02  0.1550326E+00
         -3   -1    0    0    0  501 -0.00000000000E+00  0.00000000000E+00  0.13682431847E+02  0.13682747906E+02  0.93000000000E-01 0.  1.
          3   -1    0    0  501    0  0.00000000000E+00 -0.00000000000E+00 -0.22135200925E+02  0.22135396292E+02  0.93000000000E-01 0. -1.
        -11    1    1    2    0    0  0.13566564992E+02 -0.18312100812E+01 -0.15284294713E+02  0.20518642284E+02  0.51100000000E-03 0. -1.
         11    1    1    2    0    0 -0.13566564992E+02  0.18312100812E+01  0.68315256345E+01  0.15299501914E+02  0.51100000000E-03 0.  1.
<mgrwt>
<rscale>  0 0.34806467E+02</rscale>
<asrwt>0</asrwt>
<pdfrwt beam="2">  1        3 0.34054549E-02 0.34806467E+02</pdfrwt>
<pdfrwt beam="1">  1       -3 0.21050289E-02 0.34806467E+02</pdfrwt>
<totfact> 0.47993451E+05</totfact>
</mgrwt>
</event>
<event>
 4    1  0.1754914E-001  0.4751952E+02  0.7818608E-02  0.1459199E+00
          3   -1    0    0  501    0  0.00000000000E+00  0.00000000000E+00  0.84816897806E+02  0.84816948793E+02  0.93000000000E-01 0.  1.
         -3   -1    0    0    0  501 -0.00000000000E+00 -0.00000000000E+00 -0.66554431718E+01  0.66560929090E+01  0.93000000000E-01 0. -1.
        -11    1    1    2    0    0 -0.53927261513E+01  0.15416875422E+02  0.72297513447E+02  0.74119444102E+02  0.51100000000E-03 0.  1.
         11    1    1    2    0    0  0.53927261513E+01 -0.15416875422E+02  0.58639411874E+01  0.17353597599E+02  0.51100000000E-03 0. -1.
<mgrwt>
<rscale>  0 0.47519516E+02</rscale>
<asrwt>0</asrwt>
<pdfrwt beam="1">  1        3 0.13048807E-01 0.47519516E+02</pdfrwt>
<pdfrwt beam="2">  1       -3 0.10239683E-02 0.47519516E+02</pdfrwt>
<totfact> 0.19342690E+05</totfact>
</mgrwt>
</event>
<event>
 4    1  0.1754914E-001  0.3864847E+02  0.7818608E-02  0.1518399E+00
         -3   -1    0    0    0  501 -0.00000000000E+00  0.00000000000E+00  0.22992346671E+02  0.22992534755E+02  0.93000000000E-01 0. -1.
          3   -1    0    0  501    0  0.00000000000E+00 -0.00000000000E+00 -0.16240935423E+02  0.16241201692E+02  0.93000000000E-01 0.  1.
        -11    1    1    2    0    0 -0.14371900705E+02  0.56282977358E+01 -0.84277897162E+01  0.17585701721E+02  0.51100000000E-03 0.  1.
         11    1    1    2    0    0  0.14371900705E+02 -0.56282977358E+01  0.15179200965E+02  0.21648034725E+02  0.51100000000E-03 0. -1.
<mgrwt>
<rscale>  0 0.38648474E+02</rscale>
<asrwt>0</asrwt>
<pdfrwt beam="2">  1        3 0.24986404E-02 0.38648474E+02</pdfrwt>
<pdfrwt beam="1">  1       -3 0.35373190E-02 0.38648474E+02</pdfrwt>
<totfact> 0.36896177E+05</totfact>
</mgrwt>
</event>
<event>
 4    1  0.1754914E-001  0.2140558E+02  0.7818608E-02  0.1718740E+00
         -3   -1    0    0    0  501 -0.00000000000E+00  0.00000000000E+00  0.18569745355E+01  0.18593018650E+01  0.93000000000E-01 0. -1.
          3   -1    0    0  501    0  0.00000000000E+00 -0.00000000000E+00 -0.61645218196E+02  0.61645288347E+02  0.93000000000E-01 0.  1.
        -11    1    1    2    0    0 -0.11006660054E+01  0.10046649228E+02 -0.19445880788E+02  0.21915494661E+02  0.51100000000E-03 0. -1.
         11    1    1    2    0    0  0.11006660054E+01 -0.10046649228E+02 -0.40342362873E+02  0.41589095552E+02  0.51100000000E-03 0.  1.
<mgrwt>
<rscale>  0 0.21405581E+02</rscale>
<asrwt>0</asrwt>
<pdfrwt beam="2">  1        3 0.94840625E-02 0.21405581E+02</pdfrwt>
<pdfrwt beam="1">  1       -3 0.28587286E-03 0.21405581E+02</pdfrwt>
<totfact> 0.13455661E+06</totfact>
</mgrwt>
</event>
<event>
 4    1  0.1754914E-001  0.5226384E+02  0.7818608E-02  0.1433500E+00
         -3   -1    0    0    0  501 -0.00000000000E+00  0.00000000000E+00  0.26286761664E+02  0.26286926176E+02  0.93000000000E-01 0.  1.
          3   -1    0    0  501    0  0.00000000000E+00 -0.00000000000E+00 -0.25977664524E+02  0.25977830993E+02  0.93000000000E-01 0. -1.
        -11    1    1    2    0    0 -0.25624612147E+02  0.44409107250E+01  0.27109362146E+01  0.26147497226E+02  0.51100000000E-03 0. -1.
         11    1    1    2    0    0  0.25624612147E+02 -0.44409107250E+01 -0.24018390743E+01  0.26117259943E+02  0.51100000000E-03 0.  1.
<mgrwt>
<rscale>  0 0.52263843E+02</rscale>
<asrwt>0</asrwt>
<pdfrwt beam="2">  1        3 0.39965892E-02 0.52263843E+02</pdfrwt>
<pdfrwt beam="1">  1       -3 0.40441426E-02 0.52263843E+02</pdfrwt>
<totfact> 0.16797825E+05</totfact>
</mgrwt>
</event>
<event>
 4    1  0.1754914E-001  0.2821357E+02  0.7818608E-02  0.1618718E+00
         -3   -1    0    0    0  501 -0.00000000000E+00  0.00000000000E+00  0.71118068008E+02  0.71118128815E+02  0.93000000000E-01 0.  1.
          3   -1    0    0  501    0  0.00000000000E+00 -0.00000000000E+00 -0.27973490693E+01  0.27988945703E+01  0.93000000000E-01 0. -1.
        -11    1    1    2    0    0 -0.12030220246E+02 -0.73258862010E+01  0.32119822204E+02  0.35072464791E+02  0.51100000000E-03 0. -1.
         11    1    1    2    0    0  0.12030220246E+02  0.73258862010E+01  0.36200896734E+02  0.38844558595E+02  0.51100000000E-03 0.  1.
<mgrwt>
<rscale>  0 0.28213573E+02</rscale>
<asrwt>0</asrwt>
<pdfrwt beam="2">  1        3 0.43048493E-03 0.28213573E+02</pdfrwt>
<pdfrwt beam="1">  1       -3 0.10941366E-01 0.28213573E+02</pdfrwt>
<totfact> 0.70510144E+05</totfact>
</mgrwt>
</event>
<event>
 4    1  0.1754914E-001  0.2732836E+02  0.7818608E-02  0.1629648E+00
         -3   -1    0    0    0  501 -0.00000000000E+00  0.00000000000E+00  0.15873431210E+01  0.15900651508E+01  0.93000000000E-01 0. -1.
          3   -1    0    0  501    0  0.00000000000E+00 -0.00000000000E+00 -0.11752063630E+03  0.11752067310E+03  0.93000000000E-01 0.  1.
        -11    1    1    2    0    0  0.10109987564E+02 -0.85778580380E+01 -0.43564861456E+02  0.45537771696E+02  0.51100000000E-03 0.  1.
         11    1    1    2    0    0 -0.10109987564E+02  0.85778580380E+01 -0.72368431723E+02  0.73572966552E+02  0.51100000000E-03 0. -1.
<mgrwt>
<rscale>  0 0.27328364E+02</rscale>
<asrwt>0</asrwt>
<pdfrwt beam="2">  1        3 0.18080303E-01 0.27328364E+02</pdfrwt>
<pdfrwt beam="1">  1       -3 0.24441894E-03 0.27328364E+02</pdfrwt>
<totfact> 0.67877402E+05</totfact>
</mgrwt>
</event>
<event>
 4    1  0.1754914E-001  0.2316267E+02  0.7818608E-02  0.1688887E+00
         -3   -1    0    0    0  501 -0.00000000000E+00  0.00000000000E+00  0.17557704730E+01  0.17582317691E+01  0.93000000000E-01 0. -1.
          3   -1    0    0  501    0  0.00000000000E+00 -0.00000000000E+00 -0.76336283468E+02  0.76336340119E+02  0.93000000000E-01 0.  1.
        -11    1    1    2    0    0  0.75424367765E+00 -0.10445967800E+02 -0.53958294084E+02  0.54965303852E+02  0.51100000000E-03 0.  1.
         11    1    1    2    0    0 -0.75424367765E+00  0.10445967800E+02 -0.20622218911E+02  0.23129268036E+02  0.51100000000E-03 0. -1.
<mgrwt>
<rscale>  0 0.23162669E+02</rscale>
<asrwt>0</asrwt>
<pdfrwt beam="2">  1        3 0.11744235E-01 0.23162669E+02</pdfrwt>
<pdfrwt beam="1">  1       -3 0.27031228E-03 0.23162669E+02</pdfrwt>
<totfact> 0.10877947E+06</totfact>
</mgrwt>
</event>
<event>
 4    1  0.1754914E-001  0.4391634E+02  0.7818608E-02  0.1481222E+00
          3   -1    0    0  501    0  0.00000000000E+00  0.00000000000E+00  0.40010822128E+01  0.40021628995E+01  0.93000000000E-01 0. -1.
         -3   -1    0    0    0  501 -0.00000000000E+00 -0.00000000000E+00 -0.12049032003E+03  0.12049035592E+03  0.93000000000E-01 0.  1.
        -11    1    1    2    0    0 -0.11846535955E+02  0.16966154382E+02 -0.37419147768E+02  0.42759600425E+02  0.51100000000E-03 0. -1.
         11    1    1    2    0    0  0.11846535955E+02 -0.16966154382E+02 -0.79070090045E+02  0.81732918390E+02  0.51100000000E-03 0.  1.
<mgrwt>
<rscale>  0 0.43916338E+02</rscale>
<asrwt>0</asrwt>
<pdfrwt beam="1">  1        3 0.61563709E-03 0.43916338E+02</pdfrwt>
<pdfrwt beam="2">  1       -3 0.18537055E-01 0.43916338E+02</pdfrwt>
<totfact> 0.21806840E+05</totfact>
</mgrwt>
</event>
<event>
 4    1  0.1754914E-001  0.3824318E+02  0.7818608E-02  0.1521553E+00
          3   -1    0    0  501    0  0.00000000000E+00  0.00000000000E+00  0.12865507404E+03  0.12865510765E+03  0.93000000000E-01 0.  1.
         -3   -1    0    0    0  501 -0.00000000000E+00 -0.00000000000E+00 -0.28411856861E+01  0.28427073544E+01  0.93000000000E-01 0. -1.
        -11    1    1    2    0    0 -0.15802378689E+02  0.10704062611E+02  0.66891831250E+02  0.69561549846E+02  0.51100000000E-03 0.  1.
         11    1    1    2    0    0  0.15802378689E+02 -0.10704062611E+02  0.58922057099E+02  0.61936265157E+02  0.51100000000E-03 0. -1.
<mgrwt>
<rscale>  0 0.38243180E+02</rscale>
<asrwt>0</asrwt>
<pdfrwt beam="1">  1        3 0.19793206E-01 0.38243180E+02</pdfrwt>
<pdfrwt beam="2">  1       -3 0.43722517E-03 0.38243180E+02</pdfrwt>
<totfact> 0.30050654E+05</totfact>
</mgrwt>
</event>
<event>
 4    1  0.1754914E-001  0.2602683E+02  0.7818608E-02  0.1646677E+00
          3   -1    0    0  501    0  0.00000000000E+00  0.00000000000E+00  0.29111301058E+02  0.29111449608E+02  0.93000000000E-01 0.  1.
         -3   -1    0    0    0  501 -0.00000000000E+00 -0.00000000000E+00 -0.58167577751E+01  0.58175011830E+01  0.93000000000E-01 0. -1.
        -11    1    1    2    0    0 -0.10255563075E+02 -0.60314699546E+01  0.18722458669E+02  0.22183003915E+02  0.51100000000E-03 0.  1.
         11    1    1    2    0    0  0.10255563075E+02  0.60314699546E+01  0.45720846132E+01  0.12745946876E+02  0.51100000000E-03 0. -1.
<mgrwt>
<rscale>  0 0.26026830E+02</rscale>
<asrwt>0</asrwt>
<pdfrwt beam="1">  1        3 0.44787303E-02 0.26026830E+02</pdfrwt>
<pdfrwt beam="2">  1       -3 0.89495443E-03 0.26026830E+02</pdfrwt>
<totfact> 0.94804444E+05</totfact>
</mgrwt>
</event>
<event>
 4    1  0.1754914E-001  0.2798947E+02  0.7818608E-02  0.1621438E+00
         -3   -1    0    0    0  501 -0.00000000000E+00  0.00000000000E+00  0.13617986139E+02  0.13618303693E+02  0.93000000000E-01 0. -1.
          3   -1    0    0  501    0  0.00000000000E+00 -0.00000000000E+00 -0.14381271217E+02  0.14381571917E+02  0.93000000000E-01 0.  1.
        -11    1    1    2    0    0 -0.12227004619E+02 -0.67301034907E+01 -0.14109430917E+01  0.14027996849E+02  0.51100000000E-03 0.  1.
         11    1    1    2    0    0  0.12227004619E+02  0.67301034907E+01  0.64765801371E+00  0.13971878761E+02  0.51100000000E-03 0. -1.
<mgrwt>
<rscale>  0 0.27989470E+02</rscale>
<asrwt>0</asrwt>
<pdfrwt beam="2">  1        3 0.22125508E-02 0.27989470E+02</pdfrwt>
<pdfrwt beam="1">  1       -3 0.20951223E-02 0.27989470E+02</pdfrwt>
<totfact> 0.82096002E+05</totfact>
</mgrwt>
</event>
<event>
 4    1  0.1754914E-001  0.3114132E+02  0.7818608E-02  0.1585805E+00
          3   -1    0    0  501    0  0.00000000000E+00  0.00000000000E+00  0.26597384698E+02  0.26597547289E+02  0.93000000000E-01 0.  1.
         -3   -1    0    0    0  501 -0.00000000000E+00 -0.00000000000E+00 -0.91149565822E+01  0.91154310099E+01  0.93000000000E-01 0. -1.
        -11    1    1    2    0    0 -0.10629487392E+02  0.10778506522E+02  0.12920865673E+02  0.19902536900E+02  0.51100000000E-03 0.  1.
         11    1    1    2    0    0  0.10629487392E+02 -0.10778506522E+02  0.45615624438E+01  0.15810441399E+02  0.51100000000E-03 0. -1.
<mgrwt>
<rscale>  0 0.31141315E+02</rscale>
<asrwt>0</asrwt>
<pdfrwt beam="1">  1        3 0.40919543E-02 0.31141315E+02</pdfrwt>
<pdfrwt beam="2">  1       -3 0.14023500E-02 0.31141315E+02</pdfrwt>
<totfact> 0.62488444E+05</totfact>
</mgrwt>
</event>
<event>
 4    1  0.1754914E-001  0.3602139E+02  0.7818608E-02  0.1539713E+00
         -3   -1    0    0    0  501 -0.00000000000E+00  0.00000000000E+00  0.44008027026E+02  0.44008125292E+02  0.93000000000E-01 0.  1.
          3   -1    0    0  501    0  0.00000000000E+00 -0.00000000000E+00 -0.73706437616E+01  0.73712304577E+01  0.93000000000E-01 0. -1.
        -11    1    1    2    0    0  0.52514250695E+01 -0.11366134944E+02 -0.14800947002E+00  0.12521517316E+02  0.51100000000E-03 0. -1.
         11    1    1    2    0    0 -0.52514250695E+01  0.11366134944E+02  0.36785392735E+02  0.38857838434E+02  0.51100000000E-03 0.  1.
<mgrwt>
<rscale>  0 0.36021387E+02</rscale>
<asrwt>0</asrwt>
<pdfrwt beam="2">  1        3 0.11339979E-02 0.36021387E+02</pdfrwt>
<pdfrwt beam="1">  1       -3 0.67705183E-02 0.36021387E+02</pdfrwt>
<totfact> 0.42248252E+05</totfact>
</mgrwt>
</event>
<event>
 4    1  0.1754914E-001  0.4152953E+02  0.7818608E-02  0.1497248E+00
          3   -1    0    0  501    0  0.00000000000E+00  0.00000000000E+00  0.12961433412E+03  0.12961436749E+03  0.93000000000E-01 0. -1.
         -3   -1    0    0    0  501 -0.00000000000E+00 -0.00000000000E+00 -0.33259198849E+01  0.33272198726E+01  0.93000000000E-01 0.  1.
        -11    1    1    2    0    0  0.43784772205E+01  0.18729786697E+02  0.88186720842E+02  0.90260033822E+02  0.51100000000E-03 0. -1.
         11    1    1    2    0    0 -0.43784772205E+01 -0.18729786697E+02  0.38101693395E+02  0.42681553537E+02  0.51100000000E-03 0.  1.
<mgrwt>
<rscale>  0 0.41529533E+02</rscale>
<asrwt>0</asrwt>
<pdfrwt beam="1">  1        3 0.19940769E-01 0.41529533E+02</pdfrwt>
<pdfrwt beam="2">  1       -3 0.51178255E-03 0.41529533E+02</pdfrwt>
<totfact> 0.24539205E+05</totfact>
</mgrwt>
</event>
<event>
 4    1  0.1754914E-001  0.4291491E+02  0.7818608E-02  0.1487795E+00
         -3   -1    0    0    0  501 -0.00000000000E+00  0.00000000000E+00  0.39507245220E+02  0.39507354681E+02  0.93000000000E-01 0. -1.
          3   -1    0    0  501    0  0.00000000000E+00 -0.00000000000E+00 -0.11653812090E+02  0.11654183164E+02  0.93000000000E-01 0.  1.
        -11    1    1    2    0    0 -0.12746901888E+02 -0.55863094372E+01  0.33397029515E+02  0.36180822842E+02  0.51100000000E-03 0. -1.
         11    1    1    2    0    0  0.12746901888E+02  0.55863094372E+01 -0.55435963844E+01  0.14980715003E+02  0.51100000000E-03 0.  1.
<mgrwt>
<rscale>  0 0.42914907E+02</rscale>
<asrwt>0</asrwt>
<pdfrwt beam="2">  1        3 0.17929311E-02 0.42914907E+02</pdfrwt>
<pdfrwt beam="1">  1       -3 0.60780748E-02 0.42914907E+02</pdfrwt>
<totfact> 0.27605289E+05</totfact>
</mgrwt>
</event>
<event>
 4    1  0.1754914E-001  0.2244752E+02  0.7818608E-02  0.1700625E+00
          3   -1    0    0  501    0  0.00000000000E+00  0.00000000000E+00  0.63953035391E+01  0.63959797027E+01  0.93000000000E-01 0. -1.
         -3   -1    0    0    0  501 -0.00000000000E+00 -0.00000000000E+00 -0.19695867668E+02  0.19696087231E+02  0.93000000000E-01 0.  1.
        -11    1    1    2    0    0  0.29205453866E+01 -0.10053581289E+02 -0.11352975912E+02  0.15443255628E+02  0.51100000000E-03 0.  1.
         11    1    1    2    0    0 -0.29205453866E+01  0.10053581289E+02 -0.19475882168E+01  0.10648811305E+02  0.51100000000E-03 0. -1.
<mgrwt>
<rscale>  0 0.22447515E+02</rscale>
<asrwt>0</asrwt>
<pdfrwt beam="1">  1        3 0.98396176E-03 0.22447515E+02</pdfrwt>
<pdfrwt beam="2">  1       -3 0.30302024E-02 0.22447515E+02</pdfrwt>
<totfact> 0.13599542E+06</totfact>
</mgrwt>
</event>
<event>
 4    1  0.1754914E-001  0.3248834E+02  0.7818608E-02  0.1572107E+00
          3   -1    0    0  501    0  0.00000000000E+00  0.00000000000E+00  0.23364772008E+01  0.23383273317E+01  0.93000000000E-01 0.  1.
         -3   -1    0    0    0  501 -0.00000000000E+00 -0.00000000000E+00 -0.11288969453E+03  0.11288973284E+03  0.93000000000E-01 0. -1.
        -11    1    1    2    0    0  0.10694759861E+02 -0.11874539696E+02 -0.44941971141E+02  0.47698672432E+02  0.51100000000E-03 0.  1.
         11    1    1    2    0    0 -0.10694759861E+02  0.11874539696E+02 -0.65611246187E+02  0.67529387736E+02  0.51100000000E-03 0. -1.
<mgrwt>
<rscale>  0 0.32488336E+02</rscale>
<asrwt>0</asrwt>
<pdfrwt beam="1">  1        3 0.35960338E-03 0.32488336E+02</pdfrwt>
<pdfrwt beam="2">  1       -3 0.17367786E-01 0.32488336E+02</pdfrwt>
<totfact> 0.45922237E+05</totfact>
</mgrwt>
</event>
<event>
 4    1  0.1754914E-001  0.5339120E+02  0.7818608E-02  0.1427864E+00
          3   -1    0    0  501    0  0.00000000000E+00  0.00000000000E+00  0.46336090821E+02  0.46336184150E+02  0.93000000000E-01 0. -1.
         -3   -1    0    0    0  501 -0.00000000000E+00 -0.00000000000E+00 -0.15379881446E+02  0.15380162623E+02  0.93000000000E-01 0.  1.
        -11    1    1    2    0    0  0.22714407502E+02 -0.13683644328E+02  0.11921169922E+02  0.29074055837E+02  0.51100000000E-03 0. -1.
         11    1    1    2    0    0 -0.22714407502E+02  0.13683644328E+02  0.19035039453E+02  0.32642290935E+02  0.51100000000E-03 0.  1.
<mgrwt>
<rscale>  0 0.53391203E+02</rscale>
<asrwt>0</asrwt>
<pdfrwt beam="1">  1        3 0.71286582E-02 0.53391203E+02</pdfrwt>
<pdfrwt beam="2">  1       -3 0.23661644E-02 0.53391203E+02</pdfrwt>
<totfact> 0.15521872E+05</totfact>
</mgrwt>
</event>
<event>
 4    1  0.1754914E-001  0.2576378E+02  0.7818608E-02  0.1650268E+00
         -3   -1    0    0    0  501 -0.00000000000E+00  0.00000000000E+00  0.99167534321E+01  0.99171895027E+01  0.93000000000E-01 0.  1.
          3   -1    0    0  501    0  0.00000000000E+00 -0.00000000000E+00 -0.16732671576E+02  0.16732930020E+02  0.93000000000E-01 0. -1.
        -11    1    1    2    0    0  0.11930874740E+02  0.48190539621E+01 -0.40405360452E+01  0.13486844885E+02  0.51100000000E-03 0.  1.
         11    1    1    2    0    0 -0.11930874740E+02 -0.48190539621E+01 -0.27753820984E+01  0.13163274638E+02  0.51100000000E-03 0. -1.
<mgrwt>
<rscale>  0 0.25763776E+02</rscale>
<asrwt>0</asrwt>
<pdfrwt beam="2">  1        3 0.25743106E-02 0.25763776E+02</pdfrwt>
<pdfrwt beam="1">  1       -3 0.15257078E-02 0.25763776E+02</pdfrwt>
<totfact> 0.99681924E+05</totfact>
</mgrwt>
</event>
<event>
 4    1  0.1754914E-001  0.3176873E+02  0.7818608E-02  0.1579322E+00
          3   -1    0    0  501    0  0.00000000000E+00  0.00000000000E+00  0.34080358902E+01  0.34093045667E+01  0.93000000000E-01 0. -1.
         -3   -1    0    0    0  501 -0.00000000000E+00 -0.00000000000E+00 -0.74019684723E+02  0.74019743146E+02  0.93000000000E-01 0.  1.
        -11    1    1    2    0    0  0.13384129223E+02  0.78868276174E+01 -0.43380574916E+02  0.46078316433E+02  0.51100000000E-03 0. -1.
         11    1    1    2    0    0 -0.13384129223E+02 -0.78868276174E+01 -0.27231073916E+02  0.31350731281E+02  0.51100000000E-03 0.  1.
<mgrwt>
<rscale>  0 0.31768734E+02</rscale>
<asrwt>0</asrwt>
<pdfrwt beam="1">  1        3 0.52441535E-03 0.31768734E+02</pdfrwt>
<pdfrwt beam="2">  1       -3 0.11387745E-01 0.31768734E+02</pdfrwt>
<totfact> 0.53053388E+05</totfact>
</mgrwt>
</event>
<event>
 4    1  0.1754914E-001  0.3891548E+02  0.7818608E-02  0.1516347E+00
         -3   -1    0    0    0  501 -0.00000000000E+00  0.00000000000E+00  0.96023838427E+01  0.96028341891E+01  0.93000000000E-01 0. -1.
          3   -1    0    0  501    0  0.00000000000E+00 -0.00000000000E+00 -0.39426650123E+02  0.39426759808E+02  0.93000000000E-01 0.  1.
        -11    1    1    2    0    0 -0.86150217893E+01 -0.63539599580E+01  0.55592842233E+01  0.12062215755E+02  0.51100000000E-03 0. -1.
         11    1    1    2    0    0  0.86150217893E+01  0.63539599580E+01 -0.35383550504E+02  0.36967378242E+02  0.51100000000E-03 0.  1.
<mgrwt>
<rscale>  0 0.38915475E+02</rscale>
<asrwt>0</asrwt>
<pdfrwt beam="2">  1        3 0.60656815E-02 0.38915475E+02</pdfrwt>
<pdfrwt beam="1">  1       -3 0.14773329E-02 0.38915475E+02</pdfrwt>
<totfact> 0.35276976E+05</totfact>
</mgrwt>
</event>
<event>
 4    1  0.1754914E-001  0.2960308E+02  0.7818608E-02  0.1602518E+00
          3   -1    0    0  501    0  0.00000000000E+00  0.00000000000E+00  0.50382282282E+01  0.50390864925E+01  0.93000000000E-01 0.  1.
         -3   -1    0    0    0  501 -0.00000000000E+00 -0.00000000000E+00 -0.43480026314E+02  0.43480125773E+02  0.93000000000E-01 0. -1.
        -11    1    1    2    0    0  0.11735312176E+02  0.79784394943E+01 -0.26118794295E+02  0.29724812267E+02  0.51100000000E-03 0. -1.
         11    1    1    2    0    0 -0.11735312176E+02 -0.79784394943E+01 -0.12323003791E+02  0.18794399999E+02  0.51100000000E-03 0.  1.
<mgrwt>
<rscale>  0 0.29603076E+02</rscale>
<asrwt>0</asrwt>
<pdfrwt beam="1">  1        3 0.77518573E-03 0.29603076E+02</pdfrwt>
<pdfrwt beam="2">  1       -3 0.66893083E-02 0.29603076E+02</pdfrwt>
<totfact> 0.67701327E+05</totfact>
</mgrwt>
</event>
<event>
 4    1  0.1754914E-001  0.2281753E+02  0.7818608E-02  0.1694485E+00
          3   -1    0    0  501    0  0.00000000000E+00  0.00000000000E+00  0.74513801903E+01  0.74519605300E+01  0.93000000000E-01 0. -1.
         -3   -1    0    0    0  501 -0.00000000000E+00 -0.00000000000E+00 -0.17466506634E+02  0.17466754221E+02  0.93000000000E-01 0.  1.
        -11    1    1    2    0    0 -0.49115888837E+01  0.95228211277E+01 -0.72858081294E+00  0.10739583691E+02  0.51100000000E-03 0.  1.
         11    1    1    2    0    0  0.49115888837E+01 -0.95228211277E+01 -0.92865456312E+01  0.14179131060E+02  0.51100000000E-03 0. -1.
<mgrwt>
<rscale>  0 0.22817528E+02</rscale>
<asrwt>0</asrwt>
<pdfrwt beam="1">  1        3 0.11464299E-02 0.22817528E+02</pdfrwt>
<pdfrwt beam="2">  1       -3 0.26872185E-02 0.22817528E+02</pdfrwt>
<totfact> 0.13169374E+06</totfact>
</mgrwt>
</event>
<event>
 4    1  0.1754914E-001  0.2085838E+02  0.7818608E-02  0.1728778E+00
         -3   -1    0    0    0  501 -0.00000000000E+00  0.00000000000E+00  0.17983506684E+01  0.18007537662E+01  0.93000000000E-01 0.  1.
          3   -1    0    0  501    0  0.00000000000E+00 -0.00000000000E+00 -0.60439284906E+02  0.60439356457E+02  0.93000000000E-01 0. -1.
        -11    1    1    2    0    0 -0.93848977292E+01 -0.38784190505E+01 -0.36412953119E+02  0.37802401972E+02  0.51100000000E-03 0.  1.
         11    1    1    2    0    0  0.93848977292E+01  0.38784190505E+01 -0.22227981118E+02  0.24437708251E+02  0.51100000000E-03 0. -1.
<mgrwt>
<rscale>  0 0.20858383E+02</rscale>
<asrwt>0</asrwt>
<pdfrwt beam="2">  1        3 0.92985403E-02 0.20858383E+02</pdfrwt>
<pdfrwt beam="1">  1       -3 0.27685974E-03 0.20858383E+02</pdfrwt>
<totfact> 0.14286294E+06</totfact>
</mgrwt>
</event>
<event>
 4    1  0.1754914E-001  0.3931354E+02  0.7818608E-02  0.1513325E+00
          3   -1    0    0  501    0  0.00000000000E+00  0.00000000000E+00  0.81415472221E+02  0.81415525338E+02  0.93000000000E-01 0.  1.
         -3   -1    0    0    0  501 -0.00000000000E+00 -0.00000000000E+00 -0.47453760593E+01  0.47462872800E+01  0.93000000000E-01 0. -1.
        -11    1    1    2    0    0  0.14457457982E+02 -0.51097544367E+01  0.11380253608E+02  0.19095493033E+02  0.51100000000E-03 0. -1.
         11    1    1    2    0    0 -0.14457457982E+02  0.51097544367E+01  0.65289842554E+02  0.67066319585E+02  0.51100000000E-03 0.  1.
<mgrwt>
<rscale>  0 0.39313538E+02</rscale>
<asrwt>0</asrwt>
<pdfrwt beam="1">  1        3 0.12525531E-01 0.39313538E+02</pdfrwt>
<pdfrwt beam="2">  1       -3 0.73013204E-03 0.39313538E+02</pdfrwt>
<totfact> 0.31226098E+05</totfact>
</mgrwt>
</event>
<event>
 4    1  0.1754914E-001  0.2622096E+02  0.7818608E-02  0.1644060E+00
         -3   -1    0    0    0  501 -0.00000000000E+00  0.00000000000E+00  0.21414056844E+02  0.21414258790E+02  0.93000000000E-01 0. -1.
          3   -1    0    0  501    0  0.00000000000E+00 -0.00000000000E+00 -0.80262117437E+01  0.80267505228E+01  0.93000000000E-01 0.  1.
        -11    1    1    2    0    0 -0.81379923773E+01 -0.84679083794E+01  0.15150102563E+00  0.11745439331E+02  0.51100000000E-03 0.  1.
         11    1    1    2    0    0  0.81379923773E+01  0.84679083794E+01  0.13236344075E+02  0.17695569982E+02  0.51100000000E-03 0. -1.
<mgrwt>
<rscale>  0 0.26220958E+02</rscale>
<asrwt>0</asrwt>
<pdfrwt beam="2">  1        3 0.12348588E-02 0.26220958E+02</pdfrwt>
<pdfrwt beam="1">  1       -3 0.32945272E-02 0.26220958E+02</pdfrwt>
<totfact> 0.94888744E+05</totfact>
</mgrwt>
</event>
<event>
 4    1  0.1754914E-001  0.7752526E+02  0.7818608E-02  0.1336225E+00
          3   -1    0    0  501    0  0.00000000000E+00  0.00000000000E+00  0.46755319084E+02  0.46755411576E+02  0.93000000000E-01 0. -1.
         -3   -1    0    0    0  501 -0.00000000000E+00 -0.00000000000E+00 -0.32136078701E+02  0.32136213269E+02  0.93000000000E-01 0.  1.
        -11    1    1    2    0    0 -0.10597738349E+00  0.22942704944E+02 -0.24484641581E+02  0.33554084922E+02  0.51100000000E-03 0.  1.
         11    1    1    2    0    0  0.10597738349E+00 -0.22942704944E+02  0.39103881964E+02  0.45337539923E+02  0.51100000000E-03 0. -1.
<mgrwt>
<rscale>  0 0.77525262E+02</rscale>
<asrwt>0</asrwt>
<pdfrwt beam="1">  1        3 0.71931435E-02 0.77525262E+02</pdfrwt>
<pdfrwt beam="2">  1       -3 0.49440296E-02 0.77525262E+02</pdfrwt>
<totfact> 0.56263038E+04</totfact>
</mgrwt>
</event>
<event>
 4    1  0.1754914E-001  0.3064725E+02  0.7818608E-02  0.1591042E+00
          3   -1    0    0  501    0  0.00000000000E+00  0.00000000000E+00  0.90741078871E+02  0.90741126528E+02  0.93000000000E-01 0. -1.
         -3   -1    0    0    0  501 -0.00000000000E+00 -0.00000000000E+00 -0.25868469471E+01  0.25885181335E+01  0.93000000000E-01 0.  1.
        -11    1    1    2    0    0  0.13703215770E+02 -0.58191813955E-01  0.23192584473E+02  0.26938401651E+02  0.51100000000E-03 0.  1.
         11    1    1    2    0    0 -0.13703215770E+02  0.58191813955E-01  0.64961647451E+02  0.66391243011E+02  0.51100000000E-03 0. -1.
<mgrwt>
<rscale>  0 0.30647251E+02</rscale>
<asrwt>0</asrwt>
<pdfrwt beam="1">  1        3 0.13960296E-01 0.30647251E+02</pdfrwt>
<pdfrwt beam="2">  1       -3 0.39810873E-03 0.30647251E+02</pdfrwt>
<totfact> 0.55430051E+05</totfact>
</mgrwt>
</event>
<event>
 4    1  0.1754914E-001  0.3591391E+02  0.7818608E-02  0.1540631E+00
          3   -1    0    0  501    0  0.00000000000E+00  0.00000000000E+00  0.82365833140E+01  0.82371083329E+01  0.93000000000E-01 0.  1.
         -3   -1    0    0    0  501 -0.00000000000E+00 -0.00000000000E+00 -0.39146961575E+02  0.39147072043E+02  0.93000000000E-01 0. -1.
        -11    1    1    2    0    0 -0.81384970261E+01 -0.11819653107E+02 -0.29696754488E+02  0.32982367423E+02  0.51100000000E-03 0. -1.
         11    1    1    2    0    0  0.81384970261E+01  0.11819653107E+02 -0.12136237731E+01  0.14401812954E+02  0.51100000000E-03 0.  1.
<mgrwt>
<rscale>  0 0.35913912E+02</rscale>
<asrwt>0</asrwt>
<pdfrwt beam="1">  1        3 0.12672156E-02 0.35913912E+02</pdfrwt>
<pdfrwt beam="2">  1       -3 0.60226582E-02 0.35913912E+02</pdfrwt>
<totfact> 0.43037569E+05</totfact>
</mgrwt>
</event>
<event>
 4    1  0.1754914E-001  0.3896196E+02  0.7818608E-02  0.1515992E+00
          3   -1    0    0  501    0  0.00000000000E+00  0.00000000000E+00  0.38699232393E+01  0.38710405420E+01  0.93000000000E-01 0.  1.
         -3   -1    0    0    0  501 -0.00000000000E+00 -0.00000000000E+00 -0.98050891388E+02  0.98050935493E+02  0.93000000000E-01 0. -1.
        -11    1    1    2    0    0  0.17450942245E+02 -0.35629194395E+01 -0.26446322858E+02  0.31884757693E+02  0.51100000000E-03 0.  1.
         11    1    1    2    0    0 -0.17450942245E+02  0.35629194395E+01 -0.67734645290E+02  0.70037218341E+02  0.51100000000E-03 0. -1.
<mgrwt>
<rscale>  0 0.38961961E+02</rscale>
<asrwt>0</asrwt>
<pdfrwt beam="1">  1        3 0.59546222E-03 0.38961961E+02</pdfrwt>
<pdfrwt beam="2">  1       -3 0.15084840E-01 0.38961961E+02</pdfrwt>
<totfact> 0.30729411E+05</totfact>
</mgrwt>
</event>
<event>
 4    1  0.1754914E-001  0.2392320E+02  0.7818608E-02  0.1676968E+00
         -3   -1    0    0    0  501 -0.00000000000E+00  0.00000000000E+00  0.32259472791E+02  0.32259606844E+02  0.93000000000E-01 0.  1.
          3   -1    0    0  501    0  0.00000000000E+00 -0.00000000000E+00 -0.44346509017E+01  0.44356259558E+01  0.93000000000E-01 0. -1.
        -11    1    1    2    0    0  0.79844764463E+00 -0.11897064858E+02  0.12455488072E+02  0.17242878363E+02  0.51100000000E-03 0.  1.
         11    1    1    2    0    0 -0.79844764463E+00  0.11897064858E+02  0.15369333817E+02  0.19452354437E+02  0.51100000000E-03 0. -1.
<mgrwt>
<rscale>  0 0.23923198E+02</rscale>
<asrwt>0</asrwt>
<pdfrwt beam="2">  1        3 0.68233933E-03 0.23923198E+02</pdfrwt>
<pdfrwt beam="1">  1       -3 0.49630809E-02 0.23923198E+02</pdfrwt>
<totfact> 0.11401344E+06</totfact>
</mgrwt>
</event>
<event>
 4    1  0.1754914E-001  0.2584922E+02  0.7818608E-02  0.1649095E+00
          3   -1    0    0  501    0  0.00000000000E+00  0.00000000000E+00  0.24781558043E+02  0.24781732547E+02  0.93000000000E-01 0. -1.
         -3   -1    0    0    0  501 -0.00000000000E+00 -0.00000000000E+00 -0.67402034323E+01  0.67408449996E+01  0.93000000000E-01 0.  1.
        -11    1    1    2    0    0 -0.10456799226E+02  0.47432452059E+01  0.17852956791E+01  0.11620254130E+02  0.51100000000E-03 0.  1.
         11    1    1    2    0    0  0.10456799226E+02 -0.47432452059E+01  0.16256058932E+02  0.19902323417E+02  0.51100000000E-03 0. -1.
<mgrwt>
<rscale>  0 0.25849225E+02</rscale>
<asrwt>0</asrwt>
<pdfrwt beam="1">  1        3 0.38126102E-02 0.25849225E+02</pdfrwt>
<pdfrwt beam="2">  1       -3 0.10370171E-02 0.25849225E+02</pdfrwt>
<totfact> 0.97351458E+05</totfact>
</mgrwt>
</event>
<event>
 4    1  0.1754914E-001  0.2625129E+02  0.7818608E-02  0.1643653E+00
          3   -1    0    0  501    0  0.00000000000E+00  0.00000000000E+00  0.17630146833E+01  0.17654658800E+01  0.93000000000E-01 0.  1.
         -3   -1    0    0    0  501 -0.00000000000E+00 -0.00000000000E+00 -0.97650053243E+02  0.97650097529E+02  0.93000000000E-01 0. -1.
        -11    1    1    2    0    0 -0.32295585038E+01  0.12713884655E+02 -0.46209677807E+02  0.48035478913E+02  0.51100000000E-03 0.  1.
         11    1    1    2    0    0  0.32295585038E+01 -0.12713884655E+02 -0.49677360753E+02  0.51380084496E+02  0.51100000000E-03 0. -1.
<mgrwt>
<rscale>  0 0.26251287E+02</rscale>
<asrwt>0</asrwt>
<pdfrwt beam="1">  1        3 0.27142506E-03 0.26251287E+02</pdfrwt>
<pdfrwt beam="2">  1       -3 0.15023273E-01 0.26251287E+02</pdfrwt>
<totfact> 0.77914221E+05</totfact>
</mgrwt>
</event>
<event>
 4    1  0.1754914E-001  0.3318864E+02  0.7818608E-02  0.1565300E+00
         -3   -1    0    0    0  501 -0.00000000000E+00  0.00000000000E+00  0.26043959560E+02  0.26044125606E+02  0.93000000000E-01 0.  1.
          3   -1    0    0  501    0  0.00000000000E+00 -0.00000000000E+00 -0.10572931030E+02  0.10573340038E+02  0.93000000000E-01 0. -1.
        -11    1    1    2    0    0 -0.92091540891E+01  0.40785959315E+01 -0.68151759941E+01  0.12161006862E+02  0.51100000000E-03 0. -1.
         11    1    1    2    0    0  0.92091540891E+01 -0.40785959315E+01  0.22286204524E+02  0.24456458782E+02  0.51100000000E-03 0.  1.
<mgrwt>
<rscale>  0 0.33188644E+02</rscale>
<asrwt>0</asrwt>
<pdfrwt beam="2">  1        3 0.16266490E-02 0.33188644E+02</pdfrwt>
<pdfrwt beam="1">  1       -3 0.40068072E-02 0.33188644E+02</pdfrwt>
<totfact> 0.53621400E+05</totfact>
</mgrwt>
</event>
<event>
 4    1  0.1754914E-001  0.3695778E+02  0.7818608E-02  0.1531872E+00
          3   -1    0    0  501    0  0.00000000000E+00  0.00000000000E+00  0.60084578011E+01  0.60091774934E+01  0.93000000000E-01 0.  1.
         -3   -1    0    0    0  501 -0.00000000000E+00 -0.00000000000E+00 -0.56827296855E+02  0.56827372953E+02  0.93000000000E-01 0. -1.
        -11    1    1    2    0    0  0.81889422942E+01 -0.15165119053E+02 -0.36742386886E+02  0.40583772695E+02  0.51100000000E-03 0. -1.
         11    1    1    2    0    0 -0.81889422942E+01  0.15165119053E+02 -0.14076452168E+02  0.22252777752E+02  0.51100000000E-03 0.  1.
<mgrwt>
<rscale>  0 0.36957782E+02</rscale>
<asrwt>0</asrwt>
<pdfrwt beam="1">  1        3 0.92443938E-03 0.36957782E+02</pdfrwt>
<pdfrwt beam="2">  1       -3 0.87427219E-02 0.36957782E+02</pdfrwt>
<totfact> 0.38491568E+05</totfact>
</mgrwt>
</event>
<event>
 4    1  0.1754914E-001  0.2695841E+02  0.7818608E-02  0.1634368E+00
         -3   -1    0    0    0  501 -0.00000000000E+00  0.00000000000E+00  0.11011437619E+02  0.11011830340E+02  0.93000000000E-01 0. -1.
          3   -1    0    0  501    0  0.00000000000E+00 -0.00000000000E+00 -0.16499202868E+02  0.16499464969E+02  0.93000000000E-01 0.  1.
        -11    1    1    2    0    0  0.74474189310E+01  0.84149417707E+01 -0.10340586351E+02  0.15270986218E+02  0.51100000000E-03 0. -1.
         11    1    1    2    0    0 -0.74474189310E+01 -0.84149417707E+01  0.48528211017E+01  0.12240309091E+02  0.51100000000E-03 0.  1.
<mgrwt>
<rscale>  0 0.26958409E+02</rscale>
<asrwt>0</asrwt>
<pdfrwt beam="2">  1        3 0.25383893E-02 0.26958409E+02</pdfrwt>
<pdfrwt beam="1">  1       -3 0.16941177E-02 0.26958409E+02</pdfrwt>
<totfact> 0.89630258E+05</totfact>
</mgrwt>
</event>
<event>
 4    1  0.1754914E-001  0.3474553E+02  0.7818608E-02  0.1550872E+00
         -3   -1    0    0    0  501 -0.00000000000E+00  0.00000000000E+00  0.12967145425E+02  0.12967478917E+02  0.93000000000E-01 0. -1.
          3   -1    0    0  501    0  0.00000000000E+00 -0.00000000000E+00 -0.23274478955E+02  0.23274664759E+02  0.93000000000E-01 0.  1.
        -11    1    1    2    0    0 -0.13599175094E+02  0.66499527074E+01 -0.14044516988E+02  0.20649646291E+02  0.51100000000E-03 0.  1.
         11    1    1    2    0    0  0.13599175094E+02 -0.66499527074E+01  0.37371834571E+01  0.15592497385E+02  0.51100000000E-03 0. -1.
<mgrwt>
<rscale>  0 0.34745530E+02</rscale>
<asrwt>0</asrwt>
<pdfrwt beam="2">  1        3 0.35807290E-02 0.34745530E+02</pdfrwt>
<pdfrwt beam="1">  1       -3 0.19949854E-02 0.34745530E+02</pdfrwt>
<totfact> 0.48132728E+05</totfact>
</mgrwt>
</event>
<event>
 4    1  0.1754914E-001  0.2441378E+02  0.7818608E-02  0.1669568E+00
         -3   -1    0    0    0  501 -0.00000000000E+00  0.00000000000E+00  0.33559708734E+01  0.33572592249E+01  0.93000000000E-01 0. -1.
          3   -1    0    0  501    0  0.00000000000E+00 -0.00000000000E+00 -0.44391060048E+02  0.44391157466E+02  0.93000000000E-01 0.  1.
        -11    1    1    2    0    0  0.78545508603E+01 -0.90753723860E+01 -0.24869725968E+02  0.27614482127E+02  0.51100000000E-03 0.  1.
         11    1    1    2    0    0 -0.78545508603E+01  0.90753723860E+01 -0.16165363206E+02  0.20133934563E+02  0.51100000000E-03 0. -1.
<mgrwt>
<rscale>  0 0.24413782E+02</rscale>
<asrwt>0</asrwt>
<pdfrwt beam="2">  1        3 0.68295000E-02 0.24413782E+02</pdfrwt>
<pdfrwt beam="1">  1       -3 0.51640984E-03 0.24413782E+02</pdfrwt>
<totfact> 0.10531010E+06</totfact>
</mgrwt>
</event>
<event>
 4    1  0.1754914E-001  0.2039849E+02  0.7818608E-02  0.1737518E+00
          3   -1    0    0  501    0  0.00000000000E+00  0.00000000000E+00  0.61364258005E+02  0.61364328478E+02  0.93000000000E-01 0. -1.
         -3   -1    0    0    0  501 -0.00000000000E+00 -0.00000000000E+00 -0.16938523050E+01  0.16964034399E+01  0.93000000000E-01 0.  1.
        -11    1    1    2    0    0 -0.46935384944E+01 -0.89533574633E+01  0.34020349500E+02  0.35490507094E+02  0.51100000000E-03 0.  1.
         11    1    1    2    0    0  0.46935384944E+01  0.89533574633E+01  0.25650056201E+02  0.27570224824E+02  0.51100000000E-03 0. -1.
<mgrwt>
<rscale>  0 0.20398495E+02</rscale>
<asrwt>0</asrwt>
<pdfrwt beam="1">  1        3 0.94408556E-02 0.20398495E+02</pdfrwt>
<pdfrwt beam="2">  1       -3 0.26079435E-03 0.20398495E+02</pdfrwt>
<totfact> 0.14959005E+06</totfact>
</mgrwt>
</event>
<event>
 4    1  0.1754914E-001  0.2516984E+02  0.7818608E-02  0.1658574E+00
          3   -1    0    0  501    0  0.00000000000E+00  0.00000000000E+00  0.15292112835E+01  0.15320366019E+01  0.93000000000E-01 0.  1.
         -3   -1    0    0    0  501 -0.00000000000E+00 -0.00000000000E+00 -0.10347146474E+03  0.10347150654E+03  0.93000000000E-01 0. -1.
        -11    1    1    2    0    0  0.11267891122E+02 -0.36987551067E+01 -0.68539355819E+02  0.69557813767E+02  0.51100000000E-03 0. -1.
         11    1    1    2    0    0 -0.11267891122E+02  0.36987551067E+01 -0.33402897640E+02  0.35445729372E+02  0.51100000000E-03 0.  1.
<mgrwt>
<rscale>  0 0.25169844E+02</rscale>
<asrwt>0</asrwt>
<pdfrwt beam="1">  1        3 0.23548390E-03 0.25169844E+02</pdfrwt>
<pdfrwt beam="2">  1       -3 0.15918902E-01 0.25169844E+02</pdfrwt>
<totfact> 0.84525181E+05</totfact>
</mgrwt>
</event>
<event>
 4    1  0.1754914E-001  0.2619455E+02  0.7818608E-02  0.1644414E+00
          3   -1    0    0  501    0  0.00000000000E+00  0.00000000000E+00  0.63015882167E+02  0.63015950793E+02  0.93000000000E-01 0. -1.
         -3   -1    0    0    0  501 -0.00000000000E+00 -0.00000000000E+00 -0.27212840400E+01  0.27228727158E+01  0.93000000000E-01 0.  1.
        -11    1    1    2    0    0 -0.86257617413E+01  0.76464001401E+01  0.45753005393E+02  0.47182716152E+02  0.51100000000E-03 0. -1.
         11    1    1    2    0    0  0.86257617413E+01 -0.76464001401E+01  0.14541592734E+02  0.18556107356E+02  0.51100000000E-03 0.  1.
<mgrwt>
<rscale>  0 0.26194548E+02</rscale>
<asrwt>0</asrwt>
<pdfrwt beam="1">  1        3 0.96948785E-02 0.26194548E+02</pdfrwt>
<pdfrwt beam="2">  1       -3 0.41878657E-03 0.26194548E+02</pdfrwt>
<totfact> 0.85357178E+05</totfact>
</mgrwt>
</event>
<event>
 4    1  0.1754914E-001  0.4504947E+02  0.7818608E-02  0.1474033E+00
          3   -1    0    0  501    0  0.00000000000E+00  0.00000000000E+00  0.83182582066E+02  0.83182634054E+02  0.93000000000E-01 0. -1.
         -3   -1    0    0    0  501 -0.00000000000E+00 -0.00000000000E+00 -0.60989905491E+01  0.60996995596E+01  0.93000000000E-01 0.  1.
        -11    1    1    2    0    0 -0.14501175122E+02 -0.10488061674E+02  0.65649314883E+02  0.68044956186E+02  0.51100000000E-03 0. -1.
         11    1    1    2    0    0  0.14501175122E+02  0.10488061674E+02  0.11434276634E+02  0.21237377427E+02  0.51100000000E-03 0.  1.
<mgrwt>
<rscale>  0 0.45049473E+02</rscale>
<asrwt>0</asrwt>
<pdfrwt beam="1">  1        3 0.12797378E-01 0.45049473E+02</pdfrwt>
<pdfrwt beam="2">  1       -3 0.93836484E-03 0.45049473E+02</pdfrwt>
<totfact> 0.22202092E+05</totfact>
</mgrwt>
</event>
<event>
 4    1  0.1754914E-001  0.1144594E+03  0.7818608E-02  0.1252528E+00
         -3   -1    0    0    0  501 -0.00000000000E+00  0.00000000000E+00  0.27175054065E+03  0.27175055657E+03  0.93000000000E-01 0.  1.
          3   -1    0    0  501    0  0.00000000000E+00 -0.00000000000E+00 -0.12052169233E+02  0.12052528043E+02  0.93000000000E-01 0. -1.
        -11    1    1    2    0    0 -0.12456929717E+02 -0.47928817960E+02  0.20097654102E+03  0.20698772121E+03  0.51100000000E-03 0.  1.
         11    1    1    2    0    0  0.12456929717E+02  0.47928817960E+02  0.58721830400E+02  0.76815363404E+02  0.51100000000E-03 0. -1.
<mgrwt>
<rscale>  0 0.11445937E+03</rscale>
<asrwt>0</asrwt>
<pdfrwt beam="2">  1        3 0.18542089E-02 0.11445937E+03</pdfrwt>
<pdfrwt beam="1">  1       -3 0.41807800E-01 0.11445937E+03</pdfrwt>
<totfact> 0.13276646E+04</totfact>
</mgrwt>
</event>
<event>
 4    1  0.1754914E-001  0.5254737E+02  0.7818608E-02  0.1432067E+00
         -3   -1    0    0    0  501 -0.00000000000E+00  0.00000000000E+00  0.26050003390E+02  0.26050169397E+02  0.93000000000E-01 0. -1.
          3   -1    0    0  501    0  0.00000000000E+00 -0.00000000000E+00 -0.26498951797E+02  0.26499114991E+02  0.93000000000E-01 0.  1.
        -11    1    1    2    0    0 -0.13278558165E+02  0.20381617030E+02 -0.10153381966E+02  0.26359468608E+02  0.51100000000E-03 0.  1.
         11    1    1    2    0    0  0.13278558165E+02 -0.20381617030E+02  0.97044335595E+01  0.26189815781E+02  0.51100000000E-03 0. -1.
<mgrwt>
<rscale>  0 0.52547367E+02</rscale>
<asrwt>0</asrwt>
<pdfrwt beam="2">  1        3 0.40767872E-02 0.52547367E+02</pdfrwt>
<pdfrwt beam="1">  1       -3 0.40077181E-02 0.52547367E+02</pdfrwt>
<totfact> 0.16555459E+05</totfact>
</mgrwt>
</event>
<event>
 4    1  0.1754914E-001  0.2836328E+02  0.7818608E-02  0.1616919E+00
         -3   -1    0    0    0  501 -0.00000000000E+00  0.00000000000E+00  0.95669414925E+01  0.95673935071E+01  0.93000000000E-01 0. -1.
          3   -1    0    0  501    0  0.00000000000E+00 -0.00000000000E+00 -0.21021224503E+02  0.21021430223E+02  0.93000000000E-01 0.  1.
        -11    1    1    2    0    0  0.10641797845E+02 -0.77222699389E+01  0.37213346063E-02  0.13148434450E+02  0.51100000000E-03 0.  1.
         11    1    1    2    0    0 -0.10641797845E+02  0.77222699389E+01 -0.11458004345E+02  0.17440389280E+02  0.51100000000E-03 0. -1.
<mgrwt>
<rscale>  0 0.28363278E+02</rscale>
<asrwt>0</asrwt>
<pdfrwt beam="2">  1        3 0.32340851E-02 0.28363278E+02</pdfrwt>
<pdfrwt beam="1">  1       -3 0.14718877E-02 0.28363278E+02</pdfrwt>
<totfact> 0.78951370E+05</totfact>
</mgrwt>
</event>
<event>
 4    1  0.1754914E-001  0.2920366E+02  0.7818608E-02  0.1607062E+00
         -3   -1    0    0    0  501 -0.00000000000E+00  0.00000000000E+00  0.11299702027E+03  0.11299705854E+03  0.93000000000E-01 0.  1.
          3   -1    0    0  501    0  0.00000000000E+00 -0.00000000000E+00 -0.18857095193E+01  0.18880014277E+01  0.93000000000E-01 0. -1.
        -11    1    1    2    0    0 -0.71005788213E+01 -0.12296097093E+02  0.42156499230E+02  0.44483509876E+02  0.51100000000E-03 0.  1.
         11    1    1    2    0    0  0.71005788213E+01  0.12296097093E+02  0.68954811520E+02  0.70401550092E+02  0.51100000000E-03 0. -1.
<mgrwt>
<rscale>  0 0.29203658E+02</rscale>
<asrwt>0</asrwt>
<pdfrwt beam="2">  1        3 0.29028840E-03 0.29203658E+02</pdfrwt>
<pdfrwt beam="1">  1       -3 0.17384336E-01 0.29203658E+02</pdfrwt>
<totfact> 0.58891717E+05</totfact>
</mgrwt>
</event>
<event>
 4    1  0.1754914E-001  0.2354745E+02  0.7818608E-02  0.1682787E+00
          3   -1    0    0  501    0  0.00000000000E+00  0.00000000000E+00  0.53628262257E+02  0.53628342895E+02  0.93000000000E-01 0.  1.
         -3   -1    0    0    0  501 -0.00000000000E+00 -0.00000000000E+00 -0.25839227160E+01  0.25855957925E+01  0.93000000000E-01 0. -1.
        -11    1    1    2    0    0  0.10849039063E+02 -0.45322214041E+01  0.24054641646E+02  0.26774399423E+02  0.51100000000E-03 0. -1.
         11    1    1    2    0    0 -0.10849039063E+02  0.45322214041E+01  0.26989697894E+02  0.29439539265E+02  0.51100000000E-03 0.  1.
<mgrwt>
<rscale>  0 0.23547448E+02</rscale>
<asrwt>0</asrwt>
<pdfrwt beam="1">  1        3 0.82506360E-02 0.23547448E+02</pdfrwt>
<pdfrwt beam="2">  1       -3 0.39766151E-03 0.23547448E+02</pdfrwt>
<totfact> 0.11134888E+06</totfact>
</mgrwt>
</event>
<event>
 4    1  0.1754914E-001  0.2965237E+02  0.7818608E-02  0.1601963E+00
          3   -1    0    0  501    0  0.00000000000E+00  0.00000000000E+00  0.20972865748E+02  0.20973071942E+02  0.93000000000E-01 0. -1.
         -3   -1    0    0    0  501 -0.00000000000E+00 -0.00000000000E+00 -0.10480499205E+02  0.10480911820E+02  0.93000000000E-01 0.  1.
        -11    1    1    2    0    0 -0.16702951331E+01  0.11904773841E+02 -0.39587431296E+01  0.12656428148E+02  0.51100000000E-03 0.  1.
         11    1    1    2    0    0  0.16702951331E+01 -0.11904773841E+02  0.14451109673E+02  0.18797555614E+02  0.51100000000E-03 0. -1.
<mgrwt>
<rscale>  0 0.29652375E+02</rscale>
<asrwt>0</asrwt>
<pdfrwt beam="1">  1        3 0.32266423E-02 0.29652375E+02</pdfrwt>
<pdfrwt beam="2">  1       -3 0.16124321E-02 0.29652375E+02</pdfrwt>
<totfact> 0.71028538E+05</totfact>
</mgrwt>
</event>
<event>
 4    1  0.1754914E-001  0.2149919E+02  0.7818608E-02  0.1717060E+00
          3   -1    0    0  501    0  0.00000000000E+00  0.00000000000E+00  0.14161444399E+01  0.14191948685E+01  0.93000000000E-01 0. -1.
         -3   -1    0    0    0  501 -0.00000000000E+00 -0.00000000000E+00 -0.81506619959E+02  0.81506673016E+02  0.93000000000E-01 0.  1.
        -11    1    1    2    0    0  0.58384366132E+01  0.84128141841E+01 -0.27433415932E+02  0.29282334172E+02  0.51100000000E-03 0. -1.
         11    1    1    2    0    0 -0.58384366132E+01 -0.84128141841E+01 -0.52657059587E+02  0.53643533713E+02  0.51100000000E-03 0.  1.
<mgrwt>
<rscale>  0 0.21499193E+02</rscale>
<asrwt>0</asrwt>
<pdfrwt beam="1">  1        3 0.21810717E-03 0.21499193E+02</pdfrwt>
<pdfrwt beam="2">  1       -3 0.12539715E-01 0.21499193E+02</pdfrwt>
<totfact> 0.12655838E+06</totfact>
</mgrwt>
</event>
<event>
 4    1  0.1754914E-001  0.2192982E+02  0.7818608E-02  0.1709469E+00
          3   -1    0    0  501    0  0.00000000000E+00  0.00000000000E+00  0.43896575282E+02  0.43896673798E+02  0.93000000000E-01 0. -1.
         -3   -1    0    0    0  501 -0.00000000000E+00 -0.00000000000E+00 -0.27380302201E+01  0.27396091850E+01  0.93000000000E-01 0.  1.
        -11    1    1    2    0    0  0.10683234386E+02 -0.45332676935E+00  0.25741413678E+02  0.27873955236E+02  0.51100000000E-03 0. -1.
         11    1    1    2    0    0 -0.10683234386E+02  0.45332676935E+00  0.15417131385E+02  0.18762327747E+02  0.51100000000E-03 0.  1.
<mgrwt>
<rscale>  0 0.21929821E+02</rscale>
<asrwt>0</asrwt>
<pdfrwt beam="1">  1        3 0.67534485E-02 0.21929821E+02</pdfrwt>
<pdfrwt beam="2">  1       -3 0.42136444E-03 0.21929821E+02</pdfrwt>
<totfact> 0.13400868E+06</totfact>
</mgrwt>
</event>
<event>
 4    1  0.1754914E-001  0.2844920E+02  0.7818608E-02  0.1615892E+00
         -3   -1    0    0    0  501 -0.00000000000E+00  0.00000000000E+00  0.24854778427E+02  0.24854952417E+02  0.93000000000E-01 0. -1.
          3   -1    0    0  501    0  0.00000000000E+00 -0.00000000000E+00 -0.81403932947E+01  0.81409245170E+01  0.93000000000E-01 0.  1.
        -11    1    1    2    0    0  0.99969947335E+01  0.13916595515E+01 -0.32677801863E+01  0.10609194485E+02  0.51100000000E-03 0.  1.
         11    1    1    2    0    0 -0.99969947335E+01 -0.13916595515E+01  0.19982165319E+02  0.22386682450E+02  0.51100000000E-03 0. -1.
<mgrwt>
<rscale>  0 0.28449204E+02</rscale>
<asrwt>0</asrwt>
<pdfrwt beam="2">  1        3 0.12524225E-02 0.28449204E+02</pdfrwt>
<pdfrwt beam="1">  1       -3 0.38238663E-02 0.28449204E+02</pdfrwt>
<totfact> 0.77803523E+05</totfact>
</mgrwt>
</event>
<event>
 4    1  0.1754914E-001  0.2929599E+02  0.7818608E-02  0.1606003E+00
          3   -1    0    0  501    0  0.00000000000E+00  0.00000000000E+00  0.49990989152E+01  0.49999638963E+01  0.93000000000E-01 0. -1.
         -3   -1    0    0    0  501 -0.00000000000E+00 -0.00000000000E+00 -0.42915859305E+02  0.42915960072E+02  0.93000000000E-01 0.  1.
        -11    1    1    2    0    0 -0.96921788314E+01  0.10472919124E+02 -0.13547751121E+02  0.19676430727E+02  0.51100000000E-03 0. -1.
         11    1    1    2    0    0  0.96921788314E+01 -0.10472919124E+02 -0.24369009269E+02  0.28239493241E+02  0.51100000000E-03 0.  1.
<mgrwt>
<rscale>  0 0.29295990E+02</rscale>
<asrwt>0</asrwt>
<pdfrwt beam="1">  1        3 0.76916646E-03 0.29295990E+02</pdfrwt>
<pdfrwt beam="2">  1       -3 0.66025139E-02 0.29295990E+02</pdfrwt>
<totfact> 0.69480565E+05</totfact>
</mgrwt>
</event>
<event>
 4    1  0.1754914E-001  0.2399286E+02  0.7818608E-02  0.1675904E+00
          3   -1    0    0  501    0  0.00000000000E+00  0.00000000000E+00  0.11507388306E+02  0.11507764102E+02  0.93000000000E-01 0. -1.
         -3   -1    0    0    0  501 -0.00000000000E+00 -0.00000000000E+00 -0.12505506160E+02  0.12505851963E+02  0.93000000000E-01 0.  1.
        -11    1    1    2    0    0  0.96745272991E+01  0.59284025019E+01 -0.43975459533E+01  0.12168847331E+02  0.51100000000E-03 0.  1.
         11    1    1    2    0    0 -0.96745272991E+01 -0.59284025019E+01  0.33994280994E+01  0.11844768733E+02  0.51100000000E-03 0. -1.
<mgrwt>
<rscale>  0 0.23992864E+02</rscale>
<asrwt>0</asrwt>
<pdfrwt beam="1">  1        3 0.17704229E-02 0.23992864E+02</pdfrwt>
<pdfrwt beam="2">  1       -3 0.19239795E-02 0.23992864E+02</pdfrwt>
<totfact> 0.11812834E+06</totfact>
</mgrwt>
</event>
<event>
 4    1  0.1754914E-001  0.2433535E+02  0.7818608E-02  0.1670736E+00
          3   -1    0    0  501    0  0.00000000000E+00  0.00000000000E+00  0.36033406363E+02  0.36033526376E+02  0.93000000000E-01 0. -1.
         -3   -1    0    0    0  501 -0.00000000000E+00 -0.00000000000E+00 -0.41080986955E+01  0.41091512375E+01  0.93000000000E-01 0.  1.
        -11    1    1    2    0    0 -0.50840984799E+01 -0.10473980251E+02  0.21794738315E+02  0.24709571792E+02  0.51100000000E-03 0. -1.
         11    1    1    2    0    0  0.50840984799E+01  0.10473980251E+02  0.10130569352E+02  0.15433105822E+02  0.51100000000E-03 0.  1.
<mgrwt>
<rscale>  0 0.24335351E+02</rscale>
<asrwt>0</asrwt>
<pdfrwt beam="1">  1        3 0.55436910E-02 0.24335351E+02</pdfrwt>
<pdfrwt beam="2">  1       -3 0.63210540E-03 0.24335351E+02</pdfrwt>
<totfact> 0.10855301E+06</totfact>
</mgrwt>
</event>
<event>
 4    1  0.1754914E-001  0.2035439E+02  0.7818608E-02  0.1738371E+00
          3   -1    0    0  501    0  0.00000000000E+00  0.00000000000E+00  0.20403393186E+01  0.20424577193E+01  0.93000000000E-01 0. -1.
         -3   -1    0    0    0  501 -0.00000000000E+00 -0.00000000000E+00 -0.50735237077E+02  0.50735322314E+02  0.93000000000E-01 0.  1.
        -11    1    1    2    0    0  0.49120055428E+01  0.88464723994E+01 -0.21522000358E+02  0.23782017829E+02  0.51100000000E-03 0.  1.
         11    1    1    2    0    0 -0.49120055428E+01 -0.88464723994E+01 -0.27172897401E+02  0.28995762204E+02  0.51100000000E-03 0. -1.
<mgrwt>
<rscale>  0 0.20354385E+02</rscale>
<asrwt>0</asrwt>
<pdfrwt beam="1">  1        3 0.31406791E-03 0.20354385E+02</pdfrwt>
<pdfrwt beam="2">  1       -3 0.78055897E-02 0.20354385E+02</pdfrwt>
<totfact> 0.15480338E+06</totfact>
</mgrwt>
</event>
<event>
 4    1  0.1754914E-001  0.2851348E+02  0.7818608E-02  0.1615126E+00
         -3   -1    0    0    0  501 -0.00000000000E+00  0.00000000000E+00  0.19697087435E+02  0.19697306984E+02  0.93000000000E-01 0.  1.
          3   -1    0    0  501    0  0.00000000000E+00 -0.00000000000E+00 -0.10318536398E+02  0.10318955489E+02  0.93000000000E-01 0. -1.
        -11    1    1    2    0    0 -0.78132085294E+01  0.11685176025E+02  0.71948731585E+01  0.15791002701E+02  0.51100000000E-03 0.  1.
         11    1    1    2    0    0  0.78132085294E+01 -0.11685176025E+02  0.21836778790E+01  0.14225259773E+02  0.51100000000E-03 0. -1.
<mgrwt>
<rscale>  0 0.28513484E+02</rscale>
<asrwt>0</asrwt>
<pdfrwt beam="2">  1        3 0.15875163E-02 0.28513484E+02</pdfrwt>
<pdfrwt beam="1">  1       -3 0.30303703E-02 0.28513484E+02</pdfrwt>
<totfact> 0.78142404E+05</totfact>
</mgrwt>
</event>
<event>
 4    1  0.1754914E-001  0.2433712E+02  0.7818608E-02  0.1670710E+00
         -3   -1    0    0    0  501 -0.00000000000E+00  0.00000000000E+00  0.53439413262E+02  0.53439494186E+02  0.93000000000E-01 0. -1.
          3   -1    0    0  501    0  0.00000000000E+00 -0.00000000000E+00 -0.27700098093E+01  0.27715705554E+01  0.93000000000E-01 0.  1.
        -11    1    1    2    0    0 -0.10527596130E+02 -0.59758515715E+01  0.22475208177E+02  0.25527946747E+02  0.51100000000E-03 0. -1.
         11    1    1    2    0    0  0.10527596130E+02  0.59758515715E+01  0.28194195276E+02  0.30683117994E+02  0.51100000000E-03 0.  1.
<mgrwt>
<rscale>  0 0.24337119E+02</rscale>
<asrwt>0</asrwt>
<pdfrwt beam="2">  1        3 0.42628161E-03 0.24337119E+02</pdfrwt>
<pdfrwt beam="1">  1       -3 0.82215750E-02 0.24337119E+02</pdfrwt>
<totfact> 0.10348150E+06</totfact>
</mgrwt>
</event>
<event>
 4    1  0.1754914E-001  0.8923053E+02  0.7818608E-02  0.1304726E+00
          3   -1    0    0  501    0  0.00000000000E+00  0.00000000000E+00  0.74800812986E+02  0.74800870799E+02  0.93000000000E-01 0. -1.
         -3   -1    0    0    0  501 -0.00000000000E+00 -0.00000000000E+00 -0.26610818768E+02  0.26610981277E+02  0.93000000000E-01 0.  1.
        -11    1    1    2    0    0 -0.32895905890E+02 -0.27454909149E+02  0.99633379612E+01  0.43990689518E+02  0.51100000000E-03 0.  1.
         11    1    1    2    0    0  0.32895905890E+02  0.27454909149E+02  0.38226656256E+02  0.57421162558E+02  0.51100000000E-03 0. -1.
<mgrwt>
<rscale>  0 0.89230534E+02</rscale>
<asrwt>0</asrwt>
<pdfrwt beam="1">  1        3 0.11507834E-01 0.89230534E+02</pdfrwt>
<pdfrwt beam="2">  1       -3 0.40939891E-02 0.89230534E+02</pdfrwt>
<totfact> 0.36651289E+04</totfact>
</mgrwt>
</event>
<event>
 4    1  0.1754914E-001  0.2623075E+02  0.7818608E-02  0.1643929E+00
         -3   -1    0    0    0  501 -0.00000000000E+00  0.00000000000E+00  0.81298685996E+02  0.81298739188E+02  0.93000000000E-01 0.  1.
          3   -1    0    0  501    0  0.00000000000E+00 -0.00000000000E+00 -0.21147402237E+01  0.21167841680E+01  0.93000000000E-01 0. -1.
        -11    1    1    2    0    0 -0.11364866946E+02  0.33642910785E+01  0.21734149210E+02  0.24755845720E+02  0.51100000000E-03 0. -1.
         11    1    1    2    0    0  0.11364866946E+02 -0.33642910785E+01  0.57449796562E+02  0.58659677637E+02  0.51100000000E-03 0.  1.
<mgrwt>
<rscale>  0 0.26230750E+02</rscale>
<asrwt>0</asrwt>
<pdfrwt beam="2">  1        3 0.32550594E-03 0.26230750E+02</pdfrwt>
<pdfrwt beam="1">  1       -3 0.12507653E-01 0.26230750E+02</pdfrwt>
<totfact> 0.81225191E+05</totfact>
</mgrwt>
</event>
<event>
 4    1  0.1754914E-001  0.3623249E+02  0.7818608E-02  0.1537920E+00
         -3   -1    0    0    0  501 -0.00000000000E+00  0.00000000000E+00  0.14897664343E+02  0.14897954621E+02  0.93000000000E-01 0.  1.
          3   -1    0    0  501    0  0.00000000000E+00 -0.00000000000E+00 -0.22029588231E+02  0.22029784534E+02  0.93000000000E-01 0. -1.
        -11    1    1    2    0    0 -0.77700667512E+01 -0.15836157815E+02 -0.77731940345E+01  0.19276420244E+02  0.51100000000E-03 0. -1.
         11    1    1    2    0    0  0.77700667512E+01  0.15836157815E+02  0.64127014695E+00  0.17651318911E+02  0.51100000000E-03 0.  1.
<mgrwt>
<rscale>  0 0.36232493E+02</rscale>
<asrwt>0</asrwt>
<pdfrwt beam="2">  1        3 0.33892048E-02 0.36232493E+02</pdfrwt>
<pdfrwt beam="1">  1       -3 0.22919858E-02 0.36232493E+02</pdfrwt>
<totfact> 0.43438254E+05</totfact>
</mgrwt>
</event>
<event>
 4    1  0.1754914E-001  0.2546809E+02  0.7818608E-02  0.1654368E+00
         -3   -1    0    0    0  501 -0.00000000000E+00  0.00000000000E+00  0.29246716663E+02  0.29246864525E+02  0.93000000000E-01 0. -1.
          3   -1    0    0  501    0  0.00000000000E+00 -0.00000000000E+00 -0.55438625006E+01  0.55446424976E+01  0.93000000000E-01 0.  1.
        -11    1    1    2    0    0  0.12287364070E+02 -0.22562529433E+00  0.72948324689E+01  0.14291424127E+02  0.51100000000E-03 0.  1.
         11    1    1    2    0    0 -0.12287364070E+02  0.22562529433E+00  0.16408021693E+02  0.20500082895E+02  0.51100000000E-03 0. -1.
<mgrwt>
<rscale>  0 0.25468091E+02</rscale>
<asrwt>0</asrwt>
<pdfrwt beam="2">  1        3 0.85297331E-03 0.25468091E+02</pdfrwt>
<pdfrwt beam="1">  1       -3 0.44995662E-02 0.25468091E+02</pdfrwt>
<totfact> 0.99642443E+05</totfact>
</mgrwt>
</event>
<event>
 4    1  0.1754914E-001  0.3372298E+02  0.7818608E-02  0.1560242E+00
         -3   -1    0    0    0  501 -0.00000000000E+00  0.00000000000E+00  0.42584874647E+02  0.42584976197E+02  0.93000000000E-01 0.  1.
          3   -1    0    0  501    0  0.00000000000E+00 -0.00000000000E+00 -0.66758785109E+01  0.66765262594E+01  0.93000000000E-01 0. -1.
        -11    1    1    2    0    0  0.14437330549E+02 -0.62523368509E+00  0.30645757640E+02  0.33881999530E+02  0.51100000000E-03 0.  1.
         11    1    1    2    0    0 -0.14437330549E+02  0.62523368509E+00  0.52632384960E+01  0.15379502927E+02  0.51100000000E-03 0. -1.
<mgrwt>
<rscale>  0 0.33722984E+02</rscale>
<asrwt>0</asrwt>
<pdfrwt beam="2">  1        3 0.10271159E-02 0.33722984E+02</pdfrwt>
<pdfrwt beam="1">  1       -3 0.65515768E-02 0.33722984E+02</pdfrwt>
<totfact> 0.49740768E+05</totfact>
</mgrwt>
</event>
<event>
 4    1  0.1754914E-001  0.3870740E+02  0.7818608E-02  0.1517945E+00
         -3   -1    0    0    0  501 -0.00000000000E+00  0.00000000000E+00  0.46900284547E+01  0.46909504267E+01  0.93000000000E-01 0. -1.
          3   -1    0    0  501    0  0.00000000000E+00 -0.00000000000E+00 -0.79855459312E+02  0.79855513466E+02  0.93000000000E-01 0.  1.
        -11    1    1    2    0    0  0.13625789768E+02 -0.16340409014E+01 -0.67390539523E+02  0.68773665410E+02  0.51100000000E-03 0.  1.
         11    1    1    2    0    0 -0.13625789768E+02  0.16340409014E+01 -0.77748913342E+01  0.15772798483E+02  0.51100000000E-03 0. -1.
<mgrwt>
<rscale>  0 0.38707397E+02</rscale>
<asrwt>0</asrwt>
<pdfrwt beam="2">  1        3 0.12285529E-01 0.38707397E+02</pdfrwt>
<pdfrwt beam="1">  1       -3 0.72161798E-03 0.38707397E+02</pdfrwt>
<totfact> 0.32552538E+05</totfact>
</mgrwt>
</event>
<event>
 4    1  0.1754914E-001  0.2352960E+02  0.7818608E-02  0.1683066E+00
         -3   -1    0    0    0  501 -0.00000000000E+00  0.00000000000E+00  0.42450639095E+01  0.42460824999E+01  0.93000000000E-01 0.  1.
          3   -1    0    0  501    0  0.00000000000E+00 -0.00000000000E+00 -0.32600065187E+02  0.32600197840E+02  0.93000000000E-01 0. -1.
        -11    1    1    2    0    0  0.85661893149E+01 -0.78670170901E+01 -0.11402175853E+02  0.16287393030E+02  0.51100000000E-03 0. -1.
         11    1    1    2    0    0 -0.85661893149E+01  0.78670170901E+01 -0.16952825424E+02  0.20558887309E+02  0.51100000000E-03 0.  1.
<mgrwt>
<rscale>  0 0.23529604E+02</rscale>
<asrwt>0</asrwt>
<pdfrwt beam="2">  1        3 0.50154831E-02 0.23529604E+02</pdfrwt>
<pdfrwt beam="1">  1       -3 0.65317533E-03 0.23529604E+02</pdfrwt>
<totfact> 0.11823644E+06</totfact>
</mgrwt>
</event>
<event>
 4    1  0.1754914E-001  0.2710513E+02  0.7818608E-02  0.1632485E+00
         -3   -1    0    0    0  501 -0.00000000000E+00  0.00000000000E+00  0.12767784423E+02  0.12768123122E+02  0.93000000000E-01 0.  1.
          3   -1    0    0  501    0  0.00000000000E+00 -0.00000000000E+00 -0.14384907254E+02  0.14385207878E+02  0.93000000000E-01 0. -1.
        -11    1    1    2    0    0  0.37808712728E+01  0.10900403457E+02 -0.79316401661E+01  0.14000882083E+02  0.51100000000E-03 0. -1.
         11    1    1    2    0    0 -0.37808712728E+01 -0.10900403457E+02  0.63145173348E+01  0.13152448918E+02  0.51100000000E-03 0.  1.
<mgrwt>
<rscale>  0 0.27105134E+02</rscale>
<asrwt>0</asrwt>
<pdfrwt beam="2">  1        3 0.22131118E-02 0.27105134E+02</pdfrwt>
<pdfrwt beam="1">  1       -3 0.19643237E-02 0.27105134E+02</pdfrwt>
<totfact> 0.88629654E+05</totfact>
</mgrwt>
</event>
<event>
 4    1  0.1754914E-001  0.3288686E+02  0.7818608E-02  0.1568208E+00
          3   -1    0    0  501    0  0.00000000000E+00  0.00000000000E+00  0.14056479418E+02  0.14056787067E+02  0.93000000000E-01 0. -1.
         -3   -1    0    0    0  501 -0.00000000000E+00 -0.00000000000E+00 -0.19235086914E+02  0.19235311736E+02  0.93000000000E-01 0.  1.
        -11    1    1    2    0    0  0.11727948074E+02 -0.99645008893E+01 -0.84529491741E+01  0.17558143239E+02  0.51100000000E-03 0. -1.
         11    1    1    2    0    0 -0.11727948074E+02  0.99645008893E+01  0.32743416786E+01  0.15733955564E+02  0.51100000000E-03 0.  1.
<mgrwt>
<rscale>  0 0.32886865E+02</rscale>
<asrwt>0</asrwt>
<pdfrwt beam="1">  1        3 0.21625762E-02 0.32886865E+02</pdfrwt>
<pdfrwt beam="2">  1       -3 0.29592851E-02 0.32886865E+02</pdfrwt>
<totfact> 0.55358259E+05</totfact>
</mgrwt>
</event>
<event>
 4    1  0.1754914E-001  0.3126562E+02  0.7818608E-02  0.1584506E+00
         -3   -1    0    0    0  501 -0.00000000000E+00  0.00000000000E+00  0.23718796743E+02  0.23718979066E+02  0.93000000000E-01 0. -1.
          3   -1    0    0  501    0  0.00000000000E+00 -0.00000000000E+00 -0.10302991777E+02  0.10303411501E+02  0.93000000000E-01 0.  1.
        -11    1    1    2    0    0  0.98217256114E+01  0.81180938464E+01 -0.31468234220E+01  0.13125251982E+02  0.51100000000E-03 0. -1.
         11    1    1    2    0    0 -0.98217256114E+01 -0.81180938464E+01  0.16562628388E+02  0.20897138585E+02  0.51100000000E-03 0.  1.
<mgrwt>
<rscale>  0 0.31265624E+02</rscale>
<asrwt>0</asrwt>
<pdfrwt beam="2">  1        3 0.15851220E-02 0.31265624E+02</pdfrwt>
<pdfrwt beam="1">  1       -3 0.36490920E-02 0.31265624E+02</pdfrwt>
<totfact> 0.62234161E+05</totfact>
</mgrwt>
</event>
<event>
 4    1  0.1754914E-001  0.2310421E+02  0.7818608E-02  0.1689826E+00
         -3   -1    0    0    0  501 -0.00000000000E+00  0.00000000000E+00  0.39821323952E+02  0.39821432549E+02  0.93000000000E-01 0.  1.
          3   -1    0    0  501    0  0.00000000000E+00 -0.00000000000E+00 -0.33504898749E+01  0.33517803331E+01  0.93000000000E-01 0. -1.
        -11    1    1    2    0    0 -0.77204019486E+01 -0.85513424448E+01  0.19822189437E+02  0.22927042072E+02  0.51100000000E-03 0. -1.
         11    1    1    2    0    0  0.77204019486E+01  0.85513424448E+01  0.16648644640E+02  0.20246170810E+02  0.51100000000E-03 0.  1.
<mgrwt>
<rscale>  0 0.23104211E+02</rscale>
<asrwt>0</asrwt>
<pdfrwt beam="2">  1        3 0.51556761E-03 0.23104211E+02</pdfrwt>
<pdfrwt beam="1">  1       -3 0.61264651E-02 0.23104211E+02</pdfrwt>
<totfact> 0.12073244E+06</totfact>
</mgrwt>
</event>
<event>
 4    1  0.1754914E-001  0.2588827E+02  0.7818608E-02  0.1648562E+00
          3   -1    0    0  501    0  0.00000000000E+00  0.00000000000E+00  0.33916510594E+02  0.33916638098E+02  0.93000000000E-01 0. -1.
         -3   -1    0    0    0  501 -0.00000000000E+00 -0.00000000000E+00 -0.49395176841E+01  0.49403930968E+01  0.93000000000E-01 0.  1.
        -11    1    1    2    0    0  0.70205796126E+01  0.10865967284E+02  0.13829263767E+02  0.18936903646E+02  0.51100000000E-03 0. -1.
         11    1    1    2    0    0 -0.70205796126E+01 -0.10865967284E+02  0.15147729142E+02  0.19920127548E+02  0.51100000000E-03 0.  1.
<mgrwt>
<rscale>  0 0.25888274E+02</rscale>
<asrwt>0</asrwt>
<pdfrwt beam="1">  1        3 0.52180018E-02 0.25888274E+02</pdfrwt>
<pdfrwt beam="2">  1       -3 0.76000296E-03 0.25888274E+02</pdfrwt>
<totfact> 0.94782951E+05</totfact>
</mgrwt>
</event>
<event>
 4    1  0.1754914E-001  0.5094237E+02  0.7818608E-02  0.1440324E+00
         -3   -1    0    0    0  501 -0.00000000000E+00  0.00000000000E+00  0.45434212025E+02  0.45434307207E+02  0.93000000000E-01 0.  1.
          3   -1    0    0  501    0  0.00000000000E+00 -0.00000000000E+00 -0.14279315914E+02  0.14279618761E+02  0.93000000000E-01 0. -1.
        -11    1    1    2    0    0  0.13076094755E+02  0.21746172553E+02  0.18172476701E+02  0.31210882469E+02  0.51100000000E-03 0. -1.
         11    1    1    2    0    0 -0.13076094755E+02 -0.21746172553E+02  0.12982419410E+02  0.28503043500E+02  0.51100000000E-03 0.  1.
<mgrwt>
<rscale>  0 0.50942373E+02</rscale>
<asrwt>0</asrwt>
<pdfrwt beam="2">  1        3 0.21968485E-02 0.50942373E+02</pdfrwt>
<pdfrwt beam="1">  1       -3 0.69899094E-02 0.50942373E+02</pdfrwt>
<totfact> 0.17578122E+05</totfact>
</mgrwt>
</event>
<event>
 4    1  0.1754914E-001  0.3056864E+02  0.7818608E-02  0.1591887E+00
          3   -1    0    0  501    0  0.00000000000E+00  0.00000000000E+00  0.12115069295E+03  0.12115072865E+03  0.93000000000E-01 0. -1.
         -3   -1    0    0    0  501 -0.00000000000E+00 -0.00000000000E+00 -0.19271058976E+01  0.19293486311E+01  0.93000000000E-01 0.  1.
        -11    1    1    2    0    0 -0.39556099151E+01 -0.14609756662E+02  0.68170596795E+02  0.69830667383E+02  0.51100000000E-03 0.  1.
         11    1    1    2    0    0  0.39556099151E+01  0.14609756662E+02  0.51052990260E+02  0.53249409896E+02  0.51100000000E-03 0. -1.
<mgrwt>
<rscale>  0 0.30568639E+02</rscale>
<asrwt>0</asrwt>
<pdfrwt beam="1">  1        3 0.18638744E-01 0.30568639E+02</pdfrwt>
<pdfrwt beam="2">  1       -3 0.29665309E-03 0.30568639E+02</pdfrwt>
<totfact> 0.51991537E+05</totfact>
</mgrwt>
</event>
<event>
 4    1  0.1754914E-001  0.2291734E+02  0.7818608E-02  0.1692853E+00
         -3   -1    0    0    0  501 -0.00000000000E+00  0.00000000000E+00  0.48074015279E+02  0.48074105234E+02  0.93000000000E-01 0.  1.
          3   -1    0    0  501    0  0.00000000000E+00 -0.00000000000E+00 -0.27303452291E+01  0.27319286356E+01  0.93000000000E-01 0. -1.
        -11    1    1    2    0    0 -0.75480854168E+01  0.84478881738E+01  0.26486465182E+02  0.28807520653E+02  0.51100000000E-03 0.  1.
         11    1    1    2    0    0  0.75480854168E+01 -0.84478881738E+01  0.18857204867E+02  0.21998513216E+02  0.51100000000E-03 0. -1.
<mgrwt>
<rscale>  0 0.22917344E+02</rscale>
<asrwt>0</asrwt>
<pdfrwt beam="2">  1        3 0.42018186E-03 0.22917344E+02</pdfrwt>
<pdfrwt beam="1">  1       -3 0.73961305E-02 0.22917344E+02</pdfrwt>
<totfact> 0.12013444E+06</totfact>
</mgrwt>
</event>
<event>
 4    1  0.1754914E-001  0.2797097E+02  0.7818608E-02  0.1621664E+00
          3   -1    0    0  501    0  0.00000000000E+00  0.00000000000E+00  0.53146666642E+02  0.53146748011E+02  0.93000000000E-01 0. -1.
         -3   -1    0    0    0  501 -0.00000000000E+00 -0.00000000000E+00 -0.36795915489E+01  0.36807666276E+01  0.93000000000E-01 0.  1.
        -11    1    1    2    0    0  0.34162807140E+01  0.10364055061E+02  0.42504370878E+02  0.43882868584E+02  0.51100000000E-03 0. -1.
         11    1    1    2    0    0 -0.34162807140E+01 -0.10364055061E+02  0.69627042154E+01  0.12944646054E+02  0.51100000000E-03 0.  1.
<mgrwt>
<rscale>  0 0.27970965E+02</rscale>
<asrwt>0</asrwt>
<pdfrwt beam="1">  1        3 0.81765059E-02 0.27970965E+02</pdfrwt>
<pdfrwt beam="2">  1       -3 0.56618773E-03 0.27970965E+02</pdfrwt>
<totfact> 0.75334484E+05</totfact>
</mgrwt>
</event>
<event>
 4    1  0.1754914E-001  0.9447986E+02  0.7818608E-02  0.1292352E+00
          3   -1    0    0  501    0  0.00000000000E+00  0.00000000000E+00  0.66350736781E+01  0.66357254098E+01  0.93000000000E-01 0. -1.
         -3   -1    0    0    0  501 -0.00000000000E+00 -0.00000000000E+00 -0.33631837845E+03  0.33631839131E+03  0.93000000000E-01 0.  1.
        -11    1    1    2    0    0 -0.45484380452E+02 -0.10324071550E+02 -0.19205293009E+03  0.19763537961E+03  0.51100000000E-03 0.  1.
         11    1    1    2    0    0  0.45484380452E+02  0.10324071550E+02 -0.13763037468E+03  0.14531873711E+03  0.51100000000E-03 0. -1.
<mgrwt>
<rscale>  0 0.94479864E+02</rscale>
<asrwt>0</asrwt>
<pdfrwt beam="1">  1        3 0.10208319E-02 0.94479864E+02</pdfrwt>
<pdfrwt beam="2">  1       -3 0.51741327E-01 0.94479864E+02</pdfrwt>
<totfact> 0.20400442E+04</totfact>
</mgrwt>
</event>
<event>
 4    1  0.1754914E-001  0.5273868E+02  0.7818608E-02  0.1431106E+00
         -3   -1    0    0    0  501 -0.00000000000E+00  0.00000000000E+00  0.34012398539E+02  0.34012525683E+02  0.93000000000E-01 0.  1.
          3   -1    0    0  501    0  0.00000000000E+00 -0.00000000000E+00 -0.20443510734E+02  0.20443722267E+02  0.93000000000E-01 0. -1.
        -11    1    1    2    0    0  0.15389008845E+02 -0.20565345337E+02  0.12944212056E+02  0.28762956178E+02  0.51100000000E-03 0. -1.
         11    1    1    2    0    0 -0.15389008845E+02  0.20565345337E+02  0.62467574868E+00  0.25693291773E+02  0.51100000000E-03 0.  1.
<mgrwt>
<rscale>  0 0.52738679E+02</rscale>
<asrwt>0</asrwt>
<pdfrwt beam="2">  1        3 0.31451816E-02 0.52738679E+02</pdfrwt>
<pdfrwt beam="1">  1       -3 0.52327027E-02 0.52738679E+02</pdfrwt>
<totfact> 0.16320791E+05</totfact>
</mgrwt>
</event>
<event>
 4    1  0.1754914E-001  0.1212951E+03  0.7818608E-02  0.1240976E+00
         -3   -1    0    0    0  501 -0.00000000000E+00  0.00000000000E+00  0.43100223767E+03  0.43100224770E+03  0.93000000000E-01 0.  1.
          3   -1    0    0  501    0  0.00000000000E+00 -0.00000000000E+00 -0.85336242592E+01  0.85341310042E+01  0.93000000000E-01 0. -1.
        -11    1    1    2    0    0  0.56936301590E+02  0.20889433217E+02  0.21166097094E+03  0.22017828566E+03  0.51100000000E-03 0.  1.
         11    1    1    2    0    0 -0.56936301590E+02 -0.20889433217E+02  0.21080764247E+03  0.21935809304E+03  0.51100000000E-03 0. -1.
<mgrwt>
<rscale>  0 0.12129509E+03</rscale>
<asrwt>0</asrwt>
<pdfrwt beam="2">  1        3 0.13129048E-02 0.12129509E+03</pdfrwt>
<pdfrwt beam="1">  1       -3 0.66308086E-01 0.12129509E+03</pdfrwt>
<totfact> 0.89581999E+03</totfact>
</mgrwt>
</event>
<event>
 4    1  0.1754914E-001  0.4039643E+02  0.7818608E-02  0.1505314E+00
          3   -1    0    0  501    0  0.00000000000E+00  0.00000000000E+00  0.26310403703E+02  0.26310568067E+02  0.93000000000E-01 0.  1.
         -3   -1    0    0    0  501 -0.00000000000E+00 -0.00000000000E+00 -0.15505602894E+02  0.15505881791E+02  0.93000000000E-01 0. -1.
        -11    1    1    2    0    0  0.12429123682E+01  0.15052465952E+02 -0.84796939720E+01  0.17321280914E+02  0.51100000000E-03 0.  1.
         11    1    1    2    0    0 -0.12429123682E+01 -0.15052465952E+02  0.19284494781E+02  0.24495168944E+02  0.51100000000E-03 0. -1.
<mgrwt>
<rscale>  0 0.40396432E+02</rscale>
<asrwt>0</asrwt>
<pdfrwt beam="1">  1        3 0.40477885E-02 0.40396432E+02</pdfrwt>
<pdfrwt beam="2">  1       -3 0.23855115E-02 0.40396432E+02</pdfrwt>
<totfact> 0.32872876E+05</totfact>
</mgrwt>
</event>
<event>
 4    1  0.1754914E-001  0.3636428E+02  0.7818608E-02  0.1536809E+00
          3   -1    0    0  501    0  0.00000000000E+00  0.00000000000E+00  0.28227085444E+02  0.28227238648E+02  0.93000000000E-01 0. -1.
         -3   -1    0    0    0  501 -0.00000000000E+00 -0.00000000000E+00 -0.11711440944E+02  0.11711810192E+02  0.93000000000E-01 0.  1.
        -11    1    1    2    0    0  0.13519116334E+02  0.17229408150E+01  0.21476554230E+02  0.25435750694E+02  0.51100000000E-03 0. -1.
         11    1    1    2    0    0 -0.13519116334E+02 -0.17229408150E+01 -0.49609097293E+01  0.14503298146E+02  0.51100000000E-03 0.  1.
<mgrwt>
<rscale>  0 0.36364283E+02</rscale>
<asrwt>0</asrwt>
<pdfrwt beam="1">  1        3 0.43426687E-02 0.36364283E+02</pdfrwt>
<pdfrwt beam="2">  1       -3 0.18018004E-02 0.36364283E+02</pdfrwt>
<totfact> 0.42674977E+05</totfact>
</mgrwt>
</event>
<event>
 4    1  0.1754914E-001  0.6748564E+02  0.7818608E-02  0.1368858E+00
          3   -1    0    0  501    0  0.00000000000E+00  0.00000000000E+00  0.32062871166E+01  0.32076355893E+01  0.93000000000E-01 0. -1.
         -3   -1    0    0    0  501 -0.00000000000E+00 -0.00000000000E+00 -0.35503193515E+03  0.35503194733E+03  0.93000000000E-01 0.  1.
        -11    1    1    2    0    0  0.33608971363E+02 -0.27723216764E+01 -0.16979247512E+03  0.17310902152E+03  0.51100000000E-03 0. -1.
         11    1    1    2    0    0 -0.33608971363E+02  0.27723216764E+01 -0.18203317291E+03  0.18513056140E+03  0.51100000000E-03 0.  1.
<mgrwt>
<rscale>  0 0.67485644E+02</rscale>
<asrwt>0</asrwt>
<pdfrwt beam="1">  1        3 0.49337989E-03 0.67485644E+02</pdfrwt>
<pdfrwt beam="2">  1       -3 0.54620371E-01 0.67485644E+02</pdfrwt>
<totfact> 0.48365748E+04</totfact>
</mgrwt>
</event>
<event>
 4    1  0.1754914E-001  0.4799166E+02  0.7818608E-02  0.1456485E+00
         -3   -1    0    0    0  501 -0.00000000000E+00  0.00000000000E+00  0.15381965867E+02  0.15382247005E+02  0.93000000000E-01 0. -1.
          3   -1    0    0  501    0  0.00000000000E+00 -0.00000000000E+00 -0.37432761192E+02  0.37432876719E+02  0.93000000000E-01 0.  1.
        -11    1    1    2    0    0 -0.61193097189E+01  0.22404971946E+02 -0.43884043780E+01  0.23636556699E+02  0.51100000000E-03 0. -1.
         11    1    1    2    0    0  0.61193097189E+01 -0.22404971946E+02 -0.17662390947E+02  0.29178567024E+02  0.51100000000E-03 0.  1.
<mgrwt>
<rscale>  0 0.47991663E+02</rscale>
<asrwt>0</asrwt>
<pdfrwt beam="2">  1        3 0.57589168E-02 0.47991663E+02</pdfrwt>
<pdfrwt beam="1">  1       -3 0.23664868E-02 0.47991663E+02</pdfrwt>
<totfact> 0.20799542E+05</totfact>
</mgrwt>
</event>
<event>
 4    1  0.1754914E-001  0.2388374E+02  0.7818608E-02  0.1677573E+00
          3   -1    0    0  501    0  0.00000000000E+00  0.00000000000E+00  0.93393403133E+01  0.93398033431E+01  0.93000000000E-01 0. -1.
         -3   -1    0    0    0  501 -0.00000000000E+00 -0.00000000000E+00 -0.15268646489E+02  0.15268929714E+02  0.93000000000E-01 0.  1.
        -11    1    1    2    0    0 -0.11325583965E+02  0.18915380054E+01 -0.63447044377E+01  0.13118766819E+02  0.51100000000E-03 0.  1.
         11    1    1    2    0    0  0.11325583965E+02 -0.18915380054E+01  0.41539826176E+00  0.11489966238E+02  0.51100000000E-03 0. -1.
<mgrwt>
<rscale>  0 0.23883741E+02</rscale>
<asrwt>0</asrwt>
<pdfrwt beam="1">  1        3 0.14368790E-02 0.23883741E+02</pdfrwt>
<pdfrwt beam="2">  1       -3 0.23490799E-02 0.23883741E+02</pdfrwt>
<totfact> 0.11909369E+06</totfact>
</mgrwt>
</event>
<event>
 4    1  0.1754914E-001  0.2764184E+02  0.7818608E-02  0.1625720E+00
          3   -1    0    0  501    0  0.00000000000E+00  0.00000000000E+00  0.17260664651E+01  0.17285700570E+01  0.93000000000E-01 0.  1.
         -3   -1    0    0    0  501 -0.00000000000E+00 -0.00000000000E+00 -0.11058385534E+03  0.11058389444E+03  0.93000000000E-01 0. -1.
        -11    1    1    2    0    0 -0.59877628193E+01 -0.12076108130E+02 -0.66841201345E+02  0.68186742763E+02  0.51100000000E-03 0.  1.
         11    1    1    2    0    0  0.59877628193E+01  0.12076108130E+02 -0.42016587528E+02  0.44125721738E+02  0.51100000000E-03 0. -1.
<mgrwt>
<rscale>  0 0.27641843E+02</rscale>
<asrwt>0</asrwt>
<pdfrwt beam="1">  1        3 0.26574437E-03 0.27641843E+02</pdfrwt>
<pdfrwt beam="2">  1       -3 0.17013091E-01 0.27641843E+02</pdfrwt>
<totfact> 0.67195225E+05</totfact>
</mgrwt>
</event>
<event>
 4    1  0.1754914E-001  0.2516776E+02  0.7818608E-02  0.1658604E+00
         -3   -1    0    0    0  501 -0.00000000000E+00  0.00000000000E+00  0.64903260367E+02  0.64903326997E+02  0.93000000000E-01 0.  1.
          3   -1    0    0  501    0  0.00000000000E+00 -0.00000000000E+00 -0.24388923334E+01  0.24406648303E+01  0.93000000000E-01 0. -1.
        -11    1    1    2    0    0  0.10544833420E+02 -0.50434517655E+01  0.18760503525E+02  0.22103990824E+02  0.51100000000E-03 0. -1.
         11    1    1    2    0    0 -0.10544833420E+02  0.50434517655E+01  0.43703864509E+02  0.45240001004E+02  0.51100000000E-03 0.  1.
<mgrwt>
<rscale>  0 0.25167756E+02</rscale>
<asrwt>0</asrwt>
<pdfrwt beam="2">  1        3 0.37535560E-03 0.25167756E+02</pdfrwt>
<pdfrwt beam="1">  1       -3 0.99852605E-02 0.25167756E+02</pdfrwt>
<totfact> 0.93036103E+05</totfact>
</mgrwt>
</event>
<event>
 4    1  0.1754914E-001  0.2673906E+02  0.7818608E-02  0.1637210E+00
         -3   -1    0    0    0  501 -0.00000000000E+00  0.00000000000E+00  0.88093779628E+01  0.88098688464E+01  0.93000000000E-01 0. -1.
          3   -1    0    0  501    0  0.00000000000E+00 -0.00000000000E+00 -0.20289075735E+02  0.20289288878E+02  0.93000000000E-01 0.  1.
        -11    1    1    2    0    0  0.99663431601E+01 -0.76101037031E+01 -0.69345929653E+00  0.12558764287E+02  0.51100000000E-03 0.  1.
         11    1    1    2    0    0 -0.99663431601E+01  0.76101037031E+01 -0.10786238476E+02  0.16540393438E+02  0.51100000000E-03 0. -1.
<mgrwt>
<rscale>  0 0.26739064E+02</rscale>
<asrwt>0</asrwt>
<pdfrwt beam="2">  1        3 0.31214504E-02 0.26739064E+02</pdfrwt>
<pdfrwt beam="1">  1       -3 0.13553431E-02 0.26739064E+02</pdfrwt>
<totfact> 0.90842934E+05</totfact>
</mgrwt>
</event>
<event>
 4    1  0.1754914E-001  0.2755632E+02  0.7818608E-02  0.1626785E+00
          3   -1    0    0  501    0  0.00000000000E+00  0.00000000000E+00  0.10819292050E+02  0.10819691745E+02  0.93000000000E-01 0. -1.
         -3   -1    0    0    0  501 -0.00000000000E+00 -0.00000000000E+00 -0.17545378801E+02  0.17545625275E+02  0.93000000000E-01 0.  1.
        -11    1    1    2    0    0  0.11555180230E+02 -0.55404567581E+01 -0.85731489361E+01  0.15418097619E+02  0.51100000000E-03 0.  1.
         11    1    1    2    0    0 -0.11555180230E+02  0.55404567581E+01  0.18470621846E+01  0.12947219401E+02  0.51100000000E-03 0. -1.
<mgrwt>
<rscale>  0 0.27556324E+02</rscale>
<asrwt>0</asrwt>
<pdfrwt beam="1">  1        3 0.16645562E-02 0.27556324E+02</pdfrwt>
<pdfrwt beam="2">  1       -3 0.26993387E-02 0.27556324E+02</pdfrwt>
<totfact> 0.84993563E+05</totfact>
</mgrwt>
</event>
<event>
 4    1  0.1754914E-001  0.4701021E+02  0.7818608E-02  0.1462169E+00
          3   -1    0    0  501    0  0.00000000000E+00  0.00000000000E+00  0.28603114046E+01  0.28618229035E+01  0.93000000000E-01 0. -1.
         -3   -1    0    0    0  501 -0.00000000000E+00 -0.00000000000E+00 -0.19310469567E+03  0.19310471807E+03  0.93000000000E-01 0.  1.
        -11    1    1    2    0    0 -0.18385126977E+02 -0.11900283088E+02 -0.59539808688E+02  0.63439880599E+02  0.51100000000E-03 0. -1.
         11    1    1    2    0    0  0.18385126977E+02  0.11900283088E+02 -0.13070457558E+03  0.13252666037E+03  0.51100000000E-03 0.  1.
<mgrwt>
<rscale>  0 0.47010206E+02</rscale>
<asrwt>0</asrwt>
<pdfrwt beam="1">  1        3 0.44016605E-03 0.47010206E+02</pdfrwt>
<pdfrwt beam="2">  1       -3 0.29708523E-01 0.47010206E+02</pdfrwt>
<totfact> 0.15921947E+05</totfact>
</mgrwt>
</event>
<event>
 4    1  0.1754914E-001  0.4929367E+02  0.7818608E-02  0.1449189E+00
         -3   -1    0    0    0  501 -0.00000000000E+00  0.00000000000E+00  0.72588183575E+01  0.72594140912E+01  0.93000000000E-01 0.  1.
          3   -1    0    0  501    0  0.00000000000E+00 -0.00000000000E+00 -0.83682643589E+02  0.83682695266E+02  0.93000000000E-01 0. -1.
        -11    1    1    2    0    0  0.19786956823E+02 -0.10577014771E+02 -0.57032617386E+02  0.61287162995E+02  0.51100000000E-03 0. -1.
         11    1    1    2    0    0 -0.19786956823E+02  0.10577014771E+02 -0.19391207846E+02  0.29654946363E+02  0.51100000000E-03 0.  1.
<mgrwt>
<rscale>  0 0.49293673E+02</rscale>
<asrwt>0</asrwt>
<pdfrwt beam="2">  1        3 0.12874302E-01 0.49293673E+02</pdfrwt>
<pdfrwt beam="1">  1       -3 0.11167911E-02 0.49293673E+02</pdfrwt>
<totfact> 0.17672049E+05</totfact>
</mgrwt>
</event>
<event>
 4    1  0.1754914E-001  0.4753916E+02  0.7818608E-02  0.1459085E+00
          3   -1    0    0  501    0  0.00000000000E+00  0.00000000000E+00  0.71779414946E+02  0.71779475193E+02  0.93000000000E-01 0.  1.
         -3   -1    0    0    0  501 -0.00000000000E+00 -0.00000000000E+00 -0.78709019510E+01  0.78714513606E+01  0.93000000000E-01 0. -1.
        -11    1    1    2    0    0 -0.17355905339E+02  0.18163375511E+01  0.58994787803E+02  0.61521634572E+02  0.51100000000E-03 0.  1.
         11    1    1    2    0    0  0.17355905339E+02 -0.18163375511E+01  0.49137251922E+01  0.18129291982E+02  0.51100000000E-03 0. -1.
<mgrwt>
<rscale>  0 0.47539164E+02</rscale>
<asrwt>0</asrwt>
<pdfrwt beam="1">  1        3 0.11043034E-01 0.47539164E+02</pdfrwt>
<pdfrwt beam="2">  1       -3 0.12109549E-02 0.47539164E+02</pdfrwt>
<totfact> 0.19882157E+05</totfact>
</mgrwt>
</event>
<event>
 4    1  0.1754914E-001  0.2337731E+02  0.7818608E-02  0.1685466E+00
         -3   -1    0    0    0  501 -0.00000000000E+00  0.00000000000E+00  0.10891089321E+01  0.10930723974E+01  0.93000000000E-01 0.  1.
          3   -1    0    0  501    0  0.00000000000E+00 -0.00000000000E+00 -0.12521445071E+03  0.12521448525E+03  0.93000000000E-01 0. -1.
        -11    1    1    2    0    0  0.31262809815E+01  0.11235101669E+02 -0.57796289598E+02  0.58961107807E+02  0.51100000000E-03 0. -1.
         11    1    1    2    0    0 -0.31262809815E+01 -0.11235101669E+02 -0.66329052181E+02  0.67346449838E+02  0.51100000000E-03 0.  1.
<mgrwt>
<rscale>  0 0.23377311E+02</rscale>
<asrwt>0</asrwt>
<pdfrwt beam="2">  1        3 0.19264058E-01 0.23377311E+02</pdfrwt>
<pdfrwt beam="1">  1       -3 0.16786286E-03 0.23377311E+02</pdfrwt>
<totfact> 0.94828004E+05</totfact>
</mgrwt>
</event>
<event>
 4    1  0.1754914E-001  0.3785064E+02  0.7818608E-02  0.1524652E+00
         -3   -1    0    0    0  501 -0.00000000000E+00  0.00000000000E+00  0.81525954668E+02  0.81526007712E+02  0.93000000000E-01 0. -1.
          3   -1    0    0  501    0  0.00000000000E+00 -0.00000000000E+00 -0.43927511515E+01  0.43937355040E+01  0.93000000000E-01 0.  1.
        -11    1    1    2    0    0  0.14832880477E+02  0.12070744578E+01  0.12026762679E+02  0.19134115939E+02  0.51100000000E-03 0.  1.
         11    1    1    2    0    0 -0.14832880477E+02 -0.12070744578E+01  0.65106440838E+02  0.66785627277E+02  0.51100000000E-03 0. -1.
<mgrwt>
<rscale>  0 0.37850643E+02</rscale>
<asrwt>0</asrwt>
<pdfrwt beam="2">  1        3 0.67588766E-03 0.37850643E+02</pdfrwt>
<pdfrwt beam="1">  1       -3 0.12542534E-01 0.37850643E+02</pdfrwt>
<totfact> 0.34249104E+05</totfact>
</mgrwt>
</event>
<event>
 4    1  0.1754914E-001  0.3422229E+02  0.7818608E-02  0.1555617E+00
         -3   -1    0    0    0  501 -0.00000000000E+00  0.00000000000E+00  0.28944346689E+01  0.28959283577E+01  0.93000000000E-01 0. -1.
          3   -1    0    0  501    0  0.00000000000E+00 -0.00000000000E+00 -0.10112904888E+03  0.10112909164E+03  0.93000000000E-01 0.  1.
        -11    1    1    2    0    0  0.15365695517E+02 -0.75206552322E+01 -0.48036250724E+02  0.50991629095E+02  0.51100000000E-03 0.  1.
         11    1    1    2    0    0 -0.15365695517E+02  0.75206552322E+01 -0.50198363486E+02  0.53033390904E+02  0.51100000000E-03 0. -1.
<mgrwt>
<rscale>  0 0.34222293E+02</rscale>
<asrwt>0</asrwt>
<pdfrwt beam="2">  1        3 0.15558431E-01 0.34222293E+02</pdfrwt>
<pdfrwt beam="1">  1       -3 0.44541591E-03 0.34222293E+02</pdfrwt>
<totfact> 0.41698912E+05</totfact>
</mgrwt>
</event>
<event>
 4    1  0.1754914E-001  0.2737927E+02  0.7818608E-02  0.1629006E+00
          3   -1    0    0  501    0  0.00000000000E+00  0.00000000000E+00  0.92933174859E+01  0.92937828086E+01  0.93000000000E-01 0. -1.
         -3   -1    0    0    0  501 -0.00000000000E+00 -0.00000000000E+00 -0.20164602968E+02  0.20164817427E+02  0.93000000000E-01 0.  1.
        -11    1    1    2    0    0 -0.98925349975E+01  0.47199949545E+01  0.33887813331E+01  0.11472769510E+02  0.51100000000E-03 0. -1.
         11    1    1    2    0    0  0.98925349975E+01 -0.47199949545E+01 -0.14260066815E+02  0.17985830725E+02  0.51100000000E-03 0.  1.
<mgrwt>
<rscale>  0 0.27379267E+02</rscale>
<asrwt>0</asrwt>
<pdfrwt beam="1">  1        3 0.14297935E-02 0.27379267E+02</pdfrwt>
<pdfrwt beam="2">  1       -3 0.31022989E-02 0.27379267E+02</pdfrwt>
<totfact> 0.85953182E+05</totfact>
</mgrwt>
</event>
<event>
 4    1  0.1754914E-001  0.4048868E+02  0.7818608E-02  0.1504646E+00
         -3   -1    0    0    0  501 -0.00000000000E+00  0.00000000000E+00  0.10472029643E+03  0.10472033773E+03  0.93000000000E-01 0. -1.
          3   -1    0    0  501    0  0.00000000000E+00 -0.00000000000E+00 -0.39130058323E+01  0.39141108369E+01  0.93000000000E-01 0.  1.
        -11    1    1    2    0    0  0.16138392198E+02 -0.33662664876E+01  0.81928878057E+02  0.83571050686E+02  0.51100000000E-03 0. -1.
         11    1    1    2    0    0 -0.16138392198E+02  0.33662664876E+01  0.18878412540E+02  0.25063397877E+02  0.51100000000E-03 0.  1.
<mgrwt>
<rscale>  0 0.40488685E+02</rscale>
<asrwt>0</asrwt>
<pdfrwt beam="2">  1        3 0.60208910E-03 0.40488685E+02</pdfrwt>
<pdfrwt beam="1">  1       -3 0.16110902E-01 0.40488685E+02</pdfrwt>
<totfact> 0.27562549E+05</totfact>
</mgrwt>
</event>
<event>
 4    1  0.1754914E-001  0.2482528E+02  0.7818608E-02  0.1663524E+00
         -3   -1    0    0    0  501 -0.00000000000E+00  0.00000000000E+00  0.21696314892E+01  0.21716237701E+01  0.93000000000E-01 0.  1.
          3   -1    0    0  501    0  0.00000000000E+00 -0.00000000000E+00 -0.70979121700E+02  0.70979182626E+02  0.93000000000E-01 0. -1.
        -11    1    1    2    0    0  0.31258693378E+01  0.11955145737E+02 -0.30946927493E+02  0.33322798355E+02  0.51100000000E-03 0. -1.
         11    1    1    2    0    0 -0.31258693378E+01 -0.11955145737E+02 -0.37862562718E+02  0.39828008042E+02  0.51100000000E-03 0.  1.
<mgrwt>
<rscale>  0 0.24825280E+02</rscale>
<asrwt>0</asrwt>
<pdfrwt beam="2">  1        3 0.10920021E-01 0.24825280E+02</pdfrwt>
<pdfrwt beam="1">  1       -3 0.33394745E-03 0.24825280E+02</pdfrwt>
<totfact> 0.94444621E+05</totfact>
</mgrwt>
</event>
<event>
 4    1  0.1754914E-001  0.5604380E+02  0.7818608E-02  0.1415226E+00
         -3   -1    0    0    0  501 -0.00000000000E+00  0.00000000000E+00  0.44757829516E+01  0.44767490470E+01  0.93000000000E-01 0.  1.
          3   -1    0    0  501    0  0.00000000000E+00 -0.00000000000E+00 -0.17541908743E+03  0.17541911209E+03  0.93000000000E-01 0. -1.
        -11    1    1    2    0    0 -0.18666297575E+02 -0.15258599178E+02 -0.13131519751E+03  0.13351006184E+03  0.51100000000E-03 0. -1.
         11    1    1    2    0    0  0.18666297575E+02  0.15258599178E+02 -0.39628106973E+02  0.46385799298E+02  0.51100000000E-03 0.  1.
<mgrwt>
<rscale>  0 0.56043800E+02</rscale>
<asrwt>0</asrwt>
<pdfrwt beam="2">  1        3 0.26987623E-01 0.56043800E+02</pdfrwt>
<pdfrwt beam="1">  1       -3 0.68865834E-03 0.56043800E+02</pdfrwt>
<totfact> 0.10576522E+05</totfact>
</mgrwt>
</event>
<event>
 4    1  0.1754914E-001  0.2089678E+02  0.7818608E-02  0.1728061E+00
         -3   -1    0    0    0  501 -0.00000000000E+00  0.00000000000E+00  0.19278626354E+02  0.19278850669E+02  0.93000000000E-01 0. -1.
          3   -1    0    0  501    0  0.00000000000E+00 -0.00000000000E+00 -0.56620499040E+01  0.56628136218E+01  0.93000000000E-01 0.  1.
        -11    1    1    2    0    0 -0.76826990717E+01 -0.70773981310E+01  0.70893119265E+01  0.12624253371E+02  0.51100000000E-03 0.  1.
         11    1    1    2    0    0  0.76826990717E+01  0.70773981310E+01  0.65272645239E+01  0.12317410919E+02  0.51100000000E-03 0. -1.
<mgrwt>
<rscale>  0 0.20896781E+02</rscale>
<asrwt>0</asrwt>
<pdfrwt beam="2">  1        3 0.87116060E-03 0.20896781E+02</pdfrwt>
<pdfrwt beam="1">  1       -3 0.29660185E-02 0.20896781E+02</pdfrwt>
<totfact> 0.15976995E+06</totfact>
</mgrwt>
</event>
<event>
 4    1  0.1754914E-001  0.3565986E+02  0.7818608E-02  0.1542818E+00
         -3   -1    0    0    0  501 -0.00000000000E+00  0.00000000000E+00  0.31063384315E+02  0.31063523530E+02  0.93000000000E-01 0.  1.
          3   -1    0    0  501    0  0.00000000000E+00 -0.00000000000E+00 -0.10233745002E+02  0.10234167566E+02  0.93000000000E-01 0. -1.
        -11    1    1    2    0    0 -0.56521220708E+01 -0.15903384132E+02  0.17071856060E+02  0.24006507042E+02  0.51100000000E-03 0.  1.
         11    1    1    2    0    0  0.56521220708E+01  0.15903384132E+02  0.37577832534E+01  0.17291184054E+02  0.51100000000E-03 0. -1.
<mgrwt>
<rscale>  0 0.35659857E+02</rscale>
<asrwt>0</asrwt>
<pdfrwt beam="2">  1        3 0.15744655E-02 0.35659857E+02</pdfrwt>
<pdfrwt beam="1">  1       -3 0.47790254E-02 0.35659857E+02</pdfrwt>
<totfact> 0.44557150E+05</totfact>
</mgrwt>
</event>
<event>
 4    1  0.1754914E-001  0.4333473E+02  0.7818608E-02  0.1485014E+00
         -3   -1    0    0    0  501 -0.00000000000E+00  0.00000000000E+00  0.18294275567E+02  0.18294511951E+02  0.93000000000E-01 0.  1.
          3   -1    0    0  501    0  0.00000000000E+00 -0.00000000000E+00 -0.25661893395E+02  0.25662061912E+02  0.93000000000E-01 0. -1.
        -11    1    1    2    0    0 -0.83463302575E-01 -0.17331372996E+02 -0.16873914107E+02  0.24189097412E+02  0.51100000000E-03 0. -1.
         11    1    1    2    0    0  0.83463302575E-01  0.17331372996E+02  0.95062962801E+01  0.19767476452E+02  0.51100000000E-03 0.  1.
<mgrwt>
<rscale>  0 0.43334727E+02</rscale>
<asrwt>0</asrwt>
<pdfrwt beam="2">  1        3 0.39480148E-02 0.43334727E+02</pdfrwt>
<pdfrwt beam="1">  1       -3 0.28145351E-02 0.43334727E+02</pdfrwt>
<totfact> 0.27491707E+05</totfact>
</mgrwt>
</event>
<event>
 4    1  0.1754914E-001  0.3154863E+02  0.7818608E-02  0.1581575E+00
          3   -1    0    0  501    0  0.00000000000E+00  0.00000000000E+00  0.22977173121E+02  0.22977361329E+02  0.93000000000E-01 0.  1.
         -3   -1    0    0    0  501 -0.00000000000E+00 -0.00000000000E+00 -0.10828968737E+02  0.10829368075E+02  0.93000000000E-01 0. -1.
        -11    1    1    2    0    0 -0.12708422921E+02  0.43323018308E+01 -0.27983958973E+01  0.13715096505E+02  0.51100000000E-03 0. -1.
         11    1    1    2    0    0  0.12708422921E+02 -0.43323018308E+01  0.14946600282E+02  0.20091632899E+02  0.51100000000E-03 0.  1.
<mgrwt>
<rscale>  0 0.31548630E+02</rscale>
<asrwt>0</asrwt>
<pdfrwt beam="1">  1        3 0.35349949E-02 0.31548630E+02</pdfrwt>
<pdfrwt beam="2">  1       -3 0.16660404E-02 0.31548630E+02</pdfrwt>
<totfact> 0.60966541E+05</totfact>
</mgrwt>
</event>
<event>
 4    1  0.1754914E-001  0.3000400E+02  0.7818608E-02  0.1598044E+00
          3   -1    0    0  501    0  0.00000000000E+00  0.00000000000E+00  0.19322957123E+01  0.19345324293E+01  0.93000000000E-01 0.  1.
         -3   -1    0    0    0  501 -0.00000000000E+00 -0.00000000000E+00 -0.11640326596E+03  0.11640330311E+03  0.93000000000E-01 0. -1.
        -11    1    1    2    0    0  0.61749223480E+00  0.14977044195E+02 -0.54846398700E+02  0.56857898309E+02  0.51100000000E-03 0. -1.
         11    1    1    2    0    0 -0.61749223480E+00 -0.14977044195E+02 -0.59624571544E+02  0.61479937228E+02  0.51100000000E-03 0.  1.
<mgrwt>
<rscale>  0 0.30004005E+02</rscale>
<asrwt>0</asrwt>
<pdfrwt beam="1">  1        3 0.29745127E-03 0.30004005E+02</pdfrwt>
<pdfrwt beam="2">  1       -3 0.17908364E-01 0.30004005E+02</pdfrwt>
<totfact> 0.54887685E+05</totfact>
</mgrwt>
</event>
<event>
 4    1  0.1754914E-001  0.4000821E+02  0.7818608E-02  0.1508151E+00
         -3   -1    0    0    0  501 -0.00000000000E+00  0.00000000000E+00  0.44440395338E+02  0.44440492648E+02  0.93000000000E-01 0. -1.
          3   -1    0    0  501    0  0.00000000000E+00 -0.00000000000E+00 -0.90041694083E+01  0.90046496730E+01  0.93000000000E-01 0.  1.
        -11    1    1    2    0    0  0.17497794997E+02  0.77692507019E+01  0.99712873512E+01  0.21586121883E+02  0.51100000000E-03 0.  1.
         11    1    1    2    0    0 -0.17497794997E+02 -0.77692507019E+01  0.25464938579E+02  0.31859020439E+02  0.51100000000E-03 0. -1.
<mgrwt>
<rscale>  0 0.40008213E+02</rscale>
<asrwt>0</asrwt>
<pdfrwt beam="2">  1        3 0.13853013E-02 0.40008213E+02</pdfrwt>
<pdfrwt beam="1">  1       -3 0.68370283E-02 0.40008213E+02</pdfrwt>
<totfact> 0.32577411E+05</totfact>
</mgrwt>
</event>
<event>
 4    1  0.1754914E-001  0.3420071E+02  0.7818608E-02  0.1555815E+00
         -3   -1    0    0    0  501 -0.00000000000E+00  0.00000000000E+00  0.60272715045E+02  0.60272786793E+02  0.93000000000E-01 0. -1.
          3   -1    0    0  501    0  0.00000000000E+00 -0.00000000000E+00 -0.48511288781E+01  0.48520202382E+01  0.93000000000E-01 0.  1.
        -11    1    1    2    0    0 -0.41425014771E+01 -0.10803945023E+02  0.51686755254E+02  0.52966085522E+02  0.51100000000E-03 0. -1.
         11    1    1    2    0    0  0.41425014771E+01  0.10803945023E+02  0.37348309122E+01  0.12158721510E+02  0.51100000000E-03 0.  1.
<mgrwt>
<rscale>  0 0.34200706E+02</rscale>
<asrwt>0</asrwt>
<pdfrwt beam="2">  1        3 0.74640153E-03 0.34200706E+02</pdfrwt>
<pdfrwt beam="1">  1       -3 0.92728004E-02 0.34200706E+02</pdfrwt>
<totfact> 0.46047076E+05</totfact>
</mgrwt>
</event>
<event>
 4    1  0.1754914E-001  0.4061074E+02  0.7818608E-02  0.1503765E+00
          3   -1    0    0  501    0  0.00000000000E+00  0.00000000000E+00  0.87013451810E+01  0.87018421590E+01  0.93000000000E-01 0.  1.
         -3   -1    0    0    0  501 -0.00000000000E+00 -0.00000000000E+00 -0.47382513813E+02  0.47382605080E+02  0.93000000000E-01 0. -1.
        -11    1    1    2    0    0  0.15635864321E+01 -0.19326016835E+02 -0.27669020402E+02  0.33786305206E+02  0.51100000000E-03 0.  1.
         11    1    1    2    0    0 -0.15635864321E+01  0.19326016835E+02 -0.11012148230E+02  0.22298142033E+02  0.51100000000E-03 0. -1.
<mgrwt>
<rscale>  0 0.40610743E+02</rscale>
<asrwt>0</asrwt>
<pdfrwt beam="1">  1        3 0.13387138E-02 0.40610743E+02</pdfrwt>
<pdfrwt beam="2">  1       -3 0.72896626E-02 0.40610743E+02</pdfrwt>
<totfact> 0.31184745E+05</totfact>
</mgrwt>
</event>
<event>
 4    1  0.1754914E-001  0.2570106E+02  0.7818608E-02  0.1651132E+00
         -3   -1    0    0    0  501 -0.00000000000E+00  0.00000000000E+00  0.80958713535E+01  0.80964054971E+01  0.93000000000E-01 0.  1.
          3   -1    0    0  501    0  0.00000000000E+00 -0.00000000000E+00 -0.20396252541E+02  0.20396464564E+02  0.93000000000E-01 0. -1.
        -11    1    1    2    0    0  0.92902311292E+01 -0.78174086520E+01 -0.14839670055E+01  0.12232024804E+02  0.51100000000E-03 0.  1.
         11    1    1    2    0    0 -0.92902311292E+01  0.78174086520E+01 -0.10816414182E+02  0.16260845257E+02  0.51100000000E-03 0. -1.
<mgrwt>
<rscale>  0 0.25701056E+02</rscale>
<asrwt>0</asrwt>
<pdfrwt beam="2">  1        3 0.31379424E-02 0.25701056E+02</pdfrwt>
<pdfrwt beam="1">  1       -3 0.12455761E-02 0.25701056E+02</pdfrwt>
<totfact> 0.99618923E+05</totfact>
</mgrwt>
</event>
<event>
 4    1  0.1754914E-001  0.2841440E+02  0.7818608E-02  0.1616307E+00
          3   -1    0    0  501    0  0.00000000000E+00  0.00000000000E+00  0.71432392577E+01  0.71438446296E+01  0.93000000000E-01 0.  1.
         -3   -1    0    0    0  501 -0.00000000000E+00 -0.00000000000E+00 -0.28254845542E+02  0.28254998595E+02  0.93000000000E-01 0. -1.
        -11    1    1    2    0    0 -0.10573090893E+02 -0.85045893287E+01 -0.15800966949E+02  0.20827598217E+02  0.51100000000E-03 0. -1.
         11    1    1    2    0    0  0.10573090893E+02  0.85045893287E+01 -0.53106393350E+01  0.14571245008E+02  0.51100000000E-03 0.  1.
<mgrwt>
<rscale>  0 0.28414401E+02</rscale>
<asrwt>0</asrwt>
<pdfrwt beam="1">  1        3 0.10990182E-02 0.28414401E+02</pdfrwt>
<pdfrwt beam="2">  1       -3 0.43469576E-02 0.28414401E+02</pdfrwt>
<totfact> 0.77434773E+05</totfact>
</mgrwt>
</event>
<event>
 4    1  0.1754914E-001  0.2955081E+02  0.7818608E-02  0.1603108E+00
         -3   -1    0    0    0  501 -0.00000000000E+00  0.00000000000E+00  0.11755756378E+02  0.11756124234E+02  0.93000000000E-01 0.  1.
          3   -1    0    0  501    0  0.00000000000E+00 -0.00000000000E+00 -0.18569921809E+02  0.18570154684E+02  0.93000000000E-01 0. -1.
        -11    1    1    2    0    0  0.27305470052E+01  0.12651582173E+02 -0.10721111474E+02  0.16806565679E+02  0.51100000000E-03 0. -1.
         11    1    1    2    0    0 -0.27305470052E+01 -0.12651582173E+02  0.39069460430E+01  0.13519713239E+02  0.51100000000E-03 0.  1.
<mgrwt>
<rscale>  0 0.29550810E+02</rscale>
<asrwt>0</asrwt>
<pdfrwt beam="2">  1        3 0.28569573E-02 0.29550810E+02</pdfrwt>
<pdfrwt beam="1">  1       -3 0.18086241E-02 0.29550810E+02</pdfrwt>
<totfact> 0.71859846E+05</totfact>
</mgrwt>
</event>
<event>
 4    1  0.1754914E-001  0.2266245E+02  0.7818608E-02  0.1697041E+00
         -3   -1    0    0    0  501 -0.00000000000E+00  0.00000000000E+00  0.21139278117E+01  0.21159725408E+01  0.93000000000E-01 0.  1.
          3   -1    0    0  501    0  0.00000000000E+00 -0.00000000000E+00 -0.60706985642E+02  0.60707056878E+02  0.93000000000E-01 0. -1.
        -11    1    1    2    0    0  0.31508169375E+01  0.95245606428E+01 -0.43900036991E+02  0.45031746034E+02  0.51100000000E-03 0. -1.
         11    1    1    2    0    0 -0.31508169375E+01 -0.95245606428E+01 -0.14693020839E+02  0.17791283384E+02  0.51100000000E-03 0.  1.
<mgrwt>
<rscale>  0 0.22662449E+02</rscale>
<asrwt>0</asrwt>
<pdfrwt beam="2">  1        3 0.93396977E-02 0.22662449E+02</pdfrwt>
<pdfrwt beam="1">  1       -3 0.32538248E-03 0.22662449E+02</pdfrwt>
<totfact> 0.11895501E+06</totfact>
</mgrwt>
</event>
<event>
 4    1  0.1754914E-001  0.3144929E+02  0.7818608E-02  0.1582600E+00
          3   -1    0    0  501    0  0.00000000000E+00  0.00000000000E+00  0.20394433109E+02  0.20394645151E+02  0.93000000000E-01 0. -1.
         -3   -1    0    0    0  501 -0.00000000000E+00 -0.00000000000E+00 -0.12123664481E+02  0.12124021174E+02  0.93000000000E-01 0.  1.
        -11    1    1    2    0    0 -0.39520403522E+01 -0.15205951171E+02  0.48094220867E+01  0.16430767329E+02  0.51100000000E-03 0. -1.
         11    1    1    2    0    0  0.39520403522E+01  0.15205951171E+02  0.34613465412E+01  0.16087898996E+02  0.51100000000E-03 0.  1.
<mgrwt>
<rscale>  0 0.31449293E+02</rscale>
<asrwt>0</asrwt>
<pdfrwt beam="1">  1        3 0.31376488E-02 0.31449293E+02</pdfrwt>
<pdfrwt beam="2">  1       -3 0.18652229E-02 0.31449293E+02</pdfrwt>
<totfact> 0.61670112E+05</totfact>
</mgrwt>
</event>
<event>
 4    1  0.1754914E-001  0.4697577E+02  0.7818608E-02  0.1462371E+00
          3   -1    0    0  501    0  0.00000000000E+00  0.00000000000E+00  0.34844174751E+02  0.34844298860E+02  0.93000000000E-01 0. -1.
         -3   -1    0    0    0  501 -0.00000000000E+00 -0.00000000000E+00 -0.15832506512E+02  0.15832779650E+02  0.93000000000E-01 0.  1.
        -11    1    1    2    0    0 -0.13346302836E+01  0.11922592498E+02  0.31289718742E+02  0.33510833309E+02  0.51100000000E-03 0. -1.
         11    1    1    2    0    0  0.13346302836E+01 -0.11922592498E+02 -0.12278050504E+02  0.17166245201E+02  0.51100000000E-03 0.  1.
<mgrwt>
<rscale>  0 0.46975768E+02</rscale>
<asrwt>0</asrwt>
<pdfrwt beam="1">  1        3 0.53606728E-02 0.46975768E+02</pdfrwt>
<pdfrwt beam="2">  1       -3 0.24358008E-02 0.46975768E+02</pdfrwt>
<totfact> 0.22071699E+05</totfact>
</mgrwt>
</event>
<event>
 4    1  0.1754914E-001  0.2091774E+02  0.7818608E-02  0.1727670E+00
         -3   -1    0    0    0  501 -0.00000000000E+00  0.00000000000E+00  0.15485120331E+01  0.15513022003E+01  0.93000000000E-01 0. -1.
          3   -1    0    0  501    0  0.00000000000E+00 -0.00000000000E+00 -0.70574280164E+02  0.70574341440E+02  0.93000000000E-01 0.  1.
        -11    1    1    2    0    0 -0.65398305708E+01  0.77305699888E+01 -0.25483930233E+02  0.27421921826E+02  0.51100000000E-03 0. -1.
         11    1    1    2    0    0  0.65398305708E+01 -0.77305699888E+01 -0.43541837899E+02  0.44703721815E+02  0.51100000000E-03 0.  1.
<mgrwt>
<rscale>  0 0.20917739E+02</rscale>
<asrwt>0</asrwt>
<pdfrwt beam="2">  1        3 0.10857798E-01 0.20917739E+02</pdfrwt>
<pdfrwt beam="1">  1       -3 0.23845202E-03 0.20917739E+02</pdfrwt>
<totfact> 0.13818510E+06</totfact>
</mgrwt>
</event>
<event>
 4    1  0.1754914E-001  0.2411460E+02  0.7818608E-02  0.1674055E+00
         -3   -1    0    0    0  501 -0.00000000000E+00  0.00000000000E+00  0.25910735652E+01  0.25927420273E+01  0.93000000000E-01 0. -1.
          3   -1    0    0  501    0  0.00000000000E+00 -0.00000000000E+00 -0.56087656577E+02  0.56087733679E+02  0.93000000000E-01 0.  1.
        -11    1    1    2    0    0  0.86343984050E+01  0.82660234044E+01 -0.30594665611E+02  0.32846819372E+02  0.51100000000E-03 0.  1.
         11    1    1    2    0    0 -0.86343984050E+01 -0.82660234044E+01 -0.22901917400E+02  0.25833656335E+02  0.51100000000E-03 0. -1.
<mgrwt>
<rscale>  0 0.24114598E+02</rscale>
<asrwt>0</asrwt>
<pdfrwt beam="2">  1        3 0.86290036E-02 0.24114598E+02</pdfrwt>
<pdfrwt beam="1">  1       -3 0.39876102E-03 0.24114598E+02</pdfrwt>
<totfact> 0.10486870E+06</totfact>
</mgrwt>
</event>
<event>
 4    1  0.1754914E-001  0.3322274E+02  0.7818608E-02  0.1564974E+00
          3   -1    0    0  501    0  0.00000000000E+00  0.00000000000E+00  0.10782123129E+02  0.10782524202E+02  0.93000000000E-01 0. -1.
         -3   -1    0    0    0  501 -0.00000000000E+00 -0.00000000000E+00 -0.25591180415E+02  0.25591349399E+02  0.93000000000E-01 0.  1.
        -11    1    1    2    0    0 -0.15063611975E+02 -0.15166654589E+00  0.25958544048E+00  0.15066611873E+02  0.51100000000E-03 0. -1.
         11    1    1    2    0    0  0.15063611975E+02  0.15166654589E+00 -0.15068642726E+02  0.21307261728E+02  0.51100000000E-03 0.  1.
<mgrwt>
<rscale>  0 0.33222741E+02</rscale>
<asrwt>0</asrwt>
<pdfrwt beam="1">  1        3 0.16588320E-02 0.33222741E+02</pdfrwt>
<pdfrwt beam="2">  1       -3 0.39371485E-02 0.33222741E+02</pdfrwt>
<totfact> 0.53530550E+05</totfact>
</mgrwt>
</event>
<event>
 4    1  0.1754914E-001  0.2205704E+02  0.7818608E-02  0.1707267E+00
         -3   -1    0    0    0  501 -0.00000000000E+00  0.00000000000E+00  0.70421891091E+01  0.70428031670E+01  0.93000000000E-01 0. -1.
          3   -1    0    0  501    0  0.00000000000E+00 -0.00000000000E+00 -0.17269875141E+02  0.17270125546E+02  0.93000000000E-01 0.  1.
        -11    1    1    2    0    0 -0.86403699331E+01 -0.68011351158E+01 -0.41806098736E+01  0.11763882464E+02  0.51100000000E-03 0. -1.
         11    1    1    2    0    0  0.86403699331E+01  0.68011351158E+01 -0.60470761580E+01  0.12549046249E+02  0.51100000000E-03 0.  1.
<mgrwt>
<rscale>  0 0.22057038E+02</rscale>
<asrwt>0</asrwt>
<pdfrwt beam="2">  1        3 0.26569703E-02 0.22057038E+02</pdfrwt>
<pdfrwt beam="1">  1       -3 0.10834802E-02 0.22057038E+02</pdfrwt>
<totfact> 0.14222978E+06</totfact>
</mgrwt>
</event>
<event>
 4    1  0.1754914E-001  0.2865433E+02  0.7818608E-02  0.1613458E+00
         -3   -1    0    0    0  501 -0.00000000000E+00  0.00000000000E+00  0.11402978363E+02  0.11403357600E+02  0.93000000000E-01 0. -1.
          3   -1    0    0  501    0  0.00000000000E+00 -0.00000000000E+00 -0.18000427325E+02  0.18000667568E+02  0.93000000000E-01 0.  1.
        -11    1    1    2    0    0  0.22219532713E+01 -0.10815861265E+02 -0.12667078665E+02  0.16804011825E+02  0.51100000000E-03 0.  1.
         11    1    1    2    0    0 -0.22219532713E+01  0.10815861265E+02  0.60696297035E+01  0.12600013343E+02  0.51100000000E-03 0. -1.
<mgrwt>
<rscale>  0 0.28654325E+02</rscale>
<asrwt>0</asrwt>
<pdfrwt beam="2">  1        3 0.27693442E-02 0.28654325E+02</pdfrwt>
<pdfrwt beam="1">  1       -3 0.17543520E-02 0.28654325E+02</pdfrwt>
<totfact> 0.77409143E+05</totfact>
</mgrwt>
</event>
<event>
 4    1  0.1754914E-001  0.2532471E+02  0.7818608E-02  0.1656381E+00
          3   -1    0    0  501    0  0.00000000000E+00  0.00000000000E+00  0.64837351901E+02  0.64837418599E+02  0.93000000000E-01 0. -1.
         -3   -1    0    0    0  501 -0.00000000000E+00 -0.00000000000E+00 -0.24719415257E+01  0.24736903416E+01  0.93000000000E-01 0.  1.
        -11    1    1    2    0    0 -0.20430366007E+00  0.12389118343E+02  0.24250036005E+02  0.27232264684E+02  0.51100000000E-03 0.  1.
         11    1    1    2    0    0  0.20430366007E+00 -0.12389118343E+02  0.38115374370E+02  0.40078844257E+02  0.51100000000E-03 0. -1.
<mgrwt>
<rscale>  0 0.25324711E+02</rscale>
<asrwt>0</asrwt>
<pdfrwt beam="1">  1        3 0.99751148E-02 0.25324711E+02</pdfrwt>
<pdfrwt beam="2">  1       -3 0.38043843E-03 0.25324711E+02</pdfrwt>
<totfact> 0.91735083E+05</totfact>
</mgrwt>
</event>
<event>
 4    1  0.1754914E-001  0.2277926E+02  0.7818608E-02  0.1695113E+00
         -3   -1    0    0    0  501 -0.00000000000E+00  0.00000000000E+00  0.42501187208E+01  0.42511361001E+01  0.93000000000E-01 0.  1.
          3   -1    0    0  501    0  0.00000000000E+00 -0.00000000000E+00 -0.30517622899E+02  0.30517764603E+02  0.93000000000E-01 0. -1.
        -11    1    1    2    0    0 -0.65212589559E+01 -0.91364313125E+01 -0.16078629405E+02  0.19609271259E+02  0.51100000000E-03 0. -1.
         11    1    1    2    0    0  0.65212589559E+01  0.91364313125E+01 -0.10188874773E+02  0.15159629445E+02  0.51100000000E-03 0.  1.
<mgrwt>
<rscale>  0 0.22779260E+02</rscale>
<asrwt>0</asrwt>
<pdfrwt beam="2">  1        3 0.46951079E-02 0.22779260E+02</pdfrwt>
<pdfrwt beam="1">  1       -3 0.65395360E-03 0.22779260E+02</pdfrwt>
<totfact> 0.12789769E+06</totfact>
</mgrwt>
</event>
<event>
 4    1  0.1754914E-001  0.2913928E+02  0.7818608E-02  0.1607802E+00
         -3   -1    0    0    0  501 -0.00000000000E+00  0.00000000000E+00  0.29595742709E+01  0.29610351003E+01  0.93000000000E-01 0.  1.
          3   -1    0    0  501    0  0.00000000000E+00 -0.00000000000E+00 -0.71705449467E+02  0.71705509776E+02  0.93000000000E-01 0. -1.
        -11    1    1    2    0    0  0.95999958291E+01 -0.91089101260E+01 -0.49989348673E+02  0.51711383124E+02  0.51100000000E-03 0. -1.
         11    1    1    2    0    0 -0.95999958291E+01  0.91089101260E+01 -0.18756526523E+02  0.22955161752E+02  0.51100000000E-03 0.  1.
<mgrwt>
<rscale>  0 0.29139279E+02</rscale>
<asrwt>0</asrwt>
<pdfrwt beam="2">  1        3 0.11031723E-01 0.29139279E+02</pdfrwt>
<pdfrwt beam="1">  1       -3 0.45543618E-03 0.29139279E+02</pdfrwt>
<totfact> 0.65327720E+05</totfact>
</mgrwt>
</event>
<event>
 4    1  0.1754914E-001  0.6912756E+02  0.7818608E-02  0.1363085E+00
         -3   -1    0    0    0  501 -0.00000000000E+00  0.00000000000E+00  0.53421648112E+02  0.53421729063E+02  0.93000000000E-01 0.  1.
          3   -1    0    0  501    0  0.00000000000E+00 -0.00000000000E+00 -0.22362556478E+02  0.22362749859E+02  0.93000000000E-01 0. -1.
        -11    1    1    2    0    0  0.11550771860E+01  0.34174646074E+02  0.21056282569E+02  0.40157286679E+02  0.51100000000E-03 0. -1.
         11    1    1    2    0    0 -0.11550771860E+01 -0.34174646074E+02  0.10002809065E+02  0.35627192242E+02  0.51100000000E-03 0.  1.
<mgrwt>
<rscale>  0 0.69127564E+02</rscale>
<asrwt>0</asrwt>
<pdfrwt beam="2">  1        3 0.34404144E-02 0.69127564E+02</pdfrwt>
<pdfrwt beam="1">  1       -3 0.82187362E-02 0.69127564E+02</pdfrwt>
<totfact> 0.76810355E+04</totfact>
</mgrwt>
</event>
<event>
 4    1  0.1754914E-001  0.2160304E+02  0.7818608E-02  0.1715209E+00
          3   -1    0    0  501    0  0.00000000000E+00  0.00000000000E+00  0.16710697442E+02  0.16710956227E+02  0.93000000000E-01 0. -1.
         -3   -1    0    0    0  501 -0.00000000000E+00 -0.00000000000E+00 -0.69813042812E+01  0.69819236939E+01  0.93000000000E-01 0.  1.
        -11    1    1    2    0    0 -0.86312067653E+01  0.63964153507E+01  0.36331192488E+01  0.11340697302E+02  0.51100000000E-03 0.  1.
         11    1    1    2    0    0  0.86312067653E+01 -0.63964153507E+01  0.60962739125E+01  0.12352182618E+02  0.51100000000E-03 0. -1.
<mgrwt>
<rscale>  0 0.21603043E+02</rscale>
<asrwt>0</asrwt>
<pdfrwt beam="1">  1        3 0.25709441E-02 0.21603043E+02</pdfrwt>
<pdfrwt beam="2">  1       -3 0.10741144E-02 0.21603043E+02</pdfrwt>
<totfact> 0.14920916E+06</totfact>
</mgrwt>
</event>
<event>
 4    1  0.1754914E-001  0.2382862E+02  0.7818608E-02  0.1678420E+00
         -3   -1    0    0    0  501 -0.00000000000E+00  0.00000000000E+00  0.44213957783E+01  0.44223737549E+01  0.93000000000E-01 0. -1.
          3   -1    0    0  501    0  0.00000000000E+00 -0.00000000000E+00 -0.32100819302E+02  0.32100954018E+02  0.93000000000E-01 0.  1.
        -11    1    1    2    0    0  0.10233041745E+02  0.73081324156E+00 -0.45540363413E+01  0.11224458945E+02  0.51100000000E-03 0. -1.
         11    1    1    2    0    0 -0.10233041745E+02 -0.73081324156E+00 -0.23125387183E+02  0.25298868828E+02  0.51100000000E-03 0.  1.
<mgrwt>
<rscale>  0 0.23828617E+02</rscale>
<asrwt>0</asrwt>
<pdfrwt beam="2">  1        3 0.49386730E-02 0.23828617E+02</pdfrwt>
<pdfrwt beam="1">  1       -3 0.68030035E-03 0.23828617E+02</pdfrwt>
<totfact> 0.11507598E+06</totfact>
</mgrwt>
</event>
<event>
 4    1  0.1754914E-001  0.2495029E+02  0.7818608E-02  0.1661717E+00
         -3   -1    0    0    0  501 -0.00000000000E+00  0.00000000000E+00  0.41907269470E+01  0.41917587411E+01  0.93000000000E-01 0. -1.
          3   -1    0    0  501    0  0.00000000000E+00 -0.00000000000E+00 -0.37130905171E+02  0.37131021637E+02  0.93000000000E-01 0.  1.
        -11    1    1    2    0    0  0.56307889146E+00 -0.12117935474E+02 -0.21289556523E+02  0.24503196428E+02  0.51100000000E-03 0.  1.
         11    1    1    2    0    0 -0.56307889146E+00  0.12117935474E+02 -0.11650621701E+02  0.16819583950E+02  0.51100000000E-03 0. -1.
<mgrwt>
<rscale>  0 0.24950287E+02</rscale>
<asrwt>0</asrwt>
<pdfrwt beam="2">  1        3 0.57125351E-02 0.24950287E+02</pdfrwt>
<pdfrwt beam="1">  1       -3 0.64481557E-03 0.24950287E+02</pdfrwt>
<totfact> 0.10225522E+06</totfact>
</mgrwt>
</event>
<event>
 4    1  0.1754914E-001  0.3111365E+02  0.7818608E-02  0.1586095E+00
          3   -1    0    0  501    0  0.00000000000E+00  0.00000000000E+00  0.27645968286E+02  0.27646124710E+02  0.93000000000E-01 0. -1.
         -3   -1    0    0    0  501 -0.00000000000E+00 -0.00000000000E+00 -0.87536461673E+01  0.87541401760E+01  0.93000000000E-01 0.  1.
        -11    1    1    2    0    0 -0.10003116196E+02  0.78562820588E+01  0.19925300233E+02  0.23638973985E+02  0.51100000000E-03 0. -1.
         11    1    1    2    0    0  0.10003116196E+02 -0.78562820588E+01 -0.10329781146E+01  0.12761290901E+02  0.51100000000E-03 0.  1.
<mgrwt>
<rscale>  0 0.31113654E+02</rscale>
<asrwt>0</asrwt>
<pdfrwt beam="1">  1        3 0.42532759E-02 0.31113654E+02</pdfrwt>
<pdfrwt beam="2">  1       -3 0.13467648E-02 0.31113654E+02</pdfrwt>
<totfact> 0.62486415E+05</totfact>
</mgrwt>
</event>
<event>
 4    1  0.1754914E-001  0.2322238E+02  0.7818608E-02  0.1687931E+00
          3   -1    0    0  501    0  0.00000000000E+00  0.00000000000E+00  0.78320574454E+01  0.78326095797E+01  0.93000000000E-01 0. -1.
         -3   -1    0    0    0  501 -0.00000000000E+00 -0.00000000000E+00 -0.17212551444E+02  0.17212802683E+02  0.93000000000E-01 0.  1.
        -11    1    1    2    0    0  0.84175833240E+01 -0.63414298015E+01  0.56576169961E+00  0.10554123720E+02  0.51100000000E-03 0. -1.
         11    1    1    2    0    0 -0.84175833240E+01  0.63414298015E+01 -0.99462556978E+01  0.14491288542E+02  0.51100000000E-03 0.  1.
<mgrwt>
<rscale>  0 0.23222382E+02</rscale>
<asrwt>0</asrwt>
<pdfrwt beam="1">  1        3 0.12049937E-02 0.23222382E+02</pdfrwt>
<pdfrwt beam="2">  1       -3 0.26481466E-02 0.23222382E+02</pdfrwt>
<totfact> 0.12659557E+06</totfact>
</mgrwt>
</event>
<event>
 4    1  0.1754914E-001  0.2114537E+02  0.7818608E-02  0.1723466E+00
          3   -1    0    0  501    0  0.00000000000E+00  0.00000000000E+00  0.41403056474E+02  0.41403160923E+02  0.93000000000E-01 0. -1.
         -3   -1    0    0    0  501 -0.00000000000E+00 -0.00000000000E+00 -0.26989331822E+01  0.27005350066E+01  0.93000000000E-01 0.  1.
        -11    1    1    2    0    0  0.84249608136E+00  0.10456936430E+02  0.22090968587E+02  0.24455433190E+02  0.51100000000E-03 0. -1.
         11    1    1    2    0    0 -0.84249608136E+00 -0.10456936430E+02  0.16613154705E+02  0.19648262739E+02  0.51100000000E-03 0.  1.
<mgrwt>
<rscale>  0 0.21145374E+02</rscale>
<asrwt>0</asrwt>
<pdfrwt beam="1">  1        3 0.63698319E-02 0.21145374E+02</pdfrwt>
<pdfrwt beam="2">  1       -3 0.41535176E-03 0.21145374E+02</pdfrwt>
<totfact> 0.14624341E+06</totfact>
</mgrwt>
</event>
<event>
 4    1  0.1754914E-001  0.4999773E+02  0.7818608E-02  0.1445354E+00
         -3   -1    0    0    0  501 -0.00000000000E+00  0.00000000000E+00  0.14616308138E+02  0.14616604003E+02  0.93000000000E-01 0.  1.
          3   -1    0    0  501    0  0.00000000000E+00 -0.00000000000E+00 -0.42755802079E+02  0.42755903223E+02  0.93000000000E-01 0. -1.
        -11    1    1    2    0    0  0.26475502056E+01 -0.12370167075E+02 -0.38812000860E+02  0.40821587017E+02  0.51100000000E-03 0. -1.
         11    1    1    2    0    0 -0.26475502056E+01  0.12370167075E+02  0.10672506919E+02  0.16550920209E+02  0.51100000000E-03 0.  1.
<mgrwt>
<rscale>  0 0.49997735E+02</rscale>
<asrwt>0</asrwt>
<pdfrwt beam="2">  1        3 0.65778462E-02 0.49997735E+02</pdfrwt>
<pdfrwt beam="1">  1       -3 0.22486933E-02 0.49997735E+02</pdfrwt>
<totfact> 0.18539478E+05</totfact>
</mgrwt>
</event>
<event>
 4    1  0.1754914E-001  0.2136149E+02  0.7818608E-02  0.1719535E+00
          3   -1    0    0  501    0  0.00000000000E+00  0.00000000000E+00  0.47265039548E+01  0.47274188131E+01  0.93000000000E-01 0.  1.
         -3   -1    0    0    0  501 -0.00000000000E+00 -0.00000000000E+00 -0.24132529489E+02  0.24132708687E+02  0.93000000000E-01 0. -1.
        -11    1    1    2    0    0 -0.50780530521E+01  0.93169512879E+01 -0.80560352657E+01  0.13322608925E+02  0.51100000000E-03 0. -1.
         11    1    1    2    0    0  0.50780530521E+01 -0.93169512879E+01 -0.11349990269E+02  0.15537518575E+02  0.51100000000E-03 0.  1.
<mgrwt>
<rscale>  0 0.21361487E+02</rscale>
<asrwt>0</asrwt>
<pdfrwt beam="1">  1        3 0.72723862E-03 0.21361487E+02</pdfrwt>
<pdfrwt beam="2">  1       -3 0.37127810E-02 0.21361487E+02</pdfrwt>
<totfact> 0.15023765E+06</totfact>
</mgrwt>
</event>
<event>
 4    1  0.1754914E-001  0.4297783E+02  0.7818608E-02  0.1487375E+00
          3   -1    0    0  501    0  0.00000000000E+00  0.00000000000E+00  0.34983801792E+01  0.34996161044E+01  0.93000000000E-01 0.  1.
         -3   -1    0    0    0  501 -0.00000000000E+00 -0.00000000000E+00 -0.13197180400E+03  0.13197183677E+03  0.93000000000E-01 0. -1.
        -11    1    1    2    0    0 -0.20577598880E+02 -0.22103179309E+01 -0.46005986863E+02  0.50446743289E+02  0.51100000000E-03 0.  1.
         11    1    1    2    0    0  0.20577598880E+02  0.22103179309E+01 -0.82467436962E+02  0.85024709587E+02  0.51100000000E-03 0. -1.
<mgrwt>
<rscale>  0 0.42977831E+02</rscale>
<asrwt>0</asrwt>
<pdfrwt beam="1">  1        3 0.53831003E-03 0.42977831E+02</pdfrwt>
<pdfrwt beam="2">  1       -3 0.20303448E-01 0.42977831E+02</pdfrwt>
<totfact> 0.22450819E+05</totfact>
</mgrwt>
</event>
<event>
 4    1  0.1754914E-001  0.2357644E+02  0.7818608E-02  0.1682333E+00
         -3   -1    0    0    0  501 -0.00000000000E+00  0.00000000000E+00  0.24006983169E+01  0.24024989924E+01  0.93000000000E-01 0.  1.
          3   -1    0    0  501    0  0.00000000000E+00 -0.00000000000E+00 -0.57860488402E+02  0.57860563142E+02  0.93000000000E-01 0. -1.
        -11    1    1    2    0    0 -0.69317228838E+01 -0.94032646207E+01 -0.31764860908E+02  0.33844889665E+02  0.51100000000E-03 0. -1.
         11    1    1    2    0    0  0.69317228838E+01  0.94032646207E+01 -0.23694929177E+02  0.26418172470E+02  0.51100000000E-03 0.  1.
<mgrwt>
<rscale>  0 0.23576436E+02</rscale>
<asrwt>0</asrwt>
<pdfrwt beam="2">  1        3 0.89017568E-02 0.23576436E+02</pdfrwt>
<pdfrwt beam="1">  1       -3 0.36948251E-03 0.23576436E+02</pdfrwt>
<totfact> 0.10977707E+06</totfact>
</mgrwt>
</event>
<event>
 4    1  0.1754914E-001  0.3202944E+02  0.7818608E-02  0.1576682E+00
         -3   -1    0    0    0  501 -0.00000000000E+00  0.00000000000E+00  0.30536083745E+02  0.30536225364E+02  0.93000000000E-01 0. -1.
          3   -1    0    0  501    0  0.00000000000E+00 -0.00000000000E+00 -0.83985393368E+01  0.83990542320E+01  0.93000000000E-01 0.  1.
        -11    1    1    2    0    0 -0.13345602983E+02 -0.84390984791E+01  0.78188012188E+01  0.17619794405E+02  0.51100000000E-03 0.  1.
         11    1    1    2    0    0  0.13345602983E+02  0.84390984791E+01  0.14318743189E+02  0.21315485191E+02  0.51100000000E-03 0. -1.
<mgrwt>
<rscale>  0 0.32029442E+02</rscale>
<asrwt>0</asrwt>
<pdfrwt beam="2">  1        3 0.12921335E-02 0.32029442E+02</pdfrwt>
<pdfrwt beam="1">  1       -3 0.46979096E-02 0.32029442E+02</pdfrwt>
<totfact> 0.57916260E+05</totfact>
</mgrwt>
</event>
<event>
 4    1  0.1754914E-001  0.2098658E+02  0.7818608E-02  0.1726392E+00
         -3   -1    0    0    0  501 -0.00000000000E+00  0.00000000000E+00  0.51435596256E+01  0.51444003170E+01  0.93000000000E-01 0.  1.
          3   -1    0    0  501    0  0.00000000000E+00 -0.00000000000E+00 -0.21404486777E+02  0.21404688813E+02  0.93000000000E-01 0. -1.
        -11    1    1    2    0    0 -0.99630030818E+01  0.20280890167E+01 -0.11413391493E+02  0.15285289696E+02  0.51100000000E-03 0. -1.
         11    1    1    2    0    0  0.99630030818E+01 -0.20280890167E+01 -0.48475356586E+01  0.11263799434E+02  0.51100000000E-03 0.  1.
<mgrwt>
<rscale>  0 0.20986576E+02</rscale>
<asrwt>0</asrwt>
<pdfrwt beam="2">  1        3 0.32930781E-02 0.20986576E+02</pdfrwt>
<pdfrwt beam="1">  1       -3 0.79139709E-03 0.20986576E+02</pdfrwt>
<totfact> 0.15738924E+06</totfact>
</mgrwt>
</event>
<event>
 4    1  0.1754914E-001  0.3997833E+02  0.7818608E-02  0.1508371E+00
          3   -1    0    0  501    0  0.00000000000E+00  0.00000000000E+00  0.58761299210E+02  0.58761372804E+02  0.93000000000E-01 0. -1.
         -3   -1    0    0    0  501 -0.00000000000E+00 -0.00000000000E+00 -0.67994307887E+01  0.68000667681E+01  0.93000000000E-01 0.  1.
        -11    1    1    2    0    0 -0.96004489015E+01 -0.45842939214E+01  0.53733103729E+02  0.54776188317E+02  0.51100000000E-03 0. -1.
         11    1    1    2    0    0  0.96004489015E+01  0.45842939214E+01 -0.17712353081E+01  0.10785251256E+02  0.51100000000E-03 0.  1.
<mgrwt>
<rscale>  0 0.39978326E+02</rscale>
<asrwt>0</asrwt>
<pdfrwt beam="1">  1        3 0.90402549E-02 0.39978326E+02</pdfrwt>
<pdfrwt beam="2">  1       -3 0.10461208E-02 0.39978326E+02</pdfrwt>
<totfact> 0.31589707E+05</totfact>
</mgrwt>
</event>
<event>
 4    1  0.1754914E-001  0.5439816E+02  0.7818608E-02  0.1422967E+00
         -3   -1    0    0    0  501 -0.00000000000E+00  0.00000000000E+00  0.49075144734E+01  0.49083955939E+01  0.93000000000E-01 0.  1.
          3   -1    0    0  501    0  0.00000000000E+00 -0.00000000000E+00 -0.15073191428E+03  0.15073194297E+03  0.93000000000E-01 0. -1.
        -11    1    1    2    0    0 -0.24723474414E+02 -0.73014209724E+01 -0.48096279327E+02  0.54569341399E+02  0.51100000000E-03 0. -1.
         11    1    1    2    0    0  0.24723474414E+02  0.73014209724E+01 -0.97728120482E+02  0.10107099717E+03  0.51100000000E-03 0.  1.
<mgrwt>
<rscale>  0 0.54398156E+02</rscale>
<asrwt>0</asrwt>
<pdfrwt beam="2">  1        3 0.23189592E-01 0.54398156E+02</pdfrwt>
<pdfrwt beam="1">  1       -3 0.75507233E-03 0.54398156E+02</pdfrwt>
<totfact> 0.11969699E+05</totfact>
</mgrwt>
</event>
<event>
 4    1  0.1754914E-001  0.2116896E+02  0.7818608E-02  0.1723034E+00
         -3   -1    0    0    0  501 -0.00000000000E+00  0.00000000000E+00  0.12190547215E+02  0.12190901952E+02  0.93000000000E-01 0. -1.
          3   -1    0    0  501    0  0.00000000000E+00 -0.00000000000E+00 -0.91892831273E+01  0.91897537178E+01  0.93000000000E-01 0.  1.
        -11    1    1    2    0    0  0.70401366338E+00  0.10300741389E+02  0.38542370444E+01  0.11020710134E+02  0.51100000000E-03 0.  1.
         11    1    1    2    0    0 -0.70401366338E+00 -0.10300741389E+02 -0.85297295650E+00  0.10359945536E+02  0.51100000000E-03 0. -1.
<mgrwt>
<rscale>  0 0.21168960E+02</rscale>
<asrwt>0</asrwt>
<pdfrwt beam="2">  1        3 0.14137994E-02 0.21168960E+02</pdfrwt>
<pdfrwt beam="1">  1       -3 0.18755323E-02 0.21168960E+02</pdfrwt>
<totfact> 0.15729112E+06</totfact>
</mgrwt>
</event>
<event>
 4    1  0.1754914E-001  0.3610069E+02  0.7818608E-02  0.1539038E+00
          3   -1    0    0  501    0  0.00000000000E+00  0.00000000000E+00  0.44807044610E+01  0.44816694955E+01  0.93000000000E-01 0.  1.
         -3   -1    0    0    0  501 -0.00000000000E+00 -0.00000000000E+00 -0.72706302680E+02  0.72706362159E+02  0.93000000000E-01 0. -1.
        -11    1    1    2    0    0 -0.46823548249E+01  0.13989500226E+02 -0.11873718981E+02  0.18937153059E+02  0.51100000000E-03 0.  1.
         11    1    1    2    0    0  0.46823548249E+01 -0.13989500226E+02 -0.56351879238E+02  0.58250878596E+02  0.51100000000E-03 0. -1.
<mgrwt>
<rscale>  0 0.36100692E+02</rscale>
<asrwt>0</asrwt>
<pdfrwt beam="1">  1        3 0.68941801E-03 0.36100692E+02</pdfrwt>
<pdfrwt beam="2">  1       -3 0.11185663E-01 0.36100692E+02</pdfrwt>
<totfact> 0.39226588E+05</totfact>
</mgrwt>
</event>
<event>
 4    1  0.1754914E-001  0.6311085E+02  0.7818608E-02  0.1385222E+00
         -3   -1    0    0    0  501 -0.00000000000E+00  0.00000000000E+00  0.20749209731E+02  0.20749418148E+02  0.93000000000E-01 0.  1.
          3   -1    0    0  501    0  0.00000000000E+00 -0.00000000000E+00 -0.47989035859E+02  0.47989125973E+02  0.93000000000E-01 0. -1.
        -11    1    1    2    0    0 -0.22533323374E+02  0.21389336912E+02 -0.19634116393E+02  0.36752590693E+02  0.51100000000E-03 0. -1.
         11    1    1    2    0    0  0.22533323374E+02 -0.21389336912E+02 -0.76057097343E+01  0.31985953427E+02  0.51100000000E-03 0.  1.
<mgrwt>
<rscale>  0 0.63110849E+02</rscale>
<asrwt>0</asrwt>
<pdfrwt beam="2">  1        3 0.73829515E-02 0.63110849E+02</pdfrwt>
<pdfrwt beam="1">  1       -3 0.31922091E-02 0.63110849E+02</pdfrwt>
<totfact> 0.99167444E+04</totfact>
</mgrwt>
</event>
<event>
 4    1  0.1754914E-001  0.2377970E+02  0.7818608E-02  0.1679175E+00
          3   -1    0    0  501    0  0.00000000000E+00  0.00000000000E+00  0.22974083875E+01  0.22992899553E+01  0.93000000000E-01 0.  1.
         -3   -1    0    0    0  501 -0.00000000000E+00 -0.00000000000E+00 -0.61506796571E+02  0.61506866880E+02  0.93000000000E-01 0. -1.
        -11    1    1    2    0    0  0.40938561858E+01  0.10483461983E+02 -0.39894367107E+02  0.41451455472E+02  0.51100000000E-03 0. -1.
         11    1    1    2    0    0 -0.40938561858E+01 -0.10483461983E+02 -0.19315021077E+02  0.22354701364E+02  0.51100000000E-03 0.  1.
<mgrwt>
<rscale>  0 0.23779697E+02</rscale>
<asrwt>0</asrwt>
<pdfrwt beam="1">  1        3 0.35359764E-03 0.23779697E+02</pdfrwt>
<pdfrwt beam="2">  1       -3 0.94627330E-02 0.23779697E+02</pdfrwt>
<totfact> 0.10666037E+06</totfact>
</mgrwt>
</event>
<event>
 4    1  0.1754914E-001  0.2166605E+02  0.7818608E-02  0.1714092E+00
          3   -1    0    0  501    0  0.00000000000E+00  0.00000000000E+00  0.57463621477E+01  0.57471146615E+01  0.93000000000E-01 0. -1.
         -3   -1    0    0    0  501 -0.00000000000E+00 -0.00000000000E+00 -0.20420197308E+02  0.20420409082E+02  0.93000000000E-01 0.  1.
        -11    1    1    2    0    0 -0.38203583354E+01 -0.96875381203E+01 -0.37315928075E+01  0.11062021415E+02  0.51100000000E-03 0. -1.
         11    1    1    2    0    0  0.38203583354E+01  0.96875381203E+01 -0.10942242353E+02  0.15105502329E+02  0.51100000000E-03 0.  1.
<mgrwt>
<rscale>  0 0.21666053E+02</rscale>
<asrwt>0</asrwt>
<pdfrwt beam="1">  1        3 0.88412990E-03 0.21666053E+02</pdfrwt>
<pdfrwt beam="2">  1       -3 0.31416430E-02 0.21666053E+02</pdfrwt>
<totfact> 0.14699350E+06</totfact>
</mgrwt>
</event>
<event>
 4    1  0.1754914E-001  0.4784077E+02  0.7818608E-02  0.1457348E+00
         -3   -1    0    0    0  501 -0.00000000000E+00  0.00000000000E+00  0.83973270254E+01  0.83978419949E+01  0.93000000000E-01 0. -1.
          3   -1    0    0  501    0  0.00000000000E+00 -0.00000000000E+00 -0.68136285431E+02  0.68136348899E+02  0.93000000000E-01 0.  1.
        -11    1    1    2    0    0 -0.17413029905E+02  0.12112514999E+02 -0.12180763797E+02  0.24460123406E+02  0.51100000000E-03 0. -1.
         11    1    1    2    0    0  0.17413029905E+02 -0.12112514999E+02 -0.47558194609E+02  0.52074067488E+02  0.51100000000E-03 0.  1.
<mgrwt>
<rscale>  0 0.47840769E+02</rscale>
<asrwt>0</asrwt>
<pdfrwt beam="2">  1        3 0.10482550E-01 0.47840769E+02</pdfrwt>
<pdfrwt beam="1">  1       -3 0.12919410E-02 0.47840769E+02</pdfrwt>
<totfact> 0.19721762E+05</totfact>
</mgrwt>
</event>
<event>
 4    1  0.1754914E-001  0.2359091E+02  0.7818608E-02  0.1682107E+00
          3   -1    0    0  501    0  0.00000000000E+00  0.00000000000E+00  0.10039742019E+02  0.10040172748E+02  0.93000000000E-01 0.  1.
         -3   -1    0    0    0  501 -0.00000000000E+00 -0.00000000000E+00 -0.13857318672E+02  0.13857630742E+02  0.93000000000E-01 0. -1.
        -11    1    1    2    0    0 -0.97410941816E+01 -0.36717967769E+01  0.37096929181E+01  0.11051372278E+02  0.51100000000E-03 0.  1.
         11    1    1    2    0    0  0.97410941816E+01  0.36717967769E+01 -0.75272695707E+01  0.12846431212E+02  0.51100000000E-03 0. -1.
<mgrwt>
<rscale>  0 0.23590912E+02</rscale>
<asrwt>0</asrwt>
<pdfrwt beam="1">  1        3 0.15446328E-02 0.23590912E+02</pdfrwt>
<pdfrwt beam="2">  1       -3 0.21319523E-02 0.23590912E+02</pdfrwt>
<totfact> 0.12272063E+06</totfact>
</mgrwt>
</event>
<event>
 4    1  0.1754914E-001  0.2152202E+02  0.7818608E-02  0.1716652E+00
          3   -1    0    0  501    0  0.00000000000E+00  0.00000000000E+00  0.30746146056E+01  0.30760208018E+01  0.93000000000E-01 0. -1.
         -3   -1    0    0    0  501 -0.00000000000E+00 -0.00000000000E+00 -0.37652977331E+02  0.37653092183E+02  0.93000000000E-01 0.  1.
        -11    1    1    2    0    0  0.60869278009E+01  0.88101950802E+01 -0.19300106944E+02  0.22071800011E+02  0.51100000000E-03 0. -1.
         11    1    1    2    0    0 -0.60869278009E+01 -0.88101950802E+01 -0.15278255782E+02  0.18657312974E+02  0.51100000000E-03 0.  1.
<mgrwt>
<rscale>  0 0.21522023E+02</rscale>
<asrwt>0</asrwt>
<pdfrwt beam="1">  1        3 0.47313466E-03 0.21522023E+02</pdfrwt>
<pdfrwt beam="2">  1       -3 0.57928824E-02 0.21522023E+02</pdfrwt>
<totfact> 0.14221069E+06</totfact>
</mgrwt>
</event>
<event>
 4    1  0.1754914E-001  0.3198162E+02  0.7818608E-02  0.1577164E+00
          3   -1    0    0  501    0  0.00000000000E+00  0.00000000000E+00  0.80505966810E+01  0.80511338282E+01  0.93000000000E-01 0.  1.
         -3   -1    0    0    0  501 -0.00000000000E+00 -0.00000000000E+00 -0.31760706985E+02  0.31760843143E+02  0.93000000000E-01 0. -1.
        -11    1    1    2    0    0 -0.12139473779E+02  0.16760959962E+01  0.93289875517E+00  0.12290094457E+02  0.51100000000E-03 0.  1.
         11    1    1    2    0    0  0.12139473779E+02 -0.16760959962E+01 -0.24643009059E+02  0.27521882515E+02  0.51100000000E-03 0. -1.
<mgrwt>
<rscale>  0 0.31981623E+02</rscale>
<asrwt>0</asrwt>
<pdfrwt beam="1">  1        3 0.12386051E-02 0.31981623E+02</pdfrwt>
<pdfrwt beam="2">  1       -3 0.48863143E-02 0.31981623E+02</pdfrwt>
<totfact> 0.57966985E+05</totfact>
</mgrwt>
</event>
<event>
 4    1  0.1754914E-001  0.4960285E+02  0.7818608E-02  0.1447496E+00
         -3   -1    0    0    0  501 -0.00000000000E+00  0.00000000000E+00  0.44696200336E+02  0.44696297089E+02  0.93000000000E-01 0.  1.
          3   -1    0    0  501    0  0.00000000000E+00 -0.00000000000E+00 -0.13761765245E+02  0.13762079482E+02  0.93000000000E-01 0. -1.
        -11    1    1    2    0    0  0.13322808010E+02 -0.88654619484E+01 -0.68632412396E+01  0.17412573313E+02  0.51100000000E-03 0. -1.
         11    1    1    2    0    0 -0.13322808010E+02  0.88654619484E+01  0.37797676330E+02  0.41045803257E+02  0.51100000000E-03 0.  1.
<mgrwt>
<rscale>  0 0.49602848E+02</rscale>
<asrwt>0</asrwt>
<pdfrwt beam="2">  1        3 0.21172263E-02 0.49602848E+02</pdfrwt>
<pdfrwt beam="1">  1       -3 0.68763700E-02 0.49602848E+02</pdfrwt>
<totfact> 0.18860946E+05</totfact>
</mgrwt>
</event>
<event>
 4    1  0.1754914E-001  0.4238800E+02  0.7818608E-02  0.1491339E+00
          3   -1    0    0  501    0  0.00000000000E+00  0.00000000000E+00  0.13038604270E+03  0.13038607587E+03  0.93000000000E-01 0. -1.
         -3   -1    0    0    0  501 -0.00000000000E+00 -0.00000000000E+00 -0.34443826574E+01  0.34456379512E+01  0.93000000000E-01 0.  1.
        -11    1    1    2    0    0 -0.18302013451E+02 -0.86098646705E+01  0.43479304995E+02  0.47953554916E+02  0.51100000000E-03 0.  1.
         11    1    1    2    0    0  0.18302013451E+02  0.86098646705E+01  0.83462355051E+02  0.85878158905E+02  0.51100000000E-03 0. -1.
<mgrwt>
<rscale>  0 0.42388000E+02</rscale>
<asrwt>0</asrwt>
<pdfrwt beam="1">  1        3 0.20059487E-01 0.42388000E+02</pdfrwt>
<pdfrwt beam="2">  1       -3 0.53000422E-03 0.42388000E+02</pdfrwt>
<totfact> 0.23301151E+05</totfact>
</mgrwt>
</event>
<event>
 4    1  0.1754914E-001  0.3309675E+02  0.7818608E-02  0.1566182E+00
          3   -1    0    0  501    0  0.00000000000E+00  0.00000000000E+00  0.59873503603E+02  0.59873575830E+02  0.93000000000E-01 0. -1.
         -3   -1    0    0    0  501 -0.00000000000E+00 -0.00000000000E+00 -0.45732410162E+01  0.45741865279E+01  0.93000000000E-01 0.  1.
        -11    1    1    2    0    0 -0.85199547450E+01  0.89865178277E+01  0.49025760794E+02  0.50565525343E+02  0.51100000000E-03 0. -1.
         11    1    1    2    0    0  0.85199547450E+01 -0.89865178277E+01  0.62745017922E+01  0.13882237014E+02  0.51100000000E-03 0.  1.
<mgrwt>
<rscale>  0 0.33096753E+02</rscale>
<asrwt>0</asrwt>
<pdfrwt beam="1">  1        3 0.92113865E-02 0.33096753E+02</pdfrwt>
<pdfrwt beam="2">  1       -3 0.70365383E-03 0.33096753E+02</pdfrwt>
<totfact> 0.49849190E+05</totfact>
</mgrwt>
</event>
<event>
 4    1  0.1754914E-001  0.4655857E+02  0.7818608E-02  0.1464840E+00
         -3   -1    0    0    0  501 -0.00000000000E+00  0.00000000000E+00  0.94280422565E+01  0.94285009301E+01  0.93000000000E-01 0. -1.
          3   -1    0    0  501    0  0.00000000000E+00 -0.00000000000E+00 -0.57478247677E+02  0.57478322914E+02  0.93000000000E-01 0.  1.
        -11    1    1    2    0    0  0.18762832964E+02  0.59147634102E+01 -0.61399736361E+01  0.20608920484E+02  0.51100000000E-03 0. -1.
         11    1    1    2    0    0 -0.18762832964E+02 -0.59147634102E+01 -0.41910231784E+02  0.46297903359E+02  0.51100000000E-03 0.  1.
<mgrwt>
<rscale>  0 0.46558574E+02</rscale>
<asrwt>0</asrwt>
<pdfrwt beam="2">  1        3 0.88428482E-02 0.46558574E+02</pdfrwt>
<pdfrwt beam="1">  1       -3 0.14505091E-02 0.46558574E+02</pdfrwt>
<totfact> 0.21624540E+05</totfact>
</mgrwt>
</event>
<event>
 4    1  0.1754914E-001  0.3026210E+02  0.7818608E-02  0.1595209E+00
          3   -1    0    0  501    0  0.00000000000E+00  0.00000000000E+00  0.83879786192E+02  0.83879837748E+02  0.93000000000E-01 0.  1.
         -3   -1    0    0    0  501 -0.00000000000E+00 -0.00000000000E+00 -0.27286403739E+01  0.27302247692E+01  0.93000000000E-01 0. -1.
        -11    1    1    2    0    0 -0.42506555625E+01  0.10851913709E+02  0.68192966785E+02  0.69181737641E+02  0.51100000000E-03 0.  1.
         11    1    1    2    0    0  0.42506555625E+01 -0.10851913709E+02  0.12958179033E+02  0.17428324876E+02  0.51100000000E-03 0. -1.
<mgrwt>
<rscale>  0 0.30262096E+02</rscale>
<asrwt>0</asrwt>
<pdfrwt beam="1">  1        3 0.12904707E-01 0.30262096E+02</pdfrwt>
<pdfrwt beam="2">  1       -3 0.41991670E-03 0.30262096E+02</pdfrwt>
<totfact> 0.58045968E+05</totfact>
</mgrwt>
</event>
<event>
 4    1  0.1754914E-001  0.4578000E+02  0.7818608E-02  0.1469530E+00
         -3   -1    0    0    0  501 -0.00000000000E+00  0.00000000000E+00  0.18417090528E+02  0.18417325336E+02  0.93000000000E-01 0.  1.
          3   -1    0    0  501    0  0.00000000000E+00 -0.00000000000E+00 -0.28448741532E+02  0.28448893542E+02  0.93000000000E-01 0. -1.
        -11    1    1    2    0    0 -0.28066276938E+01  0.18818284780E+02 -0.18043614790E+02  0.26221690182E+02  0.51100000000E-03 0. -1.
         11    1    1    2    0    0  0.28066276938E+01 -0.18818284780E+02  0.80119637868E+01  0.20644528695E+02  0.51100000000E-03 0.  1.
<mgrwt>
<rscale>  0 0.45780001E+02</rscale>
<asrwt>0</asrwt>
<pdfrwt beam="2">  1        3 0.43767592E-02 0.45780001E+02</pdfrwt>
<pdfrwt beam="1">  1       -3 0.28334283E-02 0.45780001E+02</pdfrwt>
<totfact> 0.23788253E+05</totfact>
</mgrwt>
</event>
<event>
 4    1  0.1754914E-001  0.2183512E+02  0.7818608E-02  0.1711119E+00
          3   -1    0    0  501    0  0.00000000000E+00  0.00000000000E+00  0.43095980667E+01  0.43106014077E+01  0.93000000000E-01 0. -1.
         -3   -1    0    0    0  501 -0.00000000000E+00 -0.00000000000E+00 -0.27653290609E+02  0.27653446991E+02  0.93000000000E-01 0.  1.
        -11    1    1    2    0    0  0.59439742937E+01  0.89409971815E+01 -0.87731959265E+01  0.13865108295E+02  0.51100000000E-03 0. -1.
         11    1    1    2    0    0 -0.59439742937E+01 -0.89409971815E+01 -0.14570496616E+02  0.18098940104E+02  0.51100000000E-03 0.  1.
<mgrwt>
<rscale>  0 0.21835119E+02</rscale>
<asrwt>0</asrwt>
<pdfrwt beam="1">  1        3 0.66310431E-03 0.21835119E+02</pdfrwt>
<pdfrwt beam="2">  1       -3 0.42544415E-02 0.21835119E+02</pdfrwt>
<totfact> 0.14171147E+06</totfact>
</mgrwt>
</event>
<event>
 4    1  0.1754914E-001  0.4177785E+02  0.7818608E-02  0.1495522E+00
         -3   -1    0    0    0  501 -0.00000000000E+00  0.00000000000E+00  0.12582283556E+03  0.12582286993E+03  0.93000000000E-01 0.  1.
          3   -1    0    0  501    0  0.00000000000E+00 -0.00000000000E+00 -0.34672915596E+01  0.34685385624E+01  0.93000000000E-01 0. -1.
        -11    1    1    2    0    0  0.15502733330E+02  0.13339301993E+02  0.48020387895E+02  0.52194150747E+02  0.51100000000E-03 0. -1.
         11    1    1    2    0    0 -0.15502733330E+02 -0.13339301993E+02  0.74335156105E+02  0.77097257745E+02  0.51100000000E-03 0.  1.
<mgrwt>
<rscale>  0 0.41777855E+02</rscale>
<asrwt>0</asrwt>
<pdfrwt beam="2">  1        3 0.53352803E-03 0.41777855E+02</pdfrwt>
<pdfrwt beam="1">  1       -3 0.19357458E-01 0.41777855E+02</pdfrwt>
<totfact> 0.24382163E+05</totfact>
</mgrwt>
</event>
<event>
 4    1  0.1754914E-001  0.2959362E+02  0.7818608E-02  0.1602625E+00
         -3   -1    0    0    0  501 -0.00000000000E+00  0.00000000000E+00  0.59129215160E+01  0.59136528351E+01  0.93000000000E-01 0.  1.
          3   -1    0    0  501    0  0.00000000000E+00 -0.00000000000E+00 -0.37025238962E+02  0.37025355760E+02  0.93000000000E-01 0. -1.
        -11    1    1    2    0    0  0.62019507981E+00  0.13460582563E+02 -0.24426422231E+02  0.27896631126E+02  0.51100000000E-03 0. -1.
         11    1    1    2    0    0 -0.62019507981E+00 -0.13460582563E+02 -0.66858952142E+01  0.15042377470E+02  0.51100000000E-03 0.  1.
<mgrwt>
<rscale>  0 0.29593617E+02</rscale>
<asrwt>0</asrwt>
<pdfrwt beam="2">  1        3 0.56962557E-02 0.29593617E+02</pdfrwt>
<pdfrwt beam="1">  1       -3 0.90974549E-03 0.29593617E+02</pdfrwt>
<totfact> 0.68869494E+05</totfact>
</mgrwt>
</event>
<event>
 4    1  0.1754914E-001  0.2625818E+02  0.7818608E-02  0.1643561E+00
          3   -1    0    0  501    0  0.00000000000E+00  0.00000000000E+00  0.25513302032E+01  0.25530246387E+01  0.93000000000E-01 0. -1.
         -3   -1    0    0    0  501 -0.00000000000E+00 -0.00000000000E+00 -0.67537835952E+02  0.67537899983E+02  0.93000000000E-01 0.  1.
        -11    1    1    2    0    0  0.11634973777E+02  0.44104807213E+01 -0.43675032850E+02  0.45412921615E+02  0.51100000000E-03 0.  1.
         11    1    1    2    0    0 -0.11634973777E+02 -0.44104807213E+01 -0.21311472900E+02  0.24678003006E+02  0.51100000000E-03 0. -1.
<mgrwt>
<rscale>  0 0.26258176E+02</rscale>
<asrwt>0</asrwt>
<pdfrwt beam="1">  1        3 0.39264766E-03 0.26258176E+02</pdfrwt>
<pdfrwt beam="2">  1       -3 0.10390570E-01 0.26258176E+02</pdfrwt>
<totfact> 0.83907665E+05</totfact>
</mgrwt>
</event>
<event>
 4    1  0.1754914E-001  0.2614672E+02  0.7818608E-02  0.1645057E+00
          3   -1    0    0  501    0  0.00000000000E+00  0.00000000000E+00  0.32740280165E+02  0.32740412250E+02  0.93000000000E-01 0.  1.
         -3   -1    0    0    0  501 -0.00000000000E+00 -0.00000000000E+00 -0.52197024886E+01  0.52205309183E+01  0.93000000000E-01 0. -1.
        -11    1    1    2    0    0 -0.92924999658E+01  0.66602717514E+01  0.22965820388E+02  0.25654213723E+02  0.51100000000E-03 0.  1.
         11    1    1    2    0    0  0.92924999658E+01 -0.66602717514E+01  0.45547572892E+01  0.12306729445E+02  0.51100000000E-03 0. -1.
<mgrwt>
<rscale>  0 0.26146721E+02</rscale>
<asrwt>0</asrwt>
<pdfrwt beam="1">  1        3 0.50370402E-02 0.26146721E+02</pdfrwt>
<pdfrwt beam="2">  1       -3 0.80310502E-03 0.26146721E+02</pdfrwt>
<totfact> 0.92926546E+05</totfact>
</mgrwt>
</event>
<event>
 4    1  0.1754914E-001  0.2489515E+02  0.7818608E-02  0.1662512E+00
         -3   -1    0    0    0  501 -0.00000000000E+00  0.00000000000E+00  0.19666050976E+02  0.19666270872E+02  0.93000000000E-01 0. -1.
          3   -1    0    0  501    0  0.00000000000E+00 -0.00000000000E+00 -0.78781207818E+01  0.78786696880E+01  0.93000000000E-01 0.  1.
        -11    1    1    2    0    0 -0.12310941964E+02  0.99665404736E+00  0.41836317824E+01  0.13040528612E+02  0.51100000000E-03 0. -1.
         11    1    1    2    0    0  0.12310941964E+02 -0.99665404736E+00  0.76042984118E+01  0.14504411947E+02  0.51100000000E-03 0.  1.
<mgrwt>
<rscale>  0 0.24895149E+02</rscale>
<asrwt>0</asrwt>
<pdfrwt beam="2">  1        3 0.12120777E-02 0.24895149E+02</pdfrwt>
<pdfrwt beam="1">  1       -3 0.30256054E-02 0.24895149E+02</pdfrwt>
<totfact> 0.10741956E+06</totfact>
</mgrwt>
</event>
<event>
 4    1  0.1754914E-001  0.2158239E+02  0.7818608E-02  0.1715576E+00
         -3   -1    0    0    0  501 -0.00000000000E+00  0.00000000000E+00  0.68729268781E+01  0.68735560572E+01  0.93000000000E-01 0. -1.
          3   -1    0    0  501    0  0.00000000000E+00 -0.00000000000E+00 -0.16941746233E+02  0.16942001488E+02  0.93000000000E-01 0.  1.
        -11    1    1    2    0    0  0.25038343005E+01 -0.10002482513E+02 -0.85466875142E+01  0.13392711090E+02  0.51100000000E-03 0.  1.
         11    1    1    2    0    0 -0.25038343005E+01  0.10002482513E+02 -0.15221318410E+01  0.10422846455E+02  0.51100000000E-03 0. -1.
<mgrwt>
<rscale>  0 0.21582392E+02</rscale>
<asrwt>0</asrwt>
<pdfrwt beam="2">  1        3 0.26064905E-02 0.21582392E+02</pdfrwt>
<pdfrwt beam="1">  1       -3 0.10574414E-02 0.21582392E+02</pdfrwt>
<totfact> 0.14945807E+06</totfact>
</mgrwt>
</event>
<event>
 4    1  0.1754914E-001  0.2358773E+02  0.7818608E-02  0.1682157E+00
         -3   -1    0    0    0  501 -0.00000000000E+00  0.00000000000E+00  0.67082385507E+01  0.67088831748E+01  0.93000000000E-01 0. -1.
          3   -1    0    0  501    0  0.00000000000E+00 -0.00000000000E+00 -0.20733237325E+02  0.20733445902E+02  0.93000000000E-01 0.  1.
        -11    1    1    2    0    0 -0.11540058787E+01  0.11566227672E+02 -0.93352132021E+01  0.14908237921E+02  0.51100000000E-03 0.  1.
         11    1    1    2    0    0  0.11540058787E+01 -0.11566227672E+02 -0.46897855723E+01  0.12534091156E+02  0.51100000000E-03 0. -1.
<mgrwt>
<rscale>  0 0.23587726E+02</rscale>
<asrwt>0</asrwt>
<pdfrwt beam="2">  1        3 0.31897944E-02 0.23587726E+02</pdfrwt>
<pdfrwt beam="1">  1       -3 0.10321023E-02 0.23587726E+02</pdfrwt>
<totfact> 0.12126880E+06</totfact>
</mgrwt>
</event>
<event>
 4    1  0.1754914E-001  0.3253795E+02  0.7818608E-02  0.1571618E+00
         -3   -1    0    0    0  501 -0.00000000000E+00  0.00000000000E+00  0.10206523935E+02  0.10206947626E+02  0.93000000000E-01 0. -1.
          3   -1    0    0  501    0  0.00000000000E+00 -0.00000000000E+00 -0.25931339989E+02  0.25931506755E+02  0.93000000000E-01 0.  1.
        -11    1    1    2    0    0 -0.61466542860E+00  0.12559768922E+02  0.36023289501E+01  0.13080610960E+02  0.51100000000E-03 0. -1.
         11    1    1    2    0    0  0.61466542860E+00 -0.12559768922E+02 -0.19327145004E+02  0.23057843421E+02  0.51100000000E-03 0.  1.
<mgrwt>
<rscale>  0 0.32537948E+02</rscale>
<asrwt>0</asrwt>
<pdfrwt beam="2">  1        3 0.39894823E-02 0.32537948E+02</pdfrwt>
<pdfrwt beam="1">  1       -3 0.15702799E-02 0.32537948E+02</pdfrwt>
<totfact> 0.56275134E+05</totfact>
</mgrwt>
</event>
<event>
 4    1  0.1754914E-001  0.2831364E+02  0.7818608E-02  0.1617514E+00
         -3   -1    0    0    0  501 -0.00000000000E+00  0.00000000000E+00  0.57835377368E+02  0.57835452141E+02  0.93000000000E-01 0.  1.
          3   -1    0    0  501    0  0.00000000000E+00 -0.00000000000E+00 -0.34645763053E+01  0.34658242851E+01  0.93000000000E-01 0. -1.
        -11    1    1    2    0    0  0.13532221741E+02 -0.26543332794E+01  0.34116734392E+02  0.36798343390E+02  0.51100000000E-03 0.  1.
         11    1    1    2    0    0 -0.13532221741E+02  0.26543332794E+01  0.20254066671E+02  0.24502933036E+02  0.51100000000E-03 0. -1.
<mgrwt>
<rscale>  0 0.28313645E+02</rscale>
<asrwt>0</asrwt>
<pdfrwt beam="2">  1        3 0.53311353E-03 0.28313645E+02</pdfrwt>
<pdfrwt beam="1">  1       -3 0.88978514E-02 0.28313645E+02</pdfrwt>
<totfact> 0.72360304E+05</totfact>
</mgrwt>
</event>
<event>
 4    1  0.1754914E-001  0.2674929E+02  0.7818608E-02  0.1637077E+00
         -3   -1    0    0    0  501 -0.00000000000E+00  0.00000000000E+00  0.20554091818E+02  0.20554302213E+02  0.93000000000E-01 0.  1.
          3   -1    0    0  501    0  0.00000000000E+00 -0.00000000000E+00 -0.87024394995E+01  0.87029364149E+01  0.93000000000E-01 0. -1.
        -11    1    1    2    0    0 -0.49728538794E+01  0.11386562636E+02  0.51222240714E+00  0.12435652634E+02  0.51100000000E-03 0. -1.
         11    1    1    2    0    0  0.49728538794E+01 -0.11386562636E+02  0.11339429912E+02  0.16821585994E+02  0.51100000000E-03 0.  1.
<mgrwt>
<rscale>  0 0.26749287E+02</rscale>
<asrwt>0</asrwt>
<pdfrwt beam="2">  1        3 0.13388913E-02 0.26749287E+02</pdfrwt>
<pdfrwt beam="1">  1       -3 0.31622223E-02 0.26749287E+02</pdfrwt>
<totfact> 0.90720386E+05</totfact>
</mgrwt>
</event>
<event>
 4    1  0.1754914E-001  0.2538006E+02  0.7818608E-02  0.1655602E+00
          3   -1    0    0  501    0  0.00000000000E+00  0.00000000000E+00  0.16199557580E+02  0.16199824530E+02  0.93000000000E-01 0.  1.
         -3   -1    0    0    0  501 -0.00000000000E+00 -0.00000000000E+00 -0.99402559939E+01  0.99406910335E+01  0.93000000000E-01 0. -1.
        -11    1    1    2    0    0  0.92819580041E+01 -0.84975770677E+01  0.14456183878E+01  0.12667019112E+02  0.51100000000E-03 0.  1.
         11    1    1    2    0    0 -0.92819580041E+01  0.84975770677E+01  0.48136831984E+01  0.13473496451E+02  0.51100000000E-03 0. -1.
<mgrwt>
<rscale>  0 0.25380065E+02</rscale>
<asrwt>0</asrwt>
<pdfrwt beam="1">  1        3 0.24922936E-02 0.25380065E+02</pdfrwt>
<pdfrwt beam="2">  1       -3 0.15293241E-02 0.25380065E+02</pdfrwt>
<totfact> 0.10331393E+06</totfact>
</mgrwt>
</event>
<event>
 4    1  0.1754914E-001  0.2329666E+02  0.7818608E-02  0.1686746E+00
         -3   -1    0    0    0  501 -0.00000000000E+00  0.00000000000E+00  0.45649670195E+02  0.45649764927E+02  0.93000000000E-01 0. -1.
          3   -1    0    0  501    0  0.00000000000E+00 -0.00000000000E+00 -0.29714555103E+01  0.29729105015E+01  0.93000000000E-01 0.  1.
        -11    1    1    2    0    0  0.93018045902E+01 -0.68892016258E+01  0.24059541022E+02  0.26699179428E+02  0.51100000000E-03 0.  1.
         11    1    1    2    0    0 -0.93018045902E+01  0.68892016258E+01  0.18618673663E+02  0.21923496001E+02  0.51100000000E-03 0. -1.
<mgrwt>
<rscale>  0 0.23296664E+02</rscale>
<asrwt>0</asrwt>
<pdfrwt beam="2">  1        3 0.45726619E-03 0.23296664E+02</pdfrwt>
<pdfrwt beam="1">  1       -3 0.70231456E-02 0.23296664E+02</pdfrwt>
<totfact> 0.11659825E+06</totfact>
</mgrwt>
</event>
<event>
 4    1  0.1754914E-001  0.2860516E+02  0.7818608E-02  0.1614039E+00
         -3   -1    0    0    0  501 -0.00000000000E+00  0.00000000000E+00  0.36374263883E+02  0.36374382772E+02  0.93000000000E-01 0.  1.
          3   -1    0    0  501    0  0.00000000000E+00 -0.00000000000E+00 -0.56233483690E+01  0.56241173422E+01  0.93000000000E-01 0. -1.
        -11    1    1    2    0    0  0.11186490647E+02  0.87862920140E+01  0.13184273707E+02  0.19394885249E+02  0.51100000000E-03 0. -1.
         11    1    1    2    0    0 -0.11186490647E+02 -0.87862920140E+01  0.17566641807E+02  0.22603614865E+02  0.51100000000E-03 0.  1.
<mgrwt>
<rscale>  0 0.28605160E+02</rscale>
<asrwt>0</asrwt>
<pdfrwt beam="2">  1        3 0.86519881E-03 0.28605160E+02</pdfrwt>
<pdfrwt beam="1">  1       -3 0.55961089E-02 0.28605160E+02</pdfrwt>
<totfact> 0.74718100E+05</totfact>
</mgrwt>
</event>
<event>
 4    1  0.1754914E-001  0.2193553E+02  0.7818608E-02  0.1709369E+00
         -3   -1    0    0    0  501 -0.00000000000E+00  0.00000000000E+00  0.56121898828E+01  0.56129603848E+01  0.93000000000E-01 0.  1.
          3   -1    0    0  501    0  0.00000000000E+00 -0.00000000000E+00 -0.21431686173E+02  0.21431887953E+02  0.93000000000E-01 0. -1.
        -11    1    1    2    0    0  0.16886585919E+01  0.10827509231E+02 -0.84684077615E+01  0.13849204102E+02  0.51100000000E-03 0. -1.
         11    1    1    2    0    0 -0.16886585919E+01 -0.10827509231E+02 -0.73510885291E+01  0.13195644236E+02  0.51100000000E-03 0.  1.
<mgrwt>
<rscale>  0 0.21935527E+02</rscale>
<asrwt>0</asrwt>
<pdfrwt beam="2">  1        3 0.32972572E-02 0.21935527E+02</pdfrwt>
<pdfrwt beam="1">  1       -3 0.86348863E-03 0.21935527E+02</pdfrwt>
<totfact> 0.14261436E+06</totfact>
</mgrwt>
</event>
<event>
 4    1  0.1754914E-001  0.3099510E+02  0.7818608E-02  0.1587343E+00
         -3   -1    0    0    0  501 -0.00000000000E+00  0.00000000000E+00  0.89490052735E+02  0.89490101059E+02  0.93000000000E-01 0.  1.
          3   -1    0    0  501    0  0.00000000000E+00 -0.00000000000E+00 -0.26829529874E+01  0.26845643469E+01  0.93000000000E-01 0. -1.
        -11    1    1    2    0    0  0.15404600949E+02  0.53236635197E+00  0.48188531535E+02  0.50593672689E+02  0.51100000000E-03 0.  1.
         11    1    1    2    0    0 -0.15404600949E+02 -0.53236635197E+00  0.38618568212E+02  0.41580992717E+02  0.51100000000E-03 0. -1.
<mgrwt>
<rscale>  0 0.30995102E+02</rscale>
<asrwt>0</asrwt>
<pdfrwt beam="2">  1        3 0.41288958E-03 0.30995102E+02</pdfrwt>
<pdfrwt beam="1">  1       -3 0.13767831E-01 0.30995102E+02</pdfrwt>
<totfact> 0.54153710E+05</totfact>
</mgrwt>
</event>
<event>
 4    1  0.1754914E-001  0.3436507E+02  0.7818608E-02  0.1554312E+00
          3   -1    0    0  501    0  0.00000000000E+00  0.00000000000E+00  0.20301188877E+02  0.20301401893E+02  0.93000000000E-01 0.  1.
         -3   -1    0    0    0  501 -0.00000000000E+00 -0.00000000000E+00 -0.14542530261E+02  0.14542827627E+02  0.93000000000E-01 0. -1.
        -11    1    1    2    0    0 -0.14563152949E+02  0.16147333449E+01  0.11979250630E+02  0.18926046431E+02  0.51100000000E-03 0.  1.
         11    1    1    2    0    0  0.14563152949E+02 -0.16147333449E+01 -0.62205920136E+01  0.15918183089E+02  0.51100000000E-03 0. -1.
<mgrwt>
<rscale>  0 0.34365072E+02</rscale>
<asrwt>0</asrwt>
<pdfrwt beam="1">  1        3 0.31232991E-02 0.34365072E+02</pdfrwt>
<pdfrwt beam="2">  1       -3 0.22373516E-02 0.34365072E+02</pdfrwt>
<totfact> 0.49625004E+05</totfact>
</mgrwt>
</event>
<event>
 4    1  0.1754914E-001  0.3360735E+02  0.7818608E-02  0.1561327E+00
         -3   -1    0    0    0  501 -0.00000000000E+00  0.00000000000E+00  0.90534114473E+01  0.90538891000E+01  0.93000000000E-01 0.  1.
          3   -1    0    0  501    0  0.00000000000E+00 -0.00000000000E+00 -0.31187250692E+02  0.31187389354E+02  0.93000000000E-01 0. -1.
        -11    1    1    2    0    0 -0.32650655719E+01 -0.99840215625E+01 -0.26771619855E+02  0.28758667732E+02  0.51100000000E-03 0. -1.
         11    1    1    2    0    0  0.32650655719E+01  0.99840215625E+01  0.46377806108E+01  0.11482610722E+02  0.51100000000E-03 0.  1.
<mgrwt>
<rscale>  0 0.33607345E+02</rscale>
<asrwt>0</asrwt>
<pdfrwt beam="2">  1        3 0.47980859E-02 0.33607345E+02</pdfrwt>
<pdfrwt beam="1">  1       -3 0.13928800E-02 0.33607345E+02</pdfrwt>
<totfact> 0.51481209E+05</totfact>
</mgrwt>
</event>
<event>
 4    1  0.1754914E-001  0.3556504E+02  0.7818608E-02  0.1543639E+00
         -3   -1    0    0    0  501 -0.00000000000E+00  0.00000000000E+00  0.63143058824E+02  0.63143127311E+02  0.93000000000E-01 0. -1.
          3   -1    0    0  501    0  0.00000000000E+00 -0.00000000000E+00 -0.50074587091E+01  0.50083222463E+01  0.93000000000E-01 0.  1.
        -11    1    1    2    0    0 -0.47577176476E+01  0.15388865865E+02  0.43505297515E+02  0.46391421427E+02  0.51100000000E-03 0. -1.
         11    1    1    2    0    0  0.47577176476E+01 -0.15388865865E+02  0.14630302600E+02  0.21760028131E+02  0.51100000000E-03 0.  1.
<mgrwt>
<rscale>  0 0.35565040E+02</rscale>
<asrwt>0</asrwt>
<pdfrwt beam="2">  1        3 0.77044997E-03 0.35565040E+02</pdfrwt>
<pdfrwt beam="1">  1       -3 0.97143883E-02 0.35565040E+02</pdfrwt>
<totfact> 0.41620294E+05</totfact>
</mgrwt>
</event>
<event>
 4    1  0.1754914E-001  0.2569001E+02  0.7818608E-02  0.1651284E+00
         -3   -1    0    0    0  501 -0.00000000000E+00  0.00000000000E+00  0.34848307003E+01  0.34860714293E+01  0.93000000000E-01 0. -1.
          3   -1    0    0  501    0  0.00000000000E+00 -0.00000000000E+00 -0.47336675837E+02  0.47336767193E+02  0.93000000000E-01 0.  1.
        -11    1    1    2    0    0 -0.73652283157E+01 -0.70724992120E+01 -0.65093902864E+01  0.12109458923E+02  0.51100000000E-03 0. -1.
         11    1    1    2    0    0  0.73652283157E+01  0.70724992120E+01 -0.37342454850E+02  0.38713379699E+02  0.51100000000E-03 0.  1.
<mgrwt>
<rscale>  0 0.25690010E+02</rscale>
<asrwt>0</asrwt>
<pdfrwt beam="2">  1        3 0.72826675E-02 0.25690010E+02</pdfrwt>
<pdfrwt beam="1">  1       -3 0.53623030E-03 0.25690010E+02</pdfrwt>
<totfact> 0.93036179E+05</totfact>
</mgrwt>
</event>
<event>
 4    1  0.1754914E-001  0.5306834E+02  0.7818608E-02  0.1429461E+00
         -3   -1    0    0    0  501 -0.00000000000E+00  0.00000000000E+00  0.28074195836E+02  0.28074349874E+02  0.93000000000E-01 0.  1.
          3   -1    0    0  501    0  0.00000000000E+00 -0.00000000000E+00 -0.25078318348E+02  0.25078490787E+02  0.93000000000E-01 0. -1.
        -11    1    1    2    0    0 -0.25876684651E+02  0.66206537885E+00 -0.43441141402E+01  0.26247142073E+02  0.51100000000E-03 0. -1.
         11    1    1    2    0    0  0.25876684651E+02 -0.66206537885E+00  0.73399916291E+01  0.26905698587E+02  0.51100000000E-03 0.  1.
<mgrwt>
<rscale>  0 0.53068345E+02</rscale>
<asrwt>0</asrwt>
<pdfrwt beam="2">  1        3 0.38582280E-02 0.53068345E+02</pdfrwt>
<pdfrwt beam="1">  1       -3 0.43191321E-02 0.53068345E+02</pdfrwt>
<totfact> 0.16118608E+05</totfact>
</mgrwt>
</event>
<event>
 4    1  0.1754914E-001  0.2258605E+02  0.7818608E-02  0.1698309E+00
         -3   -1    0    0    0  501 -0.00000000000E+00  0.00000000000E+00  0.23898964421E+01  0.23917052503E+01  0.93000000000E-01 0. -1.
          3   -1    0    0  501    0  0.00000000000E+00 -0.00000000000E+00 -0.53341114080E+02  0.53341195152E+02  0.93000000000E-01 0.  1.
        -11    1    1    2    0    0 -0.11066202364E+02  0.46506668257E+00 -0.30912849072E+02  0.32837194761E+02  0.51100000000E-03 0.  1.
         11    1    1    2    0    0  0.11066202364E+02 -0.46506668257E+00 -0.20038368566E+02  0.22895705642E+02  0.51100000000E-03 0. -1.
<mgrwt>
<rscale>  0 0.22586049E+02</rscale>
<asrwt>0</asrwt>
<pdfrwt beam="2">  1        3 0.82064697E-02 0.22586049E+02</pdfrwt>
<pdfrwt beam="1">  1       -3 0.36782179E-03 0.22586049E+02</pdfrwt>
<totfact> 0.12227322E+06</totfact>
</mgrwt>
</event>
<event>
 4    1  0.1754914E-001  0.4843494E+02  0.7818608E-02  0.1453971E+00
         -3   -1    0    0    0  501 -0.00000000000E+00  0.00000000000E+00  0.39372670586E+01  0.39383652562E+01  0.93000000000E-01 0.  1.
          3   -1    0    0  501    0  0.00000000000E+00 -0.00000000000E+00 -0.14893570976E+03  0.14893573879E+03  0.93000000000E-01 0. -1.
        -11    1    1    2    0    0 -0.16298467274E+02 -0.17906928751E+02 -0.71131810152E+02  0.75140086163E+02  0.51100000000E-03 0. -1.
         11    1    1    2    0    0  0.16298467274E+02  0.17906928751E+02 -0.73866632548E+02  0.77734017888E+02  0.51100000000E-03 0.  1.
<mgrwt>
<rscale>  0 0.48434939E+02</rscale>
<asrwt>0</asrwt>
<pdfrwt beam="2">  1        3 0.22913269E-01 0.48434939E+02</pdfrwt>
<pdfrwt beam="1">  1       -3 0.60582022E-03 0.48434939E+02</pdfrwt>
<totfact> 0.16107655E+05</totfact>
</mgrwt>
</event>
<event>
 4    1  0.1754914E-001  0.2489632E+02  0.7818608E-02  0.1662496E+00
          3   -1    0    0  501    0  0.00000000000E+00  0.00000000000E+00  0.32797437552E+02  0.32797569407E+02  0.93000000000E-01 0. -1.
         -3   -1    0    0    0  501 -0.00000000000E+00 -0.00000000000E+00 -0.47240609763E+01  0.47249763077E+01  0.93000000000E-01 0.  1.
        -11    1    1    2    0    0  0.55963621691E+01 -0.89382594811E+01  0.24004990988E+02  0.26219293367E+02  0.51100000000E-03 0. -1.
         11    1    1    2    0    0 -0.55963621691E+01  0.89382594811E+01  0.40683855883E+01  0.11303252348E+02  0.51100000000E-03 0.  1.
<mgrwt>
<rscale>  0 0.24896324E+02</rscale>
<asrwt>0</asrwt>
<pdfrwt beam="1">  1        3 0.50458401E-02 0.24896324E+02</pdfrwt>
<pdfrwt beam="2">  1       -3 0.72685918E-03 0.24896324E+02</pdfrwt>
<totfact> 0.10397668E+06</totfact>
</mgrwt>
</event>
<event>
 4    1  0.1754914E-001  0.2220280E+02  0.7818608E-02  0.1704768E+00
          3   -1    0    0  501    0  0.00000000000E+00  0.00000000000E+00  0.14186489859E+01  0.14216940406E+01  0.93000000000E-01 0.  1.
         -3   -1    0    0    0  501 -0.00000000000E+00 -0.00000000000E+00 -0.86775964000E+02  0.86776013835E+02  0.93000000000E-01 0. -1.
        -11    1    1    2    0    0  0.87413989891E+01 -0.53595665705E+01 -0.59580653273E+02  0.60456523674E+02  0.51100000000E-03 0. -1.
         11    1    1    2    0    0 -0.87413989891E+01  0.53595665705E+01 -0.25776661741E+02  0.27741184201E+02  0.51100000000E-03 0.  1.
<mgrwt>
<rscale>  0 0.22202803E+02</rscale>
<asrwt>0</asrwt>
<pdfrwt beam="1">  1        3 0.21849183E-03 0.22202803E+02</pdfrwt>
<pdfrwt beam="2">  1       -3 0.13350382E-01 0.22202803E+02</pdfrwt>
<totfact> 0.11637003E+06</totfact>
</mgrwt>
</event>
<event>
 4    1  0.1754914E-001  0.3626734E+02  0.7818608E-02  0.1537626E+00
         -3   -1    0    0    0  501 -0.00000000000E+00  0.00000000000E+00  0.91842794343E+01  0.91847502811E+01  0.93000000000E-01 0.  1.
          3   -1    0    0  501    0  0.00000000000E+00 -0.00000000000E+00 -0.35802120813E+02  0.35802241602E+02  0.93000000000E-01 0. -1.
        -11    1    1    2    0    0  0.89256949525E+01  0.14061732469E+02 -0.44132645369E+01  0.17230126365E+02  0.51100000000E-03 0. -1.
         11    1    1    2    0    0 -0.89256949525E+01 -0.14061732469E+02 -0.22204576842E+02  0.27756865518E+02  0.51100000000E-03 0.  1.
<mgrwt>
<rscale>  0 0.36267340E+02</rscale>
<asrwt>0</asrwt>
<pdfrwt beam="2">  1        3 0.55080640E-02 0.36267340E+02</pdfrwt>
<pdfrwt beam="1">  1       -3 0.14130116E-02 0.36267340E+02</pdfrwt>
<totfact> 0.42321586E+05</totfact>
</mgrwt>
</event>
<event>
 4    1  0.1754914E-001  0.5511290E+02  0.7818608E-02  0.1419566E+00
         -3   -1    0    0    0  501 -0.00000000000E+00  0.00000000000E+00  0.94287447569E+01  0.94292033964E+01  0.93000000000E-01 0. -1.
          3   -1    0    0  501    0  0.00000000000E+00 -0.00000000000E+00 -0.80534045053E+02  0.80534098751E+02  0.93000000000E-01 0.  1.
        -11    1    1    2    0    0 -0.91581390698E+01  0.17283194532E+02 -0.38675789496E+01  0.19938367327E+02  0.51100000000E-03 0. -1.
         11    1    1    2    0    0  0.91581390698E+01 -0.17283194532E+02 -0.67237721346E+02  0.70024934820E+02  0.51100000000E-03 0.  1.
<mgrwt>
<rscale>  0 0.55112902E+02</rscale>
<asrwt>0</asrwt>
<pdfrwt beam="2">  1        3 0.12389892E-01 0.55112902E+02</pdfrwt>
<pdfrwt beam="1">  1       -3 0.14506156E-02 0.55112902E+02</pdfrwt>
<totfact> 0.13359887E+05</totfact>
</mgrwt>
</event>
<event>
 4    1  0.1754914E-001  0.5822347E+02  0.7818608E-02  0.1405442E+00
          3   -1    0    0  501    0  0.00000000000E+00  0.00000000000E+00  0.58258369036E+01  0.58265791531E+01  0.93000000000E-01 0.  1.
         -3   -1    0    0    0  501 -0.00000000000E+00 -0.00000000000E+00 -0.14546145473E+03  0.14546148446E+03  0.93000000000E-01 0. -1.
        -11    1    1    2    0    0  0.20902628742E+02 -0.20001108965E+02 -0.61386457000E+02  0.67862075945E+02  0.51100000000E-03 0.  1.
         11    1    1    2    0    0 -0.20902628742E+02  0.20001108965E+02 -0.78249160829E+02  0.83425987671E+02  0.51100000000E-03 0. -1.
<mgrwt>
<rscale>  0 0.58223470E+02</rscale>
<asrwt>0</asrwt>
<pdfrwt beam="1">  1        3 0.89634210E-03 0.58223470E+02</pdfrwt>
<pdfrwt beam="2">  1       -3 0.22378742E-01 0.58223470E+02</pdfrwt>
<totfact> 0.10161274E+05</totfact>
</mgrwt>
</event>
<event>
 4    1  0.1754914E-001  0.2701861E+02  0.7818608E-02  0.1633593E+00
         -3   -1    0    0    0  501 -0.00000000000E+00  0.00000000000E+00  0.58978244191E+01  0.58985576100E+01  0.93000000000E-01 0. -1.
          3   -1    0    0  501    0  0.00000000000E+00 -0.00000000000E+00 -0.30941119005E+02  0.30941258770E+02  0.93000000000E-01 0.  1.
        -11    1    1    2    0    0  0.11230703334E+02 -0.67338481158E+01 -0.79936937073E+01  0.15341856054E+02  0.51100000000E-03 0. -1.
         11    1    1    2    0    0 -0.11230703334E+02  0.67338481158E+01 -0.17049600878E+02  0.21497960326E+02  0.51100000000E-03 0.  1.
<mgrwt>
<rscale>  0 0.27018613E+02</rscale>
<asrwt>0</asrwt>
<pdfrwt beam="2">  1        3 0.47602392E-02 0.27018613E+02</pdfrwt>
<pdfrwt beam="1">  1       -3 0.90742477E-03 0.27018613E+02</pdfrwt>
<totfact> 0.86531858E+05</totfact>
</mgrwt>
</event>
<event>
 4    1  0.1754914E-001  0.2171049E+02  0.7818608E-02  0.1713308E+00
         -3   -1    0    0    0  501 -0.00000000000E+00  0.00000000000E+00  0.94486236035E+01  0.94490812781E+01  0.93000000000E-01 0.  1.
          3   -1    0    0  501    0  0.00000000000E+00 -0.00000000000E+00 -0.12470333297E+02  0.12470680075E+02  0.93000000000E-01 0. -1.
        -11    1    1    2    0    0  0.26661387476E+01  0.10061210677E+02  0.16010701489E+01  0.10530891794E+02  0.51100000000E-03 0.  1.
         11    1    1    2    0    0 -0.26661387476E+01 -0.10061210677E+02 -0.46227798427E+01  0.11388869559E+02  0.51100000000E-03 0. -1.
<mgrwt>
<rscale>  0 0.21710486E+02</rscale>
<asrwt>0</asrwt>
<pdfrwt beam="2">  1        3 0.19185747E-02 0.21710486E+02</pdfrwt>
<pdfrwt beam="1">  1       -3 0.14536963E-02 0.21710486E+02</pdfrwt>
<totfact> 0.14852773E+06</totfact>
</mgrwt>
</event>
<event>
 4    1  0.1754914E-001  0.2565413E+02  0.7818608E-02  0.1651780E+00
         -3   -1    0    0    0  501 -0.00000000000E+00  0.00000000000E+00  0.21777343938E+01  0.21797192686E+01  0.93000000000E-01 0.  1.
          3   -1    0    0  501    0  0.00000000000E+00 -0.00000000000E+00 -0.75516217992E+02  0.75516275258E+02  0.93000000000E-01 0. -1.
        -11    1    1    2    0    0  0.11889551562E+02 -0.78860918745E+00 -0.51051168730E+02  0.52423326581E+02  0.51100000000E-03 0. -1.
         11    1    1    2    0    0 -0.11889551562E+02  0.78860918745E+00 -0.22287314868E+02  0.25272667946E+02  0.51100000000E-03 0.  1.
<mgrwt>
<rscale>  0 0.25654130E+02</rscale>
<asrwt>0</asrwt>
<pdfrwt beam="2">  1        3 0.11618035E-01 0.25654130E+02</pdfrwt>
<pdfrwt beam="1">  1       -3 0.33519321E-03 0.25654130E+02</pdfrwt>
<totfact> 0.86667861E+05</totfact>
</mgrwt>
</event>
<event>
 4    1  0.1754914E-001  0.5075091E+02  0.7818608E-02  0.1441333E+00
          3   -1    0    0  501    0  0.00000000000E+00  0.00000000000E+00  0.19566208674E+02  0.19566429692E+02  0.93000000000E-01 0.  1.
         -3   -1    0    0    0  501 -0.00000000000E+00 -0.00000000000E+00 -0.32909011176E+02  0.32909142584E+02  0.93000000000E-01 0. -1.
        -11    1    1    2    0    0  0.17709669941E+02 -0.93364609612E+01 -0.22793309066E+02  0.30337054094E+02  0.51100000000E-03 0. -1.
         11    1    1    2    0    0 -0.17709669941E+02  0.93364609612E+01  0.94505065640E+01  0.22138518181E+02  0.51100000000E-03 0.  1.
<mgrwt>
<rscale>  0 0.50750914E+02</rscale>
<asrwt>0</asrwt>
<pdfrwt beam="1">  1        3 0.30102131E-02 0.50750914E+02</pdfrwt>
<pdfrwt beam="2">  1       -3 0.50629519E-02 0.50750914E+02</pdfrwt>
<totfact> 0.18086122E+05</totfact>
</mgrwt>
</event>
<event>
 4    1  0.1754914E-001  0.4331645E+02  0.7818608E-02  0.1485134E+00
         -3   -1    0    0    0  501 -0.00000000000E+00  0.00000000000E+00  0.12286613969E+03  0.12286617488E+03  0.93000000000E-01 0.  1.
          3   -1    0    0  501    0  0.00000000000E+00 -0.00000000000E+00 -0.38172008625E+01  0.38183335926E+01  0.93000000000E-01 0. -1.
        -11    1    1    2    0    0 -0.13529469713E+02 -0.97570363051E+01  0.99925897261E+02  0.10130859417E+03  0.51100000000E-03 0.  1.
         11    1    1    2    0    0  0.13529469713E+02  0.97570363051E+01  0.19123041562E+02  0.25375914309E+02  0.51100000000E-03 0. -1.
<mgrwt>
<rscale>  0 0.43316450E+02</rscale>
<asrwt>0</asrwt>
<pdfrwt beam="2">  1        3 0.58735155E-03 0.43316450E+02</pdfrwt>
<pdfrwt beam="1">  1       -3 0.18902572E-01 0.43316450E+02</pdfrwt>
<totfact> 0.22448222E+05</totfact>
</mgrwt>
</event>
<event>
 4    1  0.1754914E-001  0.3080674E+02  0.7818608E-02  0.1589339E+00
          3   -1    0    0  501    0  0.00000000000E+00  0.00000000000E+00  0.64861445854E+01  0.64868112800E+01  0.93000000000E-01 0.  1.
         -3   -1    0    0    0  501 -0.00000000000E+00 -0.00000000000E+00 -0.36577490929E+02  0.36577609157E+02  0.93000000000E-01 0. -1.
        -11    1    1    2    0    0  0.14457365148E+02 -0.13511580989E+00 -0.76184011557E+01  0.16342389658E+02  0.51100000000E-03 0.  1.
         11    1    1    2    0    0 -0.14457365148E+02  0.13511580989E+00 -0.22472945188E+02  0.26722030780E+02  0.51100000000E-03 0. -1.
<mgrwt>
<rscale>  0 0.30806739E+02</rscale>
<asrwt>0</asrwt>
<pdfrwt beam="1">  1        3 0.99792880E-03 0.30806739E+02</pdfrwt>
<pdfrwt beam="2">  1       -3 0.56273666E-02 0.30806739E+02</pdfrwt>
<totfact> 0.62684188E+05</totfact>
</mgrwt>
</event>
<event>
 4    1  0.1754914E-001  0.2384937E+02  0.7818608E-02  0.1678101E+00
          3   -1    0    0  501    0  0.00000000000E+00  0.00000000000E+00  0.95382865655E+02  0.95382910993E+02  0.93000000000E-01 0.  1.
         -3   -1    0    0    0  501 -0.00000000000E+00 -0.00000000000E+00 -0.14893175250E+01  0.14922183788E+01  0.93000000000E-01 0. -1.
        -11    1    1    2    0    0  0.11143916681E+02 -0.29418880706E+01  0.59371647802E+02  0.60480030981E+02  0.51100000000E-03 0.  1.
         11    1    1    2    0    0 -0.11143916681E+02  0.29418880706E+01  0.34521900327E+02  0.36395098391E+02  0.51100000000E-03 0. -1.
<mgrwt>
<rscale>  0 0.23849367E+02</rscale>
<asrwt>0</asrwt>
<pdfrwt beam="1">  1        3 0.14674525E-01 0.23849367E+02</pdfrwt>
<pdfrwt beam="2">  1       -3 0.22935223E-03 0.23849367E+02</pdfrwt>
<totfact> 0.97222571E+05</totfact>
</mgrwt>
</event>
<event>
 4    1  0.1754914E-001  0.2861231E+02  0.7818608E-02  0.1613954E+00
         -3   -1    0    0    0  501 -0.00000000000E+00  0.00000000000E+00  0.13689560646E+02  0.13689876540E+02  0.93000000000E-01 0. -1.
          3   -1    0    0  501    0  0.00000000000E+00 -0.00000000000E+00 -0.14949888642E+02  0.14950177905E+02  0.93000000000E-01 0.  1.
        -11    1    1    2    0    0  0.94289800094E+01  0.99572090077E+01  0.34498646602E+01  0.14140482371E+02  0.51100000000E-03 0. -1.
         11    1    1    2    0    0 -0.94289800094E+01 -0.99572090077E+01 -0.47101926559E+01  0.14499572075E+02  0.51100000000E-03 0.  1.
<mgrwt>
<rscale>  0 0.28612310E+02</rscale>
<asrwt>0</asrwt>
<pdfrwt beam="2">  1        3 0.23000294E-02 0.28612310E+02</pdfrwt>
<pdfrwt beam="1">  1       -3 0.21061328E-02 0.28612310E+02</pdfrwt>
<totfact> 0.77866786E+05</totfact>
</mgrwt>
</event>
<event>
 4    1  0.1754914E-001  0.2089212E+02  0.7818608E-02  0.1728148E+00
          3   -1    0    0  501    0  0.00000000000E+00  0.00000000000E+00  0.10553978609E+02  0.10554388351E+02  0.93000000000E-01 0.  1.
         -3   -1    0    0    0  501 -0.00000000000E+00 -0.00000000000E+00 -0.10338427222E+02  0.10338845507E+02  0.93000000000E-01 0. -1.
        -11    1    1    2    0    0  0.28464034357E+01  0.10039740927E+02  0.57873495066E+00  0.10451475723E+02  0.51100000000E-03 0. -1.
         11    1    1    2    0    0 -0.28464034357E+01 -0.10039740927E+02 -0.36318356361E+00  0.10441758135E+02  0.51100000000E-03 0.  1.
<mgrwt>
<rscale>  0 0.20892122E+02</rscale>
<asrwt>0</asrwt>
<pdfrwt beam="1">  1        3 0.16237527E-02 0.20892122E+02</pdfrwt>
<pdfrwt beam="2">  1       -3 0.15905910E-02 0.20892122E+02</pdfrwt>
<totfact> 0.16216282E+06</totfact>
</mgrwt>
</event>
<event>
 4    1  0.1754914E-001  0.2537643E+02  0.7818608E-02  0.1655653E+00
          3   -1    0    0  501    0  0.00000000000E+00  0.00000000000E+00  0.71395110495E+02  0.71395171066E+02  0.93000000000E-01 0. -1.
         -3   -1    0    0    0  501 -0.00000000000E+00 -0.00000000000E+00 -0.22539063796E+01  0.22558242325E+01  0.93000000000E-01 0.  1.
        -11    1    1    2    0    0 -0.86784261892E+01 -0.92300352037E+01  0.36585835669E+02  0.38717334655E+02  0.51100000000E-03 0. -1.
         11    1    1    2    0    0  0.86784261892E+01  0.92300352037E+01  0.32555368447E+02  0.34933660643E+02  0.51100000000E-03 0.  1.
<mgrwt>
<rscale>  0 0.25376426E+02</rscale>
<asrwt>0</asrwt>
<pdfrwt beam="1">  1        3 0.10984015E-01 0.25376426E+02</pdfrwt>
<pdfrwt beam="2">  1       -3 0.34690704E-03 0.25376426E+02</pdfrwt>
<totfact> 0.89772365E+05</totfact>
</mgrwt>
</event>
<event>
 4    1  0.1754914E-001  0.9748377E+02  0.7818608E-02  0.1285678E+00
         -3   -1    0    0    0  501 -0.00000000000E+00  0.00000000000E+00  0.11438681352E+03  0.11438685132E+03  0.93000000000E-01 0.  1.
          3   -1    0    0  501    0  0.00000000000E+00 -0.00000000000E+00 -0.20769481662E+02  0.20769689875E+02  0.93000000000E-01 0. -1.
        -11    1    1    2    0    0  0.30502969516E+02 -0.37867732478E+02  0.51484758421E+02  0.70817205976E+02  0.51100000000E-03 0. -1.
         11    1    1    2    0    0 -0.30502969516E+02  0.37867732478E+02  0.42132573433E+02  0.64339335221E+02  0.51100000000E-03 0.  1.
<mgrwt>
<rscale>  0 0.97483772E+02</rscale>
<asrwt>0</asrwt>
<pdfrwt beam="2">  1        3 0.31953238E-02 0.97483772E+02</pdfrwt>
<pdfrwt beam="1">  1       -3 0.17597990E-01 0.97483772E+02</pdfrwt>
<totfact> 0.26867426E+04</totfact>
</mgrwt>
</event>
<event>
 4    1  0.1754914E-001  0.3525537E+02  0.7818608E-02  0.1546344E+00
         -3   -1    0    0    0  501 -0.00000000000E+00  0.00000000000E+00  0.12912340583E+02  0.12912675491E+02  0.93000000000E-01 0. -1.
          3   -1    0    0  501    0  0.00000000000E+00 -0.00000000000E+00 -0.24064247246E+02  0.24064426952E+02  0.93000000000E-01 0.  1.
        -11    1    1    2    0    0  0.92051685347E+01  0.64859954831E+01 -0.19800428708E+02  0.22778503956E+02  0.51100000000E-03 0.  1.
         11    1    1    2    0    0 -0.92051685347E+01 -0.64859954831E+01  0.86485220457E+01  0.14198598487E+02  0.51100000000E-03 0. -1.
<mgrwt>
<rscale>  0 0.35255370E+02</rscale>
<asrwt>0</asrwt>
<pdfrwt beam="2">  1        3 0.37022315E-02 0.35255370E+02</pdfrwt>
<pdfrwt beam="1">  1       -3 0.19865535E-02 0.35255370E+02</pdfrwt>
<totfact> 0.46382728E+05</totfact>
</mgrwt>
</event>
<event>
 4    1  0.1754914E-001  0.4400678E+02  0.7818608E-02  0.1480639E+00
          3   -1    0    0  501    0  0.00000000000E+00  0.00000000000E+00  0.10610481805E+02  0.10610889366E+02  0.93000000000E-01 0.  1.
         -3   -1    0    0    0  501 -0.00000000000E+00 -0.00000000000E+00 -0.45628006729E+02  0.45628101507E+02  0.93000000000E-01 0. -1.
        -11    1    1    2    0    0  0.12823656664E+02  0.92049232624E+01 -0.37098399327E+02  0.40317093340E+02  0.51100000000E-03 0. -1.
         11    1    1    2    0    0 -0.12823656664E+02 -0.92049232624E+01  0.20808744022E+01  0.15921897532E+02  0.51100000000E-03 0.  1.
<mgrwt>
<rscale>  0 0.44006784E+02</rscale>
<asrwt>0</asrwt>
<pdfrwt beam="1">  1        3 0.16324205E-02 0.44006784E+02</pdfrwt>
<pdfrwt beam="2">  1       -3 0.70197319E-02 0.44006784E+02</pdfrwt>
<totfact> 0.25585116E+05</totfact>
</mgrwt>
</event>
<event>
 4    1  0.1754914E-001  0.2259246E+02  0.7818608E-02  0.1698203E+00
         -3   -1    0    0    0  501 -0.00000000000E+00  0.00000000000E+00  0.40858770433E+02  0.40858876273E+02  0.93000000000E-01 0.  1.
          3   -1    0    0  501    0  0.00000000000E+00 -0.00000000000E+00 -0.31222674582E+01  0.31236522022E+01  0.93000000000E-01 0. -1.
        -11    1    1    2    0    0  0.46940833851E+01  0.99855171273E+01  0.23580831583E+02  0.26034603694E+02  0.51100000000E-03 0.  1.
         11    1    1    2    0    0 -0.46940833851E+01 -0.99855171273E+01  0.14155671392E+02  0.17947924781E+02  0.51100000000E-03 0. -1.
<mgrwt>
<rscale>  0 0.22592458E+02</rscale>
<asrwt>0</asrwt>
<pdfrwt beam="2">  1        3 0.48046350E-03 0.22592458E+02</pdfrwt>
<pdfrwt beam="1">  1       -3 0.62860794E-02 0.22592458E+02</pdfrwt>
<totfact> 0.12654797E+06</totfact>
</mgrwt>
</event>
<event>
 4    1  0.1754914E-001  0.2411419E+02  0.7818608E-02  0.1674061E+00
          3   -1    0    0  501    0  0.00000000000E+00  0.00000000000E+00  0.26145945890E+01  0.26162480511E+01  0.93000000000E-01 0.  1.
         -3   -1    0    0    0  501 -0.00000000000E+00 -0.00000000000E+00 -0.55581513668E+02  0.55581591473E+02  0.93000000000E-01 0. -1.
        -11    1    1    2    0    0 -0.44493515873E+00 -0.11800039263E+02 -0.32362822314E+02  0.34449835446E+02  0.51100000000E-03 0. -1.
         11    1    1    2    0    0  0.44493515873E+00  0.11800039263E+02 -0.20604096766E+02  0.23748004078E+02  0.51100000000E-03 0.  1.
<mgrwt>
<rscale>  0 0.24114187E+02</rscale>
<asrwt>0</asrwt>
<pdfrwt beam="1">  1        3 0.40237854E-03 0.24114187E+02</pdfrwt>
<pdfrwt beam="2">  1       -3 0.85511344E-02 0.24114187E+02</pdfrwt>
<totfact> 0.10503245E+06</totfact>
</mgrwt>
</event>
<event>
 4    1  0.1754914E-001  0.2182770E+02  0.7818608E-02  0.1711249E+00
         -3   -1    0    0    0  501 -0.00000000000E+00  0.00000000000E+00  0.63608342066E+01  0.63615140339E+01  0.93000000000E-01 0.  1.
          3   -1    0    0  501    0  0.00000000000E+00 -0.00000000000E+00 -0.18724065324E+02  0.18724296282E+02  0.93000000000E-01 0. -1.
        -11    1    1    2    0    0  0.16077403104E+01  0.10715649954E+02 -0.76810060388E+01  0.13281861197E+02  0.51100000000E-03 0.  1.
         11    1    1    2    0    0 -0.16077403104E+01 -0.10715649954E+02 -0.46822250782E+01  0.11803949118E+02  0.51100000000E-03 0. -1.
<mgrwt>
<rscale>  0 0.21827698E+02</rscale>
<asrwt>0</asrwt>
<pdfrwt beam="2">  1        3 0.28806955E-02 0.21827698E+02</pdfrwt>
<pdfrwt beam="1">  1       -3 0.97865995E-03 0.21827698E+02</pdfrwt>
<totfact> 0.14514813E+06</totfact>
</mgrwt>
</event>
<event>
 4    1  0.1754914E-001  0.2873184E+02  0.7818608E-02  0.1612545E+00
         -3   -1    0    0    0  501 -0.00000000000E+00  0.00000000000E+00  0.51137336379E+02  0.51137420946E+02  0.93000000000E-01 0. -1.
          3   -1    0    0  501    0  0.00000000000E+00 -0.00000000000E+00 -0.40351687319E+01  0.40362402920E+01  0.93000000000E-01 0.  1.
        -11    1    1    2    0    0  0.11625539165E+02  0.84142804111E+01  0.22297145725E+02  0.26516334276E+02  0.51100000000E-03 0.  1.
         11    1    1    2    0    0 -0.11625539165E+02 -0.84142804111E+01  0.24805021923E+02  0.28657326961E+02  0.51100000000E-03 0. -1.
<mgrwt>
<rscale>  0 0.28731841E+02</rscale>
<asrwt>0</asrwt>
<pdfrwt beam="2">  1        3 0.62088413E-03 0.28731841E+02</pdfrwt>
<pdfrwt beam="1">  1       -3 0.78673714E-02 0.28731841E+02</pdfrwt>
<totfact> 0.71168852E+05</totfact>
</mgrwt>
</event>
<event>
 4    1  0.1754914E-001  0.2522444E+02  0.7818608E-02  0.1657799E+00
          3   -1    0    0  501    0  0.00000000000E+00  0.00000000000E+00  0.29464558964E+02  0.29464705733E+02  0.93000000000E-01 0.  1.
         -3   -1    0    0    0  501 -0.00000000000E+00 -0.00000000000E+00 -0.53980641187E+01  0.53988651798E+01  0.93000000000E-01 0. -1.
        -11    1    1    2    0    0  0.66374338860E+01 -0.84690977241E+01  0.29397940237E+01  0.11154529753E+02  0.51100000000E-03 0. -1.
         11    1    1    2    0    0 -0.66374338860E+01  0.84690977241E+01  0.21126700821E+02  0.23709041160E+02  0.51100000000E-03 0.  1.
<mgrwt>
<rscale>  0 0.25224441E+02</rscale>
<asrwt>0</asrwt>
<pdfrwt beam="1">  1        3 0.45330820E-02 0.25224441E+02</pdfrwt>
<pdfrwt beam="2">  1       -3 0.83054431E-03 0.25224441E+02</pdfrwt>
<totfact> 0.10180161E+06</totfact>
</mgrwt>
</event>
<event>
 4    1  0.1754914E-001  0.2878127E+02  0.7818608E-02  0.1611964E+00
         -3   -1    0    0    0  501 -0.00000000000E+00  0.00000000000E+00  0.15648200481E+01  0.15675811886E+01  0.93000000000E-01 0.  1.
          3   -1    0    0  501    0  0.00000000000E+00 -0.00000000000E+00 -0.13222190729E+03  0.13222194000E+03  0.93000000000E-01 0. -1.
        -11    1    1    2    0    0 -0.53345433741E+01  0.12810039113E+02 -0.83051391746E+02  0.84202661040E+02  0.51100000000E-03 0.  1.
         11    1    1    2    0    0  0.53345433741E+01 -0.12810039113E+02 -0.47605695495E+02  0.49586860144E+02  0.51100000000E-03 0. -1.
<mgrwt>
<rscale>  0 0.28781271E+02</rscale>
<asrwt>0</asrwt>
<pdfrwt beam="2">  1        3 0.20342038E-01 0.28781271E+02</pdfrwt>
<pdfrwt beam="1">  1       -3 0.24095656E-03 0.28781271E+02</pdfrwt>
<totfact> 0.58338907E+05</totfact>
</mgrwt>
</event>
<event>
 4    1  0.1754914E-001  0.3713527E+02  0.7818608E-02  0.1530417E+00
         -3   -1    0    0    0  501 -0.00000000000E+00  0.00000000000E+00  0.76030849883E+01  0.76036537493E+01  0.93000000000E-01 0.  1.
          3   -1    0    0  501    0  0.00000000000E+00 -0.00000000000E+00 -0.45342062233E+02  0.45342157608E+02  0.93000000000E-01 0. -1.
        -11    1    1    2    0    0 -0.36287149689E+01  0.16899106799E+02 -0.91985211440E+01  0.19579585655E+02  0.51100000000E-03 0. -1.
         11    1    1    2    0    0  0.36287149689E+01 -0.16899106799E+02 -0.28540456101E+02  0.33366225702E+02  0.51100000000E-03 0.  1.
<mgrwt>
<rscale>  0 0.37135273E+02</rscale>
<asrwt>0</asrwt>
<pdfrwt beam="2">  1        3 0.69757528E-02 0.37135273E+02</pdfrwt>
<pdfrwt beam="1">  1       -3 0.11697565E-02 0.37135273E+02</pdfrwt>
<totfact> 0.39083946E+05</totfact>
</mgrwt>
</event>
<event>
 4    1  0.1754914E-001  0.2286919E+02  0.7818608E-02  0.1693639E+00
          3   -1    0    0  501    0  0.00000000000E+00  0.00000000000E+00  0.10592149968E+01  0.10632898991E+01  0.93000000000E-01 0.  1.
         -3   -1    0    0    0  501 -0.00000000000E+00 -0.00000000000E+00 -0.12319940365E+03  0.12319943875E+03  0.93000000000E-01 0. -1.
        -11    1    1    2    0    0  0.85932592404E+01  0.75331612527E+01 -0.63225737601E+02  0.64250186912E+02  0.51100000000E-03 0.  1.
         11    1    1    2    0    0 -0.85932592404E+01 -0.75331612527E+01 -0.58914451048E+02  0.60012541734E+02  0.51100000000E-03 0. -1.
<mgrwt>
<rscale>  0 0.22869194E+02</rscale>
<asrwt>0</asrwt>
<pdfrwt beam="1">  1        3 0.16327241E-03 0.22869194E+02</pdfrwt>
<pdfrwt beam="2">  1       -3 0.18954059E-01 0.22869194E+02</pdfrwt>
<totfact> 0.10002395E+06</totfact>
</mgrwt>
</event>
<event>
 4    1  0.1754914E-001  0.3864285E+02  0.7818608E-02  0.1518443E+00
          3   -1    0    0  501    0  0.00000000000E+00  0.00000000000E+00  0.10158586032E+02  0.10159011722E+02  0.93000000000E-01 0.  1.
         -3   -1    0    0    0  501 -0.00000000000E+00 -0.00000000000E+00 -0.36747698918E+02  0.36747816599E+02  0.93000000000E-01 0. -1.
        -11    1    1    2    0    0 -0.41989507647E+01 -0.12117098364E+02 -0.30837271928E+02  0.33397493926E+02  0.51100000000E-03 0.  1.
         11    1    1    2    0    0  0.41989507647E+01  0.12117098364E+02  0.42481590420E+01  0.13509334395E+02  0.51100000000E-03 0. -1.
<mgrwt>
<rscale>  0 0.38642847E+02</rscale>
<asrwt>0</asrwt>
<pdfrwt beam="1">  1        3 0.15629012E-02 0.38642847E+02</pdfrwt>
<pdfrwt beam="2">  1       -3 0.56535339E-02 0.38642847E+02</pdfrwt>
<totfact> 0.36102762E+05</totfact>
</mgrwt>
</event>
<event>
 4    1  0.1754914E-001  0.3372395E+02  0.7818608E-02  0.1560233E+00
          3   -1    0    0  501    0  0.00000000000E+00  0.00000000000E+00  0.17779923441E+01  0.17804229204E+01  0.93000000000E-01 0.  1.
         -3   -1    0    0    0  501 -0.00000000000E+00 -0.00000000000E+00 -0.15980249549E+03  0.15980252255E+03  0.93000000000E-01 0. -1.
        -11    1    1    2    0    0 -0.65206566535E+01 -0.15391660427E+02 -0.68401843758E+02  0.70414731439E+02  0.51100000000E-03 0. -1.
         11    1    1    2    0    0  0.65206566535E+01  0.15391660427E+02 -0.89622659389E+02  0.91168214034E+02  0.51100000000E-03 0.  1.
<mgrwt>
<rscale>  0 0.33723948E+02</rscale>
<asrwt>0</asrwt>
<pdfrwt beam="1">  1        3 0.27372646E-03 0.33723948E+02</pdfrwt>
<pdfrwt beam="2">  1       -3 0.24585177E-01 0.33723948E+02</pdfrwt>
<totfact> 0.38024796E+05</totfact>
</mgrwt>
</event>
<event>
 4    1  0.1754914E-001  0.2792216E+02  0.7818608E-02  0.1622262E+00
          3   -1    0    0  501    0  0.00000000000E+00  0.00000000000E+00  0.16199978573E+01  0.16226651095E+01  0.93000000000E-01 0.  1.
         -3   -1    0    0    0  501 -0.00000000000E+00 -0.00000000000E+00 -0.12021436603E+03  0.12021440200E+03  0.93000000000E-01 0. -1.
        -11    1    1    2    0    0  0.73589809267E+01  0.11864041822E+02 -0.59471786477E+02  0.61088488896E+02  0.51100000000E-03 0.  1.
         11    1    1    2    0    0 -0.73589809267E+01 -0.11864041822E+02 -0.59122581694E+02  0.60748578214E+02  0.51100000000E-03 0. -1.
<mgrwt>
<rscale>  0 0.27922155E+02</rscale>
<asrwt>0</asrwt>
<pdfrwt beam="1">  1        3 0.24943848E-03 0.27922155E+02</pdfrwt>
<pdfrwt beam="2">  1       -3 0.18494719E-01 0.27922155E+02</pdfrwt>
<totfact> 0.64239500E+05</totfact>
</mgrwt>
</event>
<event>
 4    1  0.1754914E-001  0.2788233E+02  0.7818608E-02  0.1622750E+00
         -3   -1    0    0    0  501 -0.00000000000E+00  0.00000000000E+00  0.13582347138E+02  0.13582665525E+02  0.93000000000E-01 0. -1.
          3   -1    0    0  501    0  0.00000000000E+00 -0.00000000000E+00 -0.14308827877E+02  0.14309130100E+02  0.93000000000E-01 0.  1.
        -11    1    1    2    0    0  0.55339656250E+01 -0.11894444015E+02  0.43557272483E+01  0.13822985716E+02  0.51100000000E-03 0.  1.
         11    1    1    2    0    0 -0.55339656250E+01  0.11894444015E+02 -0.50822079882E+01  0.14068809910E+02  0.51100000000E-03 0. -1.
<mgrwt>
<rscale>  0 0.27882333E+02</rscale>
<asrwt>0</asrwt>
<pdfrwt beam="2">  1        3 0.22014059E-02 0.27882333E+02</pdfrwt>
<pdfrwt beam="1">  1       -3 0.20896396E-02 0.27882333E+02</pdfrwt>
<totfact> 0.82853852E+05</totfact>
</mgrwt>
</event>
<event>
 4    1  0.1754914E-001  0.2056230E+02  0.7818608E-02  0.1734372E+00
          3   -1    0    0  501    0  0.00000000000E+00  0.00000000000E+00  0.52185896849E+01  0.52194182913E+01  0.93000000000E-01 0. -1.
         -3   -1    0    0    0  501 -0.00000000000E+00 -0.00000000000E+00 -0.20252366030E+02  0.20252579560E+02  0.93000000000E-01 0.  1.
        -11    1    1    2    0    0  0.10145693259E+02 -0.55831020847E+00 -0.55758239524E+01  0.11590367337E+02  0.51100000000E-03 0.  1.
         11    1    1    2    0    0 -0.10145693259E+02  0.55831020847E+00 -0.94579523930E+01  0.13881630514E+02  0.51100000000E-03 0. -1.
<mgrwt>
<rscale>  0 0.20562302E+02</rscale>
<asrwt>0</asrwt>
<pdfrwt beam="1">  1        3 0.80294013E-03 0.20562302E+02</pdfrwt>
<pdfrwt beam="2">  1       -3 0.31158287E-02 0.20562302E+02</pdfrwt>
<totfact> 0.16517468E+06</totfact>
</mgrwt>
</event>
<event>
 4    1  0.1754914E-001  0.4493008E+02  0.7818608E-02  0.1474779E+00
          3   -1    0    0  501    0  0.00000000000E+00  0.00000000000E+00  0.78369628617E+01  0.78375146504E+01  0.93000000000E-01 0. -1.
         -3   -1    0    0    0  501 -0.00000000000E+00 -0.00000000000E+00 -0.64394295944E+02  0.64394363101E+02  0.93000000000E-01 0.  1.
        -11    1    1    2    0    0 -0.14342449535E+02 -0.28900299616E+01 -0.87211508665E+00  0.14656695291E+02  0.51100000000E-03 0. -1.
         11    1    1    2    0    0  0.14342449535E+02  0.28900299616E+01 -0.55685217996E+02  0.57575182461E+02  0.51100000000E-03 0.  1.
<mgrwt>
<rscale>  0 0.44930082E+02</rscale>
<asrwt>0</asrwt>
<pdfrwt beam="1">  1        3 0.12057342E-02 0.44930082E+02</pdfrwt>
<pdfrwt beam="2">  1       -3 0.99068620E-02 0.44930082E+02</pdfrwt>
<totfact> 0.23310398E+05</totfact>
</mgrwt>
</event>
<event>
 4    1  0.1754914E-001  0.2345973E+02  0.7818608E-02  0.1684165E+00
          3   -1    0    0  501    0  0.00000000000E+00  0.00000000000E+00  0.28143928081E+01  0.28159289547E+01  0.93000000000E-01 0.  1.
         -3   -1    0    0    0  501 -0.00000000000E+00 -0.00000000000E+00 -0.48872963992E+02  0.48873052476E+02  0.93000000000E-01 0. -1.
        -11    1    1    2    0    0 -0.84583957189E+01  0.66610897467E+01 -0.12771446836E+02  0.16704024345E+02  0.51100000000E-03 0.  1.
         11    1    1    2    0    0  0.84583957189E+01 -0.66610897467E+01 -0.33287124347E+02  0.34984957086E+02  0.51100000000E-03 0. -1.
<mgrwt>
<rscale>  0 0.23459728E+02</rscale>
<asrwt>0</asrwt>
<pdfrwt beam="1">  1        3 0.43310852E-03 0.23459728E+02</pdfrwt>
<pdfrwt beam="2">  1       -3 0.75190419E-02 0.23459728E+02</pdfrwt>
<totfact> 0.11377331E+06</totfact>
</mgrwt>
</event>
<event>
 4    1  0.1754914E-001  0.2419607E+02  0.7818608E-02  0.1672825E+00
         -3   -1    0    0    0  501 -0.00000000000E+00  0.00000000000E+00  0.50329193210E+01  0.50337784906E+01  0.93000000000E-01 0. -1.
          3   -1    0    0  501    0  0.00000000000E+00 -0.00000000000E+00 -0.29077598629E+02  0.29077747351E+02  0.93000000000E-01 0.  1.
        -11    1    1    2    0    0 -0.50303774743E+01  0.10349061608E+02 -0.17288759314E+02  0.20767979502E+02  0.51100000000E-03 0.  1.
         11    1    1    2    0    0  0.50303774743E+01 -0.10349061608E+02 -0.67559199939E+01  0.13343546340E+02  0.51100000000E-03 0. -1.
<mgrwt>
<rscale>  0 0.24196066E+02</rscale>
<asrwt>0</asrwt>
<pdfrwt beam="2">  1        3 0.44735541E-02 0.24196066E+02</pdfrwt>
<pdfrwt beam="1">  1       -3 0.77437283E-03 0.24196066E+02</pdfrwt>
<totfact> 0.11207284E+06</totfact>
</mgrwt>
</event>
<event>
 4    1  0.1754914E-001  0.3084009E+02  0.7818608E-02  0.1588984E+00
          3   -1    0    0  501    0  0.00000000000E+00  0.00000000000E+00  0.51104987118E+02  0.51105071738E+02  0.93000000000E-01 0.  1.
         -3   -1    0    0    0  501 -0.00000000000E+00 -0.00000000000E+00 -0.46521775769E+01  0.46531070488E+01  0.93000000000E-01 0. -1.
        -11    1    1    2    0    0 -0.77037224220E+01 -0.66260509903E+01  0.44196280767E+02  0.45349345362E+02  0.51100000000E-03 0.  1.
         11    1    1    2    0    0  0.77037224220E+01  0.66260509903E+01  0.22565287736E+01  0.10408833424E+02  0.51100000000E-03 0. -1.
<mgrwt>
<rscale>  0 0.30840087E+02</rscale>
<asrwt>0</asrwt>
<pdfrwt beam="1">  1        3 0.78623836E-02 0.30840087E+02</pdfrwt>
<pdfrwt beam="2">  1       -3 0.71579765E-03 0.30840087E+02</pdfrwt>
<totfact> 0.60268621E+05</totfact>
</mgrwt>
</event>
<event>
 4    1  0.1754914E-001  0.4034932E+02  0.7818608E-02  0.1505656E+00
         -3   -1    0    0    0  501 -0.00000000000E+00  0.00000000000E+00  0.14848058085E+02  0.14848349332E+02  0.93000000000E-01 0.  1.
          3   -1    0    0  501    0  0.00000000000E+00 -0.00000000000E+00 -0.27411485278E+02  0.27411643040E+02  0.93000000000E-01 0. -1.
        -11    1    1    2    0    0  0.15517397227E+02  0.83310112587E+01 -0.16587449990E+02  0.24193777355E+02  0.51100000000E-03 0. -1.
         11    1    1    2    0    0 -0.15517397227E+02 -0.83310112587E+01  0.40240227967E+01  0.18066215017E+02  0.51100000000E-03 0.  1.
<mgrwt>
<rscale>  0 0.40349315E+02</rscale>
<asrwt>0</asrwt>
<pdfrwt beam="2">  1        3 0.42171861E-02 0.40349315E+02</pdfrwt>
<pdfrwt beam="1">  1       -3 0.22843512E-02 0.40349315E+02</pdfrwt>
<totfact> 0.32924967E+05</totfact>
</mgrwt>
</event>
<event>
 4    1  0.1754914E-001  0.4086568E+02  0.7818608E-02  0.1501936E+00
         -3   -1    0    0    0  501 -0.00000000000E+00  0.00000000000E+00  0.21074782489E+03  0.21074784541E+03  0.93000000000E-01 0.  1.
          3   -1    0    0  501    0  0.00000000000E+00 -0.00000000000E+00 -0.19799333895E+01  0.19821163504E+01  0.93000000000E-01 0. -1.
        -11    1    1    2    0    0 -0.91674953911E+01  0.18259764413E+02  0.10335514949E+03  0.10535534582E+03  0.51100000000E-03 0. -1.
         11    1    1    2    0    0  0.91674953911E+01 -0.18259764413E+02  0.10541274202E+03  0.10737461594E+03  0.51100000000E-03 0.  1.
<mgrwt>
<rscale>  0 0.40865684E+02</rscale>
<asrwt>0</asrwt>
<pdfrwt beam="2">  1        3 0.30477476E-03 0.40865684E+02</pdfrwt>
<pdfrwt beam="1">  1       -3 0.32422898E-01 0.40865684E+02</pdfrwt>
<totfact> 0.21727564E+05</totfact>
</mgrwt>
</event>
<event>
 4    1  0.1754914E-001  0.3942804E+02  0.7818608E-02  0.1512463E+00
         -3   -1    0    0    0  501 -0.00000000000E+00  0.00000000000E+00  0.12301156831E+02  0.12301508378E+02  0.93000000000E-01 0.  1.
          3   -1    0    0  501    0  0.00000000000E+00 -0.00000000000E+00 -0.31593118899E+02  0.31593255780E+02  0.93000000000E-01 0. -1.
        -11    1    1    2    0    0 -0.11830491313E+02 -0.99044150668E+01 -0.23307465192E+02  0.27951670728E+02  0.51100000000E-03 0. -1.
         11    1    1    2    0    0  0.11830491313E+02  0.99044150668E+01  0.40155031242E+01  0.15943093430E+02  0.51100000000E-03 0.  1.
<mgrwt>
<rscale>  0 0.39428042E+02</rscale>
<asrwt>0</asrwt>
<pdfrwt beam="2">  1        3 0.48605174E-02 0.39428042E+02</pdfrwt>
<pdfrwt beam="1">  1       -3 0.18925232E-02 0.39428042E+02</pdfrwt>
<totfact> 0.34671842E+05</totfact>
</mgrwt>
</event>
<event>
 4    1  0.1754914E-001  0.2326498E+02  0.7818608E-02  0.1687250E+00
          3   -1    0    0  501    0  0.00000000000E+00  0.00000000000E+00  0.10467476195E+02  0.10467889324E+02  0.93000000000E-01 0. -1.
         -3   -1    0    0    0  501 -0.00000000000E+00 -0.00000000000E+00 -0.12926336504E+02  0.12926671049E+02  0.93000000000E-01 0.  1.
        -11    1    1    2    0    0 -0.76020624005E+01  0.76110704945E+01 -0.56807221249E+01  0.12165128480E+02  0.51100000000E-03 0. -1.
         11    1    1    2    0    0  0.76020624005E+01 -0.76110704945E+01  0.32218618160E+01  0.11229431893E+02  0.51100000000E-03 0.  1.
<mgrwt>
<rscale>  0 0.23264984E+02</rscale>
<asrwt>0</asrwt>
<pdfrwt beam="1">  1        3 0.16104385E-02 0.23264984E+02</pdfrwt>
<pdfrwt beam="2">  1       -3 0.19887247E-02 0.23264984E+02</pdfrwt>
<totfact> 0.12680547E+06</totfact>
</mgrwt>
</event>
<event>
 4    1  0.1754914E-001  0.3061160E+02  0.7818608E-02  0.1591425E+00
         -3   -1    0    0    0  501 -0.00000000000E+00  0.00000000000E+00  0.29654145009E+02  0.29654290840E+02  0.93000000000E-01 0.  1.
          3   -1    0    0  501    0  0.00000000000E+00 -0.00000000000E+00 -0.78995548303E+01  0.79001022473E+01  0.93000000000E-01 0. -1.
        -11    1    1    2    0    0  0.13951209214E+02 -0.58724467831E+01  0.13660188349E+02  0.20389276980E+02  0.51100000000E-03 0.  1.
         11    1    1    2    0    0 -0.13951209214E+02  0.58724467831E+01  0.80944018299E+01  0.17165116108E+02  0.51100000000E-03 0. -1.
<mgrwt>
<rscale>  0 0.30611603E+02</rscale>
<asrwt>0</asrwt>
<pdfrwt beam="2">  1        3 0.12153694E-02 0.30611603E+02</pdfrwt>
<pdfrwt beam="1">  1       -3 0.45622295E-02 0.30611603E+02</pdfrwt>
<totfact> 0.64690793E+05</totfact>
</mgrwt>
</event>
<event>
 4    1  0.1754914E-001  0.2237279E+02  0.7818608E-02  0.1701883E+00
         -3   -1    0    0    0  501 -0.00000000000E+00  0.00000000000E+00  0.11868097767E+03  0.11868101411E+03  0.93000000000E-01 0.  1.
          3   -1    0    0  501    0  0.00000000000E+00 -0.00000000000E+00 -0.10522978810E+01  0.10563994653E+01  0.93000000000E-01 0. -1.
        -11    1    1    2    0    0 -0.10299848725E+02  0.42532261285E+01  0.64054464752E+02  0.65016546133E+02  0.51100000000E-03 0. -1.
         11    1    1    2    0    0  0.10299848725E+02 -0.42532261285E+01  0.53574215042E+02  0.54720867444E+02  0.51100000000E-03 0.  1.
<mgrwt>
<rscale>  0 0.22372794E+02</rscale>
<asrwt>0</asrwt>
<pdfrwt beam="2">  1        3 0.16221032E-03 0.22372794E+02</pdfrwt>
<pdfrwt beam="1">  1       -3 0.18258927E-01 0.22372794E+02</pdfrwt>
<totfact> 0.10606445E+06</totfact>
</mgrwt>
</event>
<event>
 4    1  0.1754914E-001  0.3160558E+02  0.7818608E-02  0.1580990E+00
         -3   -1    0    0    0  501 -0.00000000000E+00  0.00000000000E+00  0.15068016946E+02  0.15068303942E+02  0.93000000000E-01 0. -1.
          3   -1    0    0  501    0  0.00000000000E+00 -0.00000000000E+00 -0.16572821260E+02  0.16573082197E+02  0.93000000000E-01 0.  1.
        -11    1    1    2    0    0 -0.22816208756E+01  0.13758037181E+02 -0.81931050791E+01  0.16174558788E+02  0.51100000000E-03 0.  1.
         11    1    1    2    0    0  0.22816208756E+01 -0.13758037181E+02  0.66883007652E+01  0.15466827350E+02  0.51100000000E-03 0. -1.
<mgrwt>
<rscale>  0 0.31605583E+02</rscale>
<asrwt>0</asrwt>
<pdfrwt beam="2">  1        3 0.25497070E-02 0.31605583E+02</pdfrwt>
<pdfrwt beam="1">  1       -3 0.23181986E-02 0.31605583E+02</pdfrwt>
<totfact> 0.61123240E+05</totfact>
</mgrwt>
</event>
<event>
 4    1  0.1754914E-001  0.2444590E+02  0.7818608E-02  0.1669091E+00
         -3   -1    0    0    0  501 -0.00000000000E+00  0.00000000000E+00  0.69473485440E+02  0.69473547686E+02  0.93000000000E-01 0. -1.
          3   -1    0    0  501    0  0.00000000000E+00 -0.00000000000E+00 -0.21493997812E+01  0.21514107975E+01  0.93000000000E-01 0.  1.
        -11    1    1    2    0    0 -0.10007850538E+02 -0.74845359213E+00  0.13218872560E+02  0.16596862570E+02  0.51100000000E-03 0. -1.
         11    1    1    2    0    0  0.10007850538E+02  0.74845359213E+00  0.54105213099E+02  0.55028095914E+02  0.51100000000E-03 0.  1.
<mgrwt>
<rscale>  0 0.24445903E+02</rscale>
<asrwt>0</asrwt>
<pdfrwt beam="2">  1        3 0.33083634E-03 0.24445903E+02</pdfrwt>
<pdfrwt beam="1">  1       -3 0.10688389E-01 0.24445903E+02</pdfrwt>
<totfact> 0.98179909E+05</totfact>
</mgrwt>
</event>
<event>
 4    1  0.1754914E-001  0.2918012E+02  0.7818608E-02  0.1607332E+00
         -3   -1    0    0    0  501 -0.00000000000E+00  0.00000000000E+00  0.18281552209E+01  0.18305191919E+01  0.93000000000E-01 0. -1.
          3   -1    0    0  501    0  0.00000000000E+00 -0.00000000000E+00 -0.11636212034E+03  0.11636215751E+03  0.93000000000E-01 0.  1.
        -11    1    1    2    0    0  0.47263884796E+01  0.13711752925E+02 -0.63695596522E+02  0.65325951451E+02  0.51100000000E-03 0.  1.
         11    1    1    2    0    0 -0.47263884796E+01 -0.13711752925E+02 -0.50838368600E+02  0.52866725249E+02  0.51100000000E-03 0. -1.
<mgrwt>
<rscale>  0 0.29180124E+02</rscale>
<asrwt>0</asrwt>
<pdfrwt beam="2">  1        3 0.17902043E-01 0.29180124E+02</pdfrwt>
<pdfrwt beam="1">  1       -3 0.28143944E-03 0.29180124E+02</pdfrwt>
<totfact> 0.58543751E+05</totfact>
</mgrwt>
</event>
<event>
 4    1  0.1754914E-001  0.2602747E+02  0.7818608E-02  0.1646668E+00
         -3   -1    0    0    0  501 -0.00000000000E+00  0.00000000000E+00  0.22149476669E+02  0.22149671909E+02  0.93000000000E-01 0. -1.
          3   -1    0    0  501    0  0.00000000000E+00 -0.00000000000E+00 -0.76455948306E+01  0.76461604295E+01  0.93000000000E-01 0.  1.
        -11    1    1    2    0    0  0.61646326942E+01 -0.79416394682E+01  0.16711829838E+02  0.19502758535E+02  0.51100000000E-03 0. -1.
         11    1    1    2    0    0 -0.61646326942E+01  0.79416394682E+01 -0.22079479997E+01  0.10293073804E+02  0.51100000000E-03 0.  1.
<mgrwt>
<rscale>  0 0.26027467E+02</rscale>
<asrwt>0</asrwt>
<pdfrwt beam="2">  1        3 0.11763039E-02 0.26027467E+02</pdfrwt>
<pdfrwt beam="1">  1       -3 0.34076703E-02 0.26027467E+02</pdfrwt>
<totfact> 0.96390119E+05</totfact>
</mgrwt>
</event>
<event>
 4    1  0.1754914E-001  0.2139402E+02  0.7818608E-02  0.1718948E+00
          3   -1    0    0  501    0  0.00000000000E+00  0.00000000000E+00  0.70905180161E+01  0.70911278889E+01  0.93000000000E-01 0.  1.
         -3   -1    0    0    0  501 -0.00000000000E+00 -0.00000000000E+00 -0.16136456793E+02  0.16136724786E+02  0.93000000000E-01 0. -1.
        -11    1    1    2    0    0  0.10028028414E+02  0.76830293914E+00 -0.84786746258E+01  0.13154450462E+02  0.51100000000E-03 0. -1.
         11    1    1    2    0    0 -0.10028028414E+02 -0.76830293914E+00 -0.56726415069E+00  0.10073402213E+02  0.51100000000E-03 0.  1.
<mgrwt>
<rscale>  0 0.21394021E+02</rscale>
<asrwt>0</asrwt>
<pdfrwt beam="1">  1        3 0.10909165E-02 0.21394021E+02</pdfrwt>
<pdfrwt beam="2">  1       -3 0.24825993E-02 0.21394021E+02</pdfrwt>
<totfact> 0.15268133E+06</totfact>
</mgrwt>
</event>
<event>
 4    1  0.1754914E-001  0.3404288E+02  0.7818608E-02  0.1557268E+00
         -3   -1    0    0    0  501 -0.00000000000E+00  0.00000000000E+00  0.49731751848E+02  0.49731838805E+02  0.93000000000E-01 0.  1.
          3   -1    0    0  501    0  0.00000000000E+00 -0.00000000000E+00 -0.58253793088E+01  0.58261216166E+01  0.93000000000E-01 0. -1.
        -11    1    1    2    0    0 -0.10186680940E+02 -0.95794427743E+01  0.61139460048E+01  0.15261537552E+02  0.51100000000E-03 0. -1.
         11    1    1    2    0    0  0.10186680940E+02  0.95794427743E+01  0.37792426534E+02  0.40296422869E+02  0.51100000000E-03 0.  1.
<mgrwt>
<rscale>  0 0.34042876E+02</rscale>
<asrwt>0</asrwt>
<pdfrwt beam="2">  1        3 0.89627600E-03 0.34042876E+02</pdfrwt>
<pdfrwt beam="1">  1       -3 0.76511025E-02 0.34042876E+02</pdfrwt>
<totfact> 0.47783859E+05</totfact>
</mgrwt>
</event>
<event>
 4    1  0.1754914E-001  0.2837233E+02  0.7818608E-02  0.1616810E+00
         -3   -1    0    0    0  501 -0.00000000000E+00  0.00000000000E+00  0.35549763723E+01  0.35561926280E+01  0.93000000000E-01 0.  1.
          3   -1    0    0  501    0  0.00000000000E+00 -0.00000000000E+00 -0.56599097758E+02  0.56599174164E+02  0.93000000000E-01 0. -1.
        -11    1    1    2    0    0  0.12045994388E+02  0.14561673922E+01 -0.10938727918E+02  0.16336528792E+02  0.51100000000E-03 0.  1.
         11    1    1    2    0    0 -0.12045994388E+02 -0.14561673922E+01 -0.42105393468E+02  0.43818837999E+02  0.51100000000E-03 0. -1.
<mgrwt>
<rscale>  0 0.28372334E+02</rscale>
<asrwt>0</asrwt>
<pdfrwt beam="2">  1        3 0.87076523E-02 0.28372334E+02</pdfrwt>
<pdfrwt beam="1">  1       -3 0.54701892E-03 0.28372334E+02</pdfrwt>
<totfact> 0.72235076E+05</totfact>
</mgrwt>
</event>
<event>
 4    1  0.1754914E-001  0.3194174E+02  0.7818608E-02  0.1577566E+00
         -3   -1    0    0    0  501 -0.00000000000E+00  0.00000000000E+00  0.20678268073E+02  0.20678477204E+02  0.93000000000E-01 0.  1.
          3   -1    0    0  501    0  0.00000000000E+00 -0.00000000000E+00 -0.12334660165E+02  0.12335010757E+02  0.93000000000E-01 0. -1.
        -11    1    1    2    0    0  0.82835295313E+00 -0.10714717309E+02 -0.80388884486E+01  0.13420695339E+02  0.51100000000E-03 0. -1.
         11    1    1    2    0    0 -0.82835295313E+00  0.10714717309E+02  0.16382496356E+02  0.19592792623E+02  0.51100000000E-03 0.  1.
<mgrwt>
<rscale>  0 0.31941737E+02</rscale>
<asrwt>0</asrwt>
<pdfrwt beam="2">  1        3 0.18976831E-02 0.31941737E+02</pdfrwt>
<pdfrwt beam="1">  1       -3 0.31813150E-02 0.31941737E+02</pdfrwt>
<totfact> 0.59361982E+05</totfact>
</mgrwt>
</event>
<event>
 4    1  0.1754914E-001  0.3674495E+02  0.7818608E-02  0.1533629E+00
          3   -1    0    0  501    0  0.00000000000E+00  0.00000000000E+00  0.19313415945E+02  0.19313639855E+02  0.93000000000E-01 0.  1.
         -3   -1    0    0    0  501 -0.00000000000E+00 -0.00000000000E+00 -0.17476926227E+02  0.17477173666E+02  0.93000000000E-01 0. -1.
        -11    1    1    2    0    0 -0.21252846257E+01  0.16357171344E+02 -0.71834510569E+01  0.17990993816E+02  0.51100000000E-03 0. -1.
         11    1    1    2    0    0  0.21252846257E+01 -0.16357171344E+02  0.90199407743E+01  0.18799819706E+02  0.51100000000E-03 0.  1.
<mgrwt>
<rscale>  0 0.36744949E+02</rscale>
<asrwt>0</asrwt>
<pdfrwt beam="1">  1        3 0.29713310E-02 0.36744949E+02</pdfrwt>
<pdfrwt beam="2">  1       -3 0.26887941E-02 0.36744949E+02</pdfrwt>
<totfact> 0.42007653E+05</totfact>
</mgrwt>
</event>
<event>
 4    1  0.1754914E-001  0.2296626E+02  0.7818608E-02  0.1692058E+00
         -3   -1    0    0    0  501 -0.00000000000E+00  0.00000000000E+00  0.13765965408E+02  0.13766279549E+02  0.93000000000E-01 0.  1.
          3   -1    0    0  501    0  0.00000000000E+00 -0.00000000000E+00 -0.95782105197E+01  0.95786620026E+01  0.93000000000E-01 0. -1.
        -11    1    1    2    0    0  0.93209197289E+01  0.61321277661E+01 -0.66747830449E+00  0.11177122308E+02  0.51100000000E-03 0. -1.
         11    1    1    2    0    0 -0.93209197289E+01 -0.61321277661E+01  0.48552331931E+01  0.12167819244E+02  0.51100000000E-03 0.  1.
<mgrwt>
<rscale>  0 0.22966258E+02</rscale>
<asrwt>0</asrwt>
<pdfrwt beam="2">  1        3 0.14736297E-02 0.22966258E+02</pdfrwt>
<pdfrwt beam="1">  1       -3 0.21178997E-02 0.22966258E+02</pdfrwt>
<totfact> 0.13052301E+06</totfact>
</mgrwt>
</event>
<event>
 4    1  0.1754914E-001  0.2172166E+02  0.7818608E-02  0.1713111E+00
         -3   -1    0    0    0  501 -0.00000000000E+00  0.00000000000E+00  0.47759326542E+02  0.47759417090E+02  0.93000000000E-01 0. -1.
          3   -1    0    0  501    0  0.00000000000E+00 -0.00000000000E+00 -0.24688667416E+01  0.24706177340E+01  0.93000000000E-01 0.  1.
        -11    1    1    2    0    0  0.77731591672E+01  0.70438617586E+01  0.29152876389E+02  0.30982707982E+02  0.51100000000E-03 0. -1.
         11    1    1    2    0    0 -0.77731591672E+01 -0.70438617586E+01  0.16137583412E+02  0.19247326842E+02  0.51100000000E-03 0.  1.
<mgrwt>
<rscale>  0 0.21721663E+02</rscale>
<asrwt>0</asrwt>
<pdfrwt beam="2">  1        3 0.37996735E-03 0.21721663E+02</pdfrwt>
<pdfrwt beam="1">  1       -3 0.73477295E-02 0.21721663E+02</pdfrwt>
<totfact> 0.13539487E+06</totfact>
</mgrwt>
</event>
<event>
 4    1  0.1754914E-001  0.3962645E+02  0.7818608E-02  0.1510979E+00
          3   -1    0    0  501    0  0.00000000000E+00  0.00000000000E+00  0.12490998623E+03  0.12491002085E+03  0.93000000000E-01 0. -1.
         -3   -1    0    0    0  501 -0.00000000000E+00 -0.00000000000E+00 -0.31420510635E+01  0.31434270925E+01  0.93000000000E-01 0.  1.
        -11    1    1    2    0    0  0.13456065206E+02 -0.12726800485E+02  0.83625826063E+02  0.85652296679E+02  0.51100000000E-03 0. -1.
         11    1    1    2    0    0 -0.13456065206E+02  0.12726800485E+02  0.38142109104E+02  0.42401151265E+02  0.51100000000E-03 0.  1.
<mgrwt>
<rscale>  0 0.39626449E+02</rscale>
<asrwt>0</asrwt>
<pdfrwt beam="1">  1        3 0.19217028E-01 0.39626449E+02</pdfrwt>
<pdfrwt beam="2">  1       -3 0.48350103E-03 0.39626449E+02</pdfrwt>
<totfact> 0.27792032E+05</totfact>
</mgrwt>
</event>
<event>
 4    1  0.1754914E-001  0.3712017E+02  0.7818608E-02  0.1530541E+00
          3   -1    0    0  501    0  0.00000000000E+00  0.00000000000E+00  0.60088939767E+01  0.60096136168E+01  0.93000000000E-01 0. -1.
         -3   -1    0    0    0  501 -0.00000000000E+00 -0.00000000000E+00 -0.57323634904E+02  0.57323710344E+02  0.93000000000E-01 0.  1.
        -11    1    1    2    0    0  0.24370851619E+00  0.16272358732E+02 -0.40882274278E+02  0.44002379515E+02  0.51100000000E-03 0.  1.
         11    1    1    2    0    0 -0.24370851619E+00 -0.16272358732E+02 -0.10432466649E+02  0.19330944446E+02  0.51100000000E-03 0. -1.
<mgrwt>
<rscale>  0 0.37120174E+02</rscale>
<asrwt>0</asrwt>
<pdfrwt beam="1">  1        3 0.92450642E-03 0.37120174E+02</pdfrwt>
<pdfrwt beam="2">  1       -3 0.88190816E-02 0.37120174E+02</pdfrwt>
<totfact> 0.38036574E+05</totfact>
</mgrwt>
</event>
<event>
 4    1  0.1754914E-001  0.3323183E+02  0.7818608E-02  0.1564887E+00
          3   -1    0    0  501    0  0.00000000000E+00  0.00000000000E+00  0.36751789387E+02  0.36751907055E+02  0.93000000000E-01 0. -1.
         -3   -1    0    0    0  501 -0.00000000000E+00 -0.00000000000E+00 -0.75118333572E+01  0.75124090268E+01  0.93000000000E-01 0.  1.
        -11    1    1    2    0    0  0.59739273452E+01  0.11094645631E+02  0.29046658876E+02  0.31662080818E+02  0.51100000000E-03 0. -1.
         11    1    1    2    0    0 -0.59739273452E+01 -0.11094645631E+02  0.19329715412E+00  0.12602235264E+02  0.51100000000E-03 0.  1.
<mgrwt>
<rscale>  0 0.33231832E+02</rscale>
<asrwt>0</asrwt>
<pdfrwt beam="1">  1        3 0.56541748E-02 0.33231832E+02</pdfrwt>
<pdfrwt beam="2">  1       -3 0.11557200E-02 0.33231832E+02</pdfrwt>
<totfact> 0.52245763E+05</totfact>
</mgrwt>
</event>
<event>
 4    1  0.1754914E-001  0.1246189E+03  0.7818608E-02  0.1235666E+00
         -3   -1    0    0    0  501 -0.00000000000E+00  0.00000000000E+00  0.11902841771E+02  0.11903205082E+02  0.93000000000E-01 0.  1.
          3   -1    0    0  501    0  0.00000000000E+00 -0.00000000000E+00 -0.32617430728E+03  0.32617432054E+03  0.93000000000E-01 0. -1.
        -11    1    1    2    0    0  0.38239308925E+01  0.53225090160E+02 -0.69861009437E+02  0.87909574620E+02  0.51100000000E-03 0.  1.
         11    1    1    2    0    0 -0.38239308925E+01 -0.53225090160E+02 -0.24441045608E+03  0.25016795100E+03  0.51100000000E-03 0. -1.
<mgrwt>
<rscale>  0 0.12461886E+03</rscale>
<asrwt>0</asrwt>
<pdfrwt beam="2">  1        3 0.50180685E-01 0.12461886E+03</pdfrwt>
<pdfrwt beam="1">  1       -3 0.18312356E-02 0.12461886E+03</pdfrwt>
<totfact> 0.96399969E+03</totfact>
</mgrwt>
</event>
<event>
 4    1  0.1754914E-001  0.2713245E+02  0.7818608E-02  0.1632136E+00
          3   -1    0    0  501    0  0.00000000000E+00  0.00000000000E+00  0.12454460371E+03  0.12454463843E+03  0.93000000000E-01 0. -1.
         -3   -1    0    0    0  501 -0.00000000000E+00 -0.00000000000E+00 -0.14762252936E+01  0.14791518236E+01  0.93000000000E-01 0.  1.
        -11    1    1    2    0    0 -0.13109226268E+02  0.14888048631E+01  0.76203207980E+02  0.77336907489E+02  0.51100000000E-03 0. -1.
         11    1    1    2    0    0  0.13109226268E+02 -0.14888048631E+01  0.46865170439E+02  0.48686882769E+02  0.51100000000E-03 0.  1.
<mgrwt>
<rscale>  0 0.27132452E+02</rscale>
<asrwt>0</asrwt>
<pdfrwt beam="1">  1        3 0.19160943E-01 0.27132452E+02</pdfrwt>
<pdfrwt beam="2">  1       -3 0.22733928E-03 0.27132452E+02</pdfrwt>
<totfact> 0.67921465E+05</totfact>
</mgrwt>
</event>
<event>
 4    1  0.1754914E-001  0.2653642E+02  0.7818608E-02  0.1639866E+00
          3   -1    0    0  501    0  0.00000000000E+00  0.00000000000E+00  0.21249559773E+02  0.21249763282E+02  0.93000000000E-01 0.  1.
         -3   -1    0    0    0  501 -0.00000000000E+00 -0.00000000000E+00 -0.82841538370E+01  0.82846758413E+01  0.93000000000E-01 0. -1.
        -11    1    1    2    0    0  0.11317829561E+02  0.57727405320E+01  0.10739393361E+02  0.16635875968E+02  0.51100000000E-03 0. -1.
         11    1    1    2    0    0 -0.11317829561E+02 -0.57727405320E+01  0.22260125749E+01  0.12898563155E+02  0.51100000000E-03 0.  1.
<mgrwt>
<rscale>  0 0.26536415E+02</rscale>
<asrwt>0</asrwt>
<pdfrwt beam="1">  1        3 0.32692188E-02 0.26536415E+02</pdfrwt>
<pdfrwt beam="2">  1       -3 0.12745410E-02 0.26536415E+02</pdfrwt>
<totfact> 0.92302580E+05</totfact>
</mgrwt>
</event>
<event>
 4    1  0.1754914E-001  0.4030829E+02  0.7818608E-02  0.1505955E+00
          3   -1    0    0  501    0  0.00000000000E+00  0.00000000000E+00  0.58311091922E+01  0.58318507707E+01  0.93000000000E-01 0. -1.
         -3   -1    0    0    0  501 -0.00000000000E+00 -0.00000000000E+00 -0.69653858365E+02  0.69653920450E+02  0.93000000000E-01 0.  1.
        -11    1    1    2    0    0  0.19087183914E+02  0.48128311968E+01 -0.23811894641E+02  0.30894825789E+02  0.51100000000E-03 0. -1.
         11    1    1    2    0    0 -0.19087183914E+02 -0.48128311968E+01 -0.40010854532E+02  0.44590945432E+02  0.51100000000E-03 0.  1.
<mgrwt>
<rscale>  0 0.40308291E+02</rscale>
<asrwt>0</asrwt>
<pdfrwt beam="1">  1        3 0.89715559E-03 0.40308291E+02</pdfrwt>
<pdfrwt beam="2">  1       -3 0.10716039E-01 0.40308291E+02</pdfrwt>
<totfact> 0.30184558E+05</totfact>
</mgrwt>
</event>
<event>
 4    1  0.1754914E-001  0.5137030E+02  0.7818608E-02  0.1438088E+00
         -3   -1    0    0    0  501 -0.00000000000E+00  0.00000000000E+00  0.10397559775E+03  0.10397563934E+03  0.93000000000E-01 0.  1.
          3   -1    0    0  501    0  0.00000000000E+00 -0.00000000000E+00 -0.63446334869E+01  0.63453150500E+01  0.93000000000E-01 0. -1.
        -11    1    1    2    0    0 -0.73559448491E+01  0.22602382263E+02  0.27911260622E+02  0.36660824845E+02  0.51100000000E-03 0. -1.
         11    1    1    2    0    0  0.73559448491E+01 -0.22602382263E+02  0.69719703637E+02  0.73660129542E+02  0.51100000000E-03 0.  1.
<mgrwt>
<rscale>  0 0.51370301E+02</rscale>
<asrwt>0</asrwt>
<pdfrwt beam="2">  1        3 0.97615314E-03 0.51370301E+02</pdfrwt>
<pdfrwt beam="1">  1       -3 0.15996301E-01 0.51370301E+02</pdfrwt>
<totfact> 0.15239135E+05</totfact>
</mgrwt>
</event>
<event>
 4    1  0.1754914E-001  0.4549641E+02  0.7818608E-02  0.1471266E+00
         -3   -1    0    0    0  501 -0.00000000000E+00  0.00000000000E+00  0.65285840295E+02  0.65285906534E+02  0.93000000000E-01 0. -1.
          3   -1    0    0  501    0  0.00000000000E+00 -0.00000000000E+00 -0.79260454265E+01  0.79265910140E+01  0.93000000000E-01 0.  1.
        -11    1    1    2    0    0 -0.20100659076E+02 -0.90306642859E+01  0.37767426084E+02  0.43726054772E+02  0.51100000000E-03 0. -1.
         11    1    1    2    0    0  0.20100659076E+02  0.90306642859E+01  0.19592368784E+02  0.29486442776E+02  0.51100000000E-03 0.  1.
<mgrwt>
<rscale>  0 0.45496414E+02</rscale>
<asrwt>0</asrwt>
<pdfrwt beam="2">  1        3 0.12194386E-02 0.45496414E+02</pdfrwt>
<pdfrwt beam="1">  1       -3 0.10044023E-01 0.45496414E+02</pdfrwt>
<totfact> 0.22540815E+05</totfact>
</mgrwt>
</event>
<event>
 4    1  0.1754914E-001  0.2441694E+02  0.7818608E-02  0.1669521E+00
          3   -1    0    0  501    0  0.00000000000E+00  0.00000000000E+00  0.45572377461E+02  0.45572472354E+02  0.93000000000E-01 0.  1.
         -3   -1    0    0    0  501 -0.00000000000E+00 -0.00000000000E+00 -0.32697908984E+01  0.32711131927E+01  0.93000000000E-01 0. -1.
        -11    1    1    2    0    0  0.11324102490E+02 -0.38920231642E+01  0.25911908328E+02  0.28544879313E+02  0.51100000000E-03 0. -1.
         11    1    1    2    0    0 -0.11324102490E+02  0.38920231642E+01  0.16390678234E+02  0.20298706234E+02  0.51100000000E-03 0.  1.
<mgrwt>
<rscale>  0 0.24416941E+02</rscale>
<asrwt>0</asrwt>
<pdfrwt beam="1">  1        3 0.70112440E-02 0.24416941E+02</pdfrwt>
<pdfrwt beam="2">  1       -3 0.50315377E-03 0.24416941E+02</pdfrwt>
<totfact> 0.10493748E+06</totfact>
</mgrwt>
</event>
<event>
 4    1  0.1754914E-001  0.4269440E+02  0.7818608E-02  0.1489271E+00
          3   -1    0    0  501    0  0.00000000000E+00  0.00000000000E+00  0.35902623184E+02  0.35902743634E+02  0.93000000000E-01 0.  1.
         -3   -1    0    0    0  501 -0.00000000000E+00 -0.00000000000E+00 -0.12692436815E+02  0.12692777526E+02  0.93000000000E-01 0. -1.
        -11    1    1    2    0    0 -0.11175127608E+02  0.43129320986E+01 -0.85068654059E+01  0.14691889587E+02  0.51100000000E-03 0. -1.
         11    1    1    2    0    0  0.11175127608E+02 -0.43129320986E+01  0.31717051774E+02  0.33903631573E+02  0.51100000000E-03 0.  1.
<mgrwt>
<rscale>  0 0.42694402E+02</rscale>
<asrwt>0</asrwt>
<pdfrwt beam="1">  1        3 0.55235159E-02 0.42694402E+02</pdfrwt>
<pdfrwt beam="2">  1       -3 0.19527181E-02 0.42694402E+02</pdfrwt>
<totfact> 0.28154220E+05</totfact>
</mgrwt>
</event>
<event>
 4    1  0.1754914E-001  0.4103438E+02  0.7818608E-02  0.1500735E+00
          3   -1    0    0  501    0  0.00000000000E+00  0.00000000000E+00  0.24383459120E+01  0.24401188058E+01  0.93000000000E-01 0.  1.
         -3   -1    0    0    0  501 -0.00000000000E+00 -0.00000000000E+00 -0.17257508015E+03  0.17257510521E+03  0.93000000000E-01 0. -1.
        -11    1    1    2    0    0 -0.18949972634E+02  0.69136013645E+01 -0.69078140085E+02  0.71963107107E+02  0.51100000000E-03 0. -1.
         11    1    1    2    0    0  0.18949972634E+02 -0.69136013645E+01 -0.10105859415E+03  0.10305211690E+03  0.51100000000E-03 0.  1.
<mgrwt>
<rscale>  0 0.41034379E+02</rscale>
<asrwt>0</asrwt>
<pdfrwt beam="1">  1        3 0.37526858E-03 0.41034379E+02</pdfrwt>
<pdfrwt beam="2">  1       -3 0.26550141E-01 0.41034379E+02</pdfrwt>
<totfact> 0.23145927E+05</totfact>
</mgrwt>
</event>
<event>
 4    1  0.1754914E-001  0.2345025E+02  0.7818608E-02  0.1684314E+00
          3   -1    0    0  501    0  0.00000000000E+00  0.00000000000E+00  0.21404150420E+02  0.21404352460E+02  0.93000000000E-01 0.  1.
         -3   -1    0    0    0  501 -0.00000000000E+00 -0.00000000000E+00 -0.64224157599E+01  0.64230890693E+01  0.93000000000E-01 0. -1.
        -11    1    1    2    0    0  0.94104474550E+01 -0.47031621857E+01  0.13634308133E+02  0.17221225693E+02  0.51100000000E-03 0.  1.
         11    1    1    2    0    0 -0.94104474550E+01  0.47031621857E+01  0.13474265274E+01  0.10606215836E+02  0.51100000000E-03 0. -1.
<mgrwt>
<rscale>  0 0.23450248E+02</rscale>
<asrwt>0</asrwt>
<pdfrwt beam="1">  1        3 0.32930135E-02 0.23450248E+02</pdfrwt>
<pdfrwt beam="2">  1       -3 0.98813131E-03 0.23450248E+02</pdfrwt>
<totfact> 0.12269798E+06</totfact>
</mgrwt>
</event>
<event>
 4    1  0.1754914E-001  0.2201184E+02  0.7818608E-02  0.1708047E+00
         -3   -1    0    0    0  501 -0.00000000000E+00  0.00000000000E+00  0.14351663805E+01  0.14381764634E+01  0.93000000000E-01 0.  1.
          3   -1    0    0  501    0  0.00000000000E+00 -0.00000000000E+00 -0.84310122614E+02  0.84310173907E+02  0.93000000000E-01 0. -1.
        -11    1    1    2    0    0  0.13632645944E+01  0.10230750980E+02 -0.56324182940E+02  0.57262032273E+02  0.51100000000E-03 0. -1.
         11    1    1    2    0    0 -0.13632645944E+01 -0.10230750980E+02 -0.26550773294E+02  0.28486318097E+02  0.51100000000E-03 0.  1.
<mgrwt>
<rscale>  0 0.22011843E+02</rscale>
<asrwt>0</asrwt>
<pdfrwt beam="2">  1        3 0.12971020E-01 0.22011843E+02</pdfrwt>
<pdfrwt beam="1">  1       -3 0.22103038E-03 0.22011843E+02</pdfrwt>
<totfact> 0.11931324E+06</totfact>
</mgrwt>
</event>
<event>
 4    1  0.1754914E-001  0.3062347E+02  0.7818608E-02  0.1591298E+00
         -3   -1    0    0    0  501 -0.00000000000E+00  0.00000000000E+00  0.16293225893E+02  0.16293491308E+02  0.93000000000E-01 0. -1.
          3   -1    0    0  501    0  0.00000000000E+00 -0.00000000000E+00 -0.14388832694E+02  0.14389133236E+02  0.93000000000E-01 0.  1.
        -11    1    1    2    0    0  0.67829352539E+01  0.12882214557E+02 -0.37992762356E+01  0.15046400325E+02  0.51100000000E-03 0.  1.
         11    1    1    2    0    0 -0.67829352539E+01 -0.12882214557E+02  0.57036694350E+01  0.15636224220E+02  0.51100000000E-03 0. -1.
<mgrwt>
<rscale>  0 0.30623467E+02</rscale>
<asrwt>0</asrwt>
<pdfrwt beam="2">  1        3 0.22137101E-02 0.30623467E+02</pdfrwt>
<pdfrwt beam="1">  1       -3 0.25066937E-02 0.30623467E+02</pdfrwt>
<totfact> 0.66033926E+05</totfact>
</mgrwt>
</event>
<event>
 4    1  0.1754914E-001  0.2450776E+02  0.7818608E-02  0.1668174E+00
          3   -1    0    0  501    0  0.00000000000E+00  0.00000000000E+00  0.61072402428E+02  0.61072473237E+02  0.93000000000E-01 0. -1.
         -3   -1    0    0    0  501 -0.00000000000E+00 -0.00000000000E+00 -0.24577296352E+01  0.24594885565E+01  0.93000000000E-01 0.  1.
        -11    1    1    2    0    0  0.10060745908E+02  0.48258046542E+01  0.16178168177E+02  0.19652992765E+02  0.51100000000E-03 0.  1.
         11    1    1    2    0    0 -0.10060745908E+02 -0.48258046542E+01  0.42436504616E+02  0.43878969029E+02  0.51100000000E-03 0. -1.
<mgrwt>
<rscale>  0 0.24507760E+02</rscale>
<asrwt>0</asrwt>
<pdfrwt beam="1">  1        3 0.93958944E-02 0.24507760E+02</pdfrwt>
<pdfrwt beam="2">  1       -3 0.37825302E-03 0.24507760E+02</pdfrwt>
<totfact> 0.99784103E+05</totfact>
</mgrwt>
</event>
<event>
 4    1  0.1754914E-001  0.3370125E+02  0.7818608E-02  0.1560446E+00
          3   -1    0    0  501    0  0.00000000000E+00  0.00000000000E+00  0.72098416685E+01  0.72104414487E+01  0.93000000000E-01 0.  1.
         -3   -1    0    0    0  501 -0.00000000000E+00 -0.00000000000E+00 -0.39380491559E+02  0.39380601372E+02  0.93000000000E-01 0. -1.
        -11    1    1    2    0    0 -0.59035781208E+01 -0.15741337857E+02 -0.17662607891E+02  0.24384619537E+02  0.51100000000E-03 0. -1.
         11    1    1    2    0    0  0.59035781208E+01  0.15741337857E+02 -0.14508041999E+02  0.22206423284E+02  0.51100000000E-03 0.  1.
<mgrwt>
<rscale>  0 0.33701255E+02</rscale>
<asrwt>0</asrwt>
<pdfrwt beam="1">  1        3 0.11092610E-02 0.33701255E+02</pdfrwt>
<pdfrwt beam="2">  1       -3 0.60585916E-02 0.33701255E+02</pdfrwt>
<totfact> 0.50200816E+05</totfact>
</mgrwt>
</event>
<event>
 4    1  0.1754914E-001  0.4758607E+02  0.7818608E-02  0.1458814E+00
         -3   -1    0    0    0  501 -0.00000000000E+00  0.00000000000E+00  0.26481467615E+02  0.26481630918E+02  0.93000000000E-01 0.  1.
          3   -1    0    0  501    0  0.00000000000E+00 -0.00000000000E+00 -0.21377205422E+02  0.21377407716E+02  0.93000000000E-01 0. -1.
        -11    1    1    2    0    0  0.21204896624E+02 -0.86011825101E+01 -0.40029662068E+01  0.23230405079E+02  0.51100000000E-03 0. -1.
         11    1    1    2    0    0 -0.21204896624E+02  0.86011825101E+01  0.91072283999E+01  0.24628633555E+02  0.51100000000E-03 0.  1.
<mgrwt>
<rscale>  0 0.47586070E+02</rscale>
<asrwt>0</asrwt>
<pdfrwt beam="2">  1        3 0.32888289E-02 0.47586070E+02</pdfrwt>
<pdfrwt beam="1">  1       -3 0.40741001E-02 0.47586070E+02</pdfrwt>
<totfact> 0.21534583E+05</totfact>
</mgrwt>
</event>
<event>
 4    1  0.1754914E-001  0.3575666E+02  0.7818608E-02  0.1541982E+00
          3   -1    0    0  501    0  0.00000000000E+00  0.00000000000E+00  0.98995793769E+02  0.98995837453E+02  0.93000000000E-01 0.  1.
         -3   -1    0    0    0  501 -0.00000000000E+00 -0.00000000000E+00 -0.32280557710E+01  0.32293951541E+01  0.93000000000E-01 0. -1.
        -11    1    1    2    0    0 -0.76559059206E+01  0.15143599669E+02  0.31789136956E+02  0.36034576938E+02  0.51100000000E-03 0.  1.
         11    1    1    2    0    0  0.76559059206E+01 -0.15143599669E+02  0.63978601042E+02  0.66190655669E+02  0.51100000000E-03 0. -1.
<mgrwt>
<rscale>  0 0.35756657E+02</rscale>
<asrwt>0</asrwt>
<pdfrwt beam="1">  1        3 0.15230228E-01 0.35756657E+02</pdfrwt>
<pdfrwt beam="2">  1       -3 0.49673038E-03 0.35756657E+02</pdfrwt>
<totfact> 0.37737387E+05</totfact>
</mgrwt>
</event>
<event>
 4    1  0.1754914E-001  0.2085843E+02  0.7818608E-02  0.1728777E+00
         -3   -1    0    0    0  501 -0.00000000000E+00  0.00000000000E+00  0.58423342039E+02  0.58423416059E+02  0.93000000000E-01 0. -1.
          3   -1    0    0  501    0  0.00000000000E+00 -0.00000000000E+00 -0.18604934129E+01  0.18628163461E+01  0.93000000000E-01 0.  1.
        -11    1    1    2    0    0  0.10224003419E+02  0.20242906733E+01  0.29364767345E+02  0.31159550063E+02  0.51100000000E-03 0.  1.
         11    1    1    2    0    0 -0.10224003419E+02 -0.20242906733E+01  0.27198081281E+02  0.29126682342E+02  0.51100000000E-03 0. -1.
<mgrwt>
<rscale>  0 0.20858427E+02</rscale>
<asrwt>0</asrwt>
<pdfrwt beam="2">  1        3 0.28641412E-03 0.20858427E+02</pdfrwt>
<pdfrwt beam="1">  1       -3 0.89883914E-02 0.20858427E+02</pdfrwt>
<totfact> 0.14367543E+06</totfact>
</mgrwt>
</event>
<event>
 4    1  0.1754914E-001  0.2569203E+02  0.7818608E-02  0.1651256E+00
         -3   -1    0    0    0  501 -0.00000000000E+00  0.00000000000E+00  0.49474024050E+02  0.49474111459E+02  0.93000000000E-01 0. -1.
          3   -1    0    0  501    0  0.00000000000E+00 -0.00000000000E+00 -0.33347520692E+01  0.33360486152E+01  0.93000000000E-01 0.  1.
        -11    1    1    2    0    0  0.81281650062E+01  0.85409716057E+01  0.33551691796E+02  0.35563060681E+02  0.51100000000E-03 0. -1.
         11    1    1    2    0    0 -0.81281650062E+01 -0.85409716057E+01  0.12587580185E+02  0.17247099394E+02  0.51100000000E-03 0.  1.
<mgrwt>
<rscale>  0 0.25692034E+02</rscale>
<asrwt>0</asrwt>
<pdfrwt beam="2">  1        3 0.51314527E-03 0.25692034E+02</pdfrwt>
<pdfrwt beam="1">  1       -3 0.76114943E-02 0.25692034E+02</pdfrwt>
<totfact> 0.92496832E+05</totfact>
</mgrwt>
</event>
<event>
 4    1  0.1754914E-001  0.2109786E+02  0.7818608E-02  0.1724338E+00
         -3   -1    0    0    0  501 -0.00000000000E+00  0.00000000000E+00  0.58806633980E+01  0.58813987282E+01  0.93000000000E-01 0. -1.
          3   -1    0    0  501    0  0.00000000000E+00 -0.00000000000E+00 -0.18920986423E+02  0.18921214977E+02  0.93000000000E-01 0.  1.
        -11    1    1    2    0    0 -0.93514582528E+00  0.10331666932E+02 -0.42704741990E+01  0.11218502104E+02  0.51100000000E-03 0.  1.
         11    1    1    2    0    0  0.93514582528E+00 -0.10331666932E+02 -0.87698488258E+01  0.13584111601E+02  0.51100000000E-03 0. -1.
<mgrwt>
<rscale>  0 0.21097858E+02</rscale>
<asrwt>0</asrwt>
<pdfrwt beam="2">  1        3 0.29109951E-02 0.21097858E+02</pdfrwt>
<pdfrwt beam="1">  1       -3 0.90479160E-03 0.21097858E+02</pdfrwt>
<totfact> 0.15653268E+06</totfact>
</mgrwt>
</event>
<event>
 4    1  0.1754914E-001  0.2310179E+02  0.7818608E-02  0.1689865E+00
          3   -1    0    0  501    0  0.00000000000E+00  0.00000000000E+00  0.14519868931E+01  0.14549621774E+01  0.93000000000E-01 0. -1.
         -3   -1    0    0    0  501 -0.00000000000E+00 -0.00000000000E+00 -0.91792987807E+02  0.91793034918E+02  0.93000000000E-01 0.  1.
        -11    1    1    2    0    0  0.85439253904E+01  0.75967781173E+01 -0.51819453470E+02  0.53065671173E+02  0.51100000000E-03 0. -1.
         11    1    1    2    0    0 -0.85439253904E+01 -0.75967781173E+01 -0.38521547444E+02  0.40182325923E+02  0.51100000000E-03 0.  1.
<mgrwt>
<rscale>  0 0.23101786E+02</rscale>
<asrwt>0</asrwt>
<pdfrwt beam="1">  1        3 0.22361516E-03 0.23101786E+02</pdfrwt>
<pdfrwt beam="2">  1       -3 0.14122226E-01 0.23101786E+02</pdfrwt>
<totfact> 0.10528865E+06</totfact>
</mgrwt>
</event>
<event>
 4    1  0.1754914E-001  0.2569560E+02  0.7818608E-02  0.1651207E+00
         -3   -1    0    0    0  501 -0.00000000000E+00  0.00000000000E+00  0.10769007900E+02  0.10769409462E+02  0.93000000000E-01 0.  1.
          3   -1    0    0  501    0  0.00000000000E+00 -0.00000000000E+00 -0.15327038917E+02  0.15327321063E+02  0.93000000000E-01 0. -1.
        -11    1    1    2    0    0 -0.59410046119E+01 -0.96058838246E+01 -0.84981203435E+01  0.14134588409E+02  0.51100000000E-03 0. -1.
         11    1    1    2    0    0  0.59410046119E+01  0.96058838246E+01  0.39400893263E+01  0.11962142116E+02  0.51100000000E-03 0.  1.
<mgrwt>
<rscale>  0 0.25695597E+02</rscale>
<asrwt>0</asrwt>
<pdfrwt beam="2">  1        3 0.23580586E-02 0.25695597E+02</pdfrwt>
<pdfrwt beam="1">  1       -3 0.16568230E-02 0.25695597E+02</pdfrwt>
<totfact> 0.10047168E+06</totfact>
</mgrwt>
</event>
<event>
 4    1  0.1754914E-001  0.2180502E+02  0.7818608E-02  0.1711646E+00
          3   -1    0    0  501    0  0.00000000000E+00  0.00000000000E+00  0.66636882169E+02  0.66636947066E+02  0.93000000000E-01 0.  1.
         -3   -1    0    0    0  501 -0.00000000000E+00 -0.00000000000E+00 -0.17824896571E+01  0.17849141093E+01  0.93000000000E-01 0. -1.
        -11    1    1    2    0    0 -0.47573918251E+01 -0.88829714419E+01  0.45488062207E+02  0.46590811993E+02  0.51100000000E-03 0.  1.
         11    1    1    2    0    0  0.47573918251E+01  0.88829714419E+01  0.19366330305E+02  0.21831049182E+02  0.51100000000E-03 0. -1.
<mgrwt>
<rscale>  0 0.21805019E+02</rscale>
<asrwt>0</asrwt>
<pdfrwt beam="1">  1        3 0.10252017E-01 0.21805019E+02</pdfrwt>
<pdfrwt beam="2">  1       -3 0.27442072E-03 0.21805019E+02</pdfrwt>
<totfact> 0.12748972E+06</totfact>
</mgrwt>
</event>
<event>
 4    1  0.1754914E-001  0.3831019E+02  0.7818608E-02  0.1521028E+00
         -3   -1    0    0    0  501 -0.00000000000E+00  0.00000000000E+00  0.45013169275E+01  0.45022775438E+01  0.93000000000E-01 0. -1.
          3   -1    0    0  501    0  0.00000000000E+00 -0.00000000000E+00 -0.81503718416E+02  0.81503771475E+02  0.93000000000E-01 0.  1.
        -11    1    1    2    0    0  0.11016105076E+02 -0.80373881697E+01 -0.83009768440E+01  0.15964347668E+02  0.51100000000E-03 0. -1.
         11    1    1    2    0    0 -0.11016105076E+02  0.80373881697E+01 -0.68701424644E+02  0.70041701351E+02  0.51100000000E-03 0.  1.
<mgrwt>
<rscale>  0 0.38310190E+02</rscale>
<asrwt>0</asrwt>
<pdfrwt beam="2">  1        3 0.12539110E-01 0.38310190E+02</pdfrwt>
<pdfrwt beam="1">  1       -3 0.69258833E-03 0.38310190E+02</pdfrwt>
<totfact> 0.33254330E+05</totfact>
</mgrwt>
</event>
<event>
 4    1  0.1754914E-001  0.6230122E+02  0.7818608E-02  0.1388421E+00
         -3   -1    0    0    0  501 -0.00000000000E+00  0.00000000000E+00  0.10515199245E+02  0.10515610499E+02  0.93000000000E-01 0. -1.
          3   -1    0    0  501    0  0.00000000000E+00 -0.00000000000E+00 -0.92279472331E+02  0.92279519194E+02  0.93000000000E-01 0.  1.
        -11    1    1    2    0    0  0.29802020245E+02  0.14503630962E+01 -0.55648823345E+02  0.63143135048E+02  0.51100000000E-03 0.  1.
         11    1    1    2    0    0 -0.29802020245E+02 -0.14503630962E+01 -0.26115449741E+02  0.39651994644E+02  0.51100000000E-03 0. -1.
<mgrwt>
<rscale>  0 0.62301223E+02</rscale>
<asrwt>0</asrwt>
<pdfrwt beam="2">  1        3 0.14196877E-01 0.62301223E+02</pdfrwt>
<pdfrwt beam="1">  1       -3 0.16177583E-02 0.62301223E+02</pdfrwt>
<totfact> 0.94709986E+04</totfact>
</mgrwt>
</event>
<event>
 4    1  0.1754914E-001  0.4484277E+02  0.7818608E-02  0.1475326E+00
         -3   -1    0    0    0  501 -0.00000000000E+00  0.00000000000E+00  0.28664901141E+02  0.28665052004E+02  0.93000000000E-01 0.  1.
          3   -1    0    0  501    0  0.00000000000E+00 -0.00000000000E+00 -0.17537449341E+02  0.17537695926E+02  0.93000000000E-01 0. -1.
        -11    1    1    2    0    0 -0.58834858232E+01 -0.20036673019E+02 -0.28468518605E+01  0.21075773696E+02  0.51100000000E-03 0. -1.
         11    1    1    2    0    0  0.58834858232E+01  0.20036673019E+02  0.13974303660E+02  0.25126974234E+02  0.51100000000E-03 0.  1.
<mgrwt>
<rscale>  0 0.44842767E+02</rscale>
<asrwt>0</asrwt>
<pdfrwt beam="2">  1        3 0.26980998E-02 0.44842767E+02</pdfrwt>
<pdfrwt beam="1">  1       -3 0.44100153E-02 0.44842767E+02</pdfrwt>
<totfact> 0.25093784E+05</totfact>
</mgrwt>
</event>
<event>
 4    1  0.1754914E-001  0.2263266E+02  0.7818608E-02  0.1697535E+00
          3   -1    0    0  501    0  0.00000000000E+00  0.00000000000E+00  0.44536191635E+01  0.44545900657E+01  0.93000000000E-01 0. -1.
         -3   -1    0    0    0  501 -0.00000000000E+00 -0.00000000000E+00 -0.28749801936E+02  0.28749952354E+02  0.93000000000E-01 0.  1.
        -11    1    1    2    0    0  0.51328913260E+01 -0.88061426150E+01 -0.49361623272E+01  0.11325211693E+02  0.51100000000E-03 0. -1.
         11    1    1    2    0    0 -0.51328913260E+01  0.88061426150E+01 -0.19360020445E+02  0.21879330726E+02  0.51100000000E-03 0.  1.
<mgrwt>
<rscale>  0 0.22632656E+02</rscale>
<asrwt>0</asrwt>
<pdfrwt beam="1">  1        3 0.68525845E-03 0.22632656E+02</pdfrwt>
<pdfrwt beam="2">  1       -3 0.44231326E-02 0.22632656E+02</pdfrwt>
<totfact> 0.13041023E+06</totfact>
</mgrwt>
</event>
<event>
 4    1  0.1754914E-001  0.2851005E+02  0.7818608E-02  0.1615167E+00
          3   -1    0    0  501    0  0.00000000000E+00  0.00000000000E+00  0.75122812502E+01  0.75128568855E+01  0.93000000000E-01 0.  1.
         -3   -1    0    0    0  501 -0.00000000000E+00 -0.00000000000E+00 -0.27048117572E+02  0.27048277453E+02  0.93000000000E-01 0. -1.
        -11    1    1    2    0    0 -0.76609008370E+01  0.96125638975E+01 -0.10166438566E+01  0.12333870086E+02  0.51100000000E-03 0.  1.
         11    1    1    2    0    0  0.76609008370E+01 -0.96125638975E+01 -0.18519192465E+02  0.22227264252E+02  0.51100000000E-03 0. -1.
<mgrwt>
<rscale>  0 0.28510053E+02</rscale>
<asrwt>0</asrwt>
<pdfrwt beam="1">  1        3 0.11557922E-02 0.28510053E+02</pdfrwt>
<pdfrwt beam="2">  1       -3 0.41613054E-02 0.28510053E+02</pdfrwt>
<totfact> 0.77039140E+05</totfact>
</mgrwt>
</event>
<event>
 4    1  0.1754914E-001  0.3666211E+02  0.7818608E-02  0.1534317E+00
          3   -1    0    0  501    0  0.00000000000E+00  0.00000000000E+00  0.47645518867E+01  0.47654594407E+01  0.93000000000E-01 0.  1.
         -3   -1    0    0    0  501 -0.00000000000E+00 -0.00000000000E+00 -0.70518948282E+02  0.70519009606E+02  0.93000000000E-01 0. -1.
        -11    1    1    2    0    0  0.76846887769E+01 -0.75881574694E+01 -0.63293005545E+02  0.64207780888E+02  0.51100000000E-03 0. -1.
         11    1    1    2    0    0 -0.76846887769E+01  0.75881574694E+01 -0.24613908499E+01  0.11076688158E+02  0.51100000000E-03 0.  1.
<mgrwt>
<rscale>  0 0.36662114E+02</rscale>
<asrwt>0</asrwt>
<pdfrwt beam="1">  1        3 0.73308256E-03 0.36662114E+02</pdfrwt>
<pdfrwt beam="2">  1       -3 0.10849143E-01 0.36662114E+02</pdfrwt>
<totfact> 0.37984444E+05</totfact>
</mgrwt>
</event>
<event>
 4    1  0.1754914E-001  0.2368215E+02  0.7818608E-02  0.1680685E+00
         -3   -1    0    0    0  501 -0.00000000000E+00  0.00000000000E+00  0.86127967026E+01  0.86132987897E+01  0.93000000000E-01 0.  1.
          3   -1    0    0  501    0  0.00000000000E+00 -0.00000000000E+00 -0.16278283381E+02  0.16278549040E+02  0.93000000000E-01 0. -1.
        -11    1    1    2    0    0  0.10558051684E+02 -0.50045099450E+01 -0.58527670811E+01  0.13067993646E+02  0.51100000000E-03 0. -1.
         11    1    1    2    0    0 -0.10558051684E+02  0.50045099450E+01 -0.18127195977E+01  0.11823854184E+02  0.51100000000E-03 0.  1.
<mgrwt>
<rscale>  0 0.23682154E+02</rscale>
<asrwt>0</asrwt>
<pdfrwt beam="2">  1        3 0.25044103E-02 0.23682154E+02</pdfrwt>
<pdfrwt beam="1">  1       -3 0.13251047E-02 0.23682154E+02</pdfrwt>
<totfact> 0.12124680E+06</totfact>
</mgrwt>
</event>
<event>
 4    1  0.1754914E-001  0.2378612E+02  0.7818608E-02  0.1679075E+00
          3   -1    0    0  501    0  0.00000000000E+00  0.00000000000E+00  0.31902824962E+02  0.31902960514E+02  0.93000000000E-01 0. -1.
         -3   -1    0    0    0  501 -0.00000000000E+00 -0.00000000000E+00 -0.44329845044E+01  0.44339599250E+01  0.93000000000E-01 0.  1.
        -11    1    1    2    0    0 -0.10881766073E+02  0.23875739047E+01  0.20094719641E+02  0.22976316061E+02  0.51100000000E-03 0. -1.
         11    1    1    2    0    0  0.10881766073E+02 -0.23875739047E+01  0.73751208166E+01  0.13360604378E+02  0.51100000000E-03 0.  1.
<mgrwt>
<rscale>  0 0.23786123E+02</rscale>
<asrwt>0</asrwt>
<pdfrwt beam="1">  1        3 0.49082124E-02 0.23786123E+02</pdfrwt>
<pdfrwt beam="2">  1       -3 0.68208307E-03 0.23786123E+02</pdfrwt>
<totfact> 0.11560326E+06</totfact>
</mgrwt>
</event>
<event>
 4    1  0.1754914E-001  0.2118780E+02  0.7818608E-02  0.1722689E+00
          3   -1    0    0  501    0  0.00000000000E+00  0.00000000000E+00  0.25458342094E+02  0.25458511959E+02  0.93000000000E-01 0. -1.
         -3   -1    0    0    0  501 -0.00000000000E+00 -0.00000000000E+00 -0.44077307427E+01  0.44087117506E+01  0.93000000000E-01 0.  1.
        -11    1    1    2    0    0 -0.19821798816E+01  0.10096445278E+02  0.69693557435E+01  0.12427355474E+02  0.51100000000E-03 0. -1.
         11    1    1    2    0    0  0.19821798816E+01 -0.10096445278E+02  0.14081255608E+02  0.17439868236E+02  0.51100000000E-03 0.  1.
<mgrwt>
<rscale>  0 0.21187799E+02</rscale>
<asrwt>0</asrwt>
<pdfrwt beam="1">  1        3 0.39167566E-02 0.21187799E+02</pdfrwt>
<pdfrwt beam="2">  1       -3 0.67820095E-03 0.21187799E+02</pdfrwt>
<totfact> 0.15241209E+06</totfact>
</mgrwt>
</event>
<event>
 4    1  0.1754914E-001  0.3428921E+02  0.7818608E-02  0.1555005E+00
          3   -1    0    0  501    0  0.00000000000E+00  0.00000000000E+00  0.30936348877E+02  0.30936488664E+02  0.93000000000E-01 0. -1.
         -3   -1    0    0    0  501 -0.00000000000E+00 -0.00000000000E+00 -0.95009750847E+01  0.95014302376E+01  0.93000000000E-01 0.  1.
        -11    1    1    2    0    0 -0.14966678162E+02 -0.83608943386E+01  0.10508381043E+02  0.20108010388E+02  0.51100000000E-03 0. -1.
         11    1    1    2    0    0  0.14966678162E+02  0.83608943386E+01  0.10926992750E+02  0.20329908514E+02  0.51100000000E-03 0.  1.
<mgrwt>
<rscale>  0 0.34289212E+02</rscale>
<asrwt>0</asrwt>
<pdfrwt beam="1">  1        3 0.47594841E-02 0.34289212E+02</pdfrwt>
<pdfrwt beam="2">  1       -3 0.14617342E-02 0.34289212E+02</pdfrwt>
<totfact> 0.49051437E+05</totfact>
</mgrwt>
</event>
<event>
 4    1  0.1754914E-001  0.3014252E+02  0.7818608E-02  0.1596519E+00
          3   -1    0    0  501    0  0.00000000000E+00  0.00000000000E+00  0.22667566520E+01  0.22686636417E+01  0.93000000000E-01 0. -1.
         -3   -1    0    0    0  501 -0.00000000000E+00 -0.00000000000E+00 -0.10016202977E+03  0.10016207295E+03  0.93000000000E-01 0.  1.
        -11    1    1    2    0    0  0.14366031304E+02  0.37429147487E+01 -0.57776821889E+02  0.59653611911E+02  0.51100000000E-03 0. -1.
         11    1    1    2    0    0 -0.14366031304E+02 -0.37429147487E+01 -0.40118451234E+02  0.42777124680E+02  0.51100000000E-03 0.  1.
<mgrwt>
<rscale>  0 0.30142516E+02</rscale>
<asrwt>0</asrwt>
<pdfrwt beam="1">  1        3 0.34888188E-03 0.30142516E+02</pdfrwt>
<pdfrwt beam="2">  1       -3 0.15409690E-01 0.30142516E+02</pdfrwt>
<totfact> 0.56363747E+05</totfact>
</mgrwt>
</event>
<event>
 4    1  0.1754914E-001  0.2841525E+02  0.7818608E-02  0.1616297E+00
          3   -1    0    0  501    0  0.00000000000E+00  0.00000000000E+00  0.40414554373E+01  0.40425253310E+01  0.93000000000E-01 0.  1.
         -3   -1    0    0    0  501 -0.00000000000E+00 -0.00000000000E+00 -0.49938789050E+02  0.49938875646E+02  0.93000000000E-01 0. -1.
        -11    1    1    2    0    0 -0.13606962838E+02 -0.36505647283E+01 -0.26441565284E+02  0.29960514606E+02  0.51100000000E-03 0. -1.
         11    1    1    2    0    0  0.13606962838E+02  0.36505647283E+01 -0.19455768328E+02  0.24020886371E+02  0.51100000000E-03 0.  1.
<mgrwt>
<rscale>  0 0.28415250E+02</rscale>
<asrwt>0</asrwt>
<pdfrwt beam="1">  1        3 0.62185137E-03 0.28415250E+02</pdfrwt>
<pdfrwt beam="2">  1       -3 0.76829791E-02 0.28415250E+02</pdfrwt>
<totfact> 0.73255010E+05</totfact>
</mgrwt>
</event>
<event>
 4    1  0.1754914E-001  0.2694565E+02  0.7818608E-02  0.1634532E+00
          3   -1    0    0  501    0  0.00000000000E+00  0.00000000000E+00  0.13536327104E+02  0.13536646574E+02  0.93000000000E-01 0.  1.
         -3   -1    0    0    0  501 -0.00000000000E+00 -0.00000000000E+00 -0.13408978436E+02  0.13409300940E+02  0.93000000000E-01 0. -1.
        -11    1    1    2    0    0  0.51062974675E-01  0.10529152729E+02 -0.83418524578E+01  0.13433248576E+02  0.51100000000E-03 0. -1.
         11    1    1    2    0    0 -0.51062974675E-01 -0.10529152729E+02  0.84692011263E+01  0.13512698938E+02  0.51100000000E-03 0.  1.
<mgrwt>
<rscale>  0 0.26945647E+02</rscale>
<asrwt>0</asrwt>
<pdfrwt beam="1">  1        3 0.20825612E-02 0.26945647E+02</pdfrwt>
<pdfrwt beam="2">  1       -3 0.20629691E-02 0.26945647E+02</pdfrwt>
<totfact> 0.89898855E+05</totfact>
</mgrwt>
</event>
<event>
 4    1  0.1754914E-001  0.2497154E+02  0.7818608E-02  0.1661411E+00
         -3   -1    0    0    0  501 -0.00000000000E+00  0.00000000000E+00  0.28912837189E+02  0.28912986759E+02  0.93000000000E-01 0. -1.
          3   -1    0    0  501    0  0.00000000000E+00 -0.00000000000E+00 -0.53913108528E+01  0.53921129172E+01  0.93000000000E-01 0.  1.
        -11    1    1    2    0    0 -0.80070356636E-02  0.11297660494E+02  0.44581530155E+01  0.12145465217E+02  0.51100000000E-03 0.  1.
         11    1    1    2    0    0  0.80070356636E-02 -0.11297660494E+02  0.19063373321E+02  0.22159634460E+02  0.51100000000E-03 0. -1.
<mgrwt>
<rscale>  0 0.24971537E+02</rscale>
<asrwt>0</asrwt>
<pdfrwt beam="2">  1        3 0.82950565E-03 0.24971537E+02</pdfrwt>
<pdfrwt beam="1">  1       -3 0.44482019E-02 0.24971537E+02</pdfrwt>
<totfact> 0.10434189E+06</totfact>
</mgrwt>
</event>
<event>
 4    1  0.1754914E-001  0.2105281E+02  0.7818608E-02  0.1725167E+00
         -3   -1    0    0    0  501 -0.00000000000E+00  0.00000000000E+00  0.11374189995E+02  0.11374570192E+02  0.93000000000E-01 0.  1.
          3   -1    0    0  501    0  0.00000000000E+00 -0.00000000000E+00 -0.97410455563E+01  0.97414894924E+01  0.93000000000E-01 0. -1.
        -11    1    1    2    0    0  0.10405198879E+02  0.15655358301E+01  0.11109459674E+01  0.10580797103E+02  0.51100000000E-03 0.  1.
         11    1    1    2    0    0 -0.10405198879E+02 -0.15655358301E+01  0.52219847138E+00  0.10535262581E+02  0.51100000000E-03 0. -1.
<mgrwt>
<rscale>  0 0.21052810E+02</rscale>
<asrwt>0</asrwt>
<pdfrwt beam="2">  1        3 0.14986858E-02 0.21052810E+02</pdfrwt>
<pdfrwt beam="1">  1       -3 0.17499388E-02 0.21052810E+02</pdfrwt>
<totfact> 0.15934501E+06</totfact>
</mgrwt>
</event>
<event>
 4    1  0.1754914E-001  0.2645329E+02  0.7818608E-02  0.1640964E+00
          3   -1    0    0  501    0  0.00000000000E+00  0.00000000000E+00  0.57309017335E+01  0.57316562771E+01  0.93000000000E-01 0.  1.
         -3   -1    0    0    0  501 -0.00000000000E+00 -0.00000000000E+00 -0.30523628930E+02  0.30523770607E+02  0.93000000000E-01 0. -1.
        -11    1    1    2    0    0  0.10036035289E+02  0.62068913075E+01 -0.20584915162E+02  0.23727331003E+02  0.51100000000E-03 0. -1.
         11    1    1    2    0    0 -0.10036035289E+02 -0.62068913075E+01 -0.42078120347E+01  0.12528095881E+02  0.51100000000E-03 0.  1.
<mgrwt>
<rscale>  0 0.26453292E+02</rscale>
<asrwt>0</asrwt>
<pdfrwt beam="1">  1        3 0.88174615E-03 0.26453292E+02</pdfrwt>
<pdfrwt beam="2">  1       -3 0.46960118E-02 0.26453292E+02</pdfrwt>
<totfact> 0.90986390E+05</totfact>
</mgrwt>
</event>
<event>
 4    1  0.1754914E-001  0.4099260E+02  0.7818608E-02  0.1501031E+00
          3   -1    0    0  501    0  0.00000000000E+00  0.00000000000E+00  0.51709521965E+01  0.51717884352E+01  0.93000000000E-01 0. -1.
         -3   -1    0    0    0  501 -0.00000000000E+00 -0.00000000000E+00 -0.81234551687E+02  0.81234604921E+02  0.93000000000E-01 0.  1.
        -11    1    1    2    0    0 -0.90418216415E+01 -0.84889763671E+01 -0.36355909350E+01  0.12924193594E+02  0.51100000000E-03 0. -1.
         11    1    1    2    0    0  0.90418216415E+01  0.84889763671E+01 -0.72428008555E+02  0.73482199762E+02  0.51100000000E-03 0.  1.
<mgrwt>
<rscale>  0 0.40992605E+02</rscale>
<asrwt>0</asrwt>
<pdfrwt beam="1">  1        3 0.79559959E-03 0.40992605E+02</pdfrwt>
<pdfrwt beam="2">  1       -3 0.12497691E-01 0.40992605E+02</pdfrwt>
<totfact> 0.28195033E+05</totfact>
</mgrwt>
</event>
<event>
 4    1  0.1754914E-001  0.3183594E+02  0.7818608E-02  0.1578638E+00
          3   -1    0    0  501    0  0.00000000000E+00  0.00000000000E+00  0.41506409910E+02  0.41506514099E+02  0.93000000000E-01 0.  1.
         -3   -1    0    0    0  501 -0.00000000000E+00 -0.00000000000E+00 -0.61041771549E+01  0.61048855631E+01  0.93000000000E-01 0. -1.
        -11    1    1    2    0    0  0.85566202279E+01 -0.54946476020E+01  0.36015931784E+02  0.37423979539E+02  0.51100000000E-03 0.  1.
         11    1    1    2    0    0 -0.85566202279E+01  0.54946476020E+01 -0.61369902922E+00  0.10187420123E+02  0.51100000000E-03 0. -1.
<mgrwt>
<rscale>  0 0.31835943E+02</rscale>
<asrwt>0</asrwt>
<pdfrwt beam="1">  1        3 0.63856640E-02 0.31835943E+02</pdfrwt>
<pdfrwt beam="2">  1       -3 0.93916669E-03 0.31835943E+02</pdfrwt>
<totfact> 0.57254995E+05</totfact>
</mgrwt>
</event>
<event>
 4    1  0.1754914E-001  0.2502766E+02  0.7818608E-02  0.1660605E+00
          3   -1    0    0  501    0  0.00000000000E+00  0.00000000000E+00  0.33003716235E+01  0.33016816705E+01  0.93000000000E-01 0.  1.
         -3   -1    0    0    0  501 -0.00000000000E+00 -0.00000000000E+00 -0.47437220233E+02  0.47437311396E+02  0.93000000000E-01 0. -1.
        -11    1    1    2    0    0 -0.76498371558E+01 -0.83524787806E+01 -0.32855593642E+02  0.34753042228E+02  0.51100000000E-03 0. -1.
         11    1    1    2    0    0  0.76498371558E+01  0.83524787806E+01 -0.11281254968E+02  0.15985950838E+02  0.51100000000E-03 0.  1.
<mgrwt>
<rscale>  0 0.25027665E+02</rscale>
<asrwt>0</asrwt>
<pdfrwt beam="1">  1        3 0.50785730E-03 0.25027665E+02</pdfrwt>
<pdfrwt beam="2">  1       -3 0.72981412E-02 0.25027665E+02</pdfrwt>
<totfact> 0.98727465E+05</totfact>
</mgrwt>
</event>
<event>
 4    1  0.1754914E-001  0.3377938E+02  0.7818608E-02  0.1559715E+00
          3   -1    0    0  501    0  0.00000000000E+00  0.00000000000E+00  0.12478210907E+02  0.12478557466E+02  0.93000000000E-01 0.  1.
         -3   -1    0    0    0  501 -0.00000000000E+00 -0.00000000000E+00 -0.22860023181E+02  0.22860212353E+02  0.93000000000E-01 0. -1.
        -11    1    1    2    0    0  0.83971549438E+01 -0.75629330202E+01 -0.18322304844E+02  0.21527122940E+02  0.51100000000E-03 0. -1.
         11    1    1    2    0    0 -0.83971549438E+01  0.75629330202E+01  0.79404925693E+01  0.13811646879E+02  0.51100000000E-03 0.  1.
<mgrwt>
<rscale>  0 0.33779382E+02</rscale>
<asrwt>0</asrwt>
<pdfrwt beam="1">  1        3 0.19197660E-02 0.33779382E+02</pdfrwt>
<pdfrwt beam="2">  1       -3 0.35169678E-02 0.33779382E+02</pdfrwt>
<totfact> 0.51621753E+05</totfact>
</mgrwt>
</event>
<event>
 4    1  0.1754914E-001  0.3575763E+02  0.7818608E-02  0.1541974E+00
          3   -1    0    0  501    0  0.00000000000E+00  0.00000000000E+00  0.13813077690E+02  0.13813390760E+02  0.93000000000E-01 0.  1.
         -3   -1    0    0    0  501 -0.00000000000E+00 -0.00000000000E+00 -0.23140594668E+02  0.23140781547E+02  0.93000000000E-01 0. -1.
        -11    1    1    2    0    0 -0.15193270782E+02  0.70930889042E+01  0.17490975982E+01  0.16858432012E+02  0.51100000000E-03 0.  1.
         11    1    1    2    0    0  0.15193270782E+02 -0.70930889042E+01 -0.11076614576E+02  0.20095740294E+02  0.51100000000E-03 0. -1.
<mgrwt>
<rscale>  0 0.35757632E+02</rscale>
<asrwt>0</asrwt>
<pdfrwt beam="1">  1        3 0.21251273E-02 0.35757632E+02</pdfrwt>
<pdfrwt beam="2">  1       -3 0.35601299E-02 0.35757632E+02</pdfrwt>
<totfact> 0.44839539E+05</totfact>
</mgrwt>
</event>
<event>
 4    1  0.1754914E-001  0.2092307E+02  0.7818608E-02  0.1727571E+00
          3   -1    0    0  501    0  0.00000000000E+00  0.00000000000E+00  0.70381086479E+02  0.70381147923E+02  0.93000000000E-01 0. -1.
         -3   -1    0    0    0  501 -0.00000000000E+00 -0.00000000000E+00 -0.15535626546E+01  0.15563437672E+01  0.93000000000E-01 0.  1.
        -11    1    1    2    0    0 -0.86174998800E+01 -0.55197700361E+01  0.26948450424E+02  0.28826171199E+02  0.51100000000E-03 0. -1.
         11    1    1    2    0    0  0.86174998800E+01  0.55197700361E+01  0.41879073400E+02  0.43111320492E+02  0.51100000000E-03 0.  1.
<mgrwt>
<rscale>  0 0.20923066E+02</rscale>
<asrwt>0</asrwt>
<pdfrwt beam="1">  1        3 0.10828080E-01 0.20923066E+02</pdfrwt>
<pdfrwt beam="2">  1       -3 0.23922826E-03 0.20923066E+02</pdfrwt>
<totfact> 0.13817854E+06</totfact>
</mgrwt>
</event>
<event>
 4    1  0.1754914E-001  0.3179612E+02  0.7818608E-02  0.1579043E+00
         -3   -1    0    0    0  501 -0.00000000000E+00  0.00000000000E+00  0.10933836560E+03  0.10933840516E+03  0.93000000000E-01 0. -1.
          3   -1    0    0  501    0  0.00000000000E+00 -0.00000000000E+00 -0.23106405693E+01  0.23125113708E+01  0.93000000000E-01 0.  1.
        -11    1    1    2    0    0  0.14196923867E+02 -0.36083015619E+01  0.31817728196E+02  0.35027707822E+02  0.51100000000E-03 0.  1.
         11    1    1    2    0    0 -0.14196923867E+02  0.36083015619E+01  0.75209996839E+02  0.76623208705E+02  0.51100000000E-03 0. -1.
<mgrwt>
<rscale>  0 0.31796120E+02</rscale>
<asrwt>0</asrwt>
<pdfrwt beam="2">  1        3 0.35563018E-03 0.31796120E+02</pdfrwt>
<pdfrwt beam="1">  1       -3 0.16821431E-01 0.31796120E+02</pdfrwt>
<totfact> 0.48698991E+05</totfact>
</mgrwt>
</event>
<event>
 4    1  0.1754914E-001  0.2796906E+02  0.7818608E-02  0.1621688E+00
         -3   -1    0    0    0  501 -0.00000000000E+00  0.00000000000E+00  0.19152783834E+02  0.19153009622E+02  0.93000000000E-01 0.  1.
          3   -1    0    0  501    0  0.00000000000E+00 -0.00000000000E+00 -0.10210399769E+02  0.10210823299E+02  0.93000000000E-01 0. -1.
        -11    1    1    2    0    0  0.38726062297E+01 -0.12604455550E+02 -0.41918141563E+00  0.13192615057E+02  0.51100000000E-03 0. -1.
         11    1    1    2    0    0 -0.38726062297E+01  0.12604455550E+02  0.93615654803E+01  0.16171217864E+02  0.51100000000E-03 0.  1.
<mgrwt>
<rscale>  0 0.27969062E+02</rscale>
<asrwt>0</asrwt>
<pdfrwt beam="2">  1        3 0.15708807E-02 0.27969062E+02</pdfrwt>
<pdfrwt beam="1">  1       -3 0.29466321E-02 0.27969062E+02</pdfrwt>
<totfact> 0.81868547E+05</totfact>
</mgrwt>
</event>
<event>
 4    1  0.1754914E-001  0.3192420E+02  0.7818608E-02  0.1577744E+00
          3   -1    0    0  501    0  0.00000000000E+00  0.00000000000E+00  0.33142256804E+01  0.33155302533E+01  0.93000000000E-01 0.  1.
         -3   -1    0    0    0  501 -0.00000000000E+00 -0.00000000000E+00 -0.76860826291E+02  0.76860882555E+02  0.93000000000E-01 0. -1.
        -11    1    1    2    0    0  0.92636941518E+01 -0.92358249490E+01 -0.13800331680E+02  0.19014879609E+02  0.51100000000E-03 0.  1.
         11    1    1    2    0    0 -0.92636941518E+01  0.92358249490E+01 -0.59746268931E+02  0.61161533199E+02  0.51100000000E-03 0. -1.
<mgrwt>
<rscale>  0 0.31924203E+02</rscale>
<asrwt>0</asrwt>
<pdfrwt beam="1">  1        3 0.50998561E-03 0.31924203E+02</pdfrwt>
<pdfrwt beam="2">  1       -3 0.11824846E-01 0.31924203E+02</pdfrwt>
<totfact> 0.52081744E+05</totfact>
</mgrwt>
</event>
<event>
 4    1  0.1754914E-001  0.2368373E+02  0.7818608E-02  0.1680661E+00
         -3   -1    0    0    0  501 -0.00000000000E+00  0.00000000000E+00  0.94729243538E+01  0.94733808544E+01  0.93000000000E-01 0. -1.
          3   -1    0    0  501    0  0.00000000000E+00 -0.00000000000E+00 -0.14802261115E+02  0.14802553263E+02  0.93000000000E-01 0.  1.
        -11    1    1    2    0    0 -0.37325690464E+01  0.10866725421E+02  0.27264385195E+00  0.11493133950E+02  0.51100000000E-03 0.  1.
         11    1    1    2    0    0  0.37325690464E+01 -0.10866725421E+02 -0.56019806127E+01  0.12782800167E+02  0.51100000000E-03 0. -1.
<mgrwt>
<rscale>  0 0.23683732E+02</rscale>
<asrwt>0</asrwt>
<pdfrwt beam="2">  1        3 0.22773285E-02 0.23683732E+02</pdfrwt>
<pdfrwt beam="1">  1       -3 0.14574306E-02 0.23683732E+02</pdfrwt>
<totfact> 0.12148809E+06</totfact>
</mgrwt>
</event>
<event>
 4    1  0.1754914E-001  0.3413689E+02  0.7818608E-02  0.1556401E+00
          3   -1    0    0  501    0  0.00000000000E+00  0.00000000000E+00  0.57774413418E+02  0.57774488269E+02  0.93000000000E-01 0.  1.
         -3   -1    0    0    0  501 -0.00000000000E+00 -0.00000000000E+00 -0.50420683473E+01  0.50429259581E+01  0.93000000000E-01 0. -1.
        -11    1    1    2    0    0 -0.15251457666E+02 -0.23549376301E+01  0.39785375786E+02  0.42673514255E+02  0.51100000000E-03 0.  1.
         11    1    1    2    0    0  0.15251457666E+02  0.23549376301E+01  0.12946969285E+02  0.20143899973E+02  0.51100000000E-03 0. -1.
<mgrwt>
<rscale>  0 0.34136891E+02</rscale>
<asrwt>0</asrwt>
<pdfrwt beam="1">  1        3 0.88884423E-02 0.34136891E+02</pdfrwt>
<pdfrwt beam="2">  1       -3 0.77577461E-03 0.34136891E+02</pdfrwt>
<totfact> 0.46533281E+05</totfact>
</mgrwt>
</event>
<event>
 4    1  0.1754914E-001  0.2162399E+02  0.7818608E-02  0.1714837E+00
         -3   -1    0    0    0  501 -0.00000000000E+00  0.00000000000E+00  0.51973927518E+01  0.51982247371E+01  0.93000000000E-01 0. -1.
          3   -1    0    0  501    0  0.00000000000E+00 -0.00000000000E+00 -0.22489165290E+02  0.22489357581E+02  0.93000000000E-01 0.  1.
        -11    1    1    2    0    0 -0.85878509180E+01  0.65684611440E+01 -0.85719007560E+01  0.13797584862E+02  0.51100000000E-03 0.  1.
         11    1    1    2    0    0  0.85878509180E+01 -0.65684611440E+01 -0.87198717819E+01  0.13889997457E+02  0.51100000000E-03 0. -1.
<mgrwt>
<rscale>  0 0.21623987E+02</rscale>
<asrwt>0</asrwt>
<pdfrwt beam="2">  1        3 0.34599503E-02 0.21623987E+02</pdfrwt>
<pdfrwt beam="1">  1       -3 0.79967769E-03 0.21623987E+02</pdfrwt>
<totfact> 0.14684291E+06</totfact>
</mgrwt>
</event>
<event>
 4    1  0.1754914E-001  0.3607034E+02  0.7818608E-02  0.1539296E+00
          3   -1    0    0  501    0  0.00000000000E+00  0.00000000000E+00  0.45393402837E+01  0.45402928552E+01  0.93000000000E-01 0. -1.
         -3   -1    0    0    0  501 -0.00000000000E+00 -0.00000000000E+00 -0.71646705399E+02  0.71646765758E+02  0.93000000000E-01 0.  1.
        -11    1    1    2    0    0 -0.40846679421E+01  0.98738259116E+01 -0.28659203253E+01  0.11063021735E+02  0.51100000000E-03 0. -1.
         11    1    1    2    0    0  0.40846679421E+01 -0.98738259116E+01 -0.64241444790E+02  0.65124036878E+02  0.51100000000E-03 0.  1.
<mgrwt>
<rscale>  0 0.36070340E+02</rscale>
<asrwt>0</asrwt>
<pdfrwt beam="1">  1        3 0.69843801E-03 0.36070340E+02</pdfrwt>
<pdfrwt beam="2">  1       -3 0.11022647E-01 0.36070340E+02</pdfrwt>
<totfact> 0.39406326E+05</totfact>
</mgrwt>
</event>
<event>
 4    1  0.1754914E-001  0.3205366E+02  0.7818608E-02  0.1576438E+00
          3   -1    0    0  501    0  0.00000000000E+00  0.00000000000E+00  0.36441075772E+02  0.36441194443E+02  0.93000000000E-01 0. -1.
         -3   -1    0    0    0  501 -0.00000000000E+00 -0.00000000000E+00 -0.70481827524E+01  0.70487962881E+01  0.93000000000E-01 0.  1.
        -11    1    1    2    0    0 -0.82541763123E+01 -0.59027224937E+01 -0.21345896027E+01  0.10369668870E+02  0.51100000000E-03 0.  1.
         11    1    1    2    0    0  0.82541763123E+01  0.59027224937E+01  0.31527482623E+02  0.33120321861E+02  0.51100000000E-03 0. -1.
<mgrwt>
<rscale>  0 0.32053660E+02</rscale>
<asrwt>0</asrwt>
<pdfrwt beam="1">  1        3 0.56063755E-02 0.32053660E+02</pdfrwt>
<pdfrwt beam="2">  1       -3 0.10843922E-02 0.32053660E+02</pdfrwt>
<totfact> 0.57026873E+05</totfact>
</mgrwt>
</event>
<event>
 4    1  0.1754914E-001  0.2095656E+02  0.7818608E-02  0.1726949E+00
          3   -1    0    0  501    0  0.00000000000E+00  0.00000000000E+00  0.12299207911E+02  0.12299559514E+02  0.93000000000E-01 0. -1.
         -3   -1    0    0    0  501 -0.00000000000E+00 -0.00000000000E+00 -0.89262251769E+01  0.89267096351E+01  0.93000000000E-01 0.  1.
        -11    1    1    2    0    0  0.31039152279E+01 -0.98595109772E+01  0.34261894636E+01  0.10889583140E+02  0.51100000000E-03 0. -1.
         11    1    1    2    0    0 -0.31039152279E+01  0.98595109772E+01 -0.53206729077E-01  0.10336686010E+02  0.51100000000E-03 0.  1.
<mgrwt>
<rscale>  0 0.20956562E+02</rscale>
<asrwt>0</asrwt>
<pdfrwt beam="1">  1        3 0.18922501E-02 0.20956562E+02</pdfrwt>
<pdfrwt beam="2">  1       -3 0.13733297E-02 0.20956562E+02</pdfrwt>
<totfact> 0.16088287E+06</totfact>
</mgrwt>
</event>
<event>
 4    1  0.1754914E-001  0.2047484E+02  0.7818608E-02  0.1736047E+00
          3   -1    0    0  501    0  0.00000000000E+00  0.00000000000E+00  0.79323362755E+01  0.79328814304E+01  0.93000000000E-01 0.  1.
         -3   -1    0    0    0  501 -0.00000000000E+00 -0.00000000000E+00 -0.13211187357E+02  0.13211514689E+02  0.93000000000E-01 0. -1.
        -11    1    1    2    0    0 -0.89584103830E+01 -0.46946109961E+01 -0.42762864320E+01  0.10980852194E+02  0.51100000000E-03 0. -1.
         11    1    1    2    0    0  0.89584103830E+01  0.46946109961E+01 -0.10025646498E+01  0.10163543926E+02  0.51100000000E-03 0.  1.
<mgrwt>
<rscale>  0 0.20474844E+02</rscale>
<asrwt>0</asrwt>
<pdfrwt beam="1">  1        3 0.12204265E-02 0.20474844E+02</pdfrwt>
<pdfrwt beam="2">  1       -3 0.20325575E-02 0.20474844E+02</pdfrwt>
<totfact> 0.16929517E+06</totfact>
</mgrwt>
</event>
<event>
 4    1  0.1754914E-001  0.2809547E+02  0.7818608E-02  0.1620148E+00
          3   -1    0    0  501    0  0.00000000000E+00  0.00000000000E+00  0.17392669521E+02  0.17392918159E+02  0.93000000000E-01 0.  1.
         -3   -1    0    0    0  501 -0.00000000000E+00 -0.00000000000E+00 -0.11345573195E+02  0.11345954351E+02  0.93000000000E-01 0. -1.
        -11    1    1    2    0    0 -0.31890732368E+01 -0.11783274902E+02  0.10134222970E+02  0.15865630494E+02  0.51100000000E-03 0.  1.
         11    1    1    2    0    0  0.31890732368E+01  0.11783274902E+02 -0.40871266438E+01  0.12873242015E+02  0.51100000000E-03 0. -1.
<mgrwt>
<rscale>  0 0.28095470E+02</rscale>
<asrwt>0</asrwt>
<pdfrwt beam="1">  1        3 0.26758438E-02 0.28095470E+02</pdfrwt>
<pdfrwt beam="2">  1       -3 0.17455212E-02 0.28095470E+02</pdfrwt>
<totfact> 0.81185408E+05</totfact>
</mgrwt>
</event>
<event>
 4    1  0.1754914E-001  0.5772363E+02  0.7818608E-02  0.1407641E+00
          3   -1    0    0  501    0  0.00000000000E+00  0.00000000000E+00  0.78931677255E+01  0.78937155854E+01  0.93000000000E-01 0. -1.
         -3   -1    0    0    0  501 -0.00000000000E+00 -0.00000000000E+00 -0.10553063524E+03  0.10553067621E+03  0.93000000000E-01 0.  1.
        -11    1    1    2    0    0 -0.27614813149E+02  0.86890135142E+00 -0.32417353153E+02  0.42593634273E+02  0.51100000000E-03 0. -1.
         11    1    1    2    0    0  0.27614813149E+02 -0.86890135142E+00 -0.65220114357E+02  0.70830757527E+02  0.51100000000E-03 0.  1.
<mgrwt>
<rscale>  0 0.57723631E+02</rscale>
<asrwt>0</asrwt>
<pdfrwt beam="1">  1        3 0.12143789E-02 0.57723631E+02</pdfrwt>
<pdfrwt beam="2">  1       -3 0.16235527E-01 0.57723631E+02</pdfrwt>
<totfact> 0.11255405E+05</totfact>
</mgrwt>
</event>
<event>
 4    1  0.1754914E-001  0.4079289E+02  0.7818608E-02  0.1502456E+00
         -3   -1    0    0    0  501 -0.00000000000E+00  0.00000000000E+00  0.65125701327E+01  0.65132341225E+01  0.93000000000E-01 0. -1.
          3   -1    0    0  501    0  0.00000000000E+00 -0.00000000000E+00 -0.63874824848E+02  0.63874892551E+02  0.93000000000E-01 0.  1.
        -11    1    1    2    0    0  0.14636365566E+02  0.80341395284E+01 -0.48895593192E+02  0.51667684570E+02  0.51100000000E-03 0.  1.
         11    1    1    2    0    0 -0.14636365566E+02 -0.80341395284E+01 -0.84666615235E+01  0.18720442104E+02  0.51100000000E-03 0. -1.
<mgrwt>
<rscale>  0 0.40792893E+02</rscale>
<asrwt>0</asrwt>
<pdfrwt beam="2">  1        3 0.98269520E-02 0.40792893E+02</pdfrwt>
<pdfrwt beam="1">  1       -3 0.10019902E-02 0.40792893E+02</pdfrwt>
<totfact> 0.29699051E+05</totfact>
</mgrwt>
</event>
<event>
 4    1  0.1754914E-001  0.2420828E+02  0.7818608E-02  0.1672641E+00
         -3   -1    0    0    0  501 -0.00000000000E+00  0.00000000000E+00  0.18018192826E+02  0.18018432832E+02  0.93000000000E-01 0.  1.
          3   -1    0    0  501    0  0.00000000000E+00 -0.00000000000E+00 -0.81306748842E+01  0.81312067414E+01  0.93000000000E-01 0. -1.
        -11    1    1    2    0    0 -0.90577754279E+01  0.69220031150E+01  0.93385349585E+01  0.14736541598E+02  0.51100000000E-03 0.  1.
         11    1    1    2    0    0  0.90577754279E+01 -0.69220031150E+01  0.54898298343E+00  0.11413097976E+02  0.51100000000E-03 0. -1.
<mgrwt>
<rscale>  0 0.24208276E+02</rscale>
<asrwt>0</asrwt>
<pdfrwt beam="2">  1        3 0.12509325E-02 0.24208276E+02</pdfrwt>
<pdfrwt beam="1">  1       -3 0.27720890E-02 0.24208276E+02</pdfrwt>
<totfact> 0.11494374E+06</totfact>
</mgrwt>
</event>
<event>
 4    1  0.1754914E-001  0.3353961E+02  0.7818608E-02  0.1561965E+00
          3   -1    0    0  501    0  0.00000000000E+00  0.00000000000E+00  0.41658538220E+01  0.41668917752E+01  0.93000000000E-01 0. -1.
         -3   -1    0    0    0  501 -0.00000000000E+00 -0.00000000000E+00 -0.67498002466E+02  0.67498066534E+02  0.93000000000E-01 0.  1.
        -11    1    1    2    0    0  0.78951663436E+01  0.13550408302E+02 -0.18974732793E+02  0.24616817454E+02  0.51100000000E-03 0. -1.
         11    1    1    2    0    0 -0.78951663436E+01 -0.13550408302E+02 -0.44357415851E+02  0.47048140856E+02  0.51100000000E-03 0.  1.
<mgrwt>
<rscale>  0 0.33539606E+02</rscale>
<asrwt>0</asrwt>
<pdfrwt beam="1">  1        3 0.64098541E-03 0.33539606E+02</pdfrwt>
<pdfrwt beam="2">  1       -3 0.10384392E-01 0.33539606E+02</pdfrwt>
<totfact> 0.47398166E+05</totfact>
</mgrwt>
</event>
<event>
 4    1  0.1754914E-001  0.2845063E+02  0.7818608E-02  0.1615875E+00
         -3   -1    0    0    0  501 -0.00000000000E+00  0.00000000000E+00  0.28984651098E+01  0.28999567226E+01  0.93000000000E-01 0.  1.
          3   -1    0    0  501    0  0.00000000000E+00 -0.00000000000E+00 -0.69796635216E+02  0.69796697175E+02  0.93000000000E-01 0. -1.
        -11    1    1    2    0    0  0.93224274627E+01 -0.10547231111E+02 -0.38690545335E+02  0.41171714034E+02  0.51100000000E-03 0.  1.
         11    1    1    2    0    0 -0.93224274627E+01  0.10547231111E+02 -0.28207624771E+02  0.31524939863E+02  0.51100000000E-03 0. -1.
<mgrwt>
<rscale>  0 0.28450630E+02</rscale>
<asrwt>0</asrwt>
<pdfrwt beam="2">  1        3 0.10738062E-01 0.28450630E+02</pdfrwt>
<pdfrwt beam="1">  1       -3 0.44603727E-03 0.28450630E+02</pdfrwt>
<totfact> 0.69381346E+05</totfact>
</mgrwt>
</event>
<event>
 4    1  0.1754914E-001  0.5805152E+02  0.7818608E-02  0.1406195E+00
         -3   -1    0    0    0  501 -0.00000000000E+00  0.00000000000E+00  0.53233432169E+02  0.53233513405E+02  0.93000000000E-01 0. -1.
          3   -1    0    0  501    0  0.00000000000E+00 -0.00000000000E+00 -0.15826191590E+02  0.15826464837E+02  0.93000000000E-01 0.  1.
        -11    1    1    2    0    0  0.23386273366E+02  0.15652838834E+02  0.27163036383E+02  0.39112142505E+02  0.51100000000E-03 0. -1.
         11    1    1    2    0    0 -0.23386273366E+02 -0.15652838834E+02  0.10244204196E+02  0.29947835737E+02  0.51100000000E-03 0.  1.
<mgrwt>
<rscale>  0 0.58051520E+02</rscale>
<asrwt>0</asrwt>
<pdfrwt beam="2">  1        3 0.24348260E-02 0.58051520E+02</pdfrwt>
<pdfrwt beam="1">  1       -3 0.81897861E-02 0.58051520E+02</pdfrwt>
<totfact> 0.12299921E+05</totfact>
</mgrwt>
</event>
<event>
 4    1  0.1754914E-001  0.4034964E+02  0.7818608E-02  0.1505654E+00
         -3   -1    0    0    0  501 -0.00000000000E+00  0.00000000000E+00  0.93538948618E+01  0.93543571712E+01  0.93000000000E-01 0.  1.
          3   -1    0    0  501    0  0.00000000000E+00 -0.00000000000E+00 -0.43512200141E+02  0.43512299526E+02  0.93000000000E-01 0. -1.
        -11    1    1    2    0    0  0.72867970088E+01  0.14786725768E+02 -0.32318168217E+02  0.36279590223E+02  0.51100000000E-03 0. -1.
         11    1    1    2    0    0 -0.72867970088E+01 -0.14786725768E+02 -0.18401370620E+01  0.16587066475E+02  0.51100000000E-03 0.  1.
<mgrwt>
<rscale>  0 0.40349642E+02</rscale>
<asrwt>0</asrwt>
<pdfrwt beam="2">  1        3 0.66942277E-02 0.40349642E+02</pdfrwt>
<pdfrwt beam="1">  1       -3 0.14391040E-02 0.40349642E+02</pdfrwt>
<totfact> 0.31956714E+05</totfact>
</mgrwt>
</event>
<event>
 4    1  0.1754914E-001  0.3934359E+02  0.7818608E-02  0.1513098E+00
          3   -1    0    0  501    0  0.00000000000E+00  0.00000000000E+00  0.10972649480E+02  0.10973043589E+02  0.93000000000E-01 0. -1.
         -3   -1    0    0    0  501 -0.00000000000E+00 -0.00000000000E+00 -0.35266557678E+02  0.35266680301E+02  0.93000000000E-01 0.  1.
        -11    1    1    2    0    0 -0.15165942221E+02  0.12104223050E+02 -0.83456003286E+01  0.21122667071E+02  0.51100000000E-03 0. -1.
         11    1    1    2    0    0  0.15165942221E+02 -0.12104223050E+02 -0.15948307870E+02  0.25117056819E+02  0.51100000000E-03 0.  1.
<mgrwt>
<rscale>  0 0.39343590E+02</rscale>
<asrwt>0</asrwt>
<pdfrwt beam="1">  1        3 0.16881397E-02 0.39343590E+02</pdfrwt>
<pdfrwt beam="2">  1       -3 0.54256639E-02 0.39343590E+02</pdfrwt>
<totfact> 0.34623363E+05</totfact>
</mgrwt>
</event>
<event>
 4    1  0.1754914E-001  0.3836153E+02  0.7818608E-02  0.1520627E+00
         -3   -1    0    0    0  501 -0.00000000000E+00  0.00000000000E+00  0.63476349822E+01  0.63483162230E+01  0.93000000000E-01 0.  1.
          3   -1    0    0  501    0  0.00000000000E+00 -0.00000000000E+00 -0.57955040502E+02  0.57955115120E+02  0.93000000000E-01 0. -1.
        -11    1    1    2    0    0  0.43808954705E+01 -0.10106999133E+02 -0.52124427164E+02  0.53275694121E+02  0.51100000000E-03 0. -1.
         11    1    1    2    0    0 -0.43808954705E+01  0.10106999133E+02  0.51702164493E+00  0.11027737222E+02  0.51100000000E-03 0.  1.
<mgrwt>
<rscale>  0 0.38361530E+02</rscale>
<asrwt>0</asrwt>
<pdfrwt beam="2">  1        3 0.89162178E-02 0.38361530E+02</pdfrwt>
<pdfrwt beam="1">  1       -3 0.97661741E-03 0.38361530E+02</pdfrwt>
<totfact> 0.35036181E+05</totfact>
</mgrwt>
</event>
<event>
 4    1  0.1754914E-001  0.4121563E+02  0.7818608E-02  0.1499452E+00
          3   -1    0    0  501    0  0.00000000000E+00  0.00000000000E+00  0.54717961737E+01  0.54725864422E+01  0.93000000000E-01 0. -1.
         -3   -1    0    0    0  501 -0.00000000000E+00 -0.00000000000E+00 -0.77606501878E+02  0.77606557601E+02  0.93000000000E-01 0.  1.
        -11    1    1    2    0    0 -0.19458382710E+02  0.67724997369E+01 -0.35196405062E+02  0.40783358615E+02  0.51100000000E-03 0. -1.
         11    1    1    2    0    0  0.19458382710E+02 -0.67724997369E+01 -0.36938300642E+02  0.42295785428E+02  0.51100000000E-03 0.  1.
<mgrwt>
<rscale>  0 0.41215633E+02</rscale>
<asrwt>0</asrwt>
<pdfrwt beam="1">  1        3 0.84187993E-03 0.41215633E+02</pdfrwt>
<pdfrwt beam="2">  1       -3 0.11939526E-01 0.41215633E+02</pdfrwt>
<totfact> 0.28052779E+05</totfact>
</mgrwt>
</event>
<event>
 4    1  0.1754914E-001  0.2396953E+02  0.7818608E-02  0.1676260E+00
         -3   -1    0    0    0  501 -0.00000000000E+00  0.00000000000E+00  0.32382296769E+01  0.32395648535E+01  0.93000000000E-01 0. -1.
          3   -1    0    0  501    0  0.00000000000E+00 -0.00000000000E+00 -0.44345359951E+02  0.44345457469E+02  0.93000000000E-01 0.  1.
        -11    1    1    2    0    0 -0.61144203088E+01  0.10198047393E+02 -0.17576884440E+02  0.21221054951E+02  0.51100000000E-03 0. -1.
         11    1    1    2    0    0  0.61144203088E+01 -0.10198047393E+02 -0.23530245834E+02  0.26363967372E+02  0.51100000000E-03 0.  1.
<mgrwt>
<rscale>  0 0.23969526E+02</rscale>
<asrwt>0</asrwt>
<pdfrwt beam="2">  1        3 0.68224729E-02 0.23969526E+02</pdfrwt>
<pdfrwt beam="1">  1       -3 0.49829942E-03 0.23969526E+02</pdfrwt>
<totfact> 0.10977022E+06</totfact>
</mgrwt>
</event>
<event>
 4    1  0.1754914E-001  0.3124498E+02  0.7818608E-02  0.1584721E+00
         -3   -1    0    0    0  501 -0.00000000000E+00  0.00000000000E+00  0.46425302807E+01  0.46434616836E+01  0.93000000000E-01 0. -1.
          3   -1    0    0  501    0  0.00000000000E+00 -0.00000000000E+00 -0.52564699214E+02  0.52564781484E+02  0.93000000000E-01 0.  1.
        -11    1    1    2    0    0 -0.64119655847E+01  0.10807380126E+02 -0.40955434843E+02  0.42839939440E+02  0.51100000000E-03 0.  1.
         11    1    1    2    0    0  0.64119655847E+01 -0.10807380126E+02 -0.69667340905E+01  0.14368303727E+02  0.51100000000E-03 0. -1.
<mgrwt>
<rscale>  0 0.31244981E+02</rscale>
<asrwt>0</asrwt>
<pdfrwt beam="2">  1        3 0.80869544E-02 0.31244981E+02</pdfrwt>
<pdfrwt beam="1">  1       -3 0.71431344E-03 0.31244981E+02</pdfrwt>
<totfact> 0.58219923E+05</totfact>
</mgrwt>
</event>
<event>
 4    1  0.1754914E-001  0.3091068E+02  0.7818608E-02  0.1588235E+00
          3   -1    0    0  501    0  0.00000000000E+00  0.00000000000E+00  0.83168921180E+01  0.83174120676E+01  0.93000000000E-01 0. -1.
         -3   -1    0    0    0  501 -0.00000000000E+00 -0.00000000000E+00 -0.28719270546E+02  0.28719421124E+02  0.93000000000E-01 0.  1.
        -11    1    1    2    0    0 -0.11687263769E+02  0.14457814729E+01 -0.22194161633E+02  0.25124952325E+02  0.51100000000E-03 0.  1.
         11    1    1    2    0    0  0.11687263769E+02 -0.14457814729E+01  0.17917832051E+01  0.11911880867E+02  0.51100000000E-03 0. -1.
<mgrwt>
<rscale>  0 0.30910677E+02</rscale>
<asrwt>0</asrwt>
<pdfrwt beam="1">  1        3 0.12795735E-02 0.30910677E+02</pdfrwt>
<pdfrwt beam="2">  1       -3 0.44184008E-02 0.30910677E+02</pdfrwt>
<totfact> 0.63333596E+05</totfact>
</mgrwt>
</event>
<event>
 4    1  0.1754914E-001  0.5390186E+02  0.7818608E-02  0.1425365E+00
         -3   -1    0    0    0  501 -0.00000000000E+00  0.00000000000E+00  0.22941510863E+02  0.22941699363E+02  0.93000000000E-01 0.  1.
          3   -1    0    0  501    0  0.00000000000E+00 -0.00000000000E+00 -0.31660671022E+02  0.31660807611E+02  0.93000000000E-01 0. -1.
        -11    1    1    2    0    0 -0.14472802929E+02  0.21712120967E+02 -0.11190698159E+02  0.28392075427E+02  0.51100000000E-03 0. -1.
         11    1    1    2    0    0  0.14472802929E+02 -0.21712120967E+02  0.24715380000E+01  0.26210431547E+02  0.51100000000E-03 0.  1.
<mgrwt>
<rscale>  0 0.53901855E+02</rscale>
<asrwt>0</asrwt>
<pdfrwt beam="2">  1        3 0.48708975E-02 0.53901855E+02</pdfrwt>
<pdfrwt beam="1">  1       -3 0.35294882E-02 0.53901855E+02</pdfrwt>
<totfact> 0.15430700E+05</totfact>
</mgrwt>
</event>
<event>
 4    1  0.1754914E-001  0.3057972E+02  0.7818608E-02  0.1591768E+00
         -3   -1    0    0    0  501 -0.00000000000E+00  0.00000000000E+00  0.55212619360E+01  0.55220451253E+01  0.93000000000E-01 0.  1.
          3   -1    0    0  501    0  0.00000000000E+00 -0.00000000000E+00 -0.42337898540E+02  0.42338000682E+02  0.93000000000E-01 0. -1.
        -11    1    1    2    0    0 -0.53590693814E+01 -0.14040674658E+02 -0.22812775891E+02  0.27318179178E+02  0.51100000000E-03 0. -1.
         11    1    1    2    0    0  0.53590693814E+01  0.14040674658E+02 -0.14003860713E+02  0.20541866630E+02  0.51100000000E-03 0.  1.
<mgrwt>
<rscale>  0 0.30579720E+02</rscale>
<asrwt>0</asrwt>
<pdfrwt beam="2">  1        3 0.65135907E-02 0.30579720E+02</pdfrwt>
<pdfrwt beam="1">  1       -3 0.84949304E-03 0.30579720E+02</pdfrwt>
<totfact> 0.62878879E+05</totfact>
</mgrwt>
</event>
<event>
 4    1  0.1754914E-001  0.1554663E+03  0.7818608E-02  0.1193912E+00
          3   -1    0    0  501    0  0.00000000000E+00  0.00000000000E+00  0.29896292381E+03  0.29896293827E+03  0.93000000000E-01 0. -1.
         -3   -1    0    0    0  501 -0.00000000000E+00 -0.00000000000E+00 -0.20211231243E+02  0.20211445207E+02  0.93000000000E-01 0.  1.
        -11    1    1    2    0    0 -0.29319876776E+02 -0.51555780857E+02  0.36217485409E+02  0.69493596565E+02  0.51100000000E-03 0.  1.
         11    1    1    2    0    0  0.29319876776E+02  0.51555780857E+02  0.24253420715E+03  0.24968078691E+03  0.51100000000E-03 0. -1.
<mgrwt>
<rscale>  0 0.15546633E+03</rscale>
<asrwt>0</asrwt>
<pdfrwt beam="1">  1        3 0.45994311E-01 0.15546633E+03</pdfrwt>
<pdfrwt beam="2">  1       -3 0.31094379E-02 0.15546633E+03</pdfrwt>
<totfact> 0.53181387E+03</totfact>
</mgrwt>
</event>
<event>
 4    1  0.1754914E-001  0.3922148E+02  0.7818608E-02  0.1514020E+00
          3   -1    0    0  501    0  0.00000000000E+00  0.00000000000E+00  0.13136691330E+02  0.13137020519E+02  0.93000000000E-01 0. -1.
         -3   -1    0    0    0  501 -0.00000000000E+00 -0.00000000000E+00 -0.29274575098E+02  0.29274722820E+02  0.93000000000E-01 0.  1.
        -11    1    1    2    0    0 -0.45126206220E+01 -0.92193444734E+01  0.10000146706E+02  0.14330491680E+02  0.51100000000E-03 0. -1.
         11    1    1    2    0    0  0.45126206220E+01  0.92193444734E+01 -0.26138030474E+02  0.28081251658E+02  0.51100000000E-03 0.  1.
<mgrwt>
<rscale>  0 0.39221482E+02</rscale>
<asrwt>0</asrwt>
<pdfrwt beam="1">  1        3 0.20210661E-02 0.39221482E+02</pdfrwt>
<pdfrwt beam="2">  1       -3 0.45038175E-02 0.39221482E+02</pdfrwt>
<totfact> 0.35270734E+05</totfact>
</mgrwt>
</event>
<event>
 4    1  0.1754914E-001  0.2310527E+02  0.7818608E-02  0.1689809E+00
          3   -1    0    0  501    0  0.00000000000E+00  0.00000000000E+00  0.29946451002E+01  0.29960888298E+01  0.93000000000E-01 0.  1.
         -3   -1    0    0    0  501 -0.00000000000E+00 -0.00000000000E+00 -0.44555100096E+02  0.44555197156E+02  0.93000000000E-01 0. -1.
        -11    1    1    2    0    0 -0.10275136420E+02  0.85165375785E-01 -0.99139835598E+01  0.14278401587E+02  0.51100000000E-03 0.  1.
         11    1    1    2    0    0  0.10275136420E+02 -0.85165375785E-01 -0.31646471436E+02  0.33272884399E+02  0.51100000000E-03 0. -1.
<mgrwt>
<rscale>  0 0.23105267E+02</rscale>
<asrwt>0</asrwt>
<pdfrwt beam="1">  1        3 0.46083319E-03 0.23105267E+02</pdfrwt>
<pdfrwt beam="2">  1       -3 0.68547488E-02 0.23105267E+02</pdfrwt>
<totfact> 0.11912964E+06</totfact>
</mgrwt>
</event>
<event>
 4    1  0.1754914E-001  0.2041317E+02  0.7818608E-02  0.1737234E+00
         -3   -1    0    0    0  501 -0.00000000000E+00  0.00000000000E+00  0.14652952129E+01  0.14682435292E+01  0.93000000000E-01 0.  1.
          3   -1    0    0  501    0  0.00000000000E+00 -0.00000000000E+00 -0.71020010686E+02  0.71020071577E+02  0.93000000000E-01 0. -1.
        -11    1    1    2    0    0  0.45946358106E+01  0.91138442317E+01 -0.34639348422E+02  0.36111733471E+02  0.51100000000E-03 0.  1.
         11    1    1    2    0    0 -0.45946358106E+01 -0.91138442317E+01 -0.34915367051E+02  0.36376581635E+02  0.51100000000E-03 0. -1.
<mgrwt>
<rscale>  0 0.20413167E+02</rscale>
<asrwt>0</asrwt>
<pdfrwt beam="2">  1        3 0.10926384E-01 0.20413167E+02</pdfrwt>
<pdfrwt beam="1">  1       -3 0.22566157E-03 0.20413167E+02</pdfrwt>
<totfact> 0.14555139E+06</totfact>
</mgrwt>
</event>
<event>
 4    1  0.1754914E-001  0.4177410E+02  0.7818608E-02  0.1495548E+00
          3   -1    0    0  501    0  0.00000000000E+00  0.00000000000E+00  0.14901691898E+02  0.14901982097E+02  0.93000000000E-01 0. -1.
         -3   -1    0    0    0  501 -0.00000000000E+00 -0.00000000000E+00 -0.29275819167E+02  0.29275966883E+02  0.93000000000E-01 0.  1.
        -11    1    1    2    0    0  0.19925091651E+02  0.24014210911E+01 -0.13307384775E+02  0.24080336177E+02  0.51100000000E-03 0. -1.
         11    1    1    2    0    0 -0.19925091651E+02 -0.24014210911E+01 -0.10667424944E+01  0.20097612803E+02  0.51100000000E-03 0.  1.
<mgrwt>
<rscale>  0 0.41774103E+02</rscale>
<asrwt>0</asrwt>
<pdfrwt beam="1">  1        3 0.22926017E-02 0.41774103E+02</pdfrwt>
<pdfrwt beam="2">  1       -3 0.45040059E-02 0.41774103E+02</pdfrwt>
<totfact> 0.30075694E+05</totfact>
</mgrwt>
</event>
<event>
 4    1  0.1754914E-001  0.4389320E+02  0.7818608E-02  0.1481372E+00
          3   -1    0    0  501    0  0.00000000000E+00  0.00000000000E+00  0.60380572856E+02  0.60380644477E+02  0.93000000000E-01 0.  1.
         -3   -1    0    0    0  501 -0.00000000000E+00 -0.00000000000E+00 -0.79766097847E+01  0.79771519139E+01  0.93000000000E-01 0. -1.
        -11    1    1    2    0    0 -0.54477160726E+01  0.15480760279E+02  0.48894777082E+02  0.51575486187E+02  0.51100000000E-03 0.  1.
         11    1    1    2    0    0  0.54477160726E+01 -0.15480760279E+02  0.35091859896E+01  0.16782310204E+02  0.51100000000E-03 0. -1.
<mgrwt>
<rscale>  0 0.43893200E+02</rscale>
<asrwt>0</asrwt>
<pdfrwt beam="1">  1        3 0.92893660E-02 0.43893200E+02</pdfrwt>
<pdfrwt beam="2">  1       -3 0.12272180E-02 0.43893200E+02</pdfrwt>
<totfact> 0.24941258E+05</totfact>
</mgrwt>
</event>
<event>
 4    1  0.1754914E-001  0.4430730E+02  0.7818608E-02  0.1478713E+00
          3   -1    0    0  501    0  0.00000000000E+00  0.00000000000E+00  0.29055181720E+02  0.29055330557E+02  0.93000000000E-01 0. -1.
         -3   -1    0    0    0  501 -0.00000000000E+00 -0.00000000000E+00 -0.16891130518E+02  0.16891386538E+02  0.93000000000E-01 0.  1.
        -11    1    1    2    0    0 -0.19610306281E+02 -0.98412532420E+01  0.29077536226E+01  0.22132993679E+02  0.51100000000E-03 0. -1.
         11    1    1    2    0    0  0.19610306281E+02  0.98412532420E+01  0.92562975791E+01  0.23813723416E+02  0.51100000000E-03 0.  1.
<mgrwt>
<rscale>  0 0.44307298E+02</rscale>
<asrwt>0</asrwt>
<pdfrwt beam="1">  1        3 0.44700590E-02 0.44307298E+02</pdfrwt>
<pdfrwt beam="2">  1       -3 0.25986667E-02 0.44307298E+02</pdfrwt>
<totfact> 0.25872646E+05</totfact>
</mgrwt>
</event>
<event>
 4    1  0.1754914E-001  0.3914361E+02  0.7818608E-02  0.1514610E+00
         -3   -1    0    0    0  501 -0.00000000000E+00  0.00000000000E+00  0.73005047841E+02  0.73005107077E+02  0.93000000000E-01 0. -1.
          3   -1    0    0  501    0  0.00000000000E+00 -0.00000000000E+00 -0.52464994420E+01  0.52473236412E+01  0.93000000000E-01 0.  1.
        -11    1    1    2    0    0  0.10104649733E+02 -0.13614718603E+02  0.53424715715E+02  0.56050555380E+02  0.51100000000E-03 0. -1.
         11    1    1    2    0    0 -0.10104649733E+02  0.13614718603E+02  0.14333832684E+02  0.22201875338E+02  0.51100000000E-03 0.  1.
<mgrwt>
<rscale>  0 0.39143608E+02</rscale>
<asrwt>0</asrwt>
<pdfrwt beam="2">  1        3 0.80722176E-03 0.39143608E+02</pdfrwt>
<pdfrwt beam="1">  1       -3 0.11231613E-01 0.39143608E+02</pdfrwt>
<totfact> 0.32186939E+05</totfact>
</mgrwt>
</event>
<event>
 4    1  0.1754914E-001  0.2089549E+02  0.7818608E-02  0.1728085E+00
         -3   -1    0    0    0  501 -0.00000000000E+00  0.00000000000E+00  0.70604392588E+01  0.70610517295E+01  0.93000000000E-01 0.  1.
          3   -1    0    0  501    0  0.00000000000E+00 -0.00000000000E+00 -0.15458715905E+02  0.15458995648E+02  0.93000000000E-01 0. -1.
        -11    1    1    2    0    0  0.15051148607E+01  0.10122644445E+02 -0.19327750735E+01  0.10414841384E+02  0.51100000000E-03 0. -1.
         11    1    1    2    0    0 -0.15051148607E+01 -0.10122644445E+02 -0.64655015731E+01  0.12105205994E+02  0.51100000000E-03 0.  1.
<mgrwt>
<rscale>  0 0.20895490E+02</rscale>
<asrwt>0</asrwt>
<pdfrwt beam="2">  1        3 0.23783326E-02 0.20895490E+02</pdfrwt>
<pdfrwt beam="1">  1       -3 0.10862901E-02 0.20895490E+02</pdfrwt>
<totfact> 0.16115605E+06</totfact>
</mgrwt>
</event>
<event>
 4    1  0.1754914E-001  0.4210028E+02  0.7818608E-02  0.1493301E+00
          3   -1    0    0  501    0  0.00000000000E+00  0.00000000000E+00  0.53542600299E+01  0.53550676436E+01  0.93000000000E-01 0.  1.
         -3   -1    0    0    0  501 -0.00000000000E+00 -0.00000000000E+00 -0.82751042498E+02  0.82751094758E+02  0.93000000000E-01 0. -1.
        -11    1    1    2    0    0  0.12354828532E+02 -0.16520169596E+02 -0.29931041637E+02  0.36351410499E+02  0.51100000000E-03 0.  1.
         11    1    1    2    0    0 -0.12354828532E+02  0.16520169596E+02 -0.47465740832E+02  0.51754751903E+02  0.51100000000E-03 0. -1.
<mgrwt>
<rscale>  0 0.42100284E+02</rscale>
<asrwt>0</asrwt>
<pdfrwt beam="1">  1        3 0.82379852E-03 0.42100284E+02</pdfrwt>
<pdfrwt beam="2">  1       -3 0.12730995E-01 0.42100284E+02</pdfrwt>
<totfact> 0.26309161E+05</totfact>
</mgrwt>
</event>
<event>
 4    1  0.1754914E-001  0.5782313E+02  0.7818608E-02  0.1407201E+00
          3   -1    0    0  501    0  0.00000000000E+00  0.00000000000E+00  0.47783111676E+02  0.47783202178E+02  0.93000000000E-01 0. -1.
         -3   -1    0    0    0  501 -0.00000000000E+00 -0.00000000000E+00 -0.17492950543E+02  0.17493197755E+02  0.93000000000E-01 0.  1.
        -11    1    1    2    0    0  0.15013913964E+02 -0.30220526206E+00  0.43035244516E+02  0.45580052779E+02  0.51100000000E-03 0. -1.
         11    1    1    2    0    0 -0.15013913964E+02  0.30220526206E+00 -0.12745083383E+02  0.19696347155E+02  0.51100000000E-03 0.  1.
<mgrwt>
<rscale>  0 0.57823131E+02</rscale>
<asrwt>0</asrwt>
<pdfrwt beam="1">  1        3 0.73512738E-02 0.57823131E+02</pdfrwt>
<pdfrwt beam="2">  1       -3 0.26912492E-02 0.57823131E+02</pdfrwt>
<totfact> 0.12541697E+05</totfact>
</mgrwt>
</event>
<event>
 4    1  0.1754914E-001  0.5545767E+02  0.7818608E-02  0.1417947E+00
          3   -1    0    0  501    0  0.00000000000E+00  0.00000000000E+00  0.47482369670E+01  0.47491476387E+01  0.93000000000E-01 0. -1.
         -3   -1    0    0    0  501 -0.00000000000E+00 -0.00000000000E+00 -0.16191489829E+03  0.16191492499E+03  0.93000000000E-01 0.  1.
        -11    1    1    2    0    0  0.19045629419E+01 -0.22052076973E+02 -0.28388762806E+02  0.35997823722E+02  0.51100000000E-03 0. -1.
         11    1    1    2    0    0 -0.19045629419E+01  0.22052076973E+02 -0.12877789851E+03  0.13066624891E+03  0.51100000000E-03 0.  1.
<mgrwt>
<rscale>  0 0.55457675E+02</rscale>
<asrwt>0</asrwt>
<pdfrwt beam="1">  1        3 0.73057023E-03 0.55457675E+02</pdfrwt>
<pdfrwt beam="2">  1       -3 0.24910052E-01 0.55457675E+02</pdfrwt>
<totfact> 0.11149363E+05</totfact>
</mgrwt>
</event>
<event>
 4    1  0.1754914E-001  0.3586902E+02  0.7818608E-02  0.1541016E+00
          3   -1    0    0  501    0  0.00000000000E+00  0.00000000000E+00  0.10467176128E+02  0.10467589268E+02  0.93000000000E-01 0.  1.
         -3   -1    0    0    0  501 -0.00000000000E+00 -0.00000000000E+00 -0.30727991252E+02  0.30728131987E+02  0.93000000000E-01 0. -1.
        -11    1    1    2    0    0 -0.84861516867E+01  0.54487099144E+01 -0.27163288960E+02  0.28974945687E+02  0.51100000000E-03 0. -1.
         11    1    1    2    0    0  0.84861516867E+01 -0.54487099144E+01  0.69024738355E+01  0.12220775568E+02  0.51100000000E-03 0.  1.
<mgrwt>
<rscale>  0 0.35869023E+02</rscale>
<asrwt>0</asrwt>
<pdfrwt beam="1">  1        3 0.16103774E-02 0.35869023E+02</pdfrwt>
<pdfrwt beam="2">  1       -3 0.47274258E-02 0.35869023E+02</pdfrwt>
<totfact> 0.43947678E+05</totfact>
</mgrwt>
</event>
<event>
 4    1  0.1754914E-001  0.2694489E+02  0.7818608E-02  0.1634542E+00
          3   -1    0    0  501    0  0.00000000000E+00  0.00000000000E+00  0.46548404788E+02  0.46548497691E+02  0.93000000000E-01 0. -1.
         -3   -1    0    0    0  501 -0.00000000000E+00 -0.00000000000E+00 -0.38986616824E+01  0.38997707515E+01  0.93000000000E-01 0.  1.
        -11    1    1    2    0    0  0.10886315523E+02  0.60417991454E+01  0.11688270208E+02  0.17077203029E+02  0.51100000000E-03 0.  1.
         11    1    1    2    0    0 -0.10886315523E+02 -0.60417991454E+01  0.30961472897E+02  0.33371065413E+02  0.51100000000E-03 0. -1.
<mgrwt>
<rscale>  0 0.26944892E+02</rscale>
<asrwt>0</asrwt>
<pdfrwt beam="1">  1        3 0.71613858E-02 0.26944892E+02</pdfrwt>
<pdfrwt beam="2">  1       -3 0.59988654E-03 0.26944892E+02</pdfrwt>
<totfact> 0.83571947E+05</totfact>
</mgrwt>
</event>
<event>
 4    1  0.1754914E-001  0.3559830E+02  0.7818608E-02  0.1543351E+00
         -3   -1    0    0    0  501 -0.00000000000E+00  0.00000000000E+00  0.12848030094E+02  0.12848366678E+02  0.93000000000E-01 0.  1.
          3   -1    0    0  501    0  0.00000000000E+00 -0.00000000000E+00 -0.24657493383E+02  0.24657668765E+02  0.93000000000E-01 0. -1.
        -11    1    1    2    0    0 -0.14559825012E+02  0.45318501950E+01 -0.15577337873E+02  0.21798615232E+02  0.51100000000E-03 0. -1.
         11    1    1    2    0    0  0.14559825012E+02 -0.45318501950E+01  0.37678745841E+01  0.15707420212E+02  0.51100000000E-03 0.  1.
<mgrwt>
<rscale>  0 0.35598304E+02</rscale>
<asrwt>0</asrwt>
<pdfrwt beam="2">  1        3 0.37934999E-02 0.35598304E+02</pdfrwt>
<pdfrwt beam="1">  1       -3 0.19766594E-02 0.35598304E+02</pdfrwt>
<totfact> 0.45247823E+05</totfact>
</mgrwt>
</event>
<event>
 4    1  0.1754914E-001  0.2197895E+02  0.7818608E-02  0.1708616E+00
          3   -1    0    0  501    0  0.00000000000E+00  0.00000000000E+00  0.14504857037E+02  0.14505155176E+02  0.93000000000E-01 0.  1.
         -3   -1    0    0    0  501 -0.00000000000E+00 -0.00000000000E+00 -0.83254327779E+01  0.83259521941E+01  0.93000000000E-01 0. -1.
        -11    1    1    2    0    0 -0.10879538936E+02  0.15396601900E+01  0.32801891351E+01  0.11467107830E+02  0.51100000000E-03 0. -1.
         11    1    1    2    0    0  0.10879538936E+02 -0.15396601900E+01  0.28992351243E+01  0.11363999540E+02  0.51100000000E-03 0.  1.
<mgrwt>
<rscale>  0 0.21978949E+02</rscale>
<asrwt>0</asrwt>
<pdfrwt beam="1">  1        3 0.22315793E-02 0.21978949E+02</pdfrwt>
<pdfrwt beam="2">  1       -3 0.12808987E-02 0.21978949E+02</pdfrwt>
<totfact> 0.14409620E+06</totfact>
</mgrwt>
</event>
<event>
 4    1  0.1754914E-001  0.3004980E+02  0.7818608E-02  0.1597539E+00
          3   -1    0    0  501    0  0.00000000000E+00  0.00000000000E+00  0.13504084145E+03  0.13504087347E+03  0.93000000000E-01 0.  1.
         -3   -1    0    0    0  501 -0.00000000000E+00 -0.00000000000E+00 -0.16703728670E+01  0.16729598067E+01  0.93000000000E-01 0. -1.
        -11    1    1    2    0    0 -0.13746280472E+02 -0.48281107656E+01  0.83387011402E+02  0.84650248382E+02  0.51100000000E-03 0. -1.
         11    1    1    2    0    0  0.13746280472E+02  0.48281107656E+01  0.49983457180E+02  0.52063584896E+02  0.51100000000E-03 0.  1.
<mgrwt>
<rscale>  0 0.30049797E+02</rscale>
<asrwt>0</asrwt>
<pdfrwt beam="1">  1        3 0.20775718E-01 0.30049797E+02</pdfrwt>
<pdfrwt beam="2">  1       -3 0.25718187E-03 0.30049797E+02</pdfrwt>
<totfact> 0.52479658E+05</totfact>
</mgrwt>
</event>
<event>
 4    1  0.1754914E-001  0.2652875E+02  0.7818608E-02  0.1639968E+00
          3   -1    0    0  501    0  0.00000000000E+00  0.00000000000E+00  0.18915455102E+01  0.18938303560E+01  0.93000000000E-01 0. -1.
         -3   -1    0    0    0  501 -0.00000000000E+00 -0.00000000000E+00 -0.92957327232E+02  0.92957373753E+02  0.93000000000E-01 0.  1.
        -11    1    1    2    0    0  0.80409781822E+01  0.10430279468E+02 -0.51181046591E+02  0.52848345200E+02  0.51100000000E-03 0. -1.
         11    1    1    2    0    0 -0.80409781822E+01 -0.10430279468E+02 -0.39884735131E+02  0.42002858910E+02  0.51100000000E-03 0.  1.
<mgrwt>
<rscale>  0 0.26528745E+02</rscale>
<asrwt>0</asrwt>
<pdfrwt beam="1">  1        3 0.29118641E-03 0.26528745E+02</pdfrwt>
<pdfrwt beam="2">  1       -3 0.14301303E-01 0.26528745E+02</pdfrwt>
<totfact> 0.76933548E+05</totfact>
</mgrwt>
</event>
<event>
 4    1  0.1754914E-001  0.3181150E+02  0.7818608E-02  0.1578887E+00
          3   -1    0    0  501    0  0.00000000000E+00  0.00000000000E+00  0.67168020965E+02  0.67168085348E+02  0.93000000000E-01 0. -1.
         -3   -1    0    0    0  501 -0.00000000000E+00 -0.00000000000E+00 -0.37659274725E+01  0.37670756202E+01  0.93000000000E-01 0.  1.
        -11    1    1    2    0    0  0.16664372114E+01 -0.10756599824E+02  0.58393497534E+01  0.12352305799E+02  0.51100000000E-03 0.  1.
         11    1    1    2    0    0 -0.16664372114E+01  0.10756599824E+02  0.57562743739E+02  0.58582855169E+02  0.51100000000E-03 0. -1.
<mgrwt>
<rscale>  0 0.31811501E+02</rscale>
<asrwt>0</asrwt>
<pdfrwt beam="1">  1        3 0.10333635E-01 0.31811501E+02</pdfrwt>
<pdfrwt beam="2">  1       -3 0.57946671E-03 0.31811501E+02</pdfrwt>
<totfact> 0.53780834E+05</totfact>
</mgrwt>
</event>
<event>
 4    1  0.1754914E-001  0.2088572E+02  0.7818608E-02  0.1728267E+00
         -3   -1    0    0    0  501 -0.00000000000E+00  0.00000000000E+00  0.34697258063E+01  0.34709719346E+01  0.93000000000E-01 0.  1.
          3   -1    0    0  501    0  0.00000000000E+00 -0.00000000000E+00 -0.31422998287E+02  0.31423135909E+02  0.93000000000E-01 0. -1.
        -11    1    1    2    0    0 -0.95527012813E+01  0.40854784327E+01 -0.15735332821E+02  0.18855925728E+02  0.51100000000E-03 0. -1.
         11    1    1    2    0    0  0.95527012813E+01 -0.40854784327E+01 -0.12217939659E+02  0.16038182116E+02  0.51100000000E-03 0.  1.
<mgrwt>
<rscale>  0 0.20885720E+02</rscale>
<asrwt>0</asrwt>
<pdfrwt beam="2">  1        3 0.48344137E-02 0.20885720E+02</pdfrwt>
<pdfrwt beam="1">  1       -3 0.53391043E-03 0.20885720E+02</pdfrwt>
<totfact> 0.15466456E+06</totfact>
</mgrwt>
</event>
<event>
 4    1  0.1754914E-001  0.2731870E+02  0.7818608E-02  0.1629770E+00
         -3   -1    0    0    0  501 -0.00000000000E+00  0.00000000000E+00  0.15770588864E+02  0.15770863074E+02  0.93000000000E-01 0.  1.
          3   -1    0    0  501    0  0.00000000000E+00 -0.00000000000E+00 -0.11830185021E+02  0.11830550564E+02  0.93000000000E-01 0. -1.
        -11    1    1    2    0    0  0.12149102523E+02  0.13923846272E+01 -0.41786970307E+01  0.12922884206E+02  0.51100000000E-03 0. -1.
         11    1    1    2    0    0 -0.12149102523E+02 -0.13923846272E+01  0.81191008729E+01  0.14678529432E+02  0.51100000000E-03 0.  1.
<mgrwt>
<rscale>  0 0.27318698E+02</rscale>
<asrwt>0</asrwt>
<pdfrwt beam="2">  1        3 0.18200777E-02 0.27318698E+02</pdfrwt>
<pdfrwt beam="1">  1       -3 0.24262936E-02 0.27318698E+02</pdfrwt>
<totfact> 0.86919360E+05</totfact>
</mgrwt>
</event>
<event>
 4    1  0.1754914E-001  0.6995252E+02  0.7818608E-02  0.1360255E+00
         -3   -1    0    0    0  501 -0.00000000000E+00  0.00000000000E+00  0.63846744723E+02  0.63846812456E+02  0.93000000000E-01 0.  1.
          3   -1    0    0  501    0  0.00000000000E+00 -0.00000000000E+00 -0.19160358871E+02  0.19160584570E+02  0.93000000000E-01 0. -1.
        -11    1    1    2    0    0  0.26526640647E+02 -0.19022350081E+02  0.74357532030E+01  0.33478394414E+02  0.51100000000E-03 0. -1.
         11    1    1    2    0    0 -0.26526640647E+02  0.19022350081E+02  0.37250632650E+02  0.49529002611E+02  0.51100000000E-03 0.  1.
<mgrwt>
<rscale>  0 0.69952519E+02</rscale>
<asrwt>0</asrwt>
<pdfrwt beam="2">  1        3 0.29477701E-02 0.69952519E+02</pdfrwt>
<pdfrwt beam="1">  1       -3 0.98225985E-02 0.69952519E+02</pdfrwt>
<totfact> 0.73204096E+04</totfact>
</mgrwt>
</event>
<event>
 4    1  0.1754914E-001  0.2819269E+02  0.7818608E-02  0.1618971E+00
         -3   -1    0    0    0  501 -0.00000000000E+00  0.00000000000E+00  0.24909289698E+02  0.24909463307E+02  0.93000000000E-01 0. -1.
          3   -1    0    0  501    0  0.00000000000E+00 -0.00000000000E+00 -0.79767488770E+01  0.79772909968E+01  0.93000000000E-01 0.  1.
        -11    1    1    2    0    0  0.10559778344E+02  0.59850352915E+00  0.19336630043E+02  0.22040244709E+02  0.51100000000E-03 0. -1.
         11    1    1    2    0    0 -0.10559778344E+02 -0.59850352915E+00 -0.24040892221E+01  0.10846509595E+02  0.51100000000E-03 0.  1.
<mgrwt>
<rscale>  0 0.28192688E+02</rscale>
<asrwt>0</asrwt>
<pdfrwt beam="2">  1        3 0.12272472E-02 0.28192688E+02</pdfrwt>
<pdfrwt beam="1">  1       -3 0.38322535E-02 0.28192688E+02</pdfrwt>
<totfact> 0.79473106E+05</totfact>
</mgrwt>
</event>
<event>
 4    1  0.1754914E-001  0.4451954E+02  0.7818608E-02  0.1477364E+00
          3   -1    0    0  501    0  0.00000000000E+00  0.00000000000E+00  0.60460437285E+01  0.60467589473E+01  0.93000000000E-01 0. -1.
         -3   -1    0    0    0  501 -0.00000000000E+00 -0.00000000000E+00 -0.81948392461E+02  0.81948445232E+02  0.93000000000E-01 0.  1.
        -11    1    1    2    0    0  0.33864959026E+01  0.19864963514E+02 -0.19261282621E+02  0.27876193040E+02  0.51100000000E-03 0. -1.
         11    1    1    2    0    0 -0.33864959026E+01 -0.19864963514E+02 -0.56641066111E+02  0.60119011140E+02  0.51100000000E-03 0.  1.
<mgrwt>
<rscale>  0 0.44519540E+02</rscale>
<asrwt>0</asrwt>
<pdfrwt beam="1">  1        3 0.93021971E-03 0.44519540E+02</pdfrwt>
<pdfrwt beam="2">  1       -3 0.12607503E-01 0.44519540E+02</pdfrwt>
<totfact> 0.22935725E+05</totfact>
</mgrwt>
</event>
<event>
 4    1  0.1754914E-001  0.3330235E+02  0.7818608E-02  0.1564214E+00
         -3   -1    0    0    0  501 -0.00000000000E+00  0.00000000000E+00  0.87341547546E+02  0.87341597059E+02  0.93000000000E-01 0.  1.
          3   -1    0    0  501    0  0.00000000000E+00 -0.00000000000E+00 -0.31737205440E+01  0.31750828480E+01  0.93000000000E-01 0. -1.
        -11    1    1    2    0    0 -0.36208039619E+01 -0.16112428633E+02  0.36291912002E+02  0.39872590270E+02  0.51100000000E-03 0.  1.
         11    1    1    2    0    0  0.36208039619E+01  0.16112428633E+02  0.47875915000E+02  0.50644089637E+02  0.51100000000E-03 0. -1.
<mgrwt>
<rscale>  0 0.33302346E+02</rscale>
<asrwt>0</asrwt>
<pdfrwt beam="2">  1        3 0.48837331E-03 0.33302346E+02</pdfrwt>
<pdfrwt beam="1">  1       -3 0.13437270E-01 0.33302346E+02</pdfrwt>
<totfact> 0.45949639E+05</totfact>
</mgrwt>
</event>
<event>
 4    1  0.1754914E-001  0.4022876E+02  0.7818608E-02  0.1506535E+00
         -3   -1    0    0    0  501 -0.00000000000E+00  0.00000000000E+00  0.54521979045E+01  0.54529910132E+01  0.93000000000E-01 0. -1.
          3   -1    0    0  501    0  0.00000000000E+00 -0.00000000000E+00 -0.74200241605E+02  0.74200299886E+02  0.93000000000E-01 0.  1.
        -11    1    1    2    0    0 -0.18071696669E+02  0.85744572022E+01 -0.30182772374E+02  0.36209215474E+02  0.51100000000E-03 0.  1.
         11    1    1    2    0    0  0.18071696669E+02 -0.85744572022E+01 -0.38565271327E+02  0.43444075426E+02  0.51100000000E-03 0. -1.
<mgrwt>
<rscale>  0 0.40228761E+02</rscale>
<asrwt>0</asrwt>
<pdfrwt beam="2">  1        3 0.11415487E-01 0.40228761E+02</pdfrwt>
<pdfrwt beam="1">  1       -3 0.83886522E-03 0.40228761E+02</pdfrwt>
<totfact> 0.30009357E+05</totfact>
</mgrwt>
</event>
<event>
 4    1  0.1754914E-001  0.2549482E+02  0.7818608E-02  0.1653995E+00
         -3   -1    0    0    0  501 -0.00000000000E+00  0.00000000000E+00  0.52303723966E+01  0.52311991366E+01  0.93000000000E-01 0. -1.
          3   -1    0    0  501    0  0.00000000000E+00 -0.00000000000E+00 -0.31064499864E+02  0.31064639074E+02  0.93000000000E-01 0.  1.
        -11    1    1    2    0    0  0.40586935959E+01  0.10003663515E+02 -0.32665949940E+01  0.11279047856E+02  0.51100000000E-03 0. -1.
         11    1    1    2    0    0 -0.40586935959E+01 -0.10003663515E+02 -0.22567532473E+02  0.25016790354E+02  0.51100000000E-03 0.  1.
<mgrwt>
<rscale>  0 0.25494818E+02</rscale>
<asrwt>0</asrwt>
<pdfrwt beam="2">  1        3 0.47792280E-02 0.25494818E+02</pdfrwt>
<pdfrwt beam="1">  1       -3 0.80474700E-03 0.25494818E+02</pdfrwt>
<totfact> 0.98923084E+05</totfact>
</mgrwt>
</event>
<event>
 4    1  0.1754914E-001  0.2245047E+02  0.7818608E-02  0.1700576E+00
         -3   -1    0    0    0  501 -0.00000000000E+00  0.00000000000E+00  0.23873913826E+02  0.23874094964E+02  0.93000000000E-01 0.  1.
          3   -1    0    0  501    0  0.00000000000E+00 -0.00000000000E+00 -0.52773634992E+01  0.52781828789E+01  0.93000000000E-01 0. -1.
        -11    1    1    2    0    0  0.10899154328E+02  0.19147343822E+01  0.68523288545E+01  0.13015843569E+02  0.51100000000E-03 0. -1.
         11    1    1    2    0    0 -0.10899154328E+02 -0.19147343822E+01  0.11744221472E+02  0.16136434274E+02  0.51100000000E-03 0.  1.
<mgrwt>
<rscale>  0 0.22450470E+02</rscale>
<asrwt>0</asrwt>
<pdfrwt beam="2">  1        3 0.81197904E-03 0.22450470E+02</pdfrwt>
<pdfrwt beam="1">  1       -3 0.36729868E-02 0.22450470E+02</pdfrwt>
<totfact> 0.13454951E+06</totfact>
</mgrwt>
</event>
<event>
 4    1  0.1754914E-001  0.2181898E+02  0.7818608E-02  0.1711402E+00
         -3   -1    0    0    0  501 -0.00000000000E+00  0.00000000000E+00  0.40412656062E+02  0.40412763070E+02  0.93000000000E-01 0.  1.
          3   -1    0    0  501    0  0.00000000000E+00 -0.00000000000E+00 -0.29441967003E+01  0.29456651558E+01  0.93000000000E-01 0. -1.
        -11    1    1    2    0    0 -0.10749684437E+02  0.12712441945E+01  0.16034880344E+02  0.19346554349E+02  0.51100000000E-03 0. -1.
         11    1    1    2    0    0  0.10749684437E+02 -0.12712441945E+01  0.21433579018E+02  0.24011873877E+02  0.51100000000E-03 0.  1.
<mgrwt>
<rscale>  0 0.21818979E+02</rscale>
<asrwt>0</asrwt>
<pdfrwt beam="2">  1        3 0.45307454E-03 0.21818979E+02</pdfrwt>
<pdfrwt beam="1">  1       -3 0.62174527E-02 0.21818979E+02</pdfrwt>
<totfact> 0.13688745E+06</totfact>
</mgrwt>
</event>
<event>
 4    1  0.1754914E-001  0.2687188E+02  0.7818608E-02  0.1635485E+00
          3   -1    0    0  501    0  0.00000000000E+00  0.00000000000E+00  0.13095855337E+02  0.13096185552E+02  0.93000000000E-01 0. -1.
         -3   -1    0    0    0  501 -0.00000000000E+00 -0.00000000000E+00 -0.13784195303E+02  0.13784509028E+02  0.93000000000E-01 0.  1.
        -11    1    1    2    0    0 -0.61771671011E+01 -0.99856962326E+01 -0.68772356165E+01  0.13607640965E+02  0.51100000000E-03 0.  1.
         11    1    1    2    0    0  0.61771671011E+01  0.99856962326E+01  0.61888956506E+01  0.13273053616E+02  0.51100000000E-03 0. -1.
<mgrwt>
<rscale>  0 0.26871880E+02</rscale>
<asrwt>0</asrwt>
<pdfrwt beam="1">  1        3 0.20147965E-02 0.26871880E+02</pdfrwt>
<pdfrwt beam="2">  1       -3 0.21206950E-02 0.26871880E+02</pdfrwt>
<totfact> 0.90484776E+05</totfact>
</mgrwt>
</event>
<event>
 4    1  0.1754914E-001  0.4107063E+02  0.7818608E-02  0.1500477E+00
         -3   -1    0    0    0  501 -0.00000000000E+00  0.00000000000E+00  0.42099077048E+01  0.42109347992E+01  0.93000000000E-01 0. -1.
          3   -1    0    0  501    0  0.00000000000E+00 -0.00000000000E+00 -0.10015500231E+03  0.10015504549E+03  0.93000000000E-01 0.  1.
        -11    1    1    2    0    0  0.25457444482E+01  0.20219870953E+02 -0.54388681643E+02  0.58081431519E+02  0.51100000000E-03 0. -1.
         11    1    1    2    0    0 -0.25457444482E+01 -0.20219870953E+02 -0.41556412963E+02  0.46284548769E+02  0.51100000000E-03 0.  1.
<mgrwt>
<rscale>  0 0.41070630E+02</rscale>
<asrwt>0</asrwt>
<pdfrwt beam="2">  1        3 0.15408542E-01 0.41070630E+02</pdfrwt>
<pdfrwt beam="1">  1       -3 0.64776051E-03 0.41070630E+02</pdfrwt>
<totfact> 0.26883714E+05</totfact>
</mgrwt>
</event>
<event>
 4    1  0.1754914E-001  0.2272126E+02  0.7818608E-02  0.1696069E+00
         -3   -1    0    0    0  501 -0.00000000000E+00  0.00000000000E+00  0.86765948049E+01  0.86770932004E+01  0.93000000000E-01 0. -1.
          3   -1    0    0  501    0  0.00000000000E+00 -0.00000000000E+00 -0.14873885558E+02  0.14874176299E+02  0.93000000000E-01 0.  1.
        -11    1    1    2    0    0 -0.99332087450E+01 -0.45698707912E+01 -0.62953974405E+01  0.12616829404E+02  0.51100000000E-03 0.  1.
         11    1    1    2    0    0  0.99332087450E+01  0.45698707912E+01  0.98106687807E-01  0.10934440096E+02  0.51100000000E-03 0. -1.
<mgrwt>
<rscale>  0 0.22721265E+02</rscale>
<asrwt>0</asrwt>
<pdfrwt beam="2">  1        3 0.22883508E-02 0.22721265E+02</pdfrwt>
<pdfrwt beam="1">  1       -3 0.13349214E-02 0.22721265E+02</pdfrwt>
<totfact> 0.13356401E+06</totfact>
</mgrwt>
</event>
<event>
 4    1  0.1754914E-001  0.2379350E+02  0.7818608E-02  0.1678961E+00
          3   -1    0    0  501    0  0.00000000000E+00  0.00000000000E+00  0.26101396809E+02  0.26101562490E+02  0.93000000000E-01 0.  1.
         -3   -1    0    0    0  501 -0.00000000000E+00 -0.00000000000E+00 -0.54218354939E+01  0.54226330434E+01  0.93000000000E-01 0. -1.
        -11    1    1    2    0    0 -0.10723404662E+02  0.50120804680E+01  0.11918759326E+02  0.16797892198E+02  0.51100000000E-03 0. -1.
         11    1    1    2    0    0  0.10723404662E+02 -0.50120804680E+01  0.87608019895E+01  0.14726303335E+02  0.51100000000E-03 0.  1.
<mgrwt>
<rscale>  0 0.23793500E+02</rscale>
<asrwt>0</asrwt>
<pdfrwt beam="1">  1        3 0.40156736E-02 0.23793500E+02</pdfrwt>
<pdfrwt beam="2">  1       -3 0.83420262E-03 0.23793500E+02</pdfrwt>
<totfact> 0.11733517E+06</totfact>
</mgrwt>
</event>
<event>
 4    1  0.1754914E-001  0.3022157E+02  0.7818608E-02  0.1595652E+00
         -3   -1    0    0    0  501 -0.00000000000E+00  0.00000000000E+00  0.16873463780E+03  0.16873466343E+03  0.93000000000E-01 0.  1.
          3   -1    0    0  501    0  0.00000000000E+00 -0.00000000000E+00 -0.13516003528E+01  0.13547961152E+01  0.93000000000E-01 0. -1.
        -11    1    1    2    0    0 -0.14470211285E+02 -0.41652762381E+01  0.90808795153E+02  0.92048757831E+02  0.51100000000E-03 0. -1.
         11    1    1    2    0    0  0.14470211285E+02  0.41652762381E+01  0.76574242297E+02  0.78040701717E+02  0.51100000000E-03 0.  1.
<mgrwt>
<rscale>  0 0.30221566E+02</rscale>
<asrwt>0</asrwt>
<pdfrwt beam="2">  1        3 0.20818645E-03 0.30221566E+02</pdfrwt>
<pdfrwt beam="1">  1       -3 0.25959406E-01 0.30221566E+02</pdfrwt>
<totfact> 0.48267562E+05</totfact>
</mgrwt>
</event>
<event>
 4    1  0.1754914E-001  0.3840052E+02  0.7818608E-02  0.1520323E+00
          3   -1    0    0  501    0  0.00000000000E+00  0.00000000000E+00  0.14787684898E+02  0.14787977334E+02  0.93000000000E-01 0. -1.
         -3   -1    0    0    0  501 -0.00000000000E+00 -0.00000000000E+00 -0.24928897690E+02  0.24929071163E+02  0.93000000000E-01 0.  1.
        -11    1    1    2    0    0  0.52691649433E+01 -0.16973663329E+02  0.24434942807E+01  0.17939899960E+02  0.51100000000E-03 0. -1.
         11    1    1    2    0    0 -0.52691649433E+01  0.16973663329E+02 -0.12584707074E+02  0.21777148537E+02  0.51100000000E-03 0.  1.
<mgrwt>
<rscale>  0 0.38400518E+02</rscale>
<asrwt>0</asrwt>
<pdfrwt beam="1">  1        3 0.22750643E-02 0.38400518E+02</pdfrwt>
<pdfrwt beam="2">  1       -3 0.38352509E-02 0.38400518E+02</pdfrwt>
<totfact> 0.37425569E+05</totfact>
</mgrwt>
</event>
<event>
 4    1  0.1754914E-001  0.3175343E+02  0.7818608E-02  0.1579478E+00
          3   -1    0    0  501    0  0.00000000000E+00  0.00000000000E+00  0.80408608564E+02  0.80408662346E+02  0.93000000000E-01 0.  1.
         -3   -1    0    0    0  501 -0.00000000000E+00 -0.00000000000E+00 -0.31341194995E+01  0.31354990092E+01  0.93000000000E-01 0. -1.
        -11    1    1    2    0    0 -0.13523250313E+02  0.62939462936E+01  0.52946264101E+02  0.55007262625E+02  0.51100000000E-03 0.  1.
         11    1    1    2    0    0  0.13523250313E+02 -0.62939462936E+01  0.24328224964E+02  0.28536898730E+02  0.51100000000E-03 0. -1.
<mgrwt>
<rscale>  0 0.31753429E+02</rscale>
<asrwt>0</asrwt>
<pdfrwt beam="1">  1        3 0.12370665E-01 0.31753429E+02</pdfrwt>
<pdfrwt beam="2">  1       -3 0.48228250E-03 0.31753429E+02</pdfrwt>
<totfact> 0.52284023E+05</totfact>
</mgrwt>
</event>
<event>
 4    1  0.1754914E-001  0.2457428E+02  0.7818608E-02  0.1667193E+00
          3   -1    0    0  501    0  0.00000000000E+00  0.00000000000E+00  0.60401806968E+02  0.60401878564E+02  0.93000000000E-01 0. -1.
         -3   -1    0    0    0  501 -0.00000000000E+00 -0.00000000000E+00 -0.24985525490E+01  0.25002827521E+01  0.93000000000E-01 0.  1.
        -11    1    1    2    0    0  0.10220421523E+02  0.60227156374E+01  0.37144041759E+02  0.38992434628E+02  0.51100000000E-03 0. -1.
         11    1    1    2    0    0 -0.10220421523E+02 -0.60227156374E+01  0.20759212660E+02  0.23909726688E+02  0.51100000000E-03 0.  1.
<mgrwt>
<rscale>  0 0.24574276E+02</rscale>
<asrwt>0</asrwt>
<pdfrwt beam="1">  1        3 0.92927228E-02 0.24574276E+02</pdfrwt>
<pdfrwt beam="2">  1       -3 0.38453136E-03 0.24574276E+02</pdfrwt>
<totfact> 0.99352772E+05</totfact>
</mgrwt>
</event>
<event>
 4    1  0.1754914E-001  0.8483651E+02  0.7818608E-02  0.1315861E+00
         -3   -1    0    0    0  501 -0.00000000000E+00  0.00000000000E+00  0.46487978736E+03  0.46487979667E+03  0.93000000000E-01 0.  1.
          3   -1    0    0  501    0  0.00000000000E+00 -0.00000000000E+00 -0.38699131296E+01  0.38710304352E+01  0.93000000000E-01 0. -1.
        -11    1    1    2    0    0  0.39420223262E+02  0.15576449952E+02  0.22137783596E+03  0.22539903737E+03  0.51100000000E-03 0. -1.
         11    1    1    2    0    0 -0.39420223262E+02 -0.15576449952E+02  0.23963203828E+03  0.24335178973E+03  0.51100000000E-03 0.  1.
<mgrwt>
<rscale>  0 0.84836512E+02</rscale>
<asrwt>0</asrwt>
<pdfrwt beam="2">  1        3 0.59545778E-03 0.84836512E+02</pdfrwt>
<pdfrwt beam="1">  1       -3 0.71520070E-01 0.84836512E+02</pdfrwt>
<totfact> 0.22615334E+04</totfact>
</mgrwt>
</event>
<event>
 4    1  0.1754914E-001  0.4307072E+02  0.7818608E-02  0.1486758E+00
          3   -1    0    0  501    0  0.00000000000E+00  0.00000000000E+00  0.46703807445E+02  0.46703900039E+02  0.93000000000E-01 0.  1.
         -3   -1    0    0    0  501 -0.00000000000E+00 -0.00000000000E+00 -0.99297412322E+01  0.99301767325E+01  0.93000000000E-01 0. -1.
        -11    1    1    2    0    0 -0.18578335215E+02  0.25663004537E+01  0.44694030671E+01  0.19279937796E+02  0.51100000000E-03 0. -1.
         11    1    1    2    0    0  0.18578335215E+02 -0.25663004537E+01  0.32304663146E+02  0.37354138975E+02  0.51100000000E-03 0.  1.
<mgrwt>
<rscale>  0 0.43070717E+02</rscale>
<asrwt>0</asrwt>
<pdfrwt beam="1">  1        3 0.71852417E-02 0.43070717E+02</pdfrwt>
<pdfrwt beam="2">  1       -3 0.15276931E-02 0.43070717E+02</pdfrwt>
<totfact> 0.26953136E+05</totfact>
</mgrwt>
</event>
<event>
 4    1  0.1754914E-001  0.2112061E+02  0.7818608E-02  0.1723920E+00
         -3   -1    0    0    0  501 -0.00000000000E+00  0.00000000000E+00  0.73480142367E+01  0.73486027395E+01  0.93000000000E-01 0.  1.
          3   -1    0    0  501    0  0.00000000000E+00 -0.00000000000E+00 -0.15175562429E+02  0.15175847391E+02  0.93000000000E-01 0. -1.
        -11    1    1    2    0    0 -0.82663032323E+01 -0.65627932593E+01 -0.42802124005E+01  0.11389567285E+02  0.51100000000E-03 0.  1.
         11    1    1    2    0    0  0.82663032323E+01  0.65627932593E+01 -0.35473357915E+01  0.11134882845E+02  0.51100000000E-03 0. -1.
<mgrwt>
<rscale>  0 0.21120614E+02</rscale>
<asrwt>0</asrwt>
<pdfrwt beam="2">  1        3 0.23347691E-02 0.21120614E+02</pdfrwt>
<pdfrwt beam="1">  1       -3 0.11305309E-02 0.21120614E+02</pdfrwt>
<totfact> 0.15742669E+06</totfact>
</mgrwt>
</event>
<event>
 4    1  0.1754914E-001  0.2705706E+02  0.7818608E-02  0.1633100E+00
         -3   -1    0    0    0  501 -0.00000000000E+00  0.00000000000E+00  0.20664344133E+01  0.20685260898E+01  0.93000000000E-01 0.  1.
          3   -1    0    0  501    0  0.00000000000E+00 -0.00000000000E+00 -0.88521668457E+02  0.88521717309E+02  0.93000000000E-01 0. -1.
        -11    1    1    2    0    0  0.35534912732E+01  0.12814554781E+02 -0.51551621366E+02  0.53239175240E+02  0.51100000000E-03 0. -1.
         11    1    1    2    0    0 -0.35534912732E+01 -0.12814554781E+02 -0.34903612677E+02  0.37351068159E+02  0.51100000000E-03 0.  1.
<mgrwt>
<rscale>  0 0.27057064E+02</rscale>
<asrwt>0</asrwt>
<pdfrwt beam="2">  1        3 0.13618880E-01 0.27057064E+02</pdfrwt>
<pdfrwt beam="1">  1       -3 0.31807771E-03 0.27057064E+02</pdfrwt>
<totfact> 0.74330668E+05</totfact>
</mgrwt>
</event>
<event>
 4    1  0.1754914E-001  0.2834360E+02  0.7818608E-02  0.1617154E+00
         -3   -1    0    0    0  501 -0.00000000000E+00  0.00000000000E+00  0.21923318486E+02  0.21923515740E+02  0.93000000000E-01 0. -1.
          3   -1    0    0  501    0  0.00000000000E+00 -0.00000000000E+00 -0.91605422651E+01  0.91610143320E+01  0.93000000000E-01 0.  1.
        -11    1    1    2    0    0  0.75236150255E+01  0.11888614435E+02  0.82477032752E+01  0.16308542112E+02  0.51100000000E-03 0. -1.
         11    1    1    2    0    0 -0.75236150255E+01 -0.11888614435E+02  0.45150729453E+01  0.14775987960E+02  0.51100000000E-03 0.  1.
<mgrwt>
<rscale>  0 0.28343598E+02</rscale>
<asrwt>0</asrwt>
<pdfrwt beam="2">  1        3 0.14093657E-02 0.28343598E+02</pdfrwt>
<pdfrwt beam="1">  1       -3 0.33728697E-02 0.28343598E+02</pdfrwt>
<totfact> 0.78955193E+05</totfact>
</mgrwt>
</event>
<event>
 4    1  0.1754914E-001  0.3318145E+02  0.7818608E-02  0.1565369E+00
          3   -1    0    0  501    0  0.00000000000E+00  0.00000000000E+00  0.47746213115E+01  0.47755269519E+01  0.93000000000E-01 0.  1.
         -3   -1    0    0    0  501 -0.00000000000E+00 -0.00000000000E+00 -0.57642603578E+02  0.57642678600E+02  0.93000000000E-01 0. -1.
        -11    1    1    2    0    0 -0.67403711298E+01  0.14418100428E+02 -0.35244768984E+02  0.38671798043E+02  0.51100000000E-03 0.  1.
         11    1    1    2    0    0  0.67403711298E+01 -0.14418100428E+02 -0.17623213283E+02  0.23746407509E+02  0.51100000000E-03 0. -1.
<mgrwt>
<rscale>  0 0.33181453E+02</rscale>
<asrwt>0</asrwt>
<pdfrwt beam="1">  1        3 0.73463260E-03 0.33181453E+02</pdfrwt>
<pdfrwt beam="2">  1       -3 0.88681678E-02 0.33181453E+02</pdfrwt>
<totfact> 0.49828243E+05</totfact>
</mgrwt>
</event>
<event>
 4    1  0.1754914E-001  0.2682039E+02  0.7818608E-02  0.1636152E+00
          3   -1    0    0  501    0  0.00000000000E+00  0.00000000000E+00  0.39917130848E+02  0.39917239184E+02  0.93000000000E-01 0.  1.
         -3   -1    0    0    0  501 -0.00000000000E+00 -0.00000000000E+00 -0.45045729865E+01  0.45055329087E+01  0.93000000000E-01 0. -1.
        -11    1    1    2    0    0  0.74009592247E+01 -0.80548870873E+01  0.48575774189E+01  0.11968770283E+02  0.51100000000E-03 0. -1.
         11    1    1    2    0    0 -0.74009592247E+01  0.80548870873E+01  0.30554980442E+02  0.32454001811E+02  0.51100000000E-03 0.  1.
<mgrwt>
<rscale>  0 0.26820392E+02</rscale>
<asrwt>0</asrwt>
<pdfrwt beam="1">  1        3 0.61411793E-02 0.26820392E+02</pdfrwt>
<pdfrwt beam="2">  1       -3 0.69309340E-03 0.26820392E+02</pdfrwt>
<totfact> 0.85979794E+05</totfact>
</mgrwt>
</event>
<event>
 4    1  0.1754914E-001  0.5153902E+02  0.7818608E-02  0.1437213E+00
         -3   -1    0    0    0  501 -0.00000000000E+00  0.00000000000E+00  0.70964237427E+01  0.70970331080E+01  0.93000000000E-01 0.  1.
          3   -1    0    0  501    0  0.00000000000E+00 -0.00000000000E+00 -0.93573123501E+02  0.93573169716E+02  0.93000000000E-01 0. -1.
        -11    1    1    2    0    0  0.25626121593E+02  0.26101346403E+01 -0.41781061964E+02  0.49083276681E+02  0.51100000000E-03 0. -1.
         11    1    1    2    0    0 -0.25626121593E+02 -0.26101346403E+01 -0.44695637794E+02  0.51586926142E+02  0.51100000000E-03 0.  1.
<mgrwt>
<rscale>  0 0.51539016E+02</rscale>
<asrwt>0</asrwt>
<pdfrwt beam="2">  1        3 0.14395915E-01 0.51539016E+02</pdfrwt>
<pdfrwt beam="1">  1       -3 0.10918080E-02 0.51539016E+02</pdfrwt>
<totfact> 0.15447508E+05</totfact>
</mgrwt>
</event>
<event>
 4    1  0.1754914E-001  0.3675211E+02  0.7818608E-02  0.1533570E+00
          3   -1    0    0  501    0  0.00000000000E+00  0.00000000000E+00  0.17045806074E+03  0.17045808611E+03  0.93000000000E-01 0. -1.
         -3   -1    0    0    0  501 -0.00000000000E+00 -0.00000000000E+00 -0.19798945484E+01  0.19820775521E+01  0.93000000000E-01 0.  1.
        -11    1    1    2    0    0 -0.11433839995E+02  0.13590919555E+02  0.62115216422E+02  0.64604534692E+02  0.51100000000E-03 0.  1.
         11    1    1    2    0    0  0.11433839995E+02 -0.13590919555E+02  0.10636294977E+03  0.10783562897E+03  0.51100000000E-03 0. -1.
<mgrwt>
<rscale>  0 0.36752110E+02</rscale>
<asrwt>0</asrwt>
<pdfrwt beam="1">  1        3 0.26224488E-01 0.36752110E+02</pdfrwt>
<pdfrwt beam="2">  1       -3 0.30476902E-03 0.36752110E+02</pdfrwt>
<totfact> 0.30330148E+05</totfact>
</mgrwt>
</event>
<event>
 4    1  0.1754914E-001  0.1176533E+03  0.7818608E-02  0.1247019E+00
          3   -1    0    0  501    0  0.00000000000E+00  0.00000000000E+00  0.45171766022E+02  0.45171861756E+02  0.93000000000E-01 0. -1.
         -3   -1    0    0    0  501 -0.00000000000E+00 -0.00000000000E+00 -0.76609040087E+02  0.76609096536E+02  0.93000000000E-01 0.  1.
        -11    1    1    2    0    0  0.34584572546E+02  0.44360882223E+02 -0.33544752551E+02  0.65492220559E+02  0.51100000000E-03 0.  1.
         11    1    1    2    0    0 -0.34584572546E+02 -0.44360882223E+02  0.21074784858E+01  0.56288737734E+02  0.51100000000E-03 0. -1.
<mgrwt>
<rscale>  0 0.11765330E+03</rscale>
<asrwt>0</asrwt>
<pdfrwt beam="1">  1        3 0.69495142E-02 0.11765330E+03</pdfrwt>
<pdfrwt beam="2">  1       -3 0.11786018E-01 0.11765330E+03</pdfrwt>
<totfact> 0.16391123E+04</totfact>
</mgrwt>
</event>
<event>
 4    1  0.1754914E-001  0.2661720E+02  0.7818608E-02  0.1638804E+00
          3   -1    0    0  501    0  0.00000000000E+00  0.00000000000E+00  0.75751737534E+01  0.75757446098E+01  0.93000000000E-01 0.  1.
         -3   -1    0    0    0  501 -0.00000000000E+00 -0.00000000000E+00 -0.23379937117E+02  0.23380122083E+02  0.93000000000E-01 0. -1.
        -11    1    1    2    0    0  0.12516977973E+02  0.42333360342E+01 -0.60551057787E+01  0.14534791976E+02  0.51100000000E-03 0.  1.
         11    1    1    2    0    0 -0.12516977973E+02 -0.42333360342E+01 -0.97496575853E+01  0.16421074716E+02  0.51100000000E-03 0. -1.
<mgrwt>
<rscale>  0 0.26617196E+02</rscale>
<asrwt>0</asrwt>
<pdfrwt beam="1">  1        3 0.11654695E-02 0.26617196E+02</pdfrwt>
<pdfrwt beam="2">  1       -3 0.35969715E-02 0.26617196E+02</pdfrwt>
<totfact> 0.91244242E+05</totfact>
</mgrwt>
</event>
<event>
 4    1  0.1754914E-001  0.2954648E+02  0.7818608E-02  0.1603156E+00
          3   -1    0    0  501    0  0.00000000000E+00  0.00000000000E+00  0.10398794963E+02  0.10399210820E+02  0.93000000000E-01 0. -1.
         -3   -1    0    0    0  501 -0.00000000000E+00 -0.00000000000E+00 -0.20986942585E+02  0.20987148640E+02  0.93000000000E-01 0.  1.
        -11    1    1    2    0    0 -0.91097389990E+01  0.82489427604E+01  0.34150076097E+01  0.12755182419E+02  0.51100000000E-03 0. -1.
         11    1    1    2    0    0  0.91097389990E+01 -0.82489427604E+01 -0.14003155231E+02  0.18631177042E+02  0.51100000000E-03 0.  1.
<mgrwt>
<rscale>  0 0.29546484E+02</rscale>
<asrwt>0</asrwt>
<pdfrwt beam="1">  1        3 0.15998625E-02 0.29546484E+02</pdfrwt>
<pdfrwt beam="2">  1       -3 0.32288082E-02 0.29546484E+02</pdfrwt>
<totfact> 0.71642118E+05</totfact>
</mgrwt>
</event>
<event>
 4    1  0.1754914E-001  0.4211071E+02  0.7818608E-02  0.1493229E+00
          3   -1    0    0  501    0  0.00000000000E+00  0.00000000000E+00  0.27313676517E+02  0.27313834844E+02  0.93000000000E-01 0.  1.
         -3   -1    0    0    0  501 -0.00000000000E+00 -0.00000000000E+00 -0.16230649042E+02  0.16230915480E+02  0.93000000000E-01 0. -1.
        -11    1    1    2    0    0  0.18107494274E+02  0.18462771318E+01  0.16486762891E+02  0.24558164406E+02  0.51100000000E-03 0.  1.
         11    1    1    2    0    0 -0.18107494274E+02 -0.18462771318E+01 -0.54037354161E+01  0.18986585918E+02  0.51100000000E-03 0. -1.
<mgrwt>
<rscale>  0 0.42110709E+02</rscale>
<asrwt>0</asrwt>
<pdfrwt beam="1">  1        3 0.42021367E-02 0.42110709E+02</pdfrwt>
<pdfrwt beam="2">  1       -3 0.24970556E-02 0.42110709E+02</pdfrwt>
<totfact> 0.29540297E+05</totfact>
</mgrwt>
</event>
<event>
 4    1  0.1754914E-001  0.2503623E+02  0.7818608E-02  0.1660482E+00
          3   -1    0    0  501    0  0.00000000000E+00  0.00000000000E+00  0.43150615918E+01  0.43160636627E+01  0.93000000000E-01 0. -1.
         -3   -1    0    0    0  501 -0.00000000000E+00 -0.00000000000E+00 -0.36310114663E+02  0.36310233762E+02  0.93000000000E-01 0.  1.
        -11    1    1    2    0    0 -0.19321806877E+00 -0.10049460116E+02 -0.38897257841E+01  0.10777706101E+02  0.51100000000E-03 0. -1.
         11    1    1    2    0    0  0.19321806877E+00  0.10049460116E+02 -0.28105327287E+02  0.29848591324E+02  0.51100000000E-03 0.  1.
<mgrwt>
<rscale>  0 0.25036226E+02</rscale>
<asrwt>0</asrwt>
<pdfrwt beam="1">  1        3 0.66394190E-03 0.25036226E+02</pdfrwt>
<pdfrwt beam="2">  1       -3 0.55862575E-02 0.25036226E+02</pdfrwt>
<totfact> 0.10169454E+06</totfact>
</mgrwt>
</event>
<event>
 4    1  0.1754914E-001  0.8108656E+02  0.7818608E-02  0.1325996E+00
         -3   -1    0    0    0  501 -0.00000000000E+00  0.00000000000E+00  0.29191047271E+02  0.29191195416E+02  0.93000000000E-01 0.  1.
          3   -1    0    0  501    0  0.00000000000E+00 -0.00000000000E+00 -0.56309996237E+02  0.56310073035E+02  0.93000000000E-01 0. -1.
        -11    1    1    2    0    0 -0.25830005191E+02  0.11816475504E+02  0.16945498001E+02  0.33075189557E+02  0.51100000000E-03 0.  1.
         11    1    1    2    0    0  0.25830005191E+02 -0.11816475504E+02 -0.44064446966E+02  0.52426078894E+02  0.51100000000E-03 0. -1.
<mgrwt>
<rscale>  0 0.81086556E+02</rscale>
<asrwt>0</asrwt>
<pdfrwt beam="2">  1        3 0.86630936E-02 0.81086556E+02</pdfrwt>
<pdfrwt beam="1">  1       -3 0.44909477E-02 0.81086556E+02</pdfrwt>
<totfact> 0.49136321E+04</totfact>
</mgrwt>
</event>
<event>
 4    1  0.1754914E-001  0.2536847E+02  0.7818608E-02  0.1655765E+00
         -3   -1    0    0    0  501 -0.00000000000E+00  0.00000000000E+00  0.13725623495E+01  0.13757094182E+01  0.93000000000E-01 0.  1.
          3   -1    0    0  501    0  0.00000000000E+00 -0.00000000000E+00 -0.11708116183E+03  0.11708119876E+03  0.93000000000E-01 0. -1.
        -11    1    1    2    0    0 -0.38754132996E+00  0.12464268828E+02 -0.68686619413E+02  0.69809454033E+02  0.51100000000E-03 0.  1.
         11    1    1    2    0    0  0.38754132996E+00 -0.12464268828E+02 -0.47021980066E+02  0.48647454150E+02  0.51100000000E-03 0. -1.
<mgrwt>
<rscale>  0 0.25368467E+02</rscale>
<asrwt>0</asrwt>
<pdfrwt beam="2">  1        3 0.18012723E-01 0.25368467E+02</pdfrwt>
<pdfrwt beam="1">  1       -3 0.21140846E-03 0.25368467E+02</pdfrwt>
<totfact> 0.80450437E+05</totfact>
</mgrwt>
</event>
<event>
 4    1  0.1754914E-001  0.2640124E+02  0.7818608E-02  0.1641654E+00
         -3   -1    0    0    0  501 -0.00000000000E+00  0.00000000000E+00  0.15624758482E+02  0.15625035252E+02  0.93000000000E-01 0. -1.
          3   -1    0    0  501    0  0.00000000000E+00 -0.00000000000E+00 -0.11152010453E+02  0.11152398224E+02  0.93000000000E-01 0.  1.
        -11    1    1    2    0    0 -0.22527774869E+01 -0.12526009687E+02 -0.13179058484E+01  0.12795030331E+02  0.51100000000E-03 0.  1.
         11    1    1    2    0    0  0.22527774869E+01  0.12526009687E+02  0.57906538772E+01  0.13982403144E+02  0.51100000000E-03 0. -1.
<mgrwt>
<rscale>  0 0.26401240E+02</rscale>
<asrwt>0</asrwt>
<pdfrwt beam="2">  1        3 0.17157450E-02 0.26401240E+02</pdfrwt>
<pdfrwt beam="1">  1       -3 0.24038601E-02 0.26401240E+02</pdfrwt>
<totfact> 0.94245794E+05</totfact>
</mgrwt>
</event>
<event>
 4    1  0.1754914E-001  0.2303357E+02  0.7818608E-02  0.1690966E+00
          3   -1    0    0  501    0  0.00000000000E+00  0.00000000000E+00  0.28308108057E+01  0.28323380479E+01  0.93000000000E-01 0.  1.
         -3   -1    0    0    0  501 -0.00000000000E+00 -0.00000000000E+00 -0.46840347137E+02  0.46840439461E+02  0.93000000000E-01 0. -1.
        -11    1    1    2    0    0 -0.56817692372E+00 -0.10768426590E+02 -0.30725970908E+02  0.32563278777E+02  0.51100000000E-03 0. -1.
         11    1    1    2    0    0  0.56817692372E+00  0.10768426590E+02 -0.13283565423E+02  0.17109498732E+02  0.51100000000E-03 0.  1.
<mgrwt>
<rscale>  0 0.23033574E+02</rscale>
<asrwt>0</asrwt>
<pdfrwt beam="1">  1        3 0.43563397E-03 0.23033574E+02</pdfrwt>
<pdfrwt beam="2">  1       -3 0.72063313E-02 0.23033574E+02</pdfrwt>
<totfact> 0.11919631E+06</totfact>
</mgrwt>
</event>
<event>
 4    1  0.1754914E-001  0.2246973E+02  0.7818608E-02  0.1700253E+00
          3   -1    0    0  501    0  0.00000000000E+00  0.00000000000E+00  0.18695657973E+01  0.18718774721E+01  0.93000000000E-01 0. -1.
         -3   -1    0    0    0  501 -0.00000000000E+00 -0.00000000000E+00 -0.67470108981E+02  0.67470173076E+02  0.93000000000E-01 0.  1.
        -11    1    1    2    0    0 -0.36352024543E+01  0.96220018061E+01 -0.18853450872E+02  0.21476736849E+02  0.51100000000E-03 0. -1.
         11    1    1    2    0    0  0.36352024543E+01 -0.96220018061E+01 -0.46747092311E+02  0.47865313699E+02  0.51100000000E-03 0.  1.
<mgrwt>
<rscale>  0 0.22469729E+02</rscale>
<asrwt>0</asrwt>
<pdfrwt beam="1">  1        3 0.28780831E-03 0.22469729E+02</pdfrwt>
<pdfrwt beam="2">  1       -3 0.10380198E-01 0.22469729E+02</pdfrwt>
<totfact> 0.11908147E+06</totfact>
</mgrwt>
</event>
<event>
 4    1  0.1754914E-001  0.2773490E+02  0.7818608E-02  0.1624566E+00
         -3   -1    0    0    0  501 -0.00000000000E+00  0.00000000000E+00  0.18775939230E+02  0.18776169550E+02  0.93000000000E-01 0.  1.
          3   -1    0    0  501    0  0.00000000000E+00 -0.00000000000E+00 -0.10241655913E+02  0.10242078151E+02  0.93000000000E-01 0. -1.
        -11    1    1    2    0    0 -0.41760956489E+01  0.12588149714E+02  0.85048514701E+01  0.15755436740E+02  0.51100000000E-03 0.  1.
         11    1    1    2    0    0  0.41760956489E+01 -0.12588149714E+02  0.29431846706E-01  0.13262810961E+02  0.51100000000E-03 0. -1.
<mgrwt>
<rscale>  0 0.27734901E+02</rscale>
<asrwt>0</asrwt>
<pdfrwt beam="2">  1        3 0.15756896E-02 0.27734901E+02</pdfrwt>
<pdfrwt beam="1">  1       -3 0.28886562E-02 0.27734901E+02</pdfrwt>
<totfact> 0.83562247E+05</totfact>
</mgrwt>
</event>
<event>
 4    1  0.1754914E-001  0.2823046E+02  0.7818608E-02  0.1618515E+00
          3   -1    0    0  501    0  0.00000000000E+00  0.00000000000E+00  0.77645973479E+01  0.77651542789E+01  0.93000000000E-01 0.  1.
         -3   -1    0    0    0  501 -0.00000000000E+00 -0.00000000000E+00 -0.25658464926E+02  0.25658633466E+02  0.93000000000E-01 0. -1.
        -11    1    1    2    0    0 -0.13500291924E+02 -0.16194404120E+01 -0.44604683062E+01  0.14310005138E+02  0.51100000000E-03 0. -1.
         11    1    1    2    0    0  0.13500291924E+02  0.16194404120E+01 -0.13433399272E+02  0.19113782607E+02  0.51100000000E-03 0.  1.
<mgrwt>
<rscale>  0 0.28230464E+02</rscale>
<asrwt>0</asrwt>
<pdfrwt beam="1">  1        3 0.11946093E-02 0.28230464E+02</pdfrwt>
<pdfrwt beam="2">  1       -3 0.39475119E-02 0.28230464E+02</pdfrwt>
<totfact> 0.79093301E+05</totfact>
</mgrwt>
</event>
<event>
 4    1  0.1754914E-001  0.6285701E+02  0.7818608E-02  0.1386219E+00
          3   -1    0    0  501    0  0.00000000000E+00  0.00000000000E+00  0.54957966355E+02  0.54958045042E+02  0.93000000000E-01 0. -1.
         -3   -1    0    0    0  501 -0.00000000000E+00 -0.00000000000E+00 -0.17972633770E+02  0.17972874384E+02  0.93000000000E-01 0.  1.
        -11    1    1    2    0    0  0.23954043993E+02  0.13333511806E+02  0.36323531184E+02  0.45507995766E+02  0.51100000000E-03 0. -1.
         11    1    1    2    0    0 -0.23954043993E+02 -0.13333511806E+02  0.66180140163E+00  0.27422923660E+02  0.51100000000E-03 0.  1.
<mgrwt>
<rscale>  0 0.62857014E+02</rscale>
<asrwt>0</asrwt>
<pdfrwt beam="1">  1        3 0.84550962E-02 0.62857014E+02</pdfrwt>
<pdfrwt beam="2">  1       -3 0.27650452E-02 0.62857014E+02</pdfrwt>
<totfact> 0.99201701E+04</totfact>
</mgrwt>
</event>
<event>
 4    1  0.1754914E-001  0.2363545E+02  0.7818608E-02  0.1681412E+00
          3   -1    0    0  501    0  0.00000000000E+00  0.00000000000E+00  0.11493630327E+01  0.11531194131E+01  0.93000000000E-01 0.  1.
         -3   -1    0    0    0  501 -0.00000000000E+00 -0.00000000000E+00 -0.12130752983E+03  0.12130756548E+03  0.93000000000E-01 0. -1.
        -11    1    1    2    0    0 -0.23644720290E+01 -0.11553929032E+02 -0.56151691306E+02  0.57376793574E+02  0.51100000000E-03 0. -1.
         11    1    1    2    0    0  0.23644720290E+01  0.11553929032E+02 -0.64006475488E+02  0.65083891315E+02  0.51100000000E-03 0.  1.
<mgrwt>
<rscale>  0 0.23635446E+02</rscale>
<asrwt>0</asrwt>
<pdfrwt beam="1">  1        3 0.17711687E-03 0.23635446E+02</pdfrwt>
<pdfrwt beam="2">  1       -3 0.18662979E-01 0.23635446E+02</pdfrwt>
<totfact> 0.93379700E+05</totfact>
</mgrwt>
</event>
<event>
 4    1  0.1754914E-001  0.2941619E+02  0.7818608E-02  0.1604633E+00
         -3   -1    0    0    0  501 -0.00000000000E+00  0.00000000000E+00  0.84161290847E+02  0.84161342231E+02  0.93000000000E-01 0.  1.
          3   -1    0    0  501    0  0.00000000000E+00 -0.00000000000E+00 -0.25695058768E+01  0.25711883344E+01  0.93000000000E-01 0. -1.
        -11    1    1    2    0    0  0.11594926828E+02  0.66494971019E-01  0.14115753608E+02  0.18267491615E+02  0.51100000000E-03 0. -1.
         11    1    1    2    0    0 -0.11594926828E+02 -0.66494971019E-01  0.67476031363E+02  0.68465038950E+02  0.51100000000E-03 0.  1.
<mgrwt>
<rscale>  0 0.29416194E+02</rscale>
<asrwt>0</asrwt>
<pdfrwt beam="2">  1        3 0.39544193E-03 0.29416194E+02</pdfrwt>
<pdfrwt beam="1">  1       -3 0.12948026E-01 0.29416194E+02</pdfrwt>
<totfact> 0.61981607E+05</totfact>
</mgrwt>
</event>
<event>
 4    1  0.1754914E-001  0.3501410E+02  0.7818608E-02  0.1548475E+00
          3   -1    0    0  501    0  0.00000000000E+00  0.00000000000E+00  0.74427281342E+02  0.74427339446E+02  0.93000000000E-01 0.  1.
         -3   -1    0    0    0  501 -0.00000000000E+00 -0.00000000000E+00 -0.41174865903E+01  0.41185367331E+01  0.93000000000E-01 0. -1.
        -11    1    1    2    0    0 -0.78292048354E+01 -0.10262634845E+02  0.86237380829E+01  0.15523755380E+02  0.51100000000E-03 0. -1.
         11    1    1    2    0    0  0.78292048354E+01  0.10262634845E+02  0.61686056669E+02  0.63022120798E+02  0.51100000000E-03 0.  1.
<mgrwt>
<rscale>  0 0.35014103E+02</rscale>
<asrwt>0</asrwt>
<pdfrwt beam="1">  1        3 0.11450435E-01 0.35014103E+02</pdfrwt>
<pdfrwt beam="2">  1       -3 0.63354477E-03 0.35014103E+02</pdfrwt>
<totfact> 0.42043362E+05</totfact>
</mgrwt>
</event>
<event>
 4    1  0.1754914E-001  0.2358733E+02  0.7818608E-02  0.1682163E+00
         -3   -1    0    0    0  501 -0.00000000000E+00  0.00000000000E+00  0.38156428117E+01  0.38167760043E+01  0.93000000000E-01 0.  1.
          3   -1    0    0  501    0  0.00000000000E+00 -0.00000000000E+00 -0.36446120220E+02  0.36446238874E+02  0.93000000000E-01 0. -1.
        -11    1    1    2    0    0  0.10972262563E+01 -0.11718357892E+02 -0.17600309905E+02  0.21172971595E+02  0.51100000000E-03 0. -1.
         11    1    1    2    0    0 -0.10972262563E+01  0.11718357892E+02 -0.15030167503E+02  0.19090043284E+02  0.51100000000E-03 0.  1.
<mgrwt>
<rscale>  0 0.23587334E+02</rscale>
<asrwt>0</asrwt>
<pdfrwt beam="2">  1        3 0.56071915E-02 0.23587334E+02</pdfrwt>
<pdfrwt beam="1">  1       -3 0.58711829E-03 0.23587334E+02</pdfrwt>
<totfact> 0.11633697E+06</totfact>
</mgrwt>
</event>
<event>
 4    1  0.1754914E-001  0.2845756E+02  0.7818608E-02  0.1615792E+00
         -3   -1    0    0    0  501 -0.00000000000E+00  0.00000000000E+00  0.29621671549E+01  0.29636267062E+01  0.93000000000E-01 0. -1.
          3   -1    0    0  501    0  0.00000000000E+00 -0.00000000000E+00 -0.68329675168E+02  0.68329738457E+02  0.93000000000E-01 0.  1.
        -11    1    1    2    0    0 -0.86642793487E+01 -0.90489377694E+01 -0.15783940857E+02  0.20151570674E+02  0.51100000000E-03 0. -1.
         11    1    1    2    0    0  0.86642793487E+01  0.90489377694E+01 -0.49583567156E+02  0.51141794489E+02  0.51100000000E-03 0.  1.
<mgrwt>
<rscale>  0 0.28457562E+02</rscale>
<asrwt>0</asrwt>
<pdfrwt beam="2">  1        3 0.10512374E-01 0.28457562E+02</pdfrwt>
<pdfrwt beam="1">  1       -3 0.45583522E-03 0.28457562E+02</pdfrwt>
<totfact> 0.69601017E+05</totfact>
</mgrwt>
</event>
<event>
 4    1  0.1754914E-001  0.3652678E+02  0.7818608E-02  0.1535446E+00
         -3   -1    0    0    0  501 -0.00000000000E+00  0.00000000000E+00  0.38445827303E+01  0.38457073953E+01  0.93000000000E-01 0.  1.
          3   -1    0    0  501    0  0.00000000000E+00 -0.00000000000E+00 -0.86744988779E+02  0.86745038632E+02  0.93000000000E-01 0. -1.
        -11    1    1    2    0    0 -0.34682197373E+01  0.17353543652E+02 -0.52645804365E+02  0.55540568442E+02  0.51100000000E-03 0. -1.
         11    1    1    2    0    0  0.34682197373E+01 -0.17353543652E+02 -0.30254601684E+02  0.35050177585E+02  0.51100000000E-03 0.  1.
<mgrwt>
<rscale>  0 0.36526784E+02</rscale>
<asrwt>0</asrwt>
<pdfrwt beam="2">  1        3 0.13345472E-01 0.36526784E+02</pdfrwt>
<pdfrwt beam="1">  1       -3 0.59156468E-03 0.36526784E+02</pdfrwt>
<totfact> 0.36879174E+05</totfact>
</mgrwt>
</event>
<event>
 4    1  0.1754914E-001  0.2313520E+02  0.7818608E-02  0.1689328E+00
         -3   -1    0    0    0  501 -0.00000000000E+00  0.00000000000E+00  0.32862045519E+02  0.32862177115E+02  0.93000000000E-01 0.  1.
          3   -1    0    0  501    0  0.00000000000E+00 -0.00000000000E+00 -0.40711823668E+01  0.40722444504E+01  0.93000000000E-01 0. -1.
        -11    1    1    2    0    0  0.57344924027E+01 -0.86672226838E+01  0.62857508555E+01  0.12145608929E+02  0.51100000000E-03 0.  1.
         11    1    1    2    0    0 -0.57344924027E+01  0.86672226838E+01  0.22505112297E+02  0.24788812637E+02  0.51100000000E-03 0. -1.
<mgrwt>
<rscale>  0 0.23135205E+02</rscale>
<asrwt>0</asrwt>
<pdfrwt beam="2">  1        3 0.62642757E-03 0.23135205E+02</pdfrwt>
<pdfrwt beam="1">  1       -3 0.50557911E-02 0.23135205E+02</pdfrwt>
<totfact> 0.12273820E+06</totfact>
</mgrwt>
</event>
<event>
 4    1  0.1754914E-001  0.2705812E+02  0.7818608E-02  0.1633087E+00
         -3   -1    0    0    0  501 -0.00000000000E+00  0.00000000000E+00  0.20315998969E+02  0.20316211829E+02  0.93000000000E-01 0. -1.
          3   -1    0    0  501    0  0.00000000000E+00 -0.00000000000E+00 -0.90089268097E+01  0.90094068208E+01  0.93000000000E-01 0.  1.
        -11    1    1    2    0    0  0.61486148941E+01 -0.10299339070E+02  0.12435190833E+02  0.17277610417E+02  0.51100000000E-03 0. -1.
         11    1    1    2    0    0 -0.61486148941E+01  0.10299339070E+02 -0.11281186742E+01  0.12048008233E+02  0.51100000000E-03 0.  1.
<mgrwt>
<rscale>  0 0.27058123E+02</rscale>
<asrwt>0</asrwt>
<pdfrwt beam="2">  1        3 0.13860420E-02 0.27058123E+02</pdfrwt>
<pdfrwt beam="1">  1       -3 0.31255916E-02 0.27058123E+02</pdfrwt>
<totfact> 0.88348666E+05</totfact>
</mgrwt>
</event>
<event>
 4    1  0.1754914E-001  0.3337557E+02  0.7818608E-02  0.1563518E+00
          3   -1    0    0  501    0  0.00000000000E+00  0.00000000000E+00  0.18495029397E+02  0.18495263215E+02  0.93000000000E-01 0. -1.
         -3   -1    0    0    0  501 -0.00000000000E+00 -0.00000000000E+00 -0.15056660917E+02  0.15056948129E+02  0.93000000000E-01 0.  1.
        -11    1    1    2    0    0 -0.16341600363E+01  0.12718017516E+02  0.12455769457E+02  0.17876371041E+02  0.51100000000E-03 0. -1.
         11    1    1    2    0    0  0.16341600363E+01 -0.12718017516E+02 -0.90174009776E+01  0.15675840303E+02  0.51100000000E-03 0.  1.
<mgrwt>
<rscale>  0 0.33375568E+02</rscale>
<asrwt>0</asrwt>
<pdfrwt beam="1">  1        3 0.28454292E-02 0.33375568E+02</pdfrwt>
<pdfrwt beam="2">  1       -3 0.23164495E-02 0.33375568E+02</pdfrwt>
<totfact> 0.53410337E+05</totfact>
</mgrwt>
</event>
<event>
 4    1  0.1754914E-001  0.4243278E+02  0.7818608E-02  0.1491036E+00
          3   -1    0    0  501    0  0.00000000000E+00  0.00000000000E+00  0.53888364003E+02  0.53888444252E+02  0.93000000000E-01 0.  1.
         -3   -1    0    0    0  501 -0.00000000000E+00 -0.00000000000E+00 -0.83527612388E+01  0.83532789557E+01  0.93000000000E-01 0. -1.
        -11    1    1    2    0    0  0.17154915535E+02  0.10302546460E+02  0.33108872693E+02  0.38686315950E+02  0.51100000000E-03 0. -1.
         11    1    1    2    0    0 -0.17154915535E+02 -0.10302546460E+02  0.12426730072E+02  0.23555407258E+02  0.51100000000E-03 0.  1.
<mgrwt>
<rscale>  0 0.42432782E+02</rscale>
<asrwt>0</asrwt>
<pdfrwt beam="1">  1        3 0.82905635E-02 0.42432782E+02</pdfrwt>
<pdfrwt beam="2">  1       -3 0.12850862E-02 0.42432782E+02</pdfrwt>
<totfact> 0.27547152E+05</totfact>
</mgrwt>
</event>
<event>
 4    1  0.1754914E-001  0.3049228E+02  0.7818608E-02  0.1592710E+00
         -3   -1    0    0    0  501 -0.00000000000E+00  0.00000000000E+00  0.69831260738E+01  0.69837453248E+01  0.93000000000E-01 0. -1.
          3   -1    0    0  501    0  0.00000000000E+00 -0.00000000000E+00 -0.33284472656E+02  0.33284602581E+02  0.93000000000E-01 0.  1.
        -11    1    1    2    0    0  0.10410114314E+02  0.57832144348E+01 -0.57860225962E+00  0.11922702297E+02  0.51100000000E-03 0. -1.
         11    1    1    2    0    0 -0.10410114314E+02 -0.57832144348E+01 -0.25722744323E+02  0.28345645609E+02  0.51100000000E-03 0.  1.
<mgrwt>
<rscale>  0 0.30492278E+02</rscale>
<asrwt>0</asrwt>
<pdfrwt beam="2">  1        3 0.51207456E-02 0.30492278E+02</pdfrwt>
<pdfrwt beam="1">  1       -3 0.10743847E-02 0.30492278E+02</pdfrwt>
<totfact> 0.64742502E+05</totfact>
</mgrwt>
</event>
<event>
 4    1  0.1754914E-001  0.3029999E+02  0.7818608E-02  0.1594796E+00
          3   -1    0    0  501    0  0.00000000000E+00  0.00000000000E+00  0.25362921838E+01  0.25379966591E+01  0.93000000000E-01 0. -1.
         -3   -1    0    0    0  501 -0.00000000000E+00 -0.00000000000E+00 -0.90463094623E+02  0.90463142427E+02  0.93000000000E-01 0.  1.
        -11    1    1    2    0    0 -0.12912827892E+02 -0.79101675656E+01 -0.42555358573E+02  0.45169352648E+02  0.51100000000E-03 0. -1.
         11    1    1    2    0    0  0.12912827892E+02  0.79101675656E+01 -0.45371443866E+02  0.47831786438E+02  0.51100000000E-03 0.  1.
<mgrwt>
<rscale>  0 0.30299988E+02</rscale>
<asrwt>0</asrwt>
<pdfrwt beam="1">  1        3 0.39033366E-03 0.30299988E+02</pdfrwt>
<pdfrwt beam="2">  1       -3 0.13917531E-01 0.30299988E+02</pdfrwt>
<totfact> 0.56974278E+05</totfact>
</mgrwt>
</event>
<event>
 4    1  0.1754914E-001  0.3806574E+02  0.7818608E-02  0.1522948E+00
         -3   -1    0    0    0  501 -0.00000000000E+00  0.00000000000E+00  0.54999533064E+02  0.54999611692E+02  0.93000000000E-01 0.  1.
          3   -1    0    0  501    0  0.00000000000E+00 -0.00000000000E+00 -0.65860115228E+01  0.65866681090E+01  0.93000000000E-01 0. -1.
        -11    1    1    2    0    0  0.11922275234E+02  0.14774290708E+02  0.22018185160E+02  0.29072681175E+02  0.51100000000E-03 0.  1.
         11    1    1    2    0    0 -0.11922275234E+02 -0.14774290708E+02  0.26395336382E+02  0.32513598626E+02  0.51100000000E-03 0. -1.
<mgrwt>
<rscale>  0 0.38065743E+02</rscale>
<asrwt>0</asrwt>
<pdfrwt beam="2">  1        3 0.10132891E-02 0.38065743E+02</pdfrwt>
<pdfrwt beam="1">  1       -3 0.84615230E-02 0.38065743E+02</pdfrwt>
<totfact> 0.35961816E+05</totfact>
</mgrwt>
</event>
<event>
 4    1  0.1754914E-001  0.2859456E+02  0.7818608E-02  0.1614164E+00
         -3   -1    0    0    0  501 -0.00000000000E+00  0.00000000000E+00  0.91910461475E+02  0.91910508526E+02  0.93000000000E-01 0. -1.
          3   -1    0    0  501    0  0.00000000000E+00 -0.00000000000E+00 -0.22230163931E+01  0.22249608724E+01  0.93000000000E-01 0.  1.
        -11    1    1    2    0    0  0.13770315165E+02  0.31756878422E+01  0.37702401546E+02  0.40263850482E+02  0.51100000000E-03 0.  1.
         11    1    1    2    0    0 -0.13770315165E+02 -0.31756878422E+01  0.51985043535E+02  0.53871618916E+02  0.51100000000E-03 0. -1.
<mgrwt>
<rscale>  0 0.28594559E+02</rscale>
<asrwt>0</asrwt>
<pdfrwt beam="2">  1        3 0.34215571E-03 0.28594559E+02</pdfrwt>
<pdfrwt beam="1">  1       -3 0.14140224E-01 0.28594559E+02</pdfrwt>
<totfact> 0.64948705E+05</totfact>
</mgrwt>
</event>
<event>
 4    1  0.1754914E-001  0.4014197E+02  0.7818608E-02  0.1507169E+00
         -3   -1    0    0    0  501 -0.00000000000E+00  0.00000000000E+00  0.66386423857E+02  0.66386488998E+02  0.93000000000E-01 0.  1.
          3   -1    0    0  501    0  0.00000000000E+00 -0.00000000000E+00 -0.60677492362E+01  0.60684618969E+01  0.93000000000E-01 0. -1.
        -11    1    1    2    0    0 -0.13696244745E+01 -0.11330440738E+02  0.35880192043E+00  0.11418559349E+02  0.51100000000E-03 0. -1.
         11    1    1    2    0    0  0.13696244745E+01  0.11330440738E+02  0.59959872700E+02  0.61036391546E+02  0.51100000000E-03 0.  1.
<mgrwt>
<rscale>  0 0.40141966E+02</rscale>
<asrwt>0</asrwt>
<pdfrwt beam="2">  1        3 0.93355973E-03 0.40141966E+02</pdfrwt>
<pdfrwt beam="1">  1       -3 0.10213356E-01 0.40141966E+02</pdfrwt>
<totfact> 0.30726409E+05</totfact>
</mgrwt>
</event>
<event>
 4    1  0.1754914E-001  0.2346483E+02  0.7818608E-02  0.1684084E+00
          3   -1    0    0  501    0  0.00000000000E+00  0.00000000000E+00  0.48737068909E+02  0.48737157640E+02  0.93000000000E-01 0. -1.
         -3   -1    0    0    0  501 -0.00000000000E+00 -0.00000000000E+00 -0.28234720647E+01  0.28250032744E+01  0.93000000000E-01 0.  1.
        -11    1    1    2    0    0 -0.10109436650E+02  0.83160042564E+00  0.35911769698E+02  0.37316852383E+02  0.51100000000E-03 0. -1.
         11    1    1    2    0    0  0.10109436650E+02 -0.83160042564E+00  0.10001827147E+02  0.14245308532E+02  0.51100000000E-03 0.  1.
<mgrwt>
<rscale>  0 0.23464826E+02</rscale>
<asrwt>0</asrwt>
<pdfrwt beam="1">  1        3 0.74981353E-02 0.23464826E+02</pdfrwt>
<pdfrwt beam="2">  1       -3 0.43450492E-03 0.23464826E+02</pdfrwt>
<totfact> 0.11374402E+06</totfact>
</mgrwt>
</event>
<event>
 4    1  0.1754914E-001  0.2546278E+02  0.7818608E-02  0.1654442E+00
          3   -1    0    0  501    0  0.00000000000E+00  0.00000000000E+00  0.63175307233E+02  0.63175375685E+02  0.93000000000E-01 0.  1.
         -3   -1    0    0    0  501 -0.00000000000E+00 -0.00000000000E+00 -0.25647778367E+01  0.25664633938E+01  0.93000000000E-01 0. -1.
        -11    1    1    2    0    0 -0.10111310151E+02  0.76494236760E+01  0.33289550648E+02  0.35622274747E+02  0.51100000000E-03 0.  1.
         11    1    1    2    0    0  0.10111310151E+02 -0.76494236760E+01  0.27320978748E+02  0.30119564332E+02  0.51100000000E-03 0. -1.
<mgrwt>
<rscale>  0 0.25462779E+02</rscale>
<asrwt>0</asrwt>
<pdfrwt beam="1">  1        3 0.97194129E-02 0.25462779E+02</pdfrwt>
<pdfrwt beam="2">  1       -3 0.39471613E-03 0.25462779E+02</pdfrwt>
<totfact> 0.91005995E+05</totfact>
</mgrwt>
</event>
<event>
 4    1  0.1754914E-001  0.3980960E+02  0.7818608E-02  0.1509617E+00
          3   -1    0    0  501    0  0.00000000000E+00  0.00000000000E+00  0.75874425898E+01  0.75880125233E+01  0.93000000000E-01 0.  1.
         -3   -1    0    0    0  501 -0.00000000000E+00 -0.00000000000E+00 -0.52215414928E+02  0.52215497749E+02  0.93000000000E-01 0. -1.
        -11    1    1    2    0    0 -0.35589138632E+01 -0.16974629090E+02 -0.36986564925E+02  0.40851069581E+02  0.51100000000E-03 0.  1.
         11    1    1    2    0    0  0.35589138632E+01  0.16974629090E+02 -0.76414074131E+01  0.18952440691E+02  0.51100000000E-03 0. -1.
<mgrwt>
<rscale>  0 0.39809596E+02</rscale>
<asrwt>0</asrwt>
<pdfrwt beam="1">  1        3 0.11673491E-02 0.39809596E+02</pdfrwt>
<pdfrwt beam="2">  1       -3 0.80331908E-02 0.39809596E+02</pdfrwt>
<totfact> 0.32410942E+05</totfact>
</mgrwt>
</event>
<event>
 4    1  0.1754914E-001  0.2535740E+02  0.7818608E-02  0.1655921E+00
         -3   -1    0    0    0  501 -0.00000000000E+00  0.00000000000E+00  0.38777412704E+02  0.38777524225E+02  0.93000000000E-01 0.  1.
          3   -1    0    0  501    0  0.00000000000E+00 -0.00000000000E+00 -0.41448011080E+01  0.41458443320E+01  0.93000000000E-01 0. -1.
        -11    1    1    2    0    0  0.74026210694E+00  0.11437395725E+02  0.81399570494E+01  0.14057770449E+02  0.51100000000E-03 0. -1.
         11    1    1    2    0    0 -0.74026210694E+00 -0.11437395725E+02  0.26492654546E+02  0.28865598108E+02  0.51100000000E-03 0.  1.
<mgrwt>
<rscale>  0 0.25357401E+02</rscale>
<asrwt>0</asrwt>
<pdfrwt beam="2">  1        3 0.63775052E-03 0.25357401E+02</pdfrwt>
<pdfrwt beam="1">  1       -3 0.59658447E-02 0.25357401E+02</pdfrwt>
<totfact> 0.98116181E+05</totfact>
</mgrwt>
</event>
<event>
 4    1  0.1754914E-001  0.3758280E+02  0.7818608E-02  0.1526792E+00
         -3   -1    0    0    0  501 -0.00000000000E+00  0.00000000000E+00  0.39981209805E+02  0.39981317968E+02  0.93000000000E-01 0. -1.
          3   -1    0    0  501    0  0.00000000000E+00 -0.00000000000E+00 -0.88317041425E+01  0.88321937853E+01  0.93000000000E-01 0.  1.
        -11    1    1    2    0    0  0.79848298612E+01 -0.63850844294E+01  0.36052995548E+02  0.37474595385E+02  0.51100000000E-03 0. -1.
         11    1    1    2    0    0 -0.79848298612E+01  0.63850844294E+01 -0.49034898852E+01  0.11338916368E+02  0.51100000000E-03 0.  1.
<mgrwt>
<rscale>  0 0.37582805E+02</rscale>
<asrwt>0</asrwt>
<pdfrwt beam="2">  1        3 0.13587697E-02 0.37582805E+02</pdfrwt>
<pdfrwt beam="1">  1       -3 0.61510013E-02 0.37582805E+02</pdfrwt>
<totfact> 0.38414895E+05</totfact>
</mgrwt>
</event>
<event>
 4    1  0.1754914E-001  0.3062997E+02  0.7818608E-02  0.1591228E+00
         -3   -1    0    0    0  501 -0.00000000000E+00  0.00000000000E+00  0.53723653225E+01  0.53731702149E+01  0.93000000000E-01 0.  1.
          3   -1    0    0  501    0  0.00000000000E+00 -0.00000000000E+00 -0.43654254666E+02  0.43654353729E+02  0.93000000000E-01 0. -1.
        -11    1    1    2    0    0 -0.13529739507E+02 -0.71638338987E+01 -0.19809382611E+02  0.25035694657E+02  0.51100000000E-03 0.  1.
         11    1    1    2    0    0  0.13529739507E+02  0.71638338987E+01 -0.18472506733E+02  0.23991829287E+02  0.51100000000E-03 0. -1.
<mgrwt>
<rscale>  0 0.30629970E+02</rscale>
<asrwt>0</asrwt>
<pdfrwt beam="2">  1        3 0.67161085E-02 0.30629970E+02</pdfrwt>
<pdfrwt beam="1">  1       -3 0.82658731E-03 0.30629970E+02</pdfrwt>
<totfact> 0.62425797E+05</totfact>
</mgrwt>
</event>
<event>
 4    1  0.1754914E-001  0.2662938E+03  0.7818608E-02  0.1103420E+00
          3   -1    0    0  501    0  0.00000000000E+00  0.00000000000E+00  0.44599847465E+03  0.44599848434E+03  0.93000000000E-01 0. -1.
         -3   -1    0    0    0  501 -0.00000000000E+00 -0.00000000000E+00 -0.39749165338E+02  0.39749274133E+02  0.93000000000E-01 0.  1.
        -11    1    1    2    0    0  0.14212224130E+02 -0.67705795894E+02 -0.43910779574E+01  0.69320586252E+02  0.51100000000E-03 0.  1.
         11    1    1    2    0    0 -0.14212224130E+02  0.67705795894E+02  0.41064038727E+03  0.41642717223E+03  0.51100000000E-03 0. -1.
<mgrwt>
<rscale>  0 0.26629379E+03</rscale>
<asrwt>0</asrwt>
<pdfrwt beam="1">  1        3 0.68615159E-01 0.26629379E+03</pdfrwt>
<pdfrwt beam="2">  1       -3 0.61152653E-02 0.26629379E+03</pdfrwt>
<totfact> 0.86904143E+02</totfact>
</mgrwt>
</event>
<event>
 4    1  0.1754914E-001  0.4661732E+02  0.7818608E-02  0.1464490E+00
          3   -1    0    0  501    0  0.00000000000E+00  0.00000000000E+00  0.51882963858E+01  0.51891298295E+01  0.93000000000E-01 0. -1.
         -3   -1    0    0    0  501 -0.00000000000E+00 -0.00000000000E+00 -0.10470596830E+03  0.10470600960E+03  0.93000000000E-01 0.  1.
        -11    1    1    2    0    0 -0.14549333502E+02 -0.51142415439E+01 -0.90959560398E+02  0.92257683691E+02  0.51100000000E-03 0. -1.
         11    1    1    2    0    0  0.14549333502E+02  0.51142415439E+01 -0.85581115126E+01  0.17637455736E+02  0.51100000000E-03 0.  1.
<mgrwt>
<rscale>  0 0.46617321E+02</rscale>
<asrwt>0</asrwt>
<pdfrwt beam="1">  1        3 0.79826681E-03 0.46617321E+02</pdfrwt>
<pdfrwt beam="2">  1       -3 0.16108676E-01 0.46617321E+02</pdfrwt>
<totfact> 0.19439904E+05</totfact>
</mgrwt>
</event>
<event>
 4    1  0.1754914E-001  0.2303106E+02  0.7818608E-02  0.1691007E+00
          3   -1    0    0  501    0  0.00000000000E+00  0.00000000000E+00  0.45204855199E+01  0.45214420637E+01  0.93000000000E-01 0.  1.
         -3   -1    0    0    0  501 -0.00000000000E+00 -0.00000000000E+00 -0.29330643023E+02  0.29330790462E+02  0.93000000000E-01 0. -1.
        -11    1    1    2    0    0  0.72813935683E+01  0.79526216669E+01 -0.18347451032E+02  0.21281255680E+02  0.51100000000E-03 0. -1.
         11    1    1    2    0    0 -0.72813935683E+01 -0.79526216669E+01 -0.64627064706E+01  0.12570976846E+02  0.51100000000E-03 0.  1.
<mgrwt>
<rscale>  0 0.23031060E+02</rscale>
<asrwt>0</asrwt>
<pdfrwt beam="1">  1        3 0.69554425E-03 0.23031060E+02</pdfrwt>
<pdfrwt beam="2">  1       -3 0.45124914E-02 0.23031060E+02</pdfrwt>
<totfact> 0.12520496E+06</totfact>
</mgrwt>
</event>
<event>
 4    1  0.1754914E-001  0.2796796E+02  0.7818608E-02  0.1621701E+00
         -3   -1    0    0    0  501 -0.00000000000E+00  0.00000000000E+00  0.94053984267E+01  0.94058582046E+01  0.93000000000E-01 0. -1.
          3   -1    0    0  501    0  0.00000000000E+00 -0.00000000000E+00 -0.20790364490E+02  0.20790572494E+02  0.93000000000E-01 0.  1.
        -11    1    1    2    0    0  0.71599124968E+01 -0.10068174235E+02 -0.12765763878E+02  0.17765055784E+02  0.51100000000E-03 0.  1.
         11    1    1    2    0    0 -0.71599124968E+01  0.10068174235E+02  0.13807978149E+01  0.12431374914E+02  0.51100000000E-03 0. -1.
<mgrwt>
<rscale>  0 0.27967963E+02</rscale>
<asrwt>0</asrwt>
<pdfrwt beam="2">  1        3 0.31985690E-02 0.27967963E+02</pdfrwt>
<pdfrwt beam="1">  1       -3 0.14470357E-02 0.27967963E+02</pdfrwt>
<totfact> 0.81651007E+05</totfact>
</mgrwt>
</event>
<event>
 4    1  0.1754914E-001  0.2995143E+02  0.7818608E-02  0.1598626E+00
         -3   -1    0    0    0  501 -0.00000000000E+00  0.00000000000E+00  0.16857843970E+02  0.16858100495E+02  0.93000000000E-01 0.  1.
          3   -1    0    0  501    0  0.00000000000E+00 -0.00000000000E+00 -0.13303204099E+02  0.13303529167E+02  0.93000000000E-01 0. -1.
        -11    1    1    2    0    0 -0.39418290440E+01 -0.11222559629E+02 -0.73853390017E+01  0.14000967583E+02  0.51100000000E-03 0. -1.
         11    1    1    2    0    0  0.39418290440E+01  0.11222559629E+02  0.10939978872E+02  0.16160662079E+02  0.51100000000E-03 0.  1.
<mgrwt>
<rscale>  0 0.29951435E+02</rscale>
<asrwt>0</asrwt>
<pdfrwt beam="2">  1        3 0.20466915E-02 0.29951435E+02</pdfrwt>
<pdfrwt beam="1">  1       -3 0.25935592E-02 0.29951435E+02</pdfrwt>
<totfact> 0.69673147E+05</totfact>
</mgrwt>
</event>
<event>
 4    1  0.1754914E-001  0.2452292E+02  0.7818608E-02  0.1667950E+00
         -3   -1    0    0    0  501 -0.00000000000E+00  0.00000000000E+00  0.24398884066E+01  0.24416601804E+01  0.93000000000E-01 0. -1.
          3   -1    0    0  501    0  0.00000000000E+00 -0.00000000000E+00 -0.61594812750E+02  0.61594882958E+02  0.93000000000E-01 0.  1.
        -11    1    1    2    0    0  0.25850522070E+01 -0.10957040687E+02 -0.42264211791E+02  0.43737887856E+02  0.51100000000E-03 0.  1.
         11    1    1    2    0    0 -0.25850522070E+01  0.10957040687E+02 -0.16890712552E+02  0.20298655283E+02  0.51100000000E-03 0. -1.
<mgrwt>
<rscale>  0 0.24522924E+02</rscale>
<asrwt>0</asrwt>
<pdfrwt beam="2">  1        3 0.94762656E-02 0.24522924E+02</pdfrwt>
<pdfrwt beam="1">  1       -3 0.37550918E-03 0.24522924E+02</pdfrwt>
<totfact> 0.99506727E+05</totfact>
</mgrwt>
</event>
<event>
 4    1  0.1754914E-001  0.2107051E+02  0.7818608E-02  0.1724841E+00
         -3   -1    0    0    0  501 -0.00000000000E+00  0.00000000000E+00  0.32294299275E+02  0.32294433184E+02  0.93000000000E-01 0.  1.
          3   -1    0    0  501    0  0.00000000000E+00 -0.00000000000E+00 -0.34361088630E+01  0.34373671782E+01  0.93000000000E-01 0. -1.
        -11    1    1    2    0    0 -0.86441002888E+01 -0.57908852492E+01  0.11623663554E+02  0.15600140270E+02  0.51100000000E-03 0. -1.
         11    1    1    2    0    0  0.86441002888E+01  0.57908852492E+01  0.17234526859E+02  0.20131660092E+02  0.51100000000E-03 0.  1.
<mgrwt>
<rscale>  0 0.21070510E+02</rscale>
<asrwt>0</asrwt>
<pdfrwt beam="2">  1        3 0.52873925E-03 0.21070510E+02</pdfrwt>
<pdfrwt beam="1">  1       -3 0.49684606E-02 0.21070510E+02</pdfrwt>
<totfact> 0.15133090E+06</totfact>
</mgrwt>
</event>
<event>
 4    1  0.1754914E-001  0.2421622E+02  0.7818608E-02  0.1672522E+00
          3   -1    0    0  501    0  0.00000000000E+00  0.00000000000E+00  0.14174567236E+02  0.14174872321E+02  0.93000000000E-01 0.  1.
         -3   -1    0    0    0  501 -0.00000000000E+00 -0.00000000000E+00 -0.10342292351E+02  0.10342710480E+02  0.93000000000E-01 0. -1.
        -11    1    1    2    0    0 -0.10634252239E+02  0.21842399613E+01 -0.35123174245E+01  0.11410284783E+02  0.51100000000E-03 0. -1.
         11    1    1    2    0    0  0.10634252239E+02 -0.21842399613E+01  0.73445923092E+01  0.13107298018E+02  0.51100000000E-03 0.  1.
<mgrwt>
<rscale>  0 0.24216225E+02</rscale>
<asrwt>0</asrwt>
<pdfrwt beam="1">  1        3 0.21807583E-02 0.24216225E+02</pdfrwt>
<pdfrwt beam="2">  1       -3 0.15911776E-02 0.24216225E+02</pdfrwt>
<totfact> 0.11550034E+06</totfact>
</mgrwt>
</event>
<event>
 4    1  0.1754914E-001  0.4678849E+02  0.7818608E-02  0.1463476E+00
         -3   -1    0    0    0  501 -0.00000000000E+00  0.00000000000E+00  0.10725683591E+03  0.10725687623E+03  0.93000000000E-01 0. -1.
          3   -1    0    0  501    0  0.00000000000E+00 -0.00000000000E+00 -0.51021542767E+01  0.51030017895E+01  0.93000000000E-01 0.  1.
        -11    1    1    2    0    0 -0.73089422009E+01  0.21202134352E+02  0.67068074534E+02  0.70718298616E+02  0.51100000000E-03 0. -1.
         11    1    1    2    0    0  0.73089422009E+01 -0.21202134352E+02  0.35086607102E+02  0.41641579406E+02  0.51100000000E-03 0.  1.
<mgrwt>
<rscale>  0 0.46788494E+02</rscale>
<asrwt>0</asrwt>
<pdfrwt beam="2">  1        3 0.78501514E-03 0.46788494E+02</pdfrwt>
<pdfrwt beam="1">  1       -3 0.16501119E-01 0.46788494E+02</pdfrwt>
<totfact> 0.19156658E+05</totfact>
</mgrwt>
</event>
<event>
 4    1  0.1754914E-001  0.3619624E+02  0.7818608E-02  0.1538227E+00
         -3   -1    0    0    0  501 -0.00000000000E+00  0.00000000000E+00  0.43343312916E+01  0.43353289086E+01  0.93000000000E-01 0.  1.
          3   -1    0    0  501    0  0.00000000000E+00 -0.00000000000E+00 -0.75559493113E+02  0.75559550346E+02  0.93000000000E-01 0. -1.
        -11    1    1    2    0    0 -0.95223747425E+01  0.87156015613E+01 -0.63611404392E+02  0.64907997198E+02  0.51100000000E-03 0. -1.
         11    1    1    2    0    0  0.95223747425E+01 -0.87156015613E+01 -0.76137574291E+01  0.14986882056E+02  0.51100000000E-03 0.  1.
<mgrwt>
<rscale>  0 0.36196244E+02</rscale>
<asrwt>0</asrwt>
<pdfrwt beam="2">  1        3 0.11624618E-01 0.36196244E+02</pdfrwt>
<pdfrwt beam="1">  1       -3 0.66690140E-03 0.36196244E+02</pdfrwt>
<totfact> 0.38706611E+05</totfact>
</mgrwt>
</event>
<event>
 4    1  0.1754914E-001  0.5285429E+02  0.7818608E-02  0.1430527E+00
         -3   -1    0    0    0  501 -0.00000000000E+00  0.00000000000E+00  0.62543044383E+01  0.62549958439E+01  0.93000000000E-01 0.  1.
          3   -1    0    0  501    0  0.00000000000E+00 -0.00000000000E+00 -0.11165925138E+03  0.11165929011E+03  0.93000000000E-01 0. -1.
        -11    1    1    2    0    0 -0.99021387289E+01 -0.21214706066E+02 -0.80050987186E+02  0.83404296380E+02  0.51100000000E-03 0. -1.
         11    1    1    2    0    0  0.99021387289E+01  0.21214706066E+02 -0.25353959757E+02  0.34509989575E+02  0.51100000000E-03 0.  1.
<mgrwt>
<rscale>  0 0.52854290E+02</rscale>
<asrwt>0</asrwt>
<pdfrwt beam="2">  1        3 0.17178401E-01 0.52854290E+02</pdfrwt>
<pdfrwt beam="1">  1       -3 0.96225693E-03 0.52854290E+02</pdfrwt>
<totfact> 0.13943506E+05</totfact>
</mgrwt>
</event>
<event>
 4    1  0.1754914E-001  0.2369902E+02  0.7818608E-02  0.1680424E+00
         -3   -1    0    0    0  501 -0.00000000000E+00  0.00000000000E+00  0.21451613143E+02  0.21451814736E+02  0.93000000000E-01 0. -1.
          3   -1    0    0  501    0  0.00000000000E+00 -0.00000000000E+00 -0.65449055818E+01  0.65455662913E+01  0.93000000000E-01 0.  1.
        -11    1    1    2    0    0 -0.94660805508E+01 -0.48531148223E+01  0.13620466274E+02  0.17282259871E+02  0.51100000000E-03 0. -1.
         11    1    1    2    0    0  0.94660805508E+01  0.48531148223E+01  0.12862412876E+01  0.10715121156E+02  0.51100000000E-03 0.  1.
<mgrwt>
<rscale>  0 0.23699017E+02</rscale>
<asrwt>0</asrwt>
<pdfrwt beam="2">  1        3 0.10069749E-02 0.23699017E+02</pdfrwt>
<pdfrwt beam="1">  1       -3 0.33003145E-02 0.23699017E+02</pdfrwt>
<totfact> 0.11978544E+06</totfact>
</mgrwt>
</event>
<event>
 4    1  0.1754914E-001  0.2122490E+02  0.7818608E-02  0.1722012E+00
          3   -1    0    0  501    0  0.00000000000E+00  0.00000000000E+00  0.91243233565E+01  0.91247972972E+01  0.93000000000E-01 0. -1.
         -3   -1    0    0    0  501 -0.00000000000E+00 -0.00000000000E+00 -0.12342308450E+02  0.12342658825E+02  0.93000000000E-01 0.  1.
        -11    1    1    2    0    0 -0.84020522688E+01 -0.64785556144E+01 -0.18523574379E+01  0.10770208611E+02  0.51100000000E-03 0. -1.
         11    1    1    2    0    0  0.84020522688E+01  0.64785556144E+01 -0.13656276558E+01  0.10697247512E+02  0.51100000000E-03 0.  1.
<mgrwt>
<rscale>  0 0.21224897E+02</rscale>
<asrwt>0</asrwt>
<pdfrwt beam="1">  1        3 0.14038055E-02 0.21224897E+02</pdfrwt>
<pdfrwt beam="2">  1       -3 0.18988801E-02 0.21224897E+02</pdfrwt>
<totfact> 0.15633703E+06</totfact>
</mgrwt>
</event>
<event>
 4    1  0.1754914E-001  0.4809908E+02  0.7818608E-02  0.1455873E+00
         -3   -1    0    0    0  501 -0.00000000000E+00  0.00000000000E+00  0.46202642512E+01  0.46212001418E+01  0.93000000000E-01 0.  1.
          3   -1    0    0  501    0  0.00000000000E+00 -0.00000000000E+00 -0.12516977867E+03  0.12516981322E+03  0.93000000000E-01 0. -1.
        -11    1    1    2    0    0 -0.13606303585E+02  0.13062512237E+02 -0.10053622800E+03  0.10229024325E+03  0.51100000000E-03 0. -1.
         11    1    1    2    0    0  0.13606303585E+02 -0.13062512237E+02 -0.20013286418E+02  0.27500770111E+02  0.51100000000E-03 0.  1.
<mgrwt>
<rscale>  0 0.48099082E+02</rscale>
<asrwt>0</asrwt>
<pdfrwt beam="2">  1        3 0.19256961E-01 0.48099082E+02</pdfrwt>
<pdfrwt beam="1">  1       -3 0.71088463E-03 0.48099082E+02</pdfrwt>
<totfact> 0.17208059E+05</totfact>
</mgrwt>
</event>
<event>
 4    1  0.1754914E-001  0.2220231E+02  0.7818608E-02  0.1704776E+00
          3   -1    0    0  501    0  0.00000000000E+00  0.00000000000E+00  0.10111015441E+02  0.10111443134E+02  0.93000000000E-01 0. -1.
         -3   -1    0    0    0  501 -0.00000000000E+00 -0.00000000000E+00 -0.12187395480E+02  0.12187750308E+02  0.93000000000E-01 0.  1.
        -11    1    1    2    0    0 -0.10726327361E+02  0.24526709499E+01  0.43995705937E+00  0.11011959676E+02  0.51100000000E-03 0. -1.
         11    1    1    2    0    0  0.10726327361E+02 -0.24526709499E+01 -0.25163370977E+01  0.11287233766E+02  0.51100000000E-03 0.  1.
<mgrwt>
<rscale>  0 0.22202312E+02</rscale>
<asrwt>0</asrwt>
<pdfrwt beam="1">  1        3 0.15556010E-02 0.22202312E+02</pdfrwt>
<pdfrwt beam="2">  1       -3 0.18750441E-02 0.22202312E+02</pdfrwt>
<totfact> 0.14118913E+06</totfact>
</mgrwt>
</event>
<event>
 4    1  0.1754914E-001  0.4518191E+02  0.7818608E-02  0.1473209E+00
          3   -1    0    0  501    0  0.00000000000E+00  0.00000000000E+00  0.75258172302E+02  0.75258229764E+02  0.93000000000E-01 0. -1.
         -3   -1    0    0    0  501 -0.00000000000E+00 -0.00000000000E+00 -0.67809617522E+01  0.67815994636E+01  0.93000000000E-01 0.  1.
        -11    1    1    2    0    0 -0.49621473530E+00  0.22502438660E+02  0.37752632424E+02  0.43953011614E+02  0.51100000000E-03 0. -1.
         11    1    1    2    0    0  0.49621473530E+00 -0.22502438660E+02  0.30724578126E+02  0.38086817614E+02  0.51100000000E-03 0.  1.
<mgrwt>
<rscale>  0 0.45181912E+02</rscale>
<asrwt>0</asrwt>
<pdfrwt beam="1">  1        3 0.11578234E-01 0.45181912E+02</pdfrwt>
<pdfrwt beam="2">  1       -3 0.10432783E-02 0.45181912E+02</pdfrwt>
<totfact> 0.22431872E+05</totfact>
</mgrwt>
</event>
<event>
 4    1  0.1754914E-001  0.2112677E+02  0.7818608E-02  0.1723807E+00
          3   -1    0    0  501    0  0.00000000000E+00  0.00000000000E+00  0.34979118016E+02  0.34979241647E+02  0.93000000000E-01 0. -1.
         -3   -1    0    0    0  501 -0.00000000000E+00 -0.00000000000E+00 -0.31892431406E+01  0.31905988168E+01  0.93000000000E-01 0.  1.
        -11    1    1    2    0    0 -0.81997025044E+01  0.63001364141E+01  0.11995507998E+02  0.15837267832E+02  0.51100000000E-03 0.  1.
         11    1    1    2    0    0  0.81997025044E+01 -0.63001364141E+01  0.19794366878E+02  0.22332572632E+02  0.51100000000E-03 0. -1.
<mgrwt>
<rscale>  0 0.21126774E+02</rscale>
<asrwt>0</asrwt>
<pdfrwt beam="1">  1        3 0.53815166E-02 0.21126774E+02</pdfrwt>
<pdfrwt beam="2">  1       -3 0.49076658E-03 0.21126774E+02</pdfrwt>
<totfact> 0.14926535E+06</totfact>
</mgrwt>
</event>
<event>
 4    1  0.1754914E-001  0.2890562E+02  0.7818608E-02  0.1610510E+00
         -3   -1    0    0    0  501 -0.00000000000E+00  0.00000000000E+00  0.68356561482E+01  0.68362887575E+01  0.93000000000E-01 0. -1.
          3   -1    0    0  501    0  0.00000000000E+00 -0.00000000000E+00 -0.30555833872E+02  0.30555975400E+02  0.93000000000E-01 0.  1.
        -11    1    1    2    0    0 -0.23592212806E+01  0.11941131264E+02 -0.17793854298E+01  0.12301331379E+02  0.51100000000E-03 0. -1.
         11    1    1    2    0    0  0.23592212806E+01 -0.11941131264E+02 -0.21940792294E+02  0.25090932778E+02  0.51100000000E-03 0.  1.
<mgrwt>
<rscale>  0 0.28905615E+02</rscale>
<asrwt>0</asrwt>
<pdfrwt beam="2">  1        3 0.47009570E-02 0.28905615E+02</pdfrwt>
<pdfrwt beam="1">  1       -3 0.10516990E-02 0.28905615E+02</pdfrwt>
<totfact> 0.73963780E+05</totfact>
</mgrwt>
</event>
<event>
 4    1  0.1754914E-001  0.2347106E+02  0.7818608E-02  0.1683986E+00
         -3   -1    0    0    0  501 -0.00000000000E+00  0.00000000000E+00  0.24796490280E+02  0.24796664679E+02  0.93000000000E-01 0. -1.
          3   -1    0    0  501    0  0.00000000000E+00 -0.00000000000E+00 -0.55535370069E+01  0.55543156452E+01  0.93000000000E-01 0.  1.
        -11    1    1    2    0    0  0.99538405875E+01  0.59484156451E+01  0.72866465440E+01  0.13695174670E+02  0.51100000000E-03 0.  1.
         11    1    1    2    0    0 -0.99538405875E+01 -0.59484156451E+01  0.11956306729E+02  0.16655805654E+02  0.51100000000E-03 0. -1.
<mgrwt>
<rscale>  0 0.23471062E+02</rscale>
<asrwt>0</asrwt>
<pdfrwt beam="2">  1        3 0.85446362E-03 0.23471062E+02</pdfrwt>
<pdfrwt beam="1">  1       -3 0.38149179E-02 0.23471062E+02</pdfrwt>
<totfact> 0.12143505E+06</totfact>
</mgrwt>
</event>
<event>
 4    1  0.1754914E-001  0.3842485E+02  0.7818608E-02  0.1520133E+00
          3   -1    0    0  501    0  0.00000000000E+00  0.00000000000E+00  0.65789483581E+02  0.65789549313E+02  0.93000000000E-01 0. -1.
         -3   -1    0    0    0  501 -0.00000000000E+00 -0.00000000000E+00 -0.56101271397E+01  0.56108979249E+01  0.93000000000E-01 0.  1.
        -11    1    1    2    0    0 -0.80930381995E+01 -0.12632687393E+02  0.52390612387E+02  0.54496406530E+02  0.51100000000E-03 0. -1.
         11    1    1    2    0    0  0.80930381995E+01  0.12632687393E+02  0.77887440536E+01  0.16904040708E+02  0.51100000000E-03 0.  1.
<mgrwt>
<rscale>  0 0.38424848E+02</rscale>
<asrwt>0</asrwt>
<pdfrwt beam="1">  1        3 0.10121524E-01 0.38424848E+02</pdfrwt>
<pdfrwt beam="2">  1       -3 0.86316081E-03 0.38424848E+02</pdfrwt>
<totfact> 0.34253875E+05</totfact>
</mgrwt>
</event>
<event>
 4    1  0.1754914E-001  0.2445480E+02  0.7818608E-02  0.1668959E+00
         -3   -1    0    0    0  501 -0.00000000000E+00  0.00000000000E+00  0.88076758805E+01  0.88081668590E+01  0.93000000000E-01 0. -1.
          3   -1    0    0  501    0  0.00000000000E+00 -0.00000000000E+00 -0.16973790677E+02  0.16974045451E+02  0.93000000000E-01 0.  1.
        -11    1    1    2    0    0 -0.75459596128E+01  0.79855061144E+01 -0.97408653507E+01  0.14683128836E+02  0.51100000000E-03 0.  1.
         11    1    1    2    0    0  0.75459596128E+01 -0.79855061144E+01  0.15747505538E+01  0.11099083473E+02  0.51100000000E-03 0. -1.
<mgrwt>
<rscale>  0 0.24454796E+02</rscale>
<asrwt>0</asrwt>
<pdfrwt beam="2">  1        3 0.26114098E-02 0.24454796E+02</pdfrwt>
<pdfrwt beam="1">  1       -3 0.13550844E-02 0.24454796E+02</pdfrwt>
<totfact> 0.11249824E+06</totfact>
</mgrwt>
</event>
<event>
 4    1  0.1754914E-001  0.3097742E+02  0.7818608E-02  0.1587529E+00
          3   -1    0    0  501    0  0.00000000000E+00  0.00000000000E+00  0.57609524828E+02  0.57609599894E+02  0.93000000000E-01 0. -1.
         -3   -1    0    0    0  501 -0.00000000000E+00 -0.00000000000E+00 -0.41636486274E+01  0.41646871302E+01  0.93000000000E-01 0.  1.
        -11    1    1    2    0    0 -0.11549632625E+02 -0.64145318135E+01  0.10600957734E+02  0.16938728916E+02  0.51100000000E-03 0.  1.
         11    1    1    2    0    0  0.11549632625E+02  0.64145318135E+01  0.42844918467E+02  0.44835558108E+02  0.51100000000E-03 0. -1.
<mgrwt>
<rscale>  0 0.30977425E+02</rscale>
<asrwt>0</asrwt>
<pdfrwt beam="1">  1        3 0.88630887E-02 0.30977425E+02</pdfrwt>
<pdfrwt beam="2">  1       -3 0.64064704E-03 0.30977425E+02</pdfrwt>
<totfact> 0.58660656E+05</totfact>
</mgrwt>
</event>
<event>
 4    1  0.1754914E-001  0.6291690E+02  0.7818608E-02  0.1385983E+00
          3   -1    0    0  501    0  0.00000000000E+00  0.00000000000E+00  0.42799681517E+01  0.42809784371E+01  0.93000000000E-01 0.  1.
         -3   -1    0    0    0  501 -0.00000000000E+00 -0.00000000000E+00 -0.23119630763E+03  0.23119632634E+03  0.93000000000E-01 0. -1.
        -11    1    1    2    0    0  0.21077422684E+02 -0.21221188337E+02 -0.76971935560E+02  0.82578904362E+02  0.51100000000E-03 0.  1.
         11    1    1    2    0    0 -0.21077422684E+02  0.21221188337E+02 -0.14994440392E+03  0.15289840041E+03  0.51100000000E-03 0. -1.
<mgrwt>
<rscale>  0 0.62916897E+02</rscale>
<asrwt>0</asrwt>
<pdfrwt beam="1">  1        3 0.65853597E-03 0.62916897E+02</pdfrwt>
<pdfrwt beam="2">  1       -3 0.35568732E-01 0.62916897E+02</pdfrwt>
<totfact> 0.71003155E+04</totfact>
</mgrwt>
</event>
<event>
 4    1  0.1754914E-001  0.5420516E+02  0.7818608E-02  0.1423896E+00
         -3   -1    0    0    0  501 -0.00000000000E+00  0.00000000000E+00  0.31008061382E+02  0.31008200846E+02  0.93000000000E-01 0.  1.
          3   -1    0    0  501    0  0.00000000000E+00 -0.00000000000E+00 -0.23688711684E+02  0.23688894238E+02  0.93000000000E-01 0. -1.
        -11    1    1    2    0    0 -0.12281992579E+02 -0.10548686395E+02 -0.18272985536E+02  0.24413605368E+02  0.51100000000E-03 0. -1.
         11    1    1    2    0    0  0.12281992579E+02  0.10548686395E+02  0.25592335235E+02  0.30283489717E+02  0.51100000000E-03 0.  1.
<mgrwt>
<rscale>  0 0.54205160E+02</rscale>
<asrwt>0</asrwt>
<pdfrwt beam="2">  1        3 0.36444420E-02 0.54205160E+02</pdfrwt>
<pdfrwt beam="1">  1       -3 0.47704957E-02 0.54205160E+02</pdfrwt>
<totfact> 0.15207508E+05</totfact>
</mgrwt>
</event>
<event>
 4    1  0.1754914E-001  0.4569948E+02  0.7818608E-02  0.1470022E+00
          3   -1    0    0  501    0  0.00000000000E+00  0.00000000000E+00  0.13503519091E+02  0.13503839337E+02  0.93000000000E-01 0. -1.
         -3   -1    0    0    0  501 -0.00000000000E+00 -0.00000000000E+00 -0.38663939471E+02  0.38664051319E+02  0.93000000000E-01 0.  1.
        -11    1    1    2    0    0  0.21815886643E+02 -0.64167133566E+01 -0.15133643105E+02  0.27315458521E+02  0.51100000000E-03 0. -1.
         11    1    1    2    0    0 -0.21815886643E+02  0.64167133566E+01 -0.10026777274E+02  0.24852432136E+02  0.51100000000E-03 0.  1.
<mgrwt>
<rscale>  0 0.45699476E+02</rscale>
<asrwt>0</asrwt>
<pdfrwt beam="1">  1        3 0.20774977E-02 0.45699476E+02</pdfrwt>
<pdfrwt beam="2">  1       -3 0.59483315E-02 0.45699476E+02</pdfrwt>
<totfact> 0.23550364E+05</totfact>
</mgrwt>
</event>
<event>
 4    1  0.1754914E-001  0.2064575E+02  0.7818608E-02  0.1732783E+00
         -3   -1    0    0    0  501 -0.00000000000E+00  0.00000000000E+00  0.22261699630E+01  0.22281116903E+01  0.93000000000E-01 0.  1.
          3   -1    0    0  501    0  0.00000000000E+00 -0.00000000000E+00 -0.47844902902E+02  0.47844993288E+02  0.93000000000E-01 0. -1.
        -11    1    1    2    0    0 -0.77098085563E+01  0.67951194592E+01 -0.20449209892E+02  0.22886349248E+02  0.51100000000E-03 0.  1.
         11    1    1    2    0    0  0.77098085563E+01 -0.67951194592E+01 -0.25169523047E+02  0.27186755730E+02  0.51100000000E-03 0. -1.
<mgrwt>
<rscale>  0 0.20645751E+02</rscale>
<asrwt>0</asrwt>
<pdfrwt beam="2">  1        3 0.73609098E-02 0.20645751E+02</pdfrwt>
<pdfrwt beam="1">  1       -3 0.34264404E-03 0.20645751E+02</pdfrwt>
<totfact> 0.15129069E+06</totfact>
</mgrwt>
</event>
<event>
 4    1  0.1754914E-001  0.2819249E+02  0.7818608E-02  0.1618973E+00
         -3   -1    0    0    0  501 -0.00000000000E+00  0.00000000000E+00  0.30422230159E+02  0.30422372308E+02  0.93000000000E-01 0.  1.
          3   -1    0    0  501    0  0.00000000000E+00 -0.00000000000E+00 -0.65310570501E+01  0.65317191605E+01  0.93000000000E-01 0. -1.
        -11    1    1    2    0    0  0.12635138469E+02 -0.61624234396E+01  0.13309043526E+02  0.19358533690E+02  0.51100000000E-03 0. -1.
         11    1    1    2    0    0 -0.12635138469E+02  0.61624234396E+01  0.10582129583E+02  0.17595557779E+02  0.51100000000E-03 0.  1.
<mgrwt>
<rscale>  0 0.28192494E+02</rscale>
<asrwt>0</asrwt>
<pdfrwt beam="2">  1        3 0.10048399E-02 0.28192494E+02</pdfrwt>
<pdfrwt beam="1">  1       -3 0.46804050E-02 0.28192494E+02</pdfrwt>
<totfact> 0.78464665E+05</totfact>
</mgrwt>
</event>
<event>
 4    1  0.1754914E-001  0.4060431E+02  0.7818608E-02  0.1503811E+00
         -3   -1    0    0    0  501 -0.00000000000E+00  0.00000000000E+00  0.72936762792E+01  0.72942691660E+01  0.93000000000E-01 0.  1.
          3   -1    0    0  501    0  0.00000000000E+00 -0.00000000000E+00 -0.56508683359E+02  0.56508759887E+02  0.93000000000E-01 0. -1.
        -11    1    1    2    0    0  0.82221366739E+01 -0.17699615987E+02 -0.33398209764E+02  0.38682300258E+02  0.51100000000E-03 0. -1.
         11    1    1    2    0    0 -0.82221366739E+01  0.17699615987E+02 -0.15816797316E+02  0.25120728795E+02  0.51100000000E-03 0.  1.
<mgrwt>
<rscale>  0 0.40604305E+02</rscale>
<asrwt>0</asrwt>
<pdfrwt beam="2">  1        3 0.86936948E-02 0.40604305E+02</pdfrwt>
<pdfrwt beam="1">  1       -3 0.11221556E-02 0.40604305E+02</pdfrwt>
<totfact> 0.30556814E+05</totfact>
</mgrwt>
</event>
<event>
 4    1  0.1754914E-001  0.2802191E+02  0.7818608E-02  0.1621043E+00
          3   -1    0    0  501    0  0.00000000000E+00  0.00000000000E+00  0.16613579336E+02  0.16613839633E+02  0.93000000000E-01 0. -1.
         -3   -1    0    0    0  501 -0.00000000000E+00 -0.00000000000E+00 -0.11815512797E+02  0.11815878793E+02  0.93000000000E-01 0.  1.
        -11    1    1    2    0    0  0.12900193465E+02 -0.78111678515E+00  0.78890436285E+01  0.15141404971E+02  0.51100000000E-03 0. -1.
         11    1    1    2    0    0 -0.12900193465E+02  0.78111678515E+00 -0.30909770897E+01  0.13288313455E+02  0.51100000000E-03 0.  1.
<mgrwt>
<rscale>  0 0.28021910E+02</rscale>
<asrwt>0</asrwt>
<pdfrwt beam="1">  1        3 0.25559835E-02 0.28021910E+02</pdfrwt>
<pdfrwt beam="2">  1       -3 0.18178194E-02 0.28021910E+02</pdfrwt>
<totfact> 0.81760361E+05</totfact>
</mgrwt>
</event>
<event>
 4    1  0.1754914E-001  0.3518811E+02  0.7818608E-02  0.1546936E+00
          3   -1    0    0  501    0  0.00000000000E+00  0.00000000000E+00  0.36033916769E+02  0.36034036781E+02  0.93000000000E-01 0. -1.
         -3   -1    0    0    0  501 -0.00000000000E+00 -0.00000000000E+00 -0.85901509983E+01  0.85906544089E+01  0.93000000000E-01 0.  1.
        -11    1    1    2    0    0  0.90731187218E+01 -0.14609150359E+02  0.18433276350E+02  0.25209808305E+02  0.51100000000E-03 0. -1.
         11    1    1    2    0    0 -0.90731187218E+01  0.14609150359E+02  0.90104894211E+01  0.19414882884E+02  0.51100000000E-03 0.  1.
<mgrwt>
<rscale>  0 0.35188106E+02</rscale>
<asrwt>0</asrwt>
<pdfrwt beam="1">  1        3 0.55437275E-02 0.35188106E+02</pdfrwt>
<pdfrwt beam="2">  1       -3 0.13216096E-02 0.35188106E+02</pdfrwt>
<totfact> 0.45552099E+05</totfact>
</mgrwt>
</event>
<event>
 4    1  0.1754914E-001  0.2118279E+02  0.7818608E-02  0.1722781E+00
          3   -1    0    0  501    0  0.00000000000E+00  0.00000000000E+00  0.11205386308E+02  0.11205772232E+02  0.93000000000E-01 0.  1.
         -3   -1    0    0    0  501 -0.00000000000E+00 -0.00000000000E+00 -0.10010271675E+02  0.10010703672E+02  0.93000000000E-01 0. -1.
        -11    1    1    2    0    0  0.95389657762E+01  0.41670289582E+01 -0.13604528351E+01  0.10497944113E+02  0.51100000000E-03 0. -1.
         11    1    1    2    0    0 -0.95389657762E+01 -0.41670289582E+01  0.25555674681E+01  0.10718531791E+02  0.51100000000E-03 0.  1.
<mgrwt>
<rscale>  0 0.21182789E+02</rscale>
<asrwt>0</asrwt>
<pdfrwt beam="1">  1        3 0.17239685E-02 0.21182789E+02</pdfrwt>
<pdfrwt beam="2">  1       -3 0.15401047E-02 0.21182789E+02</pdfrwt>
<totfact> 0.15715685E+06</totfact>
</mgrwt>
</event>
<event>
 4    1  0.1754914E-001  0.3651325E+02  0.7818608E-02  0.1535559E+00
         -3   -1    0    0    0  501 -0.00000000000E+00  0.00000000000E+00  0.46285190251E+02  0.46285283682E+02  0.93000000000E-01 0. -1.
          3   -1    0    0  501    0  0.00000000000E+00 -0.00000000000E+00 -0.72007000893E+01  0.72013006309E+01  0.93000000000E-01 0.  1.
        -11    1    1    2    0    0  0.89257797672E+01 -0.73689653739E+01  0.40223845366E+02  0.41856050118E+02  0.51100000000E-03 0. -1.
         11    1    1    2    0    0 -0.89257797672E+01  0.73689653739E+01 -0.11393552047E+01  0.11630534196E+02  0.51100000000E-03 0.  1.
<mgrwt>
<rscale>  0 0.36513249E+02</rscale>
<asrwt>0</asrwt>
<pdfrwt beam="2">  1        3 0.11078534E-02 0.36513249E+02</pdfrwt>
<pdfrwt beam="1">  1       -3 0.71208520E-02 0.36513249E+02</pdfrwt>
<totfact> 0.40651667E+05</totfact>
</mgrwt>
</event>
<event>
 4    1  0.1754914E-001  0.3867016E+02  0.7818608E-02  0.1518232E+00
          3   -1    0    0  501    0  0.00000000000E+00  0.00000000000E+00  0.19194231476E+02  0.19194456777E+02  0.93000000000E-01 0.  1.
         -3   -1    0    0    0  501 -0.00000000000E+00 -0.00000000000E+00 -0.19476513561E+02  0.19476735597E+02  0.93000000000E-01 0. -1.
        -11    1    1    2    0    0 -0.14039681499E+02 -0.49857842274E+01 -0.12465213045E+02  0.19425556297E+02  0.51100000000E-03 0. -1.
         11    1    1    2    0    0  0.14039681499E+02  0.49857842274E+01  0.12182930960E+02  0.19245636076E+02  0.51100000000E-03 0.  1.
<mgrwt>
<rscale>  0 0.38670162E+02</rscale>
<asrwt>0</asrwt>
<pdfrwt beam="1">  1        3 0.29529931E-02 0.38670162E+02</pdfrwt>
<pdfrwt beam="2">  1       -3 0.29964211E-02 0.38670162E+02</pdfrwt>
<totfact> 0.36907107E+05</totfact>
</mgrwt>
</event>
<event>
 4    1  0.1754914E-001  0.6723653E+02  0.7818608E-02  0.1369751E+00
          3   -1    0    0  501    0  0.00000000000E+00  0.00000000000E+00  0.25159444548E+02  0.25159616432E+02  0.93000000000E-01 0.  1.
         -3   -1    0    0    0  501 -0.00000000000E+00 -0.00000000000E+00 -0.44920635077E+02  0.44920731347E+02  0.93000000000E-01 0. -1.
        -11    1    1    2    0    0  0.35802222221E+01 -0.96076921796E+01 -0.43251349415E+02  0.44450027746E+02  0.51100000000E-03 0. -1.
         11    1    1    2    0    0 -0.35802222221E+01  0.96076921796E+01  0.23490158886E+02  0.25630320032E+02  0.51100000000E-03 0.  1.
<mgrwt>
<rscale>  0 0.67236526E+02</rscale>
<asrwt>0</asrwt>
<pdfrwt beam="1">  1        3 0.38707044E-02 0.67236526E+02</pdfrwt>
<pdfrwt beam="2">  1       -3 0.69108876E-02 0.67236526E+02</pdfrwt>
<totfact> 0.83751898E+04</totfact>
</mgrwt>
</event>
<event>
 4    1  0.1754914E-001  0.2402435E+02  0.7818608E-02  0.1675424E+00
          3   -1    0    0  501    0  0.00000000000E+00  0.00000000000E+00  0.32403230963E+02  0.32403364421E+02  0.93000000000E-01 0. -1.
         -3   -1    0    0    0  501 -0.00000000000E+00 -0.00000000000E+00 -0.44523941055E+01  0.44533652748E+01  0.93000000000E-01 0.  1.
        -11    1    1    2    0    0 -0.43713712383E+01 -0.10821702686E+02  0.18334693612E+02  0.21734284567E+02  0.51100000000E-03 0.  1.
         11    1    1    2    0    0  0.43713712383E+01  0.10821702686E+02  0.96161432450E+01  0.15122445129E+02  0.51100000000E-03 0. -1.
<mgrwt>
<rscale>  0 0.24024347E+02</rscale>
<asrwt>0</asrwt>
<pdfrwt beam="1">  1        3 0.49851976E-02 0.24024347E+02</pdfrwt>
<pdfrwt beam="2">  1       -3 0.68506866E-03 0.24024347E+02</pdfrwt>
<totfact> 0.11287539E+06</totfact>
</mgrwt>
</event>
<event>
 4    1  0.1754914E-001  0.3749269E+02  0.7818608E-02  0.1527517E+00
         -3   -1    0    0    0  501 -0.00000000000E+00  0.00000000000E+00  0.90064885525E+01  0.90069686935E+01  0.93000000000E-01 0.  1.
          3   -1    0    0  501    0  0.00000000000E+00 -0.00000000000E+00 -0.39017568058E+02  0.39017678893E+02  0.93000000000E-01 0. -1.
        -11    1    1    2    0    0 -0.13396467525E+02  0.13100137848E+02 -0.15759554095E+02  0.24483514848E+02  0.51100000000E-03 0.  1.
         11    1    1    2    0    0  0.13396467525E+02 -0.13100137848E+02 -0.14251525410E+02  0.23541132738E+02  0.51100000000E-03 0. -1.
<mgrwt>
<rscale>  0 0.37492691E+02</rscale>
<asrwt>0</asrwt>
<pdfrwt beam="2">  1        3 0.60027481E-02 0.37492691E+02</pdfrwt>
<pdfrwt beam="1">  1       -3 0.13856591E-02 0.37492691E+02</pdfrwt>
<totfact> 0.38721649E+05</totfact>
</mgrwt>
</event>
<event>
 4    1  0.1754914E-001  0.3400619E+02  0.7818608E-02  0.1557607E+00
         -3   -1    0    0    0  501 -0.00000000000E+00  0.00000000000E+00  0.40984820109E+01  0.40995370219E+01  0.93000000000E-01 0. -1.
          3   -1    0    0  501    0  0.00000000000E+00 -0.00000000000E+00 -0.70529420371E+02  0.70529481686E+02  0.93000000000E-01 0.  1.
        -11    1    1    2    0    0 -0.13101482850E+02 -0.69167511926E+01 -0.51525999456E+02  0.53613607602E+02  0.51100000000E-03 0.  1.
         11    1    1    2    0    0  0.13101482850E+02  0.69167511926E+01 -0.14904938904E+02  0.21015411106E+02  0.51100000000E-03 0. -1.
<mgrwt>
<rscale>  0 0.34006189E+02</rscale>
<asrwt>0</asrwt>
<pdfrwt beam="2">  1        3 0.10850765E-01 0.34006189E+02</pdfrwt>
<pdfrwt beam="1">  1       -3 0.63062162E-03 0.34006189E+02</pdfrwt>
<totfact> 0.45515027E+05</totfact>
</mgrwt>
</event>
<event>
 4    1  0.1754914E-001  0.2333494E+02  0.7818608E-02  0.1686138E+00
          3   -1    0    0  501    0  0.00000000000E+00  0.00000000000E+00  0.12465548633E+02  0.12465895545E+02  0.93000000000E-01 0. -1.
         -3   -1    0    0    0  501 -0.00000000000E+00 -0.00000000000E+00 -0.10919788453E+02  0.10920184470E+02  0.93000000000E-01 0.  1.
        -11    1    1    2    0    0  0.62172340946E+01 -0.89109495076E+01 -0.34874151272E+01  0.11411445371E+02  0.51100000000E-03 0.  1.
         11    1    1    2    0    0 -0.62172340946E+01  0.89109495076E+01  0.50331753077E+01  0.11974634644E+02  0.51100000000E-03 0. -1.
<mgrwt>
<rscale>  0 0.23334939E+02</rscale>
<asrwt>0</asrwt>
<pdfrwt beam="1">  1        3 0.19178339E-02 0.23334939E+02</pdfrwt>
<pdfrwt beam="2">  1       -3 0.16800246E-02 0.23334939E+02</pdfrwt>
<totfact> 0.12596331E+06</totfact>
</mgrwt>
</event>
<event>
 4    1  0.1754914E-001  0.2862703E+02  0.7818608E-02  0.1613780E+00
         -3   -1    0    0    0  501 -0.00000000000E+00  0.00000000000E+00  0.17342418555E+02  0.17342667913E+02  0.93000000000E-01 0.  1.
          3   -1    0    0  501    0  0.00000000000E+00 -0.00000000000E+00 -0.11813103785E+02  0.11813469855E+02  0.93000000000E-01 0. -1.
        -11    1    1    2    0    0 -0.13999867588E+02  0.26748004364E+01  0.14266363331E+01  0.14324319926E+02  0.51100000000E-03 0. -1.
         11    1    1    2    0    0  0.13999867588E+02 -0.26748004364E+01  0.41026784370E+01  0.14831817842E+02  0.51100000000E-03 0.  1.
<mgrwt>
<rscale>  0 0.28627034E+02</rscale>
<asrwt>0</asrwt>
<pdfrwt beam="2">  1        3 0.18174479E-02 0.28627034E+02</pdfrwt>
<pdfrwt beam="1">  1       -3 0.26681117E-02 0.28627034E+02</pdfrwt>
<totfact> 0.77644163E+05</totfact>
</mgrwt>
</event>
<event>
 4    1  0.1754914E-001  0.2954913E+02  0.7818608E-02  0.1603127E+00
          3   -1    0    0  501    0  0.00000000000E+00  0.00000000000E+00  0.42780897649E+01  0.42791004938E+01  0.93000000000E-01 0. -1.
         -3   -1    0    0    0  501 -0.00000000000E+00 -0.00000000000E+00 -0.51017501902E+02  0.51017586667E+02  0.93000000000E-01 0.  1.
        -11    1    1    2    0    0  0.91151804429E+01  0.58236383950E+01 -0.45362447135E+01  0.11729398749E+02  0.51100000000E-03 0. -1.
         11    1    1    2    0    0 -0.91151804429E+01 -0.58236383950E+01 -0.42203167424E+02  0.43567288412E+02  0.51100000000E-03 0.  1.
<mgrwt>
<rscale>  0 0.29549128E+02</rscale>
<asrwt>0</asrwt>
<pdfrwt beam="1">  1        3 0.65825196E-03 0.29549128E+02</pdfrwt>
<pdfrwt beam="2">  1       -3 0.78489303E-02 0.29549128E+02</pdfrwt>
<totfact> 0.66681499E+05</totfact>
</mgrwt>
</event>
<event>
 4    1  0.1754914E-001  0.4444708E+02  0.7818608E-02  0.1477823E+00
          3   -1    0    0  501    0  0.00000000000E+00  0.00000000000E+00  0.53549784464E+02  0.53549865221E+02  0.93000000000E-01 0. -1.
         -3   -1    0    0    0  501 -0.00000000000E+00 -0.00000000000E+00 -0.92226045960E+01  0.92230734864E+01  0.93000000000E-01 0.  1.
        -11    1    1    2    0    0 -0.14878620600E+02  0.16501161482E+02  0.22832102681E+02  0.31858540367E+02  0.51100000000E-03 0. -1.
         11    1    1    2    0    0  0.14878620600E+02 -0.16501161482E+02  0.21495077187E+02  0.30914398340E+02  0.51100000000E-03 0.  1.
<mgrwt>
<rscale>  0 0.44447080E+02</rscale>
<asrwt>0</asrwt>
<pdfrwt beam="1">  1        3 0.82384708E-02 0.44447080E+02</pdfrwt>
<pdfrwt beam="2">  1       -3 0.14189045E-02 0.44447080E+02</pdfrwt>
<totfact> 0.24531189E+05</totfact>
</mgrwt>
</event>
<event>
 4    1  0.1754914E-001  0.2453837E+02  0.7818608E-02  0.1667722E+00
         -3   -1    0    0    0  501 -0.00000000000E+00  0.00000000000E+00  0.23602570829E+01  0.23620885880E+01  0.93000000000E-01 0.  1.
          3   -1    0    0  501    0  0.00000000000E+00 -0.00000000000E+00 -0.63751587004E+02  0.63751654838E+02  0.93000000000E-01 0. -1.
        -11    1    1    2    0    0 -0.12184416575E+02  0.10318525337E+01 -0.27990350072E+02  0.30544793736E+02  0.51100000000E-03 0.  1.
         11    1    1    2    0    0  0.12184416575E+02 -0.10318525337E+01 -0.33400979849E+02  0.35568949690E+02  0.51100000000E-03 0. -1.
<mgrwt>
<rscale>  0 0.24538372E+02</rscale>
<asrwt>0</asrwt>
<pdfrwt beam="2">  1        3 0.98080812E-02 0.24538372E+02</pdfrwt>
<pdfrwt beam="1">  1       -3 0.36326263E-03 0.24538372E+02</pdfrwt>
<totfact> 0.98799852E+05</totfact>
</mgrwt>
</event>
<event>
 4    1  0.1754914E-001  0.2229702E+02  0.7818608E-02  0.1703165E+00
         -3   -1    0    0    0  501 -0.00000000000E+00  0.00000000000E+00  0.89715711305E+02  0.89715759507E+02  0.93000000000E-01 0. -1.
          3   -1    0    0  501    0  0.00000000000E+00 -0.00000000000E+00 -0.13837583993E+01  0.13868800625E+01  0.93000000000E-01 0.  1.
        -11    1    1    2    0    0 -0.61133563962E+01 -0.93102649388E+01  0.46147087455E+02  0.47472179647E+02  0.51100000000E-03 0. -1.
         11    1    1    2    0    0  0.61133563962E+01  0.93102649388E+01  0.42184865451E+02  0.43630459922E+02  0.51100000000E-03 0.  1.
<mgrwt>
<rscale>  0 0.22297018E+02</rscale>
<asrwt>0</asrwt>
<pdfrwt beam="2">  1        3 0.21312967E-03 0.22297018E+02</pdfrwt>
<pdfrwt beam="1">  1       -3 0.13802666E-01 0.22297018E+02</pdfrwt>
<totfact> 0.11445314E+06</totfact>
</mgrwt>
</event>
<event>
 4    1  0.1754914E-001  0.6078908E+02  0.7818608E-02  0.1394550E+00
         -3   -1    0    0    0  501 -0.00000000000E+00  0.00000000000E+00  0.30596190682E+02  0.30596332023E+02  0.93000000000E-01 0.  1.
          3   -1    0    0  501    0  0.00000000000E+00 -0.00000000000E+00 -0.30193938979E+02  0.30194082202E+02  0.93000000000E-01 0. -1.
        -11    1    1    2    0    0 -0.23284681788E+02 -0.15539196467E+02 -0.11639113547E+02  0.30316859950E+02  0.51100000000E-03 0. -1.
         11    1    1    2    0    0  0.23284681788E+02  0.15539196467E+02  0.12041365250E+02  0.30473554275E+02  0.51100000000E-03 0.  1.
<mgrwt>
<rscale>  0 0.60789083E+02</rscale>
<asrwt>0</asrwt>
<pdfrwt beam="2">  1        3 0.46452433E-02 0.60789083E+02</pdfrwt>
<pdfrwt beam="1">  1       -3 0.47071281E-02 0.60789083E+02</pdfrwt>
<totfact> 0.11147631E+05</totfact>
</mgrwt>
</event>
<event>
 4    1  0.1754914E-001  0.2445175E+02  0.7818608E-02  0.1669004E+00
         -3   -1    0    0    0  501 -0.00000000000E+00  0.00000000000E+00  0.10473963229E+02  0.10474376102E+02  0.93000000000E-01 0. -1.
          3   -1    0    0  501    0  0.00000000000E+00 -0.00000000000E+00 -0.14269970649E+02  0.14270273694E+02  0.93000000000E-01 0.  1.
        -11    1    1    2    0    0 -0.80379644305E+01 -0.85137944558E+01 -0.54584487619E+01  0.12918522801E+02  0.51100000000E-03 0. -1.
         11    1    1    2    0    0  0.80379644305E+01  0.85137944558E+01  0.16624413424E+01  0.11826126995E+02  0.51100000000E-03 0.  1.
<mgrwt>
<rscale>  0 0.24451749E+02</rscale>
<asrwt>0</asrwt>
<pdfrwt beam="2">  1        3 0.21954352E-02 0.24451749E+02</pdfrwt>
<pdfrwt beam="1">  1       -3 0.16114340E-02 0.24451749E+02</pdfrwt>
<totfact> 0.11293131E+06</totfact>
</mgrwt>
</event>
<event>
 4    1  0.1754914E-001  0.2349911E+02  0.7818608E-02  0.1683545E+00
         -3   -1    0    0    0  501 -0.00000000000E+00  0.00000000000E+00  0.23057323561E+01  0.23076071369E+01  0.93000000000E-01 0.  1.
          3   -1    0    0  501    0  0.00000000000E+00 -0.00000000000E+00 -0.59847185275E+02  0.59847257534E+02  0.93000000000E-01 0. -1.
        -11    1    1    2    0    0  0.11447076145E+02 -0.18986621576E+01 -0.33656175900E+02  0.35600261891E+02  0.51100000000E-03 0. -1.
         11    1    1    2    0    0 -0.11447076145E+02  0.18986621576E+01 -0.23885277019E+02  0.26554602780E+02  0.51100000000E-03 0.  1.
<mgrwt>
<rscale>  0 0.23499115E+02</rscale>
<asrwt>0</asrwt>
<pdfrwt beam="2">  1        3 0.92074079E-02 0.23499115E+02</pdfrwt>
<pdfrwt beam="1">  1       -3 0.35487787E-03 0.23499115E+02</pdfrwt>
<totfact> 0.10999511E+06</totfact>
</mgrwt>
</event>
<event>
 4    1  0.1754914E-001  0.2114923E+02  0.7818608E-02  0.1723395E+00
         -3   -1    0    0    0  501 -0.00000000000E+00  0.00000000000E+00  0.20730847460E+02  0.20731056061E+02  0.93000000000E-01 0. -1.
          3   -1    0    0  501    0  0.00000000000E+00 -0.00000000000E+00 -0.53933797586E+01  0.53941815153E+01  0.93000000000E-01 0.  1.
        -11    1    1    2    0    0 -0.10378392993E+02  0.98199669415E+00  0.54773128287E+01  0.11776090808E+02  0.51100000000E-03 0. -1.
         11    1    1    2    0    0  0.10378392993E+02 -0.98199669415E+00  0.98601548728E+01  0.14349146769E+02  0.51100000000E-03 0.  1.
<mgrwt>
<rscale>  0 0.21149235E+02</rscale>
<asrwt>0</asrwt>
<pdfrwt beam="2">  1        3 0.82982843E-03 0.21149235E+02</pdfrwt>
<pdfrwt beam="1">  1       -3 0.31894390E-02 0.21149235E+02</pdfrwt>
<totfact> 0.15499669E+06</totfact>
</mgrwt>
</event>
<event>
 4    1  0.1754914E-001  0.2341222E+02  0.7818608E-02  0.1684914E+00
          3   -1    0    0  501    0  0.00000000000E+00  0.00000000000E+00  0.32973900972E+01  0.32987013283E+01  0.93000000000E-01 0. -1.
         -3   -1    0    0    0  501 -0.00000000000E+00 -0.00000000000E+00 -0.41548391838E+02  0.41548495921E+02  0.93000000000E-01 0.  1.
        -11    1    1    2    0    0  0.11563274876E+02  0.18175489850E+01 -0.18853376525E+02  0.22191498751E+02  0.51100000000E-03 0. -1.
         11    1    1    2    0    0 -0.11563274876E+02 -0.18175489850E+01 -0.19397625216E+02  0.22655698499E+02  0.51100000000E-03 0.  1.
<mgrwt>
<rscale>  0 0.23412218E+02</rscale>
<asrwt>0</asrwt>
<pdfrwt beam="1">  1        3 0.50739969E-03 0.23412218E+02</pdfrwt>
<pdfrwt beam="2">  1       -3 0.63921688E-02 0.23412218E+02</pdfrwt>
<totfact> 0.11664071E+06</totfact>
</mgrwt>
</event>
<event>
 4    1  0.1754914E-001  0.2426277E+02  0.7818608E-02  0.1671822E+00
         -3   -1    0    0    0  501 -0.00000000000E+00  0.00000000000E+00  0.47599791470E+01  0.47608875727E+01  0.93000000000E-01 0. -1.
          3   -1    0    0  501    0  0.00000000000E+00 -0.00000000000E+00 -0.30914374426E+02  0.30914514312E+02  0.93000000000E-01 0.  1.
        -11    1    1    2    0    0 -0.11241898857E+01 -0.11449733244E+02 -0.18735813313E+02  0.21986152347E+02  0.51100000000E-03 0.  1.
         11    1    1    2    0    0  0.11241898857E+01  0.11449733244E+02 -0.74185819659E+01  0.13689249538E+02  0.51100000000E-03 0. -1.
<mgrwt>
<rscale>  0 0.24262768E+02</rscale>
<asrwt>0</asrwt>
<pdfrwt beam="2">  1        3 0.47561381E-02 0.24262768E+02</pdfrwt>
<pdfrwt beam="1">  1       -3 0.73238515E-03 0.24262768E+02</pdfrwt>
<totfact> 0.11082749E+06</totfact>
</mgrwt>
</event>
<event>
 4    1  0.1754914E-001  0.3846182E+02  0.7818608E-02  0.1519846E+00
         -3   -1    0    0    0  501 -0.00000000000E+00  0.00000000000E+00  0.35746443032E+01  0.35758538693E+01  0.93000000000E-01 0. -1.
          3   -1    0    0  501    0  0.00000000000E+00 -0.00000000000E+00 -0.10343994222E+03  0.10343998403E+03  0.93000000000E-01 0.  1.
        -11    1    1    2    0    0 -0.14935051055E+02 -0.10948145548E+01 -0.16362019437E+02  0.22180397861E+02  0.51100000000E-03 0. -1.
         11    1    1    2    0    0  0.14935051055E+02  0.10948145548E+01 -0.83503278480E+02  0.84835440036E+02  0.51100000000E-03 0.  1.
<mgrwt>
<rscale>  0 0.38461823E+02</rscale>
<asrwt>0</asrwt>
<pdfrwt beam="2">  1        3 0.15913931E-01 0.38461823E+02</pdfrwt>
<pdfrwt beam="1">  1       -3 0.55004161E-03 0.38461823E+02</pdfrwt>
<totfact> 0.31323177E+05</totfact>
</mgrwt>
</event>
<event>
 4    1  0.1754914E-001  0.2761196E+02  0.7818608E-02  0.1626092E+00
         -3   -1    0    0    0  501 -0.00000000000E+00  0.00000000000E+00  0.41068349903E+02  0.41068455203E+02  0.93000000000E-01 0. -1.
          3   -1    0    0  501    0  0.00000000000E+00 -0.00000000000E+00 -0.46405893578E+01  0.46415211502E+01  0.93000000000E-01 0.  1.
        -11    1    1    2    0    0 -0.11861827507E+02  0.45676199085E+01  0.92930715760E+01  0.15745706812E+02  0.51100000000E-03 0.  1.
         11    1    1    2    0    0  0.11861827507E+02 -0.45676199085E+01  0.27134688969E+02  0.29964269541E+02  0.51100000000E-03 0. -1.
<mgrwt>
<rscale>  0 0.27611958E+02</rscale>
<asrwt>0</asrwt>
<pdfrwt beam="2">  1        3 0.71401660E-03 0.27611958E+02</pdfrwt>
<pdfrwt beam="1">  1       -3 0.63182874E-02 0.27611958E+02</pdfrwt>
<totfact> 0.80147155E+05</totfact>
</mgrwt>
</event>
<event>
 4    1  0.1754914E-001  0.4735281E+02  0.7818608E-02  0.1460166E+00
          3   -1    0    0  501    0  0.00000000000E+00  0.00000000000E+00  0.27151191333E+02  0.27151350608E+02  0.93000000000E-01 0. -1.
         -3   -1    0    0    0  501 -0.00000000000E+00 -0.00000000000E+00 -0.20645998498E+02  0.20646207956E+02  0.93000000000E-01 0.  1.
        -11    1    1    2    0    0  0.19888299561E+02 -0.19186623049E+01  0.16074123269E+02  0.25643774364E+02  0.51100000000E-03 0. -1.
         11    1    1    2    0    0 -0.19888299561E+02  0.19186623049E+01 -0.95689304337E+01  0.22153784200E+02  0.51100000000E-03 0.  1.
<mgrwt>
<rscale>  0 0.47352815E+02</rscale>
<asrwt>0</asrwt>
<pdfrwt beam="1">  1        3 0.41771347E-02 0.47352815E+02</pdfrwt>
<pdfrwt beam="2">  1       -3 0.31763358E-02 0.47352815E+02</pdfrwt>
<totfact> 0.21805012E+05</totfact>
</mgrwt>
</event>
<event>
 4    1  0.1754914E-001  0.2478105E+02  0.7818608E-02  0.1664167E+00
          3   -1    0    0  501    0  0.00000000000E+00  0.00000000000E+00  0.31840437768E+01  0.31854016658E+01  0.93000000000E-01 0.  1.
         -3   -1    0    0    0  501 -0.00000000000E+00 -0.00000000000E+00 -0.48205328277E+02  0.48205417987E+02  0.93000000000E-01 0. -1.
        -11    1    1    2    0    0 -0.81247981178E+01  0.88829828264E+01 -0.16427191621E+02  0.20365960649E+02  0.51100000000E-03 0.  1.
         11    1    1    2    0    0  0.81247981178E+01 -0.88829828264E+01 -0.28594092879E+02  0.31024859003E+02  0.51100000000E-03 0. -1.
<mgrwt>
<rscale>  0 0.24781047E+02</rscale>
<asrwt>0</asrwt>
<pdfrwt beam="1">  1        3 0.48996428E-03 0.24781047E+02</pdfrwt>
<pdfrwt beam="2">  1       -3 0.74163152E-02 0.24781047E+02</pdfrwt>
<totfact> 0.10076130E+06</totfact>
</mgrwt>
</event>
<event>
 4    1  0.1754914E-001  0.3470855E+02  0.7818608E-02  0.1551204E+00
          3   -1    0    0  501    0  0.00000000000E+00  0.00000000000E+00  0.55309738137E+01  0.55317556280E+01  0.93000000000E-01 0.  1.
         -3   -1    0    0    0  501 -0.00000000000E+00 -0.00000000000E+00 -0.54447009950E+02  0.54447089375E+02  0.93000000000E-01 0. -1.
        -11    1    1    2    0    0  0.67397479092E+01 -0.14470823737E+02 -0.12694195926E+02  0.20395380653E+02  0.51100000000E-03 0.  1.
         11    1    1    2    0    0 -0.67397479092E+01  0.14470823737E+02 -0.36221840210E+02  0.39583464351E+02  0.51100000000E-03 0. -1.
<mgrwt>
<rscale>  0 0.34708547E+02</rscale>
<asrwt>0</asrwt>
<pdfrwt beam="1">  1        3 0.85098534E-03 0.34708547E+02</pdfrwt>
<pdfrwt beam="2">  1       -3 0.83765289E-02 0.34708547E+02</pdfrwt>
<totfact> 0.45084066E+05</totfact>
</mgrwt>
</event>
<event>
 4    1  0.1754914E-001  0.3740062E+02  0.7818608E-02  0.1528260E+00
         -3   -1    0    0    0  501 -0.00000000000E+00  0.00000000000E+00  0.43194048227E+01  0.43204058863E+01  0.93000000000E-01 0. -1.
          3   -1    0    0  501    0  0.00000000000E+00 -0.00000000000E+00 -0.80950172020E+02  0.80950225442E+02  0.93000000000E-01 0.  1.
        -11    1    1    2    0    0  0.58142866040E+01  0.10758743770E+02 -0.70570092111E+02  0.71621884903E+02  0.51100000000E-03 0.  1.
         11    1    1    2    0    0 -0.58142866040E+01 -0.10758743770E+02 -0.60606750869E+01  0.13648746426E+02  0.51100000000E-03 0. -1.
<mgrwt>
<rscale>  0 0.37400616E+02</rscale>
<asrwt>0</asrwt>
<pdfrwt beam="2">  1        3 0.12453953E-01 0.37400616E+02</pdfrwt>
<pdfrwt beam="1">  1       -3 0.66460499E-03 0.37400616E+02</pdfrwt>
<totfact> 0.35301978E+05</totfact>
</mgrwt>
</event>
<event>
 4    1  0.1754914E-001  0.2471325E+02  0.7818608E-02  0.1665155E+00
          3   -1    0    0  501    0  0.00000000000E+00  0.00000000000E+00  0.57540666192E+01  0.57548181256E+01  0.93000000000E-01 0. -1.
         -3   -1    0    0    0  501 -0.00000000000E+00 -0.00000000000E+00 -0.26532779346E+02  0.26532942332E+02  0.93000000000E-01 0.  1.
        -11    1    1    2    0    0  0.45852986854E+01 -0.95497752584E+01 -0.20786679396E+01  0.10795556131E+02  0.51100000000E-03 0. -1.
         11    1    1    2    0    0 -0.45852986854E+01  0.95497752584E+01 -0.18700044787E+02  0.21492204327E+02  0.51100000000E-03 0.  1.
<mgrwt>
<rscale>  0 0.24713247E+02</rscale>
<asrwt>0</asrwt>
<pdfrwt beam="1">  1        3 0.88531138E-03 0.24713247E+02</pdfrwt>
<pdfrwt beam="2">  1       -3 0.40820363E-02 0.24713247E+02</pdfrwt>
<totfact> 0.10751629E+06</totfact>
</mgrwt>
</event>
<event>
 4    1  0.1754914E-001  0.2919330E+02  0.7818608E-02  0.1607181E+00
         -3   -1    0    0    0  501 -0.00000000000E+00  0.00000000000E+00  0.46024729615E+01  0.46034124692E+01  0.93000000000E-01 0. -1.
          3   -1    0    0  501    0  0.00000000000E+00 -0.00000000000E+00 -0.46287278588E+02  0.46287372015E+02  0.93000000000E-01 0.  1.
        -11    1    1    2    0    0  0.31879727485E+01  0.10218467966E+02 -0.38141932064E+02  0.39615492419E+02  0.51100000000E-03 0.  1.
         11    1    1    2    0    0 -0.31879727485E+01 -0.10218467966E+02 -0.35428735627E+01  0.11275292065E+02  0.51100000000E-03 0. -1.
<mgrwt>
<rscale>  0 0.29193303E+02</rscale>
<asrwt>0</asrwt>
<pdfrwt beam="2">  1        3 0.71211989E-02 0.29193303E+02</pdfrwt>
<pdfrwt beam="1">  1       -3 0.70815225E-03 0.29193303E+02</pdfrwt>
<totfact> 0.69435965E+05</totfact>
</mgrwt>
</event>
<event>
 4    1  0.1754914E-001  0.2775221E+02  0.7818608E-02  0.1624352E+00
          3   -1    0    0  501    0  0.00000000000E+00  0.00000000000E+00  0.36937977652E+02  0.36938094727E+02  0.93000000000E-01 0.  1.
         -3   -1    0    0    0  501 -0.00000000000E+00 -0.00000000000E+00 -0.52121530699E+01  0.52129826994E+01  0.93000000000E-01 0. -1.
        -11    1    1    2    0    0 -0.56069845037E+01 -0.92173549689E+01  0.29116746770E+02  0.31051293863E+02  0.51100000000E-03 0.  1.
         11    1    1    2    0    0  0.56069845037E+01  0.92173549689E+01  0.26090778121E+01  0.11099783563E+02  0.51100000000E-03 0. -1.
<mgrwt>
<rscale>  0 0.27752214E+02</rscale>
<asrwt>0</asrwt>
<pdfrwt beam="1">  1        3 0.56828385E-02 0.27752214E+02</pdfrwt>
<pdfrwt beam="2">  1       -3 0.80194254E-03 0.27752214E+02</pdfrwt>
<totfact> 0.80061797E+05</totfact>
</mgrwt>
</event>
<event>
 4    1  0.1754914E-001  0.3261689E+02  0.7818608E-02  0.1570842E+00
          3   -1    0    0  501    0  0.00000000000E+00  0.00000000000E+00  0.88079952063E+01  0.88084861670E+01  0.93000000000E-01 0.  1.
         -3   -1    0    0    0  501 -0.00000000000E+00 -0.00000000000E+00 -0.30194504143E+02  0.30194647364E+02  0.93000000000E-01 0. -1.
        -11    1    1    2    0    0  0.14226373871E+02  0.25420909830E+01 -0.16562142993E+01  0.14546304897E+02  0.51100000000E-03 0.  1.
         11    1    1    2    0    0 -0.14226373871E+02 -0.25420909830E+01 -0.19730294638E+02  0.24456828634E+02  0.51100000000E-03 0. -1.
<mgrwt>
<rscale>  0 0.32616892E+02</rscale>
<asrwt>0</asrwt>
<pdfrwt beam="1">  1        3 0.13551250E-02 0.32616892E+02</pdfrwt>
<pdfrwt beam="2">  1       -3 0.46453571E-02 0.32616892E+02</pdfrwt>
<totfact> 0.55472083E+05</totfact>
</mgrwt>
</event>
<event>
 4    1  0.1754914E-001  0.2649349E+02  0.7818608E-02  0.1640433E+00
          3   -1    0    0  501    0  0.00000000000E+00  0.00000000000E+00  0.33133218144E+02  0.33133348662E+02  0.93000000000E-01 0.  1.
         -3   -1    0    0    0  501 -0.00000000000E+00 -0.00000000000E+00 -0.52955312143E+01  0.52963477833E+01  0.93000000000E-01 0. -1.
        -11    1    1    2    0    0 -0.62592080544E+00  0.12268474459E+02  0.21108714920E+02  0.24423044205E+02  0.51100000000E-03 0.  1.
         11    1    1    2    0    0  0.62592080544E+00 -0.12268474459E+02  0.67289720090E+01  0.14006652240E+02  0.51100000000E-03 0. -1.
<mgrwt>
<rscale>  0 0.26493485E+02</rscale>
<asrwt>0</asrwt>
<pdfrwt beam="1">  1        3 0.50974909E-02 0.26493485E+02</pdfrwt>
<pdfrwt beam="2">  1       -3 0.81476998E-03 0.26493485E+02</pdfrwt>
<totfact> 0.90049278E+05</totfact>
</mgrwt>
</event>
<event>
 4    1  0.1754914E-001  0.2167713E+02  0.7818608E-02  0.1713896E+00
          3   -1    0    0  501    0  0.00000000000E+00  0.00000000000E+00  0.26908500039E+01  0.26924566372E+01  0.93000000000E-01 0.  1.
         -3   -1    0    0    0  501 -0.00000000000E+00 -0.00000000000E+00 -0.43642332096E+02  0.43642431185E+02  0.93000000000E-01 0. -1.
        -11    1    1    2    0    0 -0.54003361090E+01  0.93873974461E+01 -0.21401614234E+02  0.23985744787E+02  0.51100000000E-03 0.  1.
         11    1    1    2    0    0  0.54003361090E+01 -0.93873974461E+01 -0.19549867858E+02  0.22349143036E+02  0.51100000000E-03 0. -1.
<mgrwt>
<rscale>  0 0.21677130E+02</rscale>
<asrwt>0</asrwt>
<pdfrwt beam="1">  1        3 0.41410817E-03 0.21677130E+02</pdfrwt>
<pdfrwt beam="2">  1       -3 0.67143356E-02 0.21677130E+02</pdfrwt>
<totfact> 0.13760077E+06</totfact>
</mgrwt>
</event>
<event>
 4    1  0.1754914E-001  0.2049556E+02  0.7818608E-02  0.1735649E+00
         -3   -1    0    0    0  501 -0.00000000000E+00  0.00000000000E+00  0.59493828569E+01  0.59501096947E+01  0.93000000000E-01 0. -1.
          3   -1    0    0  501    0  0.00000000000E+00 -0.00000000000E+00 -0.17649819442E+02  0.17650064457E+02  0.93000000000E-01 0.  1.
        -11    1    1    2    0    0  0.40022087968E+01  0.93830976618E+01 -0.47238852500E+01  0.11241676436E+02  0.51100000000E-03 0.  1.
         11    1    1    2    0    0 -0.40022087968E+01 -0.93830976618E+01 -0.69765513349E+01  0.12358497715E+02  0.51100000000E-03 0. -1.
<mgrwt>
<rscale>  0 0.20495561E+02</rscale>
<asrwt>0</asrwt>
<pdfrwt beam="2">  1        3 0.27154316E-02 0.20495561E+02</pdfrwt>
<pdfrwt beam="1">  1       -3 0.91536443E-03 0.20495561E+02</pdfrwt>
<totfact> 0.16743498E+06</totfact>
</mgrwt>
</event>
<event>
 4    1  0.1754914E-001  0.8445356E+02  0.7818608E-02  0.1316868E+00
          3   -1    0    0  501    0  0.00000000000E+00  0.00000000000E+00  0.15160273616E+02  0.15160558866E+02  0.93000000000E-01 0. -1.
         -3   -1    0    0    0  501 -0.00000000000E+00 -0.00000000000E+00 -0.11761527035E+03  0.11761530712E+03  0.93000000000E-01 0.  1.
        -11    1    1    2    0    0  0.13218349700E+02  0.29901043062E+02 -0.93246205223E+02  0.98811193362E+02  0.51100000000E-03 0.  1.
         11    1    1    2    0    0 -0.13218349700E+02 -0.29901043062E+02 -0.92087915115E+01  0.33964672622E+02  0.51100000000E-03 0. -1.
<mgrwt>
<rscale>  0 0.84453563E+02</rscale>
<asrwt>0</asrwt>
<pdfrwt beam="1">  1        3 0.23323746E-02 0.84453563E+02</pdfrwt>
<pdfrwt beam="2">  1       -3 0.18094681E-01 0.84453563E+02</pdfrwt>
<totfact> 0.39828044E+04</totfact>
</mgrwt>
</event>
