<event>
 5   1  0.1343823E+00  0.8738550E+02  0.7818608E-02  0.1309309E+00
         -2   -1    0    0    0  501 -0.00000000000E+00  0.00000000000E+00  0.98908889347E+02  0.98908889382E+02  0.26000000000E-02 0.  1.
          2   -1    0    0  501    0  0.00000000000E+00 -0.00000000000E+00 -0.19301162438E+02  0.19301162614E+02  0.26000000000E-02 0. -1.
         23    2    1    2    0    0  0.00000000000E+00  0.00000000000E+00  0.79607726909E+02  0.11821005200E+03  0.87385503426E+02 0.  0.
        -13    1    3    3    0    0 -0.28703320585E+02  0.22753893965E+02  0.72027108823E+02  0.80805543628E+02  0.10570000000E+00 0.  1.
         13    1    3    3    0    0  0.28703320585E+02 -0.22753893965E+02  0.75806180864E+01  0.37404508367E+02  0.10570000000E+00 0. -1.
<mgrwt>
<rscale>  0 0.87385503E+02</rscale>
<asrwt>0</asrwt>
<pdfrwt beam="2">  1        2 0.29694096E-02 0.87385503E+02</pdfrwt>
<pdfrwt beam="1">  1       -2 0.15216752E-01 0.87385503E+02</pdfrwt>
<totfact> 0.88982624E+04</totfact>
</mgrwt>
</event>
<event>
 5   1  0.1343823E+00  0.9132779E+02  0.7818608E-02  0.1299668E+00
          2   -1    0    0  501    0  0.00000000000E+00  0.00000000000E+00  0.19893648897E+02  0.19893649067E+02  0.26000000000E-02 0. -1.
         -2   -1    0    0    0  501 -0.00000000000E+00 -0.00000000000E+00 -0.10481694482E+03  0.10481694485E+03  0.26000000000E-02 0.  1.
         23    2    1    2    0    0  0.00000000000E+00  0.00000000000E+00 -0.84923295923E+02  0.12471059392E+03  0.91327794484E+02 0.  0.
        -13    1    3    3    0    0 -0.36419152309E+02 -0.27035330868E+02 -0.35246730008E+02  0.57442205030E+02  0.10570000000E+00 0.  1.
         13    1    3    3    0    0  0.36419152309E+02  0.27035330868E+02 -0.49676565915E+02  0.67268388889E+02  0.10570000000E+00 0. -1.
<mgrwt>
<rscale>  0 0.91327794E+02</rscale>
<asrwt>0</asrwt>
<pdfrwt beam="1">  1        2 0.30605614E-02 0.91327794E+02</pdfrwt>
<pdfrwt beam="2">  1       -2 0.16125684E-01 0.91327794E+02</pdfrwt>
<totfact> 0.78358989E+04</totfact>
</mgrwt>
</event>
<event>
 5   1  0.1343823E+00  0.9005177E+02  0.7818608E-02  0.1302726E+00
         -2   -1    0    0    0  501 -0.00000000000E+00  0.00000000000E+00  0.11017508106E+03  0.11017508110E+03  0.26000000000E-02 0.  1.
          2   -1    0    0  501    0  0.00000000000E+00 -0.00000000000E+00 -0.18400985826E+02  0.18400986009E+02  0.26000000000E-02 0. -1.
         23    2    1    2    0    0  0.00000000000E+00  0.00000000000E+00  0.91774095239E+02  0.12857606710E+03  0.90051765531E+02 0.  0.
        -13    1    3    3    0    0 -0.29628164077E+02  0.10133807005E+02 -0.30839128317E+00  0.31314987286E+02  0.10570000000E+00 0. -1.
         13    1    3    3    0    0  0.29628164077E+02 -0.10133807005E+02  0.92082486522E+02  0.97261079819E+02  0.10570000000E+00 0.  1.
<mgrwt>
<rscale>  0 0.90051766E+02</rscale>
<asrwt>0</asrwt>
<pdfrwt beam="2">  1        2 0.28309210E-02 0.90051766E+02</pdfrwt>
<pdfrwt beam="1">  1       -2 0.16950012E-01 0.90051766E+02</pdfrwt>
<totfact> 0.79927716E+04</totfact>
</mgrwt>
</event>
<event>
 5   1  0.1343823E+00  0.9219449E+02  0.7818608E-02  0.1297623E+00
          2   -1    0    0  501    0  0.00000000000E+00  0.00000000000E+00  0.24707480700E+03  0.24707480701E+03  0.26000000000E-02 0.  1.
         -2   -1    0    0    0  501 -0.00000000000E+00 -0.00000000000E+00 -0.86004565042E+01  0.86004568972E+01  0.26000000000E-02 0. -1.
         23    2    1    2    0    0  0.00000000000E+00  0.00000000000E+00  0.23847435050E+03  0.25567526391E+03  0.92194494041E+02 0.  0.
        -13    1    3    3    0    0  0.22215965782E+02 -0.34224421483E+02  0.17872152157E+03  0.18332008512E+03  0.10570000000E+00 0.  1.
         13    1    3    3    0    0 -0.22215965782E+02  0.34224421483E+02  0.59752828922E+02  0.72355178793E+02  0.10570000000E+00 0. -1.
<mgrwt>
<rscale>  0 0.92194494E+02</rscale>
<asrwt>0</asrwt>
<pdfrwt beam="1">  1        2 0.38011505E-01 0.92194494E+02</pdfrwt>
<pdfrwt beam="2">  1       -2 0.13231473E-02 0.92194494E+02</pdfrwt>
<totfact> 0.16222853E+05</totfact>
</mgrwt>
</event>
<event>
 5   1  0.1343823E+00  0.9590824E+02  0.7818608E-02  0.1289144E+00
          2   -1    0    0  501    0  0.00000000000E+00  0.00000000000E+00  0.39927369680E+03  0.39927369681E+03  0.26000000000E-02 0. -1.
         -2   -1    0    0    0  501 -0.00000000000E+00 -0.00000000000E+00 -0.57594517803E+01  0.57594523672E+01  0.26000000000E-02 0.  1.
         23    2    1    2    0    0  0.00000000000E+00  0.00000000000E+00  0.39351424502E+03  0.40503314918E+03  0.95908242074E+02 0.  0.
        -13    1    3    3    0    0 -0.20392006278E+02  0.43400785094E+02  0.19824714724E+03  0.20396422389E+03  0.10570000000E+00 0.  1.
         13    1    3    3    0    0  0.20392006278E+02 -0.43400785094E+02  0.19526709778E+03  0.20106892529E+03  0.10570000000E+00 0. -1.
<mgrwt>
<rscale>  0 0.95908242E+02</rscale>
<asrwt>0</asrwt>
<pdfrwt beam="1">  1        2 0.61426723E-01 0.95908242E+02</pdfrwt>
<pdfrwt beam="2">  1       -2 0.88606954E-03 0.95908242E+02</pdfrwt>
<totfact> 0.17434801E+05</totfact>
</mgrwt>
</event>
<event>
 5   1  0.1343823E+00  0.8502905E+02  0.7818608E-02  0.1315357E+00
          2   -1    0    0  501    0  0.00000000000E+00  0.00000000000E+00  0.98153759758E+02  0.98153759793E+02  0.26000000000E-02 0. -1.
         -2   -1    0    0    0  501 -0.00000000000E+00 -0.00000000000E+00 -0.18414829029E+02  0.18414829213E+02  0.26000000000E-02 0.  1.
         23    2    1    2    0    0  0.00000000000E+00  0.00000000000E+00  0.79738930729E+02  0.11656858901E+03  0.85029047206E+02 0.  0.
        -13    1    3    3    0    0 -0.40720604027E+02  0.98021603901E+01  0.49870993637E+02  0.65125855998E+02  0.10570000000E+00 0.  1.
         13    1    3    3    0    0  0.40720604027E+02 -0.98021603901E+01  0.29867937093E+02  0.51442733008E+02  0.10570000000E+00 0. -1.
<mgrwt>
<rscale>  0 0.85029047E+02</rscale>
<asrwt>0</asrwt>
<pdfrwt beam="1">  1        2 0.15100578E-01 0.85029047E+02</pdfrwt>
<pdfrwt beam="2">  1       -2 0.28330507E-02 0.85029047E+02</pdfrwt>
<totfact> 0.14768558E+05</totfact>
</mgrwt>
</event>
<event>
 5   1  0.1343823E+00  0.9208961E+02  0.7818608E-02  0.1297869E+00
          2   -1    0    0  501    0  0.00000000000E+00  0.00000000000E+00  0.40261878342E+02  0.40261878426E+02  0.26000000000E-02 0. -1.
         -2   -1    0    0    0  501 -0.00000000000E+00 -0.00000000000E+00 -0.52658351804E+02  0.52658351868E+02  0.26000000000E-02 0.  1.
         23    2    1    2    0    0  0.00000000000E+00  0.00000000000E+00 -0.12396473462E+02  0.92920230295E+02  0.92089612029E+02 0.  0.
        -13    1    3    3    0    0  0.27623921245E+02  0.33772081420E+02 -0.21044152739E+02  0.48440706491E+02  0.10570000000E+00 0.  1.
         13    1    3    3    0    0 -0.27623921245E+02 -0.33772081420E+02  0.86476792771E+01  0.44479523803E+02  0.10570000000E+00 0. -1.
<mgrwt>
<rscale>  0 0.92089612E+02</rscale>
<asrwt>0</asrwt>
<pdfrwt beam="1">  1        2 0.61941351E-02 0.92089612E+02</pdfrwt>
<pdfrwt beam="2">  1       -2 0.81012849E-02 0.92089612E+02</pdfrwt>
<totfact> 0.92827904E+04</totfact>
</mgrwt>
</event>
<event>
 5   1  0.1343823E+00  0.9205259E+02  0.7818608E-02  0.1297956E+00
         -2   -1    0    0    0  501 -0.00000000000E+00  0.00000000000E+00  0.23881477834E+02  0.23881477975E+02  0.26000000000E-02 0.  1.
          2   -1    0    0  501    0  0.00000000000E+00 -0.00000000000E+00 -0.88705551287E+02  0.88705551325E+02  0.26000000000E-02 0. -1.
         23    2    1    2    0    0  0.00000000000E+00  0.00000000000E+00 -0.64824073453E+02  0.11258702930E+03  0.92052586425E+02 0.  0.
        -13    1    3    3    0    0  0.27437126817E+02 -0.36655773535E+02 -0.26679641999E+02  0.52992981905E+02  0.10570000000E+00 0.  1.
         13    1    3    3    0    0 -0.27437126817E+02  0.36655773535E+02 -0.38144431454E+02  0.59594047395E+02  0.10570000000E+00 0. -1.
<mgrwt>
<rscale>  0 0.92052586E+02</rscale>
<asrwt>0</asrwt>
<pdfrwt beam="2">  1        2 0.13647008E-01 0.92052586E+02</pdfrwt>
<pdfrwt beam="1">  1       -2 0.36740736E-02 0.92052586E+02</pdfrwt>
<totfact> 0.11525732E+05</totfact>
</mgrwt>
</event>
<event>
 5   1  0.1343823E+00  0.8992723E+02  0.7818608E-02  0.1303028E+00
          2   -1    0    0  501    0  0.00000000000E+00  0.00000000000E+00  0.65237189375E+02  0.65237189427E+02  0.26000000000E-02 0. -1.
         -2   -1    0    0    0  501 -0.00000000000E+00 -0.00000000000E+00 -0.30990400426E+02  0.30990400535E+02  0.26000000000E-02 0.  1.
         23    2    1    2    0    0  0.00000000000E+00  0.00000000000E+00  0.34246788948E+02  0.96227589962E+02  0.89927229005E+02 0.  0.
        -13    1    3    3    0    0 -0.58602450792E+01 -0.11503662054E+02  0.63211079042E+02  0.64516109609E+02  0.10570000000E+00 0. -1.
         13    1    3    3    0    0  0.58602450792E+01  0.11503662054E+02 -0.28964290093E+02  0.31711480352E+02  0.10570000000E+00 0.  1.
<mgrwt>
<rscale>  0 0.89927229E+02</rscale>
<asrwt>0</asrwt>
<pdfrwt beam="1">  1        2 0.10036490E-01 0.89927229E+02</pdfrwt>
<pdfrwt beam="2">  1       -2 0.47677540E-02 0.89927229E+02</pdfrwt>
<totfact> 0.11277575E+05</totfact>
</mgrwt>
</event>
<event>
 5   1  0.1343823E+00  0.9100920E+02  0.7818608E-02  0.1300426E+00
         -2   -1    0    0    0  501 -0.00000000000E+00  0.00000000000E+00  0.65889538610E+01  0.65889543740E+01  0.26000000000E-02 0.  1.
          2   -1    0    0  501    0  0.00000000000E+00 -0.00000000000E+00 -0.31426363258E+03  0.31426363259E+03  0.26000000000E-02 0. -1.
         23    2    1    2    0    0  0.00000000000E+00  0.00000000000E+00 -0.30767467872E+03  0.32085258696E+03  0.91009200838E+02 0.  0.
        -13    1    3    3    0    0  0.34438364578E+02  0.29375224963E+02 -0.13739450304E+03  0.14465878969E+03  0.10570000000E+00 0.  1.
         13    1    3    3    0    0 -0.34438364578E+02 -0.29375224963E+02 -0.17028017568E+03  0.17619379728E+03  0.10570000000E+00 0. -1.
<mgrwt>
<rscale>  0 0.91009201E+02</rscale>
<asrwt>0</asrwt>
<pdfrwt beam="2">  1        2 0.48348239E-01 0.91009201E+02</pdfrwt>
<pdfrwt beam="1">  1       -2 0.10136855E-02 0.91009201E+02</pdfrwt>
<totfact> 0.18368914E+05</totfact>
</mgrwt>
</event>
<event>
 5   1  0.1343823E+00  0.9233675E+02  0.7818608E-02  0.1297290E+00
          2   -1    0    0  501    0  0.00000000000E+00  0.00000000000E+00  0.20941723843E+03  0.20941723845E+03  0.26000000000E-02 0. -1.
         -2   -1    0    0    0  501 -0.00000000000E+00 -0.00000000000E+00 -0.10178335789E+02  0.10178336121E+02  0.26000000000E-02 0.  1.
         23    2    1    2    0    0  0.00000000000E+00  0.00000000000E+00  0.19923890264E+03  0.21959557457E+03  0.92336753482E+02 0.  0.
        -13    1    3    3    0    0  0.15511891482E+01 -0.44565442031E+02  0.12806091652E+03  0.13560270765E+03  0.10570000000E+00 0. -1.
         13    1    3    3    0    0 -0.15511891482E+01  0.44565442031E+02  0.71177986124E+02  0.83992866913E+02  0.10570000000E+00 0.  1.
<mgrwt>
<rscale>  0 0.92336753E+02</rscale>
<asrwt>0</asrwt>
<pdfrwt beam="1">  1        2 0.32218034E-01 0.92336753E+02</pdfrwt>
<pdfrwt beam="2">  1       -2 0.15658980E-02 0.92336753E+02</pdfrwt>
<totfact> 0.15201853E+05</totfact>
</mgrwt>
</event>
<event>
 5   1  0.1343823E+00  0.1231803E+03  0.7818608E-02  0.1237941E+00
          2   -1    0    0  501    0  0.00000000000E+00  0.00000000000E+00  0.35363758948E+03  0.35363758949E+03  0.26000000000E-02 0. -1.
         -2   -1    0    0    0  501 -0.00000000000E+00 -0.00000000000E+00 -0.10726649233E+02  0.10726649548E+02  0.26000000000E-02 0.  1.
         23    2    1    2    0    0  0.00000000000E+00  0.00000000000E+00  0.34291094025E+03  0.36436423904E+03  0.12318029773E+03 0.  0.
        -13    1    3    3    0    0  0.43707426562E+02 -0.23589940453E+02  0.63722186296E+02  0.80792033184E+02  0.10570000000E+00 0.  1.
         13    1    3    3    0    0 -0.43707426562E+02  0.23589940453E+02  0.27918875395E+03  0.28357220585E+03  0.10570000000E+00 0. -1.
<mgrwt>
<rscale>  0 0.12318030E+03</rscale>
<asrwt>0</asrwt>
<pdfrwt beam="1">  1        2 0.54405775E-01 0.12318030E+03</pdfrwt>
<pdfrwt beam="2">  1       -2 0.16502540E-02 0.12318030E+03</pdfrwt>
<totfact> 0.84596966E+04</totfact>
</mgrwt>
</event>
<event>
 5   1  0.1343823E+00  0.8864096E+02  0.7818608E-02  0.1306177E+00
          2   -1    0    0  501    0  0.00000000000E+00  0.00000000000E+00  0.68682256254E+01  0.68682261175E+01  0.26000000000E-02 0.  1.
         -2   -1    0    0    0  501 -0.00000000000E+00 -0.00000000000E+00 -0.28599890829E+03  0.28599890830E+03  0.26000000000E-02 0. -1.
         23    2    1    2    0    0  0.00000000000E+00  0.00000000000E+00 -0.27913068266E+03  0.29286713442E+03  0.88640963545E+02 0.  0.
        -13    1    3    3    0    0  0.18750671469E+02  0.33504776306E+02 -0.21271201247E+03  0.21614941392E+03  0.10570000000E+00 0.  1.
         13    1    3    3    0    0 -0.18750671469E+02 -0.33504776306E+02 -0.66418670192E+02  0.76717720498E+02  0.10570000000E+00 0. -1.
<mgrwt>
<rscale>  0 0.88640964E+02</rscale>
<asrwt>0</asrwt>
<pdfrwt beam="1">  1        2 0.10566504E-02 0.88640964E+02</pdfrwt>
<pdfrwt beam="2">  1       -2 0.43999823E-01 0.88640964E+02</pdfrwt>
<totfact> 0.56305737E+04</totfact>
</mgrwt>
</event>
<event>
 5   1  0.1343823E+00  0.8727347E+02  0.7818608E-02  0.1309592E+00
          2   -1    0    0  501    0  0.00000000000E+00  0.00000000000E+00  0.70598352787E+02  0.70598352835E+02  0.26000000000E-02 0. -1.
         -2   -1    0    0    0  501 -0.00000000000E+00 -0.00000000000E+00 -0.26971802406E+02  0.26971802531E+02  0.26000000000E-02 0.  1.
         23    2    1    2    0    0  0.00000000000E+00  0.00000000000E+00  0.43626550382E+02  0.97570155366E+02  0.87273474320E+02 0.  0.
        -13    1    3    3    0    0 -0.41370367921E+02  0.13853684714E+02  0.20863493616E+02  0.48360401781E+02  0.10570000000E+00 0. -1.
         13    1    3    3    0    0  0.41370367921E+02 -0.13853684714E+02  0.22763056765E+02  0.49209753585E+02  0.10570000000E+00 0.  1.
<mgrwt>
<rscale>  0 0.87273474E+02</rscale>
<asrwt>0</asrwt>
<pdfrwt beam="1">  1        2 0.10861285E-01 0.87273474E+02</pdfrwt>
<pdfrwt beam="2">  1       -2 0.41495081E-02 0.87273474E+02</pdfrwt>
<totfact> 0.12524409E+05</totfact>
</mgrwt>
</event>
<event>
 5   1  0.1343823E+00  0.9060096E+02  0.7818608E-02  0.1301403E+00
          2   -1    0    0  501    0  0.00000000000E+00  0.00000000000E+00  0.23532592075E+03  0.23532592077E+03  0.26000000000E-02 0. -1.
         -2   -1    0    0    0  501 -0.00000000000E+00 -0.00000000000E+00 -0.87203890794E+01  0.87203894669E+01  0.26000000000E-02 0.  1.
         23    2    1    2    0    0  0.00000000000E+00  0.00000000000E+00  0.22660553167E+03  0.24404631023E+03  0.90600963316E+02 0.  0.
        -13    1    3    3    0    0 -0.35697895275E+02 -0.20765544892E+02  0.63156572128E+02  0.75460660991E+02  0.10570000000E+00 0.  1.
         13    1    3    3    0    0  0.35697895275E+02  0.20765544892E+02  0.16344895954E+03  0.16858564924E+03  0.10570000000E+00 0. -1.
<mgrwt>
<rscale>  0 0.90600963E+02</rscale>
<asrwt>0</asrwt>
<pdfrwt beam="1">  1        2 0.36203991E-01 0.90600963E+02</pdfrwt>
<pdfrwt beam="2">  1       -2 0.13415982E-02 0.90600963E+02</pdfrwt>
<totfact> 0.16696288E+05</totfact>
</mgrwt>
</event>
<event>
 5   1  0.1343823E+00  0.8942252E+02  0.7818608E-02  0.1304256E+00
         -2   -1    0    0    0  501 -0.00000000000E+00  0.00000000000E+00  0.10269776731E+02  0.10269777060E+02  0.26000000000E-02 0. -1.
          2   -1    0    0  501    0  0.00000000000E+00 -0.00000000000E+00 -0.19465825116E+03  0.19465825118E+03  0.26000000000E-02 0.  1.
         23    2    1    2    0    0  0.00000000000E+00  0.00000000000E+00 -0.18438847443E+03  0.20492802824E+03  0.89422520964E+02 0.  0.
        -13    1    3    3    0    0  0.22069211070E+02 -0.38884700700E+02 -0.91907862953E+02  0.10220634262E+03  0.10570000000E+00 0. -1.
         13    1    3    3    0    0 -0.22069211070E+02  0.38884700700E+02 -0.92480611480E+02  0.10272168563E+03  0.10570000000E+00 0.  1.
<mgrwt>
<rscale>  0 0.89422521E+02</rscale>
<asrwt>0</asrwt>
<pdfrwt beam="2">  1        2 0.29947421E-01 0.89422521E+02</pdfrwt>
<pdfrwt beam="1">  1       -2 0.15799658E-02 0.89422521E+02</pdfrwt>
<totfact> 0.16139193E+05</totfact>
</mgrwt>
</event>
<event>
 5   1  0.1343823E+00  0.9841146E+02  0.7818608E-02  0.1283672E+00
          2   -1    0    0  501    0  0.00000000000E+00  0.00000000000E+00  0.30233348504E+03  0.30233348505E+03  0.26000000000E-02 0. -1.
         -2   -1    0    0    0  501 -0.00000000000E+00 -0.00000000000E+00 -0.80083878800E+01  0.80083883020E+01  0.26000000000E-02 0.  1.
         23    2    1    2    0    0  0.00000000000E+00  0.00000000000E+00  0.29432509716E+03  0.31034187335E+03  0.98411460401E+02 0.  0.
        -13    1    3    3    0    0 -0.34638747201E+02 -0.19454005623E+02  0.55607867154E+02  0.68341401832E+02  0.10570000000E+00 0.  1.
         13    1    3    3    0    0  0.34638747201E+02  0.19454005623E+02  0.23871723001E+03  0.24200047152E+03  0.10570000000E+00 0. -1.
<mgrwt>
<rscale>  0 0.98411460E+02</rscale>
<asrwt>0</asrwt>
<pdfrwt beam="1">  1        2 0.46512832E-01 0.98411460E+02</pdfrwt>
<pdfrwt beam="2">  1       -2 0.12320600E-02 0.98411460E+02</pdfrwt>
<totfact> 0.14683169E+05</totfact>
</mgrwt>
</event>
<event>
 5   1  0.1343823E+00  0.9294989E+02  0.7818608E-02  0.1295861E+00
         -2   -1    0    0    0  501 -0.00000000000E+00  0.00000000000E+00  0.21168044341E+03  0.21168044342E+03  0.26000000000E-02 0.  1.
          2   -1    0    0  501    0  0.00000000000E+00 -0.00000000000E+00 -0.10203685223E+02  0.10203685554E+02  0.26000000000E-02 0. -1.
         23    2    1    2    0    0  0.00000000000E+00  0.00000000000E+00  0.20147675818E+03  0.22188412898E+03  0.92949892971E+02 0.  0.
        -13    1    3    3    0    0 -0.52330896864E+00  0.37020666056E+02  0.33681244279E+02  0.50052382123E+02  0.10570000000E+00 0.  1.
         13    1    3    3    0    0  0.52330896864E+00 -0.37020666056E+02  0.16779551390E+03  0.17183174685E+03  0.10570000000E+00 0. -1.
<mgrwt>
<rscale>  0 0.92949893E+02</rscale>
<asrwt>0</asrwt>
<pdfrwt beam="2">  1        2 0.15697977E-02 0.92949893E+02</pdfrwt>
<pdfrwt beam="1">  1       -2 0.32566223E-01 0.92949893E+02</pdfrwt>
<totfact> 0.57855298E+04</totfact>
</mgrwt>
</event>
<event>
 5   1  0.1343823E+00  0.8943204E+02  0.7818608E-02  0.1304233E+00
          2   -1    0    0  501    0  0.00000000000E+00  0.00000000000E+00  0.39059136025E+02  0.39059136112E+02  0.26000000000E-02 0. -1.
         -2   -1    0    0    0  501 -0.00000000000E+00 -0.00000000000E+00 -0.51192179708E+02  0.51192179774E+02  0.26000000000E-02 0.  1.
         23    2    1    2    0    0  0.00000000000E+00  0.00000000000E+00 -0.12133043683E+02  0.90251315886E+02  0.89432037157E+02 0.  0.
        -13    1    3    3    0    0  0.12233712672E+01  0.10400358270E+02 -0.49937139441E+02  0.51023456934E+02  0.10570000000E+00 0.  1.
         13    1    3    3    0    0 -0.12233712672E+01 -0.10400358270E+02  0.37804095758E+02  0.39227858952E+02  0.10570000000E+00 0. -1.
<mgrwt>
<rscale>  0 0.89432037E+02</rscale>
<asrwt>0</asrwt>
<pdfrwt beam="1">  1        2 0.60090979E-02 0.89432037E+02</pdfrwt>
<pdfrwt beam="2">  1       -2 0.78757200E-02 0.89432037E+02</pdfrwt>
<totfact> 0.10025346E+05</totfact>
</mgrwt>
</event>
<event>
 5   1  0.1343823E+00  0.9210088E+02  0.7818608E-02  0.1297842E+00
          2   -1    0    0  501    0  0.00000000000E+00  0.00000000000E+00  0.39608605464E+03  0.39608605465E+03  0.26000000000E-02 0.  1.
         -2   -1    0    0    0  501 -0.00000000000E+00 -0.00000000000E+00 -0.53539954404E+01  0.53539960717E+01  0.26000000000E-02 0. -1.
         23    2    1    2    0    0  0.00000000000E+00  0.00000000000E+00  0.39073205920E+03  0.40144005072E+03  0.92100880755E+02 0.  0.
        -13    1    3    3    0    0  0.20136781199E+01  0.44038861121E+02  0.13735180682E+03  0.14425327101E+03  0.10570000000E+00 0. -1.
         13    1    3    3    0    0 -0.20136781199E+01 -0.44038861121E+02  0.25338025238E+03  0.25718677971E+03  0.10570000000E+00 0.  1.
<mgrwt>
<rscale>  0 0.92100881E+02</rscale>
<asrwt>0</asrwt>
<pdfrwt beam="1">  1        2 0.60936331E-01 0.92100881E+02</pdfrwt>
<pdfrwt beam="2">  1       -2 0.82369145E-03 0.92100881E+02</pdfrwt>
<totfact> 0.19366249E+05</totfact>
</mgrwt>
</event>
<event>
 5   1  0.1343823E+00  0.9156838E+02  0.7818608E-02  0.1299097E+00
         -2   -1    0    0    0  501 -0.00000000000E+00  0.00000000000E+00  0.91906868143E+02  0.91906868180E+02  0.26000000000E-02 0.  1.
          2   -1    0    0  501    0  0.00000000000E+00 -0.00000000000E+00 -0.22807782442E+02  0.22807782590E+02  0.26000000000E-02 0. -1.
         23    2    1    2    0    0  0.00000000000E+00  0.00000000000E+00  0.69099085701E+02  0.11471465077E+03  0.91568375855E+02 0.  0.
        -13    1    3    3    0    0 -0.14194683809E+02  0.25768561471E+02  0.78498107107E+02  0.83830017300E+02  0.10570000000E+00 0.  1.
         13    1    3    3    0    0  0.14194683809E+02 -0.25768561471E+02 -0.93990214058E+01  0.30884633470E+02  0.10570000000E+00 0. -1.
<mgrwt>
<rscale>  0 0.91568376E+02</rscale>
<asrwt>0</asrwt>
<pdfrwt beam="2">  1        2 0.35088896E-02 0.91568376E+02</pdfrwt>
<pdfrwt beam="1">  1       -2 0.14139518E-01 0.91568376E+02</pdfrwt>
<totfact> 0.80944140E+04</totfact>
</mgrwt>
</event>
<event>
 5   1  0.1343823E+00  0.9197935E+02  0.7818608E-02  0.1298128E+00
         -2   -1    0    0    0  501 -0.00000000000E+00  0.00000000000E+00  0.85692042112E+01  0.85692046056E+01  0.26000000000E-02 0.  1.
          2   -1    0    0  501    0  0.00000000000E+00 -0.00000000000E+00 -0.24681990069E+03  0.24681990070E+03  0.26000000000E-02 0. -1.
         23    2    1    2    0    0  0.00000000000E+00  0.00000000000E+00 -0.23825069647E+03  0.25538910530E+03  0.91979349519E+02 0.  0.
        -13    1    3    3    0    0  0.31626602435E+02  0.22268453945E+02 -0.50049403803E+02  0.63254090906E+02  0.10570000000E+00 0.  1.
         13    1    3    3    0    0 -0.31626602435E+02 -0.22268453945E+02 -0.18820129267E+03  0.19213501440E+03  0.10570000000E+00 0. -1.
<mgrwt>
<rscale>  0 0.91979350E+02</rscale>
<asrwt>0</asrwt>
<pdfrwt beam="2">  1        2 0.37972287E-01 0.91979350E+02</pdfrwt>
<pdfrwt beam="1">  1       -2 0.13183393E-02 0.91979350E+02</pdfrwt>
<totfact> 0.16318648E+05</totfact>
</mgrwt>
</event>
<event>
 5   1  0.1343823E+00  0.8961018E+02  0.7818608E-02  0.1303798E+00
          2   -1    0    0  501    0  0.00000000000E+00  0.00000000000E+00  0.94717569738E+02  0.94717569774E+02  0.26000000000E-02 0. -1.
         -2   -1    0    0    0  501 -0.00000000000E+00 -0.00000000000E+00 -0.21194545881E+02  0.21194546040E+02  0.26000000000E-02 0.  1.
         23    2    1    2    0    0  0.00000000000E+00  0.00000000000E+00  0.73523023858E+02  0.11591211581E+03  0.89610175513E+02 0.  0.
        -13    1    3    3    0    0  0.28298965766E+02  0.33207212321E+02  0.49948662316E+02  0.66320663848E+02  0.10570000000E+00 0. -1.
         13    1    3    3    0    0 -0.28298965766E+02 -0.33207212321E+02  0.23574361541E+02  0.49591451966E+02  0.10570000000E+00 0.  1.
<mgrwt>
<rscale>  0 0.89610176E+02</rscale>
<asrwt>0</asrwt>
<pdfrwt beam="1">  1        2 0.14571934E-01 0.89610176E+02</pdfrwt>
<pdfrwt beam="2">  1       -2 0.32606994E-02 0.89610176E+02</pdfrwt>
<totfact> 0.12657918E+05</totfact>
</mgrwt>
</event>
<event>
 5   1  0.1343823E+00  0.9164572E+02  0.7818608E-02  0.1298915E+00
         -2   -1    0    0    0  501 -0.00000000000E+00  0.00000000000E+00  0.32716514395E+02  0.32716514498E+02  0.26000000000E-02 0. -1.
          2   -1    0    0  501    0  0.00000000000E+00 -0.00000000000E+00 -0.64179653203E+02  0.64179653256E+02  0.26000000000E-02 0.  1.
         23    2    1    2    0    0  0.00000000000E+00  0.00000000000E+00 -0.31463138808E+02  0.96896167754E+02  0.91645721241E+02 0.  0.
        -13    1    3    3    0    0 -0.32878486944E+02 -0.28842254055E+02 -0.30184112820E+02  0.53140966890E+02  0.10570000000E+00 0.  1.
         13    1    3    3    0    0  0.32878486944E+02  0.28842254055E+02 -0.12790259879E+01  0.43755200864E+02  0.10570000000E+00 0. -1.
<mgrwt>
<rscale>  0 0.91645721E+02</rscale>
<asrwt>0</asrwt>
<pdfrwt beam="2">  1        2 0.98737928E-02 0.91645721E+02</pdfrwt>
<pdfrwt beam="1">  1       -2 0.50333099E-02 0.91645721E+02</pdfrwt>
<totfact> 0.10646773E+05</totfact>
</mgrwt>
</event>
<event>
 5   1  0.1343823E+00  0.9214678E+02  0.7818608E-02  0.1297735E+00
          2   -1    0    0  501    0  0.00000000000E+00  0.00000000000E+00  0.26174184039E+03  0.26174184040E+03  0.26000000000E-02 0.  1.
         -2   -1    0    0    0  501 -0.00000000000E+00 -0.00000000000E+00 -0.81101184675E+01  0.81101188843E+01  0.26000000000E-02 0. -1.
         23    2    1    2    0    0  0.00000000000E+00  0.00000000000E+00  0.25363172192E+03  0.26985195929E+03  0.92146782720E+02 0.  0.
        -13    1    3    3    0    0  0.10915598099E+02  0.43098545153E+02  0.91417156721E+02  0.10165501754E+03  0.10570000000E+00 0. -1.
         13    1    3    3    0    0 -0.10915598099E+02 -0.43098545153E+02  0.16221456520E+03  0.16819694174E+03  0.10570000000E+00 0.  1.
<mgrwt>
<rscale>  0 0.92146783E+02</rscale>
<asrwt>0</asrwt>
<pdfrwt beam="1">  1        2 0.40267981E-01 0.92146783E+02</pdfrwt>
<pdfrwt beam="2">  1       -2 0.12477104E-02 0.92146783E+02</pdfrwt>
<totfact> 0.16597414E+05</totfact>
</mgrwt>
</event>
<event>
 5   1  0.1343823E+00  0.8321600E+02  0.7818608E-02  0.1320165E+00
         -2   -1    0    0    0  501 -0.00000000000E+00  0.00000000000E+00  0.89323070914E+01  0.89323074698E+01  0.26000000000E-02 0.  1.
          2   -1    0    0  501    0  0.00000000000E+00 -0.00000000000E+00 -0.19381619098E+03  0.19381619100E+03  0.26000000000E-02 0. -1.
         23    2    1    2    0    0  0.00000000000E+00  0.00000000000E+00 -0.18488388389E+03  0.20274849847E+03  0.83216002722E+02 0.  0.
        -13    1    3    3    0    0  0.27398634583E+02 -0.51749853938E+01 -0.17198642157E+02  0.32760801506E+02  0.10570000000E+00 0.  1.
         13    1    3    3    0    0 -0.27398634583E+02  0.51749853938E+01 -0.16768524174E+03  0.16998769696E+03  0.10570000000E+00 0. -1.
<mgrwt>
<rscale>  0 0.83216003E+02</rscale>
<asrwt>0</asrwt>
<pdfrwt beam="2">  1        2 0.29817873E-01 0.83216003E+02</pdfrwt>
<pdfrwt beam="1">  1       -2 0.13742013E-02 0.83216003E+02</pdfrwt>
<totfact> 0.19533559E+05</totfact>
</mgrwt>
</event>
<event>
 5   1  0.1343823E+00  0.7614276E+02  0.7818608E-02  0.1340368E+00
          2   -1    0    0  501    0  0.00000000000E+00  0.00000000000E+00  0.29132781046E+02  0.29132781162E+02  0.26000000000E-02 0. -1.
         -2   -1    0    0    0  501 -0.00000000000E+00 -0.00000000000E+00 -0.49752549992E+02  0.49752550060E+02  0.26000000000E-02 0.  1.
         23    2    1    2    0    0  0.00000000000E+00  0.00000000000E+00 -0.20619768946E+02  0.78885331223E+02  0.76142764664E+02 0.  0.
        -13    1    3    3    0    0 -0.15267806181E+02  0.11464170200E+02  0.23814092442E+02  0.30523028606E+02  0.10570000000E+00 0. -1.
         13    1    3    3    0    0  0.15267806181E+02 -0.11464170200E+02 -0.44433861389E+02  0.48362302616E+02  0.10570000000E+00 0.  1.
<mgrwt>
<rscale>  0 0.76142765E+02</rscale>
<asrwt>0</asrwt>
<pdfrwt beam="1">  1        2 0.44819663E-02 0.76142765E+02</pdfrwt>
<pdfrwt beam="2">  1       -2 0.76542384E-02 0.76142765E+02</pdfrwt>
<totfact> 0.14829168E+05</totfact>
</mgrwt>
</event>
<event>
 5   1  0.1343823E+00  0.8629764E+02  0.7818608E-02  0.1312074E+00
         -2   -1    0    0    0  501 -0.00000000000E+00  0.00000000000E+00  0.10768130287E+02  0.10768130601E+02  0.26000000000E-02 0.  1.
          2   -1    0    0  501    0  0.00000000000E+00 -0.00000000000E+00 -0.17290101152E+03  0.17290101154E+03  0.26000000000E-02 0. -1.
         23    2    1    2    0    0  0.00000000000E+00  0.00000000000E+00 -0.16213288123E+03  0.18366914214E+03  0.86297639582E+02 0.  0.
        -13    1    3    3    0    0 -0.29141438920E+02  0.31092699028E+02 -0.95474735753E+02  0.10455341092E+03  0.10570000000E+00 0. -1.
         13    1    3    3    0    0  0.29141438920E+02 -0.31092699028E+02 -0.66658145477E+02  0.79115731218E+02  0.10570000000E+00 0.  1.
<mgrwt>
<rscale>  0 0.86297640E+02</rscale>
<asrwt>0</asrwt>
<pdfrwt beam="2">  1        2 0.26600154E-01 0.86297640E+02</pdfrwt>
<pdfrwt beam="1">  1       -2 0.16566356E-02 0.86297640E+02</pdfrwt>
<totfact> 0.17027714E+05</totfact>
</mgrwt>
</event>
<event>
 5   1  0.1343823E+00  0.9108110E+02  0.7818608E-02  0.1300255E+00
          2   -1    0    0  501    0  0.00000000000E+00  0.00000000000E+00  0.64084939009E+02  0.64084939062E+02  0.26000000000E-02 0. -1.
         -2   -1    0    0    0  501 -0.00000000000E+00 -0.00000000000E+00 -0.32362391494E+02  0.32362391598E+02  0.26000000000E-02 0.  1.
         23    2    1    2    0    0  0.00000000000E+00  0.00000000000E+00  0.31722547516E+02  0.96447330660E+02  0.91081104355E+02 0.  0.
        -13    1    3    3    0    0  0.50454740929E+01  0.21813731332E+02 -0.26131629176E+02  0.34411755249E+02  0.10570000000E+00 0. -1.
         13    1    3    3    0    0 -0.50454740929E+01 -0.21813731332E+02  0.57854176691E+02  0.62035575411E+02  0.10570000000E+00 0.  1.
<mgrwt>
<rscale>  0 0.91081104E+02</rscale>
<asrwt>0</asrwt>
<pdfrwt beam="1">  1        2 0.98592214E-02 0.91081104E+02</pdfrwt>
<pdfrwt beam="2">  1       -2 0.49788295E-02 0.91081104E+02</pdfrwt>
<totfact> 0.10829201E+05</totfact>
</mgrwt>
</event>
<event>
 5   1  0.1343823E+00  0.8530510E+02  0.7818608E-02  0.1314637E+00
          2   -1    0    0  501    0  0.00000000000E+00  0.00000000000E+00  0.13638285125E+02  0.13638285373E+02  0.26000000000E-02 0. -1.
         -2   -1    0    0    0  501 -0.00000000000E+00 -0.00000000000E+00 -0.13339213570E+03  0.13339213573E+03  0.26000000000E-02 0.  1.
         23    2    1    2    0    0  0.00000000000E+00  0.00000000000E+00 -0.11975385058E+03  0.14703042110E+03  0.85305099502E+02 0.  0.
        -13    1    3    3    0    0  0.24913485439E+02 -0.43096197240E+01 -0.11908330035E+03  0.12173782557E+03  0.10570000000E+00 0.  1.
         13    1    3    3    0    0 -0.24913485439E+02  0.43096197240E+01 -0.67055023047E+00  0.25292595537E+02  0.10570000000E+00 0. -1.
<mgrwt>
<rscale>  0 0.85305100E+02</rscale>
<asrwt>0</asrwt>
<pdfrwt beam="1">  1        2 0.20981978E-02 0.85305100E+02</pdfrwt>
<pdfrwt beam="2">  1       -2 0.20521866E-01 0.85305100E+02</pdfrwt>
<totfact> 0.86095520E+04</totfact>
</mgrwt>
</event>
<event>
 5   1  0.1343823E+00  0.9051613E+02  0.7818608E-02  0.1301607E+00
          2   -1    0    0  501    0  0.00000000000E+00  0.00000000000E+00  0.29524028485E+03  0.29524028486E+03  0.26000000000E-02 0.  1.
         -2   -1    0    0    0  501 -0.00000000000E+00 -0.00000000000E+00 -0.69377132923E+01  0.69377137795E+01  0.26000000000E-02 0. -1.
         23    2    1    2    0    0  0.00000000000E+00  0.00000000000E+00  0.28830257155E+03  0.30217799864E+03  0.90516131688E+02 0.  0.
        -13    1    3    3    0    0 -0.44457389664E+02 -0.80986033525E+01  0.13581568408E+03  0.14313615227E+03  0.10570000000E+00 0.  1.
         13    1    3    3    0    0  0.44457389664E+02  0.80986033525E+01  0.15248688748E+03  0.15904184637E+03  0.10570000000E+00 0. -1.
<mgrwt>
<rscale>  0 0.90516132E+02</rscale>
<asrwt>0</asrwt>
<pdfrwt beam="1">  1        2 0.45421585E-01 0.90516132E+02</pdfrwt>
<pdfrwt beam="2">  1       -2 0.10673405E-02 0.90516132E+02</pdfrwt>
<totfact> 0.18209075E+05</totfact>
</mgrwt>
</event>
<event>
 5   1  0.1343823E+00  0.9100209E+02  0.7818608E-02  0.1300443E+00
         -2   -1    0    0    0  501 -0.00000000000E+00  0.00000000000E+00  0.85473377778E+01  0.85473381732E+01  0.26000000000E-02 0. -1.
          2   -1    0    0  501    0  0.00000000000E+00 -0.00000000000E+00 -0.24222106314E+03  0.24222106315E+03  0.26000000000E-02 0.  1.
         23    2    1    2    0    0  0.00000000000E+00  0.00000000000E+00 -0.23367372536E+03  0.25076840133E+03  0.91002094369E+02 0.  0.
        -13    1    3    3    0    0  0.16854895843E+02 -0.36854992751E+02 -0.59830800346E+02  0.72264194779E+02  0.10570000000E+00 0. -1.
         13    1    3    3    0    0 -0.16854895843E+02  0.36854992751E+02 -0.17384292502E+03  0.17850420655E+03  0.10570000000E+00 0.  1.
<mgrwt>
<rscale>  0 0.91002094E+02</rscale>
<asrwt>0</asrwt>
<pdfrwt beam="2">  1        2 0.37264774E-01 0.91002094E+02</pdfrwt>
<pdfrwt beam="1">  1       -2 0.13149753E-02 0.91002094E+02</pdfrwt>
<totfact> 0.16676567E+05</totfact>
</mgrwt>
</event>
<event>
 5   1  0.1343823E+00  0.8787563E+02  0.7818608E-02  0.1308079E+00
         -2   -1    0    0    0  501 -0.00000000000E+00  0.00000000000E+00  0.28783700831E+03  0.28783700832E+03  0.26000000000E-02 0.  1.
          2   -1    0    0  501    0  0.00000000000E+00 -0.00000000000E+00 -0.67070307272E+01  0.67070312311E+01  0.26000000000E-02 0. -1.
         23    2    1    2    0    0  0.00000000000E+00  0.00000000000E+00  0.28112997758E+03  0.29454403955E+03  0.87875633372E+02 0.  0.
        -13    1    3    3    0    0  0.20576269484E+02 -0.37283244673E+02  0.10429433961E+03  0.11265320079E+03  0.10570000000E+00 0.  1.
         13    1    3    3    0    0 -0.20576269484E+02  0.37283244673E+02  0.17683563797E+03  0.18189083877E+03  0.10570000000E+00 0. -1.
<mgrwt>
<rscale>  0 0.87875633E+02</rscale>
<asrwt>0</asrwt>
<pdfrwt beam="2">  1        2 0.10318508E-02 0.87875633E+02</pdfrwt>
<pdfrwt beam="1">  1       -2 0.44282623E-01 0.87875633E+02</pdfrwt>
<totfact> 0.57372914E+04</totfact>
</mgrwt>
</event>
<event>
 5   1  0.1343823E+00  0.9134385E+02  0.7818608E-02  0.1299630E+00
         -2   -1    0    0    0  501 -0.00000000000E+00  0.00000000000E+00  0.64314057550E+01  0.64314062805E+01  0.26000000000E-02 0.  1.
          2   -1    0    0  501    0  0.00000000000E+00 -0.00000000000E+00 -0.32433420434E+03  0.32433420435E+03  0.26000000000E-02 0. -1.
         23    2    1    2    0    0  0.00000000000E+00  0.00000000000E+00 -0.31790279858E+03  0.33076561063E+03  0.91343854899E+02 0.  0.
        -13    1    3    3    0    0  0.99423076832E+01 -0.42150491270E+02 -0.10642661439E+03  0.11490060408E+03  0.10570000000E+00 0.  1.
         13    1    3    3    0    0 -0.99423076832E+01  0.42150491270E+02 -0.21147618419E+03  0.21586500654E+03  0.10570000000E+00 0. -1.
<mgrwt>
<rscale>  0 0.91343855E+02</rscale>
<asrwt>0</asrwt>
<pdfrwt beam="2">  1        2 0.49897557E-01 0.91343855E+02</pdfrwt>
<pdfrwt beam="1">  1       -2 0.98944733E-03 0.91343855E+02</pdfrwt>
<totfact> 0.18403871E+05</totfact>
</mgrwt>
</event>
<event>
 5   1  0.1343823E+00  0.9255077E+02  0.7818608E-02  0.1296790E+00
          2   -1    0    0  501    0  0.00000000000E+00  0.00000000000E+00  0.14875519441E+03  0.14875519443E+03  0.26000000000E-02 0.  1.
         -2   -1    0    0    0  501 -0.00000000000E+00 -0.00000000000E+00 -0.14395538665E+02  0.14395538899E+02  0.26000000000E-02 0. -1.
         23    2    1    2    0    0  0.00000000000E+00  0.00000000000E+00  0.13435965574E+03  0.16315073333E+03  0.92550768202E+02 0.  0.
        -13    1    3    3    0    0 -0.13449469281E+02  0.18485843442E+02  0.13810552899E+03  0.13998486683E+03  0.10570000000E+00 0.  1.
         13    1    3    3    0    0  0.13449469281E+02 -0.18485843442E+02 -0.37458732479E+01  0.23165866498E+02  0.10570000000E+00 0. -1.
<mgrwt>
<rscale>  0 0.92550768E+02</rscale>
<asrwt>0</asrwt>
<pdfrwt beam="1">  1        2 0.22885415E-01 0.92550768E+02</pdfrwt>
<pdfrwt beam="2">  1       -2 0.22146982E-02 0.92550768E+02</pdfrwt>
<totfact> 0.13385700E+05</totfact>
</mgrwt>
</event>
<event>
 5   1  0.1343823E+00  0.8825895E+02  0.7818608E-02  0.1307124E+00
          2   -1    0    0  501    0  0.00000000000E+00  0.00000000000E+00  0.38781880389E+03  0.38781880390E+03  0.26000000000E-02 0. -1.
         -2   -1    0    0    0  501 -0.00000000000E+00 -0.00000000000E+00 -0.50214444458E+01  0.50214451189E+01  0.26000000000E-02 0.  1.
         23    2    1    2    0    0  0.00000000000E+00  0.00000000000E+00  0.38279735945E+03  0.39284024902E+03  0.88258953375E+02 0.  0.
        -13    1    3    3    0    0 -0.43208632870E+02 -0.62518884873E+01  0.22001255278E+03  0.22430248910E+03  0.10570000000E+00 0.  1.
         13    1    3    3    0    0  0.43208632870E+02  0.62518884873E+01  0.16278480667E+03  0.16853775992E+03  0.10570000000E+00 0. -1.
<mgrwt>
<rscale>  0 0.88258953E+02</rscale>
<asrwt>0</asrwt>
<pdfrwt beam="1">  1        2 0.59664435E-01 0.88258953E+02</pdfrwt>
<pdfrwt beam="2">  1       -2 0.77252992E-03 0.88258953E+02</pdfrwt>
<totfact> 0.21519389E+05</totfact>
</mgrwt>
</event>
<event>
 5   1  0.1343823E+00  0.9201208E+02  0.7818608E-02  0.1298051E+00
         -2   -1    0    0    0  501 -0.00000000000E+00  0.00000000000E+00  0.40656187251E+02  0.40656187334E+02  0.26000000000E-02 0.  1.
          2   -1    0    0  501    0  0.00000000000E+00 -0.00000000000E+00 -0.52059868734E+02  0.52059868799E+02  0.26000000000E-02 0. -1.
         23    2    1    2    0    0  0.00000000000E+00  0.00000000000E+00 -0.11403681484E+02  0.92716056133E+02  0.92012081345E+02 0.  0.
        -13    1    3    3    0    0 -0.64817377348E+01 -0.16059380123E+02  0.37246174241E+02  0.41075604464E+02  0.10570000000E+00 0.  1.
         13    1    3    3    0    0  0.64817377348E+01  0.16059380123E+02 -0.48649855725E+02  0.51640451669E+02  0.10570000000E+00 0. -1.
<mgrwt>
<rscale>  0 0.92012081E+02</rscale>
<asrwt>0</asrwt>
<pdfrwt beam="2">  1        2 0.80092107E-02 0.92012081E+02</pdfrwt>
<pdfrwt beam="1">  1       -2 0.62547980E-02 0.92012081E+02</pdfrwt>
<totfact> 0.99531301E+04</totfact>
</mgrwt>
</event>
<event>
 5   1  0.1343823E+00  0.9211152E+02  0.7818608E-02  0.1297817E+00
          2   -1    0    0  501    0  0.00000000000E+00  0.00000000000E+00  0.86814187085E+02  0.86814187124E+02  0.26000000000E-02 0. -1.
         -2   -1    0    0    0  501 -0.00000000000E+00 -0.00000000000E+00 -0.24433020884E+02  0.24433021022E+02  0.26000000000E-02 0.  1.
         23    2    1    2    0    0  0.00000000000E+00  0.00000000000E+00  0.62381166202E+02  0.11124720815E+03  0.92111516238E+02 0.  0.
        -13    1    3    3    0    0 -0.22160228298E+02 -0.38580967469E+02  0.16821215169E+02  0.47566072167E+02  0.10570000000E+00 0.  1.
         13    1    3    3    0    0  0.22160228298E+02  0.38580967469E+02  0.45559951033E+02  0.63681135980E+02  0.10570000000E+00 0. -1.
<mgrwt>
<rscale>  0 0.92111516E+02</rscale>
<asrwt>0</asrwt>
<pdfrwt beam="1">  1        2 0.13356029E-01 0.92111516E+02</pdfrwt>
<pdfrwt beam="2">  1       -2 0.37589263E-02 0.92111516E+02</pdfrwt>
<totfact> 0.11432405E+05</totfact>
</mgrwt>
</event>
<event>
 5   1  0.1343823E+00  0.8610220E+02  0.7818608E-02  0.1312575E+00
          2   -1    0    0  501    0  0.00000000000E+00  0.00000000000E+00  0.85628644167E+02  0.85628644207E+02  0.26000000000E-02 0. -1.
         -2   -1    0    0    0  501 -0.00000000000E+00 -0.00000000000E+00 -0.21644595268E+02  0.21644595425E+02  0.26000000000E-02 0.  1.
         23    2    1    2    0    0  0.00000000000E+00  0.00000000000E+00  0.63984048899E+02  0.10727323963E+03  0.86102203384E+02 0.  0.
        -13    1    3    3    0    0 -0.24191949498E+02 -0.97700973593E+01  0.74656564526E+02  0.79084252682E+02  0.10570000000E+00 0. -1.
         13    1    3    3    0    0  0.24191949498E+02  0.97700973593E+01 -0.10672515627E+02  0.28188986950E+02  0.10570000000E+00 0.  1.
<mgrwt>
<rscale>  0 0.86102203E+02</rscale>
<asrwt>0</asrwt>
<pdfrwt beam="1">  1        2 0.13173637E-01 0.86102203E+02</pdfrwt>
<pdfrwt beam="2">  1       -2 0.33299378E-02 0.86102203E+02</pdfrwt>
<totfact> 0.13716187E+05</totfact>
</mgrwt>
</event>
<event>
 5   1  0.1343823E+00  0.9164811E+02  0.7818608E-02  0.1298909E+00
         -2   -1    0    0    0  501 -0.00000000000E+00  0.00000000000E+00  0.11397771072E+02  0.11397771369E+02  0.26000000000E-02 0.  1.
          2   -1    0    0  501    0  0.00000000000E+00 -0.00000000000E+00 -0.18423285597E+03  0.18423285599E+03  0.26000000000E-02 0. -1.
         23    2    1    2    0    0  0.00000000000E+00  0.00000000000E+00 -0.17283508490E+03  0.19563062736E+03  0.91648108483E+02 0.  0.
        -13    1    3    3    0    0 -0.42831046742E+02 -0.79571765215E+01 -0.11675700569E+03  0.12461952003E+03  0.10570000000E+00 0. -1.
         13    1    3    3    0    0  0.42831046742E+02  0.79571765215E+01 -0.56078079209E+02  0.71011107324E+02  0.10570000000E+00 0.  1.
<mgrwt>
<rscale>  0 0.91648108E+02</rscale>
<asrwt>0</asrwt>
<pdfrwt beam="2">  1        2 0.28343514E-01 0.91648108E+02</pdfrwt>
<pdfrwt beam="1">  1       -2 0.17535034E-02 0.91648108E+02</pdfrwt>
<totfact> 0.14810682E+05</totfact>
</mgrwt>
</event>
<event>
 5   1  0.1343823E+00  0.8978144E+02  0.7818608E-02  0.1303382E+00
         -2   -1    0    0    0  501 -0.00000000000E+00  0.00000000000E+00  0.80596783342E+01  0.80596787536E+01  0.26000000000E-02 0.  1.
          2   -1    0    0  501    0  0.00000000000E+00 -0.00000000000E+00 -0.25003190492E+03  0.25003190494E+03  0.26000000000E-02 0. -1.
         23    2    1    2    0    0  0.00000000000E+00  0.00000000000E+00 -0.24197222659E+03  0.25809158369E+03  0.89781440907E+02 0.  0.
        -13    1    3    3    0    0 -0.24198694315E+02  0.35632953169E+02 -0.84637628347E+02  0.94967486346E+02  0.10570000000E+00 0.  1.
         13    1    3    3    0    0  0.24198694315E+02 -0.35632953169E+02 -0.15733459824E+03  0.16312409735E+03  0.10570000000E+00 0. -1.
<mgrwt>
<rscale>  0 0.89781441E+02</rscale>
<asrwt>0</asrwt>
<pdfrwt beam="2">  1        2 0.38466441E-01 0.89781441E+02</pdfrwt>
<pdfrwt beam="1">  1       -2 0.12399507E-02 0.89781441E+02</pdfrwt>
<totfact> 0.17493641E+05</totfact>
</mgrwt>
</event>
<event>
 5   1  0.1343823E+00  0.9057947E+02  0.7818608E-02  0.1301454E+00
          2   -1    0    0  501    0  0.00000000000E+00  0.00000000000E+00  0.58045753474E+02  0.58045753533E+02  0.26000000000E-02 0. -1.
         -2   -1    0    0    0  501 -0.00000000000E+00 -0.00000000000E+00 -0.35336953610E+02  0.35336953706E+02  0.26000000000E-02 0.  1.
         23    2    1    2    0    0  0.00000000000E+00  0.00000000000E+00  0.22708799864E+02  0.93382707238E+02  0.90579470190E+02 0.  0.
        -13    1    3    3    0    0  0.14283638174E+01  0.28531384529E+02  0.47585561749E+02  0.55502044880E+02  0.10570000000E+00 0. -1.
         13    1    3    3    0    0 -0.14283638174E+01 -0.28531384529E+02 -0.24876761885E+02  0.37880662359E+02  0.10570000000E+00 0.  1.
<mgrwt>
<rscale>  0 0.90579470E+02</rscale>
<asrwt>0</asrwt>
<pdfrwt beam="1">  1        2 0.89301159E-02 0.90579470E+02</pdfrwt>
<pdfrwt beam="2">  1       -2 0.54364544E-02 0.90579470E+02</pdfrwt>
<totfact> 0.10710287E+05</totfact>
</mgrwt>
</event>
<event>
 5   1  0.1343823E+00  0.9056867E+02  0.7818608E-02  0.1301480E+00
          2   -1    0    0  501    0  0.00000000000E+00  0.00000000000E+00  0.44187573517E+02  0.44187573593E+02  0.26000000000E-02 0. -1.
         -2   -1    0    0    0  501 -0.00000000000E+00 -0.00000000000E+00 -0.46408318792E+02  0.46408318865E+02  0.26000000000E-02 0.  1.
         23    2    1    2    0    0  0.00000000000E+00  0.00000000000E+00 -0.22207452753E+01  0.90595892458E+02  0.90568670194E+02 0.  0.
        -13    1    3    3    0    0  0.93132761544E+01  0.34385833590E+02  0.26854016375E+02  0.44612464988E+02  0.10570000000E+00 0. -1.
         13    1    3    3    0    0 -0.93132761544E+01 -0.34385833590E+02 -0.29074761650E+02  0.45983427470E+02  0.10570000000E+00 0.  1.
<mgrwt>
<rscale>  0 0.90568670E+02</rscale>
<asrwt>0</asrwt>
<pdfrwt beam="1">  1        2 0.67980883E-02 0.90568670E+02</pdfrwt>
<pdfrwt beam="2">  1       -2 0.71397414E-02 0.90568670E+02</pdfrwt>
<totfact> 0.99778928E+04</totfact>
</mgrwt>
</event>
<event>
 5   1  0.1343823E+00  0.8843339E+02  0.7818608E-02  0.1306690E+00
         -2   -1    0    0    0  501 -0.00000000000E+00  0.00000000000E+00  0.42163598609E+02  0.42163598690E+02  0.26000000000E-02 0.  1.
          2   -1    0    0  501    0  0.00000000000E+00 -0.00000000000E+00 -0.46369762448E+02  0.46369762521E+02  0.26000000000E-02 0. -1.
         23    2    1    2    0    0  0.00000000000E+00  0.00000000000E+00 -0.42061638385E+01  0.88533361210E+02  0.88433388677E+02 0.  0.
        -13    1    3    3    0    0  0.32863022113E+01 -0.13782981644E+02  0.39829044867E+02  0.42274511857E+02  0.10570000000E+00 0.  1.
         13    1    3    3    0    0 -0.32863022113E+01  0.13782981644E+02 -0.44035208706E+02  0.46258849353E+02  0.10570000000E+00 0. -1.
<mgrwt>
<rscale>  0 0.88433389E+02</rscale>
<asrwt>0</asrwt>
<pdfrwt beam="2">  1        2 0.71338096E-02 0.88433389E+02</pdfrwt>
<pdfrwt beam="1">  1       -2 0.64867075E-02 0.88433389E+02</pdfrwt>
<totfact> 0.10814508E+05</totfact>
</mgrwt>
</event>
<event>
 5   1  0.1343823E+00  0.9118246E+02  0.7818608E-02  0.1300013E+00
         -2   -1    0    0    0  501 -0.00000000000E+00  0.00000000000E+00  0.45015018928E+02  0.45015019003E+02  0.26000000000E-02 0.  1.
          2   -1    0    0  501    0  0.00000000000E+00 -0.00000000000E+00 -0.46174814825E+02  0.46174814899E+02  0.26000000000E-02 0. -1.
         23    2    1    2    0    0  0.00000000000E+00  0.00000000000E+00 -0.11597958971E+01  0.91189833902E+02  0.91182458184E+02 0.  0.
        -13    1    3    3    0    0  0.21093366857E+02 -0.37245058970E+02  0.15119284278E+02  0.45395247247E+02  0.10570000000E+00 0.  1.
         13    1    3    3    0    0 -0.21093366857E+02  0.37245058970E+02 -0.16279080176E+02  0.45794586655E+02  0.10570000000E+00 0. -1.
<mgrwt>
<rscale>  0 0.91182458E+02</rscale>
<asrwt>0</asrwt>
<pdfrwt beam="2">  1        2 0.71038176E-02 0.91182458E+02</pdfrwt>
<pdfrwt beam="1">  1       -2 0.69253876E-02 0.91182458E+02</pdfrwt>
<totfact> 0.98985118E+04</totfact>
</mgrwt>
</event>
<event>
 5   1  0.1343823E+00  0.8857129E+02  0.7818608E-02  0.1306349E+00
         -2   -1    0    0    0  501 -0.00000000000E+00  0.00000000000E+00  0.28762685264E+02  0.28762685381E+02  0.26000000000E-02 0.  1.
          2   -1    0    0  501    0  0.00000000000E+00 -0.00000000000E+00 -0.68186197992E+02  0.68186198042E+02  0.26000000000E-02 0. -1.
         23    2    1    2    0    0  0.00000000000E+00  0.00000000000E+00 -0.39423512728E+02  0.96948883423E+02  0.88571285647E+02 0.  0.
        -13    1    3    3    0    0 -0.41779038553E+02  0.25357476665E+01 -0.35546935113E+02  0.54913694531E+02  0.10570000000E+00 0. -1.
         13    1    3    3    0    0  0.41779038553E+02 -0.25357476665E+01 -0.38765776154E+01  0.42035188892E+02  0.10570000000E+00 0.  1.
<mgrwt>
<rscale>  0 0.88571286E+02</rscale>
<asrwt>0</asrwt>
<pdfrwt beam="2">  1        2 0.10490184E-01 0.88571286E+02</pdfrwt>
<pdfrwt beam="1">  1       -2 0.44250285E-02 0.88571286E+02</pdfrwt>
<totfact> 0.11908056E+05</totfact>
</mgrwt>
</event>
<event>
 5   1  0.1343823E+00  0.9491307E+02  0.7818608E-02  0.1291372E+00
          2   -1    0    0  501    0  0.00000000000E+00  0.00000000000E+00  0.11994524783E+03  0.11994524786E+03  0.26000000000E-02 0.  1.
         -2   -1    0    0    0  501 -0.00000000000E+00 -0.00000000000E+00 -0.18776257167E+02  0.18776257347E+02  0.26000000000E-02 0. -1.
         23    2    1    2    0    0  0.00000000000E+00  0.00000000000E+00  0.10116899066E+03  0.13872150520E+03  0.94913072517E+02 0.  0.
        -13    1    3    3    0    0  0.11576012960E+02 -0.37117613066E+02  0.10815177170E+02  0.40357161762E+02  0.10570000000E+00 0. -1.
         13    1    3    3    0    0 -0.11576012960E+02  0.37117613066E+02  0.90353813493E+02  0.98364343443E+02  0.10570000000E+00 0.  1.
<mgrwt>
<rscale>  0 0.94913073E+02</rscale>
<asrwt>0</asrwt>
<pdfrwt beam="1">  1        2 0.18453115E-01 0.94913073E+02</pdfrwt>
<pdfrwt beam="2">  1       -2 0.28886549E-02 0.94913073E+02</pdfrwt>
<totfact> 0.11629719E+05</totfact>
</mgrwt>
</event>
<event>
 5   1  0.1343823E+00  0.9583639E+02  0.7818608E-02  0.1289303E+00
          2   -1    0    0  501    0  0.00000000000E+00  0.00000000000E+00  0.38271010404E+03  0.38271010405E+03  0.26000000000E-02 0. -1.
         -2   -1    0    0    0  501 -0.00000000000E+00 -0.00000000000E+00 -0.59997199402E+01  0.59997205036E+01  0.26000000000E-02 0.  1.
         23    2    1    2    0    0  0.00000000000E+00  0.00000000000E+00  0.37671038410E+03  0.38870982455E+03  0.95836392957E+02 0.  0.
        -13    1    3    3    0    0  0.14185843322E+02 -0.45372606417E+02  0.16394146277E+03  0.17069483282E+03  0.10570000000E+00 0.  1.
         13    1    3    3    0    0 -0.14185843322E+02  0.45372606417E+02  0.21276892132E+03  0.21801499173E+03  0.10570000000E+00 0. -1.
<mgrwt>
<rscale>  0 0.95836393E+02</rscale>
<asrwt>0</asrwt>
<pdfrwt beam="1">  1        2 0.58878465E-01 0.95836393E+02</pdfrwt>
<pdfrwt beam="2">  1       -2 0.92303409E-03 0.95836393E+02</pdfrwt>
<totfact> 0.17203908E+05</totfact>
</mgrwt>
</event>
<event>
 5   1  0.1343823E+00  0.8677373E+02  0.7818608E-02  0.1310858E+00
          2   -1    0    0  501    0  0.00000000000E+00  0.00000000000E+00  0.24557925001E+02  0.24557925139E+02  0.26000000000E-02 0. -1.
         -2   -1    0    0    0  501 -0.00000000000E+00 -0.00000000000E+00 -0.76652246047E+02  0.76652246091E+02  0.26000000000E-02 0.  1.
         23    2    1    2    0    0  0.00000000000E+00  0.00000000000E+00 -0.52094321046E+02  0.10121017123E+03  0.86773731482E+02 0.  0.
        -13    1    3    3    0    0 -0.25806730646E+02 -0.14383037752E+02 -0.63106678383E+02  0.69680148899E+02  0.10570000000E+00 0.  1.
         13    1    3    3    0    0  0.25806730646E+02  0.14383037752E+02  0.11012357337E+02  0.31530022331E+02  0.10570000000E+00 0. -1.
<mgrwt>
<rscale>  0 0.86773731E+02</rscale>
<asrwt>0</asrwt>
<pdfrwt beam="1">  1        2 0.37781424E-02 0.86773731E+02</pdfrwt>
<pdfrwt beam="2">  1       -2 0.11792653E-01 0.86773731E+02</pdfrwt>
<totfact> 0.97184703E+04</totfact>
</mgrwt>
</event>
<event>
 5   1  0.1343823E+00  0.9056439E+02  0.7818608E-02  0.1301491E+00
         -2   -1    0    0    0  501 -0.00000000000E+00  0.00000000000E+00  0.79739405283E+01  0.79739409522E+01  0.26000000000E-02 0.  1.
          2   -1    0    0  501    0  0.00000000000E+00 -0.00000000000E+00 -0.25714727907E+03  0.25714727909E+03  0.26000000000E-02 0. -1.
         23    2    1    2    0    0  0.00000000000E+00  0.00000000000E+00 -0.24917333854E+03  0.26512122004E+03  0.90564389652E+02 0.  0.
        -13    1    3    3    0    0 -0.87600752430E+01  0.42068230978E+02 -0.16639786133E+03  0.17185672638E+03  0.10570000000E+00 0. -1.
         13    1    3    3    0    0  0.87600752430E+01 -0.42068230978E+02 -0.82775477216E+02  0.93264493655E+02  0.10570000000E+00 0.  1.
<mgrwt>
<rscale>  0 0.90564390E+02</rscale>
<asrwt>0</asrwt>
<pdfrwt beam="2">  1        2 0.39561114E-01 0.90564390E+02</pdfrwt>
<pdfrwt beam="1">  1       -2 0.12267603E-02 0.90564390E+02</pdfrwt>
<totfact> 0.17270816E+05</totfact>
</mgrwt>
</event>
<event>
 5   1  0.1343823E+00  0.9073244E+02  0.7818608E-02  0.1301088E+00
          2   -1    0    0  501    0  0.00000000000E+00  0.00000000000E+00  0.15793024952E+03  0.15793024954E+03  0.26000000000E-02 0. -1.
         -2   -1    0    0    0  501 -0.00000000000E+00 -0.00000000000E+00 -0.13031664520E+02  0.13031664780E+02  0.26000000000E-02 0.  1.
         23    2    1    2    0    0  0.00000000000E+00  0.00000000000E+00  0.14489858500E+03  0.17096191432E+03  0.90732443004E+02 0.  0.
        -13    1    3    3    0    0 -0.29295315092E+01 -0.41861277672E+02  0.10492907090E+03  0.11300915811E+03  0.10570000000E+00 0. -1.
         13    1    3    3    0    0  0.29295315092E+01  0.41861277672E+02  0.39969514097E+02  0.57952756214E+02  0.10570000000E+00 0.  1.
<mgrwt>
<rscale>  0 0.90732443E+02</rscale>
<asrwt>0</asrwt>
<pdfrwt beam="1">  1        2 0.24296960E-01 0.90732443E+02</pdfrwt>
<pdfrwt beam="2">  1       -2 0.20048716E-02 0.90732443E+02</pdfrwt>
<totfact> 0.14419178E+05</totfact>
</mgrwt>
</event>
<event>
 5   1  0.1343823E+00  0.1114665E+03  0.7818608E-02  0.1257878E+00
         -2   -1    0    0    0  501 -0.00000000000E+00  0.00000000000E+00  0.26287748782E+02  0.26287748911E+02  0.26000000000E-02 0.  1.
          2   -1    0    0  501    0  0.00000000000E+00 -0.00000000000E+00 -0.11816128916E+03  0.11816128919E+03  0.26000000000E-02 0. -1.
         23    2    1    2    0    0  0.00000000000E+00  0.00000000000E+00 -0.91873540381E+02  0.14444903810E+03  0.11146648459E+03 0.  0.
        -13    1    3    3    0    0 -0.40668806443E+02 -0.51903909271E+01  0.29872507736E+01  0.41107503149E+02  0.10570000000E+00 0.  1.
         13    1    3    3    0    0  0.40668806443E+02  0.51903909271E+01 -0.94860791154E+02  0.10334153495E+03  0.10570000000E+00 0. -1.
<mgrwt>
<rscale>  0 0.11146648E+03</rscale>
<asrwt>0</asrwt>
<pdfrwt beam="2">  1        2 0.18178660E-01 0.11146648E+03</pdfrwt>
<pdfrwt beam="1">  1       -2 0.40442691E-02 0.11146648E+03</pdfrwt>
<totfact> 0.73966456E+04</totfact>
</mgrwt>
</event>
<event>
 5   1  0.1343823E+00  0.9096963E+02  0.7818608E-02  0.1300520E+00
         -2   -1    0    0    0  501 -0.00000000000E+00  0.00000000000E+00  0.13192885507E+02  0.13192885763E+02  0.26000000000E-02 0.  1.
          2   -1    0    0  501    0  0.00000000000E+00 -0.00000000000E+00 -0.15681696293E+03  0.15681696295E+03  0.26000000000E-02 0. -1.
         23    2    1    2    0    0  0.00000000000E+00  0.00000000000E+00 -0.14362407742E+03  0.17000984871E+03  0.90969627043E+02 0.  0.
        -13    1    3    3    0    0 -0.26297644808E+02 -0.29614542729E+02 -0.11361237934E+03  0.12031779243E+03  0.10570000000E+00 0. -1.
         13    1    3    3    0    0  0.26297644808E+02  0.29614542729E+02 -0.30011698085E+02  0.49692056286E+02  0.10570000000E+00 0.  1.
<mgrwt>
<rscale>  0 0.90969627E+02</rscale>
<asrwt>0</asrwt>
<pdfrwt beam="2">  1        2 0.24125685E-01 0.90969627E+02</pdfrwt>
<pdfrwt beam="1">  1       -2 0.20296748E-02 0.90969627E+02</pdfrwt>
<totfact> 0.14282885E+05</totfact>
</mgrwt>
</event>
<event>
 5   1  0.1343823E+00  0.9123127E+02  0.7818608E-02  0.1299897E+00
         -2   -1    0    0    0  501 -0.00000000000E+00  0.00000000000E+00  0.49414196565E+02  0.49414196634E+02  0.26000000000E-02 0.  1.
          2   -1    0    0  501    0  0.00000000000E+00 -0.00000000000E+00 -0.42109078631E+02  0.42109078711E+02  0.26000000000E-02 0. -1.
         23    2    1    2    0    0  0.00000000000E+00  0.00000000000E+00  0.73051179344E+01  0.91523275345E+02  0.91231273047E+02 0.  0.
        -13    1    3    3    0    0  0.25114507695E+02  0.24733193195E+02  0.32698740627E+02  0.48080018235E+02  0.10570000000E+00 0.  1.
         13    1    3    3    0    0 -0.25114507695E+02 -0.24733193195E+02 -0.25393622693E+02  0.43443257110E+02  0.10570000000E+00 0. -1.
<mgrwt>
<rscale>  0 0.91231273E+02</rscale>
<asrwt>0</asrwt>
<pdfrwt beam="2">  1        2 0.64783198E-02 0.91231273E+02</pdfrwt>
<pdfrwt beam="1">  1       -2 0.76021841E-02 0.91231273E+02</pdfrwt>
<totfact> 0.96498882E+04</totfact>
</mgrwt>
</event>
<event>
 5   1  0.1343823E+00  0.9527863E+02  0.7818608E-02  0.1290550E+00
         -2   -1    0    0    0  501 -0.00000000000E+00  0.00000000000E+00  0.25978012036E+02  0.25978012166E+02  0.26000000000E-02 0.  1.
          2   -1    0    0  501    0  0.00000000000E+00 -0.00000000000E+00 -0.87362511436E+02  0.87362511475E+02  0.26000000000E-02 0. -1.
         23    2    1    2    0    0  0.00000000000E+00  0.00000000000E+00 -0.61384499400E+02  0.11334052364E+03  0.95278631038E+02 0.  0.
        -13    1    3    3    0    0 -0.16606897937E+02  0.44200641635E+02 -0.38216444599E+02  0.60745317435E+02  0.10570000000E+00 0.  1.
         13    1    3    3    0    0  0.16606897937E+02 -0.44200641635E+02 -0.23168054801E+02  0.52595206205E+02  0.10570000000E+00 0. -1.
<mgrwt>
<rscale>  0 0.95278631E+02</rscale>
<asrwt>0</asrwt>
<pdfrwt beam="2">  1        2 0.13440386E-01 0.95278631E+02</pdfrwt>
<pdfrwt beam="1">  1       -2 0.39966173E-02 0.95278631E+02</pdfrwt>
<totfact> 0.10425427E+05</totfact>
</mgrwt>
</event>
<event>
 5   1  0.1343823E+00  0.9139449E+02  0.7818608E-02  0.1299509E+00
          2   -1    0    0  501    0  0.00000000000E+00  0.00000000000E+00  0.74517024807E+01  0.74517029343E+01  0.26000000000E-02 0.  1.
         -2   -1    0    0    0  501 -0.00000000000E+00 -0.00000000000E+00 -0.28023639421E+03  0.28023639422E+03  0.26000000000E-02 0. -1.
         23    2    1    2    0    0  0.00000000000E+00  0.00000000000E+00 -0.27278469173E+03  0.28768809715E+03  0.91394492195E+02 0.  0.
        -13    1    3    3    0    0 -0.71688120835E+01 -0.40049137639E+02 -0.70899089637E+02  0.81743607556E+02  0.10570000000E+00 0.  1.
         13    1    3    3    0    0  0.71688120835E+01  0.40049137639E+02 -0.20188560209E+03  0.20594448960E+03  0.10570000000E+00 0. -1.
<mgrwt>
<rscale>  0 0.91394492E+02</rscale>
<asrwt>0</asrwt>
<pdfrwt beam="1">  1        2 0.11464160E-02 0.91394492E+02</pdfrwt>
<pdfrwt beam="2">  1       -2 0.43113283E-01 0.91394492E+02</pdfrwt>
<totfact> 0.52625207E+04</totfact>
</mgrwt>
</event>
<event>
 5   1  0.1343823E+00  0.9279160E+02  0.7818608E-02  0.1296229E+00
         -2   -1    0    0    0  501 -0.00000000000E+00  0.00000000000E+00  0.12519682138E+02  0.12519682408E+02  0.26000000000E-02 0. -1.
          2   -1    0    0  501    0  0.00000000000E+00 -0.00000000000E+00 -0.17193491181E+03  0.17193491183E+03  0.26000000000E-02 0.  1.
         23    2    1    2    0    0  0.00000000000E+00  0.00000000000E+00 -0.15941522968E+03  0.18445459424E+03  0.92791604600E+02 0.  0.
        -13    1    3    3    0    0  0.10141932941E+02 -0.35394174596E+02 -0.23590269356E+02  0.43727775840E+02  0.10570000000E+00 0. -1.
         13    1    3    3    0    0 -0.10141932941E+02  0.35394174596E+02 -0.13582496032E+03  0.14072681840E+03  0.10570000000E+00 0.  1.
<mgrwt>
<rscale>  0 0.92791605E+02</rscale>
<asrwt>0</asrwt>
<pdfrwt beam="2">  1        2 0.26451523E-01 0.92791605E+02</pdfrwt>
<pdfrwt beam="1">  1       -2 0.19261051E-02 0.92791605E+02</pdfrwt>
<totfact> 0.13975317E+05</totfact>
</mgrwt>
</event>
<event>
 5   1  0.1343823E+00  0.9756729E+02  0.7818608E-02  0.1285496E+00
         -2   -1    0    0    0  501 -0.00000000000E+00  0.00000000000E+00  0.23992619736E+02  0.23992619877E+02  0.26000000000E-02 0.  1.
          2   -1    0    0  501    0  0.00000000000E+00 -0.00000000000E+00 -0.99190669564E+02  0.99190669598E+02  0.26000000000E-02 0. -1.
         23    2    1    2    0    0  0.00000000000E+00  0.00000000000E+00 -0.75198049828E+02  0.12318328947E+03  0.97567290153E+02 0.  0.
        -13    1    3    3    0    0  0.23538249891E+02 -0.28853189985E+02 -0.77389833097E+02  0.85882205488E+02  0.10570000000E+00 0. -1.
         13    1    3    3    0    0 -0.23538249891E+02  0.28853189985E+02  0.21917832685E+01  0.37301083987E+02  0.10570000000E+00 0.  1.
<mgrwt>
<rscale>  0 0.97567290E+02</rscale>
<asrwt>0</asrwt>
<pdfrwt beam="2">  1        2 0.15260103E-01 0.97567290E+02</pdfrwt>
<pdfrwt beam="1">  1       -2 0.36911723E-02 0.97567290E+02</pdfrwt>
<totfact> 0.10143732E+05</totfact>
</mgrwt>
</event>
<event>
 5   1  0.1343823E+00  0.9106810E+02  0.7818608E-02  0.1300286E+00
         -2   -1    0    0    0  501 -0.00000000000E+00  0.00000000000E+00  0.79094701516E+01  0.79094705790E+01  0.26000000000E-02 0. -1.
          2   -1    0    0  501    0  0.00000000000E+00 -0.00000000000E+00 -0.26213510739E+03  0.26213510740E+03  0.26000000000E-02 0.  1.
         23    2    1    2    0    0  0.00000000000E+00  0.00000000000E+00 -0.25422563724E+03  0.27004457798E+03  0.91068103462E+02 0.  0.
        -13    1    3    3    0    0 -0.51711996657E+01 -0.42743051849E+02 -0.83167368224E+02  0.93651119038E+02  0.10570000000E+00 0.  1.
         13    1    3    3    0    0  0.51711996657E+01  0.42743051849E+02 -0.17105826902E+03  0.17639345895E+03  0.10570000000E+00 0. -1.
<mgrwt>
<rscale>  0 0.91068103E+02</rscale>
<asrwt>0</asrwt>
<pdfrwt beam="2">  1        2 0.40328472E-01 0.91068103E+02</pdfrwt>
<pdfrwt beam="1">  1       -2 0.12168418E-02 0.91068103E+02</pdfrwt>
<totfact> 0.17138869E+05</totfact>
</mgrwt>
</event>
<event>
 5   1  0.1343823E+00  0.8377590E+02  0.7818608E-02  0.1318665E+00
          2   -1    0    0  501    0  0.00000000000E+00  0.00000000000E+00  0.89688133164E+02  0.89688133202E+02  0.26000000000E-02 0. -1.
         -2   -1    0    0    0  501 -0.00000000000E+00 -0.00000000000E+00 -0.19563350044E+02  0.19563350217E+02  0.26000000000E-02 0.  1.
         23    2    1    2    0    0  0.00000000000E+00  0.00000000000E+00  0.70124783120E+02  0.10925148342E+03  0.83775900004E+02 0.  0.
        -13    1    3    3    0    0  0.21990388362E+02  0.35409001025E+02  0.40473139800E+02  0.58098715576E+02  0.10570000000E+00 0. -1.
         13    1    3    3    0    0 -0.21990388362E+02 -0.35409001025E+02  0.29651643320E+02  0.51152767842E+02  0.10570000000E+00 0.  1.
<mgrwt>
<rscale>  0 0.83775900E+02</rscale>
<asrwt>0</asrwt>
<pdfrwt beam="1">  1        2 0.13798174E-01 0.83775900E+02</pdfrwt>
<pdfrwt beam="2">  1       -2 0.30097462E-02 0.83775900E+02</pdfrwt>
<totfact> 0.14980756E+05</totfact>
</mgrwt>
</event>
<event>
 5   1  0.1343823E+00  0.9081145E+02  0.7818608E-02  0.1300898E+00
          2   -1    0    0  501    0  0.00000000000E+00  0.00000000000E+00  0.24831873836E+02  0.24831873972E+02  0.26000000000E-02 0. -1.
         -2   -1    0    0    0  501 -0.00000000000E+00 -0.00000000000E+00 -0.83025547907E+02  0.83025547948E+02  0.26000000000E-02 0.  1.
         23    2    1    2    0    0  0.00000000000E+00  0.00000000000E+00 -0.58193674071E+02  0.10785742192E+03  0.90811451707E+02 0.  0.
        -13    1    3    3    0    0 -0.80534472084E+01 -0.29425907795E+02  0.10844872297E+02  0.32378457177E+02  0.10570000000E+00 0. -1.
         13    1    3    3    0    0  0.80534472084E+01  0.29425907795E+02 -0.69038546368E+02  0.75478964743E+02  0.10570000000E+00 0.  1.
<mgrwt>
<rscale>  0 0.90811452E+02</rscale>
<asrwt>0</asrwt>
<pdfrwt beam="1">  1        2 0.38202883E-02 0.90811452E+02</pdfrwt>
<pdfrwt beam="2">  1       -2 0.12773161E-01 0.90811452E+02</pdfrwt>
<totfact> 0.85042977E+04</totfact>
</mgrwt>
</event>
<event>
 5   1  0.1343823E+00  0.9609689E+02  0.7818608E-02  0.1288725E+00
         -2   -1    0    0    0  501 -0.00000000000E+00  0.00000000000E+00  0.20683291285E+02  0.20683291449E+02  0.26000000000E-02 0.  1.
          2   -1    0    0  501    0  0.00000000000E+00 -0.00000000000E+00 -0.11161923039E+03  0.11161923042E+03  0.26000000000E-02 0. -1.
         23    2    1    2    0    0  0.00000000000E+00  0.00000000000E+00 -0.90935939109E+02  0.13230252187E+03  0.96096890025E+02 0.  0.
        -13    1    3    3    0    0 -0.26285997693E+02  0.14552099096E+02 -0.97090561889E+02  0.10163319164E+03  0.10570000000E+00 0. -1.
         13    1    3    3    0    0  0.26285997693E+02 -0.14552099096E+02  0.61546227801E+01  0.30669330232E+02  0.10570000000E+00 0.  1.
<mgrwt>
<rscale>  0 0.96096890E+02</rscale>
<asrwt>0</asrwt>
<pdfrwt beam="2">  1        2 0.17172189E-01 0.96096890E+02</pdfrwt>
<pdfrwt beam="1">  1       -2 0.31820449E-02 0.96096890E+02</pdfrwt>
<totfact> 0.10981602E+05</totfact>
</mgrwt>
</event>
<event>
 5   1  0.1343823E+00  0.9175668E+02  0.7818608E-02  0.1298653E+00
          2   -1    0    0  501    0  0.00000000000E+00  0.00000000000E+00  0.20760813639E+03  0.20760813641E+03  0.26000000000E-02 0. -1.
         -2   -1    0    0    0  501 -0.00000000000E+00 -0.00000000000E+00 -0.10138436280E+02  0.10138436613E+02  0.26000000000E-02 0.  1.
         23    2    1    2    0    0  0.00000000000E+00  0.00000000000E+00  0.19746970011E+03  0.21774657302E+03  0.91756676053E+02 0.  0.
        -13    1    3    3    0    0  0.10484253316E+02  0.43515582794E+02  0.12261772922E+03  0.13053215774E+03  0.10570000000E+00 0.  1.
         13    1    3    3    0    0 -0.10484253316E+02 -0.43515582794E+02  0.74851970893E+02  0.87214415280E+02  0.10570000000E+00 0. -1.
<mgrwt>
<rscale>  0 0.91756676E+02</rscale>
<asrwt>0</asrwt>
<pdfrwt beam="1">  1        2 0.31939713E-01 0.91756676E+02</pdfrwt>
<pdfrwt beam="2">  1       -2 0.15597594E-02 0.91756676E+02</pdfrwt>
<totfact> 0.15413398E+05</totfact>
</mgrwt>
</event>
<event>
 5   1  0.1343823E+00  0.9098455E+02  0.7818608E-02  0.1300485E+00
         -2   -1    0    0    0  501 -0.00000000000E+00  0.00000000000E+00  0.30526416314E+03  0.30526416315E+03  0.26000000000E-02 0.  1.
          2   -1    0    0  501    0  0.00000000000E+00 -0.00000000000E+00 -0.67795281345E+01  0.67795286331E+01  0.26000000000E-02 0. -1.
         23    2    1    2    0    0  0.00000000000E+00  0.00000000000E+00  0.29848463501E+03  0.31204369179E+03  0.90984549502E+02 0.  0.
        -13    1    3    3    0    0  0.43014223439E+02  0.13894289216E+02  0.16681770992E+03  0.17283354480E+03  0.10570000000E+00 0. -1.
         13    1    3    3    0    0 -0.43014223439E+02 -0.13894289216E+02  0.13166692508E+03  0.13921014699E+03  0.10570000000E+00 0.  1.
<mgrwt>
<rscale>  0 0.90984550E+02</rscale>
<asrwt>0</asrwt>
<pdfrwt beam="2">  1        2 0.10430045E-02 0.90984550E+02</pdfrwt>
<pdfrwt beam="1">  1       -2 0.46963710E-01 0.90984550E+02</pdfrwt>
<totfact> 0.50777538E+04</totfact>
</mgrwt>
</event>
<event>
 5   1  0.1343823E+00  0.9022370E+02  0.7818608E-02  0.1302311E+00
          2   -1    0    0  501    0  0.00000000000E+00  0.00000000000E+00  0.28196583216E+02  0.28196583336E+02  0.26000000000E-02 0. -1.
         -2   -1    0    0    0  501 -0.00000000000E+00 -0.00000000000E+00 -0.72174672020E+02  0.72174672067E+02  0.26000000000E-02 0.  1.
         23    2    1    2    0    0  0.00000000000E+00  0.00000000000E+00 -0.43978088804E+02  0.10037125540E+03  0.90223703185E+02 0.  0.
        -13    1    3    3    0    0 -0.18583657957E+02 -0.21235816372E+02  0.17165443466E+02  0.33029923734E+02  0.10570000000E+00 0. -1.
         13    1    3    3    0    0  0.18583657957E+02  0.21235816372E+02 -0.61143532270E+02  0.67341331669E+02  0.10570000000E+00 0.  1.
<mgrwt>
<rscale>  0 0.90223703E+02</rscale>
<asrwt>0</asrwt>
<pdfrwt beam="1">  1        2 0.43379359E-02 0.90223703E+02</pdfrwt>
<pdfrwt beam="2">  1       -2 0.11103796E-01 0.90223703E+02</pdfrwt>
<totfact> 0.89771489E+04</totfact>
</mgrwt>
</event>
<event>
 5   1  0.1343823E+00  0.9049501E+02  0.7818608E-02  0.1301657E+00
         -2   -1    0    0    0  501 -0.00000000000E+00  0.00000000000E+00  0.11177397922E+02  0.11177398224E+02  0.26000000000E-02 0.  1.
          2   -1    0    0  501    0  0.00000000000E+00 -0.00000000000E+00 -0.18316757404E+03  0.18316757406E+03  0.26000000000E-02 0. -1.
         23    2    1    2    0    0  0.00000000000E+00  0.00000000000E+00 -0.17199017612E+03  0.19434497229E+03  0.90495014065E+02 0.  0.
        -13    1    3    3    0    0  0.26009368148E+02 -0.37014323630E+02 -0.87889750791E+02  0.98849212702E+02  0.10570000000E+00 0.  1.
         13    1    3    3    0    0 -0.26009368148E+02  0.37014323630E+02 -0.84100425330E+02  0.95495759583E+02  0.10570000000E+00 0. -1.
<mgrwt>
<rscale>  0 0.90495014E+02</rscale>
<asrwt>0</asrwt>
<pdfrwt beam="2">  1        2 0.28179625E-01 0.90495014E+02</pdfrwt>
<pdfrwt beam="1">  1       -2 0.17195998E-02 0.90495014E+02</pdfrwt>
<totfact> 0.15293731E+05</totfact>
</mgrwt>
</event>
<event>
 5   1  0.1343823E+00  0.9102242E+02  0.7818608E-02  0.1300394E+00
         -2   -1    0    0    0  501 -0.00000000000E+00  0.00000000000E+00  0.31347891214E+02  0.31347891322E+02  0.26000000000E-02 0.  1.
          2   -1    0    0  501    0  0.00000000000E+00 -0.00000000000E+00 -0.66073673943E+02  0.66073673994E+02  0.26000000000E-02 0. -1.
         23    2    1    2    0    0  0.00000000000E+00  0.00000000000E+00 -0.34725782729E+02  0.97421565316E+02  0.91022422526E+02 0.  0.
        -13    1    3    3    0    0 -0.16766991706E+02 -0.33058769933E+02 -0.45624663197E+02  0.58784652288E+02  0.10570000000E+00 0. -1.
         13    1    3    3    0    0  0.16766991706E+02  0.33058769933E+02  0.10898880467E+02  0.38636913028E+02  0.10570000000E+00 0.  1.
<mgrwt>
<rscale>  0 0.91022423E+02</rscale>
<asrwt>0</asrwt>
<pdfrwt beam="2">  1        2 0.10165181E-01 0.91022423E+02</pdfrwt>
<pdfrwt beam="1">  1       -2 0.48227525E-02 0.91022423E+02</pdfrwt>
<totfact> 0.10939527E+05</totfact>
</mgrwt>
</event>
<event>
 5   1  0.1343823E+00  0.8818289E+02  0.7818608E-02  0.1307313E+00
          2   -1    0    0  501    0  0.00000000000E+00  0.00000000000E+00  0.14256028193E+03  0.14256028195E+03  0.26000000000E-02 0. -1.
         -2   -1    0    0    0  501 -0.00000000000E+00 -0.00000000000E+00 -0.13636725215E+02  0.13636725463E+02  0.26000000000E-02 0.  1.
         23    2    1    2    0    0  0.00000000000E+00  0.00000000000E+00  0.12892355671E+03  0.15619700741E+03  0.88182887510E+02 0.  0.
        -13    1    3    3    0    0 -0.79832775792E+01  0.36912843383E+02  0.24157614076E+02  0.44831821487E+02  0.10570000000E+00 0.  1.
         13    1    3    3    0    0  0.79832775792E+01 -0.36912843383E+02  0.10476594264E+03  0.11136518593E+03  0.10570000000E+00 0. -1.
<mgrwt>
<rscale>  0 0.88182888E+02</rscale>
<asrwt>0</asrwt>
<pdfrwt beam="1">  1        2 0.21932349E-01 0.88182888E+02</pdfrwt>
<pdfrwt beam="2">  1       -2 0.20979579E-02 0.88182888E+02</pdfrwt>
<totfact> 0.15044277E+05</totfact>
</mgrwt>
</event>
<event>
 5   1  0.1343823E+00  0.9194444E+02  0.7818608E-02  0.1298210E+00
         -2   -1    0    0    0  501 -0.00000000000E+00  0.00000000000E+00  0.62178647345E+02  0.62178647400E+02  0.26000000000E-02 0.  1.
          2   -1    0    0  501    0  0.00000000000E+00 -0.00000000000E+00 -0.33989882828E+02  0.33989882927E+02  0.26000000000E-02 0. -1.
         23    2    1    2    0    0  0.00000000000E+00  0.00000000000E+00  0.28188764518E+02  0.96168530327E+02  0.91944438550E+02 0.  0.
        -13    1    3    3    0    0  0.45527144484E+02 -0.20704340301E+01  0.20407071225E+02  0.49934630373E+02  0.10570000000E+00 0. -1.
         13    1    3    3    0    0 -0.45527144484E+02  0.20704340301E+01  0.77816932924E+01  0.46233899954E+02  0.10570000000E+00 0.  1.
<mgrwt>
<rscale>  0 0.91944439E+02</rscale>
<asrwt>0</asrwt>
<pdfrwt beam="2">  1        2 0.52292128E-02 0.91944439E+02</pdfrwt>
<pdfrwt beam="1">  1       -2 0.95659458E-02 0.91944439E+02</pdfrwt>
<totfact> 0.89207596E+04</totfact>
</mgrwt>
</event>
<event>
 5   1  0.1343823E+00  0.9545060E+02  0.7818608E-02  0.1290164E+00
          2   -1    0    0  501    0  0.00000000000E+00  0.00000000000E+00  0.19315998419E+02  0.19315998594E+02  0.26000000000E-02 0.  1.
         -2   -1    0    0    0  501 -0.00000000000E+00 -0.00000000000E+00 -0.11791801623E+03  0.11791801626E+03  0.26000000000E-02 0. -1.
         23    2    1    2    0    0  0.00000000000E+00  0.00000000000E+00 -0.98602017811E+02  0.13723401485E+03  0.95450599348E+02 0.  0.
        -13    1    3    3    0    0  0.10820159067E+01 -0.24852191347E+02 -0.10785978882E+03  0.11069122544E+03  0.10570000000E+00 0. -1.
         13    1    3    3    0    0 -0.10820159067E+01  0.24852191347E+02  0.92577710076E+01  0.26542789411E+02  0.10570000000E+00 0.  1.
<mgrwt>
<rscale>  0 0.95450599E+02</rscale>
<asrwt>0</asrwt>
<pdfrwt beam="1">  1        2 0.29716922E-02 0.95450599E+02</pdfrwt>
<pdfrwt beam="2">  1       -2 0.18141233E-01 0.95450599E+02</pdfrwt>
<totfact> 0.67607557E+04</totfact>
</mgrwt>
</event>
<event>
 5   1  0.1343823E+00  0.9205515E+02  0.7818608E-02  0.1297950E+00
         -2   -1    0    0    0  501 -0.00000000000E+00  0.00000000000E+00  0.24268120848E+02  0.24268120987E+02  0.26000000000E-02 0.  1.
          2   -1    0    0  501    0  0.00000000000E+00 -0.00000000000E+00 -0.87297152853E+02  0.87297152892E+02  0.26000000000E-02 0. -1.
         23    2    1    2    0    0  0.00000000000E+00  0.00000000000E+00 -0.63029032005E+02  0.11156527388E+03  0.92055154446E+02 0.  0.
        -13    1    3    3    0    0 -0.35905155937E+02  0.46575189332E+01  0.29278990219E+01  0.36324323403E+02  0.10570000000E+00 0. -1.
         13    1    3    3    0    0  0.35905155937E+02 -0.46575189332E+01 -0.65956931027E+02  0.75240950476E+02  0.10570000000E+00 0.  1.
<mgrwt>
<rscale>  0 0.92055154E+02</rscale>
<asrwt>0</asrwt>
<pdfrwt beam="2">  1        2 0.13430331E-01 0.92055154E+02</pdfrwt>
<pdfrwt beam="1">  1       -2 0.37335571E-02 0.92055154E+02</pdfrwt>
<totfact> 0.11470550E+05</totfact>
</mgrwt>
</event>
<event>
 5   1  0.1343823E+00  0.8939715E+02  0.7818608E-02  0.1304318E+00
         -2   -1    0    0    0  501 -0.00000000000E+00  0.00000000000E+00  0.63754082817E+02  0.63754082870E+02  0.26000000000E-02 0.  1.
          2   -1    0    0  501    0  0.00000000000E+00 -0.00000000000E+00 -0.31338581943E+02  0.31338582051E+02  0.26000000000E-02 0. -1.
         23    2    1    2    0    0  0.00000000000E+00  0.00000000000E+00  0.32415500874E+02  0.95092664921E+02  0.89397148863E+02 0.  0.
        -13    1    3    3    0    0 -0.31914899219E+02  0.27787696943E+02  0.89495894864E+00  0.42326457654E+02  0.10570000000E+00 0. -1.
         13    1    3    3    0    0  0.31914899219E+02 -0.27787696943E+02  0.31520541926E+02  0.52766207267E+02  0.10570000000E+00 0.  1.
<mgrwt>
<rscale>  0 0.89397149E+02</rscale>
<asrwt>0</asrwt>
<pdfrwt beam="2">  1        2 0.48213204E-02 0.89397149E+02</pdfrwt>
<pdfrwt beam="1">  1       -2 0.98083203E-02 0.89397149E+02</pdfrwt>
<totfact> 0.94851671E+04</totfact>
</mgrwt>
</event>
<event>
 5   1  0.1343823E+00  0.9223622E+02  0.7818608E-02  0.1297525E+00
          2   -1    0    0  501    0  0.00000000000E+00  0.00000000000E+00  0.66302152715E+01  0.66302157813E+01  0.26000000000E-02 0. -1.
         -2   -1    0    0    0  501 -0.00000000000E+00 -0.00000000000E+00 -0.32078593043E+03  0.32078593044E+03  0.26000000000E-02 0.  1.
         23    2    1    2    0    0  0.00000000000E+00  0.00000000000E+00 -0.31415571516E+03  0.32741614622E+03  0.92236215447E+02 0.  0.
        -13    1    3    3    0    0  0.21365969378E+02  0.40025412414E+02 -0.12773478400E+03  0.13555340092E+03  0.10570000000E+00 0. -1.
         13    1    3    3    0    0 -0.21365969378E+02 -0.40025412414E+02 -0.18642093116E+03  0.19186274530E+03  0.10570000000E+00 0.  1.
<mgrwt>
<rscale>  0 0.92236215E+02</rscale>
<asrwt>0</asrwt>
<pdfrwt beam="1">  1        2 0.10200334E-02 0.92236215E+02</pdfrwt>
<pdfrwt beam="2">  1       -2 0.49351670E-01 0.92236215E+02</pdfrwt>
<totfact> 0.47633480E+04</totfact>
</mgrwt>
</event>
<event>
 5   1  0.1343823E+00  0.9300612E+02  0.7818608E-02  0.1295731E+00
         -2   -1    0    0    0  501 -0.00000000000E+00  0.00000000000E+00  0.57010425257E+02  0.57010425316E+02  0.26000000000E-02 0.  1.
          2   -1    0    0  501    0  0.00000000000E+00 -0.00000000000E+00 -0.37932263060E+02  0.37932263149E+02  0.26000000000E-02 0. -1.
         23    2    1    2    0    0  0.00000000000E+00  0.00000000000E+00  0.19078162197E+02  0.94942688465E+02  0.93006117112E+02 0.  0.
        -13    1    3    3    0    0  0.18082825456E+02 -0.41334186975E+02  0.21044052447E+02  0.49783199026E+02  0.10570000000E+00 0. -1.
         13    1    3    3    0    0 -0.18082825456E+02  0.41334186975E+02 -0.19658902508E+01  0.45159489439E+02  0.10570000000E+00 0.  1.
<mgrwt>
<rscale>  0 0.93006117E+02</rscale>
<asrwt>0</asrwt>
<pdfrwt beam="2">  1        2 0.58357328E-02 0.93006117E+02</pdfrwt>
<pdfrwt beam="1">  1       -2 0.87708347E-02 0.93006117E+02</pdfrwt>
<totfact> 0.88788147E+04</totfact>
</mgrwt>
</event>
<event>
 5   1  0.1343823E+00  0.9188844E+02  0.7818608E-02  0.1298342E+00
         -2   -1    0    0    0  501 -0.00000000000E+00  0.00000000000E+00  0.12813002410E+03  0.12813002413E+03  0.26000000000E-02 0. -1.
          2   -1    0    0  501    0  0.00000000000E+00 -0.00000000000E+00 -0.16474447153E+02  0.16474447358E+02  0.26000000000E-02 0.  1.
         23    2    1    2    0    0  0.00000000000E+00  0.00000000000E+00  0.11165557695E+03  0.14460447148E+03  0.91888439478E+02 0.  0.
        -13    1    3    3    0    0 -0.35814867258E+02 -0.20559534591E+02  0.24139748521E+02  0.47834483487E+02  0.10570000000E+00 0.  1.
         13    1    3    3    0    0  0.35814867258E+02  0.20559534591E+02  0.87515828426E+02  0.96769987997E+02  0.10570000000E+00 0. -1.
<mgrwt>
<rscale>  0 0.91888439E+02</rscale>
<asrwt>0</asrwt>
<pdfrwt beam="2">  1        2 0.25345304E-02 0.91888439E+02</pdfrwt>
<pdfrwt beam="1">  1       -2 0.19712311E-01 0.91888439E+02</pdfrwt>
<totfact> 0.72375062E+04</totfact>
</mgrwt>
</event>
<event>
 5   1  0.1343823E+00  0.9209845E+02  0.7818608E-02  0.1297848E+00
         -2   -1    0    0    0  501 -0.00000000000E+00  0.00000000000E+00  0.19022828843E+02  0.19022829021E+02  0.26000000000E-02 0.  1.
          2   -1    0    0  501    0  0.00000000000E+00 -0.00000000000E+00 -0.11147297136E+03  0.11147297139E+03  0.26000000000E-02 0. -1.
         23    2    1    2    0    0  0.00000000000E+00  0.00000000000E+00 -0.92450142516E+02  0.13049580041E+03  0.92098453155E+02 0.  0.
        -13    1    3    3    0    0  0.65690522940E+01 -0.40006777948E+02 -0.15284817241E+02  0.43328184135E+02  0.10570000000E+00 0.  1.
         13    1    3    3    0    0 -0.65690522940E+01  0.40006777948E+02 -0.77165325275E+02  0.87167616276E+02  0.10570000000E+00 0. -1.
<mgrwt>
<rscale>  0 0.92098453E+02</rscale>
<asrwt>0</asrwt>
<pdfrwt beam="2">  1        2 0.17149688E-01 0.92098453E+02</pdfrwt>
<pdfrwt beam="1">  1       -2 0.29265891E-02 0.92098453E+02</pdfrwt>
<totfact> 0.12340997E+05</totfact>
</mgrwt>
</event>
<event>
 5   1  0.1343823E+00  0.8914746E+02  0.7818608E-02  0.1304929E+00
          2   -1    0    0  501    0  0.00000000000E+00  0.00000000000E+00  0.13901049650E+03  0.13901049653E+03  0.26000000000E-02 0.  1.
         -2   -1    0    0    0  501 -0.00000000000E+00 -0.00000000000E+00 -0.14292569939E+02  0.14292570176E+02  0.26000000000E-02 0. -1.
         23    2    1    2    0    0  0.00000000000E+00  0.00000000000E+00  0.12471792656E+03  0.15330306670E+03  0.89147456801E+02 0.  0.
        -13    1    3    3    0    0  0.35655293502E+02  0.48866240961E+01  0.10758388950E+03  0.11344374598E+03  0.10570000000E+00 0.  1.
         13    1    3    3    0    0 -0.35655293502E+02 -0.48866240961E+01  0.17134037064E+02  0.39859320722E+02  0.10570000000E+00 0. -1.
<mgrwt>
<rscale>  0 0.89147457E+02</rscale>
<asrwt>0</asrwt>
<pdfrwt beam="1">  1        2 0.21386229E-01 0.89147457E+02</pdfrwt>
<pdfrwt beam="2">  1       -2 0.21988570E-02 0.89147457E+02</pdfrwt>
<totfact> 0.14485620E+05</totfact>
</mgrwt>
</event>
<event>
 5   1  0.1343823E+00  0.9226018E+02  0.7818608E-02  0.1297469E+00
         -2   -1    0    0    0  501 -0.00000000000E+00  0.00000000000E+00  0.25673608931E+03  0.25673608932E+03  0.26000000000E-02 0.  1.
          2   -1    0    0  501    0  0.00000000000E+00 -0.00000000000E+00 -0.82886100719E+01  0.82886104797E+01  0.26000000000E-02 0. -1.
         23    2    1    2    0    0  0.00000000000E+00  0.00000000000E+00  0.24844747924E+03  0.26502469980E+03  0.92260184077E+02 0.  0.
        -13    1    3    3    0    0 -0.14417061979E+02  0.37084572964E+02  0.19127598077E+03  0.19537049220E+03  0.10570000000E+00 0.  1.
         13    1    3    3    0    0  0.14417061979E+02 -0.37084572964E+02  0.57171498465E+02  0.69654207606E+02  0.10570000000E+00 0. -1.
<mgrwt>
<rscale>  0 0.92260184E+02</rscale>
<asrwt>0</asrwt>
<pdfrwt beam="2">  1        2 0.12751708E-02 0.92260184E+02</pdfrwt>
<pdfrwt beam="1">  1       -2 0.39497860E-01 0.92260184E+02</pdfrwt>
<totfact> 0.53772444E+04</totfact>
</mgrwt>
</event>
<event>
 5   1  0.1343823E+00  0.9178461E+02  0.7818608E-02  0.1298587E+00
         -2   -1    0    0    0  501 -0.00000000000E+00  0.00000000000E+00  0.18559859891E+02  0.18559860073E+02  0.26000000000E-02 0.  1.
          2   -1    0    0  501    0  0.00000000000E+00 -0.00000000000E+00 -0.11347627857E+03  0.11347627860E+03  0.26000000000E-02 0. -1.
         23    2    1    2    0    0  0.00000000000E+00  0.00000000000E+00 -0.94916418681E+02  0.13203613867E+03  0.91784614074E+02 0.  0.
        -13    1    3    3    0    0 -0.31127425512E+02 -0.27796835766E+02 -0.19993258299E+02  0.46274423254E+02  0.10570000000E+00 0. -1.
         13    1    3    3    0    0  0.31127425512E+02  0.27796835766E+02 -0.74923160383E+02  0.85761715420E+02  0.10570000000E+00 0.  1.
<mgrwt>
<rscale>  0 0.91784614E+02</rscale>
<asrwt>0</asrwt>
<pdfrwt beam="2">  1        2 0.17457889E-01 0.91784614E+02</pdfrwt>
<pdfrwt beam="1">  1       -2 0.28553632E-02 0.91784614E+02</pdfrwt>
<totfact> 0.12527390E+05</totfact>
</mgrwt>
</event>
<event>
 5   1  0.1343823E+00  0.9056922E+02  0.7818608E-02  0.1301479E+00
         -2   -1    0    0    0  501 -0.00000000000E+00  0.00000000000E+00  0.11618255634E+03  0.11618255637E+03  0.26000000000E-02 0.  1.
          2   -1    0    0  501    0  0.00000000000E+00 -0.00000000000E+00 -0.17650635784E+02  0.17650635975E+02  0.26000000000E-02 0. -1.
         23    2    1    2    0    0  0.00000000000E+00  0.00000000000E+00  0.98531920560E+02  0.13383319235E+03  0.90569222172E+02 0.  0.
        -13    1    3    3    0    0  0.24111645548E+02 -0.30495182088E+02  0.14948000675E+02  0.41650708017E+02  0.10570000000E+00 0. -1.
         13    1    3    3    0    0 -0.24111645548E+02  0.30495182088E+02  0.83583919885E+02  0.92182484331E+02  0.10570000000E+00 0.  1.
<mgrwt>
<rscale>  0 0.90569222E+02</rscale>
<asrwt>0</asrwt>
<pdfrwt beam="2">  1        2 0.27154826E-02 0.90569222E+02</pdfrwt>
<pdfrwt beam="1">  1       -2 0.17874238E-01 0.90569222E+02</pdfrwt>
<totfact> 0.77490062E+04</totfact>
</mgrwt>
</event>
<event>
 5   1  0.1343823E+00  0.9106371E+02  0.7818608E-02  0.1300296E+00
          2   -1    0    0  501    0  0.00000000000E+00  0.00000000000E+00  0.23217297497E+03  0.23217297499E+03  0.26000000000E-02 0.  1.
         -2   -1    0    0    0  501 -0.00000000000E+00 -0.00000000000E+00 -0.89293331362E+01  0.89293335148E+01  0.26000000000E-02 0. -1.
         23    2    1    2    0    0  0.00000000000E+00  0.00000000000E+00  0.22324364184E+03  0.24110230850E+03  0.91063711459E+02 0.  0.
        -13    1    3    3    0    0  0.24205114068E+02 -0.38324491800E+02  0.10023874020E+03  0.11001122864E+03  0.10570000000E+00 0. -1.
         13    1    3    3    0    0 -0.24205114068E+02  0.38324491800E+02  0.12300490164E+03  0.13109107986E+03  0.10570000000E+00 0.  1.
<mgrwt>
<rscale>  0 0.91063711E+02</rscale>
<asrwt>0</asrwt>
<pdfrwt beam="1">  1        2 0.35718916E-01 0.91063711E+02</pdfrwt>
<pdfrwt beam="2">  1       -2 0.13737437E-02 0.91063711E+02</pdfrwt>
<totfact> 0.16388393E+05</totfact>
</mgrwt>
</event>
<event>
 5   1  0.1343823E+00  0.9122561E+02  0.7818608E-02  0.1299911E+00
          2   -1    0    0  501    0  0.00000000000E+00  0.00000000000E+00  0.10192969423E+02  0.10192969755E+02  0.26000000000E-02 0. -1.
         -2   -1    0    0    0  501 -0.00000000000E+00 -0.00000000000E+00 -0.20411402067E+03  0.20411402069E+03  0.26000000000E-02 0.  1.
         23    2    1    2    0    0  0.00000000000E+00  0.00000000000E+00 -0.19392105125E+03  0.21430699045E+03  0.91225610635E+02 0.  0.
        -13    1    3    3    0    0 -0.33353862779E+02  0.61319858062E+01 -0.16861819466E+03  0.17199473292E+03  0.10570000000E+00 0.  1.
         13    1    3    3    0    0  0.33353862779E+02 -0.61319858062E+01 -0.25302856594E+02  0.42312257521E+02  0.10570000000E+00 0. -1.
<mgrwt>
<rscale>  0 0.91225611E+02</rscale>
<asrwt>0</asrwt>
<pdfrwt beam="1">  1        2 0.15681493E-02 0.91225611E+02</pdfrwt>
<pdfrwt beam="2">  1       -2 0.31402154E-01 0.91225611E+02</pdfrwt>
<totfact> 0.61684342E+04</totfact>
</mgrwt>
</event>
<event>
 5   1  0.1343823E+00  0.9145243E+02  0.7818608E-02  0.1299372E+00
          2   -1    0    0  501    0  0.00000000000E+00  0.00000000000E+00  0.11154754432E+03  0.11154754435E+03  0.26000000000E-02 0. -1.
         -2   -1    0    0    0  501 -0.00000000000E+00 -0.00000000000E+00 -0.18744354002E+02  0.18744354183E+02  0.26000000000E-02 0.  1.
         23    2    1    2    0    0  0.00000000000E+00  0.00000000000E+00  0.92803190313E+02  0.13029189853E+03  0.91452428562E+02 0.  0.
        -13    1    3    3    0    0 -0.55588138696E+01 -0.29559861819E+02 -0.26665042087E+01  0.30196146436E+02  0.10570000000E+00 0.  1.
         13    1    3    3    0    0  0.55588138696E+01  0.29559861819E+02  0.95469694522E+02  0.10009575209E+03  0.10570000000E+00 0. -1.
<mgrwt>
<rscale>  0 0.91452429E+02</rscale>
<asrwt>0</asrwt>
<pdfrwt beam="1">  1        2 0.17161161E-01 0.91452429E+02</pdfrwt>
<pdfrwt beam="2">  1       -2 0.28837468E-02 0.91452429E+02</pdfrwt>
<totfact> 0.12584534E+05</totfact>
</mgrwt>
</event>
<event>
 5   1  0.1343823E+00  0.8927653E+02  0.7818608E-02  0.1304613E+00
          2   -1    0    0  501    0  0.00000000000E+00  0.00000000000E+00  0.15762133827E+03  0.15762133829E+03  0.26000000000E-02 0. -1.
         -2   -1    0    0    0  501 -0.00000000000E+00 -0.00000000000E+00 -0.12641528115E+02  0.12641528382E+02  0.26000000000E-02 0.  1.
         23    2    1    2    0    0  0.00000000000E+00  0.00000000000E+00  0.14497981016E+03  0.17026286668E+03  0.89276527797E+02 0.  0.
        -13    1    3    3    0    0 -0.26425541298E+02  0.15432046088E+02  0.10512065090E+02  0.32356946153E+02  0.10570000000E+00 0.  1.
         13    1    3    3    0    0  0.26425541298E+02 -0.15432046088E+02  0.13446774507E+03  0.13790592052E+03  0.10570000000E+00 0. -1.
<mgrwt>
<rscale>  0 0.89276528E+02</rscale>
<asrwt>0</asrwt>
<pdfrwt beam="1">  1        2 0.24249435E-01 0.89276528E+02</pdfrwt>
<pdfrwt beam="2">  1       -2 0.19448506E-02 0.89276528E+02</pdfrwt>
<totfact> 0.15053537E+05</totfact>
</mgrwt>
</event>
<event>
 5   1  0.1343823E+00  0.8874823E+02  0.7818608E-02  0.1305912E+00
          2   -1    0    0  501    0  0.00000000000E+00  0.00000000000E+00  0.10106471070E+03  0.10106471073E+03  0.26000000000E-02 0. -1.
         -2   -1    0    0    0  501 -0.00000000000E+00 -0.00000000000E+00 -0.19483182421E+02  0.19483182594E+02  0.26000000000E-02 0.  1.
         23    2    1    2    0    0  0.00000000000E+00  0.00000000000E+00  0.81581528278E+02  0.12054789333E+03  0.88748232823E+02 0.  0.
        -13    1    3    3    0    0  0.29585709706E+02 -0.27293915475E+02  0.15423415864E+02  0.43106437688E+02  0.10570000000E+00 0.  1.
         13    1    3    3    0    0 -0.29585709706E+02  0.27293915475E+02  0.66158112414E+02  0.77441455638E+02  0.10570000000E+00 0. -1.
<mgrwt>
<rscale>  0 0.88748233E+02</rscale>
<asrwt>0</asrwt>
<pdfrwt beam="1">  1        2 0.15548417E-01 0.88748233E+02</pdfrwt>
<pdfrwt beam="2">  1       -2 0.29974127E-02 0.88748233E+02</pdfrwt>
<totfact> 0.13253752E+05</totfact>
</mgrwt>
</event>
<event>
 5   1  0.1343823E+00  0.9166891E+02  0.7818608E-02  0.1298860E+00
         -2   -1    0    0    0  501 -0.00000000000E+00  0.00000000000E+00  0.15731257680E+02  0.15731257895E+02  0.26000000000E-02 0.  1.
          2   -1    0    0  501    0  0.00000000000E+00 -0.00000000000E+00 -0.13354287992E+03  0.13354287994E+03  0.26000000000E-02 0. -1.
         23    2    1    2    0    0  0.00000000000E+00  0.00000000000E+00 -0.11781162224E+03  0.14927413784E+03  0.91668914541E+02 0.  0.
        -13    1    3    3    0    0  0.59253776410E+01 -0.30546255316E+02 -0.41032016723E+01  0.31385207510E+02  0.10570000000E+00 0.  1.
         13    1    3    3    0    0 -0.59253776410E+01  0.30546255316E+02 -0.11370842057E+03  0.11788893033E+03  0.10570000000E+00 0. -1.
<mgrwt>
<rscale>  0 0.91668915E+02</rscale>
<asrwt>0</asrwt>
<pdfrwt beam="2">  1        2 0.20545058E-01 0.91668915E+02</pdfrwt>
<pdfrwt beam="1">  1       -2 0.24201936E-02 0.91668915E+02</pdfrwt>
<totfact> 0.13250624E+05</totfact>
</mgrwt>
</event>
<event>
 5   1  0.1343823E+00  0.9193394E+02  0.7818608E-02  0.1298235E+00
         -2   -1    0    0    0  501 -0.00000000000E+00  0.00000000000E+00  0.99772546880E+01  0.99772550268E+01  0.26000000000E-02 0.  1.
          2   -1    0    0  501    0  0.00000000000E+00 -0.00000000000E+00 -0.21177791582E+03  0.21177791583E+03  0.26000000000E-02 0. -1.
         23    2    1    2    0    0  0.00000000000E+00  0.00000000000E+00 -0.20180066113E+03  0.22175517086E+03  0.91933938080E+02 0.  0.
        -13    1    3    3    0    0  0.39765072565E+02 -0.17509418976E+02 -0.64709746222E+02  0.77943589715E+02  0.10570000000E+00 0.  1.
         13    1    3    3    0    0 -0.39765072565E+02  0.17509418976E+02 -0.13709091491E+03  0.14381158114E+03  0.10570000000E+00 0. -1.
<mgrwt>
<rscale>  0 0.91933938E+02</rscale>
<asrwt>0</asrwt>
<pdfrwt beam="2">  1        2 0.32581214E-01 0.91933938E+02</pdfrwt>
<pdfrwt beam="1">  1       -2 0.15349624E-02 0.91933938E+02</pdfrwt>
<totfact> 0.15445033E+05</totfact>
</mgrwt>
</event>
<event>
 5   1  0.1343823E+00  0.9345951E+02  0.7818608E-02  0.1294684E+00
          2   -1    0    0  501    0  0.00000000000E+00  0.00000000000E+00  0.74179421804E+02  0.74179421849E+02  0.26000000000E-02 0. -1.
         -2   -1    0    0    0  501 -0.00000000000E+00 -0.00000000000E+00 -0.29437680857E+02  0.29437680972E+02  0.26000000000E-02 0.  1.
         23    2    1    2    0    0  0.00000000000E+00  0.00000000000E+00  0.44741740947E+02  0.10361710282E+03  0.93459513235E+02 0.  0.
        -13    1    3    3    0    0 -0.40833194210E+02  0.10248296570E+02 -0.11333763647E+00  0.42099897267E+02  0.10570000000E+00 0.  1.
         13    1    3    3    0    0  0.40833194210E+02 -0.10248296570E+02  0.44855078583E+02  0.61517205554E+02  0.10570000000E+00 0. -1.
<mgrwt>
<rscale>  0 0.93459513E+02</rscale>
<asrwt>0</asrwt>
<pdfrwt beam="1">  1        2 0.11412219E-01 0.93459513E+02</pdfrwt>
<pdfrwt beam="2">  1       -2 0.45288740E-02 0.93459513E+02</pdfrwt>
<totfact> 0.10490836E+05</totfact>
</mgrwt>
</event>
<event>
 5   1  0.1343823E+00  0.9090066E+02  0.7818608E-02  0.1300685E+00
          2   -1    0    0  501    0  0.00000000000E+00  0.00000000000E+00  0.60061505421E+02  0.60061505477E+02  0.26000000000E-02 0. -1.
         -2   -1    0    0    0  501 -0.00000000000E+00 -0.00000000000E+00 -0.34393621952E+02  0.34393622050E+02  0.26000000000E-02 0.  1.
         23    2    1    2    0    0  0.00000000000E+00  0.00000000000E+00  0.25667883468E+02  0.94455127527E+02  0.90900664873E+02 0.  0.
        -13    1    3    3    0    0  0.37899001607E+02  0.19693480196E+02  0.28983686037E+02  0.51616205923E+02  0.10570000000E+00 0. -1.
         13    1    3    3    0    0 -0.37899001607E+02 -0.19693480196E+02 -0.33158025687E+01  0.42838921604E+02  0.10570000000E+00 0.  1.
<mgrwt>
<rscale>  0 0.90900665E+02</rscale>
<asrwt>0</asrwt>
<pdfrwt beam="1">  1        2 0.92402316E-02 0.90900665E+02</pdfrwt>
<pdfrwt beam="2">  1       -2 0.52913265E-02 0.90900665E+02</pdfrwt>
<totfact> 0.10700998E+05</totfact>
</mgrwt>
</event>
<event>
 5   1  0.1343823E+00  0.9546828E+02  0.7818608E-02  0.1290125E+00
         -2   -1    0    0    0  501 -0.00000000000E+00  0.00000000000E+00  0.33675362133E+02  0.33675362233E+02  0.26000000000E-02 0.  1.
          2   -1    0    0  501    0  0.00000000000E+00 -0.00000000000E+00 -0.67662171385E+02  0.67662171435E+02  0.26000000000E-02 0. -1.
         23    2    1    2    0    0  0.00000000000E+00  0.00000000000E+00 -0.33986809252E+02  0.10133753367E+03  0.95468280213E+02 0.  0.
        -13    1    3    3    0    0  0.43015872151E+02  0.19921097821E+02 -0.11052768516E+02  0.48676382976E+02  0.10570000000E+00 0. -1.
         13    1    3    3    0    0 -0.43015872151E+02 -0.19921097821E+02 -0.22934040736E+02  0.52661150692E+02  0.10570000000E+00 0.  1.
<mgrwt>
<rscale>  0 0.95468280E+02</rscale>
<asrwt>0</asrwt>
<pdfrwt beam="2">  1        2 0.10409565E-01 0.95468280E+02</pdfrwt>
<pdfrwt beam="1">  1       -2 0.51808250E-02 0.95468280E+02</pdfrwt>
<totfact> 0.96274578E+04</totfact>
</mgrwt>
</event>
<event>
 5   1  0.1343823E+00  0.7822974E+02  0.7818608E-02  0.1334152E+00
          2   -1    0    0  501    0  0.00000000000E+00  0.00000000000E+00  0.13146357450E+02  0.13146357707E+02  0.26000000000E-02 0.  1.
         -2   -1    0    0    0  501 -0.00000000000E+00 -0.00000000000E+00 -0.11637999731E+03  0.11637999734E+03  0.26000000000E-02 0. -1.
         23    2    1    2    0    0  0.00000000000E+00  0.00000000000E+00 -0.10323363986E+03  0.12952635505E+03  0.78229740206E+02 0.  0.
        -13    1    3    3    0    0  0.75960733880E+01  0.24268215677E+02 -0.24078669201E+01  0.25543210813E+02  0.10570000000E+00 0.  1.
         13    1    3    3    0    0 -0.75960733880E+01 -0.24268215677E+02 -0.10082577294E+03  0.10398314423E+03  0.10570000000E+00 0. -1.
<mgrwt>
<rscale>  0 0.78229740E+02</rscale>
<asrwt>0</asrwt>
<pdfrwt beam="1">  1        2 0.20225166E-02 0.78229740E+02</pdfrwt>
<pdfrwt beam="2">  1       -2 0.17904614E-01 0.78229740E+02</pdfrwt>
<totfact> 0.11177501E+05</totfact>
</mgrwt>
</event>
<event>
 5   1  0.1343823E+00  0.7819113E+02  0.7818608E-02  0.1334265E+00
         -2   -1    0    0    0  501 -0.00000000000E+00  0.00000000000E+00  0.11042248662E+02  0.11042248968E+02  0.26000000000E-02 0.  1.
          2   -1    0    0  501    0  0.00000000000E+00 -0.00000000000E+00 -0.13841954884E+03  0.13841954886E+03  0.26000000000E-02 0. -1.
         23    2    1    2    0    0  0.00000000000E+00  0.00000000000E+00 -0.12737730018E+03  0.14946179783E+03  0.78191127443E+02 0.  0.
        -13    1    3    3    0    0  0.38999908047E+02 -0.17033445192E+01 -0.59607838486E+02  0.71253068648E+02  0.10570000000E+00 0. -1.
         13    1    3    3    0    0 -0.38999908047E+02  0.17033445192E+01 -0.67769461690E+02  0.78208729184E+02  0.10570000000E+00 0.  1.
<mgrwt>
<rscale>  0 0.78191127E+02</rscale>
<asrwt>0</asrwt>
<pdfrwt beam="2">  1        2 0.21295314E-01 0.78191127E+02</pdfrwt>
<pdfrwt beam="1">  1       -2 0.16988076E-02 0.78191127E+02</pdfrwt>
<totfact> 0.20580264E+05</totfact>
</mgrwt>
</event>
<event>
 5   1  0.1343823E+00  0.9044142E+02  0.7818608E-02  0.1301786E+00
         -2   -1    0    0    0  501 -0.00000000000E+00  0.00000000000E+00  0.15049834687E+03  0.15049834689E+03  0.26000000000E-02 0.  1.
          2   -1    0    0  501    0  0.00000000000E+00 -0.00000000000E+00 -0.13587608224E+02  0.13587608473E+02  0.26000000000E-02 0. -1.
         23    2    1    2    0    0  0.00000000000E+00  0.00000000000E+00  0.13691073864E+03  0.16408595536E+03  0.90441419668E+02 0.  0.
        -13    1    3    3    0    0 -0.35006235468E+02  0.12328855511E+02  0.11532786049E+03  0.12115264659E+03  0.10570000000E+00 0.  1.
         13    1    3    3    0    0  0.35006235468E+02 -0.12328855511E+02  0.21582878157E+02  0.42933308769E+02  0.10570000000E+00 0. -1.
<mgrwt>
<rscale>  0 0.90441420E+02</rscale>
<asrwt>0</asrwt>
<pdfrwt beam="2">  1        2 0.20904013E-02 0.90441420E+02</pdfrwt>
<pdfrwt beam="1">  1       -2 0.23153592E-01 0.90441420E+02</pdfrwt>
<totfact> 0.71216699E+04</totfact>
</mgrwt>
</event>
<event>
 5   1  0.1343823E+00  0.8986062E+02  0.7818608E-02  0.1303190E+00
         -2   -1    0    0    0  501 -0.00000000000E+00  0.00000000000E+00  0.20126032798E+03  0.20126032800E+03  0.26000000000E-02 0.  1.
          2   -1    0    0  501    0  0.00000000000E+00 -0.00000000000E+00 -0.10030456110E+02  0.10030456447E+02  0.26000000000E-02 0. -1.
         23    2    1    2    0    0  0.00000000000E+00  0.00000000000E+00  0.19122987187E+03  0.21129078445E+03  0.89860623720E+02 0.  0.
        -13    1    3    3    0    0  0.24603816772E+02  0.36876865457E+02  0.11280863207E+03  0.12120664028E+03  0.10570000000E+00 0.  1.
         13    1    3    3    0    0 -0.24603816772E+02 -0.36876865457E+02  0.78421239805E+02  0.90084144169E+02  0.10570000000E+00 0. -1.
<mgrwt>
<rscale>  0 0.89860624E+02</rscale>
<asrwt>0</asrwt>
<pdfrwt beam="2">  1        2 0.15431472E-02 0.89860624E+02</pdfrwt>
<pdfrwt beam="1">  1       -2 0.30963127E-01 0.89860624E+02</pdfrwt>
<totfact> 0.64498970E+04</totfact>
</mgrwt>
</event>
<event>
 5   1  0.1343823E+00  0.1071758E+03  0.7818608E-02  0.1265891E+00
         -2   -1    0    0    0  501 -0.00000000000E+00  0.00000000000E+00  0.20438935383E+02  0.20438935549E+02  0.26000000000E-02 0.  1.
          2   -1    0    0  501    0  0.00000000000E+00 -0.00000000000E+00 -0.14049965381E+03  0.14049965384E+03  0.26000000000E-02 0. -1.
         23    2    1    2    0    0  0.00000000000E+00  0.00000000000E+00 -0.12006071843E+03  0.16093858938E+03  0.10717580624E+03 0.  0.
        -13    1    3    3    0    0 -0.18424242913E+02  0.45932611034E+02 -0.29168458913E+02  0.57446215290E+02  0.10570000000E+00 0.  1.
         13    1    3    3    0    0  0.18424242913E+02 -0.45932611034E+02 -0.90892259515E+02  0.10349237409E+03  0.10570000000E+00 0. -1.
<mgrwt>
<rscale>  0 0.10717581E+03</rscale>
<asrwt>0</asrwt>
<pdfrwt beam="2">  1        2 0.21615331E-01 0.10717581E+03</pdfrwt>
<pdfrwt beam="1">  1       -2 0.31444517E-02 0.10717581E+03</pdfrwt>
<totfact> 0.87662230E+04</totfact>
</mgrwt>
</event>
<event>
 5   1  0.1343823E+00  0.9052050E+02  0.7818608E-02  0.1301596E+00
         -2   -1    0    0    0  501 -0.00000000000E+00  0.00000000000E+00  0.67358139391E+01  0.67358144409E+01  0.26000000000E-02 0.  1.
          2   -1    0    0  501    0  0.00000000000E+00 -0.00000000000E+00 -0.30411920232E+03  0.30411920233E+03  0.26000000000E-02 0. -1.
         23    2    1    2    0    0  0.00000000000E+00  0.00000000000E+00 -0.29738338838E+03  0.31085501677E+03  0.90520504679E+02 0.  0.
        -13    1    3    3    0    0 -0.38528003810E+02 -0.23309853947E+02 -0.13305891523E+03  0.14047221243E+03  0.10570000000E+00 0.  1.
         13    1    3    3    0    0  0.38528003810E+02  0.23309853947E+02 -0.16432447314E+03  0.17038280434E+03  0.10570000000E+00 0. -1.
<mgrwt>
<rscale>  0 0.90520505E+02</rscale>
<asrwt>0</asrwt>
<pdfrwt beam="2">  1        2 0.46787559E-01 0.90520505E+02</pdfrwt>
<pdfrwt beam="1">  1       -2 0.10362793E-02 0.90520505E+02</pdfrwt>
<totfact> 0.18408535E+05</totfact>
</mgrwt>
</event>
<event>
 5   1  0.1343823E+00  0.9667164E+02  0.7818608E-02  0.1287455E+00
          2   -1    0    0  501    0  0.00000000000E+00  0.00000000000E+00  0.21435966976E+03  0.21435966977E+03  0.26000000000E-02 0. -1.
         -2   -1    0    0    0  501 -0.00000000000E+00 -0.00000000000E+00 -0.10899212226E+02  0.10899212536E+02  0.26000000000E-02 0.  1.
         23    2    1    2    0    0  0.00000000000E+00  0.00000000000E+00  0.20346045753E+03  0.22525888231E+03  0.96671641552E+02 0.  0.
        -13    1    3    3    0    0  0.36137511789E+02 -0.25643493951E+02  0.14672264728E+03  0.15326791881E+03  0.10570000000E+00 0. -1.
         13    1    3    3    0    0 -0.36137511789E+02  0.25643493951E+02  0.56737810250E+02  0.71990963493E+02  0.10570000000E+00 0.  1.
<mgrwt>
<rscale>  0 0.96671642E+02</rscale>
<asrwt>0</asrwt>
<pdfrwt beam="1">  1        2 0.32978408E-01 0.96671642E+02</pdfrwt>
<pdfrwt beam="2">  1       -2 0.16768020E-02 0.96671642E+02</pdfrwt>
<totfact> 0.13545248E+05</totfact>
</mgrwt>
</event>
<event>
 5   1  0.1343823E+00  0.8941170E+02  0.7818608E-02  0.1304283E+00
          2   -1    0    0  501    0  0.00000000000E+00  0.00000000000E+00  0.12461402999E+03  0.12461403002E+03  0.26000000000E-02 0. -1.
         -2   -1    0    0    0  501 -0.00000000000E+00 -0.00000000000E+00 -0.16038425736E+02  0.16038425946E+02  0.26000000000E-02 0.  1.
         23    2    1    2    0    0  0.00000000000E+00  0.00000000000E+00  0.10857560426E+03  0.14065245597E+03  0.89411696827E+02 0.  0.
        -13    1    3    3    0    0  0.55981512770E+00 -0.38560410572E+02  0.89861265467E+02  0.97786895135E+02  0.10570000000E+00 0. -1.
         13    1    3    3    0    0 -0.55981512770E+00  0.38560410572E+02  0.18714338790E+02  0.42865560830E+02  0.10570000000E+00 0.  1.
<mgrwt>
<rscale>  0 0.89411697E+02</rscale>
<asrwt>0</asrwt>
<pdfrwt beam="1">  1        2 0.19171389E-01 0.89411697E+02</pdfrwt>
<pdfrwt beam="2">  1       -2 0.24674502E-02 0.89411697E+02</pdfrwt>
<totfact> 0.13864540E+05</totfact>
</mgrwt>
</event>
<event>
 5   1  0.1343823E+00  0.9088907E+02  0.7818608E-02  0.1300713E+00
         -2   -1    0    0    0  501 -0.00000000000E+00  0.00000000000E+00  0.11640243193E+02  0.11640243484E+02  0.26000000000E-02 0.  1.
          2   -1    0    0  501    0  0.00000000000E+00 -0.00000000000E+00 -0.17741947997E+03  0.17741947999E+03  0.26000000000E-02 0. -1.
         23    2    1    2    0    0  0.00000000000E+00  0.00000000000E+00 -0.16577923678E+03  0.18905972347E+03  0.90889073564E+02 0.  0.
        -13    1    3    3    0    0  0.20110566308E+02  0.40460657627E+02 -0.72764124184E+02  0.85651203341E+02  0.10570000000E+00 0. -1.
         13    1    3    3    0    0 -0.20110566308E+02 -0.40460657627E+02 -0.93015112591E+02  0.10340852013E+03  0.10570000000E+00 0.  1.
<mgrwt>
<rscale>  0 0.90889074E+02</rscale>
<asrwt>0</asrwt>
<pdfrwt beam="2">  1        2 0.27295303E-01 0.90889074E+02</pdfrwt>
<pdfrwt beam="1">  1       -2 0.17908068E-02 0.90889074E+02</pdfrwt>
<totfact> 0.14945615E+05</totfact>
</mgrwt>
</event>
<event>
 5   1  0.1343823E+00  0.9180188E+02  0.7818608E-02  0.1298546E+00
         -2   -1    0    0    0  501 -0.00000000000E+00  0.00000000000E+00  0.11331259046E+02  0.11331259344E+02  0.26000000000E-02 0.  1.
          2   -1    0    0  501    0  0.00000000000E+00 -0.00000000000E+00 -0.18593662538E+03  0.18593662539E+03  0.26000000000E-02 0. -1.
         23    2    1    2    0    0  0.00000000000E+00  0.00000000000E+00 -0.17460536633E+03  0.19726788474E+03  0.91801875787E+02 0.  0.
        -13    1    3    3    0    0  0.15567219524E+02 -0.33387674854E+02 -0.28461637720E+02  0.46552670707E+02  0.10570000000E+00 0.  1.
         13    1    3    3    0    0 -0.15567219524E+02  0.33387674854E+02 -0.14614372861E+03  0.15071521403E+03  0.10570000000E+00 0. -1.
<mgrwt>
<rscale>  0 0.91801876E+02</rscale>
<asrwt>0</asrwt>
<pdfrwt beam="2">  1        2 0.28605633E-01 0.91801876E+02</pdfrwt>
<pdfrwt beam="1">  1       -2 0.17432708E-02 0.91801876E+02</pdfrwt>
<totfact> 0.14792336E+05</totfact>
</mgrwt>
</event>
<event>
 5   1  0.1343823E+00  0.1178205E+03  0.7818608E-02  0.1246736E+00
         -2   -1    0    0    0  501 -0.00000000000E+00  0.00000000000E+00  0.16634014987E+02  0.16634015190E+02  0.26000000000E-02 0.  1.
          2   -1    0    0  501    0  0.00000000000E+00 -0.00000000000E+00 -0.20863377747E+03  0.20863377749E+03  0.26000000000E-02 0. -1.
         23    2    1    2    0    0  0.00000000000E+00  0.00000000000E+00 -0.19199976248E+03  0.22526779268E+03  0.11782049747E+03 0.  0.
        -13    1    3    3    0    0  0.51756547680E+02 -0.11050705957E+02 -0.46526786429E+02  0.70467094149E+02  0.10570000000E+00 0.  1.
         13    1    3    3    0    0 -0.51756547680E+02  0.11050705957E+02 -0.14547297605E+03  0.15480069853E+03  0.10570000000E+00 0. -1.
<mgrwt>
<rscale>  0 0.11782050E+03</rscale>
<asrwt>0</asrwt>
<pdfrwt beam="2">  1        2 0.32097502E-01 0.11782050E+03</pdfrwt>
<pdfrwt beam="1">  1       -2 0.25590794E-02 0.11782050E+03</pdfrwt>
<totfact> 0.77937685E+04</totfact>
</mgrwt>
</event>
<event>
 5   1  0.1343823E+00  0.1183545E+03  0.7818608E-02  0.1245837E+00
          2   -1    0    0  501    0  0.00000000000E+00  0.00000000000E+00  0.42550265554E+03  0.42550265554E+03  0.26000000000E-02 0. -1.
         -2   -1    0    0    0  501 -0.00000000000E+00 -0.00000000000E+00 -0.82301357255E+01  0.82301361362E+01  0.26000000000E-02 0.  1.
         23    2    1    2    0    0  0.00000000000E+00  0.00000000000E+00  0.41727251981E+03  0.43373279168E+03  0.11835446248E+03 0.  0.
        -13    1    3    3    0    0 -0.31328616909E+02  0.45504265066E+02  0.13091251940E+03  0.14209229144E+03  0.10570000000E+00 0.  1.
         13    1    3    3    0    0  0.31328616909E+02 -0.45504265066E+02  0.28636000041E+03  0.29164050024E+03  0.10570000000E+00 0. -1.
<mgrwt>
<rscale>  0 0.11835446E+03</rscale>
<asrwt>0</asrwt>
<pdfrwt beam="1">  1        2 0.65461949E-01 0.11835446E+03</pdfrwt>
<pdfrwt beam="2">  1       -2 0.12661747E-02 0.11835446E+03</pdfrwt>
<totfact> 0.10113921E+05</totfact>
</mgrwt>
</event>
<event>
 5   1  0.1343823E+00  0.8976083E+02  0.7818608E-02  0.1303432E+00
         -2   -1    0    0    0  501 -0.00000000000E+00  0.00000000000E+00  0.17451241668E+02  0.17451241862E+02  0.26000000000E-02 0.  1.
          2   -1    0    0  501    0  0.00000000000E+00 -0.00000000000E+00 -0.11542167106E+03  0.11542167109E+03  0.26000000000E-02 0. -1.
         23    2    1    2    0    0  0.00000000000E+00  0.00000000000E+00 -0.97970429392E+02  0.13287291295E+03  0.89760826427E+02 0.  0.
        -13    1    3    3    0    0 -0.28651487039E+02  0.52175637624E+01  0.15645694875E+01  0.29164871529E+02  0.10570000000E+00 0.  1.
         13    1    3    3    0    0  0.28651487039E+02 -0.52175637624E+01 -0.99534998879E+02  0.10370804142E+03  0.10570000000E+00 0. -1.
<mgrwt>
<rscale>  0 0.89760826E+02</rscale>
<asrwt>0</asrwt>
<pdfrwt beam="2">  1        2 0.17757180E-01 0.89760826E+02</pdfrwt>
<pdfrwt beam="1">  1       -2 0.26848065E-02 0.89760826E+02</pdfrwt>
<totfact> 0.13387054E+05</totfact>
</mgrwt>
</event>
<event>
 5   1  0.1343823E+00  0.7871293E+02  0.7818608E-02  0.1332744E+00
         -2   -1    0    0    0  501 -0.00000000000E+00  0.00000000000E+00  0.39791964601E+03  0.39791964602E+03  0.26000000000E-02 0. -1.
          2   -1    0    0  501    0  0.00000000000E+00 -0.00000000000E+00 -0.38925726200E+01  0.38925734883E+01  0.26000000000E-02 0.  1.
         23    2    1    2    0    0  0.00000000000E+00  0.00000000000E+00  0.39402707339E+03  0.40181221951E+03  0.78712928930E+02 0.  0.
        -13    1    3    3    0    0  0.35062365531E+02  0.17856867735E+02  0.20123207709E+03  0.20504291557E+03  0.10570000000E+00 0.  1.
         13    1    3    3    0    0 -0.35062365531E+02 -0.17856867735E+02  0.19279499630E+03  0.19676930394E+03  0.10570000000E+00 0. -1.
<mgrwt>
<rscale>  0 0.78712929E+02</rscale>
<asrwt>0</asrwt>
<pdfrwt beam="2">  1        2 0.59885775E-03 0.78712929E+02</pdfrwt>
<pdfrwt beam="1">  1       -2 0.61218371E-01 0.78712929E+02</pdfrwt>
<totfact> 0.62531909E+04</totfact>
</mgrwt>
</event>
<event>
 5   1  0.1343823E+00  0.9155961E+02  0.7818608E-02  0.1299118E+00
         -2   -1    0    0    0  501 -0.00000000000E+00  0.00000000000E+00  0.22401686341E+02  0.22401686492E+02  0.26000000000E-02 0.  1.
          2   -1    0    0  501    0  0.00000000000E+00 -0.00000000000E+00 -0.93555038508E+02  0.93555038544E+02  0.26000000000E-02 0. -1.
         23    2    1    2    0    0  0.00000000000E+00  0.00000000000E+00 -0.71153352167E+02  0.11595672504E+03  0.91559612038E+02 0.  0.
        -13    1    3    3    0    0 -0.42798382307E+02 -0.10583034085E+02 -0.51194633490E+02  0.67561851731E+02  0.10570000000E+00 0. -1.
         13    1    3    3    0    0  0.42798382307E+02  0.10583034085E+02 -0.19958718677E+02  0.48394873306E+02  0.10570000000E+00 0.  1.
<mgrwt>
<rscale>  0 0.91559612E+02</rscale>
<asrwt>0</asrwt>
<pdfrwt beam="2">  1        2 0.14393083E-01 0.91559612E+02</pdfrwt>
<pdfrwt beam="1">  1       -2 0.34464134E-02 0.91559612E+02</pdfrwt>
<totfact> 0.11885103E+05</totfact>
</mgrwt>
</event>
<event>
 5   1  0.1343823E+00  0.9246026E+02  0.7818608E-02  0.1297001E+00
          2   -1    0    0  501    0  0.00000000000E+00  0.00000000000E+00  0.10107968978E+03  0.10107968982E+03  0.26000000000E-02 0. -1.
         -2   -1    0    0    0  501 -0.00000000000E+00 -0.00000000000E+00 -0.21143960595E+02  0.21143960755E+02  0.26000000000E-02 0.  1.
         23    2    1    2    0    0  0.00000000000E+00  0.00000000000E+00  0.79935729187E+02  0.12222365057E+03  0.92460261508E+02 0.  0.
        -13    1    3    3    0    0 -0.19274419152E+02  0.15726441241E+02 -0.11542158910E+02  0.27423653888E+02  0.10570000000E+00 0.  1.
         13    1    3    3    0    0  0.19274419152E+02 -0.15726441241E+02  0.91477888098E+02  0.94799996683E+02  0.10570000000E+00 0. -1.
<mgrwt>
<rscale>  0 0.92460262E+02</rscale>
<asrwt>0</asrwt>
<pdfrwt beam="1">  1        2 0.15550722E-01 0.92460262E+02</pdfrwt>
<pdfrwt beam="2">  1       -2 0.32529170E-02 0.92460262E+02</pdfrwt>
<totfact> 0.11842547E+05</totfact>
</mgrwt>
</event>
<event>
 5   1  0.1343823E+00  0.9229909E+02  0.7818608E-02  0.1297378E+00
         -2   -1    0    0    0  501 -0.00000000000E+00  0.00000000000E+00  0.17112420778E+02  0.17112420976E+02  0.26000000000E-02 0.  1.
          2   -1    0    0  501    0  0.00000000000E+00 -0.00000000000E+00 -0.12445816799E+03  0.12445816802E+03  0.26000000000E-02 0. -1.
         23    2    1    2    0    0  0.00000000000E+00  0.00000000000E+00 -0.10734574721E+03  0.14157058900E+03  0.92299091130E+02 0.  0.
        -13    1    3    3    0    0 -0.26386948700E+02 -0.29682345752E+02 -0.89724488726E+02  0.98121392982E+02  0.10570000000E+00 0. -1.
         13    1    3    3    0    0  0.26386948700E+02  0.29682345752E+02 -0.17621258488E+02  0.43449196014E+02  0.10570000000E+00 0.  1.
<mgrwt>
<rscale>  0 0.92299091E+02</rscale>
<asrwt>0</asrwt>
<pdfrwt beam="2">  1        2 0.19147410E-01 0.92299091E+02</pdfrwt>
<pdfrwt beam="1">  1       -2 0.26326802E-02 0.92299091E+02</pdfrwt>
<totfact> 0.12707604E+05</totfact>
</mgrwt>
</event>
<event>
 5   1  0.1343823E+00  0.9111073E+02  0.7818608E-02  0.1300184E+00
          2   -1    0    0  501    0  0.00000000000E+00  0.00000000000E+00  0.14735932227E+02  0.14735932457E+02  0.26000000000E-02 0. -1.
         -2   -1    0    0    0  501 -0.00000000000E+00 -0.00000000000E+00 -0.14083203796E+03  0.14083203798E+03  0.26000000000E-02 0.  1.
         23    2    1    2    0    0  0.00000000000E+00  0.00000000000E+00 -0.12609610573E+03  0.15556797044E+03  0.91110732331E+02 0.  0.
        -13    1    3    3    0    0  0.33947142176E+01  0.45418589347E+02 -0.64674959938E+02  0.79102679843E+02  0.10570000000E+00 0.  1.
         13    1    3    3    0    0 -0.33947142176E+01 -0.45418589347E+02 -0.61421145790E+02  0.76465290593E+02  0.10570000000E+00 0. -1.
<mgrwt>
<rscale>  0 0.91110732E+02</rscale>
<asrwt>0</asrwt>
<pdfrwt beam="1">  1        2 0.22670666E-02 0.91110732E+02</pdfrwt>
<pdfrwt beam="2">  1       -2 0.21666466E-01 0.91110732E+02</pdfrwt>
<totfact> 0.71582100E+04</totfact>
</mgrwt>
</event>
<event>
 5   1  0.1343823E+00  0.9130800E+02  0.7818608E-02  0.1299715E+00
          2   -1    0    0  501    0  0.00000000000E+00  0.00000000000E+00  0.60533529688E+02  0.60533529744E+02  0.26000000000E-02 0. -1.
         -2   -1    0    0    0  501 -0.00000000000E+00 -0.00000000000E+00 -0.34431954096E+02  0.34431954194E+02  0.26000000000E-02 0.  1.
         23    2    1    2    0    0  0.00000000000E+00  0.00000000000E+00  0.26101575592E+02  0.94965483939E+02  0.91308000149E+02 0.  0.
        -13    1    3    3    0    0  0.33141724642E+02 -0.92889457106E+01  0.44245864183E+02  0.56056811311E+02  0.10570000000E+00 0. -1.
         13    1    3    3    0    0 -0.33141724642E+02  0.92889457106E+01 -0.18144288591E+02  0.38908672627E+02  0.10570000000E+00 0.  1.
<mgrwt>
<rscale>  0 0.91308000E+02</rscale>
<asrwt>0</asrwt>
<pdfrwt beam="1">  1        2 0.93128507E-02 0.91308000E+02</pdfrwt>
<pdfrwt beam="2">  1       -2 0.52972238E-02 0.91308000E+02</pdfrwt>
<totfact> 0.10589127E+05</totfact>
</mgrwt>
</event>
<event>
 5   1  0.1343823E+00  0.9120716E+02  0.7818608E-02  0.1299954E+00
          2   -1    0    0  501    0  0.00000000000E+00  0.00000000000E+00  0.32790007284E+02  0.32790007387E+02  0.26000000000E-02 0. -1.
         -2   -1    0    0    0  501 -0.00000000000E+00 -0.00000000000E+00 -0.63424400641E+02  0.63424400694E+02  0.26000000000E-02 0.  1.
         23    2    1    2    0    0  0.00000000000E+00  0.00000000000E+00 -0.30634393357E+02  0.96214408081E+02  0.91207161265E+02 0.  0.
        -13    1    3    3    0    0 -0.33454516521E+02 -0.24915429974E+02 -0.34759775853E+02  0.54297665845E+02  0.10570000000E+00 0.  1.
         13    1    3    3    0    0  0.33454516521E+02  0.24915429974E+02  0.41253824955E+01  0.41916742236E+02  0.10570000000E+00 0. -1.
<mgrwt>
<rscale>  0 0.91207161E+02</rscale>
<asrwt>0</asrwt>
<pdfrwt beam="1">  1        2 0.50446165E-02 0.91207161E+02</pdfrwt>
<pdfrwt beam="2">  1       -2 0.97576001E-02 0.91207161E+02</pdfrwt>
<totfact> 0.90486846E+04</totfact>
</mgrwt>
</event>
<event>
 5   1  0.1343823E+00  0.9155112E+02  0.7818608E-02  0.1299138E+00
         -2   -1    0    0    0  501 -0.00000000000E+00  0.00000000000E+00  0.61450969204E+02  0.61450969259E+02  0.26000000000E-02 0.  1.
          2   -1    0    0  501    0  0.00000000000E+00 -0.00000000000E+00 -0.34098760625E+02  0.34098760724E+02  0.26000000000E-02 0. -1.
         23    2    1    2    0    0  0.00000000000E+00  0.00000000000E+00  0.27352208579E+02  0.95549729983E+02  0.91551120068E+02 0.  0.
        -13    1    3    3    0    0 -0.51085759029E+01 -0.14589827237E+02  0.58644262977E+02  0.60647517338E+02  0.10570000000E+00 0.  1.
         13    1    3    3    0    0  0.51085759029E+01  0.14589827237E+02 -0.31292054399E+02  0.34902212646E+02  0.10570000000E+00 0. -1.
<mgrwt>
<rscale>  0 0.91551120E+02</rscale>
<asrwt>0</asrwt>
<pdfrwt beam="2">  1        2 0.52459633E-02 0.91551120E+02</pdfrwt>
<pdfrwt beam="1">  1       -2 0.94539952E-02 0.91551120E+02</pdfrwt>
<totfact> 0.90416004E+04</totfact>
</mgrwt>
</event>
<event>
 5   1  0.1343823E+00  0.9252082E+02  0.7818608E-02  0.1296859E+00
         -2   -1    0    0    0  501 -0.00000000000E+00  0.00000000000E+00  0.20949208038E+02  0.20949208199E+02  0.26000000000E-02 0.  1.
          2   -1    0    0  501    0  0.00000000000E+00 -0.00000000000E+00 -0.10215304736E+03  0.10215304740E+03  0.26000000000E-02 0. -1.
         23    2    1    2    0    0  0.00000000000E+00  0.00000000000E+00 -0.81203839326E+02  0.12310225560E+03  0.92520818261E+02 0.  0.
        -13    1    3    3    0    0  0.15008194018E+02  0.11829204336E+02 -0.96655833762E+02  0.98526835612E+02  0.10570000000E+00 0. -1.
         13    1    3    3    0    0 -0.15008194018E+02 -0.11829204336E+02  0.15451994436E+02  0.24575419985E+02  0.10570000000E+00 0.  1.
<mgrwt>
<rscale>  0 0.92520818E+02</rscale>
<asrwt>0</asrwt>
<pdfrwt beam="2">  1        2 0.15715853E-01 0.92520818E+02</pdfrwt>
<pdfrwt beam="1">  1       -2 0.32229552E-02 0.92520818E+02</pdfrwt>
<totfact> 0.11859622E+05</totfact>
</mgrwt>
</event>
<event>
 5   1  0.1343823E+00  0.9460364E+02  0.7818608E-02  0.1292071E+00
         -2   -1    0    0    0  501 -0.00000000000E+00  0.00000000000E+00  0.36500772925E+02  0.36500773017E+02  0.26000000000E-02 0.  1.
          2   -1    0    0  501    0  0.00000000000E+00 -0.00000000000E+00 -0.61299040708E+02  0.61299040763E+02  0.26000000000E-02 0. -1.
         23    2    1    2    0    0  0.00000000000E+00  0.00000000000E+00 -0.24798267783E+02  0.97799813781E+02  0.94603644171E+02 0.  0.
        -13    1    3    3    0    0  0.14758988294E+02  0.28795085452E+02  0.23269687134E+02  0.39855667018E+02  0.10570000000E+00 0.  1.
         13    1    3    3    0    0 -0.14758988294E+02 -0.28795085452E+02 -0.48067954917E+02  0.57944146763E+02  0.10570000000E+00 0. -1.
<mgrwt>
<rscale>  0 0.94603644E+02</rscale>
<asrwt>0</asrwt>
<pdfrwt beam="2">  1        2 0.94306217E-02 0.94603644E+02</pdfrwt>
<pdfrwt beam="1">  1       -2 0.56155035E-02 0.94603644E+02</pdfrwt>
<totfact> 0.96107804E+04</totfact>
</mgrwt>
</event>
<event>
 5   1  0.1343823E+00  0.9130915E+02  0.7818608E-02  0.1299712E+00
          2   -1    0    0  501    0  0.00000000000E+00  0.00000000000E+00  0.68983675242E+02  0.68983675291E+02  0.26000000000E-02 0.  1.
         -2   -1    0    0    0  501 -0.00000000000E+00 -0.00000000000E+00 -0.30214978550E+02  0.30214978662E+02  0.26000000000E-02 0. -1.
         23    2    1    2    0    0  0.00000000000E+00  0.00000000000E+00  0.38768696692E+02  0.99198653953E+02  0.91309151254E+02 0.  0.
        -13    1    3    3    0    0  0.15701522939E+02 -0.10215834565E+02  0.64616201121E+02  0.67276784393E+02  0.10570000000E+00 0.  1.
         13    1    3    3    0    0 -0.15701522939E+02  0.10215834565E+02 -0.25847504429E+02  0.31921869559E+02  0.10570000000E+00 0. -1.
<mgrwt>
<rscale>  0 0.91309151E+02</rscale>
<asrwt>0</asrwt>
<pdfrwt beam="1">  1        2 0.10612873E-01 0.91309151E+02</pdfrwt>
<pdfrwt beam="2">  1       -2 0.46484582E-02 0.91309151E+02</pdfrwt>
<totfact> 0.10972607E+05</totfact>
</mgrwt>
</event>
<event>
 5   1  0.1343823E+00  0.9216470E+02  0.7818608E-02  0.1297693E+00
         -2   -1    0    0    0  501 -0.00000000000E+00  0.00000000000E+00  0.90867061630E+01  0.90867065350E+01  0.26000000000E-02 0.  1.
          2   -1    0    0  501    0  0.00000000000E+00 -0.00000000000E+00 -0.23370219155E+03  0.23370219157E+03  0.26000000000E-02 0. -1.
         23    2    1    2    0    0  0.00000000000E+00  0.00000000000E+00 -0.22461548539E+03  0.24278889810E+03  0.92164704550E+02 0.  0.
        -13    1    3    3    0    0 -0.40410929023E+02  0.12365232273E+02 -0.16071211765E+03  0.16617562422E+03  0.10570000000E+00 0. -1.
         13    1    3    3    0    0  0.40410929023E+02 -0.12365232273E+02 -0.63903367741E+02  0.76613273881E+02  0.10570000000E+00 0.  1.
<mgrwt>
<rscale>  0 0.92164705E+02</rscale>
<asrwt>0</asrwt>
<pdfrwt beam="2">  1        2 0.35954179E-01 0.92164705E+02</pdfrwt>
<pdfrwt beam="1">  1       -2 0.13979550E-02 0.92164705E+02</pdfrwt>
<totfact> 0.15906285E+05</totfact>
</mgrwt>
</event>
<event>
 5   1  0.1343823E+00  0.9155951E+02  0.7818608E-02  0.1299118E+00
         -2   -1    0    0    0  501 -0.00000000000E+00  0.00000000000E+00  0.78789837747E+01  0.78789842036E+01  0.26000000000E-02 0.  1.
          2   -1    0    0  501    0  0.00000000000E+00 -0.00000000000E+00 -0.26599698030E+03  0.26599698031E+03  0.26000000000E-02 0. -1.
         23    2    1    2    0    0  0.00000000000E+00  0.00000000000E+00 -0.25811799653E+03  0.27387596452E+03  0.91559509662E+02 0.  0.
        -13    1    3    3    0    0  0.26384900207E+02 -0.35610174503E+02 -0.94753920942E+02  0.10460671199E+03  0.10570000000E+00 0.  1.
         13    1    3    3    0    0 -0.26384900207E+02  0.35610174503E+02 -0.16336407559E+03  0.16926925253E+03  0.10570000000E+00 0. -1.
<mgrwt>
<rscale>  0 0.91559510E+02</rscale>
<asrwt>0</asrwt>
<pdfrwt beam="2">  1        2 0.40922606E-01 0.91559510E+02</pdfrwt>
<pdfrwt beam="1">  1       -2 0.12121516E-02 0.91559510E+02</pdfrwt>
<totfact> 0.16986128E+05</totfact>
</mgrwt>
</event>
<event>
 5   1  0.1343823E+00  0.7673481E+02  0.7818608E-02  0.1338582E+00
         -2   -1    0    0    0  501 -0.00000000000E+00  0.00000000000E+00  0.64694769605E+02  0.64694769658E+02  0.26000000000E-02 0.  1.
          2   -1    0    0  501    0  0.00000000000E+00 -0.00000000000E+00 -0.22753888573E+02  0.22753888721E+02  0.26000000000E-02 0. -1.
         23    2    1    2    0    0  0.00000000000E+00  0.00000000000E+00  0.41940881032E+02  0.87448658379E+02  0.76734805340E+02 0.  0.
        -13    1    3    3    0    0 -0.78022405675E+01  0.35949811095E+02  0.33390882722E+02  0.49681244922E+02  0.10570000000E+00 0. -1.
         13    1    3    3    0    0  0.78022405675E+01 -0.35949811095E+02  0.85499983107E+01  0.37767413457E+02  0.10570000000E+00 0.  1.
<mgrwt>
<rscale>  0 0.76734805E+02</rscale>
<asrwt>0</asrwt>
<pdfrwt beam="2">  1        2 0.35005983E-02 0.76734805E+02</pdfrwt>
<pdfrwt beam="1">  1       -2 0.99530413E-02 0.76734805E+02</pdfrwt>
<totfact> 0.13701239E+05</totfact>
</mgrwt>
</event>
<event>
 5   1  0.1343823E+00  0.9672306E+02  0.7818608E-02  0.1287342E+00
          2   -1    0    0  501    0  0.00000000000E+00  0.00000000000E+00  0.24594545403E+03  0.24594545404E+03  0.26000000000E-02 0. -1.
         -2   -1    0    0    0  501 -0.00000000000E+00 -0.00000000000E+00 -0.95095784716E+01  0.95095788271E+01  0.26000000000E-02 0.  1.
         23    2    1    2    0    0  0.00000000000E+00  0.00000000000E+00  0.23643587556E+03  0.25545503287E+03  0.96723061200E+02 0.  0.
        -13    1    3    3    0    0 -0.76778040813E+01  0.38314169329E+02  0.42962775699E+02  0.58075257340E+02  0.10570000000E+00 0.  1.
         13    1    3    3    0    0  0.76778040813E+01 -0.38314169329E+02  0.19347309986E+03  0.19737977553E+03  0.10570000000E+00 0. -1.
<mgrwt>
<rscale>  0 0.96723061E+02</rscale>
<asrwt>0</asrwt>
<pdfrwt beam="1">  1        2 0.37837763E-01 0.96723061E+02</pdfrwt>
<pdfrwt beam="2">  1       -2 0.14630121E-02 0.96723061E+02</pdfrwt>
<totfact> 0.14234401E+05</totfact>
</mgrwt>
</event>
<event>
 5   1  0.1343823E+00  0.8860144E+02  0.7818608E-02  0.1306274E+00
          2   -1    0    0  501    0  0.00000000000E+00  0.00000000000E+00  0.19744626647E+02  0.19744626818E+02  0.26000000000E-02 0. -1.
         -2   -1    0    0    0  501 -0.00000000000E+00 -0.00000000000E+00 -0.99396859834E+02  0.99396859868E+02  0.26000000000E-02 0.  1.
         23    2    1    2    0    0  0.00000000000E+00  0.00000000000E+00 -0.79652233188E+02  0.11914148669E+03  0.88601442415E+02 0.  0.
        -13    1    3    3    0    0 -0.43923938912E+02 -0.52265870643E+01 -0.43095983102E+02  0.61756817874E+02  0.10570000000E+00 0. -1.
         13    1    3    3    0    0  0.43923938912E+02  0.52265870643E+01 -0.36556250085E+02  0.57384668812E+02  0.10570000000E+00 0.  1.
<mgrwt>
<rscale>  0 0.88601442E+02</rscale>
<asrwt>0</asrwt>
<pdfrwt beam="1">  1        2 0.30376349E-02 0.88601442E+02</pdfrwt>
<pdfrwt beam="2">  1       -2 0.15291824E-01 0.88601442E+02</pdfrwt>
<totfact> 0.85852944E+04</totfact>
</mgrwt>
</event>
<event>
 5   1  0.1343823E+00  0.8985811E+02  0.7818608E-02  0.1303196E+00
         -2   -1    0    0    0  501 -0.00000000000E+00  0.00000000000E+00  0.15537280992E+03  0.15537280994E+03  0.26000000000E-02 0.  1.
          2   -1    0    0  501    0  0.00000000000E+00 -0.00000000000E+00 -0.12992106723E+02  0.12992106984E+02  0.26000000000E-02 0. -1.
         23    2    1    2    0    0  0.00000000000E+00  0.00000000000E+00  0.14238070319E+03  0.16836491692E+03  0.89858113759E+02 0.  0.
        -13    1    3    3    0    0  0.30334553505E+01  0.44799977441E+02  0.74074320293E+02  0.86621336456E+02  0.10570000000E+00 0.  1.
         13    1    3    3    0    0 -0.30334553505E+01 -0.44799977441E+02  0.68306382901E+02  0.81743580467E+02  0.10570000000E+00 0. -1.
<mgrwt>
<rscale>  0 0.89858114E+02</rscale>
<asrwt>0</asrwt>
<pdfrwt beam="2">  1        2 0.19987856E-02 0.89858114E+02</pdfrwt>
<pdfrwt beam="1">  1       -2 0.23903511E-01 0.89858114E+02</pdfrwt>
<totfact> 0.71550347E+04</totfact>
</mgrwt>
</event>
<event>
 5   1  0.1343823E+00  0.9051737E+02  0.7818608E-02  0.1301604E+00
          2   -1    0    0  501    0  0.00000000000E+00  0.00000000000E+00  0.88947252531E+02  0.88947252569E+02  0.26000000000E-02 0. -1.
         -2   -1    0    0    0  501 -0.00000000000E+00 -0.00000000000E+00 -0.23028801312E+02  0.23028801459E+02  0.26000000000E-02 0.  1.
         23    2    1    2    0    0  0.00000000000E+00  0.00000000000E+00  0.65918451219E+02  0.11197605403E+03  0.90517371065E+02 0.  0.
        -13    1    3    3    0    0 -0.45252460101E+02 -0.49313849875E+00  0.33647009170E+02  0.56392913822E+02  0.10570000000E+00 0.  1.
         13    1    3    3    0    0  0.45252460101E+02  0.49313849875E+00  0.32271442049E+02  0.55583140206E+02  0.10570000000E+00 0. -1.
<mgrwt>
<rscale>  0 0.90517371E+02</rscale>
<asrwt>0</asrwt>
<pdfrwt beam="1">  1        2 0.13684193E-01 0.90517371E+02</pdfrwt>
<pdfrwt beam="2">  1       -2 0.35428926E-02 0.90517371E+02</pdfrwt>
<totfact> 0.12084604E+05</totfact>
</mgrwt>
</event>
<event>
 5   1  0.1343823E+00  0.9106884E+02  0.7818608E-02  0.1300284E+00
          2   -1    0    0  501    0  0.00000000000E+00  0.00000000000E+00  0.30689860916E+02  0.30689861026E+02  0.26000000000E-02 0. -1.
         -2   -1    0    0    0  501 -0.00000000000E+00 -0.00000000000E+00 -0.67559233114E+02  0.67559233164E+02  0.26000000000E-02 0.  1.
         23    2    1    2    0    0  0.00000000000E+00  0.00000000000E+00 -0.36869372199E+02  0.98249094190E+02  0.91068841559E+02 0.  0.
        -13    1    3    3    0    0  0.19803977578E+02  0.27537418058E+02  0.14339198528E+02  0.36825680009E+02  0.10570000000E+00 0. -1.
         13    1    3    3    0    0 -0.19803977578E+02 -0.27537418058E+02 -0.51208570727E+02  0.61423414181E+02  0.10570000000E+00 0.  1.
<mgrwt>
<rscale>  0 0.91068842E+02</rscale>
<asrwt>0</asrwt>
<pdfrwt beam="1">  1        2 0.47215171E-02 0.91068842E+02</pdfrwt>
<pdfrwt beam="2">  1       -2 0.10393728E-01 0.91068842E+02</pdfrwt>
<totfact> 0.89316787E+04</totfact>
</mgrwt>
</event>
<event>
 5   1  0.1343823E+00  0.9142407E+02  0.7818608E-02  0.1299439E+00
         -2   -1    0    0    0  501 -0.00000000000E+00  0.00000000000E+00  0.34969788999E+02  0.34969789096E+02  0.26000000000E-02 0.  1.
          2   -1    0    0  501    0  0.00000000000E+00 -0.00000000000E+00 -0.59754151678E+02  0.59754151735E+02  0.26000000000E-02 0. -1.
         23    2    1    2    0    0  0.00000000000E+00  0.00000000000E+00 -0.24784362679E+02  0.94723940831E+02  0.91424068675E+02 0.  0.
        -13    1    3    3    0    0  0.14509927864E+02 -0.10857251871E+02 -0.55873102981E+02  0.58738681753E+02  0.10570000000E+00 0. -1.
         13    1    3    3    0    0 -0.14509927864E+02  0.10857251871E+02  0.31088740303E+02  0.35985259078E+02  0.10570000000E+00 0.  1.
<mgrwt>
<rscale>  0 0.91424069E+02</rscale>
<asrwt>0</asrwt>
<pdfrwt beam="2">  1        2 0.91929464E-02 0.91424069E+02</pdfrwt>
<pdfrwt beam="1">  1       -2 0.53799675E-02 0.91424069E+02</pdfrwt>
<totfact> 0.10514522E+05</totfact>
</mgrwt>
</event>
<event>
 5   1  0.1343823E+00  0.9237613E+02  0.7818608E-02  0.1297197E+00
         -2   -1    0    0    0  501 -0.00000000000E+00  0.00000000000E+00  0.25082856171E+02  0.25082856306E+02  0.26000000000E-02 0.  1.
          2   -1    0    0  501    0  0.00000000000E+00 -0.00000000000E+00 -0.85051616904E+02  0.85051616943E+02  0.26000000000E-02 0. -1.
         23    2    1    2    0    0  0.00000000000E+00  0.00000000000E+00 -0.59968760733E+02  0.11013447325E+03  0.92376132924E+02 0.  0.
        -13    1    3    3    0    0 -0.22050845221E+02 -0.40561925408E+01 -0.78128331151E+02  0.81281853902E+02  0.10570000000E+00 0. -1.
         13    1    3    3    0    0  0.22050845221E+02  0.40561925408E+01  0.18159570418E+02  0.28852619347E+02  0.10570000000E+00 0.  1.
<mgrwt>
<rscale>  0 0.92376133E+02</rscale>
<asrwt>0</asrwt>
<pdfrwt beam="2">  1        2 0.13084864E-01 0.92376133E+02</pdfrwt>
<pdfrwt beam="1">  1       -2 0.38589010E-02 0.92376133E+02</pdfrwt>
<totfact> 0.11273615E+05</totfact>
</mgrwt>
</event>
<event>
 5   1  0.1343823E+00  0.7918267E+02  0.7818608E-02  0.1331387E+00
         -2   -1    0    0    0  501 -0.00000000000E+00  0.00000000000E+00  0.62868808555E+01  0.62868813932E+01  0.26000000000E-02 0. -1.
          2   -1    0    0  501    0  0.00000000000E+00 -0.00000000000E+00 -0.24932455089E+03  0.24932455090E+03  0.26000000000E-02 0.  1.
         23    2    1    2    0    0  0.00000000000E+00  0.00000000000E+00 -0.24303767003E+03  0.25561143229E+03  0.79182670231E+02 0.  0.
        -13    1    3    3    0    0 -0.17465426956E+02  0.32017206223E+02 -0.17124870346E+03  0.17508932646E+03  0.10570000000E+00 0.  1.
         13    1    3    3    0    0  0.17465426956E+02 -0.32017206223E+02 -0.71788966574E+02  0.80522105830E+02  0.10570000000E+00 0. -1.
<mgrwt>
<rscale>  0 0.79182670E+02</rscale>
<asrwt>0</asrwt>
<pdfrwt beam="2">  1        2 0.38357616E-01 0.79182670E+02</pdfrwt>
<pdfrwt beam="1">  1       -2 0.96721267E-03 0.79182670E+02</pdfrwt>
<totfact> 0.24389272E+05</totfact>
</mgrwt>
</event>
<event>
 5   1  0.1343823E+00  0.9467697E+02  0.7818608E-02  0.1291905E+00
         -2   -1    0    0    0  501 -0.00000000000E+00  0.00000000000E+00  0.52224412318E+02  0.52224412383E+02  0.26000000000E-02 0.  1.
          2   -1    0    0  501    0  0.00000000000E+00 -0.00000000000E+00 -0.42909666735E+02  0.42909666814E+02  0.26000000000E-02 0. -1.
         23    2    1    2    0    0  0.00000000000E+00  0.00000000000E+00  0.93147455827E+01  0.95134079197E+02  0.94676969424E+02 0.  0.
        -13    1    3    3    0    0 -0.30694912891E+02  0.22312336729E+02  0.33094237265E+02  0.50351343183E+02  0.10570000000E+00 0.  1.
         13    1    3    3    0    0  0.30694912891E+02 -0.22312336729E+02 -0.23779491683E+02  0.44782736014E+02  0.10570000000E+00 0. -1.
<mgrwt>
<rscale>  0 0.94676969E+02</rscale>
<asrwt>0</asrwt>
<pdfrwt beam="2">  1        2 0.66014872E-02 0.94676969E+02</pdfrwt>
<pdfrwt beam="1">  1       -2 0.80345250E-02 0.94676969E+02</pdfrwt>
<totfact> 0.87098801E+04</totfact>
</mgrwt>
</event>
<event>
 5   1  0.1343823E+00  0.9104877E+02  0.7818608E-02  0.1300332E+00
         -2   -1    0    0    0  501 -0.00000000000E+00  0.00000000000E+00  0.14394790556E+03  0.14394790558E+03  0.26000000000E-02 0.  1.
          2   -1    0    0  501    0  0.00000000000E+00 -0.00000000000E+00 -0.14397358048E+02  0.14397358283E+02  0.26000000000E-02 0. -1.
         23    2    1    2    0    0  0.00000000000E+00  0.00000000000E+00  0.12955054751E+03  0.15834526386E+03  0.91048768406E+02 0.  0.
        -13    1    3    3    0    0  0.67246209318E+01  0.43993523333E+02  0.81438945595E+02  0.92806053973E+02  0.10570000000E+00 0. -1.
         13    1    3    3    0    0 -0.67246209318E+01 -0.43993523333E+02  0.48111601914E+02  0.65539209891E+02  0.10570000000E+00 0.  1.
<mgrwt>
<rscale>  0 0.91048768E+02</rscale>
<asrwt>0</asrwt>
<pdfrwt beam="2">  1        2 0.22149782E-02 0.91048768E+02</pdfrwt>
<pdfrwt beam="1">  1       -2 0.22145831E-01 0.91048768E+02</pdfrwt>
<totfact> 0.71152490E+04</totfact>
</mgrwt>
</event>
<event>
 5   1  0.1343823E+00  0.9321529E+02  0.7818608E-02  0.1295247E+00
          2   -1    0    0  501    0  0.00000000000E+00  0.00000000000E+00  0.12973390820E+03  0.12973390822E+03  0.26000000000E-02 0. -1.
         -2   -1    0    0    0  501 -0.00000000000E+00 -0.00000000000E+00 -0.16744063172E+02  0.16744063373E+02  0.26000000000E-02 0.  1.
         23    2    1    2    0    0  0.00000000000E+00  0.00000000000E+00  0.11298984503E+03  0.14647797160E+03  0.93215294261E+02 0.  0.
        -13    1    3    3    0    0 -0.42518841553E+02 -0.17099209811E+02  0.43158725342E+02  0.62951740316E+02  0.10570000000E+00 0.  1.
         13    1    3    3    0    0  0.42518841553E+02  0.17099209811E+02  0.69831119685E+02  0.83526231282E+02  0.10570000000E+00 0. -1.
<mgrwt>
<rscale>  0 0.93215294E+02</rscale>
<asrwt>0</asrwt>
<pdfrwt beam="1">  1        2 0.19959062E-01 0.93215294E+02</pdfrwt>
<pdfrwt beam="2">  1       -2 0.25760098E-02 0.93215294E+02</pdfrwt>
<totfact> 0.12538061E+05</totfact>
</mgrwt>
</event>
<event>
 5   1  0.1343823E+00  0.9117619E+02  0.7818608E-02  0.1300028E+00
         -2   -1    0    0    0  501 -0.00000000000E+00  0.00000000000E+00  0.21796154882E+02  0.21796155037E+02  0.26000000000E-02 0.  1.
          2   -1    0    0  501    0  0.00000000000E+00 -0.00000000000E+00 -0.95350499652E+02  0.95350499687E+02  0.26000000000E-02 0. -1.
         23    2    1    2    0    0  0.00000000000E+00  0.00000000000E+00 -0.73554344770E+02  0.11714665472E+03  0.91176187015E+02 0.  0.
        -13    1    3    3    0    0  0.11894232284E+02 -0.13420715419E+02  0.17073873508E+02  0.24761193288E+02  0.10570000000E+00 0.  1.
         13    1    3    3    0    0 -0.11894232284E+02  0.13420715419E+02 -0.90628218278E+02  0.92385461436E+02  0.10570000000E+00 0. -1.
<mgrwt>
<rscale>  0 0.91176187E+02</rscale>
<asrwt>0</asrwt>
<pdfrwt beam="2">  1        2 0.14669307E-01 0.91176187E+02</pdfrwt>
<pdfrwt beam="1">  1       -2 0.33532547E-02 0.91176187E+02</pdfrwt>
<totfact> 0.12092450E+05</totfact>
</mgrwt>
</event>
<event>
 4   1  0.1343823E+00  0.1662543E+03  0.7818608E-02  0.1181811E+00
          2   -1    0    0  501    0  0.00000000000E+00  0.00000000000E+00  0.10656377770E+03  0.10656377773E+03  0.26000000000E-02 0. -1.
         -2   -1    0    0    0  501 -0.00000000000E+00 -0.00000000000E+00 -0.64844955261E+02  0.64844955313E+02  0.26000000000E-02 0.  1.
        -13    1    1    2    0    0  0.64129706916E+02  0.52890592629E+02  0.20571219638E+02  0.85634224161E+02  0.10570000000E+00 0.  1.
         13    1    1    2    0    0 -0.64129706916E+02 -0.52890592629E+02  0.21147602804E+02  0.85774508886E+02  0.10570000000E+00 0. -1.
<mgrwt>
<rscale>  0 0.16625430E+03</rscale>
<asrwt>0</asrwt>
<pdfrwt beam="1">  1        2 0.16394427E-01 0.16625430E+03</pdfrwt>
<pdfrwt beam="2">  1       -2 0.99761471E-02 0.16625430E+03</pdfrwt>
<totfact> 0.22042750E+04</totfact>
</mgrwt>
</event>
<event>
 5   1  0.1343823E+00  0.8597224E+02  0.7818608E-02  0.1312909E+00
         -2   -1    0    0    0  501 -0.00000000000E+00  0.00000000000E+00  0.14749203291E+02  0.14749203520E+02  0.26000000000E-02 0. -1.
          2   -1    0    0  501    0  0.00000000000E+00 -0.00000000000E+00 -0.12528178346E+03  0.12528178349E+03  0.26000000000E-02 0.  1.
         23    2    1    2    0    0  0.00000000000E+00  0.00000000000E+00 -0.11053258017E+03  0.14003098701E+03  0.85972239959E+02 0.  0.
        -13    1    3    3    0    0 -0.21714189094E+02  0.18909124614E+02 -0.32790957403E+01  0.28979728139E+02  0.10570000000E+00 0. -1.
         13    1    3    3    0    0  0.21714189094E+02 -0.18909124614E+02 -0.10725348443E+03  0.11105125887E+03  0.10570000000E+00 0.  1.
<mgrwt>
<rscale>  0 0.85972240E+02</rscale>
<asrwt>0</asrwt>
<pdfrwt beam="2">  1        2 0.19274120E-01 0.85972240E+02</pdfrwt>
<pdfrwt beam="1">  1       -2 0.22691083E-02 0.85972240E+02</pdfrwt>
<totfact> 0.15448395E+05</totfact>
</mgrwt>
</event>
<event>
 5   1  0.1343823E+00  0.9389993E+02  0.7818608E-02  0.1293673E+00
         -2   -1    0    0    0  501 -0.00000000000E+00  0.00000000000E+00  0.20899562626E+02  0.20899562787E+02  0.26000000000E-02 0.  1.
          2   -1    0    0  501    0  0.00000000000E+00 -0.00000000000E+00 -0.10547107541E+03  0.10547107545E+03  0.26000000000E-02 0. -1.
         23    2    1    2    0    0  0.00000000000E+00  0.00000000000E+00 -0.84571512788E+02  0.12637063823E+03  0.93899933078E+02 0.  0.
        -13    1    3    3    0    0 -0.14575844602E+02 -0.27283318112E+02  0.52470085676E+01  0.31374782302E+02  0.10570000000E+00 0.  1.
         13    1    3    3    0    0  0.14575844602E+02  0.27283318112E+02 -0.89818521355E+02  0.94995855931E+02  0.10570000000E+00 0. -1.
<mgrwt>
<rscale>  0 0.93899933E+02</rscale>
<asrwt>0</asrwt>
<pdfrwt beam="2">  1        2 0.16226319E-01 0.93899933E+02</pdfrwt>
<pdfrwt beam="1">  1       -2 0.32153174E-02 0.93899933E+02</pdfrwt>
<totfact> 0.11498463E+05</totfact>
</mgrwt>
</event>
<event>
 5   1  0.1343823E+00  0.9158767E+02  0.7818608E-02  0.1299052E+00
          2   -1    0    0  501    0  0.00000000000E+00  0.00000000000E+00  0.83159004999E+02  0.83159005040E+02  0.26000000000E-02 0. -1.
         -2   -1    0    0    0  501 -0.00000000000E+00 -0.00000000000E+00 -0.25217656295E+02  0.25217656429E+02  0.26000000000E-02 0.  1.
         23    2    1    2    0    0  0.00000000000E+00  0.00000000000E+00  0.57941348704E+02  0.10837666147E+03  0.91587667627E+02 0.  0.
        -13    1    3    3    0    0 -0.17275065981E+01 -0.13334117713E+02 -0.22829160322E+02  0.26494616580E+02  0.10570000000E+00 0.  1.
         13    1    3    3    0    0  0.17275065981E+01  0.13334117713E+02  0.80770509027E+02  0.81882044889E+02  0.10570000000E+00 0. -1.
<mgrwt>
<rscale>  0 0.91587668E+02</rscale>
<asrwt>0</asrwt>
<pdfrwt beam="1">  1        2 0.12793693E-01 0.91587668E+02</pdfrwt>
<pdfrwt beam="2">  1       -2 0.38796394E-02 0.91587668E+02</pdfrwt>
<totfact> 0.11470021E+05</totfact>
</mgrwt>
</event>
<event>
 5   1  0.1343823E+00  0.9103044E+02  0.7818608E-02  0.1300375E+00
          2   -1    0    0  501    0  0.00000000000E+00  0.00000000000E+00  0.10608967039E+03  0.10608967042E+03  0.26000000000E-02 0. -1.
         -2   -1    0    0    0  501 -0.00000000000E+00 -0.00000000000E+00 -0.19527208641E+02  0.19527208814E+02  0.26000000000E-02 0.  1.
         23    2    1    2    0    0  0.00000000000E+00  0.00000000000E+00  0.86562461746E+02  0.12561687923E+03  0.91030437573E+02 0.  0.
        -13    1    3    3    0    0  0.11114267840E+02  0.12685790169E+02  0.10161822240E+03  0.10300840023E+03  0.10570000000E+00 0. -1.
         13    1    3    3    0    0 -0.11114267840E+02 -0.12685790169E+02 -0.15055760649E+02  0.22608479008E+02  0.10570000000E+00 0.  1.
<mgrwt>
<rscale>  0 0.91030438E+02</rscale>
<asrwt>0</asrwt>
<pdfrwt beam="1">  1        2 0.16321488E-01 0.91030438E+02</pdfrwt>
<pdfrwt beam="2">  1       -2 0.30041860E-02 0.91030438E+02</pdfrwt>
<totfact> 0.12547623E+05</totfact>
</mgrwt>
</event>
<event>
 5   1  0.1343823E+00  0.9160066E+02  0.7818608E-02  0.1299021E+00
          2   -1    0    0  501    0  0.00000000000E+00  0.00000000000E+00  0.13833705879E+03  0.13833705882E+03  0.26000000000E-02 0. -1.
         -2   -1    0    0    0  501 -0.00000000000E+00 -0.00000000000E+00 -0.15163474020E+02  0.15163474243E+02  0.26000000000E-02 0.  1.
         23    2    1    2    0    0  0.00000000000E+00  0.00000000000E+00  0.12317358477E+03  0.15350053306E+03  0.91600664102E+02 0.  0.
        -13    1    3    3    0    0 -0.43057533313E+02 -0.15526603345E+02  0.64305787395E+02  0.78932072387E+02  0.10570000000E+00 0.  1.
         13    1    3    3    0    0  0.43057533313E+02  0.15526603345E+02  0.58867797378E+02  0.74568460673E+02  0.10570000000E+00 0. -1.
<mgrwt>
<rscale>  0 0.91600664E+02</rscale>
<asrwt>0</asrwt>
<pdfrwt beam="1">  1        2 0.21282625E-01 0.91600664E+02</pdfrwt>
<pdfrwt beam="2">  1       -2 0.23328422E-02 0.91600664E+02</pdfrwt>
<totfact> 0.13434139E+05</totfact>
</mgrwt>
</event>
<event>
 5   1  0.1343823E+00  0.9077390E+02  0.7818608E-02  0.1300988E+00
          2   -1    0    0  501    0  0.00000000000E+00  0.00000000000E+00  0.91440531327E+02  0.91440531364E+02  0.26000000000E-02 0. -1.
         -2   -1    0    0    0  501 -0.00000000000E+00 -0.00000000000E+00 -0.22528031406E+02  0.22528031556E+02  0.26000000000E-02 0.  1.
         23    2    1    2    0    0  0.00000000000E+00  0.00000000000E+00  0.68912499921E+02  0.11396856292E+03  0.90773898719E+02 0.  0.
        -13    1    3    3    0    0  0.21166368015E+02  0.15508481315E+01  0.84826658621E+02  0.87441371502E+02  0.10570000000E+00 0. -1.
         13    1    3    3    0    0 -0.21166368015E+02 -0.15508481315E+01 -0.15914158700E+02  0.26527191418E+02  0.10570000000E+00 0.  1.
<mgrwt>
<rscale>  0 0.90773899E+02</rscale>
<asrwt>0</asrwt>
<pdfrwt beam="1">  1        2 0.14067774E-01 0.90773899E+02</pdfrwt>
<pdfrwt beam="2">  1       -2 0.34658511E-02 0.90773899E+02</pdfrwt>
<totfact> 0.12088850E+05</totfact>
</mgrwt>
</event>
<event>
 5   1  0.1343823E+00  0.9205551E+02  0.7818608E-02  0.1297949E+00
          2   -1    0    0  501    0  0.00000000000E+00  0.00000000000E+00  0.49016833941E+02  0.49016834010E+02  0.26000000000E-02 0. -1.
         -2   -1    0    0    0  501 -0.00000000000E+00 -0.00000000000E+00 -0.43220949922E+02  0.43220950001E+02  0.26000000000E-02 0.  1.
         23    2    1    2    0    0  0.00000000000E+00  0.00000000000E+00  0.57958840189E+01  0.92237784011E+02  0.92055507862E+02 0.  0.
        -13    1    3    3    0    0 -0.44673164828E+02 -0.92159966923E+01 -0.32719050409E+01  0.45731201448E+02  0.10570000000E+00 0.  1.
         13    1    3    3    0    0  0.44673164828E+02  0.92159966923E+01  0.90677890598E+01  0.46506582563E+02  0.10570000000E+00 0. -1.
<mgrwt>
<rscale>  0 0.92055508E+02</rscale>
<asrwt>0</asrwt>
<pdfrwt beam="1">  1        2 0.75410514E-02 0.92055508E+02</pdfrwt>
<pdfrwt beam="2">  1       -2 0.66493769E-02 0.92055508E+02</pdfrwt>
<totfact> 0.97832106E+04</totfact>
</mgrwt>
</event>
<event>
 5   1  0.1343823E+00  0.9019367E+02  0.7818608E-02  0.1302383E+00
         -2   -1    0    0    0  501 -0.00000000000E+00  0.00000000000E+00  0.77617761124E+02  0.77617761167E+02  0.26000000000E-02 0. -1.
          2   -1    0    0  501    0  0.00000000000E+00 -0.00000000000E+00 -0.26201794201E+02  0.26201794330E+02  0.26000000000E-02 0.  1.
         23    2    1    2    0    0  0.00000000000E+00  0.00000000000E+00  0.51415966922E+02  0.10381955550E+03  0.90193671891E+02 0.  0.
        -13    1    3    3    0    0  0.91516492764E+01 -0.44105925384E+02  0.28184290692E+02  0.53136152973E+02  0.10570000000E+00 0.  1.
         13    1    3    3    0    0 -0.91516492764E+01  0.44105925384E+02  0.23231676231E+02  0.50683402525E+02  0.10570000000E+00 0. -1.
<mgrwt>
<rscale>  0 0.90193672E+02</rscale>
<asrwt>0</asrwt>
<pdfrwt beam="2">  1        2 0.40310453E-02 0.90193672E+02</pdfrwt>
<pdfrwt beam="1">  1       -2 0.11941194E-01 0.90193672E+02</pdfrwt>
<totfact> 0.88099148E+04</totfact>
</mgrwt>
</event>
<event>
 5   1  0.1343823E+00  0.9158984E+02  0.7818608E-02  0.1299047E+00
         -2   -1    0    0    0  501 -0.00000000000E+00  0.00000000000E+00  0.52665099067E+02  0.52665099131E+02  0.26000000000E-02 0.  1.
          2   -1    0    0  501    0  0.00000000000E+00 -0.00000000000E+00 -0.39820958268E+02  0.39820958353E+02  0.26000000000E-02 0. -1.
         23    2    1    2    0    0  0.00000000000E+00  0.00000000000E+00  0.12844140798E+02  0.92486057484E+02  0.91589840463E+02 0.  0.
        -13    1    3    3    0    0 -0.25099050737E+02 -0.35351196689E+02  0.21314059013E+02  0.48311176133E+02  0.10570000000E+00 0.  1.
         13    1    3    3    0    0  0.25099050737E+02  0.35351196689E+02 -0.84699182148E+01  0.44174881351E+02  0.10570000000E+00 0. -1.
<mgrwt>
<rscale>  0 0.91589840E+02</rscale>
<asrwt>0</asrwt>
<pdfrwt beam="2">  1        2 0.61263013E-02 0.91589840E+02</pdfrwt>
<pdfrwt beam="1">  1       -2 0.81023229E-02 0.91589840E+02</pdfrwt>
<totfact> 0.94036328E+04</totfact>
</mgrwt>
</event>
<event>
 5   1  0.1343823E+00  0.9166660E+02  0.7818608E-02  0.1298865E+00
          2   -1    0    0  501    0  0.00000000000E+00  0.00000000000E+00  0.24062187638E+03  0.24062187640E+03  0.26000000000E-02 0. -1.
         -2   -1    0    0    0  501 -0.00000000000E+00 -0.00000000000E+00 -0.87302594187E+01  0.87302598058E+01  0.26000000000E-02 0.  1.
         23    2    1    2    0    0  0.00000000000E+00  0.00000000000E+00  0.23189161696E+03  0.24935213620E+03  0.91666601391E+02 0.  0.
        -13    1    3    3    0    0  0.32521750419E+02  0.31700303110E+02  0.13273784133E+03  0.14029226337E+03  0.10570000000E+00 0.  1.
         13    1    3    3    0    0 -0.32521750419E+02 -0.31700303110E+02  0.99153775629E+02  0.10905987283E+03  0.10570000000E+00 0. -1.
<mgrwt>
<rscale>  0 0.91666601E+02</rscale>
<asrwt>0</asrwt>
<pdfrwt beam="1">  1        2 0.37018744E-01 0.91666601E+02</pdfrwt>
<pdfrwt beam="2">  1       -2 0.13431171E-02 0.91666601E+02</pdfrwt>
<totfact> 0.16314298E+05</totfact>
</mgrwt>
</event>
<event>
 5   1  0.1343823E+00  0.9309979E+02  0.7818608E-02  0.1295514E+00
          2   -1    0    0  501    0  0.00000000000E+00  0.00000000000E+00  0.63418382221E+02  0.63418382274E+02  0.26000000000E-02 0.  1.
         -2   -1    0    0    0  501 -0.00000000000E+00 -0.00000000000E+00 -0.34168210008E+02  0.34168210107E+02  0.26000000000E-02 0. -1.
         23    2    1    2    0    0  0.00000000000E+00  0.00000000000E+00  0.29250172213E+02  0.97586592382E+02  0.93099787530E+02 0.  0.
        -13    1    3    3    0    0  0.34813566703E+02  0.27352062610E+02 -0.44710843344E+00  0.44275623474E+02  0.10570000000E+00 0.  1.
         13    1    3    3    0    0 -0.34813566703E+02 -0.27352062610E+02  0.29697280646E+02  0.53310968907E+02  0.10570000000E+00 0. -1.
<mgrwt>
<rscale>  0 0.93099788E+02</rscale>
<asrwt>0</asrwt>
<pdfrwt beam="1">  1        2 0.97566741E-02 0.93099788E+02</pdfrwt>
<pdfrwt beam="2">  1       -2 0.52566478E-02 0.93099788E+02</pdfrwt>
<totfact> 0.10151273E+05</totfact>
</mgrwt>
</event>
<event>
 5   1  0.1343823E+00  0.9100101E+02  0.7818608E-02  0.1300446E+00
         -2   -1    0    0    0  501 -0.00000000000E+00  0.00000000000E+00  0.85210640593E+02  0.85210640633E+02  0.26000000000E-02 0.  1.
          2   -1    0    0  501    0  0.00000000000E+00 -0.00000000000E+00 -0.24296211857E+02  0.24296211996E+02  0.26000000000E-02 0. -1.
         23    2    1    2    0    0  0.00000000000E+00  0.00000000000E+00  0.60914428736E+02  0.10950685263E+03  0.91001006283E+02 0.  0.
        -13    1    3    3    0    0  0.38747165280E+01  0.45023886078E+02  0.36838518779E+02  0.58303099266E+02  0.10570000000E+00 0.  1.
         13    1    3    3    0    0 -0.38747165280E+01 -0.45023886078E+02  0.24075909958E+02  0.51203753363E+02  0.10570000000E+00 0. -1.
<mgrwt>
<rscale>  0 0.91001006E+02</rscale>
<asrwt>0</asrwt>
<pdfrwt beam="2">  1        2 0.37378788E-02 0.91001006E+02</pdfrwt>
<pdfrwt beam="1">  1       -2 0.13109329E-01 0.91001006E+02</pdfrwt>
<totfact> 0.83994028E+04</totfact>
</mgrwt>
</event>
<event>
 5   1  0.1343823E+00  0.9259226E+02  0.7818608E-02  0.1296693E+00
          2   -1    0    0  501    0  0.00000000000E+00  0.00000000000E+00  0.91106546352E+02  0.91106546389E+02  0.26000000000E-02 0. -1.
         -2   -1    0    0    0  501 -0.00000000000E+00 -0.00000000000E+00 -0.23525548726E+02  0.23525548870E+02  0.26000000000E-02 0.  1.
         23    2    1    2    0    0  0.00000000000E+00  0.00000000000E+00  0.67580997626E+02  0.11463209526E+03  0.92592256822E+02 0.  0.
        -13    1    3    3    0    0  0.16032422989E+02 -0.42053008311E+02  0.20351943982E+02  0.49393389145E+02  0.10570000000E+00 0. -1.
         13    1    3    3    0    0 -0.16032422989E+02  0.42053008311E+02  0.47229053644E+02  0.65238706115E+02  0.10570000000E+00 0.  1.
<mgrwt>
<rscale>  0 0.92592257E+02</rscale>
<asrwt>0</asrwt>
<pdfrwt beam="1">  1        2 0.14016392E-01 0.92592257E+02</pdfrwt>
<pdfrwt beam="2">  1       -2 0.36193152E-02 0.92592257E+02</pdfrwt>
<totfact> 0.11430765E+05</totfact>
</mgrwt>
</event>
<event>
 5   1  0.1343823E+00  0.8996620E+02  0.7818608E-02  0.1302934E+00
         -2   -1    0    0    0  501 -0.00000000000E+00  0.00000000000E+00  0.78410402062E+02  0.78410402105E+02  0.26000000000E-02 0.  1.
          2   -1    0    0  501    0  0.00000000000E+00 -0.00000000000E+00 -0.25806262583E+02  0.25806262714E+02  0.26000000000E-02 0. -1.
         23    2    1    2    0    0  0.00000000000E+00  0.00000000000E+00  0.52604139478E+02  0.10421666482E+03  0.89966203297E+02 0.  0.
        -13    1    3    3    0    0 -0.42638668633E+02 -0.14332025376E+02  0.26218157546E+02  0.52065977104E+02  0.10570000000E+00 0.  1.
         13    1    3    3    0    0  0.42638668633E+02  0.14332025376E+02  0.26385981932E+02  0.52150687715E+02  0.10570000000E+00 0. -1.
<mgrwt>
<rscale>  0 0.89966203E+02</rscale>
<asrwt>0</asrwt>
<pdfrwt beam="2">  1        2 0.39701943E-02 0.89966203E+02</pdfrwt>
<pdfrwt beam="1">  1       -2 0.12063139E-01 0.89966203E+02</pdfrwt>
<totfact> 0.88401170E+04</totfact>
</mgrwt>
</event>
<event>
 5   1  0.1343823E+00  0.8943138E+02  0.7818608E-02  0.1304235E+00
          2   -1    0    0  501    0  0.00000000000E+00  0.00000000000E+00  0.90037902812E+02  0.90037902849E+02  0.26000000000E-02 0. -1.
         -2   -1    0    0    0  501 -0.00000000000E+00 -0.00000000000E+00 -0.22207237653E+02  0.22207237805E+02  0.26000000000E-02 0.  1.
         23    2    1    2    0    0  0.00000000000E+00  0.00000000000E+00  0.67830665159E+02  0.11224514065E+03  0.89431384114E+02 0.  0.
        -13    1    3    3    0    0  0.35028218700E+02 -0.95327093618E+00  0.68778985804E+02  0.77190963794E+02  0.10570000000E+00 0. -1.
         13    1    3    3    0    0 -0.35028218700E+02  0.95327093618E+00 -0.94832064497E+00  0.35054176860E+02  0.10570000000E+00 0.  1.
<mgrwt>
<rscale>  0 0.89431384E+02</rscale>
<asrwt>0</asrwt>
<pdfrwt beam="1">  1        2 0.13851985E-01 0.89431384E+02</pdfrwt>
<pdfrwt beam="2">  1       -2 0.34164981E-02 0.89431384E+02</pdfrwt>
<totfact> 0.12538371E+05</totfact>
</mgrwt>
</event>
<event>
 5   1  0.1343823E+00  0.9333308E+02  0.7818608E-02  0.1294975E+00
         -2   -1    0    0    0  501 -0.00000000000E+00  0.00000000000E+00  0.84292846828E+01  0.84292850838E+01  0.26000000000E-02 0.  1.
          2   -1    0    0  501    0  0.00000000000E+00 -0.00000000000E+00 -0.25835712586E+03  0.25835712587E+03  0.26000000000E-02 0. -1.
         23    2    1    2    0    0  0.00000000000E+00  0.00000000000E+00 -0.24992784117E+03  0.26678641095E+03  0.93333077072E+02 0.  0.
        -13    1    3    3    0    0 -0.31077440013E+02  0.20853183464E+02 -0.45281160389E+02  0.58745699391E+02  0.10570000000E+00 0.  1.
         13    1    3    3    0    0  0.31077440013E+02 -0.20853183464E+02 -0.20464668079E+03  0.20804071156E+03  0.10570000000E+00 0. -1.
<mgrwt>
<rscale>  0 0.93333077E+02</rscale>
<asrwt>0</asrwt>
<pdfrwt beam="2">  1        2 0.39747244E-01 0.93333077E+02</pdfrwt>
<pdfrwt beam="1">  1       -2 0.12968133E-02 0.93333077E+02</pdfrwt>
<totfact> 0.15959685E+05</totfact>
</mgrwt>
</event>
<event>
 5   1  0.1343823E+00  0.9130624E+02  0.7818608E-02  0.1299719E+00
          2   -1    0    0  501    0  0.00000000000E+00  0.00000000000E+00  0.68990799807E+01  0.68990804706E+01  0.26000000000E-02 0.  1.
         -2   -1    0    0    0  501 -0.00000000000E+00 -0.00000000000E+00 -0.30209931678E+03  0.30209931679E+03  0.26000000000E-02 0. -1.
         23    2    1    2    0    0  0.00000000000E+00  0.00000000000E+00 -0.29520023680E+03  0.30899839726E+03  0.91306241320E+02 0.  0.
        -13    1    3    3    0    0  0.52466467743E+01  0.38517142860E+02 -0.22861605499E+03  0.23189741130E+03  0.10570000000E+00 0. -1.
         13    1    3    3    0    0 -0.52466467743E+01 -0.38517142860E+02 -0.66584181815E+02  0.77100985966E+02  0.10570000000E+00 0.  1.
<mgrwt>
<rscale>  0 0.91306241E+02</rscale>
<asrwt>0</asrwt>
<pdfrwt beam="1">  1        2 0.10613972E-02 0.91306241E+02</pdfrwt>
<pdfrwt beam="2">  1       -2 0.46476808E-01 0.91306241E+02</pdfrwt>
<totfact> 0.50615894E+04</totfact>
</mgrwt>
</event>
<event>
 5   1  0.1343823E+00  0.9175213E+02  0.7818608E-02  0.1298663E+00
          2   -1    0    0  501    0  0.00000000000E+00  0.00000000000E+00  0.40058416583E+02  0.40058416668E+02  0.26000000000E-02 0. -1.
         -2   -1    0    0    0  501 -0.00000000000E+00 -0.00000000000E+00 -0.52538600653E+02  0.52538600718E+02  0.26000000000E-02 0.  1.
         23    2    1    2    0    0  0.00000000000E+00  0.00000000000E+00 -0.12480184070E+02  0.92597017385E+02  0.91752126047E+02 0.  0.
        -13    1    3    3    0    0 -0.24678397754E+02 -0.31242262185E+02 -0.29242511677E+02  0.49398764395E+02  0.10570000000E+00 0.  1.
         13    1    3    3    0    0  0.24678397754E+02  0.31242262185E+02  0.16762327607E+02  0.43198252990E+02  0.10570000000E+00 0. -1.
<mgrwt>
<rscale>  0 0.91752126E+02</rscale>
<asrwt>0</asrwt>
<pdfrwt beam="1">  1        2 0.61628333E-02 0.91752126E+02</pdfrwt>
<pdfrwt beam="2">  1       -2 0.80828617E-02 0.91752126E+02</pdfrwt>
<totfact> 0.93699014E+04</totfact>
</mgrwt>
</event>
<event>
 5   1  0.1343823E+00  0.9311934E+02  0.7818608E-02  0.1295469E+00
         -2   -1    0    0    0  501 -0.00000000000E+00  0.00000000000E+00  0.12471819124E+02  0.12471819395E+02  0.26000000000E-02 0.  1.
          2   -1    0    0  501    0  0.00000000000E+00 -0.00000000000E+00 -0.17381610330E+03  0.17381610332E+03  0.26000000000E-02 0. -1.
         23    2    1    2    0    0  0.00000000000E+00  0.00000000000E+00 -0.16134428418E+03  0.18628792272E+03  0.93119343391E+02 0.  0.
        -13    1    3    3    0    0 -0.36538776947E+02 -0.28131536268E+02 -0.93532648467E+02  0.10428246763E+03  0.10570000000E+00 0. -1.
         13    1    3    3    0    0  0.36538776947E+02  0.28131536268E+02 -0.67811635712E+02  0.82005455087E+02  0.10570000000E+00 0.  1.
<mgrwt>
<rscale>  0 0.93119343E+02</rscale>
<asrwt>0</asrwt>
<pdfrwt beam="2">  1        2 0.26740937E-01 0.93119343E+02</pdfrwt>
<pdfrwt beam="1">  1       -2 0.19187416E-02 0.93119343E+02</pdfrwt>
<totfact> 0.13895539E+05</totfact>
</mgrwt>
</event>
<event>
 5   1  0.1343823E+00  0.8972831E+02  0.7818608E-02  0.1303511E+00
         -2   -1    0    0    0  501 -0.00000000000E+00  0.00000000000E+00  0.64565640963E+02  0.64565641015E+02  0.26000000000E-02 0. -1.
          2   -1    0    0  501    0  0.00000000000E+00 -0.00000000000E+00 -0.31174354796E+02  0.31174354905E+02  0.26000000000E-02 0.  1.
         23    2    1    2    0    0  0.00000000000E+00  0.00000000000E+00  0.33391286167E+02  0.95739995920E+02  0.89728305605E+02 0.  0.
        -13    1    3    3    0    0 -0.24934060737E+02  0.32337839342E+02 -0.31326803506E+01  0.40954463698E+02  0.10570000000E+00 0. -1.
         13    1    3    3    0    0  0.24934060737E+02 -0.32337839342E+02  0.36523966517E+02  0.54785532221E+02  0.10570000000E+00 0.  1.
<mgrwt>
<rscale>  0 0.89728306E+02</rscale>
<asrwt>0</asrwt>
<pdfrwt beam="2">  1        2 0.47960546E-02 0.89728306E+02</pdfrwt>
<pdfrwt beam="1">  1       -2 0.99331755E-02 0.89728306E+02</pdfrwt>
<totfact> 0.93697399E+04</totfact>
</mgrwt>
</event>
<event>
 5   1  0.1343823E+00  0.8975928E+02  0.7818608E-02  0.1303436E+00
         -2   -1    0    0    0  501 -0.00000000000E+00  0.00000000000E+00  0.81740359546E+02  0.81740359587E+02  0.26000000000E-02 0.  1.
          2   -1    0    0  501    0  0.00000000000E+00 -0.00000000000E+00 -0.24641221329E+02  0.24641221466E+02  0.26000000000E-02 0. -1.
         23    2    1    2    0    0  0.00000000000E+00  0.00000000000E+00  0.57099138217E+02  0.10638158105E+03  0.89759284769E+02 0.  0.
        -13    1    3    3    0    0 -0.34230778388E+02  0.15547866227E+02  0.57597273923E+02  0.68781825137E+02  0.10570000000E+00 0.  1.
         13    1    3    3    0    0  0.34230778388E+02 -0.15547866227E+02 -0.49813570647E+00  0.37599755916E+02  0.10570000000E+00 0. -1.
<mgrwt>
<rscale>  0 0.89759285E+02</rscale>
<asrwt>0</asrwt>
<pdfrwt beam="2">  1        2 0.37909572E-02 0.89759285E+02</pdfrwt>
<pdfrwt beam="1">  1       -2 0.12575440E-01 0.89759285E+02</pdfrwt>
<totfact> 0.87894900E+04</totfact>
</mgrwt>
</event>
<event>
 5   1  0.1343823E+00  0.8216520E+02  0.7818608E-02  0.1323017E+00
         -2   -1    0    0    0  501 -0.00000000000E+00  0.00000000000E+00  0.14775422632E+02  0.14775422860E+02  0.26000000000E-02 0.  1.
          2   -1    0    0  501    0  0.00000000000E+00 -0.00000000000E+00 -0.11422887959E+03  0.11422887962E+03  0.26000000000E-02 0. -1.
         23    2    1    2    0    0  0.00000000000E+00  0.00000000000E+00 -0.99453456963E+02  0.12900430248E+03  0.82165199188E+02 0.  0.
        -13    1    3    3    0    0 -0.21721877279E+02  0.33587957627E+02 -0.64436605477E+02  0.75842456104E+02  0.10570000000E+00 0. -1.
         13    1    3    3    0    0  0.21721877279E+02 -0.33587957627E+02 -0.35016851487E+02  0.53161846381E+02  0.10570000000E+00 0.  1.
<mgrwt>
<rscale>  0 0.82165199E+02</rscale>
<asrwt>0</asrwt>
<pdfrwt beam="2">  1        2 0.17573673E-01 0.82165199E+02</pdfrwt>
<pdfrwt beam="1">  1       -2 0.22731420E-02 0.82165199E+02</pdfrwt>
<totfact> 0.16962930E+05</totfact>
</mgrwt>
</event>
<event>
 5   1  0.1343823E+00  0.8934040E+02  0.7818608E-02  0.1304457E+00
         -2   -1    0    0    0  501 -0.00000000000E+00  0.00000000000E+00  0.17372977978E+03  0.17372977980E+03  0.26000000000E-02 0.  1.
          2   -1    0    0  501    0  0.00000000000E+00 -0.00000000000E+00 -0.11485807847E+02  0.11485808141E+02  0.26000000000E-02 0. -1.
         23    2    1    2    0    0  0.00000000000E+00  0.00000000000E+00  0.16224397194E+03  0.18521558795E+03  0.89340402885E+02 0.  0.
        -13    1    3    3    0    0 -0.15250566368E+02 -0.41426577692E+02  0.95285466174E+02  0.10501462922E+03  0.10570000000E+00 0. -1.
         13    1    3    3    0    0  0.15250566368E+02  0.41426577692E+02  0.66958505764E+02  0.80200958725E+02  0.10570000000E+00 0.  1.
<mgrwt>
<rscale>  0 0.89340403E+02</rscale>
<asrwt>0</asrwt>
<pdfrwt beam="2">  1        2 0.17670476E-02 0.89340403E+02</pdfrwt>
<pdfrwt beam="1">  1       -2 0.26727655E-01 0.89340403E+02</pdfrwt>
<totfact> 0.69572073E+04</totfact>
</mgrwt>
</event>
<event>
 5   1  0.1343823E+00  0.9589178E+02  0.7818608E-02  0.1289180E+00
          2   -1    0    0  501    0  0.00000000000E+00  0.00000000000E+00  0.79478019609E+02  0.79478019652E+02  0.26000000000E-02 0. -1.
         -2   -1    0    0    0  501 -0.00000000000E+00 -0.00000000000E+00 -0.28923825127E+02  0.28923825244E+02  0.26000000000E-02 0.  1.
         23    2    1    2    0    0  0.00000000000E+00  0.00000000000E+00  0.50554194483E+02  0.10840184490E+03  0.95891779611E+02 0.  0.
        -13    1    3    3    0    0 -0.31233519542E+02  0.15451533562E+01 -0.15808203778E+02  0.35040415538E+02  0.10570000000E+00 0.  1.
         13    1    3    3    0    0  0.31233519542E+02 -0.15451533562E+01  0.66362398261E+02  0.73361429357E+02  0.10570000000E+00 0. -1.
<mgrwt>
<rscale>  0 0.95891780E+02</rscale>
<asrwt>0</asrwt>
<pdfrwt beam="1">  1        2 0.12227387E-01 0.95891780E+02</pdfrwt>
<pdfrwt beam="2">  1       -2 0.44498193E-02 0.95891780E+02</pdfrwt>
<totfact> 0.99577403E+04</totfact>
</mgrwt>
</event>
<event>
 5   1  0.1343823E+00  0.9147444E+02  0.7818608E-02  0.1299320E+00
         -2   -1    0    0    0  501 -0.00000000000E+00  0.00000000000E+00  0.23719231863E+03  0.23719231864E+03  0.26000000000E-02 0.  1.
          2   -1    0    0  501    0  0.00000000000E+00 -0.00000000000E+00 -0.88193975804E+01  0.88193979636E+01  0.26000000000E-02 0. -1.
         23    2    1    2    0    0  0.00000000000E+00  0.00000000000E+00  0.22837292105E+03  0.24601171661E+03  0.91474442548E+02 0.  0.
        -13    1    3    3    0    0  0.33840009511E+01  0.42346093986E+02  0.15976682544E+03  0.16531815636E+03  0.10570000000E+00 0.  1.
         13    1    3    3    0    0 -0.33840009511E+01 -0.42346093986E+02  0.68606095607E+02  0.80693560246E+02  0.10570000000E+00 0. -1.
<mgrwt>
<rscale>  0 0.91474443E+02</rscale>
<asrwt>0</asrwt>
<pdfrwt beam="2">  1        2 0.13568303E-02 0.91474443E+02</pdfrwt>
<pdfrwt beam="1">  1       -2 0.36491131E-01 0.91474443E+02</pdfrwt>
<totfact> 0.57165500E+04</totfact>
</mgrwt>
</event>
<event>
 5   1  0.1343823E+00  0.9241941E+02  0.7818608E-02  0.1297096E+00
         -2   -1    0    0    0  501 -0.00000000000E+00  0.00000000000E+00  0.11608661183E+02  0.11608661475E+02  0.26000000000E-02 0.  1.
          2   -1    0    0  501    0  0.00000000000E+00 -0.00000000000E+00 -0.18394341903E+03  0.18394341905E+03  0.26000000000E-02 0. -1.
         23    2    1    2    0    0  0.00000000000E+00  0.00000000000E+00 -0.17233475784E+03  0.19555208052E+03  0.92419410487E+02 0.  0.
        -13    1    3    3    0    0 -0.42135506155E+02  0.17054415046E+02 -0.10375266462E+03  0.11327347677E+03  0.10570000000E+00 0. -1.
         13    1    3    3    0    0  0.42135506155E+02 -0.17054415046E+02 -0.68582093222E+02  0.82278603747E+02  0.10570000000E+00 0.  1.
<mgrwt>
<rscale>  0 0.92419410E+02</rscale>
<asrwt>0</asrwt>
<pdfrwt beam="2">  1        2 0.28298985E-01 0.92419410E+02</pdfrwt>
<pdfrwt beam="1">  1       -2 0.17859480E-02 0.92419410E+02</pdfrwt>
<totfact> 0.14470782E+05</totfact>
</mgrwt>
</event>
<event>
 5   1  0.1343823E+00  0.9195919E+02  0.7818608E-02  0.1298175E+00
         -2   -1    0    0    0  501 -0.00000000000E+00  0.00000000000E+00  0.60632398443E+02  0.60632398498E+02  0.26000000000E-02 0.  1.
          2   -1    0    0  501    0  0.00000000000E+00 -0.00000000000E+00 -0.34867880117E+02  0.34867880214E+02  0.26000000000E-02 0. -1.
         23    2    1    2    0    0  0.00000000000E+00  0.00000000000E+00  0.25764518326E+02  0.95500278712E+02  0.91959191109E+02 0.  0.
        -13    1    3    3    0    0 -0.26903433547E+02  0.24583190803E+02 -0.16232711513E+02  0.39895364421E+02  0.10570000000E+00 0. -1.
         13    1    3    3    0    0  0.26903433547E+02 -0.24583190803E+02  0.41997229839E+02  0.55604914291E+02  0.10570000000E+00 0.  1.
<mgrwt>
<rscale>  0 0.91959191E+02</rscale>
<asrwt>0</asrwt>
<pdfrwt beam="2">  1        2 0.53642893E-02 0.91959191E+02</pdfrwt>
<pdfrwt beam="1">  1       -2 0.93280612E-02 0.91959191E+02</pdfrwt>
<totfact> 0.89767338E+04</totfact>
</mgrwt>
</event>
<event>
 5   1  0.1343823E+00  0.8714029E+02  0.7818608E-02  0.1309928E+00
         -2   -1    0    0    0  501 -0.00000000000E+00  0.00000000000E+00  0.15925150323E+02  0.15925150535E+02  0.26000000000E-02 0.  1.
          2   -1    0    0  501    0  0.00000000000E+00 -0.00000000000E+00 -0.11920501020E+03  0.11920501023E+03  0.26000000000E-02 0. -1.
         23    2    1    2    0    0  0.00000000000E+00  0.00000000000E+00 -0.10327985987E+03  0.13513016076E+03  0.87140294304E+02 0.  0.
        -13    1    3    3    0    0  0.11495413558E+02  0.33020411986E+02 -0.91954297112E+02  0.98377314816E+02  0.10570000000E+00 0. -1.
         13    1    3    3    0    0 -0.11495413558E+02 -0.33020411986E+02 -0.11325562762E+02  0.36752845944E+02  0.10570000000E+00 0.  1.
<mgrwt>
<rscale>  0 0.87140294E+02</rscale>
<asrwt>0</asrwt>
<pdfrwt beam="2">  1        2 0.18339232E-01 0.87140294E+02</pdfrwt>
<pdfrwt beam="1">  1       -2 0.24500232E-02 0.87140294E+02</pdfrwt>
<totfact> 0.14660041E+05</totfact>
</mgrwt>
</event>
<event>
 5   1  0.1343823E+00  0.9417944E+02  0.7818608E-02  0.1293035E+00
         -2   -1    0    0    0  501 -0.00000000000E+00  0.00000000000E+00  0.55114693752E+02  0.55114693813E+02  0.26000000000E-02 0.  1.
          2   -1    0    0  501    0  0.00000000000E+00 -0.00000000000E+00 -0.40233226383E+02  0.40233226467E+02  0.26000000000E-02 0. -1.
         23    2    1    2    0    0  0.00000000000E+00  0.00000000000E+00  0.14881467368E+02  0.95347920280E+02  0.94179444842E+02 0.  0.
        -13    1    3    3    0    0 -0.43364279289E+02 -0.56484333516E+01  0.25123551853E+02  0.50433813536E+02  0.10570000000E+00 0.  1.
         13    1    3    3    0    0  0.43364279289E+02  0.56484333516E+01 -0.10242084485E+02  0.44914106744E+02  0.10570000000E+00 0. -1.
<mgrwt>
<rscale>  0 0.94179445E+02</rscale>
<asrwt>0</asrwt>
<pdfrwt beam="2">  1        2 0.61897271E-02 0.94179445E+02</pdfrwt>
<pdfrwt beam="1">  1       -2 0.84791837E-02 0.94179445E+02</pdfrwt>
<totfact> 0.86941260E+04</totfact>
</mgrwt>
</event>
<event>
 5   1  0.1343823E+00  0.9323088E+02  0.7818608E-02  0.1295211E+00
          2   -1    0    0  501    0  0.00000000000E+00  0.00000000000E+00  0.50096367552E+02  0.50096367620E+02  0.26000000000E-02 0. -1.
         -2   -1    0    0    0  501 -0.00000000000E+00 -0.00000000000E+00 -0.43376383626E+02  0.43376383704E+02  0.26000000000E-02 0.  1.
         23    2    1    2    0    0  0.00000000000E+00  0.00000000000E+00  0.67199839265E+01  0.93472751323E+02  0.93230880378E+02 0.  0.
        -13    1    3    3    0    0 -0.83149609017E+01 -0.45786686656E+02  0.60926531851E+01  0.46932833338E+02  0.10570000000E+00 0.  1.
         13    1    3    3    0    0  0.83149609017E+01  0.45786686656E+02  0.62733074137E+00  0.46539917986E+02  0.10570000000E+00 0. -1.
<mgrwt>
<rscale>  0 0.93230880E+02</rscale>
<asrwt>0</asrwt>
<pdfrwt beam="1">  1        2 0.77071335E-02 0.93230880E+02</pdfrwt>
<pdfrwt beam="2">  1       -2 0.66732898E-02 0.93230880E+02</pdfrwt>
<totfact> 0.94883878E+04</totfact>
</mgrwt>
</event>
<event>
 5   1  0.1343823E+00  0.9135694E+02  0.7818608E-02  0.1299599E+00
          2   -1    0    0  501    0  0.00000000000E+00  0.00000000000E+00  0.67981744315E+02  0.67981744364E+02  0.26000000000E-02 0.  1.
         -2   -1    0    0    0  501 -0.00000000000E+00 -0.00000000000E+00 -0.30692395542E+02  0.30692395652E+02  0.26000000000E-02 0. -1.
         23    2    1    2    0    0  0.00000000000E+00  0.00000000000E+00  0.37289348773E+02  0.98674140016E+02  0.91356939397E+02 0.  0.
        -13    1    3    3    0    0 -0.22884033193E+02 -0.35839386380E+02  0.62389081661E+00  0.42526944441E+02  0.10570000000E+00 0.  1.
         13    1    3    3    0    0  0.22884033193E+02  0.35839386380E+02  0.36665457956E+02  0.56147195575E+02  0.10570000000E+00 0. -1.
<mgrwt>
<rscale>  0 0.91356939E+02</rscale>
<asrwt>0</asrwt>
<pdfrwt beam="1">  1        2 0.10458730E-01 0.91356939E+02</pdfrwt>
<pdfrwt beam="2">  1       -2 0.47219070E-02 0.91356939E+02</pdfrwt>
<totfact> 0.10912380E+05</totfact>
</mgrwt>
</event>
<event>
 5   1  0.1343823E+00  0.9155527E+02  0.7818608E-02  0.1299129E+00
          2   -1    0    0  501    0  0.00000000000E+00  0.00000000000E+00  0.28233422728E+02  0.28233422848E+02  0.26000000000E-02 0. -1.
         -2   -1    0    0    0  501 -0.00000000000E+00 -0.00000000000E+00 -0.74223789729E+02  0.74223789774E+02  0.26000000000E-02 0.  1.
         23    2    1    2    0    0  0.00000000000E+00  0.00000000000E+00 -0.45990367001E+02  0.10245721262E+03  0.91555265066E+02 0.  0.
        -13    1    3    3    0    0 -0.38708173516E+02  0.13809362451E+02 -0.45559446412E+02  0.61357114650E+02  0.10570000000E+00 0. -1.
         13    1    3    3    0    0  0.38708173516E+02 -0.13809362451E+02 -0.43092058843E+00  0.41100097972E+02  0.10570000000E+00 0.  1.
<mgrwt>
<rscale>  0 0.91555265E+02</rscale>
<asrwt>0</asrwt>
<pdfrwt beam="1">  1        2 0.43436035E-02 0.91555265E+02</pdfrwt>
<pdfrwt beam="2">  1       -2 0.11419045E-01 0.91555265E+02</pdfrwt>
<totfact> 0.85964499E+04</totfact>
</mgrwt>
</event>
<event>
 5   1  0.1343823E+00  0.9482104E+02  0.7818608E-02  0.1291580E+00
          2   -1    0    0  501    0  0.00000000000E+00  0.00000000000E+00  0.37176122987E+03  0.37176122988E+03  0.26000000000E-02 0. -1.
         -2   -1    0    0    0  501 -0.00000000000E+00 -0.00000000000E+00 -0.60462395700E+01  0.60462401290E+01  0.26000000000E-02 0.  1.
         23    2    1    2    0    0  0.00000000000E+00  0.00000000000E+00  0.36571499030E+03  0.37780747001E+03  0.94821043359E+02 0.  0.
        -13    1    3    3    0    0  0.84662067259E+01 -0.45308012706E+02  0.13862251549E+03  0.14608458387E+03  0.10570000000E+00 0.  1.
         13    1    3    3    0    0 -0.84662067259E+01  0.45308012706E+02  0.22709247481E+03  0.23172288613E+03  0.10570000000E+00 0. -1.
<mgrwt>
<rscale>  0 0.94821043E+02</rscale>
<asrwt>0</asrwt>
<pdfrwt beam="1">  1        2 0.57194055E-01 0.94821043E+02</pdfrwt>
<pdfrwt beam="2">  1       -2 0.93019042E-03 0.94821043E+02</pdfrwt>
<totfact> 0.17513925E+05</totfact>
</mgrwt>
</event>
<event>
 5   1  0.1343823E+00  0.9095586E+02  0.7818608E-02  0.1300553E+00
          2   -1    0    0  501    0  0.00000000000E+00  0.00000000000E+00  0.47554485614E+02  0.47554485685E+02  0.26000000000E-02 0. -1.
         -2   -1    0    0    0  501 -0.00000000000E+00 -0.00000000000E+00 -0.43492048155E+02  0.43492048233E+02  0.26000000000E-02 0.  1.
         23    2    1    2    0    0  0.00000000000E+00  0.00000000000E+00  0.40624374593E+01  0.91046533918E+02  0.90955857098E+02 0.  0.
        -13    1    3    3    0    0 -0.24676875601E+02 -0.10341842391E+02  0.38841904998E+02  0.47165735973E+02  0.10570000000E+00 0. -1.
         13    1    3    3    0    0  0.24676875601E+02  0.10341842391E+02 -0.34779467539E+02  0.43880797945E+02  0.10570000000E+00 0.  1.
<mgrwt>
<rscale>  0 0.90955857E+02</rscale>
<asrwt>0</asrwt>
<pdfrwt beam="1">  1        2 0.73160747E-02 0.90955857E+02</pdfrwt>
<pdfrwt beam="2">  1       -2 0.66910843E-02 0.90955857E+02</pdfrwt>
<totfact> 0.10045869E+05</totfact>
</mgrwt>
</event>
<event>
 5   1  0.1343823E+00  0.9152094E+02  0.7818608E-02  0.1299210E+00
         -2   -1    0    0    0  501 -0.00000000000E+00  0.00000000000E+00  0.26372341160E+02  0.26372341288E+02  0.26000000000E-02 0.  1.
          2   -1    0    0  501    0  0.00000000000E+00 -0.00000000000E+00 -0.79402143206E+02  0.79402143249E+02  0.26000000000E-02 0. -1.
         23    2    1    2    0    0  0.00000000000E+00  0.00000000000E+00 -0.53029802047E+02  0.10577448454E+03  0.91520935714E+02 0.  0.
        -13    1    3    3    0    0 -0.43170133360E+02  0.45419313105E+01 -0.43251995635E+02  0.61278347344E+02  0.10570000000E+00 0.  1.
         13    1    3    3    0    0  0.43170133360E+02 -0.45419313105E+01 -0.97778064117E+01  0.44496137193E+02  0.10570000000E+00 0. -1.
<mgrwt>
<rscale>  0 0.91520936E+02</rscale>
<asrwt>0</asrwt>
<pdfrwt beam="2">  1        2 0.12215714E-01 0.91520936E+02</pdfrwt>
<pdfrwt beam="1">  1       -2 0.40572833E-02 0.91520936E+02</pdfrwt>
<totfact> 0.11341427E+05</totfact>
</mgrwt>
</event>
<event>
 5   1  0.1343823E+00  0.8934809E+02  0.7818608E-02  0.1304438E+00
          2   -1    0    0  501    0  0.00000000000E+00  0.00000000000E+00  0.16596450773E+03  0.16596450775E+03  0.26000000000E-02 0.  1.
         -2   -1    0    0    0  501 -0.00000000000E+00 -0.00000000000E+00 -0.12025283906E+02  0.12025284187E+02  0.26000000000E-02 0. -1.
         23    2    1    2    0    0  0.00000000000E+00  0.00000000000E+00  0.15393922382E+03  0.17798979194E+03  0.89348091206E+02 0.  0.
        -13    1    3    3    0    0 -0.14490277642E+02 -0.22128654435E+02  0.14868813947E+03  0.15102257939E+03  0.10570000000E+00 0.  1.
         13    1    3    3    0    0  0.14490277642E+02  0.22128654435E+02  0.52510843525E+01  0.26967212548E+02  0.10570000000E+00 0. -1.
<mgrwt>
<rscale>  0 0.89348091E+02</rscale>
<asrwt>0</asrwt>
<pdfrwt beam="1">  1        2 0.25533000E-01 0.89348091E+02</pdfrwt>
<pdfrwt beam="2">  1       -2 0.18500438E-02 0.89348091E+02</pdfrwt>
<totfact> 0.15290168E+05</totfact>
</mgrwt>
</event>
<event>
 5   1  0.1343823E+00  0.9183475E+02  0.7818608E-02  0.1298468E+00
          2   -1    0    0  501    0  0.00000000000E+00  0.00000000000E+00  0.33911666016E+02  0.33911666115E+02  0.26000000000E-02 0.  1.
         -2   -1    0    0    0  501 -0.00000000000E+00 -0.00000000000E+00 -0.62173455955E+02  0.62173456009E+02  0.26000000000E-02 0. -1.
         23    2    1    2    0    0  0.00000000000E+00  0.00000000000E+00 -0.28261789939E+02  0.96085122124E+02  0.91834753351E+02 0.  0.
        -13    1    3    3    0    0 -0.64084944159E+01 -0.28569545172E+02  0.22877158209E+02  0.37157277245E+02  0.10570000000E+00 0.  1.
         13    1    3    3    0    0  0.64084944159E+01  0.28569545172E+02 -0.51138948148E+02  0.58927844880E+02  0.10570000000E+00 0. -1.
<mgrwt>
<rscale>  0 0.91834753E+02</rscale>
<asrwt>0</asrwt>
<pdfrwt beam="1">  1        2 0.52171794E-02 0.91834753E+02</pdfrwt>
<pdfrwt beam="2">  1       -2 0.95651471E-02 0.91834753E+02</pdfrwt>
<totfact> 0.89467173E+04</totfact>
</mgrwt>
</event>
<event>
 5   1  0.1343823E+00  0.8487827E+02  0.7818608E-02  0.1315751E+00
         -2   -1    0    0    0  501 -0.00000000000E+00  0.00000000000E+00  0.47309216927E+02  0.47309216998E+02  0.26000000000E-02 0.  1.
          2   -1    0    0  501    0  0.00000000000E+00 -0.00000000000E+00 -0.38070387288E+02  0.38070387376E+02  0.26000000000E-02 0. -1.
         23    2    1    2    0    0  0.00000000000E+00  0.00000000000E+00  0.92388296391E+01  0.85379604374E+02  0.84878270894E+02 0.  0.
        -13    1    3    3    0    0  0.18838909797E+02  0.36362861772E+02  0.15816505520E+02  0.43901426605E+02  0.10570000000E+00 0.  1.
         13    1    3    3    0    0 -0.18838909797E+02 -0.36362861772E+02 -0.65776758811E+01  0.41478177769E+02  0.10570000000E+00 0. -1.
<mgrwt>
<rscale>  0 0.84878271E+02</rscale>
<asrwt>0</asrwt>
<pdfrwt beam="2">  1        2 0.58569826E-02 0.84878271E+02</pdfrwt>
<pdfrwt beam="1">  1       -2 0.72783411E-02 0.84878271E+02</pdfrwt>
<totfact> 0.11575919E+05</totfact>
</mgrwt>
</event>
<event>
 5   1  0.1343823E+00  0.9022236E+02  0.7818608E-02  0.1302314E+00
         -2   -1    0    0    0  501 -0.00000000000E+00  0.00000000000E+00  0.12067884216E+03  0.12067884219E+03  0.26000000000E-02 0. -1.
          2   -1    0    0  501    0  0.00000000000E+00 -0.00000000000E+00 -0.16863093232E+02  0.16863093433E+02  0.26000000000E-02 0.  1.
         23    2    1    2    0    0  0.00000000000E+00  0.00000000000E+00  0.10381574893E+03  0.13754193562E+03  0.90222360470E+02 0.  0.
        -13    1    3    3    0    0 -0.48550354647E+01 -0.44521378583E+02  0.60157379849E+02  0.74997640250E+02  0.10570000000E+00 0.  1.
         13    1    3    3    0    0  0.48550354647E+01  0.44521378583E+02  0.43658369079E+02  0.62544295371E+02  0.10570000000E+00 0. -1.
<mgrwt>
<rscale>  0 0.90222360E+02</rscale>
<asrwt>0</asrwt>
<pdfrwt beam="2">  1        2 0.25943221E-02 0.90222360E+02</pdfrwt>
<pdfrwt beam="1">  1       -2 0.18565976E-01 0.90222360E+02</pdfrwt>
<totfact> 0.77292730E+04</totfact>
</mgrwt>
</event>
<event>
 5   1  0.1343823E+00  0.8990109E+02  0.7818608E-02  0.1303091E+00
          2   -1    0    0  501    0  0.00000000000E+00  0.00000000000E+00  0.86807756043E+02  0.86807756081E+02  0.26000000000E-02 0. -1.
         -2   -1    0    0    0  501 -0.00000000000E+00 -0.00000000000E+00 -0.23276163749E+02  0.23276163895E+02  0.26000000000E-02 0.  1.
         23    2    1    2    0    0  0.00000000000E+00  0.00000000000E+00  0.63531592293E+02  0.11008391998E+03  0.89901091306E+02 0.  0.
        -13    1    3    3    0    0 -0.37975372169E+02  0.21984666986E+02  0.19825447673E+02  0.48150950373E+02  0.10570000000E+00 0. -1.
         13    1    3    3    0    0  0.37975372169E+02 -0.21984666986E+02  0.43706144620E+02  0.61932969603E+02  0.10570000000E+00 0.  1.
<mgrwt>
<rscale>  0 0.89901091E+02</rscale>
<asrwt>0</asrwt>
<pdfrwt beam="1">  1        2 0.13355039E-01 0.89901091E+02</pdfrwt>
<pdfrwt beam="2">  1       -2 0.35809483E-02 0.89901091E+02</pdfrwt>
<totfact> 0.12227283E+05</totfact>
</mgrwt>
</event>
<event>
 5   1  0.1343823E+00  0.9155748E+02  0.7818608E-02  0.1299123E+00
         -2   -1    0    0    0  501 -0.00000000000E+00  0.00000000000E+00  0.41407302823E+02  0.41407302904E+02  0.26000000000E-02 0.  1.
          2   -1    0    0  501    0  0.00000000000E+00 -0.00000000000E+00 -0.50611677627E+02  0.50611677693E+02  0.26000000000E-02 0. -1.
         23    2    1    2    0    0  0.00000000000E+00  0.00000000000E+00 -0.92043748040E+01  0.92018980597E+02  0.91557480714E+02 0.  0.
        -13    1    3    3    0    0  0.43063038743E+02  0.13104981768E+02 -0.12981841772E+02  0.46847681279E+02  0.10570000000E+00 0. -1.
         13    1    3    3    0    0 -0.43063038743E+02 -0.13104981768E+02  0.37774669676E+01  0.45171299319E+02  0.10570000000E+00 0.  1.
<mgrwt>
<rscale>  0 0.91557481E+02</rscale>
<asrwt>0</asrwt>
<pdfrwt beam="2">  1        2 0.77864120E-02 0.91557481E+02</pdfrwt>
<pdfrwt beam="1">  1       -2 0.63703543E-02 0.91557481E+02</pdfrwt>
<totfact> 0.10020072E+05</totfact>
</mgrwt>
</event>
<event>
 5   1  0.1343823E+00  0.9119547E+02  0.7818608E-02  0.1299982E+00
         -2   -1    0    0    0  501 -0.00000000000E+00  0.00000000000E+00  0.12243354279E+02  0.12243354555E+02  0.26000000000E-02 0.  1.
          2   -1    0    0  501    0  0.00000000000E+00 -0.00000000000E+00 -0.16981892591E+03  0.16981892593E+03  0.26000000000E-02 0. -1.
         23    2    1    2    0    0  0.00000000000E+00  0.00000000000E+00 -0.15757557163E+03  0.18206228048E+03  0.91195466996E+02 0.  0.
        -13    1    3    3    0    0  0.44442948542E+02  0.24021700995E+01 -0.59004715495E+02  0.73908820309E+02  0.10570000000E+00 0.  1.
         13    1    3    3    0    0 -0.44442948542E+02 -0.24021700995E+01 -0.98570856132E+02  0.10815346017E+03  0.10570000000E+00 0. -1.
<mgrwt>
<rscale>  0 0.91195467E+02</rscale>
<asrwt>0</asrwt>
<pdfrwt beam="2">  1        2 0.26125987E-01 0.91195467E+02</pdfrwt>
<pdfrwt beam="1">  1       -2 0.18835931E-02 0.91195467E+02</pdfrwt>
<totfact> 0.14584345E+05</totfact>
</mgrwt>
</event>
<event>
 5   1  0.1343823E+00  0.8787154E+02  0.7818608E-02  0.1308089E+00
         -2   -1    0    0    0  501 -0.00000000000E+00  0.00000000000E+00  0.59660780857E+01  0.59660786523E+01  0.26000000000E-02 0.  1.
          2   -1    0    0  501    0  0.00000000000E+00 -0.00000000000E+00 -0.32355455653E+03  0.32355455654E+03  0.26000000000E-02 0. -1.
         23    2    1    2    0    0  0.00000000000E+00  0.00000000000E+00 -0.31758847845E+03  0.32952063519E+03  0.87871539063E+02 0.  0.
        -13    1    3    3    0    0  0.22651917093E+02  0.31869038072E+02 -0.83644248795E+02  0.92331557252E+02  0.10570000000E+00 0.  1.
         13    1    3    3    0    0 -0.22651917093E+02 -0.31869038072E+02 -0.23394422965E+03  0.23718907794E+03  0.10570000000E+00 0. -1.
<mgrwt>
<rscale>  0 0.87871539E+02</rscale>
<asrwt>0</asrwt>
<pdfrwt beam="2">  1        2 0.49777610E-01 0.87871539E+02</pdfrwt>
<pdfrwt beam="1">  1       -2 0.91785846E-03 0.87871539E+02</pdfrwt>
<totfact> 0.20382571E+05</totfact>
</mgrwt>
</event>
<event>
 5   1  0.1343823E+00  0.9135062E+02  0.7818608E-02  0.1299614E+00
         -2   -1    0    0    0  501 -0.00000000000E+00  0.00000000000E+00  0.42731684349E+01  0.42731692259E+01  0.26000000000E-02 0.  1.
          2   -1    0    0  501    0  0.00000000000E+00 -0.00000000000E+00 -0.48821707222E+03  0.48821707223E+03  0.26000000000E-02 0. -1.
         23    2    1    2    0    0  0.00000000000E+00  0.00000000000E+00 -0.48394390379E+03  0.49249024146E+03  0.91350620773E+02 0.  0.
        -13    1    3    3    0    0  0.26514760484E+02 -0.37182870635E+02 -0.23771182519E+03  0.24205892134E+03  0.10570000000E+00 0. -1.
         13    1    3    3    0    0 -0.26514760484E+02  0.37182870635E+02 -0.24623207859E+03  0.25043132011E+03  0.10570000000E+00 0.  1.
<mgrwt>
<rscale>  0 0.91350621E+02</rscale>
<asrwt>0</asrwt>
<pdfrwt beam="2">  1        2 0.75110275E-01 0.91350621E+02</pdfrwt>
<pdfrwt beam="1">  1       -2 0.65741098E-03 0.91350621E+02</pdfrwt>
<totfact> 0.21274625E+05</totfact>
</mgrwt>
</event>
<event>
 5   1  0.1343823E+00  0.9272075E+02  0.7818608E-02  0.1296394E+00
         -2   -1    0    0    0  501 -0.00000000000E+00  0.00000000000E+00  0.15016548886E+03  0.15016548888E+03  0.26000000000E-02 0.  1.
          2   -1    0    0  501    0  0.00000000000E+00 -0.00000000000E+00 -0.14312770781E+02  0.14312771017E+02  0.26000000000E-02 0. -1.
         23    2    1    2    0    0  0.00000000000E+00  0.00000000000E+00  0.13585271808E+03  0.16447825990E+03  0.92720747246E+02 0.  0.
        -13    1    3    3    0    0  0.12015130379E+02  0.40992431522E+02  0.99882857387E+02  0.10863396878E+03  0.10570000000E+00 0.  1.
         13    1    3    3    0    0 -0.12015130379E+02 -0.40992431522E+02  0.35969860690E+02  0.55844291119E+02  0.10570000000E+00 0. -1.
<mgrwt>
<rscale>  0 0.92720747E+02</rscale>
<asrwt>0</asrwt>
<pdfrwt beam="2">  1        2 0.22019647E-02 0.92720747E+02</pdfrwt>
<pdfrwt beam="1">  1       -2 0.23102383E-01 0.92720747E+02</pdfrwt>
<totfact> 0.66919331E+04</totfact>
</mgrwt>
</event>
<event>
 5   1  0.1343823E+00  0.9101045E+02  0.7818608E-02  0.1300423E+00
         -2   -1    0    0    0  501 -0.00000000000E+00  0.00000000000E+00  0.22708280042E+03  0.22708280044E+03  0.26000000000E-02 0.  1.
          2   -1    0    0  501    0  0.00000000000E+00 -0.00000000000E+00 -0.91188129412E+01  0.91188133118E+01  0.26000000000E-02 0. -1.
         23    2    1    2    0    0  0.00000000000E+00  0.00000000000E+00  0.21796398748E+03  0.23620161375E+03  0.91010452691E+02 0.  0.
        -13    1    3    3    0    0 -0.11716894077E+02 -0.42922119655E+02  0.13375619198E+03  0.14096213686E+03  0.10570000000E+00 0.  1.
         13    1    3    3    0    0  0.11716894077E+02  0.42922119655E+02  0.84207795498E+02  0.95239476886E+02  0.10570000000E+00 0. -1.
<mgrwt>
<rscale>  0 0.91010453E+02</rscale>
<asrwt>0</asrwt>
<pdfrwt beam="2">  1        2 0.14028945E-02 0.91010453E+02</pdfrwt>
<pdfrwt beam="1">  1       -2 0.34935812E-01 0.91010453E+02</pdfrwt>
<totfact> 0.59128611E+04</totfact>
</mgrwt>
</event>
<event>
 5   1  0.1343823E+00  0.9433406E+02  0.7818608E-02  0.1292683E+00
          2   -1    0    0  501    0  0.00000000000E+00  0.00000000000E+00  0.18613939379E+03  0.18613939381E+03  0.26000000000E-02 0. -1.
         -2   -1    0    0    0  501 -0.00000000000E+00 -0.00000000000E+00 -0.11951949825E+02  0.11951950108E+02  0.26000000000E-02 0.  1.
         23    2    1    2    0    0  0.00000000000E+00  0.00000000000E+00  0.17418744396E+03  0.19809134392E+03  0.94334060124E+02 0.  0.
        -13    1    3    3    0    0 -0.11414953822E+02  0.33957008410E+02  0.22666447707E+02  0.42392907603E+02  0.10570000000E+00 0.  1.
         13    1    3    3    0    0  0.11414953822E+02 -0.33957008410E+02  0.15152099626E+03  0.15569843631E+03  0.10570000000E+00 0. -1.
<mgrwt>
<rscale>  0 0.94334060E+02</rscale>
<asrwt>0</asrwt>
<pdfrwt beam="1">  1        2 0.28636831E-01 0.94334060E+02</pdfrwt>
<pdfrwt beam="2">  1       -2 0.18387615E-02 0.94334060E+02</pdfrwt>
<totfact> 0.13747684E+05</totfact>
</mgrwt>
</event>
<event>
 5   1  0.1343823E+00  0.9075128E+02  0.7818608E-02  0.1301043E+00
         -2   -1    0    0    0  501 -0.00000000000E+00  0.00000000000E+00  0.48649480688E+02  0.48649480758E+02  0.26000000000E-02 0.  1.
          2   -1    0    0  501    0  0.00000000000E+00 -0.00000000000E+00 -0.42322109394E+02  0.42322109474E+02  0.26000000000E-02 0. -1.
         23    2    1    2    0    0  0.00000000000E+00  0.00000000000E+00  0.63273712940E+01  0.90971590231E+02  0.90751278788E+02 0.  0.
        -13    1    3    3    0    0 -0.29113948567E+02 -0.41752369873E+01 -0.31472805873E+02  0.43076713977E+02  0.10570000000E+00 0. -1.
         13    1    3    3    0    0  0.29113948567E+02  0.41752369873E+01  0.37800177167E+02  0.47894876254E+02  0.10570000000E+00 0.  1.
<mgrwt>
<rscale>  0 0.90751279E+02</rscale>
<asrwt>0</asrwt>
<pdfrwt beam="2">  1        2 0.65110938E-02 0.90751279E+02</pdfrwt>
<pdfrwt beam="1">  1       -2 0.74845355E-02 0.90751279E+02</pdfrwt>
<totfact> 0.98105800E+04</totfact>
</mgrwt>
</event>
<event>
 5   1  0.1343823E+00  0.9060332E+02  0.7818608E-02  0.1301397E+00
         -2   -1    0    0    0  501 -0.00000000000E+00  0.00000000000E+00  0.11870480169E+02  0.11870480454E+02  0.26000000000E-02 0.  1.
          2   -1    0    0  501    0  0.00000000000E+00 -0.00000000000E+00 -0.17288604369E+03  0.17288604371E+03  0.26000000000E-02 0. -1.
         23    2    1    2    0    0  0.00000000000E+00  0.00000000000E+00 -0.16101556352E+03  0.18475652416E+03  0.90603319615E+02 0.  0.
        -13    1    3    3    0    0  0.62781094424E+01  0.31390589218E+02 -0.15144317500E+02  0.35413913575E+02  0.10570000000E+00 0.  1.
         13    1    3    3    0    0 -0.62781094424E+01 -0.31390589218E+02 -0.14587124602E+03  0.14934261059E+03  0.10570000000E+00 0. -1.
<mgrwt>
<rscale>  0 0.90603320E+02</rscale>
<asrwt>0</asrwt>
<pdfrwt beam="2">  1        2 0.26597851E-01 0.90603320E+02</pdfrwt>
<pdfrwt beam="1">  1       -2 0.18262279E-02 0.90603320E+02</pdfrwt>
<totfact> 0.14936543E+05</totfact>
</mgrwt>
</event>
<event>
 5   1  0.1343823E+00  0.9207352E+02  0.7818608E-02  0.1297907E+00
          2   -1    0    0  501    0  0.00000000000E+00  0.00000000000E+00  0.23832152270E+02  0.23832152411E+02  0.26000000000E-02 0. -1.
         -2   -1    0    0    0  501 -0.00000000000E+00 -0.00000000000E+00 -0.88929577958E+02  0.88929577996E+02  0.26000000000E-02 0.  1.
         23    2    1    2    0    0  0.00000000000E+00  0.00000000000E+00 -0.65097425688E+02  0.11276173041E+03  0.92073519609E+02 0.  0.
        -13    1    3    3    0    0  0.42842875261E+01 -0.25660413891E+02 -0.79063811659E+02  0.83234064224E+02  0.10570000000E+00 0.  1.
         13    1    3    3    0    0 -0.42842875261E+01  0.25660413891E+02  0.13966385971E+02  0.29527666183E+02  0.10570000000E+00 0. -1.
<mgrwt>
<rscale>  0 0.92073520E+02</rscale>
<asrwt>0</asrwt>
<pdfrwt beam="1">  1        2 0.36664850E-02 0.92073520E+02</pdfrwt>
<pdfrwt beam="2">  1       -2 0.13681473E-01 0.92073520E+02</pdfrwt>
<totfact> 0.80610882E+04</totfact>
</mgrwt>
</event>
<event>
 5   1  0.1343823E+00  0.9100418E+02  0.7818608E-02  0.1300438E+00
          2   -1    0    0  501    0  0.00000000000E+00  0.00000000000E+00  0.88649240001E+01  0.88649243814E+01  0.26000000000E-02 0. -1.
         -2   -1    0    0    0  501 -0.00000000000E+00 -0.00000000000E+00 -0.23355418176E+03  0.23355418178E+03  0.26000000000E-02 0.  1.
         23    2    1    2    0    0  0.00000000000E+00  0.00000000000E+00 -0.22468925776E+03  0.24241910616E+03  0.91004178348E+02 0.  0.
        -13    1    3    3    0    0 -0.80025343233E+01 -0.33872868736E+02 -0.19041862902E+03  0.19357344147E+03  0.10570000000E+00 0.  1.
         13    1    3    3    0    0  0.80025343233E+01  0.33872868736E+02 -0.34270628742E+02  0.48845664689E+02  0.10570000000E+00 0. -1.
<mgrwt>
<rscale>  0 0.91004178E+02</rscale>
<asrwt>0</asrwt>
<pdfrwt beam="1">  1        2 0.13638347E-02 0.91004178E+02</pdfrwt>
<pdfrwt beam="2">  1       -2 0.35931408E-01 0.91004178E+02</pdfrwt>
<totfact> 0.58357832E+04</totfact>
</mgrwt>
</event>
<event>
 5   1  0.1343823E+00  0.9093784E+02  0.7818608E-02  0.1300596E+00
          2   -1    0    0  501    0  0.00000000000E+00  0.00000000000E+00  0.12982828929E+03  0.12982828932E+03  0.26000000000E-02 0. -1.
         -2   -1    0    0    0  501 -0.00000000000E+00 -0.00000000000E+00 -0.15924286217E+02  0.15924286429E+02  0.26000000000E-02 0.  1.
         23    2    1    2    0    0  0.00000000000E+00  0.00000000000E+00  0.11390400308E+03  0.14575257575E+03  0.90937843719E+02 0.  0.
        -13    1    3    3    0    0 -0.10257543610E+02 -0.17785191097E+02  0.12197557943E+03  0.12369148465E+03  0.10570000000E+00 0. -1.
         13    1    3    3    0    0  0.10257543610E+02  0.17785191097E+02 -0.80715763568E+01  0.22061091102E+02  0.10570000000E+00 0.  1.
<mgrwt>
<rscale>  0 0.90937844E+02</rscale>
<asrwt>0</asrwt>
<pdfrwt beam="1">  1        2 0.19973582E-01 0.90937844E+02</pdfrwt>
<pdfrwt beam="2">  1       -2 0.24498903E-02 0.90937844E+02</pdfrwt>
<totfact> 0.13417970E+05</totfact>
</mgrwt>
</event>
<event>
 5   1  0.1343823E+00  0.1098146E+03  0.7818608E-02  0.1260914E+00
          2   -1    0    0  501    0  0.00000000000E+00  0.00000000000E+00  0.47037225627E+02  0.47037225699E+02  0.26000000000E-02 0. -1.
         -2   -1    0    0    0  501 -0.00000000000E+00 -0.00000000000E+00 -0.64094204090E+02  0.64094204143E+02  0.26000000000E-02 0.  1.
         23    2    1    2    0    0  0.00000000000E+00  0.00000000000E+00 -0.17056978463E+02  0.11113142984E+03  0.10981463557E+03 0.  0.
        -13    1    3    3    0    0  0.40164059182E+02  0.31720110237E+02 -0.28653766242E+02  0.58654637803E+02  0.10570000000E+00 0.  1.
         13    1    3    3    0    0 -0.40164059182E+02 -0.31720110237E+02  0.11596787780E+02  0.52476792039E+02  0.10570000000E+00 0. -1.
<mgrwt>
<rscale>  0 0.10981464E+03</rscale>
<asrwt>0</asrwt>
<pdfrwt beam="1">  1        2 0.72364962E-02 0.10981464E+03</pdfrwt>
<pdfrwt beam="2">  1       -2 0.98606468E-02 0.10981464E+03</pdfrwt>
<totfact> 0.57769381E+04</totfact>
</mgrwt>
</event>
<event>
 5   1  0.1343823E+00  0.8821993E+02  0.7818608E-02  0.1307221E+00
          2   -1    0    0  501    0  0.00000000000E+00  0.00000000000E+00  0.18569415524E+03  0.18569415526E+03  0.26000000000E-02 0. -1.
         -2   -1    0    0    0  501 -0.00000000000E+00 -0.00000000000E+00 -0.10477921608E+02  0.10477921931E+02  0.26000000000E-02 0.  1.
         23    2    1    2    0    0  0.00000000000E+00  0.00000000000E+00  0.17521623363E+03  0.19617207719E+03  0.88219925982E+02 0.  0.
        -13    1    3    3    0    0  0.13694059324E+02 -0.39594146523E+02  0.56920334239E+02  0.70676441068E+02  0.10570000000E+00 0.  1.
         13    1    3    3    0    0 -0.13694059324E+02  0.39594146523E+02  0.11829589939E+03  0.12549563612E+03  0.10570000000E+00 0. -1.
<mgrwt>
<rscale>  0 0.88219926E+02</rscale>
<asrwt>0</asrwt>
<pdfrwt beam="1">  1        2 0.28568333E-01 0.88219926E+02</pdfrwt>
<pdfrwt beam="2">  1       -2 0.16119879E-02 0.88219926E+02</pdfrwt>
<totfact> 0.16457586E+05</totfact>
</mgrwt>
</event>
<event>
 4   1  0.1343823E+00  0.4219471E+02  0.7818608E-02  0.1492655E+00
          2   -1    0    0  501    0  0.00000000000E+00  0.00000000000E+00  0.19799071073E+02  0.19799071243E+02  0.26000000000E-02 0. -1.
         -2   -1    0    0    0  501 -0.00000000000E+00 -0.00000000000E+00 -0.22480767009E+02  0.22480767160E+02  0.26000000000E-02 0.  1.
        -13    1    1    2    0    0  0.19578162674E+02  0.30226935879E+01  0.59295481305E+01  0.20678777617E+02  0.10570000000E+00 0. -1.
         13    1    1    2    0    0 -0.19578162674E+02 -0.30226935879E+01 -0.86112440673E+01  0.21601060786E+02  0.10570000000E+00 0.  1.
<mgrwt>
<rscale>  0 0.42194706E+02</rscale>
<asrwt>0</asrwt>
<pdfrwt beam="1">  1        2 0.30460110E-02 0.42194706E+02</pdfrwt>
<pdfrwt beam="2">  1       -2 0.34585795E-02 0.42194706E+02</pdfrwt>
<totfact> 0.68639844E+05</totfact>
</mgrwt>
</event>
<event>
 5   1  0.1343823E+00  0.9288814E+02  0.7818608E-02  0.1296005E+00
          2   -1    0    0  501    0  0.00000000000E+00  0.00000000000E+00  0.66194952375E+02  0.66194952426E+02  0.26000000000E-02 0. -1.
         -2   -1    0    0    0  501 -0.00000000000E+00 -0.00000000000E+00 -0.32586343930E+02  0.32586344033E+02  0.26000000000E-02 0.  1.
         23    2    1    2    0    0  0.00000000000E+00  0.00000000000E+00  0.33608608445E+02  0.98781296459E+02  0.92888136856E+02 0.  0.
        -13    1    3    3    0    0  0.40542923363E+02 -0.21898071937E+02  0.22985659361E+02  0.51493746204E+02  0.10570000000E+00 0. -1.
         13    1    3    3    0    0 -0.40542923363E+02  0.21898071937E+02  0.10622949084E+02  0.47287550255E+02  0.10570000000E+00 0.  1.
<mgrwt>
<rscale>  0 0.92888137E+02</rscale>
<asrwt>0</asrwt>
<pdfrwt beam="1">  1        2 0.10183839E-01 0.92888137E+02</pdfrwt>
<pdfrwt beam="2">  1       -2 0.50132838E-02 0.92888137E+02</pdfrwt>
<totfact> 0.10337930E+05</totfact>
</mgrwt>
</event>
<event>
 5   1  0.1343823E+00  0.8837031E+02  0.7818608E-02  0.1306847E+00
         -2   -1    0    0    0  501 -0.00000000000E+00  0.00000000000E+00  0.93931725125E+02  0.93931725161E+02  0.26000000000E-02 0. -1.
          2   -1    0    0  501    0  0.00000000000E+00 -0.00000000000E+00 -0.20784541689E+02  0.20784541851E+02  0.26000000000E-02 0.  1.
         23    2    1    2    0    0  0.00000000000E+00  0.00000000000E+00  0.73147183436E+02  0.11471626701E+03  0.88370308773E+02 0.  0.
        -13    1    3    3    0    0 -0.38554731979E+02 -0.21235187811E+02  0.31560024916E+02  0.54161304494E+02  0.10570000000E+00 0. -1.
         13    1    3    3    0    0  0.38554731979E+02  0.21235187811E+02  0.41587158520E+02  0.60554962518E+02  0.10570000000E+00 0.  1.
<mgrwt>
<rscale>  0 0.88370309E+02</rscale>
<asrwt>0</asrwt>
<pdfrwt beam="2">  1        2 0.31976218E-02 0.88370309E+02</pdfrwt>
<pdfrwt beam="1">  1       -2 0.14451035E-01 0.88370309E+02</pdfrwt>
<totfact> 0.87843585E+04</totfact>
</mgrwt>
</event>
<event>
 5   1  0.1343823E+00  0.9087745E+02  0.7818608E-02  0.1300741E+00
          2   -1    0    0  501    0  0.00000000000E+00  0.00000000000E+00  0.13195172321E+03  0.13195172324E+03  0.26000000000E-02 0. -1.
         -2   -1    0    0    0  501 -0.00000000000E+00 -0.00000000000E+00 -0.15647220978E+02  0.15647221194E+02  0.26000000000E-02 0.  1.
         23    2    1    2    0    0  0.00000000000E+00  0.00000000000E+00  0.11630450223E+03  0.14759894443E+03  0.90877451316E+02 0.  0.
        -13    1    3    3    0    0  0.31730803710E+02  0.21203930107E+02  0.18097313928E+02  0.42237122298E+02  0.10570000000E+00 0.  1.
         13    1    3    3    0    0 -0.31730803710E+02 -0.21203930107E+02  0.98207188307E+02  0.10536182214E+03  0.10570000000E+00 0. -1.
<mgrwt>
<rscale>  0 0.90877451E+02</rscale>
<asrwt>0</asrwt>
<pdfrwt beam="1">  1        2 0.20300265E-01 0.90877451E+02</pdfrwt>
<pdfrwt beam="2">  1       -2 0.24072648E-02 0.90877451E+02</pdfrwt>
<totfact> 0.13514073E+05</totfact>
</mgrwt>
</event>
<event>
 5   1  0.1343823E+00  0.9279600E+02  0.7818608E-02  0.1296219E+00
         -2   -1    0    0    0  501 -0.00000000000E+00  0.00000000000E+00  0.10640818511E+02  0.10640818828E+02  0.26000000000E-02 0.  1.
          2   -1    0    0  501    0  0.00000000000E+00 -0.00000000000E+00 -0.20231287438E+03  0.20231287440E+03  0.26000000000E-02 0. -1.
         23    2    1    2    0    0  0.00000000000E+00  0.00000000000E+00 -0.19167205587E+03  0.21295369323E+03  0.92796004532E+02 0.  0.
        -13    1    3    3    0    0 -0.32096772772E+02  0.45548989962E+01 -0.19661469317E+02  0.37914831866E+02  0.10570000000E+00 0.  1.
         13    1    3    3    0    0  0.32096772772E+02 -0.45548989962E+01 -0.17201058656E+03  0.17503886136E+03  0.10570000000E+00 0. -1.
<mgrwt>
<rscale>  0 0.92796005E+02</rscale>
<asrwt>0</asrwt>
<pdfrwt beam="2">  1        2 0.31125055E-01 0.92796005E+02</pdfrwt>
<pdfrwt beam="1">  1       -2 0.16370492E-02 0.92796005E+02</pdfrwt>
<totfact> 0.14812444E+05</totfact>
</mgrwt>
</event>
<event>
 5   1  0.1343823E+00  0.9165965E+02  0.7818608E-02  0.1298882E+00
         -2   -1    0    0    0  501 -0.00000000000E+00  0.00000000000E+00  0.61437745454E+02  0.61437745509E+02  0.26000000000E-02 0.  1.
          2   -1    0    0  501    0  0.00000000000E+00 -0.00000000000E+00 -0.34187012265E+02  0.34187012364E+02  0.26000000000E-02 0. -1.
         23    2    1    2    0    0  0.00000000000E+00  0.00000000000E+00  0.27250733189E+02  0.95624757873E+02  0.91659652296E+02 0.  0.
        -13    1    3    3    0    0 -0.34181406280E+02  0.67989406147E+01  0.44674683775E+02  0.56660680119E+02  0.10570000000E+00 0.  1.
         13    1    3    3    0    0  0.34181406280E+02 -0.67989406147E+01 -0.17423950586E+02  0.38964077754E+02  0.10570000000E+00 0. -1.
<mgrwt>
<rscale>  0 0.91659652E+02</rscale>
<asrwt>0</asrwt>
<pdfrwt beam="2">  1        2 0.52595405E-02 0.91659652E+02</pdfrwt>
<pdfrwt beam="1">  1       -2 0.94519607E-02 0.91659652E+02</pdfrwt>
<totfact> 0.90162872E+04</totfact>
</mgrwt>
</event>
<event>
 5   1  0.1343823E+00  0.9756853E+02  0.7818608E-02  0.1285494E+00
          2   -1    0    0  501    0  0.00000000000E+00  0.00000000000E+00  0.15044582263E+03  0.15044582266E+03  0.26000000000E-02 0. -1.
         -2   -1    0    0    0  501 -0.00000000000E+00 -0.00000000000E+00 -0.15819012885E+02  0.15819013099E+02  0.26000000000E-02 0.  1.
         23    2    1    2    0    0  0.00000000000E+00  0.00000000000E+00  0.13462680975E+03  0.16626483576E+03  0.97568528254E+02 0.  0.
        -13    1    3    3    0    0 -0.33609000993E+02 -0.13577588994E+02  0.11676283883E+02  0.38082314116E+02  0.10570000000E+00 0.  1.
         13    1    3    3    0    0  0.33609000993E+02  0.13577588994E+02  0.12295052587E+03  0.12818252164E+03  0.10570000000E+00 0. -1.
<mgrwt>
<rscale>  0 0.97568528E+02</rscale>
<asrwt>0</asrwt>
<pdfrwt beam="1">  1        2 0.23145512E-01 0.97568528E+02</pdfrwt>
<pdfrwt beam="2">  1       -2 0.24336943E-02 0.97568528E+02</pdfrwt>
<totfact> 0.11633485E+05</totfact>
</mgrwt>
</event>
<event>
 5   1  0.1343823E+00  0.9080096E+02  0.7818608E-02  0.1300924E+00
         -2   -1    0    0    0  501 -0.00000000000E+00  0.00000000000E+00  0.80901428001E+01  0.80901432179E+01  0.26000000000E-02 0. -1.
          2   -1    0    0  501    0  0.00000000000E+00 -0.00000000000E+00 -0.25477964291E+03  0.25477964292E+03  0.26000000000E-02 0.  1.
         23    2    1    2    0    0  0.00000000000E+00  0.00000000000E+00 -0.24668950011E+03  0.26286978614E+03  0.90800963660E+02 0.  0.
        -13    1    3    3    0    0  0.10585042035E+02  0.44149015674E+02 -0.12300370349E+03  0.13111483876E+03  0.10570000000E+00 0.  1.
         13    1    3    3    0    0 -0.10585042035E+02 -0.44149015674E+02 -0.12368579662E+03  0.13175494738E+03  0.10570000000E+00 0. -1.
<mgrwt>
<rscale>  0 0.90800964E+02</rscale>
<asrwt>0</asrwt>
<pdfrwt beam="2">  1        2 0.39196862E-01 0.90800964E+02</pdfrwt>
<pdfrwt beam="1">  1       -2 0.12446376E-02 0.90800964E+02</pdfrwt>
<totfact> 0.17092058E+05</totfact>
</mgrwt>
</event>
<event>
 5   1  0.1343823E+00  0.8923756E+02  0.7818608E-02  0.1304709E+00
          2   -1    0    0  501    0  0.00000000000E+00  0.00000000000E+00  0.15914700209E+03  0.15914700211E+03  0.26000000000E-02 0. -1.
         -2   -1    0    0    0  501 -0.00000000000E+00 -0.00000000000E+00 -0.12509411349E+02  0.12509411619E+02  0.26000000000E-02 0.  1.
         23    2    1    2    0    0  0.00000000000E+00  0.00000000000E+00  0.14663759074E+03  0.17165641373E+03  0.89237555751E+02 0.  0.
        -13    1    3    3    0    0  0.13449291140E+02 -0.31631706732E+02  0.18593578256E+02  0.39079158484E+02  0.10570000000E+00 0.  1.
         13    1    3    3    0    0 -0.13449291140E+02  0.31631706732E+02  0.12804401249E+03  0.13257725525E+03  0.10570000000E+00 0. -1.
<mgrwt>
<rscale>  0 0.89237556E+02</rscale>
<asrwt>0</asrwt>
<pdfrwt beam="1">  1        2 0.24484152E-01 0.89237556E+02</pdfrwt>
<pdfrwt beam="2">  1       -2 0.19245250E-02 0.89237556E+02</pdfrwt>
<totfact> 0.15121119E+05</totfact>
</mgrwt>
</event>
<event>
 5   1  0.1343823E+00  0.9247924E+02  0.7818608E-02  0.1296957E+00
          2   -1    0    0  501    0  0.00000000000E+00  0.00000000000E+00  0.34701803033E+03  0.34701803034E+03  0.26000000000E-02 0. -1.
         -2   -1    0    0    0  501 -0.00000000000E+00 -0.00000000000E+00 -0.61613584141E+01  0.61613589627E+01  0.26000000000E-02 0.  1.
         23    2    1    2    0    0  0.00000000000E+00  0.00000000000E+00  0.34085667191E+03  0.35317938930E+03  0.92479242203E+02 0.  0.
        -13    1    3    3    0    0  0.36702441945E+02 -0.25166943744E+02  0.21837893765E+03  0.22286726068E+03  0.10570000000E+00 0.  1.
         13    1    3    3    0    0 -0.36702441945E+02  0.25166943744E+02  0.12247773426E+03  0.13031212862E+03  0.10570000000E+00 0. -1.
<mgrwt>
<rscale>  0 0.92479242E+02</rscale>
<asrwt>0</asrwt>
<pdfrwt beam="1">  1        2 0.53387389E-01 0.92479242E+02</pdfrwt>
<pdfrwt beam="2">  1       -2 0.94790135E-03 0.92479242E+02</pdfrwt>
<totfact> 0.18257009E+05</totfact>
</mgrwt>
</event>
<event>
 5   1  0.1343823E+00  0.9200273E+02  0.7818608E-02  0.1298073E+00
          2   -1    0    0  501    0  0.00000000000E+00  0.00000000000E+00  0.35355011225E+02  0.35355011321E+02  0.26000000000E-02 0.  1.
         -2   -1    0    0    0  501 -0.00000000000E+00 -0.00000000000E+00 -0.59853624989E+02  0.59853625046E+02  0.26000000000E-02 0. -1.
         23    2    1    2    0    0  0.00000000000E+00  0.00000000000E+00 -0.24498613764E+02  0.95208636366E+02  0.92002730190E+02 0.  0.
        -13    1    3    3    0    0  0.25899743055E+02 -0.14556757938E+01 -0.51562534384E+02  0.57720202762E+02  0.10570000000E+00 0. -1.
         13    1    3    3    0    0 -0.25899743055E+02  0.14556757938E+01  0.27063920620E+02  0.37488433604E+02  0.10570000000E+00 0.  1.
<mgrwt>
<rscale>  0 0.92002730E+02</rscale>
<asrwt>0</asrwt>
<pdfrwt beam="1">  1        2 0.54392325E-02 0.92002730E+02</pdfrwt>
<pdfrwt beam="2">  1       -2 0.92082500E-02 0.92002730E+02</pdfrwt>
<totfact> 0.89970720E+04</totfact>
</mgrwt>
</event>
<event>
 5   1  0.1343823E+00  0.9196251E+02  0.7818608E-02  0.1298168E+00
          2   -1    0    0  501    0  0.00000000000E+00  0.00000000000E+00  0.10329996089E+03  0.10329996092E+03  0.26000000000E-02 0. -1.
         -2   -1    0    0    0  501 -0.00000000000E+00 -0.00000000000E+00 -0.20467343366E+02  0.20467343531E+02  0.26000000000E-02 0.  1.
         23    2    1    2    0    0  0.00000000000E+00  0.00000000000E+00  0.82832617522E+02  0.12376730445E+03  0.91962509348E+02 0.  0.
        -13    1    3    3    0    0 -0.26986098421E+02 -0.31011044912E+01  0.91346953667E+02  0.95300280555E+02  0.10570000000E+00 0. -1.
         13    1    3    3    0    0  0.26986098421E+02  0.31011044912E+01 -0.85143361456E+01  0.28467023897E+02  0.10570000000E+00 0.  1.
<mgrwt>
<rscale>  0 0.91962509E+02</rscale>
<asrwt>0</asrwt>
<pdfrwt beam="1">  1        2 0.15892302E-01 0.91962509E+02</pdfrwt>
<pdfrwt beam="2">  1       -2 0.31488221E-02 0.91962509E+02</pdfrwt>
<totfact> 0.12100748E+05</totfact>
</mgrwt>
</event>
<event>
 5   1  0.1343823E+00  0.9078647E+02  0.7818608E-02  0.1300958E+00
          2   -1    0    0  501    0  0.00000000000E+00  0.00000000000E+00  0.34427190622E+03  0.34427190623E+03  0.26000000000E-02 0. -1.
         -2   -1    0    0    0  501 -0.00000000000E+00 -0.00000000000E+00 -0.59852276145E+01  0.59852281793E+01  0.26000000000E-02 0.  1.
         23    2    1    2    0    0  0.00000000000E+00  0.00000000000E+00  0.33828667861E+03  0.35025713441E+03  0.90786470813E+02 0.  0.
        -13    1    3    3    0    0  0.18583649793E+02  0.39733027160E+02  0.21421287848E+03  0.21865780106E+03  0.10570000000E+00 0. -1.
         13    1    3    3    0    0 -0.18583649793E+02 -0.39733027160E+02  0.12407380013E+03  0.13159933335E+03  0.10570000000E+00 0.  1.
<mgrwt>
<rscale>  0 0.90786471E+02</rscale>
<asrwt>0</asrwt>
<pdfrwt beam="1">  1        2 0.52964909E-01 0.90786471E+02</pdfrwt>
<pdfrwt beam="2">  1       -2 0.92080428E-03 0.90786471E+02</pdfrwt>
<totfact> 0.19122032E+05</totfact>
</mgrwt>
</event>
<event>
 5   1  0.1343823E+00  0.9128803E+02  0.7818608E-02  0.1299762E+00
         -2   -1    0    0    0  501 -0.00000000000E+00  0.00000000000E+00  0.26532069549E+03  0.26532069550E+03  0.26000000000E-02 0.  1.
          2   -1    0    0  501    0  0.00000000000E+00 -0.00000000000E+00 -0.78522937377E+01  0.78522941681E+01  0.26000000000E-02 0. -1.
         23    2    1    2    0    0  0.00000000000E+00  0.00000000000E+00  0.25746840175E+03  0.27317298967E+03  0.91288029800E+02 0.  0.
        -13    1    3    3    0    0 -0.42083118420E+02 -0.17369865778E+02  0.11896226652E+03  0.12737634444E+03  0.10570000000E+00 0.  1.
         13    1    3    3    0    0  0.42083118420E+02  0.17369865778E+02  0.13850613523E+03  0.14579664523E+03  0.10570000000E+00 0. -1.
<mgrwt>
<rscale>  0 0.91288030E+02</rscale>
<asrwt>0</asrwt>
<pdfrwt beam="2">  1        2 0.12080454E-02 0.91288030E+02</pdfrwt>
<pdfrwt beam="1">  1       -2 0.40818562E-01 0.91288030E+02</pdfrwt>
<totfact> 0.54331226E+04</totfact>
</mgrwt>
</event>
<event>
 5   1  0.1343823E+00  0.9340820E+02  0.7818608E-02  0.1294802E+00
         -2   -1    0    0    0  501 -0.00000000000E+00  0.00000000000E+00  0.71768745929E+01  0.71768750638E+01  0.26000000000E-02 0.  1.
          2   -1    0    0  501    0  0.00000000000E+00 -0.00000000000E+00 -0.30393075875E+03  0.30393075876E+03  0.26000000000E-02 0. -1.
         23    2    1    2    0    0  0.00000000000E+00  0.00000000000E+00 -0.29675388416E+03  0.31110763383E+03  0.93408201256E+02 0.  0.
        -13    1    3    3    0    0 -0.33226481117E+02  0.23261477173E+02 -0.71255438785E+02  0.81990512236E+02  0.10570000000E+00 0.  1.
         13    1    3    3    0    0  0.33226481117E+02 -0.23261477173E+02 -0.22549844538E+03  0.22911712159E+03  0.10570000000E+00 0. -1.
<mgrwt>
<rscale>  0 0.93408201E+02</rscale>
<asrwt>0</asrwt>
<pdfrwt beam="2">  1        2 0.46758568E-01 0.93408201E+02</pdfrwt>
<pdfrwt beam="1">  1       -2 0.11041348E-02 0.93408201E+02</pdfrwt>
<totfact> 0.16923546E+05</totfact>
</mgrwt>
</event>
<event>
 5   1  0.1343823E+00  0.9172487E+02  0.7818608E-02  0.1298728E+00
         -2   -1    0    0    0  501 -0.00000000000E+00  0.00000000000E+00  0.21265052013E+02  0.21265052172E+02  0.26000000000E-02 0. -1.
          2   -1    0    0  501    0  0.00000000000E+00 -0.00000000000E+00 -0.98911720935E+02  0.98911720969E+02  0.26000000000E-02 0.  1.
         23    2    1    2    0    0  0.00000000000E+00  0.00000000000E+00 -0.77646668921E+02  0.12017677314E+03  0.91724869082E+02 0.  0.
        -13    1    3    3    0    0 -0.35912463743E+02  0.79996195297E+01 -0.29506802207E+01  0.36910928612E+02  0.10570000000E+00 0. -1.
         13    1    3    3    0    0  0.35912463743E+02 -0.79996195297E+01 -0.74695988701E+02  0.83265844529E+02  0.10570000000E+00 0.  1.
<mgrwt>
<rscale>  0 0.91724869E+02</rscale>
<asrwt>0</asrwt>
<pdfrwt beam="2">  1        2 0.15217188E-01 0.91724869E+02</pdfrwt>
<pdfrwt beam="1">  1       -2 0.32715465E-02 0.91724869E+02</pdfrwt>
<totfact> 0.12026454E+05</totfact>
</mgrwt>
</event>
<event>
 5   1  0.1343823E+00  0.9010877E+02  0.7818608E-02  0.1302589E+00
          2   -1    0    0  501    0  0.00000000000E+00  0.00000000000E+00  0.12730335349E+03  0.12730335351E+03  0.26000000000E-02 0.  1.
         -2   -1    0    0    0  501 -0.00000000000E+00 -0.00000000000E+00 -0.15945358992E+02  0.15945359204E+02  0.26000000000E-02 0. -1.
         23    2    1    2    0    0  0.00000000000E+00  0.00000000000E+00  0.11135799450E+03  0.14324871272E+03  0.90108771811E+02 0.  0.
        -13    1    3    3    0    0  0.69182918864E+01 -0.41517610398E+02  0.81229283178E+02  0.91486514601E+02  0.10570000000E+00 0.  1.
         13    1    3    3    0    0 -0.69182918864E+01  0.41517610398E+02  0.30128711319E+02  0.51762198118E+02  0.10570000000E+00 0. -1.
<mgrwt>
<rscale>  0 0.90108772E+02</rscale>
<asrwt>0</asrwt>
<pdfrwt beam="1">  1        2 0.19585131E-01 0.90108772E+02</pdfrwt>
<pdfrwt beam="2">  1       -2 0.24531322E-02 0.90108772E+02</pdfrwt>
<totfact> 0.13668812E+05</totfact>
</mgrwt>
</event>
<event>
 5   1  0.1343823E+00  0.8384083E+02  0.7818608E-02  0.1318492E+00
          2   -1    0    0  501    0  0.00000000000E+00  0.00000000000E+00  0.22791603546E+02  0.22791603694E+02  0.26000000000E-02 0. -1.
         -2   -1    0    0    0  501 -0.00000000000E+00 -0.00000000000E+00 -0.77103894115E+02  0.77103894159E+02  0.26000000000E-02 0.  1.
         23    2    1    2    0    0  0.00000000000E+00  0.00000000000E+00 -0.54312290569E+02  0.99895497853E+02  0.83840834827E+02 0.  0.
        -13    1    3    3    0    0  0.81219425800E+01  0.26612608812E+02 -0.64514876030E+02  0.70259357389E+02  0.10570000000E+00 0.  1.
         13    1    3    3    0    0 -0.81219425800E+01 -0.26612608812E+02  0.10202585461E+02  0.29636140464E+02  0.10570000000E+00 0. -1.
<mgrwt>
<rscale>  0 0.83840835E+02</rscale>
<asrwt>0</asrwt>
<pdfrwt beam="1">  1        2 0.35064006E-02 0.83840835E+02</pdfrwt>
<pdfrwt beam="2">  1       -2 0.11862137E-01 0.83840835E+02</pdfrwt>
<totfact> 0.10558318E+05</totfact>
</mgrwt>
</event>
<event>
 5   1  0.1343823E+00  0.9506186E+02  0.7818608E-02  0.1291037E+00
         -2   -1    0    0    0  501 -0.00000000000E+00  0.00000000000E+00  0.10596417827E+03  0.10596417830E+03  0.26000000000E-02 0.  1.
          2   -1    0    0  501    0  0.00000000000E+00 -0.00000000000E+00 -0.21320309674E+02  0.21320309833E+02  0.26000000000E-02 0. -1.
         23    2    1    2    0    0  0.00000000000E+00  0.00000000000E+00  0.84643868592E+02  0.12728448813E+03  0.95061855802E+02 0.  0.
        -13    1    3    3    0    0 -0.18356630308E+02 -0.18189028545E+02  0.95735915912E+02  0.99162409227E+02  0.10570000000E+00 0.  1.
         13    1    3    3    0    0  0.18356630308E+02  0.18189028545E+02 -0.11092047320E+02  0.28122078904E+02  0.10570000000E+00 0. -1.
<mgrwt>
<rscale>  0 0.95061856E+02</rscale>
<asrwt>0</asrwt>
<pdfrwt beam="2">  1        2 0.32800476E-02 0.95061856E+02</pdfrwt>
<pdfrwt beam="1">  1       -2 0.16302182E-01 0.95061856E+02</pdfrwt>
<totfact> 0.70663396E+04</totfact>
</mgrwt>
</event>
<event>
 5   1  0.1343823E+00  0.9618777E+02  0.7818608E-02  0.1288523E+00
          2   -1    0    0  501    0  0.00000000000E+00  0.00000000000E+00  0.21324344012E+03  0.21324344014E+03  0.26000000000E-02 0. -1.
         -2   -1    0    0    0  501 -0.00000000000E+00 -0.00000000000E+00 -0.10846860462E+02  0.10846860774E+02  0.26000000000E-02 0.  1.
         23    2    1    2    0    0  0.00000000000E+00  0.00000000000E+00  0.20239657966E+03  0.22409030091E+03  0.96187772116E+02 0.  0.
        -13    1    3    3    0    0  0.20097033100E+02 -0.37932225324E+02  0.50676922262E+02  0.66414652599E+02  0.10570000000E+00 0.  1.
         13    1    3    3    0    0 -0.20097033100E+02  0.37932225324E+02  0.15171965740E+03  0.15767564831E+03  0.10570000000E+00 0. -1.
<mgrwt>
<rscale>  0 0.96187772E+02</rscale>
<asrwt>0</asrwt>
<pdfrwt beam="1">  1        2 0.32806682E-01 0.96187772E+02</pdfrwt>
<pdfrwt beam="2">  1       -2 0.16687478E-02 0.96187772E+02</pdfrwt>
<totfact> 0.13704100E+05</totfact>
</mgrwt>
</event>
<event>
 5   1  0.1343823E+00  0.9595485E+02  0.7818608E-02  0.1289040E+00
          2   -1    0    0  501    0  0.00000000000E+00  0.00000000000E+00  0.89968356485E+02  0.89968356523E+02  0.26000000000E-02 0. -1.
         -2   -1    0    0    0  501 -0.00000000000E+00 -0.00000000000E+00 -0.25584922352E+02  0.25584922484E+02  0.26000000000E-02 0.  1.
         23    2    1    2    0    0  0.00000000000E+00  0.00000000000E+00  0.64383434133E+02  0.11555327901E+03  0.95954852396E+02 0.  0.
        -13    1    3    3    0    0  0.19527971361E+02  0.37236264809E+02  0.43649958950E+01  0.42272277489E+02  0.10570000000E+00 0.  1.
         13    1    3    3    0    0 -0.19527971361E+02 -0.37236264809E+02  0.60018438238E+02  0.73281001518E+02  0.10570000000E+00 0. -1.
<mgrwt>
<rscale>  0 0.95954852E+02</rscale>
<asrwt>0</asrwt>
<pdfrwt beam="1">  1        2 0.13841285E-01 0.95954852E+02</pdfrwt>
<pdfrwt beam="2">  1       -2 0.39361420E-02 0.95954852E+02</pdfrwt>
<totfact> 0.10312431E+05</totfact>
</mgrwt>
</event>
<event>
 5   1  0.1343823E+00  0.9144928E+02  0.7818608E-02  0.1299380E+00
          2   -1    0    0  501    0  0.00000000000E+00  0.00000000000E+00  0.39203441347E+02  0.39203441433E+02  0.26000000000E-02 0. -1.
         -2   -1    0    0    0  501 -0.00000000000E+00 -0.00000000000E+00 -0.53330585303E+02  0.53330585366E+02  0.26000000000E-02 0.  1.
         23    2    1    2    0    0  0.00000000000E+00  0.00000000000E+00 -0.14127143956E+02  0.92534026799E+02  0.91449275116E+02 0.  0.
        -13    1    3    3    0    0  0.90325797944E+01 -0.36100648238E+02 -0.33947256370E+02  0.50371337966E+02  0.10570000000E+00 0.  1.
         13    1    3    3    0    0 -0.90325797944E+01  0.36100648238E+02  0.19820112414E+02  0.42162688832E+02  0.10570000000E+00 0. -1.
<mgrwt>
<rscale>  0 0.91449275E+02</rscale>
<asrwt>0</asrwt>
<pdfrwt beam="1">  1        2 0.60312987E-02 0.91449275E+02</pdfrwt>
<pdfrwt beam="2">  1       -2 0.82047054E-02 0.91449275E+02</pdfrwt>
<totfact> 0.94074109E+04</totfact>
</mgrwt>
</event>
<event>
 5   1  0.1343823E+00  0.9208568E+02  0.7818608E-02  0.1297878E+00
         -2   -1    0    0    0  501 -0.00000000000E+00  0.00000000000E+00  0.21173072960E+02  0.21173073119E+02  0.26000000000E-02 0.  1.
          2   -1    0    0  501    0  0.00000000000E+00 -0.00000000000E+00 -0.10012449641E+03  0.10012449644E+03  0.26000000000E-02 0. -1.
         23    2    1    2    0    0  0.00000000000E+00  0.00000000000E+00 -0.78951423447E+02  0.12129756956E+03  0.92085683560E+02 0.  0.
        -13    1    3    3    0    0  0.21596320735E+02 -0.29642693835E+02 -0.28094624633E+01  0.36783075169E+02  0.10570000000E+00 0. -1.
         13    1    3    3    0    0 -0.21596320735E+02  0.29642693835E+02 -0.76141960983E+02  0.84514494390E+02  0.10570000000E+00 0.  1.
<mgrwt>
<rscale>  0 0.92085684E+02</rscale>
<asrwt>0</asrwt>
<pdfrwt beam="2">  1        2 0.15403768E-01 0.92085684E+02</pdfrwt>
<pdfrwt beam="1">  1       -2 0.32573959E-02 0.92085684E+02</pdfrwt>
<totfact> 0.11941177E+05</totfact>
</mgrwt>
</event>
<event>
 5   1  0.1343823E+00  0.9089719E+02  0.7818608E-02  0.1300693E+00
         -2   -1    0    0    0  501 -0.00000000000E+00  0.00000000000E+00  0.26404344277E+02  0.26404344405E+02  0.26000000000E-02 0.  1.
          2   -1    0    0  501    0  0.00000000000E+00 -0.00000000000E+00 -0.78228597476E+02  0.78228597519E+02  0.26000000000E-02 0. -1.
         23    2    1    2    0    0  0.00000000000E+00  0.00000000000E+00 -0.51824253199E+02  0.10463294192E+03  0.90897190914E+02 0.  0.
        -13    1    3    3    0    0  0.13058518651E+02 -0.16773605033E+02  0.20328886958E+02  0.29413492696E+02  0.10570000000E+00 0.  1.
         13    1    3    3    0    0 -0.13058518651E+02  0.16773605033E+02 -0.72153140157E+02  0.75219449228E+02  0.10570000000E+00 0. -1.
<mgrwt>
<rscale>  0 0.90897191E+02</rscale>
<asrwt>0</asrwt>
<pdfrwt beam="2">  1        2 0.12035169E-01 0.90897191E+02</pdfrwt>
<pdfrwt beam="1">  1       -2 0.40622068E-02 0.90897191E+02</pdfrwt>
<totfact> 0.11510385E+05</totfact>
</mgrwt>
</event>
<event>
 5   1  0.1343823E+00  0.9205907E+02  0.7818608E-02  0.1297941E+00
          2   -1    0    0  501    0  0.00000000000E+00  0.00000000000E+00  0.83212675271E+01  0.83212679333E+01  0.26000000000E-02 0. -1.
         -2   -1    0    0    0  501 -0.00000000000E+00 -0.00000000000E+00 -0.25461481735E+03  0.25461481736E+03  0.26000000000E-02 0.  1.
         23    2    1    2    0    0  0.00000000000E+00  0.00000000000E+00 -0.24629354982E+03  0.26293608530E+03  0.92059069443E+02 0.  0.
        -13    1    3    3    0    0  0.32356210649E+02 -0.12849677700E+02 -0.20914863218E+03  0.21202641368E+03  0.10570000000E+00 0.  1.
         13    1    3    3    0    0 -0.32356210649E+02  0.12849677700E+02 -0.37144917645E+02  0.50909671614E+02  0.10570000000E+00 0. -1.
<mgrwt>
<rscale>  0 0.92059069E+02</rscale>
<asrwt>0</asrwt>
<pdfrwt beam="1">  1        2 0.12801952E-02 0.92059069E+02</pdfrwt>
<pdfrwt beam="2">  1       -2 0.39171505E-01 0.92059069E+02</pdfrwt>
<totfact> 0.54302881E+04</totfact>
</mgrwt>
</event>
<event>
 5   1  0.1343823E+00  0.9077985E+02  0.7818608E-02  0.1300974E+00
          2   -1    0    0  501    0  0.00000000000E+00  0.00000000000E+00  0.30103987558E+03  0.30103987559E+03  0.26000000000E-02 0. -1.
         -2   -1    0    0    0  501 -0.00000000000E+00 -0.00000000000E+00 -0.68437620214E+01  0.68437625153E+01  0.26000000000E-02 0.  1.
         23    2    1    2    0    0  0.00000000000E+00  0.00000000000E+00  0.29419611356E+03  0.30788363811E+03  0.90779851182E+02 0.  0.
        -13    1    3    3    0    0  0.42930869671E+01 -0.42241055644E+02  0.20152112936E+03  0.20594541541E+03  0.10570000000E+00 0. -1.
         13    1    3    3    0    0 -0.42930869671E+01  0.42241055644E+02  0.92674984195E+02  0.10193822269E+03  0.10570000000E+00 0.  1.
<mgrwt>
<rscale>  0 0.90779851E+02</rscale>
<asrwt>0</asrwt>
<pdfrwt beam="1">  1        2 0.46313821E-01 0.90779851E+02</pdfrwt>
<pdfrwt beam="2">  1       -2 0.10528866E-02 0.90779851E+02</pdfrwt>
<totfact> 0.18199741E+05</totfact>
</mgrwt>
</event>
<event>
 5   1  0.1343823E+00  0.9782900E+02  0.7818608E-02  0.1284929E+00
          2   -1    0    0  501    0  0.00000000000E+00  0.00000000000E+00  0.14222442350E+03  0.14222442353E+03  0.26000000000E-02 0. -1.
         -2   -1    0    0    0  501 -0.00000000000E+00 -0.00000000000E+00 -0.16822908239E+02  0.16822908440E+02  0.26000000000E-02 0.  1.
         23    2    1    2    0    0  0.00000000000E+00  0.00000000000E+00  0.12540151526E+03  0.15904733197E+03  0.97829002730E+02 0.  0.
        -13    1    3    3    0    0 -0.11551330087E+02 -0.47362165379E+02  0.56195785948E+02  0.74394794623E+02  0.10570000000E+00 0. -1.
         13    1    3    3    0    0  0.11551330087E+02  0.47362165379E+02  0.69205729316E+02  0.84652537344E+02  0.10570000000E+00 0.  1.
<mgrwt>
<rscale>  0 0.97829003E+02</rscale>
<asrwt>0</asrwt>
<pdfrwt beam="1">  1        2 0.21880681E-01 0.97829003E+02</pdfrwt>
<pdfrwt beam="2">  1       -2 0.25881397E-02 0.97829003E+02</pdfrwt>
<totfact> 0.11327506E+05</totfact>
</mgrwt>
</event>
<event>
 5   1  0.1343823E+00  0.8966733E+02  0.7818608E-02  0.1303659E+00
         -2   -1    0    0    0  501 -0.00000000000E+00  0.00000000000E+00  0.81483012744E+02  0.81483012785E+02  0.26000000000E-02 0.  1.
          2   -1    0    0  501    0  0.00000000000E+00 -0.00000000000E+00 -0.24668424351E+02  0.24668424488E+02  0.26000000000E-02 0. -1.
         23    2    1    2    0    0  0.00000000000E+00  0.00000000000E+00  0.56814588393E+02  0.10615143727E+03  0.89667330622E+02 0.  0.
        -13    1    3    3    0    0  0.25741422202E+02  0.33642388697E+02  0.45790559695E+02  0.62379625391E+02  0.10570000000E+00 0.  1.
         13    1    3    3    0    0 -0.25741422202E+02 -0.33642388697E+02  0.11024028698E+02  0.43771811882E+02  0.10570000000E+00 0. -1.
<mgrwt>
<rscale>  0 0.89667331E+02</rscale>
<asrwt>0</asrwt>
<pdfrwt beam="2">  1        2 0.37951422E-02 0.89667331E+02</pdfrwt>
<pdfrwt beam="1">  1       -2 0.12535848E-01 0.89667331E+02</pdfrwt>
<totfact> 0.88193233E+04</totfact>
</mgrwt>
</event>
<event>
 5   1  0.1343823E+00  0.1065140E+03  0.7818608E-02  0.1267165E+00
         -2   -1    0    0    0  501 -0.00000000000E+00  0.00000000000E+00  0.10146658921E+02  0.10146659254E+02  0.26000000000E-02 0.  1.
          2   -1    0    0  501    0  0.00000000000E+00 -0.00000000000E+00 -0.27953123377E+03  0.27953123379E+03  0.26000000000E-02 0. -1.
         23    2    1    2    0    0  0.00000000000E+00  0.00000000000E+00 -0.26938457485E+03  0.28967789304E+03  0.10651400165E+03 0.  0.
        -13    1    3    3    0    0  0.26963973791E+02 -0.44937824936E+02 -0.10891563383E+03  0.12086807046E+03  0.10570000000E+00 0.  1.
         13    1    3    3    0    0 -0.26963973791E+02  0.44937824936E+02 -0.16046894102E+03  0.16880982258E+03  0.10570000000E+00 0. -1.
<mgrwt>
<rscale>  0 0.10651400E+03</rscale>
<asrwt>0</asrwt>
<pdfrwt beam="2">  1        2 0.43004799E-01 0.10651400E+03</pdfrwt>
<pdfrwt beam="1">  1       -2 0.15610247E-02 0.10651400E+03</pdfrwt>
<totfact> 0.11506507E+05</totfact>
</mgrwt>
</event>
<event>
 5   1  0.1343823E+00  0.1065903E+03  0.7818608E-02  0.1267018E+00
          2   -1    0    0  501    0  0.00000000000E+00  0.00000000000E+00  0.17993599427E+02  0.17993599614E+02  0.26000000000E-02 0.  1.
         -2   -1    0    0    0  501 -0.00000000000E+00 -0.00000000000E+00 -0.15785462519E+03  0.15785462521E+03  0.26000000000E-02 0. -1.
         23    2    1    2    0    0  0.00000000000E+00  0.00000000000E+00 -0.13986102576E+03  0.17584822482E+03  0.10659029809E+03 0.  0.
        -13    1    3    3    0    0  0.40415326008E+02 -0.26975893164E+02 -0.10604719733E+03  0.11664954617E+03  0.10570000000E+00 0. -1.
         13    1    3    3    0    0 -0.40415326008E+02  0.26975893164E+02 -0.33813828433E+02  0.59198678652E+02  0.10570000000E+00 0.  1.
<mgrwt>
<rscale>  0 0.10659030E+03</rscale>
<asrwt>0</asrwt>
<pdfrwt beam="1">  1        2 0.27682462E-02 0.10659030E+03</pdfrwt>
<pdfrwt beam="2">  1       -2 0.24285326E-01 0.10659030E+03</pdfrwt>
<totfact> 0.46116076E+04</totfact>
</mgrwt>
</event>
<event>
 5   1  0.1343823E+00  0.9084031E+02  0.7818608E-02  0.1300829E+00
          2   -1    0    0  501    0  0.00000000000E+00  0.00000000000E+00  0.30441426137E+02  0.30441426248E+02  0.26000000000E-02 0. -1.
         -2   -1    0    0    0  501 -0.00000000000E+00 -0.00000000000E+00 -0.67769176188E+02  0.67769176238E+02  0.26000000000E-02 0.  1.
         23    2    1    2    0    0  0.00000000000E+00  0.00000000000E+00 -0.37327750051E+02  0.98210602486E+02  0.90840307776E+02 0.  0.
        -13    1    3    3    0    0 -0.17598129147E+02 -0.41859534257E+02 -0.17548445273E+02  0.48681350245E+02  0.10570000000E+00 0.  1.
         13    1    3    3    0    0  0.17598129147E+02  0.41859534257E+02 -0.19779304778E+02  0.49529252242E+02  0.10570000000E+00 0. -1.
<mgrwt>
<rscale>  0 0.90840308E+02</rscale>
<asrwt>0</asrwt>
<pdfrwt beam="1">  1        2 0.46832964E-02 0.90840308E+02</pdfrwt>
<pdfrwt beam="2">  1       -2 0.10426027E-01 0.90840308E+02</pdfrwt>
<totfact> 0.89789378E+04</totfact>
</mgrwt>
</event>
<event>
 5   1  0.1343823E+00  0.9205862E+02  0.7818608E-02  0.1297942E+00
          2   -1    0    0  501    0  0.00000000000E+00  0.00000000000E+00  0.18128454963E+02  0.18128455149E+02  0.26000000000E-02 0.  1.
         -2   -1    0    0    0  501 -0.00000000000E+00 -0.00000000000E+00 -0.11687137375E+03  0.11687137378E+03  0.26000000000E-02 0. -1.
         23    2    1    2    0    0  0.00000000000E+00  0.00000000000E+00 -0.98742918790E+02  0.13499982893E+03  0.92058621542E+02 0.  0.
        -13    1    3    3    0    0 -0.18451837409E+02  0.41985774775E+02 -0.43614677224E+02  0.63289231541E+02  0.10570000000E+00 0.  1.
         13    1    3    3    0    0  0.18451837409E+02 -0.41985774775E+02 -0.55128241567E+02  0.71710597390E+02  0.10570000000E+00 0. -1.
<mgrwt>
<rscale>  0 0.92058622E+02</rscale>
<asrwt>0</asrwt>
<pdfrwt beam="1">  1        2 0.27889932E-02 0.92058622E+02</pdfrwt>
<pdfrwt beam="2">  1       -2 0.17980211E-01 0.92058622E+02</pdfrwt>
<totfact> 0.74244884E+04</totfact>
</mgrwt>
</event>
<event>
 5   1  0.1343823E+00  0.8167600E+02  0.7818608E-02  0.1324361E+00
          2   -1    0    0  501    0  0.00000000000E+00  0.00000000000E+00  0.19402713494E+02  0.19402713669E+02  0.26000000000E-02 0. -1.
         -2   -1    0    0    0  501 -0.00000000000E+00 -0.00000000000E+00 -0.85954077145E+02  0.85954077184E+02  0.26000000000E-02 0.  1.
         23    2    1    2    0    0  0.00000000000E+00  0.00000000000E+00 -0.66551363650E+02  0.10535679085E+03  0.81676002443E+02 0.  0.
        -13    1    3    3    0    0 -0.20663122552E+02  0.33602415432E+02 -0.46905377908E+02  0.61287948290E+02  0.10570000000E+00 0. -1.
         13    1    3    3    0    0  0.20663122552E+02 -0.33602415432E+02 -0.19645985742E+02  0.44068842562E+02  0.10570000000E+00 0.  1.
<mgrwt>
<rscale>  0 0.81676002E+02</rscale>
<asrwt>0</asrwt>
<pdfrwt beam="1">  1        2 0.29850329E-02 0.81676002E+02</pdfrwt>
<pdfrwt beam="2">  1       -2 0.13223704E-01 0.81676002E+02</pdfrwt>
<totfact> 0.10943190E+05</totfact>
</mgrwt>
</event>
<event>
 5   1  0.1343823E+00  0.7134173E+02  0.7818608E-02  0.1355589E+00
          2   -1    0    0  501    0  0.00000000000E+00  0.00000000000E+00  0.18047427765E+03  0.18047427767E+03  0.26000000000E-02 0. -1.
         -2   -1    0    0    0  501 -0.00000000000E+00 -0.00000000000E+00 -0.70503708997E+01  0.70503713792E+01  0.26000000000E-02 0.  1.
         23    2    1    2    0    0  0.00000000000E+00  0.00000000000E+00  0.17342390675E+03  0.18752464905E+03  0.71341730902E+02 0.  0.
        -13    1    3    3    0    0 -0.21991083672E+02  0.25788318115E+02  0.11595313840E+03  0.12080474572E+03  0.10570000000E+00 0. -1.
         13    1    3    3    0    0  0.21991083672E+02 -0.25788318115E+02  0.57470768354E+02  0.66719903327E+02  0.10570000000E+00 0.  1.
<mgrwt>
<rscale>  0 0.71341731E+02</rscale>
<asrwt>0</asrwt>
<pdfrwt beam="1">  1        2 0.27765277E-01 0.71341731E+02</pdfrwt>
<pdfrwt beam="2">  1       -2 0.10846724E-02 0.71341731E+02</pdfrwt>
<totfact> 0.28619713E+05</totfact>
</mgrwt>
</event>
<event>
 5   1  0.1343823E+00  0.9022817E+02  0.7818608E-02  0.1302300E+00
         -2   -1    0    0    0  501 -0.00000000000E+00  0.00000000000E+00  0.75481433156E+01  0.75481437634E+01  0.26000000000E-02 0.  1.
          2   -1    0    0  501    0  0.00000000000E+00 -0.00000000000E+00 -0.26963988587E+03  0.26963988588E+03  0.26000000000E-02 0. -1.
         23    2    1    2    0    0  0.00000000000E+00  0.00000000000E+00 -0.26209174255E+03  0.27718802964E+03  0.90228167795E+02 0.  0.
        -13    1    3    3    0    0  0.18011415627E+02  0.40665979897E+02 -0.10782445564E+03  0.11663729000E+03  0.10570000000E+00 0.  1.
         13    1    3    3    0    0 -0.18011415627E+02 -0.40665979897E+02 -0.15426728692E+03  0.16055073964E+03  0.10570000000E+00 0. -1.
<mgrwt>
<rscale>  0 0.90228168E+02</rscale>
<asrwt>0</asrwt>
<pdfrwt beam="2">  1        2 0.41483052E-01 0.90228168E+02</pdfrwt>
<pdfrwt beam="1">  1       -2 0.11612531E-02 0.90228168E+02</pdfrwt>
<totfact> 0.17754163E+05</totfact>
</mgrwt>
</event>
<event>
 5   1  0.1343823E+00  0.1007062E+03  0.7818608E-02  0.1278818E+00
         -2   -1    0    0    0  501 -0.00000000000E+00  0.00000000000E+00  0.11364192339E+02  0.11364192636E+02  0.26000000000E-02 0.  1.
          2   -1    0    0  501    0  0.00000000000E+00 -0.00000000000E+00 -0.22310712546E+03  0.22310712548E+03  0.26000000000E-02 0. -1.
         23    2    1    2    0    0  0.00000000000E+00  0.00000000000E+00 -0.21174293312E+03  0.23447131811E+03  0.10070615319E+03 0.  0.
        -13    1    3    3    0    0  0.36505454732E+02  0.88838606999E+01 -0.27818775314E+02  0.46748974733E+02  0.10570000000E+00 0.  1.
         13    1    3    3    0    0 -0.36505454732E+02 -0.88838606999E+01 -0.18392415781E+03  0.18772234338E+03  0.10570000000E+00 0. -1.
<mgrwt>
<rscale>  0 0.10070615E+03</rscale>
<asrwt>0</asrwt>
<pdfrwt beam="2">  1        2 0.34324170E-01 0.10070615E+03</pdfrwt>
<pdfrwt beam="1">  1       -2 0.17483375E-02 0.10070615E+03</pdfrwt>
<totfact> 0.12304561E+05</totfact>
</mgrwt>
</event>
<event>
 5   1  0.1343823E+00  0.9096946E+02  0.7818608E-02  0.1300521E+00
         -2   -1    0    0    0  501 -0.00000000000E+00  0.00000000000E+00  0.96829325315E+02  0.96829325350E+02  0.26000000000E-02 0.  1.
          2   -1    0    0  501    0  0.00000000000E+00 -0.00000000000E+00 -0.21366054112E+02  0.21366054270E+02  0.26000000000E-02 0. -1.
         23    2    1    2    0    0  0.00000000000E+00  0.00000000000E+00  0.75463271203E+02  0.11819537962E+03  0.90969458957E+02 0.  0.
        -13    1    3    3    0    0 -0.12596476989E+02  0.30027016381E+02  0.78994084930E+02  0.85442200181E+02  0.10570000000E+00 0.  1.
         13    1    3    3    0    0  0.12596476989E+02 -0.30027016381E+02 -0.35308137270E+01  0.32753179439E+02  0.10570000000E+00 0. -1.
<mgrwt>
<rscale>  0 0.90969459E+02</rscale>
<asrwt>0</asrwt>
<pdfrwt beam="2">  1        2 0.32870854E-02 0.90969459E+02</pdfrwt>
<pdfrwt beam="1">  1       -2 0.14896819E-01 0.90969459E+02</pdfrwt>
<totfact> 0.81029666E+04</totfact>
</mgrwt>
</event>
<event>
 5   1  0.1343823E+00  0.6335662E+02  0.7818608E-02  0.1384262E+00
          2   -1    0    0  501    0  0.00000000000E+00  0.00000000000E+00  0.20005038218E+03  0.20005038219E+03  0.26000000000E-02 0. -1.
         -2   -1    0    0    0  501 -0.00000000000E+00 -0.00000000000E+00 -0.50163133781E+01  0.50163140519E+01  0.26000000000E-02 0.  1.
         23    2    1    2    0    0  0.00000000000E+00  0.00000000000E+00  0.19503406880E+03  0.20506669625E+03  0.63356624886E+02 0.  0.
        -13    1    3    3    0    0  0.25218832426E+02  0.15069981544E+02  0.13587034195E+03  0.13901026885E+03  0.10570000000E+00 0. -1.
         13    1    3    3    0    0 -0.25218832426E+02 -0.15069981544E+02  0.59163726849E+02  0.66056427392E+02  0.10570000000E+00 0.  1.
<mgrwt>
<rscale>  0 0.63356625E+02</rscale>
<asrwt>0</asrwt>
<pdfrwt beam="1">  1        2 0.30776972E-01 0.63356625E+02</pdfrwt>
<pdfrwt beam="2">  1       -2 0.77174082E-03 0.63356625E+02</pdfrwt>
<totfact> 0.40349745E+05</totfact>
</mgrwt>
</event>
<event>
 5   1  0.1343823E+00  0.9175654E+02  0.7818608E-02  0.1298653E+00
          2   -1    0    0  501    0  0.00000000000E+00  0.00000000000E+00  0.33011782646E+03  0.33011782647E+03  0.26000000000E-02 0. -1.
         -2   -1    0    0    0  501 -0.00000000000E+00 -0.00000000000E+00 -0.63759521343E+01  0.63759526644E+01  0.26000000000E-02 0.  1.
         23    2    1    2    0    0  0.00000000000E+00  0.00000000000E+00  0.32374187432E+03  0.33649377913E+03  0.91756537666E+02 0.  0.
        -13    1    3    3    0    0 -0.36271606016E+02  0.24592580376E+02  0.11207465863E+03  0.12033771101E+03  0.10570000000E+00 0.  1.
         13    1    3    3    0    0  0.36271606016E+02 -0.24592580376E+02  0.21166721570E+03  0.21615606812E+03  0.10570000000E+00 0. -1.
<mgrwt>
<rscale>  0 0.91756538E+02</rscale>
<asrwt>0</asrwt>
<pdfrwt beam="1">  1        2 0.50787366E-01 0.91756538E+02</pdfrwt>
<pdfrwt beam="2">  1       -2 0.98091561E-03 0.91756538E+02</pdfrwt>
<totfact> 0.18303209E+05</totfact>
</mgrwt>
</event>
<event>
 5   1  0.1343823E+00  0.9243709E+02  0.7818608E-02  0.1297055E+00
         -2   -1    0    0    0  501 -0.00000000000E+00  0.00000000000E+00  0.79408205709E+01  0.79408209965E+01  0.26000000000E-02 0.  1.
          2   -1    0    0  501    0  0.00000000000E+00 -0.00000000000E+00 -0.26900921301E+03  0.26900921302E+03  0.26000000000E-02 0. -1.
         23    2    1    2    0    0  0.00000000000E+00  0.00000000000E+00 -0.26106839244E+03  0.27695003402E+03  0.92437091107E+02 0.  0.
        -13    1    3    3    0    0  0.46071755134E+02  0.31898676289E+01 -0.12504153002E+03  0.13329732660E+03  0.10570000000E+00 0.  1.
         13    1    3    3    0    0 -0.46071755134E+02 -0.31898676289E+01 -0.13602686242E+03  0.14365270742E+03  0.10570000000E+00 0. -1.
<mgrwt>
<rscale>  0 0.92437091E+02</rscale>
<asrwt>0</asrwt>
<pdfrwt beam="2">  1        2 0.41386026E-01 0.92437091E+02</pdfrwt>
<pdfrwt beam="1">  1       -2 0.12216649E-02 0.92437091E+02</pdfrwt>
<totfact> 0.16627388E+05</totfact>
</mgrwt>
</event>
<event>
 5   1  0.1343823E+00  0.9915083E+02  0.7818608E-02  0.1282092E+00
         -2   -1    0    0    0  501 -0.00000000000E+00  0.00000000000E+00  0.17387667014E+03  0.17387667016E+03  0.26000000000E-02 0.  1.
          2   -1    0    0  501    0  0.00000000000E+00 -0.00000000000E+00 -0.14134857499E+02  0.14134857739E+02  0.26000000000E-02 0. -1.
         23    2    1    2    0    0  0.00000000000E+00  0.00000000000E+00  0.15974181264E+03  0.18801152790E+03  0.99150834172E+02 0.  0.
        -13    1    3    3    0    0  0.41555838163E+02  0.24794712741E+02  0.10029778276E+03  0.11136122244E+03  0.10570000000E+00 0. -1.
         13    1    3    3    0    0 -0.41555838163E+02 -0.24794712741E+02  0.59444029885E+02  0.76650305457E+02  0.10570000000E+00 0.  1.
<mgrwt>
<rscale>  0 0.99150834E+02</rscale>
<asrwt>0</asrwt>
<pdfrwt beam="2">  1        2 0.21745934E-02 0.99150834E+02</pdfrwt>
<pdfrwt beam="1">  1       -2 0.26750258E-01 0.99150834E+02</pdfrwt>
<totfact> 0.53345046E+04</totfact>
</mgrwt>
</event>
<event>
 5   1  0.1343823E+00  0.9215183E+02  0.7818608E-02  0.1297723E+00
          2   -1    0    0  501    0  0.00000000000E+00  0.00000000000E+00  0.27863542378E+02  0.27863542500E+02  0.26000000000E-02 0. -1.
         -2   -1    0    0    0  501 -0.00000000000E+00 -0.00000000000E+00 -0.76192399382E+02  0.76192399426E+02  0.26000000000E-02 0.  1.
         23    2    1    2    0    0  0.00000000000E+00  0.00000000000E+00 -0.48328857003E+02  0.10405594193E+03  0.92151834658E+02 0.  0.
        -13    1    3    3    0    0  0.44857788135E+02  0.19189326040E+00 -0.36046110098E+02  0.57546426519E+02  0.10570000000E+00 0.  1.
         13    1    3    3    0    0 -0.44857788135E+02 -0.19189326040E+00 -0.12282746905E+02  0.46509515407E+02  0.10570000000E+00 0. -1.
<mgrwt>
<rscale>  0 0.92151835E+02</rscale>
<asrwt>0</asrwt>
<pdfrwt beam="1">  1        2 0.42866989E-02 0.92151835E+02</pdfrwt>
<pdfrwt beam="2">  1       -2 0.11721908E-01 0.92151835E+02</pdfrwt>
<totfact> 0.84005623E+04</totfact>
</mgrwt>
</event>
<event>
 5   1  0.1343823E+00  0.9376760E+02  0.7818608E-02  0.1293976E+00
         -2   -1    0    0    0  501 -0.00000000000E+00  0.00000000000E+00  0.30778149994E+02  0.30778150104E+02  0.26000000000E-02 0. -1.
          2   -1    0    0  501    0  0.00000000000E+00 -0.00000000000E+00 -0.71417247071E+02  0.71417247118E+02  0.26000000000E-02 0.  1.
         23    2    1    2    0    0  0.00000000000E+00  0.00000000000E+00 -0.40639097077E+02  0.10219539722E+03  0.93767601026E+02 0.  0.
        -13    1    3    3    0    0 -0.76181744267E+01 -0.42306100442E+02 -0.40716227368E+02  0.59208656966E+02  0.10570000000E+00 0.  1.
         13    1    3    3    0    0  0.76181744267E+01  0.42306100442E+02  0.77130291410E-01  0.42986740255E+02  0.10570000000E+00 0. -1.
<mgrwt>
<rscale>  0 0.93767601E+02</rscale>
<asrwt>0</asrwt>
<pdfrwt beam="2">  1        2 0.10987269E-01 0.93767601E+02</pdfrwt>
<pdfrwt beam="1">  1       -2 0.47351000E-02 0.93767601E+02</pdfrwt>
<totfact> 0.10283230E+05</totfact>
</mgrwt>
</event>
<event>
 5   1  0.1343823E+00  0.9174571E+02  0.7818608E-02  0.1298678E+00
          2   -1    0    0  501    0  0.00000000000E+00  0.00000000000E+00  0.14194769801E+02  0.14194770040E+02  0.26000000000E-02 0. -1.
         -2   -1    0    0    0  501 -0.00000000000E+00 -0.00000000000E+00 -0.14824605382E+03  0.14824605385E+03  0.26000000000E-02 0.  1.
         23    2    1    2    0    0  0.00000000000E+00  0.00000000000E+00 -0.13405128402E+03  0.16244082389E+03  0.91745705713E+02 0.  0.
        -13    1    3    3    0    0  0.27387978846E+02 -0.28673072206E+02 -0.10786605751E+03  0.11492320910E+03  0.10570000000E+00 0.  1.
         13    1    3    3    0    0 -0.27387978846E+02  0.28673072206E+02 -0.26185226517E+02  0.47517614789E+02  0.10570000000E+00 0. -1.
<mgrwt>
<rscale>  0 0.91745706E+02</rscale>
<asrwt>0</asrwt>
<pdfrwt beam="1">  1        2 0.21838109E-02 0.91745706E+02</pdfrwt>
<pdfrwt beam="2">  1       -2 0.22807084E-01 0.91745706E+02</pdfrwt>
<totfact> 0.69058681E+04</totfact>
</mgrwt>
</event>
<event>
 5   1  0.1343823E+00  0.8977460E+02  0.7818608E-02  0.1303398E+00
          2   -1    0    0  501    0  0.00000000000E+00  0.00000000000E+00  0.22599080103E+03  0.22599080105E+03  0.26000000000E-02 0. -1.
         -2   -1    0    0    0  501 -0.00000000000E+00 -0.00000000000E+00 -0.89157160219E+01  0.89157164010E+01  0.26000000000E-02 0.  1.
         23    2    1    2    0    0  0.00000000000E+00  0.00000000000E+00  0.21707508501E+03  0.23490651745E+03  0.89774603354E+02 0.  0.
        -13    1    3    3    0    0 -0.92192288466E+01  0.43540933677E+02  0.12380653180E+03  0.13156319993E+03  0.10570000000E+00 0. -1.
         13    1    3    3    0    0  0.92192288466E+01 -0.43540933677E+02  0.93268553211E+02  0.10334331752E+03  0.10570000000E+00 0.  1.
<mgrwt>
<rscale>  0 0.89774603E+02</rscale>
<asrwt>0</asrwt>
<pdfrwt beam="1">  1        2 0.34767818E-01 0.89774603E+02</pdfrwt>
<pdfrwt beam="2">  1       -2 0.13716486E-02 0.89774603E+02</pdfrwt>
<totfact> 0.16858567E+05</totfact>
</mgrwt>
</event>
<event>
 5   1  0.1343823E+00  0.8964810E+02  0.7818608E-02  0.1303706E+00
          2   -1    0    0  501    0  0.00000000000E+00  0.00000000000E+00  0.10829010146E+03  0.10829010149E+03  0.26000000000E-02 0. -1.
         -2   -1    0    0    0  501 -0.00000000000E+00 -0.00000000000E+00 -0.18553821926E+02  0.18553822109E+02  0.26000000000E-02 0.  1.
         23    2    1    2    0    0  0.00000000000E+00  0.00000000000E+00  0.89736279536E+02  0.12684392360E+03  0.89648095851E+02 0.  0.
        -13    1    3    3    0    0  0.40000091026E+02 -0.14740720258E+02  0.64467978055E+02  0.77287951731E+02  0.10570000000E+00 0. -1.
         13    1    3    3    0    0 -0.40000091026E+02  0.14740720258E+02  0.25268301481E+02  0.49555971871E+02  0.10570000000E+00 0.  1.
<mgrwt>
<rscale>  0 0.89648096E+02</rscale>
<asrwt>0</asrwt>
<pdfrwt beam="1">  1        2 0.16660016E-01 0.89648096E+02</pdfrwt>
<pdfrwt beam="2">  1       -2 0.28544341E-02 0.89648096E+02</pdfrwt>
<totfact> 0.13168141E+05</totfact>
</mgrwt>
</event>
<event>
 5   1  0.1343823E+00  0.9070262E+02  0.7818608E-02  0.1301159E+00
          2   -1    0    0  501    0  0.00000000000E+00  0.00000000000E+00  0.25297031148E+03  0.25297031149E+03  0.26000000000E-02 0. -1.
         -2   -1    0    0    0  501 -0.00000000000E+00 -0.00000000000E+00 -0.81303667424E+01  0.81303671581E+01  0.26000000000E-02 0.  1.
         23    2    1    2    0    0  0.00000000000E+00  0.00000000000E+00  0.24483994473E+03  0.26110067865E+03  0.90702623187E+02 0.  0.
        -13    1    3    3    0    0 -0.34426568356E+02  0.63072381900E+01  0.20544084245E+03  0.20840086559E+03  0.10570000000E+00 0. -1.
         13    1    3    3    0    0  0.34426568356E+02 -0.63072381900E+01  0.39399102285E+02  0.52699813052E+02  0.10570000000E+00 0.  1.
<mgrwt>
<rscale>  0 0.90702623E+02</rscale>
<asrwt>0</asrwt>
<pdfrwt beam="1">  1        2 0.38918503E-01 0.90702623E+02</pdfrwt>
<pdfrwt beam="2">  1       -2 0.12508259E-02 0.90702623E+02</pdfrwt>
<totfact> 0.17096494E+05</totfact>
</mgrwt>
</event>
<event>
 5   1  0.1343823E+00  0.9192258E+02  0.7818608E-02  0.1298262E+00
         -2   -1    0    0    0  501 -0.00000000000E+00  0.00000000000E+00  0.91776378571E+02  0.91776378608E+02  0.26000000000E-02 0.  1.
          2   -1    0    0  501    0  0.00000000000E+00 -0.00000000000E+00 -0.23017255675E+02  0.23017255822E+02  0.26000000000E-02 0. -1.
         23    2    1    2    0    0  0.00000000000E+00  0.00000000000E+00  0.68759122896E+02  0.11479363443E+03  0.91922584408E+02 0.  0.
        -13    1    3    3    0    0  0.37012236400E+02 -0.35076819502E+01  0.68125566123E+02  0.77610008427E+02  0.10570000000E+00 0.  1.
         13    1    3    3    0    0 -0.37012236400E+02  0.35076819502E+01  0.63355677315E+00  0.37183626002E+02  0.10570000000E+00 0. -1.
<mgrwt>
<rscale>  0 0.91922584E+02</rscale>
<asrwt>0</asrwt>
<pdfrwt beam="2">  1        2 0.35411163E-02 0.91922584E+02</pdfrwt>
<pdfrwt beam="1">  1       -2 0.14119443E-01 0.91922584E+02</pdfrwt>
<totfact> 0.80206116E+04</totfact>
</mgrwt>
</event>
<event>
 5   1  0.1343823E+00  0.8856045E+02  0.7818608E-02  0.1306376E+00
         -2   -1    0    0    0  501 -0.00000000000E+00  0.00000000000E+00  0.26927009456E+03  0.26927009457E+03  0.26000000000E-02 0.  1.
          2   -1    0    0  501    0  0.00000000000E+00 -0.00000000000E+00 -0.72816784873E+01  0.72816789515E+01  0.26000000000E-02 0. -1.
         23    2    1    2    0    0  0.00000000000E+00  0.00000000000E+00  0.26198841607E+03  0.27655177352E+03  0.88560449880E+02 0.  0.
        -13    1    3    3    0    0  0.91345118272E+01 -0.38592926127E+02  0.69493245976E+02  0.80013596733E+02  0.10570000000E+00 0. -1.
         13    1    3    3    0    0 -0.91345118272E+01  0.38592926127E+02  0.19249517010E+03  0.19653817679E+03  0.10570000000E+00 0.  1.
<mgrwt>
<rscale>  0 0.88560450E+02</rscale>
<asrwt>0</asrwt>
<pdfrwt beam="2">  1        2 0.11202583E-02 0.88560450E+02</pdfrwt>
<pdfrwt beam="1">  1       -2 0.41426166E-01 0.88560450E+02</pdfrwt>
<totfact> 0.58280349E+04</totfact>
</mgrwt>
</event>
<event>
 5   1  0.1343823E+00  0.9093230E+02  0.7818608E-02  0.1300610E+00
         -2   -1    0    0    0  501 -0.00000000000E+00  0.00000000000E+00  0.54674662354E+02  0.54674662415E+02  0.26000000000E-02 0. -1.
          2   -1    0    0  501    0  0.00000000000E+00 -0.00000000000E+00 -0.37808570250E+02  0.37808570340E+02  0.26000000000E-02 0.  1.
         23    2    1    2    0    0  0.00000000000E+00  0.00000000000E+00  0.16866092103E+02  0.92483232755E+02  0.90932300521E+02 0.  0.
        -13    1    3    3    0    0  0.17614298582E+02  0.36061345703E+02 -0.13296644911E+02  0.42278790271E+02  0.10570000000E+00 0.  1.
         13    1    3    3    0    0 -0.17614298582E+02 -0.36061345703E+02  0.30162737014E+02  0.50204442484E+02  0.10570000000E+00 0. -1.
<mgrwt>
<rscale>  0 0.90932301E+02</rscale>
<asrwt>0</asrwt>
<pdfrwt beam="2">  1        2 0.58167031E-02 0.90932301E+02</pdfrwt>
<pdfrwt beam="1">  1       -2 0.84114865E-02 0.90932301E+02</pdfrwt>
<totfact> 0.94743572E+04</totfact>
</mgrwt>
</event>
<event>
 5   1  0.1343823E+00  0.9171977E+02  0.7818608E-02  0.1298740E+00
          2   -1    0    0  501    0  0.00000000000E+00  0.00000000000E+00  0.67189109607E+02  0.67189109657E+02  0.26000000000E-02 0. -1.
         -2   -1    0    0    0  501 -0.00000000000E+00 -0.00000000000E+00 -0.31301637395E+02  0.31301637503E+02  0.26000000000E-02 0.  1.
         23    2    1    2    0    0  0.00000000000E+00  0.00000000000E+00  0.35887472211E+02  0.98490747160E+02  0.91719772211E+02 0.  0.
        -13    1    3    3    0    0  0.68245851330E+01  0.27676187168E+02 -0.20632826817E+02  0.35189075199E+02  0.10570000000E+00 0.  1.
         13    1    3    3    0    0 -0.68245851330E+01 -0.27676187168E+02  0.56520299029E+02  0.63301671962E+02  0.10570000000E+00 0. -1.
<mgrwt>
<rscale>  0 0.91719772E+02</rscale>
<asrwt>0</asrwt>
<pdfrwt beam="1">  1        2 0.10336786E-01 0.91719772E+02</pdfrwt>
<pdfrwt beam="2">  1       -2 0.48156366E-02 0.91719772E+02</pdfrwt>
<totfact> 0.10756824E+05</totfact>
</mgrwt>
</event>
<event>
 5   1  0.1343823E+00  0.9225516E+02  0.7818608E-02  0.1297481E+00
         -2   -1    0    0    0  501 -0.00000000000E+00  0.00000000000E+00  0.99595146645E+02  0.99595146679E+02  0.26000000000E-02 0. -1.
          2   -1    0    0  501    0  0.00000000000E+00 -0.00000000000E+00 -0.21364029916E+02  0.21364030074E+02  0.26000000000E-02 0.  1.
         23    2    1    2    0    0  0.00000000000E+00  0.00000000000E+00  0.78231116729E+02  0.12095917675E+03  0.92255161460E+02 0.  0.
        -13    1    3    3    0    0  0.89388149186E+01  0.19337089448E+02 -0.14527696453E+02  0.25785472212E+02  0.10570000000E+00 0.  1.
         13    1    3    3    0    0 -0.89388149186E+01 -0.19337089448E+02  0.92758813183E+02  0.95173704541E+02  0.10570000000E+00 0. -1.
<mgrwt>
<rscale>  0 0.92255161E+02</rscale>
<asrwt>0</asrwt>
<pdfrwt beam="2">  1        2 0.32867738E-02 0.92255161E+02</pdfrwt>
<pdfrwt beam="1">  1       -2 0.15322330E-01 0.92255161E+02</pdfrwt>
<totfact> 0.77597469E+04</totfact>
</mgrwt>
</event>
<event>
 5   1  0.1343823E+00  0.9336145E+02  0.7818608E-02  0.1294910E+00
          2   -1    0    0  501    0  0.00000000000E+00  0.00000000000E+00  0.11044771520E+03  0.11044771523E+03  0.26000000000E-02 0. -1.
         -2   -1    0    0    0  501 -0.00000000000E+00 -0.00000000000E+00 -0.19729606812E+02  0.19729606984E+02  0.26000000000E-02 0.  1.
         23    2    1    2    0    0  0.00000000000E+00  0.00000000000E+00  0.90718108387E+02  0.13017732221E+03  0.93361448303E+02 0.  0.
        -13    1    3    3    0    0  0.21037171537E+02  0.75402094527E+01  0.10250410670E+03  0.10491196503E+03  0.10570000000E+00 0. -1.
         13    1    3    3    0    0 -0.21037171537E+02 -0.75402094527E+01 -0.11785998309E+02  0.25265357181E+02  0.10570000000E+00 0.  1.
<mgrwt>
<rscale>  0 0.93361448E+02</rscale>
<asrwt>0</asrwt>
<pdfrwt beam="1">  1        2 0.16991956E-01 0.93361448E+02</pdfrwt>
<pdfrwt beam="2">  1       -2 0.30353241E-02 0.93361448E+02</pdfrwt>
<totfact> 0.11852575E+05</totfact>
</mgrwt>
</event>
<event>
 5   1  0.1343823E+00  0.9171053E+02  0.7818608E-02  0.1298761E+00
          2   -1    0    0  501    0  0.00000000000E+00  0.00000000000E+00  0.97259667110E+02  0.97259667145E+02  0.26000000000E-02 0. -1.
         -2   -1    0    0    0  501 -0.00000000000E+00 -0.00000000000E+00 -0.21619499613E+02  0.21619499770E+02  0.26000000000E-02 0.  1.
         23    2    1    2    0    0  0.00000000000E+00  0.00000000000E+00  0.75640167497E+02  0.11887916691E+03  0.91710530406E+02 0.  0.
        -13    1    3    3    0    0 -0.16589165349E+02 -0.21944875188E+02  0.85375015344E+02  0.89697727795E+02  0.10570000000E+00 0. -1.
         13    1    3    3    0    0  0.16589165349E+02  0.21944875188E+02 -0.97348478474E+01  0.29181439120E+02  0.10570000000E+00 0.  1.
<mgrwt>
<rscale>  0 0.91710530E+02</rscale>
<asrwt>0</asrwt>
<pdfrwt beam="1">  1        2 0.14963026E-01 0.91710530E+02</pdfrwt>
<pdfrwt beam="2">  1       -2 0.33260769E-02 0.91710530E+02</pdfrwt>
<totfact> 0.11970292E+05</totfact>
</mgrwt>
</event>
<event>
 5   1  0.1343823E+00  0.9797929E+02  0.7818608E-02  0.1284604E+00
          2   -1    0    0  501    0  0.00000000000E+00  0.00000000000E+00  0.16684569714E+03  0.16684569716E+03  0.26000000000E-02 0. -1.
         -2   -1    0    0    0  501 -0.00000000000E+00 -0.00000000000E+00 -0.14384459104E+02  0.14384459339E+02  0.26000000000E-02 0.  1.
         23    2    1    2    0    0  0.00000000000E+00  0.00000000000E+00  0.15246123803E+03  0.18123015650E+03  0.97979286183E+02 0.  0.
        -13    1    3    3    0    0  0.26853427495E+00  0.44979689781E+02  0.40329257010E+02  0.60412786287E+02  0.10570000000E+00 0.  1.
         13    1    3    3    0    0 -0.26853427495E+00 -0.44979689781E+02  0.11213198102E+03  0.12081737021E+03  0.10570000000E+00 0. -1.
<mgrwt>
<rscale>  0 0.97979286E+02</rscale>
<asrwt>0</asrwt>
<pdfrwt beam="1">  1        2 0.25668570E-01 0.97979286E+02</pdfrwt>
<pdfrwt beam="2">  1       -2 0.22129936E-02 0.97979286E+02</pdfrwt>
<totfact> 0.11925041E+05</totfact>
</mgrwt>
</event>
<event>
 5   1  0.1343823E+00  0.9426092E+02  0.7818608E-02  0.1292849E+00
         -2   -1    0    0    0  501 -0.00000000000E+00  0.00000000000E+00  0.20688078335E+02  0.20688078499E+02  0.26000000000E-02 0.  1.
          2   -1    0    0  501    0  0.00000000000E+00 -0.00000000000E+00 -0.10737006421E+03  0.10737006424E+03  0.26000000000E-02 0. -1.
         23    2    1    2    0    0  0.00000000000E+00  0.00000000000E+00 -0.86681985877E+02  0.12805814274E+03  0.94260921102E+02 0.  0.
        -13    1    3    3    0    0 -0.25885973285E+02  0.36011822137E+02 -0.65006950839E+02  0.78694661677E+02  0.10570000000E+00 0.  1.
         13    1    3    3    0    0  0.25885973285E+02 -0.36011822137E+02 -0.21675035038E+02  0.49363481066E+02  0.10570000000E+00 0. -1.
<mgrwt>
<rscale>  0 0.94260921E+02</rscale>
<asrwt>0</asrwt>
<pdfrwt beam="2">  1        2 0.16518471E-01 0.94260921E+02</pdfrwt>
<pdfrwt beam="1">  1       -2 0.31827814E-02 0.94260921E+02</pdfrwt>
<totfact> 0.11441062E+05</totfact>
</mgrwt>
</event>
<event>
 5   1  0.1343823E+00  0.9167558E+02  0.7818608E-02  0.1298844E+00
         -2   -1    0    0    0  501 -0.00000000000E+00  0.00000000000E+00  0.55790723593E+01  0.55790729651E+01  0.26000000000E-02 0.  1.
          2   -1    0    0  501    0  0.00000000000E+00 -0.00000000000E+00 -0.37660432997E+03  0.37660432998E+03  0.26000000000E-02 0. -1.
         23    2    1    2    0    0  0.00000000000E+00  0.00000000000E+00 -0.37102525761E+03  0.38218340294E+03  0.91675578541E+02 0.  0.
        -13    1    3    3    0    0  0.42277332118E+02 -0.10304512285E+02 -0.12545546048E+03  0.13278794946E+03  0.10570000000E+00 0.  1.
         13    1    3    3    0    0 -0.42277332118E+02  0.10304512285E+02 -0.24556979712E+03  0.24939545348E+03  0.10570000000E+00 0. -1.
<mgrwt>
<rscale>  0 0.91675579E+02</rscale>
<asrwt>0</asrwt>
<pdfrwt beam="2">  1        2 0.57939108E-01 0.91675579E+02</pdfrwt>
<pdfrwt beam="1">  1       -2 0.85831917E-03 0.91675579E+02</pdfrwt>
<totfact> 0.19252226E+05</totfact>
</mgrwt>
</event>
<event>
 5   1  0.1343823E+00  0.9313762E+02  0.7818608E-02  0.1295427E+00
         -2   -1    0    0    0  501 -0.00000000000E+00  0.00000000000E+00  0.27840796545E+02  0.27840796667E+02  0.26000000000E-02 0.  1.
          2   -1    0    0  501    0  0.00000000000E+00 -0.00000000000E+00 -0.77894825508E+02  0.77894825551E+02  0.26000000000E-02 0. -1.
         23    2    1    2    0    0  0.00000000000E+00  0.00000000000E+00 -0.50054028963E+02  0.10573562222E+03  0.93137618557E+02 0.  0.
        -13    1    3    3    0    0  0.43425602226E+02  0.77398920729E+01 -0.41978345249E+02  0.60892376373E+02  0.10570000000E+00 0. -1.
         13    1    3    3    0    0 -0.43425602226E+02 -0.77398920729E+01 -0.80756837137E+01  0.44843245845E+02  0.10570000000E+00 0.  1.
<mgrwt>
<rscale>  0 0.93137619E+02</rscale>
<asrwt>0</asrwt>
<pdfrwt beam="2">  1        2 0.11983819E-01 0.93137619E+02</pdfrwt>
<pdfrwt beam="1">  1       -2 0.42831995E-02 0.93137619E+02</pdfrwt>
<totfact> 0.10741588E+05</totfact>
</mgrwt>
</event>
<event>
 5   1  0.1343823E+00  0.9177964E+02  0.7818608E-02  0.1298598E+00
          2   -1    0    0  501    0  0.00000000000E+00  0.00000000000E+00  0.20977878039E+03  0.20977878041E+03  0.26000000000E-02 0. -1.
         -2   -1    0    0    0  501 -0.00000000000E+00 -0.00000000000E+00 -0.10038553730E+02  0.10038554066E+02  0.26000000000E-02 0.  1.
         23    2    1    2    0    0  0.00000000000E+00  0.00000000000E+00  0.19974022666E+03  0.21981733447E+03  0.91779640380E+02 0.  0.
        -13    1    3    3    0    0  0.25718914511E+02 -0.20647213263E+02  0.23449658243E+02  0.40468106248E+02  0.10570000000E+00 0.  1.
         13    1    3    3    0    0 -0.25718914511E+02  0.20647213263E+02  0.17629056842E+03  0.17934922822E+03  0.10570000000E+00 0. -1.
<mgrwt>
<rscale>  0 0.91779640E+02</rscale>
<asrwt>0</asrwt>
<pdfrwt beam="1">  1        2 0.32273662E-01 0.91779640E+02</pdfrwt>
<pdfrwt beam="2">  1       -2 0.15443928E-02 0.91779640E+02</pdfrwt>
<totfact> 0.15461480E+05</totfact>
</mgrwt>
</event>
<event>
 5   1  0.1343823E+00  0.8785623E+02  0.7818608E-02  0.1308128E+00
         -2   -1    0    0    0  501 -0.00000000000E+00  0.00000000000E+00  0.37275975289E+02  0.37275975379E+02  0.26000000000E-02 0.  1.
          2   -1    0    0  501    0  0.00000000000E+00 -0.00000000000E+00 -0.51767372651E+02  0.51767372716E+02  0.26000000000E-02 0. -1.
         23    2    1    2    0    0  0.00000000000E+00  0.00000000000E+00 -0.14491397362E+02  0.89043348095E+02  0.87856230528E+02 0.  0.
        -13    1    3    3    0    0  0.22138704017E+02  0.28222190841E+02  0.18455453461E+02  0.40338929168E+02  0.10570000000E+00 0. -1.
         13    1    3    3    0    0 -0.22138704017E+02 -0.28222190841E+02 -0.32946850823E+02  0.48704418928E+02  0.10570000000E+00 0.  1.
<mgrwt>
<rscale>  0 0.87856231E+02</rscale>
<asrwt>0</asrwt>
<pdfrwt beam="2">  1        2 0.79642113E-02 0.87856231E+02</pdfrwt>
<pdfrwt beam="1">  1       -2 0.57347654E-02 0.87856231E+02</pdfrwt>
<totfact> 0.11330544E+05</totfact>
</mgrwt>
</event>
<event>
 5   1  0.1343823E+00  0.9013277E+02  0.7818608E-02  0.1302530E+00
         -2   -1    0    0    0  501 -0.00000000000E+00  0.00000000000E+00  0.58122701680E+01  0.58122707496E+01  0.26000000000E-02 0.  1.
          2   -1    0    0  501    0  0.00000000000E+00 -0.00000000000E+00 -0.34942953306E+03  0.34942953307E+03  0.26000000000E-02 0. -1.
         23    2    1    2    0    0  0.00000000000E+00  0.00000000000E+00 -0.34361726289E+03  0.35524180382E+03  0.90132767756E+02 0.  0.
        -13    1    3    3    0    0 -0.37344141836E+02  0.20192042577E+02 -0.11220941993E+03  0.11997194924E+03  0.10570000000E+00 0. -1.
         13    1    3    3    0    0  0.37344141836E+02 -0.20192042577E+02 -0.23140784297E+03  0.23526985457E+03  0.10570000000E+00 0.  1.
<mgrwt>
<rscale>  0 0.90132768E+02</rscale>
<asrwt>0</asrwt>
<pdfrwt beam="2">  1        2 0.53758373E-01 0.90132768E+02</pdfrwt>
<pdfrwt beam="1">  1       -2 0.89419573E-03 0.90132768E+02</pdfrwt>
<totfact> 0.19599173E+05</totfact>
</mgrwt>
</event>
<event>
 5   1  0.1343823E+00  0.9176690E+02  0.7818608E-02  0.1298628E+00
          2   -1    0    0  501    0  0.00000000000E+00  0.00000000000E+00  0.69933697894E+02  0.69933697943E+02  0.26000000000E-02 0. -1.
         -2   -1    0    0    0  501 -0.00000000000E+00 -0.00000000000E+00 -0.30104101456E+02  0.30104101568E+02  0.26000000000E-02 0.  1.
         23    2    1    2    0    0  0.00000000000E+00  0.00000000000E+00  0.39829596438E+02  0.10003779951E+03  0.91766903503E+02 0.  0.
        -13    1    3    3    0    0 -0.21421899286E+02  0.40376780923E+02  0.24288617653E+02  0.51760316138E+02  0.10570000000E+00 0.  1.
         13    1    3    3    0    0  0.21421899286E+02 -0.40376780923E+02  0.15540978785E+02  0.48277483373E+02  0.10570000000E+00 0. -1.
<mgrwt>
<rscale>  0 0.91766904E+02</rscale>
<asrwt>0</asrwt>
<pdfrwt beam="1">  1        2 0.10759030E-01 0.91766904E+02</pdfrwt>
<pdfrwt beam="2">  1       -2 0.46314003E-02 0.91766904E+02</pdfrwt>
<totfact> 0.10860947E+05</totfact>
</mgrwt>
</event>
<event>
 5   1  0.1343823E+00  0.9045356E+02  0.7818608E-02  0.1301757E+00
          2   -1    0    0  501    0  0.00000000000E+00  0.00000000000E+00  0.17753536539E+02  0.17753536729E+02  0.26000000000E-02 0. -1.
         -2   -1    0    0    0  501 -0.00000000000E+00 -0.00000000000E+00 -0.11521431083E+03  0.11521431086E+03  0.26000000000E-02 0.  1.
         23    2    1    2    0    0  0.00000000000E+00  0.00000000000E+00 -0.97460774295E+02  0.13296784759E+03  0.90453556962E+02 0.  0.
        -13    1    3    3    0    0  0.45024675336E+02  0.35898773142E+01 -0.45332873694E+02  0.63993665452E+02  0.10570000000E+00 0.  1.
         13    1    3    3    0    0 -0.45024675336E+02 -0.35898773142E+01 -0.52127900602E+02  0.68974182140E+02  0.10570000000E+00 0. -1.
<mgrwt>
<rscale>  0 0.90453557E+02</rscale>
<asrwt>0</asrwt>
<pdfrwt beam="1">  1        2 0.27313134E-02 0.90453557E+02</pdfrwt>
<pdfrwt beam="2">  1       -2 0.17725278E-01 0.90453557E+02</pdfrwt>
<totfact> 0.77944824E+04</totfact>
</mgrwt>
</event>
<event>
 5   1  0.1343823E+00  0.8535441E+02  0.7818608E-02  0.1314508E+00
          2   -1    0    0  501    0  0.00000000000E+00  0.00000000000E+00  0.19967254302E+02  0.19967254471E+02  0.26000000000E-02 0. -1.
         -2   -1    0    0    0  501 -0.00000000000E+00 -0.00000000000E+00 -0.91216533046E+02  0.91216533084E+02  0.26000000000E-02 0.  1.
         23    2    1    2    0    0  0.00000000000E+00  0.00000000000E+00 -0.71249278745E+02  0.11118378755E+03  0.85354407580E+02 0.  0.
        -13    1    3    3    0    0 -0.13803872111E+02 -0.37504270251E+02 -0.16119538055E+02  0.43092549842E+02  0.10570000000E+00 0. -1.
         13    1    3    3    0    0  0.13803872111E+02  0.37504270251E+02 -0.55129740690E+02  0.68091237713E+02  0.10570000000E+00 0.  1.
<mgrwt>
<rscale>  0 0.85354408E+02</rscale>
<asrwt>0</asrwt>
<pdfrwt beam="1">  1        2 0.30718854E-02 0.85354408E+02</pdfrwt>
<pdfrwt beam="2">  1       -2 0.14033313E-01 0.85354408E+02</pdfrwt>
<totfact> 0.96539797E+04</totfact>
</mgrwt>
</event>
<event>
 5   1  0.1343823E+00  0.9084131E+02  0.7818608E-02  0.1300827E+00
         -2   -1    0    0    0  501 -0.00000000000E+00  0.00000000000E+00  0.53014866607E+01  0.53014872983E+01  0.26000000000E-02 0.  1.
          2   -1    0    0  501    0  0.00000000000E+00 -0.00000000000E+00 -0.38914285322E+03  0.38914285323E+03  0.26000000000E-02 0. -1.
         23    2    1    2    0    0  0.00000000000E+00  0.00000000000E+00 -0.38384136656E+03  0.39444434053E+03  0.90841307188E+02 0.  0.
        -13    1    3    3    0    0 -0.92577331359E+01 -0.43037330744E+02 -0.14335344570E+03  0.14996045821E+03  0.10570000000E+00 0. -1.
         13    1    3    3    0    0  0.92577331359E+01  0.43037330744E+02 -0.24048792086E+03  0.24448388232E+03  0.10570000000E+00 0.  1.
<mgrwt>
<rscale>  0 0.90841307E+02</rscale>
<asrwt>0</asrwt>
<pdfrwt beam="2">  1        2 0.59868109E-01 0.90841307E+02</pdfrwt>
<pdfrwt beam="1">  1       -2 0.81561369E-03 0.90841307E+02</pdfrwt>
<totfact> 0.19960774E+05</totfact>
</mgrwt>
</event>
<event>
 5   1  0.1343823E+00  0.9225407E+02  0.7818608E-02  0.1297483E+00
         -2   -1    0    0    0  501 -0.00000000000E+00  0.00000000000E+00  0.74431503583E+02  0.74431503629E+02  0.26000000000E-02 0.  1.
          2   -1    0    0  501    0  0.00000000000E+00 -0.00000000000E+00 -0.28586058049E+02  0.28586058167E+02  0.26000000000E-02 0. -1.
         23    2    1    2    0    0  0.00000000000E+00  0.00000000000E+00  0.45845445534E+02  0.10301756180E+03  0.92254068540E+02 0.  0.
        -13    1    3    3    0    0 -0.34976064602E+02  0.23972893583E+02  0.43197856973E+02  0.60531733341E+02  0.10570000000E+00 0.  1.
         13    1    3    3    0    0  0.34976064602E+02 -0.23972893583E+02  0.26475885616E+01  0.42485828455E+02  0.10570000000E+00 0. -1.
<mgrwt>
<rscale>  0 0.92254069E+02</rscale>
<asrwt>0</asrwt>
<pdfrwt beam="2">  1        2 0.43978552E-02 0.92254069E+02</pdfrwt>
<pdfrwt beam="1">  1       -2 0.11451000E-01 0.92254069E+02</pdfrwt>
<totfact> 0.84315570E+04</totfact>
</mgrwt>
</event>
<event>
 5   1  0.1343823E+00  0.8733399E+02  0.7818608E-02  0.1309439E+00
         -2   -1    0    0    0  501 -0.00000000000E+00  0.00000000000E+00  0.14563732189E+03  0.14563732191E+03  0.26000000000E-02 0. -1.
          2   -1    0    0  501    0  0.00000000000E+00 -0.00000000000E+00 -0.13092841381E+02  0.13092841639E+02  0.26000000000E-02 0.  1.
         23    2    1    2    0    0  0.00000000000E+00  0.00000000000E+00  0.13254448051E+03  0.15873016355E+03  0.87333988274E+02 0.  0.
        -13    1    3    3    0    0  0.40737404808E+02 -0.15685024399E+02  0.68295366402E+02  0.81054453211E+02  0.10570000000E+00 0. -1.
         13    1    3    3    0    0 -0.40737404808E+02  0.15685024399E+02  0.64249114105E+02  0.77675710339E+02  0.10570000000E+00 0.  1.
<mgrwt>
<rscale>  0 0.87333988E+02</rscale>
<asrwt>0</asrwt>
<pdfrwt beam="2">  1        2 0.20142832E-02 0.87333988E+02</pdfrwt>
<pdfrwt beam="1">  1       -2 0.22405743E-01 0.87333988E+02</pdfrwt>
<totfact> 0.78719430E+04</totfact>
</mgrwt>
</event>
<event>
 5   1  0.1343823E+00  0.8981773E+02  0.7818608E-02  0.1303294E+00
         -2   -1    0    0    0  501 -0.00000000000E+00  0.00000000000E+00  0.13310221647E+02  0.13310221901E+02  0.26000000000E-02 0.  1.
          2   -1    0    0  501    0  0.00000000000E+00 -0.00000000000E+00 -0.15152311007E+03  0.15152311009E+03  0.26000000000E-02 0. -1.
         23    2    1    2    0    0  0.00000000000E+00  0.00000000000E+00 -0.13821288843E+03  0.16483333200E+03  0.89817731043E+02 0.  0.
        -13    1    3    3    0    0 -0.25479724646E+02 -0.18090191470E+02 -0.12829901340E+03  0.13204968537E+03  0.10570000000E+00 0. -1.
         13    1    3    3    0    0  0.25479724646E+02  0.18090191470E+02 -0.99138750294E+01  0.32783646625E+02  0.10570000000E+00 0.  1.
<mgrwt>
<rscale>  0 0.89817731E+02</rscale>
<asrwt>0</asrwt>
<pdfrwt beam="2">  1        2 0.23311246E-01 0.89817731E+02</pdfrwt>
<pdfrwt beam="1">  1       -2 0.20477265E-02 0.89817731E+02</pdfrwt>
<totfact> 0.14611679E+05</totfact>
</mgrwt>
</event>
<event>
 4   1  0.1343823E+00  0.4757495E+02  0.7818608E-02  0.1458878E+00
          2   -1    0    0  501    0  0.00000000000E+00  0.00000000000E+00  0.50755009168E+02  0.50755009235E+02  0.26000000000E-02 0.  1.
         -2   -1    0    0    0  501 -0.00000000000E+00 -0.00000000000E+00 -0.11148536020E+02  0.11148536323E+02  0.26000000000E-02 0. -1.
        -13    1    1    2    0    0 -0.14691720937E+02  0.52322147135E+01  0.43174175636E+02  0.45904720337E+02  0.10570000000E+00 0.  1.
         13    1    1    2    0    0  0.14691720937E+02 -0.52322147135E+01 -0.35677024877E+01  0.15998825221E+02  0.10570000000E+00 0. -1.
<mgrwt>
<rscale>  0 0.47574954E+02</rscale>
<asrwt>0</asrwt>
<pdfrwt beam="1">  1        2 0.78084627E-02 0.47574954E+02</pdfrwt>
<pdfrwt beam="2">  1       -2 0.17151595E-02 0.47574954E+02</pdfrwt>
<totfact> 0.58432914E+05</totfact>
</mgrwt>
</event>
<event>
 5   1  0.1343823E+00  0.9046798E+02  0.7818608E-02  0.1301722E+00
          2   -1    0    0  501    0  0.00000000000E+00  0.00000000000E+00  0.42434119978E+02  0.42434120058E+02  0.26000000000E-02 0.  1.
         -2   -1    0    0    0  501 -0.00000000000E+00 -0.00000000000E+00 -0.48218598889E+02  0.48218598959E+02  0.26000000000E-02 0. -1.
         23    2    1    2    0    0  0.00000000000E+00  0.00000000000E+00 -0.57844789104E+01  0.90652719017E+02  0.90467979246E+02 0.  0.
        -13    1    3    3    0    0  0.97430673578E+01 -0.26010557745E+02  0.32882572557E+02  0.43043596809E+02  0.10570000000E+00 0.  1.
         13    1    3    3    0    0 -0.97430673578E+01  0.26010557745E+02 -0.38667051468E+02  0.47609122208E+02  0.10570000000E+00 0. -1.
<mgrwt>
<rscale>  0 0.90467979E+02</rscale>
<asrwt>0</asrwt>
<pdfrwt beam="1">  1        2 0.65283262E-02 0.90467979E+02</pdfrwt>
<pdfrwt beam="2">  1       -2 0.74182460E-02 0.90467979E+02</pdfrwt>
<totfact> 0.99059929E+04</totfact>
</mgrwt>
</event>
<event>
 5   1  0.1343823E+00  0.9087029E+02  0.7818608E-02  0.1300758E+00
          2   -1    0    0  501    0  0.00000000000E+00  0.00000000000E+00  0.84143573895E+01  0.84143577912E+01  0.26000000000E-02 0. -1.
         -2   -1    0    0    0  501 -0.00000000000E+00 -0.00000000000E+00 -0.24533689078E+03  0.24533689080E+03  0.26000000000E-02 0.  1.
         23    2    1    2    0    0  0.00000000000E+00  0.00000000000E+00 -0.23692253339E+03  0.25375124859E+03  0.90870288490E+02 0.  0.
        -13    1    3    3    0    0  0.40355995345E+02 -0.88623942312E+01 -0.17123740508E+03  0.17615166324E+03  0.10570000000E+00 0.  1.
         13    1    3    3    0    0 -0.40355995345E+02  0.88623942312E+01 -0.65685128314E+02  0.77599585346E+02  0.10570000000E+00 0. -1.
<mgrwt>
<rscale>  0 0.90870288E+02</rscale>
<asrwt>0</asrwt>
<pdfrwt beam="1">  1        2 0.12945167E-02 0.90870288E+02</pdfrwt>
<pdfrwt beam="2">  1       -2 0.37744132E-01 0.90870288E+02</pdfrwt>
<totfact> 0.57196149E+04</totfact>
</mgrwt>
</event>
<event>
 4   1  0.1343823E+00  0.4477160E+02  0.7818608E-02  0.1475773E+00
         -2   -1    0    0    0  501 -0.00000000000E+00  0.00000000000E+00  0.23150632701E+01  0.23150647301E+01  0.26000000000E-02 0.  1.
          2   -1    0    0  501    0  0.00000000000E+00 -0.00000000000E+00 -0.21646231595E+03  0.21646231597E+03  0.26000000000E-02 0. -1.
        -13    1    1    2    0    0  0.21617580126E+02 -0.56230751894E+01 -0.99868367252E+02  0.10233592084E+03  0.10570000000E+00 0. -1.
         13    1    1    2    0    0 -0.21617580126E+02  0.56230751894E+01 -0.11427888543E+03  0.11644145986E+03  0.10570000000E+00 0.  1.
<mgrwt>
<rscale>  0 0.44771603E+02</rscale>
<asrwt>0</asrwt>
<pdfrwt beam="2">  1        2 0.33301879E-01 0.44771603E+02</pdfrwt>
<pdfrwt beam="1">  1       -2 0.35616386E-03 0.44771603E+02</pdfrwt>
<totfact> 0.99450597E+05</totfact>
</mgrwt>
</event>
<event>
 5   1  0.1343823E+00  0.9290481E+02  0.7818608E-02  0.1295966E+00
          2   -1    0    0  501    0  0.00000000000E+00  0.00000000000E+00  0.64561955181E+02  0.64561955234E+02  0.26000000000E-02 0. -1.
         -2   -1    0    0    0  501 -0.00000000000E+00 -0.00000000000E+00 -0.33422563509E+02  0.33422563610E+02  0.26000000000E-02 0.  1.
         23    2    1    2    0    0  0.00000000000E+00  0.00000000000E+00  0.31139391672E+02  0.97984518844E+02  0.92904812681E+02 0.  0.
        -13    1    3    3    0    0  0.39156170877E+02  0.38679694124E+01 -0.10471373921E+02  0.40716430951E+02  0.10570000000E+00 0.  1.
         13    1    3    3    0    0 -0.39156170877E+02 -0.38679694124E+01  0.41610765593E+02  0.57268087892E+02  0.10570000000E+00 0. -1.
<mgrwt>
<rscale>  0 0.92904813E+02</rscale>
<asrwt>0</asrwt>
<pdfrwt beam="1">  1        2 0.99326085E-02 0.92904813E+02</pdfrwt>
<pdfrwt beam="2">  1       -2 0.51419329E-02 0.92904813E+02</pdfrwt>
<totfact> 0.10261786E+05</totfact>
</mgrwt>
</event>
<event>
 5   1  0.1343823E+00  0.9079430E+02  0.7818608E-02  0.1300940E+00
          2   -1    0    0  501    0  0.00000000000E+00  0.00000000000E+00  0.27113302000E+03  0.27113302001E+03  0.26000000000E-02 0. -1.
         -2   -1    0    0    0  501 -0.00000000000E+00 -0.00000000000E+00 -0.76010705471E+01  0.76010709918E+01  0.26000000000E-02 0.  1.
         23    2    1    2    0    0  0.00000000000E+00  0.00000000000E+00  0.26353194945E+03  0.27873409100E+03  0.90794301062E+02 0.  0.
        -13    1    3    3    0    0 -0.25382173617E+02 -0.33943999801E+02  0.18168835381E+03  0.18656666085E+03  0.10570000000E+00 0. -1.
         13    1    3    3    0    0  0.25382173617E+02  0.33943999801E+02  0.81843595640E+02  0.92167430146E+02  0.10570000000E+00 0.  1.
<mgrwt>
<rscale>  0 0.90794301E+02</rscale>
<asrwt>0</asrwt>
<pdfrwt beam="1">  1        2 0.41712765E-01 0.90794301E+02</pdfrwt>
<pdfrwt beam="2">  1       -2 0.11693957E-02 0.90794301E+02</pdfrwt>
<totfact> 0.17496150E+05</totfact>
</mgrwt>
</event>
<event>
 5   1  0.1343823E+00  0.9008365E+02  0.7818608E-02  0.1302649E+00
          2   -1    0    0  501    0  0.00000000000E+00  0.00000000000E+00  0.10301612895E+03  0.10301612898E+03  0.26000000000E-02 0.  1.
         -2   -1    0    0    0  501 -0.00000000000E+00 -0.00000000000E+00 -0.19693671135E+02  0.19693671307E+02  0.26000000000E-02 0. -1.
         23    2    1    2    0    0  0.00000000000E+00  0.00000000000E+00  0.83322457816E+02  0.12270980029E+03  0.90083645080E+02 0.  0.
        -13    1    3    3    0    0 -0.25359967166E+02  0.34968861877E+02  0.59041944809E+02  0.73156760829E+02  0.10570000000E+00 0.  1.
         13    1    3    3    0    0  0.25359967166E+02 -0.34968861877E+02  0.24280513007E+02  0.49553039462E+02  0.10570000000E+00 0. -1.
<mgrwt>
<rscale>  0 0.90083645E+02</rscale>
<asrwt>0</asrwt>
<pdfrwt beam="1">  1        2 0.15848635E-01 0.90083645E+02</pdfrwt>
<pdfrwt beam="2">  1       -2 0.30297956E-02 0.90083645E+02</pdfrwt>
<totfact> 0.12796430E+05</totfact>
</mgrwt>
</event>
<event>
 5   1  0.1343823E+00  0.9445781E+02  0.7818608E-02  0.1292402E+00
         -2   -1    0    0    0  501 -0.00000000000E+00  0.00000000000E+00  0.22546813549E+02  0.22546813699E+02  0.26000000000E-02 0.  1.
          2   -1    0    0  501    0  0.00000000000E+00 -0.00000000000E+00 -0.98930595350E+02  0.98930595384E+02  0.26000000000E-02 0. -1.
         23    2    1    2    0    0  0.00000000000E+00  0.00000000000E+00 -0.76383781801E+02  0.12147740908E+03  0.94457814898E+02 0.  0.
        -13    1    3    3    0    0  0.32892913804E+01  0.47109824198E+02 -0.37374917971E+02  0.60225000121E+02  0.10570000000E+00 0. -1.
         13    1    3    3    0    0 -0.32892913804E+01 -0.47109824198E+02 -0.39008863831E+02  0.61252408962E+02  0.10570000000E+00 0.  1.
<mgrwt>
<rscale>  0 0.94457815E+02</rscale>
<asrwt>0</asrwt>
<pdfrwt beam="2">  1        2 0.15220091E-01 0.94457815E+02</pdfrwt>
<pdfrwt beam="1">  1       -2 0.34687406E-02 0.94457815E+02</pdfrwt>
<totfact> 0.11089402E+05</totfact>
</mgrwt>
</event>
<event>
 5   1  0.1343823E+00  0.9180991E+02  0.7818608E-02  0.1298527E+00
          2   -1    0    0  501    0  0.00000000000E+00  0.00000000000E+00  0.73433255005E+02  0.73433255051E+02  0.26000000000E-02 0. -1.
         -2   -1    0    0    0  501 -0.00000000000E+00 -0.00000000000E+00 -0.28696328302E+02  0.28696328419E+02  0.26000000000E-02 0.  1.
         23    2    1    2    0    0  0.00000000000E+00  0.00000000000E+00  0.44736926703E+02  0.10212958347E+03  0.91809908011E+02 0.  0.
        -13    1    3    3    0    0 -0.25192520344E+02  0.85533879450E+01  0.63982286226E+02  0.69293344917E+02  0.10570000000E+00 0. -1.
         13    1    3    3    0    0  0.25192520344E+02 -0.85533879450E+01 -0.19245359523E+02  0.32836238553E+02  0.10570000000E+00 0.  1.
<mgrwt>
<rscale>  0 0.91809908E+02</rscale>
<asrwt>0</asrwt>
<pdfrwt beam="1">  1        2 0.11297424E-01 0.91809908E+02</pdfrwt>
<pdfrwt beam="2">  1       -2 0.44148198E-02 0.91809908E+02</pdfrwt>
<totfact> 0.10995754E+05</totfact>
</mgrwt>
</event>
<event>
 5   1  0.1343823E+00  0.9009550E+02  0.7818608E-02  0.1302621E+00
          2   -1    0    0  501    0  0.00000000000E+00  0.00000000000E+00  0.90275866225E+01  0.90275869969E+01  0.26000000000E-02 0. -1.
         -2   -1    0    0    0  501 -0.00000000000E+00 -0.00000000000E+00 -0.22478870985E+03  0.22478870986E+03  0.26000000000E-02 0.  1.
         23    2    1    2    0    0  0.00000000000E+00  0.00000000000E+00 -0.21576112323E+03  0.23381629686E+03  0.90095495902E+02 0.  0.
        -13    1    3    3    0    0  0.15672642689E+02  0.42131606431E+02 -0.11548430624E+03  0.12392473583E+03  0.10570000000E+00 0.  1.
         13    1    3    3    0    0 -0.15672642689E+02 -0.42131606431E+02 -0.10027681699E+03  0.10989156103E+03  0.10570000000E+00 0. -1.
<mgrwt>
<rscale>  0 0.90095496E+02</rscale>
<asrwt>0</asrwt>
<pdfrwt beam="1">  1        2 0.13888597E-02 0.90095496E+02</pdfrwt>
<pdfrwt beam="2">  1       -2 0.34582874E-01 0.90095496E+02</pdfrwt>
<totfact> 0.60965515E+04</totfact>
</mgrwt>
</event>
<event>
 5   1  0.1343823E+00  0.9154623E+02  0.7818608E-02  0.1299150E+00
          2   -1    0    0  501    0  0.00000000000E+00  0.00000000000E+00  0.31103914632E+02  0.31103914741E+02  0.26000000000E-02 0. -1.
         -2   -1    0    0    0  501 -0.00000000000E+00 -0.00000000000E+00 -0.67360587916E+02  0.67360587966E+02  0.26000000000E-02 0.  1.
         23    2    1    2    0    0  0.00000000000E+00  0.00000000000E+00 -0.36256673284E+02  0.98464502707E+02  0.91546228408E+02 0.  0.
        -13    1    3    3    0    0  0.33039089549E+02 -0.28712768307E+02 -0.32525023588E+02  0.54533410255E+02  0.10570000000E+00 0.  1.
         13    1    3    3    0    0 -0.33039089549E+02  0.28712768307E+02 -0.37316496953E+01  0.43931092452E+02  0.10570000000E+00 0. -1.
<mgrwt>
<rscale>  0 0.91546228E+02</rscale>
<asrwt>0</asrwt>
<pdfrwt beam="1">  1        2 0.47852177E-02 0.91546228E+02</pdfrwt>
<pdfrwt beam="2">  1       -2 0.10363167E-01 0.91546228E+02</pdfrwt>
<totfact> 0.88257519E+04</totfact>
</mgrwt>
</event>
<event>
 5   1  0.1343823E+00  0.9084577E+02  0.7818608E-02  0.1300816E+00
         -2   -1    0    0    0  501 -0.00000000000E+00  0.00000000000E+00  0.22178017971E+03  0.22178017972E+03  0.26000000000E-02 0.  1.
          2   -1    0    0  501    0  0.00000000000E+00 -0.00000000000E+00 -0.93030783049E+01  0.93030786682E+01  0.26000000000E-02 0. -1.
         23    2    1    2    0    0  0.00000000000E+00  0.00000000000E+00  0.21247710140E+03  0.23108325839E+03  0.90845768686E+02 0.  0.
        -13    1    3    3    0    0  0.45368572245E+02  0.12271734762E+01  0.11093848929E+03  0.11986314229E+03  0.10570000000E+00 0.  1.
         13    1    3    3    0    0 -0.45368572245E+02 -0.12271734762E+01  0.10153861211E+03  0.11122011610E+03  0.10570000000E+00 0. -1.
<mgrwt>
<rscale>  0 0.90845769E+02</rscale>
<asrwt>0</asrwt>
<pdfrwt beam="2">  1        2 0.14312428E-02 0.90845769E+02</pdfrwt>
<pdfrwt beam="1">  1       -2 0.34120030E-01 0.90845769E+02</pdfrwt>
<totfact> 0.60059989E+04</totfact>
</mgrwt>
</event>
<event>
 5   1  0.1343823E+00  0.8585706E+02  0.7818608E-02  0.1313206E+00
          2   -1    0    0  501    0  0.00000000000E+00  0.00000000000E+00  0.12723932748E+03  0.12723932751E+03  0.26000000000E-02 0.  1.
         -2   -1    0    0    0  501 -0.00000000000E+00 -0.00000000000E+00 -0.14483403907E+02  0.14483404140E+02  0.26000000000E-02 0. -1.
         23    2    1    2    0    0  0.00000000000E+00  0.00000000000E+00  0.11275592358E+03  0.14172273165E+03  0.85857057745E+02 0.  0.
        -13    1    3    3    0    0 -0.11957017776E+02 -0.33015878226E+02  0.97141091849E+02  0.10329289127E+03  0.10570000000E+00 0.  1.
         13    1    3    3    0    0  0.11957017776E+02  0.33015878226E+02  0.15614831728E+02  0.38429840378E+02  0.10570000000E+00 0. -1.
<mgrwt>
<rscale>  0 0.85857058E+02</rscale>
<asrwt>0</asrwt>
<pdfrwt beam="1">  1        2 0.19575282E-01 0.85857058E+02</pdfrwt>
<pdfrwt beam="2">  1       -2 0.22282159E-02 0.85857058E+02</pdfrwt>
<totfact> 0.15581729E+05</totfact>
</mgrwt>
</event>
<event>
 5   1  0.1343823E+00  0.9103792E+02  0.7818608E-02  0.1300358E+00
         -2   -1    0    0    0  501 -0.00000000000E+00  0.00000000000E+00  0.68176894371E+01  0.68176899329E+01  0.26000000000E-02 0.  1.
          2   -1    0    0  501    0  0.00000000000E+00 -0.00000000000E+00 -0.30391173283E+03  0.30391173284E+03  0.26000000000E-02 0. -1.
         23    2    1    2    0    0  0.00000000000E+00  0.00000000000E+00 -0.29709404339E+03  0.31072942277E+03  0.91037923734E+02 0.  0.
        -13    1    3    3    0    0 -0.25666208351E+02  0.29436587521E+02 -0.68741362460E+02  0.79061071466E+02  0.10570000000E+00 0.  1.
         13    1    3    3    0    0  0.25666208351E+02 -0.29436587521E+02 -0.22835268093E+03  0.23166835130E+03  0.10570000000E+00 0. -1.
<mgrwt>
<rscale>  0 0.91037924E+02</rscale>
<asrwt>0</asrwt>
<pdfrwt beam="2">  1        2 0.46755641E-01 0.91037924E+02</pdfrwt>
<pdfrwt beam="1">  1       -2 0.10488756E-02 0.91037924E+02</pdfrwt>
<totfact> 0.18126479E+05</totfact>
</mgrwt>
</event>
<event>
 5   1  0.1343823E+00  0.1092511E+03  0.7818608E-02  0.1261963E+00
         -2   -1    0    0    0  501 -0.00000000000E+00  0.00000000000E+00  0.26748249996E+02  0.26748250123E+02  0.26000000000E-02 0.  1.
          2   -1    0    0  501    0  0.00000000000E+00 -0.00000000000E+00 -0.11155694575E+03  0.11155694578E+03  0.26000000000E-02 0. -1.
         23    2    1    2    0    0  0.00000000000E+00  0.00000000000E+00 -0.84808695756E+02  0.13830519591E+03  0.10925114342E+03 0.  0.
        -13    1    3    3    0    0  0.35818116649E+02  0.32629633760E+02 -0.10470785577E+02  0.49570949181E+02  0.10570000000E+00 0.  1.
         13    1    3    3    0    0 -0.35818116649E+02 -0.32629633760E+02 -0.74337910178E+02  0.88734246724E+02  0.10570000000E+00 0. -1.
<mgrwt>
<rscale>  0 0.10925114E+03</rscale>
<asrwt>0</asrwt>
<pdfrwt beam="2">  1        2 0.17162607E-01 0.10925114E+03</pdfrwt>
<pdfrwt beam="1">  1       -2 0.41151155E-02 0.10925114E+03</pdfrwt>
<totfact> 0.76766113E+04</totfact>
</mgrwt>
</event>
<event>
 5   1  0.1343823E+00  0.9242242E+02  0.7818608E-02  0.1297089E+00
         -2   -1    0    0    0  501 -0.00000000000E+00  0.00000000000E+00  0.25804626462E+02  0.25804626593E+02  0.26000000000E-02 0. -1.
          2   -1    0    0  501    0  0.00000000000E+00 -0.00000000000E+00 -0.82755545760E+02  0.82755545801E+02  0.26000000000E-02 0.  1.
         23    2    1    2    0    0  0.00000000000E+00  0.00000000000E+00 -0.56950919298E+02  0.10856017239E+03  0.92422420555E+02 0.  0.
        -13    1    3    3    0    0 -0.22369048192E+02  0.10722006575E+02  0.17321159028E+02  0.30255073368E+02  0.10570000000E+00 0. -1.
         13    1    3    3    0    0  0.22369048192E+02 -0.10722006575E+02 -0.74272078326E+02  0.78305099025E+02  0.10570000000E+00 0.  1.
<mgrwt>
<rscale>  0 0.92422421E+02</rscale>
<asrwt>0</asrwt>
<pdfrwt beam="2">  1        2 0.12731622E-01 0.92422421E+02</pdfrwt>
<pdfrwt beam="1">  1       -2 0.39699426E-02 0.92422421E+02</pdfrwt>
<totfact> 0.11168454E+05</totfact>
</mgrwt>
</event>
<event>
 5   1  0.1343823E+00  0.9372617E+02  0.7818608E-02  0.1294071E+00
          2   -1    0    0  501    0  0.00000000000E+00  0.00000000000E+00  0.25462685779E+03  0.25462685780E+03  0.26000000000E-02 0.  1.
         -2   -1    0    0    0  501 -0.00000000000E+00 -0.00000000000E+00 -0.86249694044E+01  0.86249697963E+01  0.26000000000E-02 0. -1.
         23    2    1    2    0    0  0.00000000000E+00  0.00000000000E+00  0.24600188838E+03  0.26325182760E+03  0.93726173746E+02 0.  0.
        -13    1    3    3    0    0  0.37723278961E+02  0.12163971571E+02  0.52775322294E+02  0.66001922667E+02  0.10570000000E+00 0. -1.
         13    1    3    3    0    0 -0.37723278961E+02 -0.12163971571E+02  0.19322656609E+03  0.19724990493E+03  0.10570000000E+00 0.  1.
<mgrwt>
<rscale>  0 0.93726174E+02</rscale>
<asrwt>0</asrwt>
<pdfrwt beam="1">  1        2 0.39173361E-01 0.93726174E+02</pdfrwt>
<pdfrwt beam="2">  1       -2 0.13269185E-02 0.93726174E+02</pdfrwt>
<totfact> 0.15695131E+05</totfact>
</mgrwt>
</event>
<event>
 5   1  0.1343823E+00  0.9258134E+02  0.7818608E-02  0.1296718E+00
          2   -1    0    0  501    0  0.00000000000E+00  0.00000000000E+00  0.31440219874E+03  0.31440219875E+03  0.26000000000E-02 0. -1.
         -2   -1    0    0    0  501 -0.00000000000E+00 -0.00000000000E+00 -0.68155563264E+01  0.68155568224E+01  0.26000000000E-02 0.  1.
         23    2    1    2    0    0  0.00000000000E+00  0.00000000000E+00  0.30758664242E+03  0.32121775558E+03  0.92581336695E+02 0.  0.
        -13    1    3    3    0    0  0.16856778240E+02  0.41850392891E+02  0.11786883245E+03  0.12620887129E+03  0.10570000000E+00 0.  1.
         13    1    3    3    0    0 -0.16856778240E+02 -0.41850392891E+02  0.18971780997E+03  0.19500888428E+03  0.10570000000E+00 0. -1.
<mgrwt>
<rscale>  0 0.92581337E+02</rscale>
<asrwt>0</asrwt>
<pdfrwt beam="1">  1        2 0.48369571E-01 0.92581337E+02</pdfrwt>
<pdfrwt beam="2">  1       -2 0.10485471E-02 0.92581337E+02</pdfrwt>
<totfact> 0.17550884E+05</totfact>
</mgrwt>
</event>
<event>
 5   1  0.1343823E+00  0.9039967E+02  0.7818608E-02  0.1301887E+00
          2   -1    0    0  501    0  0.00000000000E+00  0.00000000000E+00  0.98190715225E+02  0.98190715260E+02  0.26000000000E-02 0. -1.
         -2   -1    0    0    0  501 -0.00000000000E+00 -0.00000000000E+00 -0.20806701793E+02  0.20806701955E+02  0.26000000000E-02 0.  1.
         23    2    1    2    0    0  0.00000000000E+00  0.00000000000E+00  0.77384013432E+02  0.11899741721E+03  0.90399666863E+02 0.  0.
        -13    1    3    3    0    0  0.28703911749E+01  0.36168664561E+02  0.74174905943E+02  0.82573235893E+02  0.10570000000E+00 0. -1.
         13    1    3    3    0    0 -0.28703911749E+01 -0.36168664561E+02  0.32091074891E+01  0.36424181322E+02  0.10570000000E+00 0.  1.
<mgrwt>
<rscale>  0 0.90399667E+02</rscale>
<asrwt>0</asrwt>
<pdfrwt beam="1">  1        2 0.15106264E-01 0.90399667E+02</pdfrwt>
<pdfrwt beam="2">  1       -2 0.32010310E-02 0.90399667E+02</pdfrwt>
<totfact> 0.12490546E+05</totfact>
</mgrwt>
</event>
<event>
 5   1  0.1343823E+00  0.9044394E+02  0.7818608E-02  0.1301780E+00
         -2   -1    0    0    0  501 -0.00000000000E+00  0.00000000000E+00  0.70782156958E+01  0.70782161733E+01  0.26000000000E-02 0. -1.
          2   -1    0    0  501    0  0.00000000000E+00 -0.00000000000E+00 -0.28891833326E+03  0.28891833327E+03  0.26000000000E-02 0.  1.
         23    2    1    2    0    0  0.00000000000E+00  0.00000000000E+00 -0.28184011756E+03  0.29599654944E+03  0.90443935201E+02 0.  0.
        -13    1    3    3    0    0  0.43343860895E+01  0.44789626495E+02 -0.12624108549E+03  0.13402134301E+03  0.10570000000E+00 0. -1.
         13    1    3    3    0    0 -0.43343860895E+01 -0.44789626495E+02 -0.15559903208E+03  0.16197520644E+03  0.10570000000E+00 0.  1.
<mgrwt>
<rscale>  0 0.90443935E+02</rscale>
<asrwt>0</asrwt>
<pdfrwt beam="2">  1        2 0.44448965E-01 0.90443935E+02</pdfrwt>
<pdfrwt beam="1">  1       -2 0.10889565E-02 0.90443935E+02</pdfrwt>
<totfact> 0.18101324E+05</totfact>
</mgrwt>
</event>
<event>
 5   1  0.1343823E+00  0.9270310E+02  0.7818608E-02  0.1296435E+00
          2   -1    0    0  501    0  0.00000000000E+00  0.00000000000E+00  0.12594830261E+02  0.12594830530E+02  0.26000000000E-02 0. -1.
         -2   -1    0    0    0  501 -0.00000000000E+00 -0.00000000000E+00 -0.17058318242E+03  0.17058318244E+03  0.26000000000E-02 0.  1.
         23    2    1    2    0    0  0.00000000000E+00  0.00000000000E+00 -0.15798835216E+03  0.18317801297E+03  0.92703101447E+02 0.  0.
        -13    1    3    3    0    0  0.98372682818E+00  0.27244709059E+02 -0.15306551393E+03  0.15547445004E+03  0.10570000000E+00 0.  1.
         13    1    3    3    0    0 -0.98372682818E+00 -0.27244709059E+02 -0.49228382350E+01  0.27703562929E+02  0.10570000000E+00 0. -1.
<mgrwt>
<rscale>  0 0.92703101E+02</rscale>
<asrwt>0</asrwt>
<pdfrwt beam="1">  1        2 0.19376663E-02 0.92703101E+02</pdfrwt>
<pdfrwt beam="2">  1       -2 0.26243565E-01 0.92703101E+02</pdfrwt>
<totfact> 0.63791707E+04</totfact>
</mgrwt>
</event>
<event>
 5   1  0.1343823E+00  0.9147681E+02  0.7818608E-02  0.1299314E+00
         -2   -1    0    0    0  501 -0.00000000000E+00  0.00000000000E+00  0.13990106992E+03  0.13990106994E+03  0.26000000000E-02 0.  1.
          2   -1    0    0  501    0  0.00000000000E+00 -0.00000000000E+00 -0.14953435151E+02  0.14953435377E+02  0.26000000000E-02 0. -1.
         23    2    1    2    0    0  0.00000000000E+00  0.00000000000E+00  0.12494763477E+03  0.15485450532E+03  0.91476807901E+02 0.  0.
        -13    1    3    3    0    0  0.24554969495E+02  0.19085378431E+02  0.11924775248E+03  0.12323650369E+03  0.10570000000E+00 0.  1.
         13    1    3    3    0    0 -0.24554969495E+02 -0.19085378431E+02  0.56998822880E+01  0.31618001634E+02  0.10570000000E+00 0. -1.
<mgrwt>
<rscale>  0 0.91476808E+02</rscale>
<asrwt>0</asrwt>
<pdfrwt beam="2">  1        2 0.23005285E-02 0.91476808E+02</pdfrwt>
<pdfrwt beam="1">  1       -2 0.21523241E-01 0.91476808E+02</pdfrwt>
<totfact> 0.71025370E+04</totfact>
</mgrwt>
</event>
<event>
 5   1  0.1343823E+00  0.9093289E+02  0.7818608E-02  0.1300608E+00
         -2   -1    0    0    0  501 -0.00000000000E+00  0.00000000000E+00  0.42752077141E+02  0.42752077221E+02  0.26000000000E-02 0.  1.
          2   -1    0    0  501    0  0.00000000000E+00 -0.00000000000E+00 -0.48353150516E+02  0.48353150586E+02  0.26000000000E-02 0. -1.
         23    2    1    2    0    0  0.00000000000E+00  0.00000000000E+00 -0.56010733743E+01  0.91105227806E+02  0.90932890148E+02 0.  0.
        -13    1    3    3    0    0 -0.30303746727E+01  0.14963641077E+02  0.40106937364E+02  0.42914698207E+02  0.10570000000E+00 0.  1.
         13    1    3    3    0    0  0.30303746727E+01 -0.14963641077E+02 -0.45708010739E+02  0.48190529600E+02  0.10570000000E+00 0. -1.
<mgrwt>
<rscale>  0 0.90932890E+02</rscale>
<asrwt>0</asrwt>
<pdfrwt beam="2">  1        2 0.74389462E-02 0.90932890E+02</pdfrwt>
<pdfrwt beam="1">  1       -2 0.65772426E-02 0.90932890E+02</pdfrwt>
<totfact> 0.10096745E+05</totfact>
</mgrwt>
</event>
<event>
 5   1  0.1343823E+00  0.8872668E+02  0.7818608E-02  0.1305965E+00
          2   -1    0    0  501    0  0.00000000000E+00  0.00000000000E+00  0.12044359178E+02  0.12044359458E+02  0.26000000000E-02 0. -1.
         -2   -1    0    0    0  501 -0.00000000000E+00 -0.00000000000E+00 -0.16340478363E+03  0.16340478366E+03  0.26000000000E-02 0.  1.
         23    2    1    2    0    0  0.00000000000E+00  0.00000000000E+00 -0.15136042446E+03  0.17544914311E+03  0.88726679909E+02 0.  0.
        -13    1    3    3    0    0  0.16595981314E+02 -0.29407015088E+02 -0.13257661575E+03  0.13680924438E+03  0.10570000000E+00 0.  1.
         13    1    3    3    0    0 -0.16595981314E+02  0.29407015088E+02 -0.18783808710E+02  0.38639898735E+02  0.10570000000E+00 0. -1.
<mgrwt>
<rscale>  0 0.88726680E+02</rscale>
<asrwt>0</asrwt>
<pdfrwt beam="1">  1        2 0.18529785E-02 0.88726680E+02</pdfrwt>
<pdfrwt beam="2">  1       -2 0.25139196E-01 0.88726680E+02</pdfrwt>
<totfact> 0.72500568E+04</totfact>
</mgrwt>
</event>
<event>
 5   1  0.1343823E+00  0.9640148E+02  0.7818608E-02  0.1288050E+00
         -2   -1    0    0    0  501 -0.00000000000E+00  0.00000000000E+00  0.13532296247E+02  0.13532296496E+02  0.26000000000E-02 0.  1.
          2   -1    0    0  501    0  0.00000000000E+00 -0.00000000000E+00 -0.17168641841E+03  0.17168641843E+03  0.26000000000E-02 0. -1.
         23    2    1    2    0    0  0.00000000000E+00  0.00000000000E+00 -0.15815412216E+03  0.18521871492E+03  0.96401483398E+02 0.  0.
        -13    1    3    3    0    0 -0.35127863501E+02 -0.27524744291E+02 -0.44083488902E+02  0.62729128072E+02  0.10570000000E+00 0.  1.
         13    1    3    3    0    0  0.35127863501E+02  0.27524744291E+02 -0.11407063326E+03  0.12248958685E+03  0.10570000000E+00 0. -1.
<mgrwt>
<rscale>  0 0.96401483E+02</rscale>
<asrwt>0</asrwt>
<pdfrwt beam="2">  1        2 0.26413294E-01 0.96401483E+02</pdfrwt>
<pdfrwt beam="1">  1       -2 0.20818919E-02 0.96401483E+02</pdfrwt>
<totfact> 0.12592076E+05</totfact>
</mgrwt>
</event>
<event>
 5   1  0.1343823E+00  0.9255261E+02  0.7818608E-02  0.1296785E+00
         -2   -1    0    0    0  501 -0.00000000000E+00  0.00000000000E+00  0.30796537490E+02  0.30796537599E+02  0.26000000000E-02 0.  1.
          2   -1    0    0  501    0  0.00000000000E+00 -0.00000000000E+00 -0.69536919705E+02  0.69536919754E+02  0.26000000000E-02 0. -1.
         23    2    1    2    0    0  0.00000000000E+00  0.00000000000E+00 -0.38740382216E+02  0.10033345735E+03  0.92552609095E+02 0.  0.
        -13    1    3    3    0    0 -0.29968389616E+02 -0.23563972457E+02  0.90671643706E+01  0.39186602510E+02  0.10570000000E+00 0.  1.
         13    1    3    3    0    0  0.29968389616E+02  0.23563972457E+02 -0.47807546586E+02  0.61146854843E+02  0.10570000000E+00 0. -1.
<mgrwt>
<rscale>  0 0.92552609E+02</rscale>
<asrwt>0</asrwt>
<pdfrwt beam="2">  1        2 0.10697988E-01 0.92552609E+02</pdfrwt>
<pdfrwt beam="1">  1       -2 0.47379289E-02 0.92552609E+02</pdfrwt>
<totfact> 0.10587441E+05</totfact>
</mgrwt>
</event>
<event>
 5   1  0.1343823E+00  0.9400177E+02  0.7818608E-02  0.1293440E+00
         -2   -1    0    0    0  501 -0.00000000000E+00  0.00000000000E+00  0.56214914501E+01  0.56214920514E+01  0.26000000000E-02 0.  1.
          2   -1    0    0  501    0  0.00000000000E+00 -0.00000000000E+00 -0.39297095304E+03  0.39297095305E+03  0.26000000000E-02 0. -1.
         23    2    1    2    0    0  0.00000000000E+00  0.00000000000E+00 -0.38734946159E+03  0.39859244510E+03  0.94001765392E+02 0.  0.
        -13    1    3    3    0    0 -0.35877957045E+02 -0.29375623063E+02 -0.22622184713E+03  0.23092529165E+03  0.10570000000E+00 0. -1.
         13    1    3    3    0    0  0.35877957045E+02  0.29375623063E+02 -0.16112761445E+03  0.16766715344E+03  0.10570000000E+00 0.  1.
<mgrwt>
<rscale>  0 0.94001765E+02</rscale>
<asrwt>0</asrwt>
<pdfrwt beam="2">  1        2 0.60457048E-01 0.94001765E+02</pdfrwt>
<pdfrwt beam="1">  1       -2 0.86484519E-03 0.94001765E+02</pdfrwt>
<totfact> 0.18289016E+05</totfact>
</mgrwt>
</event>
<event>
 5   1  0.1343823E+00  0.9224312E+02  0.7818608E-02  0.1297509E+00
         -2   -1    0    0    0  501 -0.00000000000E+00  0.00000000000E+00  0.28236143337E+02  0.28236143457E+02  0.26000000000E-02 0.  1.
          2   -1    0    0  501    0  0.00000000000E+00 -0.00000000000E+00 -0.75336003960E+02  0.75336004005E+02  0.26000000000E-02 0. -1.
         23    2    1    2    0    0  0.00000000000E+00  0.00000000000E+00 -0.47099860623E+02  0.10357214746E+03  0.92243118221E+02 0.  0.
        -13    1    3    3    0    0 -0.13171174782E+02  0.16747012306E+02 -0.69479115864E+02  0.72672560022E+02  0.10570000000E+00 0. -1.
         13    1    3    3    0    0  0.13171174782E+02 -0.16747012306E+02  0.22379255241E+02  0.30899587440E+02  0.10570000000E+00 0.  1.
<mgrwt>
<rscale>  0 0.92243118E+02</rscale>
<asrwt>0</asrwt>
<pdfrwt beam="2">  1        2 0.11590154E-01 0.92243118E+02</pdfrwt>
<pdfrwt beam="1">  1       -2 0.43440221E-02 0.92243118E+02</pdfrwt>
<totfact> 0.10930627E+05</totfact>
</mgrwt>
</event>
<event>
 5   1  0.1343823E+00  0.9080415E+02  0.7818608E-02  0.1300916E+00
         -2   -1    0    0    0  501 -0.00000000000E+00  0.00000000000E+00  0.62103217321E+01  0.62103222764E+01  0.26000000000E-02 0.  1.
          2   -1    0    0  501    0  0.00000000000E+00 -0.00000000000E+00 -0.33192295375E+03  0.33192295377E+03  0.26000000000E-02 0. -1.
         23    2    1    2    0    0  0.00000000000E+00  0.00000000000E+00 -0.32571263202E+03  0.33813327604E+03  0.90804150276E+02 0.  0.
        -13    1    3    3    0    0 -0.44556541738E+02  0.39688954944E+01 -0.19177242345E+03  0.19692057056E+03  0.10570000000E+00 0.  1.
         13    1    3    3    0    0  0.44556541738E+02 -0.39688954944E+01 -0.13394020857E+03  0.14121270548E+03  0.10570000000E+00 0. -1.
<mgrwt>
<rscale>  0 0.90804150E+02</rscale>
<asrwt>0</asrwt>
<pdfrwt beam="2">  1        2 0.51065056E-01 0.90804150E+02</pdfrwt>
<pdfrwt beam="1">  1       -2 0.95543442E-03 0.90804150E+02</pdfrwt>
<totfact> 0.18857115E+05</totfact>
</mgrwt>
</event>
<event>
 5   1  0.1343823E+00  0.9188769E+02  0.7818608E-02  0.1298344E+00
          2   -1    0    0  501    0  0.00000000000E+00  0.00000000000E+00  0.19676171466E+03  0.19676171467E+03  0.26000000000E-02 0. -1.
         -2   -1    0    0    0  501 -0.00000000000E+00 -0.00000000000E+00 -0.10727884823E+02  0.10727885138E+02  0.26000000000E-02 0.  1.
         23    2    1    2    0    0  0.00000000000E+00  0.00000000000E+00  0.18603382983E+03  0.20748959981E+03  0.91887693342E+02 0.  0.
        -13    1    3    3    0    0 -0.21219681279E+02  0.33258130246E+02  0.14618723875E+03  0.15141696750E+03  0.10570000000E+00 0. -1.
         13    1    3    3    0    0  0.21219681279E+02 -0.33258130246E+02  0.39846591085E+02  0.56072632314E+02  0.10570000000E+00 0.  1.
<mgrwt>
<rscale>  0 0.91887693E+02</rscale>
<asrwt>0</asrwt>
<pdfrwt beam="1">  1        2 0.30271031E-01 0.91887693E+02</pdfrwt>
<pdfrwt beam="2">  1       -2 0.16504440E-02 0.91887693E+02</pdfrwt>
<totfact> 0.15058328E+05</totfact>
</mgrwt>
</event>
<event>
 5   1  0.1343823E+00  0.9199148E+02  0.7818608E-02  0.1298099E+00
          2   -1    0    0  501    0  0.00000000000E+00  0.00000000000E+00  0.20139590353E+03  0.20139590354E+03  0.26000000000E-02 0. -1.
         -2   -1    0    0    0  501 -0.00000000000E+00 -0.00000000000E+00 -0.10504721994E+02  0.10504722316E+02  0.26000000000E-02 0.  1.
         23    2    1    2    0    0  0.00000000000E+00  0.00000000000E+00  0.19089118153E+03  0.21190062586E+03  0.91991478152E+02 0.  0.
        -13    1    3    3    0    0  0.38103602351E+02  0.25671570713E+02  0.90460916513E+02  0.10145985730E+03  0.10570000000E+00 0.  1.
         13    1    3    3    0    0 -0.38103602351E+02 -0.25671570713E+02  0.10043026502E+03  0.11044076855E+03  0.10570000000E+00 0. -1.
<mgrwt>
<rscale>  0 0.91991478E+02</rscale>
<asrwt>0</asrwt>
<pdfrwt beam="1">  1        2 0.30983982E-01 0.91991478E+02</pdfrwt>
<pdfrwt beam="2">  1       -2 0.16161113E-02 0.91991478E+02</pdfrwt>
<totfact> 0.15139566E+05</totfact>
</mgrwt>
</event>
<event>
 5   1  0.1343823E+00  0.9896369E+02  0.7818608E-02  0.1282490E+00
         -2   -1    0    0    0  501 -0.00000000000E+00  0.00000000000E+00  0.66663130561E+02  0.66663130611E+02  0.26000000000E-02 0.  1.
          2   -1    0    0  501    0  0.00000000000E+00 -0.00000000000E+00 -0.36728742855E+02  0.36728742947E+02  0.26000000000E-02 0. -1.
         23    2    1    2    0    0  0.00000000000E+00  0.00000000000E+00  0.29934387706E+02  0.10339187356E+03  0.98963690062E+02 0.  0.
        -13    1    3    3    0    0 -0.16769871832E+02 -0.51823633290E+01  0.63301285907E+02  0.65689797236E+02  0.10570000000E+00 0.  1.
         13    1    3    3    0    0  0.16769871832E+02  0.51823633290E+01 -0.33366898202E+02  0.37702076322E+02  0.10570000000E+00 0. -1.
<mgrwt>
<rscale>  0 0.98963690E+02</rscale>
<asrwt>0</asrwt>
<pdfrwt beam="2">  1        2 0.56505759E-02 0.98963690E+02</pdfrwt>
<pdfrwt beam="1">  1       -2 0.10255866E-01 0.98963690E+02</pdfrwt>
<totfact> 0.73285522E+04</totfact>
</mgrwt>
</event>
<event>
 5   1  0.1343823E+00  0.9094801E+02  0.7818608E-02  0.1300572E+00
          2   -1    0    0  501    0  0.00000000000E+00  0.00000000000E+00  0.32231448509E+02  0.32231448614E+02  0.26000000000E-02 0. -1.
         -2   -1    0    0    0  501 -0.00000000000E+00 -0.00000000000E+00 -0.64157381563E+02  0.64157381616E+02  0.26000000000E-02 0.  1.
         23    2    1    2    0    0  0.00000000000E+00  0.00000000000E+00 -0.31925933055E+02  0.96388830230E+02  0.90948014776E+02 0.  0.
        -13    1    3    3    0    0 -0.22008852782E+02 -0.41215423671E+00  0.26208345070E+02  0.34226422479E+02  0.10570000000E+00 0. -1.
         13    1    3    3    0    0  0.22008852782E+02  0.41215423671E+00 -0.58134278124E+02  0.62162407751E+02  0.10570000000E+00 0.  1.
<mgrwt>
<rscale>  0 0.90948015E+02</rscale>
<asrwt>0</asrwt>
<pdfrwt beam="1">  1        2 0.49586844E-02 0.90948015E+02</pdfrwt>
<pdfrwt beam="2">  1       -2 0.98703664E-02 0.90948015E+02</pdfrwt>
<totfact> 0.90836965E+04</totfact>
</mgrwt>
</event>
<event>
 5   1  0.1343823E+00  0.9239444E+02  0.7818608E-02  0.1297155E+00
         -2   -1    0    0    0  501 -0.00000000000E+00  0.00000000000E+00  0.51655728340E+02  0.51655728405E+02  0.26000000000E-02 0. -1.
          2   -1    0    0  501    0  0.00000000000E+00 -0.00000000000E+00 -0.41315514846E+02  0.41315514928E+02  0.26000000000E-02 0.  1.
         23    2    1    2    0    0  0.00000000000E+00  0.00000000000E+00  0.10340213494E+02  0.92971243333E+02  0.92394437450E+02 0.  0.
        -13    1    3    3    0    0 -0.29635085406E+02 -0.49790277398E+01  0.40476799270E+02  0.50412413708E+02  0.10570000000E+00 0. -1.
         13    1    3    3    0    0  0.29635085406E+02  0.49790277398E+01 -0.30136585777E+02  0.42558829625E+02  0.10570000000E+00 0.  1.
<mgrwt>
<rscale>  0 0.92394437E+02</rscale>
<asrwt>0</asrwt>
<pdfrwt beam="2">  1        2 0.63562331E-02 0.92394437E+02</pdfrwt>
<pdfrwt beam="1">  1       -2 0.79470351E-02 0.92394437E+02</pdfrwt>
<totfact> 0.92564525E+04</totfact>
</mgrwt>
</event>
<event>
 5   1  0.1343823E+00  0.9095533E+02  0.7818608E-02  0.1300555E+00
         -2   -1    0    0    0  501 -0.00000000000E+00  0.00000000000E+00  0.13126588400E+03  0.13126588403E+03  0.26000000000E-02 0.  1.
          2   -1    0    0  501    0  0.00000000000E+00 -0.00000000000E+00 -0.15755944371E+02  0.15755944586E+02  0.26000000000E-02 0. -1.
         23    2    1    2    0    0  0.00000000000E+00  0.00000000000E+00  0.11550993963E+03  0.14702182861E+03  0.90955329340E+02 0.  0.
        -13    1    3    3    0    0 -0.15524605774E+02  0.13793470973E+02  0.12315368239E+03  0.12489240924E+03  0.10570000000E+00 0.  1.
         13    1    3    3    0    0  0.15524605774E+02 -0.13793470973E+02 -0.76437427636E+01  0.22129419374E+02  0.10570000000E+00 0. -1.
<mgrwt>
<rscale>  0 0.90955329E+02</rscale>
<asrwt>0</asrwt>
<pdfrwt beam="2">  1        2 0.24239915E-02 0.90955329E+02</pdfrwt>
<pdfrwt beam="1">  1       -2 0.20194751E-01 0.90955329E+02</pdfrwt>
<totfact> 0.73657690E+04</totfact>
</mgrwt>
</event>
<event>
 5   1  0.1343823E+00  0.9268891E+02  0.7818608E-02  0.1296468E+00
         -2   -1    0    0    0  501 -0.00000000000E+00  0.00000000000E+00  0.24534889024E+03  0.24534889025E+03  0.26000000000E-02 0.  1.
          2   -1    0    0  501    0  0.00000000000E+00 -0.00000000000E+00 -0.87540992904E+01  0.87540996765E+01  0.26000000000E-02 0. -1.
         23    2    1    2    0    0  0.00000000000E+00  0.00000000000E+00  0.23659479095E+03  0.25410298993E+03  0.92688911888E+02 0.  0.
        -13    1    3    3    0    0 -0.36629494845E+02  0.25213826608E+02  0.15407744390E+03  0.16036622723E+03  0.10570000000E+00 0.  1.
         13    1    3    3    0    0  0.36629494845E+02 -0.25213826608E+02  0.82517347050E+02  0.93736762701E+02  0.10570000000E+00 0. -1.
<mgrwt>
<rscale>  0 0.92688912E+02</rscale>
<asrwt>0</asrwt>
<pdfrwt beam="2">  1        2 0.13467845E-02 0.92688912E+02</pdfrwt>
<pdfrwt beam="1">  1       -2 0.37745983E-01 0.92688912E+02</pdfrwt>
<totfact> 0.54357279E+04</totfact>
</mgrwt>
</event>
<event>
 5   1  0.1343823E+00  0.8539639E+02  0.7818608E-02  0.1314399E+00
         -2   -1    0    0    0  501 -0.00000000000E+00  0.00000000000E+00  0.10953574209E+03  0.10953574212E+03  0.26000000000E-02 0.  1.
          2   -1    0    0  501    0  0.00000000000E+00 -0.00000000000E+00 -0.16644209560E+02  0.16644209763E+02  0.26000000000E-02 0. -1.
         23    2    1    2    0    0  0.00000000000E+00  0.00000000000E+00  0.92891532526E+02  0.12617995188E+03  0.85396390097E+02 0.  0.
        -13    1    3    3    0    0 -0.93868266106E+01 -0.35738864787E+02  0.14832964345E+02  0.39817169335E+02  0.10570000000E+00 0.  1.
         13    1    3    3    0    0  0.93868266106E+01  0.35738864787E+02  0.78058568181E+02  0.86362782546E+02  0.10570000000E+00 0. -1.
<mgrwt>
<rscale>  0 0.85396390E+02</rscale>
<asrwt>0</asrwt>
<pdfrwt beam="2">  1        2 0.25606477E-02 0.85396390E+02</pdfrwt>
<pdfrwt beam="1">  1       -2 0.16851653E-01 0.85396390E+02</pdfrwt>
<totfact> 0.91424947E+04</totfact>
</mgrwt>
</event>
<event>
 5   1  0.1343823E+00  0.9001009E+02  0.7818608E-02  0.1302827E+00
          2   -1    0    0  501    0  0.00000000000E+00  0.00000000000E+00  0.11655369692E+03  0.11655369695E+03  0.26000000000E-02 0. -1.
         -2   -1    0    0    0  501 -0.00000000000E+00 -0.00000000000E+00 -0.17377861377E+02  0.17377861571E+02  0.26000000000E-02 0.  1.
         23    2    1    2    0    0  0.00000000000E+00  0.00000000000E+00  0.99175835548E+02  0.13393155852E+03  0.90010088391E+02 0.  0.
        -13    1    3    3    0    0  0.22607642675E+02  0.33398323810E+02  0.19870031094E+02  0.44959791468E+02  0.10570000000E+00 0.  1.
         13    1    3    3    0    0 -0.22607642675E+02 -0.33398323810E+02  0.79305804454E+02  0.88971767057E+02  0.10570000000E+00 0. -1.
<mgrwt>
<rscale>  0 0.90010088E+02</rscale>
<asrwt>0</asrwt>
<pdfrwt beam="1">  1        2 0.17931338E-01 0.90010088E+02</pdfrwt>
<pdfrwt beam="2">  1       -2 0.26735171E-02 0.90010088E+02</pdfrwt>
<totfact> 0.13327128E+05</totfact>
</mgrwt>
</event>
<event>
 5   1  0.1343823E+00  0.9221046E+02  0.7818608E-02  0.1297585E+00
          2   -1    0    0  501    0  0.00000000000E+00  0.00000000000E+00  0.12717777156E+02  0.12717777422E+02  0.26000000000E-02 0. -1.
         -2   -1    0    0    0  501 -0.00000000000E+00 -0.00000000000E+00 -0.16714336778E+03  0.16714336780E+03  0.26000000000E-02 0.  1.
         23    2    1    2    0    0  0.00000000000E+00  0.00000000000E+00 -0.15442559062E+03  0.17986114522E+03  0.92210457764E+02 0.  0.
        -13    1    3    3    0    0  0.16752591445E+02 -0.30984951503E+02 -0.13523845425E+03  0.13975037467E+03  0.10570000000E+00 0.  1.
         13    1    3    3    0    0 -0.16752591445E+02  0.30984951503E+02 -0.19187136379E+02  0.40110770557E+02  0.10570000000E+00 0. -1.
<mgrwt>
<rscale>  0 0.92210458E+02</rscale>
<asrwt>0</asrwt>
<pdfrwt beam="1">  1        2 0.19565812E-02 0.92210458E+02</pdfrwt>
<pdfrwt beam="2">  1       -2 0.25714363E-01 0.92210458E+02</pdfrwt>
<totfact> 0.65179256E+04</totfact>
</mgrwt>
</event>
<event>
 5   1  0.1343823E+00  0.8958856E+02  0.7818608E-02  0.1303851E+00
          2   -1    0    0  501    0  0.00000000000E+00  0.00000000000E+00  0.19951771595E+03  0.19951771597E+03  0.26000000000E-02 0. -1.
         -2   -1    0    0    0  501 -0.00000000000E+00 -0.00000000000E+00 -0.10056889201E+02  0.10056889537E+02  0.26000000000E-02 0.  1.
         23    2    1    2    0    0  0.00000000000E+00  0.00000000000E+00  0.18946082675E+03  0.20957460550E+03  0.89588561767E+02 0.  0.
        -13    1    3    3    0    0 -0.34756339229E+02 -0.10477264863E+02  0.33338125411E+02  0.49287097440E+02  0.10570000000E+00 0.  1.
         13    1    3    3    0    0  0.34756339229E+02  0.10477264863E+02  0.15612270134E+03  0.16028750806E+03  0.10570000000E+00 0. -1.
<mgrwt>
<rscale>  0 0.89588562E+02</rscale>
<asrwt>0</asrwt>
<pdfrwt beam="1">  1        2 0.30695031E-01 0.89588562E+02</pdfrwt>
<pdfrwt beam="2">  1       -2 0.15472138E-02 0.89588562E+02</pdfrwt>
<totfact> 0.16202000E+05</totfact>
</mgrwt>
</event>
<event>
 5   1  0.1343823E+00  0.9244970E+02  0.7818608E-02  0.1297026E+00
          2   -1    0    0  501    0  0.00000000000E+00  0.00000000000E+00  0.10253191344E+03  0.10253191347E+03  0.26000000000E-02 0. -1.
         -2   -1    0    0    0  501 -0.00000000000E+00 -0.00000000000E+00 -0.20839725134E+02  0.20839725296E+02  0.26000000000E-02 0.  1.
         23    2    1    2    0    0  0.00000000000E+00  0.00000000000E+00  0.81692188308E+02  0.12337163877E+03  0.92449703204E+02 0.  0.
        -13    1    3    3    0    0 -0.13028511830E+02 -0.16286991149E+02  0.95895615727E+02  0.98137599773E+02  0.10570000000E+00 0. -1.
         13    1    3    3    0    0  0.13028511830E+02  0.16286991149E+02 -0.14203427419E+02  0.25234038997E+02  0.10570000000E+00 0.  1.
<mgrwt>
<rscale>  0 0.92449703E+02</rscale>
<asrwt>0</asrwt>
<pdfrwt beam="1">  1        2 0.15774141E-01 0.92449703E+02</pdfrwt>
<pdfrwt beam="2">  1       -2 0.32061116E-02 0.92449703E+02</pdfrwt>
<totfact> 0.11898365E+05</totfact>
</mgrwt>
</event>
<event>
 5   1  0.1343823E+00  0.9140602E+02  0.7818608E-02  0.1299482E+00
          2   -1    0    0  501    0  0.00000000000E+00  0.00000000000E+00  0.39506914258E+03  0.39506914259E+03  0.26000000000E-02 0. -1.
         -2   -1    0    0    0  501 -0.00000000000E+00 -0.00000000000E+00 -0.52870875098E+01  0.52870881491E+01  0.26000000000E-02 0.  1.
         23    2    1    2    0    0  0.00000000000E+00  0.00000000000E+00  0.38978205507E+03  0.40035623074E+03  0.91406022974E+02 0.  0.
        -13    1    3    3    0    0  0.10145349486E+02  0.43895044565E+02  0.22854881222E+03  0.23294693343E+03  0.10570000000E+00 0.  1.
         13    1    3    3    0    0 -0.10145349486E+02 -0.43895044565E+02  0.16123324285E+03  0.16740929731E+03  0.10570000000E+00 0. -1.
<mgrwt>
<rscale>  0 0.91406023E+02</rscale>
<asrwt>0</asrwt>
<pdfrwt beam="1">  1        2 0.60779876E-01 0.91406023E+02</pdfrwt>
<pdfrwt beam="2">  1       -2 0.81339803E-03 0.91406023E+02</pdfrwt>
<totfact> 0.19741882E+05</totfact>
</mgrwt>
</event>
<event>
 5   1  0.1343823E+00  0.8995219E+02  0.7818608E-02  0.1302968E+00
         -2   -1    0    0    0  501 -0.00000000000E+00  0.00000000000E+00  0.28010303681E+03  0.28010303682E+03  0.26000000000E-02 0.  1.
          2   -1    0    0  501    0  0.00000000000E+00 -0.00000000000E+00 -0.72218034323E+01  0.72218039003E+01  0.26000000000E-02 0. -1.
         23    2    1    2    0    0  0.00000000000E+00  0.00000000000E+00  0.27288123337E+03  0.28732484072E+03  0.89952190448E+02 0.  0.
        -13    1    3    3    0    0  0.36108002846E+02 -0.22517304817E+02  0.89930122311E+02  0.99489974154E+02  0.10570000000E+00 0. -1.
         13    1    3    3    0    0 -0.36108002846E+02  0.22517304817E+02  0.18295111106E+03  0.18783486657E+03  0.10570000000E+00 0.  1.
<mgrwt>
<rscale>  0 0.89952190E+02</rscale>
<asrwt>0</asrwt>
<pdfrwt beam="2">  1        2 0.11110468E-02 0.89952190E+02</pdfrwt>
<pdfrwt beam="1">  1       -2 0.43092773E-01 0.89952190E+02</pdfrwt>
<totfact> 0.54835593E+04</totfact>
</mgrwt>
</event>
<event>
 5   1  0.1343823E+00  0.9160760E+02  0.7818608E-02  0.1299005E+00
         -2   -1    0    0    0  501 -0.00000000000E+00  0.00000000000E+00  0.61524197509E+01  0.61524203003E+01  0.26000000000E-02 0.  1.
          2   -1    0    0  501    0  0.00000000000E+00 -0.00000000000E+00 -0.34100210851E+03  0.34100210852E+03  0.26000000000E-02 0. -1.
         23    2    1    2    0    0  0.00000000000E+00  0.00000000000E+00 -0.33484968876E+03  0.34715452882E+03  0.91607602405E+02 0.  0.
        -13    1    3    3    0    0 -0.12701681239E+00  0.45785044904E+02 -0.16249756868E+03  0.16882463526E+03  0.10570000000E+00 0.  1.
         13    1    3    3    0    0  0.12701681239E+00 -0.45785044904E+02 -0.17235212009E+03  0.17832989357E+03  0.10570000000E+00 0. -1.
<mgrwt>
<rscale>  0 0.91607602E+02</rscale>
<asrwt>0</asrwt>
<pdfrwt beam="2">  1        2 0.52461848E-01 0.91607602E+02</pdfrwt>
<pdfrwt beam="1">  1       -2 0.94652643E-03 0.91607602E+02</pdfrwt>
<totfact> 0.18603803E+05</totfact>
</mgrwt>
</event>
<event>
 5   1  0.1343823E+00  0.9144395E+02  0.7818608E-02  0.1299392E+00
          2   -1    0    0  501    0  0.00000000000E+00  0.00000000000E+00  0.76067429058E+02  0.76067429103E+02  0.26000000000E-02 0.  1.
         -2   -1    0    0    0  501 -0.00000000000E+00 -0.00000000000E+00 -0.27482185749E+02  0.27482185872E+02  0.26000000000E-02 0. -1.
         23    2    1    2    0    0  0.00000000000E+00  0.00000000000E+00  0.48585243309E+02  0.10354961497E+03  0.91443954934E+02 0.  0.
        -13    1    3    3    0    0  0.17745024717E+02 -0.42126051505E+02  0.25423834346E+02  0.52305569904E+02  0.10570000000E+00 0.  1.
         13    1    3    3    0    0 -0.17745024717E+02  0.42126051505E+02  0.23161408963E+02  0.51244045071E+02  0.10570000000E+00 0. -1.
<mgrwt>
<rscale>  0 0.91443955E+02</rscale>
<asrwt>0</asrwt>
<pdfrwt beam="1">  1        2 0.11702681E-01 0.91443955E+02</pdfrwt>
<pdfrwt beam="2">  1       -2 0.42280286E-02 0.91443955E+02</pdfrwt>
<totfact> 0.11230206E+05</totfact>
</mgrwt>
</event>
<event>
 5   1  0.1343823E+00  0.8571502E+02  0.7818608E-02  0.1313573E+00
          2   -1    0    0  501    0  0.00000000000E+00  0.00000000000E+00  0.19856262928E+03  0.19856262930E+03  0.26000000000E-02 0. -1.
         -2   -1    0    0    0  501 -0.00000000000E+00 -0.00000000000E+00 -0.92503121291E+01  0.92503124945E+01  0.26000000000E-02 0.  1.
         23    2    1    2    0    0  0.00000000000E+00  0.00000000000E+00  0.18931231715E+03  0.20781294179E+03  0.85715024068E+02 0.  0.
        -13    1    3    3    0    0 -0.55944696731E+01 -0.42405654337E+02  0.88142714683E+02  0.97972888775E+02  0.10570000000E+00 0.  1.
         13    1    3    3    0    0  0.55944696731E+01  0.42405654337E+02  0.10116960247E+03  0.10984005302E+03  0.10570000000E+00 0. -1.
<mgrwt>
<rscale>  0 0.85715024E+02</rscale>
<asrwt>0</asrwt>
<pdfrwt beam="1">  1        2 0.30548098E-01 0.85715024E+02</pdfrwt>
<pdfrwt beam="2">  1       -2 0.14231249E-02 0.85715024E+02</pdfrwt>
<totfact> 0.18206775E+05</totfact>
</mgrwt>
</event>
<event>
 5   1  0.1343823E+00  0.9480454E+02  0.7818608E-02  0.1291617E+00
          2   -1    0    0  501    0  0.00000000000E+00  0.00000000000E+00  0.18056809512E+03  0.18056809514E+03  0.26000000000E-02 0. -1.
         -2   -1    0    0    0  501 -0.00000000000E+00 -0.00000000000E+00 -0.12443920548E+02  0.12443920819E+02  0.26000000000E-02 0.  1.
         23    2    1    2    0    0  0.00000000000E+00  0.00000000000E+00  0.16812417457E+03  0.19301201596E+03  0.94804536961E+02 0.  0.
        -13    1    3    3    0    0  0.24658133069E+02 -0.29664963017E+02  0.27975866229E+02  0.47651797668E+02  0.10570000000E+00 0.  1.
         13    1    3    3    0    0 -0.24658133069E+02  0.29664963017E+02  0.14014830834E+03  0.14536021829E+03  0.10570000000E+00 0. -1.
<mgrwt>
<rscale>  0 0.94804537E+02</rscale>
<asrwt>0</asrwt>
<pdfrwt beam="1">  1        2 0.27779708E-01 0.94804537E+02</pdfrwt>
<pdfrwt beam="2">  1       -2 0.19144493E-02 0.94804537E+02</pdfrwt>
<totfact> 0.13416257E+05</totfact>
</mgrwt>
</event>
<event>
 5   1  0.1343823E+00  0.9243106E+02  0.7818608E-02  0.1297069E+00
         -2   -1    0    0    0  501 -0.00000000000E+00  0.00000000000E+00  0.38405452164E+02  0.38405452252E+02  0.26000000000E-02 0.  1.
          2   -1    0    0  501    0  0.00000000000E+00 -0.00000000000E+00 -0.55613855864E+02  0.55613855925E+02  0.26000000000E-02 0. -1.
         23    2    1    2    0    0  0.00000000000E+00  0.00000000000E+00 -0.17208403700E+02  0.94019308177E+02  0.92431061620E+02 0.  0.
        -13    1    3    3    0    0  0.40778434278E+02  0.17182224747E+02  0.49573532501E+01  0.44527475486E+02  0.10570000000E+00 0.  1.
         13    1    3    3    0    0 -0.40778434278E+02 -0.17182224747E+02 -0.22165756950E+02  0.49491832691E+02  0.10570000000E+00 0. -1.
<mgrwt>
<rscale>  0 0.92431062E+02</rscale>
<asrwt>0</asrwt>
<pdfrwt beam="2">  1        2 0.85559778E-02 0.92431062E+02</pdfrwt>
<pdfrwt beam="1">  1       -2 0.59085311E-02 0.92431062E+02</pdfrwt>
<totfact> 0.99990348E+04</totfact>
</mgrwt>
</event>
<event>
 5   1  0.1343823E+00  0.9120146E+02  0.7818608E-02  0.1299968E+00
         -2   -1    0    0    0  501 -0.00000000000E+00  0.00000000000E+00  0.94440866022E+01  0.94440869601E+01  0.26000000000E-02 0.  1.
          2   -1    0    0  501    0  0.00000000000E+00 -0.00000000000E+00 -0.22018293933E+03  0.22018293935E+03  0.26000000000E-02 0. -1.
         23    2    1    2    0    0  0.00000000000E+00  0.00000000000E+00 -0.21073885273E+03  0.22962702631E+03  0.91201464687E+02 0.  0.
        -13    1    3    3    0    0 -0.32096698065E+02  0.55189992500E+01 -0.25006312636E+02  0.41060738224E+02  0.10570000000E+00 0.  1.
         13    1    3    3    0    0  0.32096698065E+02 -0.55189992500E+01 -0.18573254010E+03  0.18856628809E+03  0.10570000000E+00 0. -1.
<mgrwt>
<rscale>  0 0.91201465E+02</rscale>
<asrwt>0</asrwt>
<pdfrwt beam="2">  1        2 0.33874294E-01 0.91201465E+02</pdfrwt>
<pdfrwt beam="1">  1       -2 0.14529366E-02 0.91201465E+02</pdfrwt>
<totfact> 0.16007274E+05</totfact>
</mgrwt>
</event>
<event>
 5   1  0.1343823E+00  0.9246130E+02  0.7818608E-02  0.1296998E+00
          2   -1    0    0  501    0  0.00000000000E+00  0.00000000000E+00  0.41945432707E+03  0.41945432708E+03  0.26000000000E-02 0. -1.
         -2   -1    0    0    0  501 -0.00000000000E+00 -0.00000000000E+00 -0.50953650915E+01  0.50953657549E+01  0.26000000000E-02 0.  1.
         23    2    1    2    0    0  0.00000000000E+00  0.00000000000E+00  0.41435896198E+03  0.42454969284E+03  0.92461301704E+02 0.  0.
        -13    1    3    3    0    0  0.38892358200E+02 -0.23993811110E+02  0.17505651559E+03  0.18092294858E+03  0.10570000000E+00 0.  1.
         13    1    3    3    0    0 -0.38892358200E+02  0.23993811110E+02  0.23930244639E+03  0.24362674426E+03  0.10570000000E+00 0. -1.
<mgrwt>
<rscale>  0 0.92461302E+02</rscale>
<asrwt>0</asrwt>
<pdfrwt beam="1">  1        2 0.64531450E-01 0.92461302E+02</pdfrwt>
<pdfrwt beam="2">  1       -2 0.78390220E-03 0.92461302E+02</pdfrwt>
<totfact> 0.19561245E+05</totfact>
</mgrwt>
</event>
<event>
 5   1  0.1343823E+00  0.7622855E+02  0.7818608E-02  0.1340108E+00
          2   -1    0    0  501    0  0.00000000000E+00  0.00000000000E+00  0.28399716862E+02  0.28399716981E+02  0.26000000000E-02 0. -1.
         -2   -1    0    0    0  501 -0.00000000000E+00 -0.00000000000E+00 -0.51151843514E+02  0.51151843580E+02  0.26000000000E-02 0.  1.
         23    2    1    2    0    0  0.00000000000E+00  0.00000000000E+00 -0.22752126652E+02  0.79551560562E+02  0.76228547937E+02 0.  0.
        -13    1    3    3    0    0  0.16108715921E+02 -0.33277420241E+02 -0.17089193140E+01  0.37010930875E+02  0.10570000000E+00 0. -1.
         13    1    3    3    0    0 -0.16108715921E+02  0.33277420241E+02 -0.21043207338E+02  0.42540629686E+02  0.10570000000E+00 0.  1.
<mgrwt>
<rscale>  0 0.76228548E+02</rscale>
<asrwt>0</asrwt>
<pdfrwt beam="1">  1        2 0.43691872E-02 0.76228548E+02</pdfrwt>
<pdfrwt beam="2">  1       -2 0.78695144E-02 0.76228548E+02</pdfrwt>
<totfact> 0.14697108E+05</totfact>
</mgrwt>
</event>
<event>
 5   1  0.1343823E+00  0.8868612E+02  0.7818608E-02  0.1306065E+00
          2   -1    0    0  501    0  0.00000000000E+00  0.00000000000E+00  0.13130884966E+02  0.13130885223E+02  0.26000000000E-02 0. -1.
         -2   -1    0    0    0  501 -0.00000000000E+00 -0.00000000000E+00 -0.14974672842E+03  0.14974672844E+03  0.26000000000E-02 0.  1.
         23    2    1    2    0    0  0.00000000000E+00  0.00000000000E+00 -0.13661584345E+03  0.16287761366E+03  0.88686122649E+02 0.  0.
        -13    1    3    3    0    0 -0.24162501095E+01 -0.39675607883E+02 -0.32210996140E+02  0.51162012961E+02  0.10570000000E+00 0. -1.
         13    1    3    3    0    0  0.24162501095E+01  0.39675607883E+02 -0.10440484731E+03  0.11171560070E+03  0.10570000000E+00 0.  1.
<mgrwt>
<rscale>  0 0.88686123E+02</rscale>
<asrwt>0</asrwt>
<pdfrwt beam="1">  1        2 0.20201363E-02 0.88686123E+02</pdfrwt>
<pdfrwt beam="2">  1       -2 0.23037957E-01 0.88686123E+02</pdfrwt>
<totfact> 0.74971352E+04</totfact>
</mgrwt>
</event>
<event>
 5   1  0.1343823E+00  0.9164884E+02  0.7818608E-02  0.1298907E+00
          2   -1    0    0  501    0  0.00000000000E+00  0.00000000000E+00  0.28232266491E+03  0.28232266492E+03  0.26000000000E-02 0. -1.
         -2   -1    0    0    0  501 -0.00000000000E+00 -0.00000000000E+00 -0.74378634208E+01  0.74378638753E+01  0.26000000000E-02 0.  1.
         23    2    1    2    0    0  0.00000000000E+00  0.00000000000E+00  0.27488480149E+03  0.28976052879E+03  0.91648840467E+02 0.  0.
        -13    1    3    3    0    0  0.38636624427E+02 -0.22186453700E+02  0.17132343458E+03  0.17702191357E+03  0.10570000000E+00 0. -1.
         13    1    3    3    0    0 -0.38636624427E+02  0.22186453700E+02  0.10356136691E+03  0.11273861523E+03  0.10570000000E+00 0.  1.
<mgrwt>
<rscale>  0 0.91648840E+02</rscale>
<asrwt>0</asrwt>
<pdfrwt beam="1">  1        2 0.43434260E-01 0.91648840E+02</pdfrwt>
<pdfrwt beam="2">  1       -2 0.11442866E-02 0.91648840E+02</pdfrwt>
<totfact> 0.17322942E+05</totfact>
</mgrwt>
</event>
<event>
 5   1  0.1343823E+00  0.9185407E+02  0.7818608E-02  0.1298423E+00
          2   -1    0    0  501    0  0.00000000000E+00  0.00000000000E+00  0.19482913381E+03  0.19482913382E+03  0.26000000000E-02 0. -1.
         -2   -1    0    0    0  501 -0.00000000000E+00 -0.00000000000E+00 -0.10826371660E+02  0.10826371972E+02  0.26000000000E-02 0.  1.
         23    2    1    2    0    0  0.00000000000E+00  0.00000000000E+00  0.18400276215E+03  0.20565550580E+03  0.91854072237E+02 0.  0.
        -13    1    3    3    0    0 -0.57440257473E+01  0.32724011409E+02  0.16299464399E+03  0.16634638528E+03  0.10570000000E+00 0. -1.
         13    1    3    3    0    0  0.57440257473E+01 -0.32724011409E+02  0.21008118154E+02  0.39309120511E+02  0.10570000000E+00 0.  1.
<mgrwt>
<rscale>  0 0.91854072E+02</rscale>
<asrwt>0</asrwt>
<pdfrwt beam="1">  1        2 0.29973710E-01 0.91854072E+02</pdfrwt>
<pdfrwt beam="2">  1       -2 0.16655958E-02 0.91854072E+02</pdfrwt>
<totfact> 0.15019600E+05</totfact>
</mgrwt>
</event>
<event>
 5   1  0.1343823E+00  0.8968289E+02  0.7818608E-02  0.1303621E+00
         -2   -1    0    0    0  501 -0.00000000000E+00  0.00000000000E+00  0.66314240470E+01  0.66314245567E+01  0.26000000000E-02 0.  1.
          2   -1    0    0  501    0  0.00000000000E+00 -0.00000000000E+00 -0.30321620092E+03  0.30321620093E+03  0.26000000000E-02 0. -1.
         23    2    1    2    0    0  0.00000000000E+00  0.00000000000E+00 -0.29658477687E+03  0.30984762549E+03  0.89682892168E+02 0.  0.
        -13    1    3    3    0    0  0.42839170194E+02 -0.12961579404E+01 -0.10273588568E+03  0.11131732977E+03  0.10570000000E+00 0.  1.
         13    1    3    3    0    0 -0.42839170194E+02  0.12961579404E+01 -0.19384889120E+03  0.19853029572E+03  0.10570000000E+00 0. -1.
<mgrwt>
<rscale>  0 0.89682892E+02</rscale>
<asrwt>0</asrwt>
<pdfrwt beam="2">  1        2 0.46648636E-01 0.89682892E+02</pdfrwt>
<pdfrwt beam="1">  1       -2 0.10202194E-02 0.89682892E+02</pdfrwt>
<totfact> 0.18849004E+05</totfact>
</mgrwt>
</event>
<event>
 5   1  0.1343823E+00  0.8996804E+02  0.7818608E-02  0.1302929E+00
         -2   -1    0    0    0  501 -0.00000000000E+00  0.00000000000E+00  0.26418719275E+03  0.26418719276E+03  0.26000000000E-02 0.  1.
          2   -1    0    0  501    0  0.00000000000E+00 -0.00000000000E+00 -0.76595768389E+01  0.76595772802E+01  0.26000000000E-02 0. -1.
         23    2    1    2    0    0  0.00000000000E+00  0.00000000000E+00  0.25652761591E+03  0.27184677004E+03  0.89968042425E+02 0.  0.
        -13    1    3    3    0    0  0.10090141587E+02 -0.42738651196E+02  0.98790076721E+02  0.10811056236E+03  0.10570000000E+00 0. -1.
         13    1    3    3    0    0 -0.10090141587E+02  0.42738651196E+02  0.15773753919E+03  0.16373620768E+03  0.10570000000E+00 0.  1.
<mgrwt>
<rscale>  0 0.89968042E+02</rscale>
<asrwt>0</asrwt>
<pdfrwt beam="2">  1        2 0.11783965E-02 0.89968042E+02</pdfrwt>
<pdfrwt beam="1">  1       -2 0.40644181E-01 0.89968042E+02</pdfrwt>
<totfact> 0.56526707E+04</totfact>
</mgrwt>
</event>
<event>
 5   1  0.1343823E+00  0.9171740E+02  0.7818608E-02  0.1298745E+00
         -2   -1    0    0    0  501 -0.00000000000E+00  0.00000000000E+00  0.50914538368E+02  0.50914538435E+02  0.26000000000E-02 0.  1.
          2   -1    0    0  501    0  0.00000000000E+00 -0.00000000000E+00 -0.41304906402E+02  0.41304906484E+02  0.26000000000E-02 0. -1.
         23    2    1    2    0    0  0.00000000000E+00  0.00000000000E+00  0.96096319666E+01  0.92219444918E+02  0.91717397447E+02 0.  0.
        -13    1    3    3    0    0 -0.43179081447E+00 -0.25827042517E+02  0.42904003563E+02  0.50079808933E+02  0.10570000000E+00 0.  1.
         13    1    3    3    0    0  0.43179081447E+00  0.25827042517E+02 -0.33294371596E+02  0.42139635986E+02  0.10570000000E+00 0. -1.
<mgrwt>
<rscale>  0 0.91717397E+02</rscale>
<asrwt>0</asrwt>
<pdfrwt beam="2">  1        2 0.63546011E-02 0.91717397E+02</pdfrwt>
<pdfrwt beam="1">  1       -2 0.78330058E-02 0.91717397E+02</pdfrwt>
<totfact> 0.94552552E+04</totfact>
</mgrwt>
</event>
<event>
 5   1  0.1343823E+00  0.9005550E+02  0.7818608E-02  0.1302717E+00
          2   -1    0    0  501    0  0.00000000000E+00  0.00000000000E+00  0.19343868824E+03  0.19343868826E+03  0.26000000000E-02 0. -1.
         -2   -1    0    0    0  501 -0.00000000000E+00 -0.00000000000E+00 -0.10481348089E+02  0.10481348412E+02  0.26000000000E-02 0.  1.
         23    2    1    2    0    0  0.00000000000E+00  0.00000000000E+00  0.18295734015E+03  0.20392003667E+03  0.90055499778E+02 0.  0.
        -13    1    3    3    0    0  0.30341274562E+02  0.33012217241E+02  0.10083899525E+03  0.11035811508E+03  0.10570000000E+00 0.  1.
         13    1    3    3    0    0 -0.30341274562E+02 -0.33012217241E+02  0.82118344909E+02  0.93561921594E+02  0.10570000000E+00 0. -1.
<mgrwt>
<rscale>  0 0.90055500E+02</rscale>
<asrwt>0</asrwt>
<pdfrwt beam="1">  1        2 0.29759800E-01 0.90055500E+02</pdfrwt>
<pdfrwt beam="2">  1       -2 0.16125150E-02 0.90055500E+02</pdfrwt>
<totfact> 0.15800490E+05</totfact>
</mgrwt>
</event>
<event>
 5   1  0.1343823E+00  0.9184866E+02  0.7818608E-02  0.1298436E+00
          2   -1    0    0  501    0  0.00000000000E+00  0.00000000000E+00  0.66314200868E+01  0.66314205965E+01  0.26000000000E-02 0. -1.
         -2   -1    0    0    0  501 -0.00000000000E+00 -0.00000000000E+00 -0.31803805397E+03  0.31803805399E+03  0.26000000000E-02 0.  1.
         23    2    1    2    0    0  0.00000000000E+00  0.00000000000E+00 -0.31140663389E+03  0.32466947458E+03  0.91848658650E+02 0.  0.
        -13    1    3    3    0    0  0.19375021177E+02 -0.41610565542E+02 -0.16094898828E+03  0.16736612146E+03  0.10570000000E+00 0.  1.
         13    1    3    3    0    0 -0.19375021177E+02  0.41610565542E+02 -0.15045764561E+03  0.15730335312E+03  0.10570000000E+00 0. -1.
<mgrwt>
<rscale>  0 0.91848659E+02</rscale>
<asrwt>0</asrwt>
<pdfrwt beam="1">  1        2 0.10202188E-02 0.91848659E+02</pdfrwt>
<pdfrwt beam="2">  1       -2 0.48928920E-01 0.91848659E+02</pdfrwt>
<totfact> 0.48397343E+04</totfact>
</mgrwt>
</event>
<event>
 5   1  0.1343823E+00  0.8903425E+02  0.7818608E-02  0.1305207E+00
         -2   -1    0    0    0  501 -0.00000000000E+00  0.00000000000E+00  0.18647390556E+02  0.18647390737E+02  0.26000000000E-02 0.  1.
          2   -1    0    0  501    0  0.00000000000E+00 -0.00000000000E+00 -0.10627622360E+03  0.10627622363E+03  0.26000000000E-02 0. -1.
         23    2    1    2    0    0  0.00000000000E+00  0.00000000000E+00 -0.87628833046E+02  0.12492361437E+03  0.89034246482E+02 0.  0.
        -13    1    3    3    0    0 -0.15731080979E+02  0.41486074457E+02 -0.48912467049E+02  0.66037882219E+02  0.10570000000E+00 0. -1.
         13    1    3    3    0    0  0.15731080979E+02 -0.41486074457E+02 -0.38716365997E+02  0.58885732152E+02  0.10570000000E+00 0.  1.
<mgrwt>
<rscale>  0 0.89034246E+02</rscale>
<asrwt>0</asrwt>
<pdfrwt beam="2">  1        2 0.16350188E-01 0.89034246E+02</pdfrwt>
<pdfrwt beam="1">  1       -2 0.28688294E-02 0.89034246E+02</pdfrwt>
<totfact> 0.13340488E+05</totfact>
</mgrwt>
</event>
<event>
 5   1  0.1343823E+00  0.1004956E+03  0.7818608E-02  0.1279257E+00
          2   -1    0    0  501    0  0.00000000000E+00  0.00000000000E+00  0.10780531365E+03  0.10780531368E+03  0.26000000000E-02 0.  1.
         -2   -1    0    0    0  501 -0.00000000000E+00 -0.00000000000E+00 -0.23420403006E+02  0.23420403151E+02  0.26000000000E-02 0. -1.
         23    2    1    2    0    0  0.00000000000E+00  0.00000000000E+00  0.84384910642E+02  0.13122571683E+03  0.10049564972E+03 0.  0.
        -13    1    3    3    0    0 -0.88563319324E+01 -0.49435681923E+02  0.44261812937E+02  0.66943562196E+02  0.10570000000E+00 0. -1.
         13    1    3    3    0    0  0.88563319324E+01  0.49435681923E+02  0.40123097705E+02  0.64282154635E+02  0.10570000000E+00 0.  1.
<mgrwt>
<rscale>  0 0.10049565E+03</rscale>
<asrwt>0</asrwt>
<pdfrwt beam="1">  1        2 0.16585433E-01 0.10049565E+03</pdfrwt>
<pdfrwt beam="2">  1       -2 0.36031390E-02 0.10049565E+03</pdfrwt>
<totfact> 0.95916163E+04</totfact>
</mgrwt>
</event>
<event>
 5   1  0.1343823E+00  0.9247671E+02  0.7818608E-02  0.1296962E+00
         -2   -1    0    0    0  501 -0.00000000000E+00  0.00000000000E+00  0.13292533903E+02  0.13292534158E+02  0.26000000000E-02 0.  1.
          2   -1    0    0  501    0  0.00000000000E+00 -0.00000000000E+00 -0.16084109149E+03  0.16084109151E+03  0.26000000000E-02 0. -1.
         23    2    1    2    0    0  0.00000000000E+00  0.00000000000E+00 -0.14754855759E+03  0.17413362567E+03  0.92476714598E+02 0.  0.
        -13    1    3    3    0    0 -0.31610126669E+02  0.12131384780E+02 -0.14479102401E+02  0.36824260801E+02  0.10570000000E+00 0.  1.
         13    1    3    3    0    0  0.31610126669E+02 -0.12131384780E+02 -0.13306945519E+03  0.13730936487E+03  0.10570000000E+00 0. -1.
<mgrwt>
<rscale>  0 0.92476715E+02</rscale>
<asrwt>0</asrwt>
<pdfrwt beam="2">  1        2 0.24744782E-01 0.92476715E+02</pdfrwt>
<pdfrwt beam="1">  1       -2 0.20450054E-02 0.92476715E+02</pdfrwt>
<totfact> 0.13780003E+05</totfact>
</mgrwt>
</event>
<event>
 5   1  0.1343823E+00  0.8824067E+02  0.7818608E-02  0.1307169E+00
         -2   -1    0    0    0  501 -0.00000000000E+00  0.00000000000E+00  0.23812972235E+02  0.23812972377E+02  0.26000000000E-02 0.  1.
          2   -1    0    0  501    0  0.00000000000E+00 -0.00000000000E+00 -0.81745524147E+02  0.81745524188E+02  0.26000000000E-02 0. -1.
         23    2    1    2    0    0  0.00000000000E+00  0.00000000000E+00 -0.57932551912E+02  0.10555849657E+03  0.88240668776E+02 0.  0.
        -13    1    3    3    0    0 -0.14925698408E+02  0.14479474857E+02 -0.75515285323E+02  0.78326248186E+02  0.10570000000E+00 0. -1.
         13    1    3    3    0    0  0.14925698408E+02 -0.14479474857E+02  0.17582733410E+02  0.27232248379E+02  0.10570000000E+00 0.  1.
<mgrwt>
<rscale>  0 0.88240669E+02</rscale>
<asrwt>0</asrwt>
<pdfrwt beam="2">  1        2 0.12576234E-01 0.88240669E+02</pdfrwt>
<pdfrwt beam="1">  1       -2 0.36635342E-02 0.88240669E+02</pdfrwt>
<totfact> 0.12652550E+05</totfact>
</mgrwt>
</event>
<event>
 5   1  0.1343823E+00  0.9085653E+02  0.7818608E-02  0.1300791E+00
          2   -1    0    0  501    0  0.00000000000E+00  0.00000000000E+00  0.97464100123E+02  0.97464100158E+02  0.26000000000E-02 0. -1.
         -2   -1    0    0    0  501 -0.00000000000E+00 -0.00000000000E+00 -0.21174228824E+02  0.21174228984E+02  0.26000000000E-02 0.  1.
         23    2    1    2    0    0  0.00000000000E+00  0.00000000000E+00  0.76289871299E+02  0.11863832914E+03  0.90856527992E+02 0.  0.
        -13    1    3    3    0    0  0.40246319053E+02 -0.12761193985E+02  0.16252169271E+02  0.45241114573E+02  0.10570000000E+00 0.  1.
         13    1    3    3    0    0 -0.40246319053E+02  0.12761193985E+02  0.60037702027E+02  0.73397214569E+02  0.10570000000E+00 0. -1.
<mgrwt>
<rscale>  0 0.90856528E+02</rscale>
<asrwt>0</asrwt>
<pdfrwt beam="1">  1        2 0.14994477E-01 0.90856528E+02</pdfrwt>
<pdfrwt beam="2">  1       -2 0.32575737E-02 0.90856528E+02</pdfrwt>
<totfact> 0.12290967E+05</totfact>
</mgrwt>
</event>
<event>
 5   1  0.1343823E+00  0.8894904E+02  0.7818608E-02  0.1305417E+00
         -2   -1    0    0    0  501 -0.00000000000E+00  0.00000000000E+00  0.18364177923E+02  0.18364178107E+02  0.26000000000E-02 0. -1.
          2   -1    0    0  501    0  0.00000000000E+00 -0.00000000000E+00 -0.10770876358E+03  0.10770876361E+03  0.26000000000E-02 0.  1.
         23    2    1    2    0    0  0.00000000000E+00  0.00000000000E+00 -0.89344585654E+02  0.12607294171E+03  0.88949039607E+02 0.  0.
        -13    1    3    3    0    0  0.28775712872E+02  0.71985163781E+00  0.33804816496E+01  0.28982730485E+02  0.10570000000E+00 0. -1.
         13    1    3    3    0    0 -0.28775712872E+02 -0.71985163781E+00 -0.92725067303E+02  0.97090211230E+02  0.10570000000E+00 0.  1.
<mgrwt>
<rscale>  0 0.88949040E+02</rscale>
<asrwt>0</asrwt>
<pdfrwt beam="2">  1        2 0.16570579E-01 0.88949040E+02</pdfrwt>
<pdfrwt beam="1">  1       -2 0.28252582E-02 0.88949040E+02</pdfrwt>
<totfact> 0.13430662E+05</totfact>
</mgrwt>
</event>
<event>
 5   1  0.1343823E+00  0.9029751E+02  0.7818608E-02  0.1302133E+00
         -2   -1    0    0    0  501 -0.00000000000E+00  0.00000000000E+00  0.12254593924E+03  0.12254593927E+03  0.26000000000E-02 0.  1.
          2   -1    0    0  501    0  0.00000000000E+00 -0.00000000000E+00 -0.16633842483E+02  0.16633842686E+02  0.26000000000E-02 0. -1.
         23    2    1    2    0    0  0.00000000000E+00  0.00000000000E+00  0.10591209676E+03  0.13917978195E+03  0.90297505310E+02 0.  0.
        -13    1    3    3    0    0 -0.29864545935E+00 -0.29543150962E+02  0.10557700332E+03  0.10963303225E+03  0.10570000000E+00 0.  1.
         13    1    3    3    0    0  0.29864545935E+00  0.29543150962E+02  0.33509343653E+00  0.29546749703E+02  0.10570000000E+00 0. -1.
<mgrwt>
<rscale>  0 0.90297505E+02</rscale>
<asrwt>0</asrwt>
<pdfrwt beam="2">  1        2 0.25590527E-02 0.90297505E+02</pdfrwt>
<pdfrwt beam="1">  1       -2 0.18853221E-01 0.90297505E+02</pdfrwt>
<totfact> 0.76747945E+04</totfact>
</mgrwt>
</event>
<event>
 5   1  0.1343823E+00  0.8645696E+02  0.7818608E-02  0.1311666E+00
          2   -1    0    0  501    0  0.00000000000E+00  0.00000000000E+00  0.28459165494E+03  0.28459165495E+03  0.26000000000E-02 0. -1.
         -2   -1    0    0    0  501 -0.00000000000E+00 -0.00000000000E+00 -0.65662547713E+01  0.65662552861E+01  0.26000000000E-02 0.  1.
         23    2    1    2    0    0  0.00000000000E+00  0.00000000000E+00  0.27802540016E+03  0.29115791023E+03  0.86456957818E+02 0.  0.
        -13    1    3    3    0    0  0.34850525416E+02  0.21862580157E+02  0.94315463698E+02  0.10289776187E+03  0.10570000000E+00 0.  1.
         13    1    3    3    0    0 -0.34850525416E+02 -0.21862580157E+02  0.18370993647E+03  0.18826014836E+03  0.10570000000E+00 0. -1.
<mgrwt>
<rscale>  0 0.86456958E+02</rscale>
<asrwt>0</asrwt>
<pdfrwt beam="1">  1        2 0.43783313E-01 0.86456958E+02</pdfrwt>
<pdfrwt beam="2">  1       -2 0.10101935E-02 0.86456958E+02</pdfrwt>
<totfact> 0.20293475E+05</totfact>
</mgrwt>
</event>
<event>
 5   1  0.1343823E+00  0.9066624E+02  0.7818608E-02  0.1301246E+00
          2   -1    0    0  501    0  0.00000000000E+00  0.00000000000E+00  0.17693957747E+02  0.17693957938E+02  0.26000000000E-02 0. -1.
         -2   -1    0    0    0  501 -0.00000000000E+00 -0.00000000000E+00 -0.11614652580E+03  0.11614652583E+03  0.26000000000E-02 0.  1.
         23    2    1    2    0    0  0.00000000000E+00  0.00000000000E+00 -0.98452568053E+02  0.13384048377E+03  0.90666239245E+02 0.  0.
        -13    1    3    3    0    0  0.16214654664E+02  0.40950103124E+02 -0.65074158102E+02  0.78577879820E+02  0.10570000000E+00 0.  1.
         13    1    3    3    0    0 -0.16214654664E+02 -0.40950103124E+02 -0.33378409951E+02  0.55262603948E+02  0.10570000000E+00 0. -1.
<mgrwt>
<rscale>  0 0.90666239E+02</rscale>
<asrwt>0</asrwt>
<pdfrwt beam="1">  1        2 0.27221474E-02 0.90666239E+02</pdfrwt>
<pdfrwt beam="2">  1       -2 0.17868696E-01 0.90666239E+02</pdfrwt>
<totfact> 0.77290271E+04</totfact>
</mgrwt>
</event>
<event>
 5   1  0.1343823E+00  0.9101459E+02  0.7818608E-02  0.1300413E+00
         -2   -1    0    0    0  501 -0.00000000000E+00  0.00000000000E+00  0.45400940949E+02  0.45400941023E+02  0.26000000000E-02 0.  1.
          2   -1    0    0  501    0  0.00000000000E+00 -0.00000000000E+00 -0.45613901108E+02  0.45613901182E+02  0.26000000000E-02 0. -1.
         23    2    1    2    0    0  0.00000000000E+00  0.00000000000E+00 -0.21296015861E+00  0.91014842205E+02  0.91014593059E+02 0.  0.
        -13    1    3    3    0    0  0.14628564715E+02  0.43067112662E+02  0.13535808492E+01  0.45504004794E+02  0.10570000000E+00 0. -1.
         13    1    3    3    0    0 -0.14628564715E+02 -0.43067112662E+02 -0.15665410078E+01  0.45510837411E+02  0.10570000000E+00 0.  1.
<mgrwt>
<rscale>  0 0.91014593E+02</rscale>
<asrwt>0</asrwt>
<pdfrwt beam="2">  1        2 0.70175232E-02 0.91014593E+02</pdfrwt>
<pdfrwt beam="1">  1       -2 0.69847602E-02 0.91014593E+02</pdfrwt>
<totfact> 0.99194930E+04</totfact>
</mgrwt>
</event>
<event>
 5   1  0.1343823E+00  0.9188550E+02  0.7818608E-02  0.1298349E+00
         -2   -1    0    0    0  501 -0.00000000000E+00  0.00000000000E+00  0.15117016268E+02  0.15117016492E+02  0.26000000000E-02 0.  1.
          2   -1    0    0  501    0  0.00000000000E+00 -0.00000000000E+00 -0.13962652595E+03  0.13962652598E+03  0.26000000000E-02 0. -1.
         23    2    1    2    0    0  0.00000000000E+00  0.00000000000E+00 -0.12450950969E+03  0.15474354247E+03  0.91885504483E+02 0.  0.
        -13    1    3    3    0    0  0.33629393574E+02 -0.30909494467E+02 -0.70572246192E+02  0.84064178254E+02  0.10570000000E+00 0.  1.
         13    1    3    3    0    0 -0.33629393574E+02  0.30909494467E+02 -0.53937263494E+02  0.70679364217E+02  0.10570000000E+00 0. -1.
<mgrwt>
<rscale>  0 0.91885504E+02</rscale>
<asrwt>0</asrwt>
<pdfrwt beam="2">  1        2 0.21481003E-01 0.91885504E+02</pdfrwt>
<pdfrwt beam="1">  1       -2 0.23256949E-02 0.91885504E+02</pdfrwt>
<totfact> 0.13362343E+05</totfact>
</mgrwt>
</event>
<event>
 5   1  0.1343823E+00  0.9110309E+02  0.7818608E-02  0.1300202E+00
          2   -1    0    0  501    0  0.00000000000E+00  0.00000000000E+00  0.19424941465E+03  0.19424941467E+03  0.26000000000E-02 0.  1.
         -2   -1    0    0    0  501 -0.00000000000E+00 -0.00000000000E+00 -0.10681850759E+02  0.10681851075E+02  0.26000000000E-02 0. -1.
         23    2    1    2    0    0  0.00000000000E+00  0.00000000000E+00  0.18356756389E+03  0.20493126574E+03  0.91103090869E+02 0.  0.
        -13    1    3    3    0    0 -0.25210758432E+02  0.32622725667E+02  0.48217247721E+02  0.63440828502E+02  0.10570000000E+00 0. -1.
         13    1    3    3    0    0  0.25210758432E+02 -0.32622725667E+02  0.13535031617E+03  0.14149043724E+03  0.10570000000E+00 0.  1.
<mgrwt>
<rscale>  0 0.91103091E+02</rscale>
<asrwt>0</asrwt>
<pdfrwt beam="1">  1        2 0.29884526E-01 0.91103091E+02</pdfrwt>
<pdfrwt beam="2">  1       -2 0.16433617E-02 0.91103091E+02</pdfrwt>
<totfact> 0.15339435E+05</totfact>
</mgrwt>
</event>
<event>
 5   1  0.1343823E+00  0.9106820E+02  0.7818608E-02  0.1300285E+00
          2   -1    0    0  501    0  0.00000000000E+00  0.00000000000E+00  0.37449471109E+02  0.37449471200E+02  0.26000000000E-02 0. -1.
         -2   -1    0    0    0  501 -0.00000000000E+00 -0.00000000000E+00 -0.55364045518E+02  0.55364045579E+02  0.26000000000E-02 0.  1.
         23    2    1    2    0    0  0.00000000000E+00  0.00000000000E+00 -0.17914574408E+02  0.92813516778E+02  0.91068199282E+02 0.  0.
        -13    1    3    3    0    0  0.19037498525E+02 -0.18712089257E+02 -0.46552932925E+02  0.53663352214E+02  0.10570000000E+00 0.  1.
         13    1    3    3    0    0 -0.19037498525E+02  0.18712089257E+02  0.28638358516E+02  0.39150164565E+02  0.10570000000E+00 0. -1.
<mgrwt>
<rscale>  0 0.91068199E+02</rscale>
<asrwt>0</asrwt>
<pdfrwt beam="1">  1        2 0.57614571E-02 0.91068199E+02</pdfrwt>
<pdfrwt beam="2">  1       -2 0.85175455E-02 0.91068199E+02</pdfrwt>
<totfact> 0.94100237E+04</totfact>
</mgrwt>
</event>
<event>
 5   1  0.1343823E+00  0.8924760E+02  0.7818608E-02  0.1304684E+00
          2   -1    0    0  501    0  0.00000000000E+00  0.00000000000E+00  0.20330096997E+03  0.20330096998E+03  0.26000000000E-02 0.  1.
         -2   -1    0    0    0  501 -0.00000000000E+00 -0.00000000000E+00 -0.97947560697E+01  0.97947564148E+01  0.26000000000E-02 0. -1.
         23    2    1    2    0    0  0.00000000000E+00  0.00000000000E+00  0.19350621390E+03  0.21309572640E+03  0.89247598244E+02 0.  0.
        -13    1    3    3    0    0  0.37339826094E+02  0.77671318833E+01  0.15206728257E+03  0.15677710468E+03  0.10570000000E+00 0. -1.
         13    1    3    3    0    0 -0.37339826094E+02 -0.77671318833E+01  0.41438931324E+02  0.56318621717E+02  0.10570000000E+00 0.  1.
<mgrwt>
<rscale>  0 0.89247598E+02</rscale>
<asrwt>0</asrwt>
<pdfrwt beam="1">  1        2 0.31277071E-01 0.89247598E+02</pdfrwt>
<pdfrwt beam="2">  1       -2 0.15068856E-02 0.89247598E+02</pdfrwt>
<totfact> 0.16479937E+05</totfact>
</mgrwt>
</event>
<event>
 5   1  0.1343823E+00  0.9159752E+02  0.7818608E-02  0.1299029E+00
          2   -1    0    0  501    0  0.00000000000E+00  0.00000000000E+00  0.42711395258E+02  0.42711395337E+02  0.26000000000E-02 0. -1.
         -2   -1    0    0    0  501 -0.00000000000E+00 -0.00000000000E+00 -0.49109288822E+02  0.49109288891E+02  0.26000000000E-02 0.  1.
         23    2    1    2    0    0  0.00000000000E+00  0.00000000000E+00 -0.63978935634E+01  0.91820684228E+02  0.91597516397E+02 0.  0.
        -13    1    3    3    0    0 -0.36248689431E+02  0.60579877852E+00  0.24854600725E+02  0.43955623387E+02  0.10570000000E+00 0. -1.
         13    1    3    3    0    0  0.36248689431E+02 -0.60579877852E+00 -0.31252494289E+02  0.47865060841E+02  0.10570000000E+00 0.  1.
<mgrwt>
<rscale>  0 0.91597516E+02</rscale>
<asrwt>0</asrwt>
<pdfrwt beam="1">  1        2 0.65709839E-02 0.91597516E+02</pdfrwt>
<pdfrwt beam="2">  1       -2 0.75552752E-02 0.91597516E+02</pdfrwt>
<totfact> 0.95740584E+04</totfact>
</mgrwt>
</event>
<event>
 5   1  0.1343823E+00  0.8997215E+02  0.7818608E-02  0.1302919E+00
         -2   -1    0    0    0  501 -0.00000000000E+00  0.00000000000E+00  0.17561116002E+02  0.17561116195E+02  0.26000000000E-02 0.  1.
          2   -1    0    0  501    0  0.00000000000E+00 -0.00000000000E+00 -0.11524021197E+03  0.11524021200E+03  0.26000000000E-02 0. -1.
         23    2    1    2    0    0  0.00000000000E+00  0.00000000000E+00 -0.97679095965E+02  0.13280132819E+03  0.89972145583E+02 0.  0.
        -13    1    3    3    0    0  0.25888475310E+02  0.40803086619E+01  0.51288465319E+01  0.26705398554E+02  0.10570000000E+00 0.  1.
         13    1    3    3    0    0 -0.25888475310E+02 -0.40803086619E+01 -0.10280794250E+03  0.10609592964E+03  0.10570000000E+00 0. -1.
<mgrwt>
<rscale>  0 0.89972146E+02</rscale>
<asrwt>0</asrwt>
<pdfrwt beam="2">  1        2 0.17729263E-01 0.89972146E+02</pdfrwt>
<pdfrwt beam="1">  1       -2 0.27017103E-02 0.89972146E+02</pdfrwt>
<totfact> 0.13294798E+05</totfact>
</mgrwt>
</event>
<event>
 5   1  0.1343823E+00  0.9182850E+02  0.7818608E-02  0.1298483E+00
          2   -1    0    0  501    0  0.00000000000E+00  0.00000000000E+00  0.29331126835E+03  0.29331126836E+03  0.26000000000E-02 0. -1.
         -2   -1    0    0    0  501 -0.00000000000E+00 -0.00000000000E+00 -0.71873071039E+01  0.71873075742E+01  0.26000000000E-02 0.  1.
         23    2    1    2    0    0  0.00000000000E+00  0.00000000000E+00  0.28612396124E+03  0.30049857593E+03  0.91828497429E+02 0.  0.
        -13    1    3    3    0    0 -0.42119126621E+02  0.78871056789E+01  0.89104282955E+02  0.98872704407E+02  0.10570000000E+00 0.  1.
         13    1    3    3    0    0  0.42119126621E+02 -0.78871056789E+01  0.19701967829E+03  0.20162587153E+03  0.10570000000E+00 0. -1.
<mgrwt>
<rscale>  0 0.91828497E+02</rscale>
<asrwt>0</asrwt>
<pdfrwt beam="1">  1        2 0.45124812E-01 0.91828497E+02</pdfrwt>
<pdfrwt beam="2">  1       -2 0.11057396E-02 0.91828497E+02</pdfrwt>
<totfact> 0.17479879E+05</totfact>
</mgrwt>
</event>
<event>
 5   1  0.1343823E+00  0.9146197E+02  0.7818608E-02  0.1299349E+00
          2   -1    0    0  501    0  0.00000000000E+00  0.00000000000E+00  0.17180043618E+03  0.17180043620E+03  0.26000000000E-02 0. -1.
         -2   -1    0    0    0  501 -0.00000000000E+00 -0.00000000000E+00 -0.12172977570E+02  0.12172977848E+02  0.26000000000E-02 0.  1.
         23    2    1    2    0    0  0.00000000000E+00  0.00000000000E+00  0.15962745861E+03  0.18397341405E+03  0.91461967693E+02 0.  0.
        -13    1    3    3    0    0  0.26770042834E+02  0.17303528817E+02  0.13855017880E+02  0.34756582050E+02  0.10570000000E+00 0.  1.
         13    1    3    3    0    0 -0.26770042834E+02 -0.17303528817E+02  0.14577244073E+03  0.14921683200E+03  0.10570000000E+00 0. -1.
<mgrwt>
<rscale>  0 0.91461968E+02</rscale>
<asrwt>0</asrwt>
<pdfrwt beam="1">  1        2 0.26430837E-01 0.91461968E+02</pdfrwt>
<pdfrwt beam="2">  1       -2 0.18727657E-02 0.91461968E+02</pdfrwt>
<totfact> 0.14528511E+05</totfact>
</mgrwt>
</event>
<event>
 5   1  0.1343823E+00  0.9026340E+02  0.7818608E-02  0.1302215E+00
          2   -1    0    0  501    0  0.00000000000E+00  0.00000000000E+00  0.41635746955E+02  0.41635747036E+02  0.26000000000E-02 0. -1.
         -2   -1    0    0    0  501 -0.00000000000E+00 -0.00000000000E+00 -0.48921194053E+02  0.48921194122E+02  0.26000000000E-02 0.  1.
         23    2    1    2    0    0  0.00000000000E+00  0.00000000000E+00 -0.72854470980E+01  0.90556941157E+02  0.90263402619E+02 0.  0.
        -13    1    3    3    0    0  0.43156622553E+02 -0.11210124164E+01  0.95571358364E+01  0.44216521312E+02  0.10570000000E+00 0. -1.
         13    1    3    3    0    0 -0.43156622553E+02  0.11210124164E+01 -0.16842582934E+02  0.46340419845E+02  0.10570000000E+00 0.  1.
<mgrwt>
<rscale>  0 0.90263403E+02</rscale>
<asrwt>0</asrwt>
<pdfrwt beam="1">  1        2 0.64054995E-02 0.90263403E+02</pdfrwt>
<pdfrwt beam="2">  1       -2 0.75263376E-02 0.90263403E+02</pdfrwt>
<totfact> 0.99221946E+04</totfact>
</mgrwt>
</event>
<event>
 5   1  0.1343823E+00  0.9086762E+02  0.7818608E-02  0.1300764E+00
          2   -1    0    0  501    0  0.00000000000E+00  0.00000000000E+00  0.24614141877E+03  0.24614141878E+03  0.26000000000E-02 0. -1.
         -2   -1    0    0    0  501 -0.00000000000E+00 -0.00000000000E+00 -0.83863617147E+01  0.83863621177E+01  0.26000000000E-02 0.  1.
         23    2    1    2    0    0  0.00000000000E+00  0.00000000000E+00  0.23775505705E+03  0.25452778090E+03  0.90867618518E+02 0.  0.
        -13    1    3    3    0    0 -0.96979517705E+01  0.42826277207E+02  0.86202009217E+02  0.96741603529E+02  0.10570000000E+00 0. -1.
         13    1    3    3    0    0  0.96979517705E+01 -0.42826277207E+02  0.15155304784E+03  0.15778617737E+03  0.10570000000E+00 0.  1.
<mgrwt>
<rscale>  0 0.90867619E+02</rscale>
<asrwt>0</asrwt>
<pdfrwt beam="1">  1        2 0.37867905E-01 0.90867619E+02</pdfrwt>
<pdfrwt beam="2">  1       -2 0.12902097E-02 0.90867619E+02</pdfrwt>
<totfact> 0.16842287E+05</totfact>
</mgrwt>
</event>
<event>
 5   1  0.1343823E+00  0.9775397E+02  0.7818608E-02  0.1285091E+00
          2   -1    0    0  501    0  0.00000000000E+00  0.00000000000E+00  0.16276453332E+03  0.16276453334E+03  0.26000000000E-02 0. -1.
         -2   -1    0    0    0  501 -0.00000000000E+00 -0.00000000000E+00 -0.14677398143E+02  0.14677398373E+02  0.26000000000E-02 0.  1.
         23    2    1    2    0    0  0.00000000000E+00  0.00000000000E+00  0.14808713517E+03  0.17744193171E+03  0.97753974472E+02 0.  0.
        -13    1    3    3    0    0  0.32663860139E+02  0.16701607805E+02  0.15418943800E+02  0.39794804470E+02  0.10570000000E+00 0.  1.
         13    1    3    3    0    0 -0.32663860139E+02 -0.16701607805E+02  0.13266819137E+03  0.13764712724E+03  0.10570000000E+00 0. -1.
<mgrwt>
<rscale>  0 0.97753974E+02</rscale>
<asrwt>0</asrwt>
<pdfrwt beam="1">  1        2 0.25040696E-01 0.97753974E+02</pdfrwt>
<pdfrwt beam="2">  1       -2 0.22580614E-02 0.97753974E+02</pdfrwt>
<totfact> 0.11895762E+05</totfact>
</mgrwt>
</event>
<event>
 5   1  0.1343823E+00  0.9245417E+02  0.7818608E-02  0.1297015E+00
         -2   -1    0    0    0  501 -0.00000000000E+00  0.00000000000E+00  0.22755674713E+02  0.22755674862E+02  0.26000000000E-02 0.  1.
          2   -1    0    0  501    0  0.00000000000E+00 -0.00000000000E+00 -0.93908157780E+02  0.93908157816E+02  0.26000000000E-02 0. -1.
         23    2    1    2    0    0  0.00000000000E+00  0.00000000000E+00 -0.71152483066E+02  0.11666383268E+03  0.92454172478E+02 0.  0.
        -13    1    3    3    0    0  0.31398504604E+02 -0.19260813725E+02 -0.33255531489E+00  0.36837030312E+02  0.10570000000E+00 0.  1.
         13    1    3    3    0    0 -0.31398504604E+02  0.19260813725E+02 -0.70819927752E+02  0.79826802366E+02  0.10570000000E+00 0. -1.
<mgrwt>
<rscale>  0 0.92454172E+02</rscale>
<asrwt>0</asrwt>
<pdfrwt beam="2">  1        2 0.14447409E-01 0.92454172E+02</pdfrwt>
<pdfrwt beam="1">  1       -2 0.35008731E-02 0.92454172E+02</pdfrwt>
<totfact> 0.11582770E+05</totfact>
</mgrwt>
</event>
<event>
 5   1  0.1343823E+00  0.8250730E+02  0.7818608E-02  0.1322083E+00
         -2   -1    0    0    0  501 -0.00000000000E+00  0.00000000000E+00  0.38009583487E+02  0.38009583576E+02  0.26000000000E-02 0.  1.
          2   -1    0    0  501    0  0.00000000000E+00 -0.00000000000E+00 -0.44774598079E+02  0.44774598155E+02  0.26000000000E-02 0. -1.
         23    2    1    2    0    0  0.00000000000E+00  0.00000000000E+00 -0.67650145919E+01  0.82784181731E+02  0.82507304661E+02 0.  0.
        -13    1    3    3    0    0  0.20367581465E+02  0.24795288198E+02  0.22631471871E+02  0.39266262658E+02  0.10570000000E+00 0.  1.
         13    1    3    3    0    0 -0.20367581465E+02 -0.24795288198E+02 -0.29396486463E+02  0.43517919073E+02  0.10570000000E+00 0. -1.
<mgrwt>
<rscale>  0 0.82507305E+02</rscale>
<asrwt>0</asrwt>
<pdfrwt beam="2">  1        2 0.68883998E-02 0.82507305E+02</pdfrwt>
<pdfrwt beam="1">  1       -2 0.58476282E-02 0.82507305E+02</pdfrwt>
<totfact> 0.13047288E+05</totfact>
</mgrwt>
</event>
<event>
 5   1  0.1343823E+00  0.9527249E+02  0.7818608E-02  0.1290564E+00
         -2   -1    0    0    0  501 -0.00000000000E+00  0.00000000000E+00  0.18736721412E+02  0.18736721592E+02  0.26000000000E-02 0.  1.
          2   -1    0    0  501    0  0.00000000000E+00 -0.00000000000E+00 -0.12111039493E+03  0.12111039496E+03  0.26000000000E-02 0. -1.
         23    2    1    2    0    0  0.00000000000E+00  0.00000000000E+00 -0.10237367352E+03  0.13984711655E+03  0.95272488041E+02 0.  0.
        -13    1    3    3    0    0 -0.45358688925E+02 -0.79776279376E+01 -0.33320604615E+02  0.56844762932E+02  0.10570000000E+00 0. -1.
         13    1    3    3    0    0  0.45358688925E+02  0.79776279376E+01 -0.69053068903E+02  0.83002353617E+02  0.10570000000E+00 0.  1.
<mgrwt>
<rscale>  0 0.95272488E+02</rscale>
<asrwt>0</asrwt>
<pdfrwt beam="2">  1        2 0.18632368E-01 0.95272488E+02</pdfrwt>
<pdfrwt beam="1">  1       -2 0.28825726E-02 0.95272488E+02</pdfrwt>
<totfact> 0.11545595E+05</totfact>
</mgrwt>
</event>
<event>
 5   1  0.1343823E+00  0.9243538E+02  0.7818608E-02  0.1297059E+00
         -2   -1    0    0    0  501 -0.00000000000E+00  0.00000000000E+00  0.59256886103E+02  0.59256886160E+02  0.26000000000E-02 0.  1.
          2   -1    0    0  501    0  0.00000000000E+00 -0.00000000000E+00 -0.36047709697E+02  0.36047709791E+02  0.26000000000E-02 0. -1.
         23    2    1    2    0    0  0.00000000000E+00  0.00000000000E+00  0.23209176406E+02  0.95304595951E+02  0.92435383593E+02 0.  0.
        -13    1    3    3    0    0 -0.97786590015E+01  0.42117757787E+02  0.28437283920E+02  0.51751502221E+02  0.10570000000E+00 0.  1.
         13    1    3    3    0    0  0.97786590015E+01 -0.42117757787E+02 -0.52281075137E+01  0.43553093731E+02  0.10570000000E+00 0. -1.
<mgrwt>
<rscale>  0 0.92435384E+02</rscale>
<asrwt>0</asrwt>
<pdfrwt beam="2">  1        2 0.55458015E-02 0.92435384E+02</pdfrwt>
<pdfrwt beam="1">  1       -2 0.91164440E-02 0.92435384E+02</pdfrwt>
<totfact> 0.89195721E+04</totfact>
</mgrwt>
</event>
<event>
 5   1  0.1343823E+00  0.9136511E+02  0.7818608E-02  0.1299579E+00
         -2   -1    0    0    0  501 -0.00000000000E+00  0.00000000000E+00  0.53985542609E+02  0.53985542672E+02  0.26000000000E-02 0. -1.
          2   -1    0    0  501    0  0.00000000000E+00 -0.00000000000E+00 -0.38656570515E+02  0.38656570603E+02  0.26000000000E-02 0.  1.
         23    2    1    2    0    0  0.00000000000E+00  0.00000000000E+00  0.15328972094E+02  0.92642113275E+02  0.91365112415E+02 0.  0.
        -13    1    3    3    0    0 -0.13080664452E+02  0.29339933357E+02  0.40598438481E+02  0.51770453461E+02  0.10570000000E+00 0. -1.
         13    1    3    3    0    0  0.13080664452E+02 -0.29339933357E+02 -0.25269466388E+02  0.40871659814E+02  0.10570000000E+00 0.  1.
<mgrwt>
<rscale>  0 0.91365112E+02</rscale>
<asrwt>0</asrwt>
<pdfrwt beam="2">  1        2 0.59471647E-02 0.91365112E+02</pdfrwt>
<pdfrwt beam="1">  1       -2 0.83054681E-02 0.91365112E+02</pdfrwt>
<totfact> 0.93982919E+04</totfact>
</mgrwt>
</event>
<event>
 5   1  0.1343823E+00  0.9171633E+02  0.7818608E-02  0.1298748E+00
         -2   -1    0    0    0  501 -0.00000000000E+00  0.00000000000E+00  0.57426568488E+02  0.57426568547E+02  0.26000000000E-02 0.  1.
          2   -1    0    0  501    0  0.00000000000E+00 -0.00000000000E+00 -0.36620182416E+02  0.36620182508E+02  0.26000000000E-02 0. -1.
         23    2    1    2    0    0  0.00000000000E+00  0.00000000000E+00  0.20806386072E+02  0.94046751055E+02  0.91716332693E+02 0.  0.
        -13    1    3    3    0    0  0.44139770232E+00 -0.22777944059E+02  0.51213062118E+02  0.56051926563E+02  0.10570000000E+00 0.  1.
         13    1    3    3    0    0 -0.44139770232E+00  0.22777944059E+02 -0.30406676046E+02  0.37994824492E+02  0.10570000000E+00 0. -1.
<mgrwt>
<rscale>  0 0.91716333E+02</rscale>
<asrwt>0</asrwt>
<pdfrwt beam="2">  1        2 0.56338742E-02 0.91716333E+02</pdfrwt>
<pdfrwt beam="1">  1       -2 0.88348567E-02 0.91716333E+02</pdfrwt>
<totfact> 0.91637333E+04</totfact>
</mgrwt>
</event>
<event>
 5   1  0.1343823E+00  0.9103117E+02  0.7818608E-02  0.1300374E+00
         -2   -1    0    0    0  501 -0.00000000000E+00  0.00000000000E+00  0.12957370267E+02  0.12957370527E+02  0.26000000000E-02 0.  1.
          2   -1    0    0  501    0  0.00000000000E+00 -0.00000000000E+00 -0.15988338881E+03  0.15988338883E+03  0.26000000000E-02 0. -1.
         23    2    1    2    0    0  0.00000000000E+00  0.00000000000E+00 -0.14692601855E+03  0.17284075936E+03  0.91031165931E+02 0.  0.
        -13    1    3    3    0    0 -0.39371066042E+02 -0.21503674452E+02 -0.58858045842E+02  0.74005199743E+02  0.10570000000E+00 0.  1.
         13    1    3    3    0    0  0.39371066042E+02  0.21503674452E+02 -0.88067972704E+02  0.98835559617E+02  0.10570000000E+00 0. -1.
<mgrwt>
<rscale>  0 0.91031166E+02</rscale>
<asrwt>0</asrwt>
<pdfrwt beam="2">  1        2 0.24597443E-01 0.91031166E+02</pdfrwt>
<pdfrwt beam="1">  1       -2 0.19934417E-02 0.91031166E+02</pdfrwt>
<totfact> 0.14352116E+05</totfact>
</mgrwt>
</event>
<event>
 5   1  0.1343823E+00  0.8869881E+02  0.7818608E-02  0.1306034E+00
         -2   -1    0    0    0  501 -0.00000000000E+00  0.00000000000E+00  0.78370763265E+01  0.78370767578E+01  0.26000000000E-02 0.  1.
          2   -1    0    0  501    0  0.00000000000E+00 -0.00000000000E+00 -0.25096984437E+03  0.25096984438E+03  0.26000000000E-02 0. -1.
         23    2    1    2    0    0  0.00000000000E+00  0.00000000000E+00 -0.24313276804E+03  0.25880692114E+03  0.88698813600E+02 0.  0.
        -13    1    3    3    0    0  0.10136467679E+02  0.42950724303E+02 -0.10873262603E+03  0.11734695493E+03  0.10570000000E+00 0. -1.
         13    1    3    3    0    0 -0.10136467679E+02 -0.42950724303E+02 -0.13440014201E+03  0.14145996621E+03  0.10570000000E+00 0.  1.
<mgrwt>
<rscale>  0 0.88698814E+02</rscale>
<asrwt>0</asrwt>
<pdfrwt beam="2">  1        2 0.38610739E-01 0.88698814E+02</pdfrwt>
<pdfrwt beam="1">  1       -2 0.12057043E-02 0.88698814E+02</pdfrwt>
<totfact> 0.18094469E+05</totfact>
</mgrwt>
</event>
<event>
 5   1  0.1343823E+00  0.8996835E+02  0.7818608E-02  0.1302928E+00
          2   -1    0    0  501    0  0.00000000000E+00  0.00000000000E+00  0.49426288796E+02  0.49426288864E+02  0.26000000000E-02 0. -1.
         -2   -1    0    0    0  501 -0.00000000000E+00 -0.00000000000E+00 -0.40941292236E+02  0.40941292318E+02  0.26000000000E-02 0.  1.
         23    2    1    2    0    0  0.00000000000E+00  0.00000000000E+00  0.84849965601E+01  0.90367581183E+02  0.89968353115E+02 0.  0.
        -13    1    3    3    0    0 -0.36197917855E+02  0.22077296794E+02 -0.10853119517E+02  0.43766398830E+02  0.10570000000E+00 0.  1.
         13    1    3    3    0    0  0.36197917855E+02 -0.22077296794E+02  0.19338116077E+02  0.46601182353E+02  0.10570000000E+00 0. -1.
<mgrwt>
<rscale>  0 0.89968353E+02</rscale>
<asrwt>0</asrwt>
<pdfrwt beam="1">  1        2 0.76040444E-02 0.89968353E+02</pdfrwt>
<pdfrwt beam="2">  1       -2 0.62986604E-02 0.89968353E+02</pdfrwt>
<totfact> 0.10467662E+05</totfact>
</mgrwt>
</event>
<event>
 5   1  0.1343823E+00  0.9430174E+02  0.7818608E-02  0.1292757E+00
          2   -1    0    0  501    0  0.00000000000E+00  0.00000000000E+00  0.16302965542E+03  0.16302965544E+03  0.26000000000E-02 0. -1.
         -2   -1    0    0    0  501 -0.00000000000E+00 -0.00000000000E+00 -0.13636811452E+02  0.13636811699E+02  0.26000000000E-02 0.  1.
         23    2    1    2    0    0  0.00000000000E+00  0.00000000000E+00  0.14939284397E+03  0.17666646714E+03  0.94301743265E+02 0.  0.
        -13    1    3    3    0    0  0.31643820616E+02  0.30536073780E+02  0.10656710887E+03  0.11528375016E+03  0.10570000000E+00 0. -1.
         13    1    3    3    0    0 -0.31643820616E+02 -0.30536073780E+02  0.42825735102E+02  0.61382716985E+02  0.10570000000E+00 0.  1.
<mgrwt>
<rscale>  0 0.94301743E+02</rscale>
<asrwt>0</asrwt>
<pdfrwt beam="1">  1        2 0.25081485E-01 0.94301743E+02</pdfrwt>
<pdfrwt beam="2">  1       -2 0.20979710E-02 0.94301743E+02</pdfrwt>
<totfact> 0.13128703E+05</totfact>
</mgrwt>
</event>
<event>
 5   1  0.1343823E+00  0.9085862E+02  0.7818608E-02  0.1300786E+00
         -2   -1    0    0    0  501 -0.00000000000E+00  0.00000000000E+00  0.95106015341E+01  0.95106018895E+01  0.26000000000E-02 0. -1.
          2   -1    0    0  501    0  0.00000000000E+00 -0.00000000000E+00 -0.21700225723E+03  0.21700225725E+03  0.26000000000E-02 0.  1.
         23    2    1    2    0    0  0.00000000000E+00  0.00000000000E+00 -0.20749165570E+03  0.22651285914E+03  0.90858616379E+02 0.  0.
        -13    1    3    3    0    0  0.21088134229E+02 -0.35108115983E+02 -0.15275909572E+03  0.15815385456E+03  0.10570000000E+00 0.  1.
         13    1    3    3    0    0 -0.21088134229E+02  0.35108115983E+02 -0.54732559976E+02  0.68359004580E+02  0.10570000000E+00 0. -1.
<mgrwt>
<rscale>  0 0.90858616E+02</rscale>
<asrwt>0</asrwt>
<pdfrwt beam="2">  1        2 0.33384959E-01 0.90858616E+02</pdfrwt>
<pdfrwt beam="1">  1       -2 0.14631697E-02 0.90858616E+02</pdfrwt>
<totfact> 0.16084187E+05</totfact>
</mgrwt>
</event>
<event>
 5   1  0.1343823E+00  0.9529830E+02  0.7818608E-02  0.1290506E+00
          2   -1    0    0  501    0  0.00000000000E+00  0.00000000000E+00  0.19946598485E+03  0.19946598487E+03  0.26000000000E-02 0. -1.
         -2   -1    0    0    0  501 -0.00000000000E+00 -0.00000000000E+00 -0.11382599130E+02  0.11382599427E+02  0.26000000000E-02 0.  1.
         23    2    1    2    0    0  0.00000000000E+00  0.00000000000E+00  0.18808338572E+03  0.21084858430E+03  0.95298297546E+02 0.  0.
        -13    1    3    3    0    0  0.33077009447E+02 -0.32132135623E+02  0.67503770779E+02  0.81751654023E+02  0.10570000000E+00 0.  1.
         13    1    3    3    0    0 -0.33077009447E+02  0.32132135623E+02  0.12057961494E+03  0.12909693027E+03  0.10570000000E+00 0. -1.
<mgrwt>
<rscale>  0 0.95298298E+02</rscale>
<asrwt>0</asrwt>
<pdfrwt beam="1">  1        2 0.30687074E-01 0.95298298E+02</pdfrwt>
<pdfrwt beam="2">  1       -2 0.17511692E-02 0.95298298E+02</pdfrwt>
<totfact> 0.13713292E+05</totfact>
</mgrwt>
</event>
<event>
 5   1  0.1343823E+00  0.9132268E+02  0.7818608E-02  0.1299680E+00
         -2   -1    0    0    0  501 -0.00000000000E+00  0.00000000000E+00  0.28689461499E+02  0.28689461616E+02  0.26000000000E-02 0. -1.
          2   -1    0    0  501    0  0.00000000000E+00 -0.00000000000E+00 -0.72673298912E+02  0.72673298959E+02  0.26000000000E-02 0.  1.
         23    2    1    2    0    0  0.00000000000E+00  0.00000000000E+00 -0.43983837414E+02  0.10136276058E+03  0.91322676690E+02 0.  0.
        -13    1    3    3    0    0  0.36716430918E+02  0.24851011042E+02 -0.98697802642E+01  0.45421281181E+02  0.10570000000E+00 0.  1.
         13    1    3    3    0    0 -0.36716430918E+02 -0.24851011042E+02 -0.34114057149E+02  0.55941479394E+02  0.10570000000E+00 0. -1.
<mgrwt>
<rscale>  0 0.91322677E+02</rscale>
<asrwt>0</asrwt>
<pdfrwt beam="2">  1        2 0.11180507E-01 0.91322677E+02</pdfrwt>
<pdfrwt beam="1">  1       -2 0.44137633E-02 0.91322677E+02</pdfrwt>
<totfact> 0.11128083E+05</totfact>
</mgrwt>
</event>
<event>
 5   1  0.1343823E+00  0.9168166E+02  0.7818608E-02  0.1298830E+00
          2   -1    0    0  501    0  0.00000000000E+00  0.00000000000E+00  0.34498412185E+02  0.34498412283E+02  0.26000000000E-02 0. -1.
         -2   -1    0    0    0  501 -0.00000000000E+00 -0.00000000000E+00 -0.60912412954E+02  0.60912413010E+02  0.26000000000E-02 0.  1.
         23    2    1    2    0    0  0.00000000000E+00  0.00000000000E+00 -0.26414000769E+02  0.95410825293E+02  0.91681656543E+02 0.  0.
        -13    1    3    3    0    0  0.28470653227E+02 -0.35927226851E+02 -0.13376856215E+02  0.47752436367E+02  0.10570000000E+00 0. -1.
         13    1    3    3    0    0 -0.28470653227E+02  0.35927226851E+02 -0.13037144554E+02  0.47658388925E+02  0.10570000000E+00 0.  1.
<mgrwt>
<rscale>  0 0.91681657E+02</rscale>
<asrwt>0</asrwt>
<pdfrwt beam="1">  1        2 0.53074480E-02 0.91681657E+02</pdfrwt>
<pdfrwt beam="2">  1       -2 0.93711405E-02 0.91681657E+02</pdfrwt>
<totfact> 0.90314461E+04</totfact>
</mgrwt>
</event>
<event>
 5   1  0.1343823E+00  0.9154749E+02  0.7818608E-02  0.1299147E+00
          2   -1    0    0  501    0  0.00000000000E+00  0.00000000000E+00  0.97524007585E+02  0.97524007620E+02  0.26000000000E-02 0.  1.
         -2   -1    0    0    0  501 -0.00000000000E+00 -0.00000000000E+00 -0.21484305728E+02  0.21484305885E+02  0.26000000000E-02 0. -1.
         23    2    1    2    0    0  0.00000000000E+00  0.00000000000E+00  0.76039701857E+02  0.11900831351E+03  0.91547487267E+02 0.  0.
        -13    1    3    3    0    0 -0.33586333593E+02 -0.31080398962E+02  0.36600907365E+02  0.58597530633E+02  0.10570000000E+00 0.  1.
         13    1    3    3    0    0  0.33586333593E+02  0.31080398962E+02  0.39438794493E+02  0.60410782873E+02  0.10570000000E+00 0. -1.
<mgrwt>
<rscale>  0 0.91547487E+02</rscale>
<asrwt>0</asrwt>
<pdfrwt beam="1">  1        2 0.15003694E-01 0.91547487E+02</pdfrwt>
<pdfrwt beam="2">  1       -2 0.33052778E-02 0.91547487E+02</pdfrwt>
<totfact> 0.12039125E+05</totfact>
</mgrwt>
</event>
<event>
 5   1  0.1343823E+00  0.9625279E+02  0.7818608E-02  0.1288379E+00
          2   -1    0    0  501    0  0.00000000000E+00  0.00000000000E+00  0.58112325435E+01  0.58112331252E+01  0.26000000000E-02 0. -1.
         -2   -1    0    0    0  501 -0.00000000000E+00 -0.00000000000E+00 -0.39856429829E+03  0.39856429830E+03  0.26000000000E-02 0.  1.
         23    2    1    2    0    0  0.00000000000E+00  0.00000000000E+00 -0.39275306575E+03  0.40437553143E+03  0.96252790926E+02 0.  0.
        -13    1    3    3    0    0 -0.38679258974E+02  0.26859531958E+02 -0.23809730665E+03  0.24270941090E+03  0.10570000000E+00 0.  1.
         13    1    3    3    0    0  0.38679258974E+02 -0.26859531958E+02 -0.15465575910E+03  0.16166612053E+03  0.10570000000E+00 0. -1.
<mgrwt>
<rscale>  0 0.96252791E+02</rscale>
<asrwt>0</asrwt>
<pdfrwt beam="1">  1        2 0.89403613E-03 0.96252791E+02</pdfrwt>
<pdfrwt beam="2">  1       -2 0.61317563E-01 0.96252791E+02</pdfrwt>
<totfact> 0.37193299E+04</totfact>
</mgrwt>
</event>
<event>
 5   1  0.1343823E+00  0.9239744E+02  0.7818608E-02  0.1297148E+00
         -2   -1    0    0    0  501 -0.00000000000E+00  0.00000000000E+00  0.82569055447E+02  0.82569055488E+02  0.26000000000E-02 0.  1.
          2   -1    0    0  501    0  0.00000000000E+00 -0.00000000000E+00 -0.25848931306E+02  0.25848931437E+02  0.26000000000E-02 0. -1.
         23    2    1    2    0    0  0.00000000000E+00  0.00000000000E+00  0.56720124141E+02  0.10841798692E+03  0.92397442639E+02 0.  0.
        -13    1    3    3    0    0 -0.27664308971E+02  0.48816208379E+00  0.71771561300E+02  0.76920221510E+02  0.10570000000E+00 0.  1.
         13    1    3    3    0    0  0.27664308971E+02 -0.48816208379E+00 -0.15051437160E+02  0.31497765415E+02  0.10570000000E+00 0. -1.
<mgrwt>
<rscale>  0 0.92397443E+02</rscale>
<asrwt>0</asrwt>
<pdfrwt beam="2">  1        2 0.39767586E-02 0.92397443E+02</pdfrwt>
<pdfrwt beam="1">  1       -2 0.12702932E-01 0.92397443E+02</pdfrwt>
<totfact> 0.81617659E+04</totfact>
</mgrwt>
</event>
<event>
 5   1  0.1343823E+00  0.9285601E+02  0.7818608E-02  0.1296079E+00
          2   -1    0    0  501    0  0.00000000000E+00  0.00000000000E+00  0.11075508514E+03  0.11075508517E+03  0.26000000000E-02 0. -1.
         -2   -1    0    0    0  501 -0.00000000000E+00 -0.00000000000E+00 -0.19462398892E+02  0.19462399065E+02  0.26000000000E-02 0.  1.
         23    2    1    2    0    0  0.00000000000E+00  0.00000000000E+00  0.91292686251E+02  0.13021748424E+03  0.92856010245E+02 0.  0.
        -13    1    3    3    0    0  0.25755152227E+02  0.31342237155E+02  0.77312496452E+02  0.87309203273E+02  0.10570000000E+00 0. -1.
         13    1    3    3    0    0 -0.25755152227E+02 -0.31342237155E+02  0.13980189800E+02  0.42908280966E+02  0.10570000000E+00 0.  1.
<mgrwt>
<rscale>  0 0.92856010E+02</rscale>
<asrwt>0</asrwt>
<pdfrwt beam="1">  1        2 0.17039244E-01 0.92856010E+02</pdfrwt>
<pdfrwt beam="2">  1       -2 0.29942151E-02 0.92856010E+02</pdfrwt>
<totfact> 0.12041576E+05</totfact>
</mgrwt>
</event>
<event>
 5   1  0.1343823E+00  0.9553145E+02  0.7818608E-02  0.1289984E+00
         -2   -1    0    0    0  501 -0.00000000000E+00  0.00000000000E+00  0.58800963458E+01  0.58800969206E+01  0.26000000000E-02 0. -1.
          2   -1    0    0  501    0  0.00000000000E+00 -0.00000000000E+00 -0.38801480610E+03  0.38801480611E+03  0.26000000000E-02 0.  1.
         23    2    1    2    0    0  0.00000000000E+00  0.00000000000E+00 -0.38213470976E+03  0.39389490303E+03  0.95531451542E+02 0.  0.
        -13    1    3    3    0    0 -0.32840779380E+02  0.32472758813E+02 -0.24132242216E+03  0.24570209496E+03  0.10570000000E+00 0. -1.
         13    1    3    3    0    0  0.32840779380E+02 -0.32472758813E+02 -0.14081228759E+03  0.14819280807E+03  0.10570000000E+00 0.  1.
<mgrwt>
<rscale>  0 0.95531452E+02</rscale>
<asrwt>0</asrwt>
<pdfrwt beam="2">  1        2 0.59694566E-01 0.95531452E+02</pdfrwt>
<pdfrwt beam="1">  1       -2 0.90463055E-03 0.95531452E+02</pdfrwt>
<totfact> 0.17437941E+05</totfact>
</mgrwt>
</event>
<event>
 5   1  0.1343823E+00  0.9143556E+02  0.7818608E-02  0.1299412E+00
          2   -1    0    0  501    0  0.00000000000E+00  0.00000000000E+00  0.17845350683E+02  0.17845350872E+02  0.26000000000E-02 0. -1.
         -2   -1    0    0    0  501 -0.00000000000E+00 -0.00000000000E+00 -0.11712380342E+03  0.11712380345E+03  0.26000000000E-02 0.  1.
         23    2    1    2    0    0  0.00000000000E+00  0.00000000000E+00 -0.99278452741E+02  0.13496915432E+03  0.91435558950E+02 0.  0.
        -13    1    3    3    0    0  0.30536202581E+02  0.81939623190E+01 -0.98384547379E+02  0.10333988108E+03  0.10570000000E+00 0.  1.
         13    1    3    3    0    0 -0.30536202581E+02 -0.81939623190E+01 -0.89390536170E+00  0.31629273242E+02  0.10570000000E+00 0. -1.
<mgrwt>
<rscale>  0 0.91435559E+02</rscale>
<asrwt>0</asrwt>
<pdfrwt beam="1">  1        2 0.27454387E-02 0.91435559E+02</pdfrwt>
<pdfrwt beam="2">  1       -2 0.18019046E-01 0.91435559E+02</pdfrwt>
<totfact> 0.75468687E+04</totfact>
</mgrwt>
</event>
<event>
 5   1  0.1343823E+00  0.9135296E+02  0.7818608E-02  0.1299608E+00
         -2   -1    0    0    0  501 -0.00000000000E+00  0.00000000000E+00  0.73021359092E+02  0.73021359138E+02  0.26000000000E-02 0.  1.
          2   -1    0    0  501    0  0.00000000000E+00 -0.00000000000E+00 -0.28571648957E+02  0.28571649076E+02  0.26000000000E-02 0. -1.
         23    2    1    2    0    0  0.00000000000E+00  0.00000000000E+00  0.44449710135E+02  0.10159300821E+03  0.91352956093E+02 0.  0.
        -13    1    3    3    0    0 -0.44666826616E+02 -0.73765440218E+01  0.28970291886E+02  0.53747816570E+02  0.10570000000E+00 0.  1.
         13    1    3    3    0    0  0.44666826616E+02  0.73765440218E+01  0.15479418249E+02  0.47845191644E+02  0.10570000000E+00 0. -1.
<mgrwt>
<rscale>  0 0.91352956E+02</rscale>
<asrwt>0</asrwt>
<pdfrwt beam="2">  1        2 0.43956383E-02 0.91352956E+02</pdfrwt>
<pdfrwt beam="1">  1       -2 0.11234055E-01 0.91352956E+02</pdfrwt>
<totfact> 0.86814199E+04</totfact>
</mgrwt>
</event>
<event>
 5   1  0.1343823E+00  0.9474530E+02  0.7818608E-02  0.1291751E+00
         -2   -1    0    0    0  501 -0.00000000000E+00  0.00000000000E+00  0.39469981853E+02  0.39469981939E+02  0.26000000000E-02 0.  1.
          2   -1    0    0  501    0  0.00000000000E+00 -0.00000000000E+00 -0.56857589509E+02  0.56857589568E+02  0.26000000000E-02 0. -1.
         23    2    1    2    0    0  0.00000000000E+00  0.00000000000E+00 -0.17387607655E+02  0.96327571507E+02  0.94745301374E+02 0.  0.
        -13    1    3    3    0    0  0.23807899834E+02 -0.23057895225E+01 -0.50267074849E+02  0.55667968763E+02  0.10570000000E+00 0. -1.
         13    1    3    3    0    0 -0.23807899834E+02  0.23057895225E+01  0.32879467194E+02  0.40659602744E+02  0.10570000000E+00 0.  1.
<mgrwt>
<rscale>  0 0.94745301E+02</rscale>
<asrwt>0</asrwt>
<pdfrwt beam="2">  1        2 0.87473215E-02 0.94745301E+02</pdfrwt>
<pdfrwt beam="1">  1       -2 0.60723049E-02 0.94745301E+02</pdfrwt>
<totfact> 0.93749388E+04</totfact>
</mgrwt>
</event>
<event>
 5   1  0.1343823E+00  0.9173135E+02  0.7818608E-02  0.1298712E+00
         -2   -1    0    0    0  501 -0.00000000000E+00  0.00000000000E+00  0.53568288010E+02  0.53568288073E+02  0.26000000000E-02 0.  1.
          2   -1    0    0  501    0  0.00000000000E+00 -0.00000000000E+00 -0.39270626041E+02  0.39270626128E+02  0.26000000000E-02 0. -1.
         23    2    1    2    0    0  0.00000000000E+00  0.00000000000E+00  0.14297661968E+02  0.92838914200E+02  0.91731351522E+02 0.  0.
        -13    1    3    3    0    0 -0.35048911746E+02 -0.23586799333E+02 -0.10924150274E+02  0.43636126651E+02  0.10570000000E+00 0. -1.
         13    1    3    3    0    0  0.35048911746E+02  0.23586799333E+02  0.25221812242E+02  0.49202787550E+02  0.10570000000E+00 0.  1.
<mgrwt>
<rscale>  0 0.91731352E+02</rscale>
<asrwt>0</asrwt>
<pdfrwt beam="2">  1        2 0.60416348E-02 0.91731352E+02</pdfrwt>
<pdfrwt beam="1">  1       -2 0.82412751E-02 0.91731352E+02</pdfrwt>
<totfact> 0.93277281E+04</totfact>
</mgrwt>
</event>
<event>
 5   1  0.1343823E+00  0.9193176E+02  0.7818608E-02  0.1298240E+00
         -2   -1    0    0    0  501 -0.00000000000E+00  0.00000000000E+00  0.11670215087E+03  0.11670215089E+03  0.26000000000E-02 0.  1.
          2   -1    0    0  501    0  0.00000000000E+00 -0.00000000000E+00 -0.18104741208E+02  0.18104741395E+02  0.26000000000E-02 0. -1.
         23    2    1    2    0    0  0.00000000000E+00  0.00000000000E+00  0.98597409657E+02  0.13480689229E+03  0.91931762833E+02 0.  0.
        -13    1    3    3    0    0 -0.36643038896E+02 -0.21802959176E+01  0.87304329132E+01  0.37731917804E+02  0.10570000000E+00 0. -1.
         13    1    3    3    0    0  0.36643038896E+02  0.21802959176E+01  0.89866976743E+02  0.97074974485E+02  0.10570000000E+00 0.  1.
<mgrwt>
<rscale>  0 0.91931763E+02</rscale>
<asrwt>0</asrwt>
<pdfrwt beam="2">  1        2 0.27853447E-02 0.91931763E+02</pdfrwt>
<pdfrwt beam="1">  1       -2 0.17954178E-01 0.91931763E+02</pdfrwt>
<totfact> 0.74536759E+04</totfact>
</mgrwt>
</event>
<event>
 5   1  0.1343823E+00  0.1070672E+03  0.7818608E-02  0.1266099E+00
         -2   -1    0    0    0  501 -0.00000000000E+00  0.00000000000E+00  0.22883170277E+03  0.22883170278E+03  0.26000000000E-02 0.  1.
          2   -1    0    0  501    0  0.00000000000E+00 -0.00000000000E+00 -0.12523818630E+02  0.12523818900E+02  0.26000000000E-02 0. -1.
         23    2    1    2    0    0  0.00000000000E+00  0.00000000000E+00  0.21630788414E+03  0.24135552168E+03  0.10706720836E+03 0.  0.
        -13    1    3    3    0    0 -0.66321833320E+00 -0.51495640186E+02  0.14109944068E+03  0.15020420816E+03  0.10570000000E+00 0.  1.
         13    1    3    3    0    0  0.66321833320E+00  0.51495640186E+02  0.75208443458E+02  0.91151313521E+02  0.10570000000E+00 0. -1.
<mgrwt>
<rscale>  0 0.10706721E+03</rscale>
<asrwt>0</asrwt>
<pdfrwt beam="2">  1        2 0.19267416E-02 0.10706721E+03</pdfrwt>
<pdfrwt beam="1">  1       -2 0.35204874E-01 0.10706721E+03</pdfrwt>
<totfact> 0.38813632E+04</totfact>
</mgrwt>
</event>
<event>
 5   1  0.1343823E+00  0.9330687E+02  0.7818608E-02  0.1295036E+00
          2   -1    0    0  501    0  0.00000000000E+00  0.00000000000E+00  0.49131534838E+01  0.49131541717E+01  0.26000000000E-02 0. -1.
         -2   -1    0    0    0  501 -0.00000000000E+00 -0.00000000000E+00 -0.44300317826E+03  0.44300317827E+03  0.26000000000E-02 0.  1.
         23    2    1    2    0    0  0.00000000000E+00  0.00000000000E+00 -0.43809002478E+03  0.44791633244E+03  0.93306865007E+02 0.  0.
        -13    1    3    3    0    0 -0.61715579268E+01 -0.45061429721E+02 -0.16917767369E+03  0.17518480820E+03  0.10570000000E+00 0. -1.
         13    1    3    3    0    0  0.61715579268E+01  0.45061429721E+02 -0.26891235109E+03  0.27273152424E+03  0.10570000000E+00 0.  1.
<mgrwt>
<rscale>  0 0.93306865E+02</rscale>
<asrwt>0</asrwt>
<pdfrwt beam="1">  1        2 0.75587017E-03 0.93306865E+02</pdfrwt>
<pdfrwt beam="2">  1       -2 0.68154304E-01 0.93306865E+02</pdfrwt>
<totfact> 0.37443382E+04</totfact>
</mgrwt>
</event>
<event>
 5   1  0.1343823E+00  0.8881388E+02  0.7818608E-02  0.1305750E+00
          2   -1    0    0  501    0  0.00000000000E+00  0.00000000000E+00  0.38674122779E+02  0.38674122866E+02  0.26000000000E-02 0. -1.
         -2   -1    0    0    0  501 -0.00000000000E+00 -0.00000000000E+00 -0.50989550196E+02  0.50989550262E+02  0.26000000000E-02 0.  1.
         23    2    1    2    0    0  0.00000000000E+00  0.00000000000E+00 -0.12315427417E+02  0.89663673128E+02  0.88813875754E+02 0.  0.
        -13    1    3    3    0    0 -0.17480113885E+02 -0.30892877399E+02 -0.33097125800E+02  0.48532001444E+02  0.10570000000E+00 0.  1.
         13    1    3    3    0    0  0.17480113885E+02  0.30892877399E+02  0.20781698383E+02  0.41131671685E+02  0.10570000000E+00 0. -1.
<mgrwt>
<rscale>  0 0.88813876E+02</rscale>
<asrwt>0</asrwt>
<pdfrwt beam="1">  1        2 0.59498650E-02 0.88813876E+02</pdfrwt>
<pdfrwt beam="2">  1       -2 0.78445462E-02 0.88813876E+02</pdfrwt>
<totfact> 0.10202342E+05</totfact>
</mgrwt>
</event>
<event>
 5   1  0.1343823E+00  0.8016247E+02  0.7818608E-02  0.1328591E+00
          2   -1    0    0  501    0  0.00000000000E+00  0.00000000000E+00  0.22187182504E+03  0.22187182506E+03  0.26000000000E-02 0. -1.
         -2   -1    0    0    0  501 -0.00000000000E+00 -0.00000000000E+00 -0.72406912577E+01  0.72406917245E+01  0.26000000000E-02 0.  1.
         23    2    1    2    0    0  0.00000000000E+00  0.00000000000E+00  0.21463113379E+03  0.22911251678E+03  0.80162470998E+02 0.  0.
        -13    1    3    3    0    0  0.37873686775E+02 -0.26799389046E+01  0.70614149336E+02  0.80174606213E+02  0.10570000000E+00 0. -1.
         13    1    3    3    0    0 -0.37873686775E+02  0.26799389046E+01  0.14401698445E+03  0.14893791057E+03  0.10570000000E+00 0.  1.
<mgrwt>
<rscale>  0 0.80162471E+02</rscale>
<asrwt>0</asrwt>
<pdfrwt beam="1">  1        2 0.34134130E-01 0.80162471E+02</pdfrwt>
<pdfrwt beam="2">  1       -2 0.11139525E-02 0.80162471E+02</pdfrwt>
<totfact> 0.22636676E+05</totfact>
</mgrwt>
</event>
<event>
 5   1  0.1343823E+00  0.8934509E+02  0.7818608E-02  0.1304445E+00
         -2   -1    0    0    0  501 -0.00000000000E+00  0.00000000000E+00  0.11483074001E+02  0.11483074296E+02  0.26000000000E-02 0.  1.
          2   -1    0    0  501    0  0.00000000000E+00 -0.00000000000E+00 -0.17378938739E+03  0.17378938741E+03  0.26000000000E-02 0. -1.
         23    2    1    2    0    0  0.00000000000E+00  0.00000000000E+00 -0.16230631339E+03  0.18527246171E+03  0.89345093321E+02 0.  0.
        -13    1    3    3    0    0  0.23549378255E+02 -0.37164134059E+02 -0.97199573666E+02  0.10669355355E+03  0.10570000000E+00 0.  1.
         13    1    3    3    0    0 -0.23549378255E+02  0.37164134059E+02 -0.65106739727E+02  0.78578908156E+02  0.10570000000E+00 0. -1.
<mgrwt>
<rscale>  0 0.89345093E+02</rscale>
<asrwt>0</asrwt>
<pdfrwt beam="2">  1        2 0.26736827E-01 0.89345093E+02</pdfrwt>
<pdfrwt beam="1">  1       -2 0.17666269E-02 0.89345093E+02</pdfrwt>
<totfact> 0.15538736E+05</totfact>
</mgrwt>
</event>
<event>
 5   1  0.1343823E+00  0.8487642E+02  0.7818608E-02  0.1315756E+00
         -2   -1    0    0    0  501 -0.00000000000E+00  0.00000000000E+00  0.91942856493E+01  0.91942860170E+01  0.26000000000E-02 0.  1.
          2   -1    0    0  501    0  0.00000000000E+00 -0.00000000000E+00 -0.19588273435E+03  0.19588273437E+03  0.26000000000E-02 0. -1.
         23    2    1    2    0    0  0.00000000000E+00  0.00000000000E+00 -0.18668844870E+03  0.20507702039E+03  0.84876424356E+02 0.  0.
        -13    1    3    3    0    0  0.41342689202E+02 -0.62404048857E+01 -0.75782362986E+02  0.86551362299E+02  0.10570000000E+00 0. -1.
         13    1    3    3    0    0 -0.41342689202E+02  0.62404048857E+01 -0.11090608572E+03  0.11852565809E+03  0.10570000000E+00 0.  1.
<mgrwt>
<rscale>  0 0.84876424E+02</rscale>
<asrwt>0</asrwt>
<pdfrwt beam="2">  1        2 0.30135802E-01 0.84876424E+02</pdfrwt>
<pdfrwt beam="1">  1       -2 0.14145057E-02 0.84876424E+02</pdfrwt>
<totfact> 0.18600850E+05</totfact>
</mgrwt>
</event>
<event>
 5   1  0.1343823E+00  0.9140214E+02  0.7818608E-02  0.1299491E+00
         -2   -1    0    0    0  501 -0.00000000000E+00  0.00000000000E+00  0.18537115142E+02  0.18537115324E+02  0.26000000000E-02 0.  1.
          2   -1    0    0  501    0  0.00000000000E+00 -0.00000000000E+00 -0.11267058687E+03  0.11267058690E+03  0.26000000000E-02 0. -1.
         23    2    1    2    0    0  0.00000000000E+00  0.00000000000E+00 -0.94133471732E+02  0.13120770223E+03  0.91402136865E+02 0.  0.
        -13    1    3    3    0    0 -0.35115079155E+02  0.85912127726E+01 -0.69317889338E+01  0.36809490506E+02  0.10570000000E+00 0.  1.
         13    1    3    3    0    0  0.35115079155E+02 -0.85912127726E+01 -0.87201682798E+02  0.94398211722E+02  0.10570000000E+00 0. -1.
<mgrwt>
<rscale>  0 0.91402137E+02</rscale>
<asrwt>0</asrwt>
<pdfrwt beam="2">  1        2 0.17333936E-01 0.91402137E+02</pdfrwt>
<pdfrwt beam="1">  1       -2 0.28518640E-02 0.91402137E+02</pdfrwt>
<totfact> 0.12643313E+05</totfact>
</mgrwt>
</event>
<event>
 5   1  0.1343823E+00  0.8947568E+02  0.7818608E-02  0.1304126E+00
         -2   -1    0    0    0  501 -0.00000000000E+00  0.00000000000E+00  0.81976791583E+01  0.81976795707E+01  0.26000000000E-02 0. -1.
          2   -1    0    0  501    0  0.00000000000E+00 -0.00000000000E+00 -0.24415132669E+03  0.24415132670E+03  0.26000000000E-02 0.  1.
         23    2    1    2    0    0  0.00000000000E+00  0.00000000000E+00 -0.23595364753E+03  0.25234900627E+03  0.89475679288E+02 0.  0.
        -13    1    3    3    0    0 -0.11472825461E+02 -0.41228279000E+02 -0.15475632766E+03  0.16056440713E+03  0.10570000000E+00 0.  1.
         13    1    3    3    0    0  0.11472825461E+02  0.41228279000E+02 -0.81197319869E+02  0.91784599143E+02  0.10570000000E+00 0. -1.
<mgrwt>
<rscale>  0 0.89475679E+02</rscale>
<asrwt>0</asrwt>
<pdfrwt beam="2">  1        2 0.37561737E-01 0.89475679E+02</pdfrwt>
<pdfrwt beam="1">  1       -2 0.12611816E-02 0.89475679E+02</pdfrwt>
<totfact> 0.17499524E+05</totfact>
</mgrwt>
</event>
<event>
 5   1  0.1343823E+00  0.9062657E+02  0.7818608E-02  0.1301341E+00
          2   -1    0    0  501    0  0.00000000000E+00  0.00000000000E+00  0.10703888988E+03  0.10703888991E+03  0.26000000000E-02 0. -1.
         -2   -1    0    0    0  501 -0.00000000000E+00 -0.00000000000E+00 -0.19182687764E+02  0.19182687940E+02  0.26000000000E-02 0.  1.
         23    2    1    2    0    0  0.00000000000E+00  0.00000000000E+00  0.87856202116E+02  0.12622157785E+03  0.90626566000E+02 0.  0.
        -13    1    3    3    0    0 -0.39741104627E+02  0.16592699822E+02  0.63556186329E+02  0.76772866805E+02  0.10570000000E+00 0. -1.
         13    1    3    3    0    0  0.39741104627E+02 -0.16592699822E+02  0.24300015787E+02  0.49448711046E+02  0.10570000000E+00 0.  1.
<mgrwt>
<rscale>  0 0.90626566E+02</rscale>
<asrwt>0</asrwt>
<pdfrwt beam="1">  1        2 0.16467522E-01 0.90626566E+02</pdfrwt>
<pdfrwt beam="2">  1       -2 0.29511827E-02 0.90626566E+02</pdfrwt>
<totfact> 0.12736624E+05</totfact>
</mgrwt>
</event>
<event>
 5   1  0.1343823E+00  0.8589113E+02  0.7818608E-02  0.1313118E+00
         -2   -1    0    0    0  501 -0.00000000000E+00  0.00000000000E+00  0.20720264661E+02  0.20720264825E+02  0.26000000000E-02 0.  1.
          2   -1    0    0  501    0  0.00000000000E+00 -0.00000000000E+00 -0.89010514198E+02  0.89010514236E+02  0.26000000000E-02 0. -1.
         23    2    1    2    0    0  0.00000000000E+00  0.00000000000E+00 -0.68290249537E+02  0.10973077906E+03  0.85891126966E+02 0.  0.
        -13    1    3    3    0    0  0.12841313109E+02  0.19012752064E+02 -0.80524586627E+02  0.83729351409E+02  0.10570000000E+00 0. -1.
         13    1    3    3    0    0 -0.12841313109E+02 -0.19012752064E+02  0.12234337090E+02  0.26001427652E+02  0.10570000000E+00 0.  1.
<mgrwt>
<rscale>  0 0.85891127E+02</rscale>
<asrwt>0</asrwt>
<pdfrwt beam="2">  1        2 0.13693925E-01 0.85891127E+02</pdfrwt>
<pdfrwt beam="1">  1       -2 0.31877331E-02 0.85891127E+02</pdfrwt>
<totfact> 0.13962951E+05</totfact>
</mgrwt>
</event>
<event>
 5   1  0.1343823E+00  0.9003743E+02  0.7818608E-02  0.1302761E+00
         -2   -1    0    0    0  501 -0.00000000000E+00  0.00000000000E+00  0.10538208214E+02  0.10538208534E+02  0.26000000000E-02 0. -1.
          2   -1    0    0  501    0  0.00000000000E+00 -0.00000000000E+00 -0.19231777393E+03  0.19231777395E+03  0.26000000000E-02 0.  1.
         23    2    1    2    0    0  0.00000000000E+00  0.00000000000E+00 -0.18177956572E+03  0.20285598248E+03  0.90037431753E+02 0.  0.
        -13    1    3    3    0    0  0.42635906367E+02 -0.12102350680E+01 -0.12333547024E+03  0.13050262285E+03  0.10570000000E+00 0.  1.
         13    1    3    3    0    0 -0.42635906367E+02  0.12102350680E+01 -0.58444095480E+02  0.72353359629E+02  0.10570000000E+00 0. -1.
<mgrwt>
<rscale>  0 0.90037432E+02</rscale>
<asrwt>0</asrwt>
<pdfrwt beam="2">  1        2 0.29587347E-01 0.90037432E+02</pdfrwt>
<pdfrwt beam="1">  1       -2 0.16212630E-02 0.90037432E+02</pdfrwt>
<totfact> 0.15776096E+05</totfact>
</mgrwt>
</event>
<event>
 5   1  0.1343823E+00  0.9151651E+02  0.7818608E-02  0.1299220E+00
         -2   -1    0    0    0  501 -0.00000000000E+00  0.00000000000E+00  0.99894011342E+01  0.99894014726E+01  0.26000000000E-02 0.  1.
          2   -1    0    0  501    0  0.00000000000E+00 -0.00000000000E+00 -0.20960396099E+03  0.20960396101E+03  0.26000000000E-02 0. -1.
         23    2    1    2    0    0  0.00000000000E+00  0.00000000000E+00 -0.19961455986E+03  0.21959336248E+03  0.91516514020E+02 0.  0.
        -13    1    3    3    0    0 -0.37046009700E+02  0.19372002005E+02 -0.55166002817E+02  0.69216907874E+02  0.10570000000E+00 0.  1.
         13    1    3    3    0    0  0.37046009700E+02 -0.19372002005E+02 -0.14444855704E+03  0.15037645460E+03  0.10570000000E+00 0. -1.
<mgrwt>
<rscale>  0 0.91516514E+02</rscale>
<asrwt>0</asrwt>
<pdfrwt beam="2">  1        2 0.32246760E-01 0.91516514E+02</pdfrwt>
<pdfrwt beam="1">  1       -2 0.15368311E-02 0.91516514E+02</pdfrwt>
<totfact> 0.15576749E+05</totfact>
</mgrwt>
</event>
<event>
 5   1  0.1343823E+00  0.9253756E+02  0.7818608E-02  0.1296820E+00
         -2   -1    0    0    0  501 -0.00000000000E+00  0.00000000000E+00  0.71573884870E+02  0.71573884917E+02  0.26000000000E-02 0.  1.
          2   -1    0    0  501    0  0.00000000000E+00 -0.00000000000E+00 -0.29910353752E+02  0.29910353865E+02  0.26000000000E-02 0. -1.
         23    2    1    2    0    0  0.00000000000E+00  0.00000000000E+00  0.41663531118E+02  0.10148423878E+03  0.92537564784E+02 0.  0.
        -13    1    3    3    0    0  0.49404334173E+01 -0.12782730433E+02  0.69296937786E+02  0.70639102760E+02  0.10570000000E+00 0.  1.
         13    1    3    3    0    0 -0.49404334173E+01  0.12782730433E+02 -0.27633406668E+02  0.30845136023E+02  0.10570000000E+00 0. -1.
<mgrwt>
<rscale>  0 0.92537565E+02</rscale>
<asrwt>0</asrwt>
<pdfrwt beam="2">  1        2 0.46015929E-02 0.92537565E+02</pdfrwt>
<pdfrwt beam="1">  1       -2 0.11011367E-01 0.92537565E+02</pdfrwt>
<totfact> 0.84582039E+04</totfact>
</mgrwt>
</event>
<event>
 5   1  0.1343823E+00  0.7953412E+02  0.7818608E-02  0.1330379E+00
         -2   -1    0    0    0  501 -0.00000000000E+00  0.00000000000E+00  0.57892141209E+02  0.57892141267E+02  0.26000000000E-02 0.  1.
          2   -1    0    0  501    0  0.00000000000E+00 -0.00000000000E+00 -0.27316644228E+02  0.27316644351E+02  0.26000000000E-02 0. -1.
         23    2    1    2    0    0  0.00000000000E+00  0.00000000000E+00  0.30575496981E+02  0.85208785619E+02  0.79534119288E+02 0.  0.
        -13    1    3    3    0    0 -0.10682891110E+02  0.16789501206E+02  0.52173844457E+02  0.55840242935E+02  0.10570000000E+00 0.  1.
         13    1    3    3    0    0  0.10682891110E+02 -0.16789501206E+02 -0.21598347475E+02  0.29368542683E+02  0.10570000000E+00 0. -1.
<mgrwt>
<rscale>  0 0.79534119E+02</rscale>
<asrwt>0</asrwt>
<pdfrwt beam="2">  1        2 0.42025607E-02 0.79534119E+02</pdfrwt>
<pdfrwt beam="1">  1       -2 0.89064832E-02 0.79534119E+02</pdfrwt>
<totfact> 0.12892324E+05</totfact>
</mgrwt>
</event>
<event>
 5   1  0.1343823E+00  0.9038805E+02  0.7818608E-02  0.1301915E+00
         -2   -1    0    0    0  501 -0.00000000000E+00  0.00000000000E+00  0.46957639971E+01  0.46957647169E+01  0.26000000000E-02 0.  1.
          2   -1    0    0  501    0  0.00000000000E+00 -0.00000000000E+00 -0.43496641591E+03  0.43496641592E+03  0.26000000000E-02 0. -1.
         23    2    1    2    0    0  0.00000000000E+00  0.00000000000E+00 -0.43027065191E+03  0.43966218064E+03  0.90388047788E+02 0.  0.
        -13    1    3    3    0    0 -0.38384097463E+02  0.22143610148E+02 -0.25831698846E+03  0.26209035867E+03  0.10570000000E+00 0.  1.
         13    1    3    3    0    0  0.38384097463E+02 -0.22143610148E+02 -0.17195366345E+03  0.17757182197E+03  0.10570000000E+00 0. -1.
<mgrwt>
<rscale>  0 0.90388048E+02</rscale>
<asrwt>0</asrwt>
<pdfrwt beam="2">  1        2 0.66917879E-01 0.90388048E+02</pdfrwt>
<pdfrwt beam="1">  1       -2 0.72242563E-03 0.90388048E+02</pdfrwt>
<totfact> 0.21040261E+05</totfact>
</mgrwt>
</event>
<event>
 5   1  0.1343823E+00  0.8631627E+02  0.7818608E-02  0.1312026E+00
          2   -1    0    0  501    0  0.00000000000E+00  0.00000000000E+00  0.29989905082E+03  0.29989905083E+03  0.26000000000E-02 0. -1.
         -2   -1    0    0    0  501 -0.00000000000E+00 -0.00000000000E+00 -0.62108389484E+01  0.62108394926E+01  0.26000000000E-02 0.  1.
         23    2    1    2    0    0  0.00000000000E+00  0.00000000000E+00  0.29368821187E+03  0.30610989032E+03  0.86316274026E+02 0.  0.
        -13    1    3    3    0    0  0.39932114121E+02 -0.15692913163E+02  0.13029641531E+03  0.13717874572E+03  0.10570000000E+00 0. -1.
         13    1    3    3    0    0 -0.39932114121E+02  0.15692913163E+02  0.16339179656E+03  0.16893114461E+03  0.10570000000E+00 0.  1.
<mgrwt>
<rscale>  0 0.86316274E+02</rscale>
<asrwt>0</asrwt>
<pdfrwt beam="1">  1        2 0.46138296E-01 0.86316274E+02</pdfrwt>
<pdfrwt beam="2">  1       -2 0.95551414E-03 0.86316274E+02</pdfrwt>
<totfact> 0.20780407E+05</totfact>
</mgrwt>
</event>
<event>
 5   1  0.1343823E+00  0.9136543E+02  0.7818608E-02  0.1299578E+00
         -2   -1    0    0    0  501 -0.00000000000E+00  0.00000000000E+00  0.43658626359E+01  0.43658634101E+01  0.26000000000E-02 0. -1.
          2   -1    0    0  501    0  0.00000000000E+00 -0.00000000000E+00 -0.47800641672E+03  0.47800641672E+03  0.26000000000E-02 0.  1.
         23    2    1    2    0    0  0.00000000000E+00  0.00000000000E+00 -0.47364055408E+03  0.48237228013E+03  0.91365432039E+02 0.  0.
        -13    1    3    3    0    0  0.41607986393E+02  0.17920959047E+02 -0.20580336985E+03  0.21073068955E+03  0.10570000000E+00 0.  1.
         13    1    3    3    0    0 -0.41607986393E+02 -0.17920959047E+02 -0.26783718423E+03  0.27164159059E+03  0.10570000000E+00 0. -1.
<mgrwt>
<rscale>  0 0.91365432E+02</rscale>
<asrwt>0</asrwt>
<pdfrwt beam="2">  1        2 0.73539407E-01 0.91365432E+02</pdfrwt>
<pdfrwt beam="1">  1       -2 0.67167161E-03 0.91365432E+02</pdfrwt>
<totfact> 0.21117071E+05</totfact>
</mgrwt>
</event>
<event>
 5   1  0.1343823E+00  0.9074503E+02  0.7818608E-02  0.1301057E+00
          2   -1    0    0  501    0  0.00000000000E+00  0.00000000000E+00  0.65106971614E+02  0.65106971666E+02  0.26000000000E-02 0.  1.
         -2   -1    0    0    0  501 -0.00000000000E+00 -0.00000000000E+00 -0.31619733755E+02  0.31619733862E+02  0.26000000000E-02 0. -1.
         23    2    1    2    0    0  0.00000000000E+00  0.00000000000E+00  0.33487237859E+02  0.96726705528E+02  0.90745029963E+02 0.  0.
        -13    1    3    3    0    0 -0.43096924780E+02  0.13448483897E+02  0.21563557655E+02  0.50032038094E+02  0.10570000000E+00 0.  1.
         13    1    3    3    0    0  0.43096924780E+02 -0.13448483897E+02  0.11923680204E+02  0.46694667434E+02  0.10570000000E+00 0. -1.
<mgrwt>
<rscale>  0 0.90745030E+02</rscale>
<asrwt>0</asrwt>
<pdfrwt beam="1">  1        2 0.10016457E-01 0.90745030E+02</pdfrwt>
<pdfrwt beam="2">  1       -2 0.48645745E-02 0.90745030E+02</pdfrwt>
<totfact> 0.10989265E+05</totfact>
</mgrwt>
</event>
<event>
 5   1  0.1343823E+00  0.9229411E+02  0.7818608E-02  0.1297389E+00
         -2   -1    0    0    0  501 -0.00000000000E+00  0.00000000000E+00  0.25204522172E+02  0.25204522306E+02  0.26000000000E-02 0.  1.
          2   -1    0    0  501    0  0.00000000000E+00 -0.00000000000E+00 -0.84490809297E+02  0.84490809337E+02  0.26000000000E-02 0. -1.
         23    2    1    2    0    0  0.00000000000E+00  0.00000000000E+00 -0.59286287125E+02  0.10969533164E+03  0.92294105679E+02 0.  0.
        -13    1    3    3    0    0  0.18350385751E+02  0.31460685579E-01 -0.79967740266E+02  0.82046257092E+02  0.10570000000E+00 0. -1.
         13    1    3    3    0    0 -0.18350385751E+02 -0.31460685579E-01  0.20681453141E+02  0.27649074551E+02  0.10570000000E+00 0.  1.
<mgrwt>
<rscale>  0 0.92294106E+02</rscale>
<asrwt>0</asrwt>
<pdfrwt beam="2">  1        2 0.12998586E-01 0.92294106E+02</pdfrwt>
<pdfrwt beam="1">  1       -2 0.38776189E-02 0.92294106E+02</pdfrwt>
<totfact> 0.11279646E+05</totfact>
</mgrwt>
</event>
<event>
 5   1  0.1343823E+00  0.8937867E+02  0.7818608E-02  0.1304363E+00
          2   -1    0    0  501    0  0.00000000000E+00  0.00000000000E+00  0.29747290559E+02  0.29747290673E+02  0.26000000000E-02 0.  1.
         -2   -1    0    0    0  501 -0.00000000000E+00 -0.00000000000E+00 -0.67136752776E+02  0.67136752827E+02  0.26000000000E-02 0. -1.
         23    2    1    2    0    0  0.00000000000E+00  0.00000000000E+00 -0.37389462217E+02  0.96884043499E+02  0.89378666358E+02 0.  0.
        -13    1    3    3    0    0 -0.29723696826E+02 -0.14320035271E+02  0.13978801476E+02  0.35832661447E+02  0.10570000000E+00 0.  1.
         13    1    3    3    0    0  0.29723696826E+02  0.14320035271E+02 -0.51368263693E+02  0.61051382052E+02  0.10570000000E+00 0. -1.
<mgrwt>
<rscale>  0 0.89378666E+02</rscale>
<asrwt>0</asrwt>
<pdfrwt beam="1">  1        2 0.45765063E-02 0.89378666E+02</pdfrwt>
<pdfrwt beam="2">  1       -2 0.10328731E-01 0.89378666E+02</pdfrwt>
<totfact> 0.93627629E+04</totfact>
</mgrwt>
</event>
<event>
 5   1  0.1343823E+00  0.8807871E+02  0.7818608E-02  0.1307572E+00
          2   -1    0    0  501    0  0.00000000000E+00  0.00000000000E+00  0.11922199144E+03  0.11922199147E+03  0.26000000000E-02 0. -1.
         -2   -1    0    0    0  501 -0.00000000000E+00 -0.00000000000E+00 -0.16267676988E+02  0.16267677196E+02  0.26000000000E-02 0.  1.
         23    2    1    2    0    0  0.00000000000E+00  0.00000000000E+00  0.10295431446E+03  0.13548966867E+03  0.88078711677E+02 0.  0.
        -13    1    3    3    0    0 -0.20831596427E+02  0.19238330479E+02 -0.35589557167E+00  0.28358536695E+02  0.10570000000E+00 0.  1.
         13    1    3    3    0    0  0.20831596427E+02 -0.19238330479E+02  0.10331021003E+03  0.10713113197E+03  0.10570000000E+00 0. -1.
<mgrwt>
<rscale>  0 0.88078712E+02</rscale>
<asrwt>0</asrwt>
<pdfrwt beam="1">  1        2 0.18341845E-01 0.88078712E+02</pdfrwt>
<pdfrwt beam="2">  1       -2 0.25027195E-02 0.88078712E+02</pdfrwt>
<totfact> 0.14240073E+05</totfact>
</mgrwt>
</event>
<event>
 5   1  0.1343823E+00  0.9202895E+02  0.7818608E-02  0.1298011E+00
         -2   -1    0    0    0  501 -0.00000000000E+00  0.00000000000E+00  0.31473462979E+02  0.31473463086E+02  0.26000000000E-02 0.  1.
          2   -1    0    0  501    0  0.00000000000E+00 -0.00000000000E+00 -0.67273553323E+02  0.67273553373E+02  0.26000000000E-02 0. -1.
         23    2    1    2    0    0  0.00000000000E+00  0.00000000000E+00 -0.35800090344E+02  0.98747016459E+02  0.92028945397E+02 0.  0.
        -13    1    3    3    0    0 -0.59767641972E+01  0.98630305080E+01  0.29897471292E+02  0.32044828650E+02  0.10570000000E+00 0.  1.
         13    1    3    3    0    0  0.59767641972E+01 -0.98630305080E+01 -0.65697561636E+02  0.66702187809E+02  0.10570000000E+00 0. -1.
<mgrwt>
<rscale>  0 0.92028945E+02</rscale>
<asrwt>0</asrwt>
<pdfrwt beam="2">  1        2 0.10349777E-01 0.92028945E+02</pdfrwt>
<pdfrwt beam="1">  1       -2 0.48420713E-02 0.92028945E+02</pdfrwt>
<totfact> 0.10659285E+05</totfact>
</mgrwt>
</event>
<event>
 5   1  0.1343823E+00  0.9096226E+02  0.7818608E-02  0.1300538E+00
         -2   -1    0    0    0  501 -0.00000000000E+00  0.00000000000E+00  0.17883934716E+02  0.17883934905E+02  0.26000000000E-02 0.  1.
          2   -1    0    0  501    0  0.00000000000E+00 -0.00000000000E+00 -0.11566431958E+03  0.11566431961E+03  0.26000000000E-02 0. -1.
         23    2    1    2    0    0  0.00000000000E+00  0.00000000000E+00 -0.97780384869E+02  0.13354825452E+03  0.90962259316E+02 0.  0.
        -13    1    3    3    0    0 -0.18115682482E+02  0.41455225258E+02 -0.42033918248E+02  0.61754150539E+02  0.10570000000E+00 0.  1.
         13    1    3    3    0    0  0.18115682482E+02 -0.41455225258E+02 -0.55746466621E+02  0.71794103980E+02  0.10570000000E+00 0. -1.
<mgrwt>
<rscale>  0 0.90962259E+02</rscale>
<asrwt>0</asrwt>
<pdfrwt beam="2">  1        2 0.17794510E-01 0.90962259E+02</pdfrwt>
<pdfrwt beam="1">  1       -2 0.27513747E-02 0.90962259E+02</pdfrwt>
<totfact> 0.12918121E+05</totfact>
</mgrwt>
</event>
<event>
 5   1  0.1343823E+00  0.9291088E+02  0.7818608E-02  0.1295952E+00
         -2   -1    0    0    0  501 -0.00000000000E+00  0.00000000000E+00  0.35547434474E+02  0.35547434570E+02  0.26000000000E-02 0.  1.
          2   -1    0    0  501    0  0.00000000000E+00 -0.00000000000E+00 -0.60710646168E+02  0.60710646224E+02  0.26000000000E-02 0. -1.
         23    2    1    2    0    0  0.00000000000E+00  0.00000000000E+00 -0.25163211694E+02  0.96258080793E+02  0.92910876087E+02 0.  0.
        -13    1    3    3    0    0  0.39377298314E+02  0.21739890432E+02 -0.54843766230E+00  0.44983401549E+02  0.10570000000E+00 0.  1.
         13    1    3    3    0    0 -0.39377298314E+02 -0.21739890432E+02 -0.24614774031E+02  0.51274679245E+02  0.10570000000E+00 0. -1.
<mgrwt>
<rscale>  0 0.92910876E+02</rscale>
<asrwt>0</asrwt>
<pdfrwt beam="2">  1        2 0.93400994E-02 0.92910876E+02</pdfrwt>
<pdfrwt beam="1">  1       -2 0.54688361E-02 0.92910876E+02</pdfrwt>
<totfact> 0.10088792E+05</totfact>
</mgrwt>
</event>
<event>
 5   1  0.1343823E+00  0.9319289E+02  0.7818608E-02  0.1295299E+00
          2   -1    0    0  501    0  0.00000000000E+00  0.00000000000E+00  0.22451295770E+03  0.22451295772E+03  0.26000000000E-02 0. -1.
         -2   -1    0    0    0  501 -0.00000000000E+00 -0.00000000000E+00 -0.96708387975E+01  0.96708391470E+01  0.26000000000E-02 0.  1.
         23    2    1    2    0    0  0.00000000000E+00  0.00000000000E+00  0.21484211890E+03  0.23418379686E+03  0.93192889526E+02 0.  0.
        -13    1    3    3    0    0  0.21377133692E+02 -0.31580767324E+02  0.40138800588E+02  0.55366607218E+02  0.10570000000E+00 0.  1.
         13    1    3    3    0    0 -0.21377133692E+02  0.31580767324E+02  0.17470331832E+03  0.17881718965E+03  0.10570000000E+00 0. -1.
<mgrwt>
<rscale>  0 0.93192890E+02</rscale>
<asrwt>0</asrwt>
<pdfrwt beam="1">  1        2 0.34540450E-01 0.93192890E+02</pdfrwt>
<pdfrwt beam="2">  1       -2 0.14878216E-02 0.93192890E+02</pdfrwt>
<totfact> 0.15211823E+05</totfact>
</mgrwt>
</event>
<event>
 5   1  0.1343823E+00  0.9061093E+02  0.7818608E-02  0.1301379E+00
          2   -1    0    0  501    0  0.00000000000E+00  0.00000000000E+00  0.22942273967E+03  0.22942273969E+03  0.26000000000E-02 0. -1.
         -2   -1    0    0    0  501 -0.00000000000E+00 -0.00000000000E+00 -0.89467378891E+01  0.89467382669E+01  0.26000000000E-02 0.  1.
         23    2    1    2    0    0  0.00000000000E+00  0.00000000000E+00  0.22047600178E+03  0.23836947795E+03  0.90610930123E+02 0.  0.
        -13    1    3    3    0    0  0.25845213434E+02 -0.33119313481E+02  0.65616153949E+02  0.77912481763E+02  0.10570000000E+00 0.  1.
         13    1    3    3    0    0 -0.25845213434E+02  0.33119313481E+02  0.15485984783E+03  0.16045699619E+03  0.10570000000E+00 0. -1.
<mgrwt>
<rscale>  0 0.90610930E+02</rscale>
<asrwt>0</asrwt>
<pdfrwt beam="1">  1        2 0.35295803E-01 0.90610930E+02</pdfrwt>
<pdfrwt beam="2">  1       -2 0.13764213E-02 0.90610930E+02</pdfrwt>
<totfact> 0.16536182E+05</totfact>
</mgrwt>
</event>
<event>
 5   1  0.1343823E+00  0.9032610E+02  0.7818608E-02  0.1302064E+00
          2   -1    0    0  501    0  0.00000000000E+00  0.00000000000E+00  0.10748786582E+03  0.10748786585E+03  0.26000000000E-02 0.  1.
         -2   -1    0    0    0  501 -0.00000000000E+00 -0.00000000000E+00 -0.18976103978E+02  0.18976104157E+02  0.26000000000E-02 0. -1.
         23    2    1    2    0    0  0.00000000000E+00  0.00000000000E+00  0.88511761840E+02  0.12646397001E+03  0.90326096593E+02 0.  0.
        -13    1    3    3    0    0  0.31008351686E+02 -0.24289275643E+02  0.75191141494E+02  0.84883483183E+02  0.10570000000E+00 0.  1.
         13    1    3    3    0    0 -0.31008351686E+02  0.24289275643E+02  0.13320620345E+02  0.41580486823E+02  0.10570000000E+00 0. -1.
<mgrwt>
<rscale>  0 0.90326097E+02</rscale>
<asrwt>0</asrwt>
<pdfrwt beam="1">  1        2 0.16536595E-01 0.90326097E+02</pdfrwt>
<pdfrwt beam="2">  1       -2 0.29194006E-02 0.90326097E+02</pdfrwt>
<totfact> 0.12869722E+05</totfact>
</mgrwt>
</event>
<event>
 5   1  0.1343823E+00  0.9269781E+02  0.7818608E-02  0.1296447E+00
          2   -1    0    0  501    0  0.00000000000E+00  0.00000000000E+00  0.40574069293E+02  0.40574069376E+02  0.26000000000E-02 0. -1.
         -2   -1    0    0    0  501 -0.00000000000E+00 -0.00000000000E+00 -0.52945667112E+02  0.52945667176E+02  0.26000000000E-02 0.  1.
         23    2    1    2    0    0  0.00000000000E+00  0.00000000000E+00 -0.12371597819E+02  0.93519736552E+02  0.92697813848E+02 0.  0.
        -13    1    3    3    0    0  0.33662553917E+02  0.34831759194E+01 -0.38135349430E+02  0.50986430541E+02  0.10570000000E+00 0.  1.
         13    1    3    3    0    0 -0.33662553917E+02 -0.34831759194E+01  0.25763751611E+02  0.42533306011E+02  0.10570000000E+00 0. -1.
<mgrwt>
<rscale>  0 0.92697814E+02</rscale>
<asrwt>0</asrwt>
<pdfrwt beam="1">  1        2 0.62421645E-02 0.92697814E+02</pdfrwt>
<pdfrwt beam="2">  1       -2 0.81454873E-02 0.92697814E+02</pdfrwt>
<totfact> 0.91253678E+04</totfact>
</mgrwt>
</event>
<event>
 5   1  0.1343823E+00  0.9169972E+02  0.7818608E-02  0.1298787E+00
          2   -1    0    0  501    0  0.00000000000E+00  0.00000000000E+00  0.86533658300E+02  0.86533658339E+02  0.26000000000E-02 0. -1.
         -2   -1    0    0    0  501 -0.00000000000E+00 -0.00000000000E+00 -0.24293546267E+02  0.24293546406E+02  0.26000000000E-02 0.  1.
         23    2    1    2    0    0  0.00000000000E+00  0.00000000000E+00  0.62240112033E+02  0.11082720474E+03  0.91699715189E+02 0.  0.
        -13    1    3    3    0    0  0.29511205613E+02 -0.30737841522E+02  0.10664110094E+02  0.43925625491E+02  0.10570000000E+00 0.  1.
         13    1    3    3    0    0 -0.29511205613E+02  0.30737841522E+02  0.51576001938E+02  0.66901579254E+02  0.10570000000E+00 0. -1.
<mgrwt>
<rscale>  0 0.91699715E+02</rscale>
<asrwt>0</asrwt>
<pdfrwt beam="1">  1        2 0.13312871E-01 0.91699715E+02</pdfrwt>
<pdfrwt beam="2">  1       -2 0.37374687E-02 0.91699715E+02</pdfrwt>
<totfact> 0.11564462E+05</totfact>
</mgrwt>
</event>
<event>
 5   1  0.1343823E+00  0.9267787E+02  0.7818608E-02  0.1296493E+00
          2   -1    0    0  501    0  0.00000000000E+00  0.00000000000E+00  0.18198435083E+03  0.18198435084E+03  0.26000000000E-02 0. -1.
         -2   -1    0    0    0  501 -0.00000000000E+00 -0.00000000000E+00 -0.11799348558E+02  0.11799348844E+02  0.26000000000E-02 0.  1.
         23    2    1    2    0    0  0.00000000000E+00  0.00000000000E+00  0.17018500227E+03  0.19378369969E+03  0.92677868275E+02 0.  0.
        -13    1    3    3    0    0 -0.34132308832E+02  0.23558632151E+02  0.41872145461E+02  0.58934806295E+02  0.10570000000E+00 0.  1.
         13    1    3    3    0    0  0.34132308832E+02 -0.23558632151E+02  0.12831285681E+03  0.13484889339E+03  0.10570000000E+00 0. -1.
<mgrwt>
<rscale>  0 0.92677868E+02</rscale>
<asrwt>0</asrwt>
<pdfrwt beam="1">  1        2 0.27997591E-01 0.92677868E+02</pdfrwt>
<pdfrwt beam="2">  1       -2 0.18152845E-02 0.92677868E+02</pdfrwt>
<totfact> 0.14307021E+05</totfact>
</mgrwt>
</event>
<event>
 5   1  0.1343823E+00  0.8942897E+02  0.7818608E-02  0.1304240E+00
         -2   -1    0    0    0  501 -0.00000000000E+00  0.00000000000E+00  0.34709062284E+02  0.34709062382E+02  0.26000000000E-02 0. -1.
          2   -1    0    0  501    0  0.00000000000E+00 -0.00000000000E+00 -0.57604127357E+02  0.57604127415E+02  0.26000000000E-02 0.  1.
         23    2    1    2    0    0  0.00000000000E+00  0.00000000000E+00 -0.22895065072E+02  0.92313189797E+02  0.89428971848E+02 0.  0.
        -13    1    3    3    0    0 -0.28454570918E+02 -0.17097156923E+02 -0.42370291673E+02  0.53825906123E+02  0.10570000000E+00 0.  1.
         13    1    3    3    0    0  0.28454570918E+02  0.17097156923E+02  0.19475226601E+02  0.38487283674E+02  0.10570000000E+00 0. -1.
<mgrwt>
<rscale>  0 0.89428972E+02</rscale>
<asrwt>0</asrwt>
<pdfrwt beam="2">  1        2 0.88621735E-02 0.89428972E+02</pdfrwt>
<pdfrwt beam="1">  1       -2 0.53398557E-02 0.89428972E+02</pdfrwt>
<totfact> 0.11080620E+05</totfact>
</mgrwt>
</event>
<event>
 5   1  0.1343823E+00  0.9693077E+02  0.7818608E-02  0.1286886E+00
          2   -1    0    0  501    0  0.00000000000E+00  0.00000000000E+00  0.27602044898E+03  0.27602044899E+03  0.26000000000E-02 0. -1.
         -2   -1    0    0    0  501 -0.00000000000E+00 -0.00000000000E+00 -0.85098525880E+01  0.85098529852E+01  0.26000000000E-02 0.  1.
         23    2    1    2    0    0  0.00000000000E+00  0.00000000000E+00  0.26751059639E+03  0.28453030198E+03  0.96930766846E+02 0.  0.
        -13    1    3    3    0    0  0.45388831975E+02 -0.17243302125E+01  0.18337678229E+03  0.18891843436E+03  0.10570000000E+00 0. -1.
         13    1    3    3    0    0 -0.45388831975E+02  0.17243302125E+01  0.84133814098E+02  0.95611867621E+02  0.10570000000E+00 0.  1.
<mgrwt>
<rscale>  0 0.96930767E+02</rscale>
<asrwt>0</asrwt>
<pdfrwt beam="1">  1        2 0.42464677E-01 0.96930767E+02</pdfrwt>
<pdfrwt beam="2">  1       -2 0.13092084E-02 0.96930767E+02</pdfrwt>
<totfact> 0.14779051E+05</totfact>
</mgrwt>
</event>
<event>
 5   1  0.1343823E+00  0.1033471E+03  0.7818608E-02  0.1273411E+00
          2   -1    0    0  501    0  0.00000000000E+00  0.00000000000E+00  0.15867639053E+02  0.15867639266E+02  0.26000000000E-02 0. -1.
         -2   -1    0    0    0  501 -0.00000000000E+00 -0.00000000000E+00 -0.16827689892E+03  0.16827689894E+03  0.26000000000E-02 0.  1.
         23    2    1    2    0    0  0.00000000000E+00  0.00000000000E+00 -0.15240925986E+03  0.18414453820E+03  0.10334712602E+03 0.  0.
        -13    1    3    3    0    0  0.44377631705E+02 -0.74554524346E+01 -0.12146348575E+03  0.12953126075E+03  0.10570000000E+00 0.  1.
         13    1    3    3    0    0 -0.44377631705E+02  0.74554524346E+01 -0.30945774111E+02  0.54613277456E+02  0.10570000000E+00 0. -1.
<mgrwt>
<rscale>  0 0.10334713E+03</rscale>
<asrwt>0</asrwt>
<pdfrwt beam="1">  1        2 0.24411754E-02 0.10334713E+03</pdfrwt>
<pdfrwt beam="2">  1       -2 0.25888752E-01 0.10334713E+03</pdfrwt>
<totfact> 0.48637624E+04</totfact>
</mgrwt>
</event>
<event>
 5   1  0.1343823E+00  0.9329950E+02  0.7818608E-02  0.1295053E+00
          2   -1    0    0  501    0  0.00000000000E+00  0.00000000000E+00  0.10079058912E+03  0.10079058915E+03  0.26000000000E-02 0. -1.
         -2   -1    0    0    0  501 -0.00000000000E+00 -0.00000000000E+00 -0.21591292008E+02  0.21591292164E+02  0.26000000000E-02 0.  1.
         23    2    1    2    0    0  0.00000000000E+00  0.00000000000E+00  0.79199297111E+02  0.12238188132E+03  0.93299497382E+02 0.  0.
        -13    1    3    3    0    0 -0.43910652994E+02 -0.29317642327E+01  0.19302141749E+02  0.48055431914E+02  0.10570000000E+00 0. -1.
         13    1    3    3    0    0  0.43910652994E+02  0.29317642327E+01  0.59897155362E+02  0.74326449403E+02  0.10570000000E+00 0.  1.
<mgrwt>
<rscale>  0 0.93299497E+02</rscale>
<asrwt>0</asrwt>
<pdfrwt beam="1">  1        2 0.15506245E-01 0.93299497E+02</pdfrwt>
<pdfrwt beam="2">  1       -2 0.33217372E-02 0.93299497E+02</pdfrwt>
<totfact> 0.11540512E+05</totfact>
</mgrwt>
</event>
<event>
 5   1  0.1343823E+00  0.9112588E+02  0.7818608E-02  0.1300148E+00
          2   -1    0    0  501    0  0.00000000000E+00  0.00000000000E+00  0.39778643336E+03  0.39778643337E+03  0.26000000000E-02 0. -1.
         -2   -1    0    0    0  501 -0.00000000000E+00 -0.00000000000E+00 -0.52188337639E+01  0.52188344115E+01  0.26000000000E-02 0.  1.
         23    2    1    2    0    0  0.00000000000E+00  0.00000000000E+00  0.39256759960E+03  0.40300526778E+03  0.91125877805E+02 0.  0.
        -13    1    3    3    0    0  0.32383245939E+02 -0.29836709801E+02  0.24806050817E+03  0.25193834713E+03  0.10570000000E+00 0.  1.
         13    1    3    3    0    0 -0.32383245939E+02  0.29836709801E+02  0.14450709143E+03  0.15106692065E+03  0.10570000000E+00 0. -1.
<mgrwt>
<rscale>  0 0.91125878E+02</rscale>
<asrwt>0</asrwt>
<pdfrwt beam="1">  1        2 0.61197916E-01 0.91125878E+02</pdfrwt>
<pdfrwt beam="2">  1       -2 0.80289752E-03 0.91125878E+02</pdfrwt>
<totfact> 0.19952511E+05</totfact>
</mgrwt>
</event>
<event>
 5   1  0.1343823E+00  0.9162172E+02  0.7818608E-02  0.1298971E+00
          2   -1    0    0  501    0  0.00000000000E+00  0.00000000000E+00  0.54094687172E+02  0.54094687235E+02  0.26000000000E-02 0. -1.
         -2   -1    0    0    0  501 -0.00000000000E+00 -0.00000000000E+00 -0.38795585403E+02  0.38795585490E+02  0.26000000000E-02 0.  1.
         23    2    1    2    0    0  0.00000000000E+00  0.00000000000E+00  0.15299101769E+02  0.92890272725E+02  0.91621723690E+02 0.  0.
        -13    1    3    3    0    0  0.36071024349E+02  0.14983159653E+02 -0.16619505357E+02  0.42448003505E+02  0.10570000000E+00 0.  1.
         13    1    3    3    0    0 -0.36071024349E+02 -0.14983159653E+02  0.31918607126E+02  0.50442269220E+02  0.10570000000E+00 0. -1.
<mgrwt>
<rscale>  0 0.91621724E+02</rscale>
<asrwt>0</asrwt>
<pdfrwt beam="1">  1        2 0.83222596E-02 0.91621724E+02</pdfrwt>
<pdfrwt beam="2">  1       -2 0.59685516E-02 0.91621724E+02</pdfrwt>
<totfact> 0.10176999E+05</totfact>
</mgrwt>
</event>
<event>
 5   1  0.1343823E+00  0.9182004E+02  0.7818608E-02  0.1298503E+00
          2   -1    0    0  501    0  0.00000000000E+00  0.00000000000E+00  0.42264031846E+03  0.42264031847E+03  0.26000000000E-02 0. -1.
         -2   -1    0    0    0  501 -0.00000000000E+00 -0.00000000000E+00 -0.49870531409E+01  0.49870538187E+01  0.26000000000E-02 0.  1.
         23    2    1    2    0    0  0.00000000000E+00  0.00000000000E+00  0.41765326532E+03  0.42762737229E+03  0.91820038647E+02 0.  0.
        -13    1    3    3    0    0  0.31614546011E+02  0.32989166999E+02  0.22963047134E+03  0.23413228995E+03  0.10570000000E+00 0.  1.
         13    1    3    3    0    0 -0.31614546011E+02 -0.32989166999E+02  0.18802279398E+03  0.19349508234E+03  0.10570000000E+00 0. -1.
<mgrwt>
<rscale>  0 0.91820039E+02</rscale>
<asrwt>0</asrwt>
<pdfrwt beam="1">  1        2 0.65021557E-01 0.91820039E+02</pdfrwt>
<pdfrwt beam="2">  1       -2 0.76723936E-03 0.91820039E+02</pdfrwt>
<totfact> 0.19979507E+05</totfact>
</mgrwt>
</event>
<event>
 5   1  0.1343823E+00  0.9194877E+02  0.7818608E-02  0.1298200E+00
          2   -1    0    0  501    0  0.00000000000E+00  0.00000000000E+00  0.59297316688E+02  0.59297316745E+02  0.26000000000E-02 0. -1.
         -2   -1    0    0    0  501 -0.00000000000E+00 -0.00000000000E+00 -0.35644851385E+02  0.35644851480E+02  0.26000000000E-02 0.  1.
         23    2    1    2    0    0  0.00000000000E+00  0.00000000000E+00  0.23652465303E+02  0.94942168224E+02  0.91948769389E+02 0.  0.
        -13    1    3    3    0    0 -0.34448291980E+02 -0.49952657977E+01 -0.19184739412E+02  0.39745476467E+02  0.10570000000E+00 0.  1.
         13    1    3    3    0    0  0.34448291980E+02  0.49952657977E+01  0.42837204715E+02  0.55196691758E+02  0.10570000000E+00 0. -1.
<mgrwt>
<rscale>  0 0.91948769E+02</rscale>
<asrwt>0</asrwt>
<pdfrwt beam="1">  1        2 0.91226641E-02 0.91948769E+02</pdfrwt>
<pdfrwt beam="2">  1       -2 0.54838233E-02 0.91948769E+02</pdfrwt>
<totfact> 0.10324434E+05</totfact>
</mgrwt>
</event>
<event>
 5   1  0.1343823E+00  0.8928954E+02  0.7818608E-02  0.1304581E+00
         -2   -1    0    0    0  501 -0.00000000000E+00  0.00000000000E+00  0.10727040454E+02  0.10727040769E+02  0.26000000000E-02 0. -1.
          2   -1    0    0  501    0  0.00000000000E+00 -0.00000000000E+00 -0.18580666669E+03  0.18580666671E+03  0.26000000000E-02 0.  1.
         23    2    1    2    0    0  0.00000000000E+00  0.00000000000E+00 -0.17507962624E+03  0.19653370748E+03  0.89289543912E+02 0.  0.
        -13    1    3    3    0    0 -0.25718464838E+02 -0.29374871941E+02 -0.13519831794E+03  0.14072284421E+03  0.10570000000E+00 0.  1.
         13    1    3    3    0    0  0.25718464838E+02  0.29374871941E+02 -0.39881308295E+02  0.55810863271E+02  0.10570000000E+00 0. -1.
<mgrwt>
<rscale>  0 0.89289544E+02</rscale>
<asrwt>0</asrwt>
<pdfrwt beam="2">  1        2 0.28585639E-01 0.89289544E+02</pdfrwt>
<pdfrwt beam="1">  1       -2 0.16503141E-02 0.89289544E+02</pdfrwt>
<totfact> 0.15936658E+05</totfact>
</mgrwt>
</event>
<event>
 5   1  0.1343823E+00  0.9455765E+02  0.7818608E-02  0.1292175E+00
          2   -1    0    0  501    0  0.00000000000E+00  0.00000000000E+00  0.12035135534E+03  0.12035135536E+03  0.26000000000E-02 0. -1.
         -2   -1    0    0    0  501 -0.00000000000E+00 -0.00000000000E+00 -0.18573014579E+02  0.18573014761E+02  0.26000000000E-02 0.  1.
         23    2    1    2    0    0  0.00000000000E+00  0.00000000000E+00  0.10177834076E+03  0.13892437012E+03  0.94557654198E+02 0.  0.
        -13    1    3    3    0    0  0.42780238947E+02 -0.16662162382E+02  0.34299546790E+02  0.57308346531E+02  0.10570000000E+00 0.  1.
         13    1    3    3    0    0 -0.42780238947E+02  0.16662162382E+02  0.67478793966E+02  0.81616023594E+02  0.10570000000E+00 0. -1.
<mgrwt>
<rscale>  0 0.94557654E+02</rscale>
<asrwt>0</asrwt>
<pdfrwt beam="1">  1        2 0.18515593E-01 0.94557654E+02</pdfrwt>
<pdfrwt beam="2">  1       -2 0.28573869E-02 0.94557654E+02</pdfrwt>
<totfact> 0.11763222E+05</totfact>
</mgrwt>
</event>
<event>
 5   1  0.1343823E+00  0.9535383E+02  0.7818608E-02  0.1290381E+00
         -2   -1    0    0    0  501 -0.00000000000E+00  0.00000000000E+00  0.90911336041E+02  0.90911336079E+02  0.26000000000E-02 0.  1.
          2   -1    0    0  501    0  0.00000000000E+00 -0.00000000000E+00 -0.25003353053E+02  0.25003353189E+02  0.26000000000E-02 0. -1.
         23    2    1    2    0    0  0.00000000000E+00  0.00000000000E+00  0.65907982988E+02  0.11591468927E+03  0.95353830371E+02 0.  0.
        -13    1    3    3    0    0  0.36797777538E+02 -0.25499023966E+02  0.52884358623E+02  0.69289560645E+02  0.10570000000E+00 0.  1.
         13    1    3    3    0    0 -0.36797777538E+02  0.25499023966E+02  0.13023624365E+02  0.46625128622E+02  0.10570000000E+00 0. -1.
<mgrwt>
<rscale>  0 0.95353830E+02</rscale>
<asrwt>0</asrwt>
<pdfrwt beam="2">  1        2 0.38466698E-02 0.95353830E+02</pdfrwt>
<pdfrwt beam="1">  1       -2 0.13986359E-01 0.95353830E+02</pdfrwt>
<totfact> 0.73451083E+04</totfact>
</mgrwt>
</event>
<event>
 5   1  0.1343823E+00  0.9391590E+02  0.7818608E-02  0.1293637E+00
         -2   -1    0    0    0  501 -0.00000000000E+00  0.00000000000E+00  0.13731618250E+02  0.13731618496E+02  0.26000000000E-02 0.  1.
          2   -1    0    0  501    0  0.00000000000E+00 -0.00000000000E+00 -0.16058188309E+03  0.16058188311E+03  0.26000000000E-02 0. -1.
         23    2    1    2    0    0  0.00000000000E+00  0.00000000000E+00 -0.14685026484E+03  0.17431350161E+03  0.93915901525E+02 0.  0.
        -13    1    3    3    0    0  0.72527397466E+00  0.42808617209E+02 -0.37629917490E+02  0.57001101677E+02  0.10570000000E+00 0.  1.
         13    1    3    3    0    0 -0.72527397466E+00 -0.42808617209E+02 -0.10922034735E+03  0.11731239993E+03  0.10570000000E+00 0. -1.
<mgrwt>
<rscale>  0 0.93915902E+02</rscale>
<asrwt>0</asrwt>
<pdfrwt beam="2">  1        2 0.24704904E-01 0.93915902E+02</pdfrwt>
<pdfrwt beam="1">  1       -2 0.21125568E-02 0.93915902E+02</pdfrwt>
<totfact> 0.13206139E+05</totfact>
</mgrwt>
</event>
<event>
 5   1  0.1343823E+00  0.9199824E+02  0.7818608E-02  0.1298084E+00
         -2   -1    0    0    0  501 -0.00000000000E+00  0.00000000000E+00  0.18061873537E+02  0.18061873724E+02  0.26000000000E-02 0.  1.
          2   -1    0    0  501    0  0.00000000000E+00 -0.00000000000E+00 -0.11714835892E+03  0.11714835895E+03  0.26000000000E-02 0. -1.
         23    2    1    2    0    0  0.00000000000E+00  0.00000000000E+00 -0.99086485383E+02  0.13521023267E+03  0.91998236037E+02 0.  0.
        -13    1    3    3    0    0 -0.91351624194E+01 -0.21501078263E+02 -0.10778064999E+03  0.11028339514E+03  0.10570000000E+00 0. -1.
         13    1    3    3    0    0  0.91351624194E+01  0.21501078263E+02  0.86941646034E+01  0.24926837536E+02  0.10570000000E+00 0.  1.
<mgrwt>
<rscale>  0 0.91998236E+02</rscale>
<asrwt>0</asrwt>
<pdfrwt beam="2">  1        2 0.18022824E-01 0.91998236E+02</pdfrwt>
<pdfrwt beam="1">  1       -2 0.27787499E-02 0.91998236E+02</pdfrwt>
<totfact> 0.12574240E+05</totfact>
</mgrwt>
</event>
<event>
 5   1  0.1343823E+00  0.8347256E+02  0.7818608E-02  0.1319476E+00
         -2   -1    0    0    0  501 -0.00000000000E+00  0.00000000000E+00  0.56207177276E+01  0.56207183289E+01  0.26000000000E-02 0.  1.
          2   -1    0    0  501    0  0.00000000000E+00 -0.00000000000E+00 -0.30991006746E+03  0.30991006748E+03  0.26000000000E-02 0. -1.
         23    2    1    2    0    0  0.00000000000E+00  0.00000000000E+00 -0.30428934974E+03  0.31553078580E+03  0.83472560923E+02 0.  0.
        -13    1    3    3    0    0 -0.34003219386E+02 -0.15970894412E+02 -0.83412364177E+02  0.91481812767E+02  0.10570000000E+00 0.  1.
         13    1    3    3    0    0  0.34003219386E+02  0.15970894412E+02 -0.22087698556E+03  0.22404897304E+03  0.10570000000E+00 0. -1.
<mgrwt>
<rscale>  0 0.83472561E+02</rscale>
<asrwt>0</asrwt>
<pdfrwt beam="2">  1        2 0.47678459E-01 0.83472561E+02</pdfrwt>
<pdfrwt beam="1">  1       -2 0.86472609E-03 0.83472561E+02</pdfrwt>
<totfact> 0.22982442E+05</totfact>
</mgrwt>
</event>
<event>
 5   1  0.1343823E+00  0.9138616E+02  0.7818608E-02  0.1299529E+00
         -2   -1    0    0    0  501 -0.00000000000E+00  0.00000000000E+00  0.13463273281E+03  0.13463273284E+03  0.26000000000E-02 0. -1.
          2   -1    0    0  501    0  0.00000000000E+00 -0.00000000000E+00 -0.15507801767E+02  0.15507801985E+02  0.26000000000E-02 0.  1.
         23    2    1    2    0    0  0.00000000000E+00  0.00000000000E+00  0.11912493104E+03  0.15014053482E+03  0.91386164162E+02 0.  0.
        -13    1    3    3    0    0 -0.41099000309E+02 -0.18834326276E+02  0.48666161498E+02  0.66424890817E+02  0.10570000000E+00 0.  1.
         13    1    3    3    0    0  0.41099000309E+02  0.18834326276E+02  0.70458769545E+02  0.83715644003E+02  0.10570000000E+00 0. -1.
<mgrwt>
<rscale>  0 0.91386164E+02</rscale>
<asrwt>0</asrwt>
<pdfrwt beam="2">  1        2 0.23858157E-02 0.91386164E+02</pdfrwt>
<pdfrwt beam="1">  1       -2 0.20712728E-01 0.91386164E+02</pdfrwt>
<totfact> 0.72158816E+04</totfact>
</mgrwt>
</event>
<event>
 5   1  0.1343823E+00  0.8402145E+02  0.7818608E-02  0.1318012E+00
         -2   -1    0    0    0  501 -0.00000000000E+00  0.00000000000E+00  0.11307946497E+03  0.11307946500E+03  0.26000000000E-02 0.  1.
          2   -1    0    0  501    0  0.00000000000E+00 -0.00000000000E+00 -0.15607617540E+02  0.15607617757E+02  0.26000000000E-02 0. -1.
         23    2    1    2    0    0  0.00000000000E+00  0.00000000000E+00  0.97471847435E+02  0.12868708276E+03  0.84021450995E+02 0.  0.
        -13    1    3    3    0    0  0.31990442575E+02 -0.14022430405E+02  0.84487268978E+02  0.91422791264E+02  0.10570000000E+00 0.  1.
         13    1    3    3    0    0 -0.31990442575E+02  0.14022430405E+02  0.12984578457E+02  0.37264291498E+02  0.10570000000E+00 0. -1.
<mgrwt>
<rscale>  0 0.84021451E+02</rscale>
<asrwt>0</asrwt>
<pdfrwt beam="2">  1        2 0.24011720E-02 0.84021451E+02</pdfrwt>
<pdfrwt beam="1">  1       -2 0.17396840E-01 0.84021451E+02</pdfrwt>
<totfact> 0.94294543E+04</totfact>
</mgrwt>
</event>
<event>
 5   1  0.1343823E+00  0.9505209E+02  0.7818608E-02  0.1291059E+00
          2   -1    0    0  501    0  0.00000000000E+00  0.00000000000E+00  0.10641970056E+03  0.10641970059E+03  0.26000000000E-02 0.  1.
         -2   -1    0    0    0  501 -0.00000000000E+00 -0.00000000000E+00 -0.21224688521E+02  0.21224688681E+02  0.26000000000E-02 0. -1.
         23    2    1    2    0    0  0.00000000000E+00  0.00000000000E+00  0.85195012040E+02  0.12764438927E+03  0.95052091174E+02 0.  0.
        -13    1    3    3    0    0 -0.25553409757E+02  0.29876111499E+02  0.67357101462E+01  0.39886586118E+02  0.10570000000E+00 0. -1.
         13    1    3    3    0    0  0.25553409757E+02 -0.29876111499E+02  0.78459301894E+02  0.87757803156E+02  0.10570000000E+00 0.  1.
<mgrwt>
<rscale>  0 0.95052091E+02</rscale>
<asrwt>0</asrwt>
<pdfrwt beam="1">  1        2 0.16372261E-01 0.95052091E+02</pdfrwt>
<pdfrwt beam="2">  1       -2 0.32653368E-02 0.95052091E+02</pdfrwt>
<totfact> 0.11148691E+05</totfact>
</mgrwt>
</event>
<event>
 5   1  0.1343823E+00  0.8957650E+02  0.7818608E-02  0.1303881E+00
          2   -1    0    0  501    0  0.00000000000E+00  0.00000000000E+00  0.83572879447E+02  0.83572879488E+02  0.26000000000E-02 0. -1.
         -2   -1    0    0    0  501 -0.00000000000E+00 -0.00000000000E+00 -0.24002852616E+02  0.24002852756E+02  0.26000000000E-02 0.  1.
         23    2    1    2    0    0  0.00000000000E+00  0.00000000000E+00  0.59570026832E+02  0.10757573224E+03  0.89576504013E+02 0.  0.
        -13    1    3    3    0    0  0.21915335729E+01  0.20634929354E+02  0.77451367073E+02  0.80183093997E+02  0.10570000000E+00 0. -1.
         13    1    3    3    0    0 -0.21915335729E+01 -0.20634929354E+02 -0.17881340242E+02  0.27392638248E+02  0.10570000000E+00 0.  1.
<mgrwt>
<rscale>  0 0.89576504E+02</rscale>
<asrwt>0</asrwt>
<pdfrwt beam="1">  1        2 0.12857366E-01 0.89576504E+02</pdfrwt>
<pdfrwt beam="2">  1       -2 0.36927465E-02 0.89576504E+02</pdfrwt>
<totfact> 0.12215099E+05</totfact>
</mgrwt>
</event>
<event>
 5   1  0.1343823E+00  0.9190876E+02  0.7818608E-02  0.1298294E+00
         -2   -1    0    0    0  501 -0.00000000000E+00  0.00000000000E+00  0.13891889417E+02  0.13891889661E+02  0.26000000000E-02 0.  1.
          2   -1    0    0  501    0  0.00000000000E+00 -0.00000000000E+00 -0.15201710795E+03  0.15201710798E+03  0.26000000000E-02 0. -1.
         23    2    1    2    0    0  0.00000000000E+00  0.00000000000E+00 -0.13812521854E+03  0.16590899764E+03  0.91908756389E+02 0.  0.
        -13    1    3    3    0    0 -0.26272810067E+02 -0.26794892876E+02 -0.21181330555E+02  0.43091609040E+02  0.10570000000E+00 0.  1.
         13    1    3    3    0    0  0.26272810067E+02  0.26794892876E+02 -0.11694388798E+03  0.12281738860E+03  0.10570000000E+00 0. -1.
<mgrwt>
<rscale>  0 0.91908756E+02</rscale>
<asrwt>0</asrwt>
<pdfrwt beam="2">  1        2 0.23387246E-01 0.91908756E+02</pdfrwt>
<pdfrwt beam="1">  1       -2 0.21372139E-02 0.91908756E+02</pdfrwt>
<totfact> 0.13742949E+05</totfact>
</mgrwt>
</event>
<event>
 5   1  0.1343823E+00  0.8812011E+02  0.7818608E-02  0.1307469E+00
         -2   -1    0    0    0  501 -0.00000000000E+00  0.00000000000E+00  0.15209602158E+02  0.15209602380E+02  0.26000000000E-02 0.  1.
          2   -1    0    0  501    0  0.00000000000E+00 -0.00000000000E+00 -0.12763572427E+03  0.12763572429E+03  0.26000000000E-02 0. -1.
         23    2    1    2    0    0  0.00000000000E+00  0.00000000000E+00 -0.11242612211E+03  0.14284532667E+03  0.88120113596E+02 0.  0.
        -13    1    3    3    0    0  0.42456561446E+02  0.90617329142E+01 -0.44017268740E+02  0.61823989948E+02  0.10570000000E+00 0.  1.
         13    1    3    3    0    0 -0.42456561446E+02 -0.90617329142E+01 -0.68408853369E+02  0.81021336727E+02  0.10570000000E+00 0. -1.
<mgrwt>
<rscale>  0 0.88120114E+02</rscale>
<asrwt>0</asrwt>
<pdfrwt beam="2">  1        2 0.19636265E-01 0.88120114E+02</pdfrwt>
<pdfrwt beam="1">  1       -2 0.23399389E-02 0.88120114E+02</pdfrwt>
<totfact> 0.14535766E+05</totfact>
</mgrwt>
</event>
<event>
 5   1  0.1343823E+00  0.9602708E+02  0.7818608E-02  0.1288879E+00
          2   -1    0    0  501    0  0.00000000000E+00  0.00000000000E+00  0.22495755099E+03  0.22495755101E+03  0.26000000000E-02 0.  1.
         -2   -1    0    0    0  501 -0.00000000000E+00 -0.00000000000E+00 -0.10247711728E+02  0.10247712058E+02  0.26000000000E-02 0. -1.
         23    2    1    2    0    0  0.00000000000E+00  0.00000000000E+00  0.21470983926E+03  0.23520526306E+03  0.96027083142E+02 0.  0.
        -13    1    3    3    0    0  0.17442764298E+02  0.40189772405E+02  0.59243704624E+02  0.73683753585E+02  0.10570000000E+00 0. -1.
         13    1    3    3    0    0 -0.17442764298E+02 -0.40189772405E+02  0.15546613464E+03  0.16152150948E+03  0.10570000000E+00 0.  1.
<mgrwt>
<rscale>  0 0.96027083E+02</rscale>
<asrwt>0</asrwt>
<pdfrwt beam="1">  1        2 0.34608852E-01 0.96027083E+02</pdfrwt>
<pdfrwt beam="2">  1       -2 0.15765711E-02 0.96027083E+02</pdfrwt>
<totfact> 0.14040920E+05</totfact>
</mgrwt>
</event>
<event>
 5   1  0.1343823E+00  0.8971153E+02  0.7818608E-02  0.1303552E+00
         -2   -1    0    0    0  501 -0.00000000000E+00  0.00000000000E+00  0.16397223394E+03  0.16397223396E+03  0.26000000000E-02 0.  1.
          2   -1    0    0  501    0  0.00000000000E+00 -0.00000000000E+00 -0.12270612902E+02  0.12270613178E+02  0.26000000000E-02 0. -1.
         23    2    1    2    0    0  0.00000000000E+00  0.00000000000E+00  0.15170162104E+03  0.17624284714E+03  0.89711534053E+02 0.  0.
        -13    1    3    3    0    0  0.14331796194E+02 -0.23554314059E+02  0.14535878064E+03  0.14795064168E+03  0.10570000000E+00 0.  1.
         13    1    3    3    0    0 -0.14331796194E+02  0.23554314059E+02  0.63428404034E+01  0.28292205461E+02  0.10570000000E+00 0. -1.
<mgrwt>
<rscale>  0 0.89711534E+02</rscale>
<asrwt>0</asrwt>
<pdfrwt beam="2">  1        2 0.18877865E-02 0.89711534E+02</pdfrwt>
<pdfrwt beam="1">  1       -2 0.25226499E-01 0.89711534E+02</pdfrwt>
<totfact> 0.70406398E+04</totfact>
</mgrwt>
</event>
<event>
 5   1  0.1343823E+00  0.9230977E+02  0.7818608E-02  0.1297353E+00
         -2   -1    0    0    0  501 -0.00000000000E+00  0.00000000000E+00  0.33652529581E+02  0.33652529682E+02  0.26000000000E-02 0. -1.
          2   -1    0    0  501    0  0.00000000000E+00 -0.00000000000E+00 -0.63302031776E+02  0.63302031829E+02  0.26000000000E-02 0.  1.
         23    2    1    2    0    0  0.00000000000E+00  0.00000000000E+00 -0.29649502195E+02  0.96954561511E+02  0.92309772058E+02 0.  0.
        -13    1    3    3    0    0 -0.27418461598E+02  0.67856587737E+01 -0.53164144298E+02  0.60201782472E+02  0.10570000000E+00 0.  1.
         13    1    3    3    0    0  0.27418461598E+02 -0.67856587737E+01  0.23514642103E+02  0.36752779039E+02  0.10570000000E+00 0. -1.
<mgrwt>
<rscale>  0 0.92309772E+02</rscale>
<asrwt>0</asrwt>
<pdfrwt beam="2">  1        2 0.97387741E-02 0.92309772E+02</pdfrwt>
<pdfrwt beam="1">  1       -2 0.51773123E-02 0.92309772E+02</pdfrwt>
<totfact> 0.10393220E+05</totfact>
</mgrwt>
</event>
<event>
 5   1  0.1343823E+00  0.9056019E+02  0.7818608E-02  0.1301501E+00
          2   -1    0    0  501    0  0.00000000000E+00  0.00000000000E+00  0.17596404930E+03  0.17596404932E+03  0.26000000000E-02 0. -1.
         -2   -1    0    0    0  501 -0.00000000000E+00 -0.00000000000E+00 -0.11651738435E+02  0.11651738725E+02  0.26000000000E-02 0.  1.
         23    2    1    2    0    0  0.00000000000E+00  0.00000000000E+00  0.16431231086E+03  0.18761578804E+03  0.90560192259E+02 0.  0.
        -13    1    3    3    0    0  0.15833451478E+01  0.42216389653E+02  0.48396233484E+02  0.64241241622E+02  0.10570000000E+00 0.  1.
         13    1    3    3    0    0 -0.15833451478E+01 -0.42216389653E+02  0.11591607738E+03  0.12337454642E+03  0.10570000000E+00 0. -1.
<mgrwt>
<rscale>  0 0.90560192E+02</rscale>
<asrwt>0</asrwt>
<pdfrwt beam="1">  1        2 0.27071393E-01 0.90560192E+02</pdfrwt>
<pdfrwt beam="2">  1       -2 0.17925751E-02 0.90560192E+02</pdfrwt>
<totfact> 0.15048673E+05</totfact>
</mgrwt>
</event>
<event>
 5   1  0.1343823E+00  0.8237934E+02  0.7818608E-02  0.1322432E+00
         -2   -1    0    0    0  501 -0.00000000000E+00  0.00000000000E+00  0.23700558027E+02  0.23700558170E+02  0.26000000000E-02 0.  1.
          2   -1    0    0  501    0  0.00000000000E+00 -0.00000000000E+00 -0.71584346908E+02  0.71584346955E+02  0.26000000000E-02 0. -1.
         23    2    1    2    0    0  0.00000000000E+00  0.00000000000E+00 -0.47883788880E+02  0.95284905124E+02  0.82379341506E+02 0.  0.
        -13    1    3    3    0    0  0.19693199870E+02  0.32725503075E+02 -0.41778372158E+02  0.56605867410E+02  0.10570000000E+00 0.  1.
         13    1    3    3    0    0 -0.19693199870E+02 -0.32725503075E+02 -0.61054167228E+01  0.38679037714E+02  0.10570000000E+00 0. -1.
<mgrwt>
<rscale>  0 0.82379342E+02</rscale>
<asrwt>0</asrwt>
<pdfrwt beam="2">  1        2 0.11012976E-01 0.82379342E+02</pdfrwt>
<pdfrwt beam="1">  1       -2 0.36462398E-02 0.82379342E+02</pdfrwt>
<totfact> 0.14742113E+05</totfact>
</mgrwt>
</event>
<event>
 5   1  0.1343823E+00  0.9541078E+02  0.7818608E-02  0.1290254E+00
          2   -1    0    0  501    0  0.00000000000E+00  0.00000000000E+00  0.48494584745E+02  0.48494584814E+02  0.26000000000E-02 0. -1.
         -2   -1    0    0    0  501 -0.00000000000E+00 -0.00000000000E+00 -0.46929037493E+02  0.46929037565E+02  0.26000000000E-02 0.  1.
         23    2    1    2    0    0  0.00000000000E+00  0.00000000000E+00  0.15655472517E+01  0.95423622379E+02  0.95410779107E+02 0.  0.
        -13    1    3    3    0    0 -0.38020976233E+02 -0.23112727417E+02  0.17989746407E+02  0.47994113708E+02  0.10570000000E+00 0. -1.
         13    1    3    3    0    0  0.38020976233E+02  0.23112727417E+02 -0.16424199155E+02  0.47429508671E+02  0.10570000000E+00 0.  1.
<mgrwt>
<rscale>  0 0.95410779E+02</rscale>
<asrwt>0</asrwt>
<pdfrwt beam="1">  1        2 0.74607053E-02 0.95410779E+02</pdfrwt>
<pdfrwt beam="2">  1       -2 0.72198520E-02 0.95410779E+02</pdfrwt>
<totfact> 0.88012264E+04</totfact>
</mgrwt>
</event>
<event>
 5   1  0.1343823E+00  0.9160513E+02  0.7818608E-02  0.1299011E+00
          2   -1    0    0  501    0  0.00000000000E+00  0.00000000000E+00  0.65728777653E+01  0.65728782796E+01  0.26000000000E-02 0. -1.
         -2   -1    0    0    0  501 -0.00000000000E+00 -0.00000000000E+00 -0.31917146463E+03  0.31917146465E+03  0.26000000000E-02 0.  1.
         23    2    1    2    0    0  0.00000000000E+00  0.00000000000E+00 -0.31259858687E+03  0.32574434292E+03  0.91605133234E+02 0.  0.
        -13    1    3    3    0    0 -0.36662278060E+02  0.23974005145E+02 -0.20387327406E+03  0.20852625399E+03  0.10570000000E+00 0. -1.
         13    1    3    3    0    0  0.36662278060E+02 -0.23974005145E+02 -0.10872531281E+03  0.11721808894E+03  0.10570000000E+00 0.  1.
<mgrwt>
<rscale>  0 0.91605133E+02</rscale>
<asrwt>0</asrwt>
<pdfrwt beam="1">  1        2 0.10112123E-02 0.91605133E+02</pdfrwt>
<pdfrwt beam="2">  1       -2 0.49103290E-01 0.91605133E+02</pdfrwt>
<totfact> 0.48628692E+04</totfact>
</mgrwt>
</event>
<event>
 5   1  0.1343823E+00  0.9152339E+02  0.7818608E-02  0.1299204E+00
          2   -1    0    0  501    0  0.00000000000E+00  0.00000000000E+00  0.40949566003E+03  0.40949566004E+03  0.26000000000E-02 0. -1.
         -2   -1    0    0    0  501 -0.00000000000E+00 -0.00000000000E+00 -0.51139307514E+01  0.51139314124E+01  0.26000000000E-02 0.  1.
         23    2    1    2    0    0  0.00000000000E+00  0.00000000000E+00  0.40438172928E+03  0.41460959145E+03  0.91523386894E+02 0.  0.
        -13    1    3    3    0    0  0.12679752875E+02  0.42627423702E+02  0.25103360956E+03  0.25494265568E+03  0.10570000000E+00 0. -1.
         13    1    3    3    0    0 -0.12679752875E+02 -0.42627423702E+02  0.15334811972E+03  0.15966693577E+03  0.10570000000E+00 0.  1.
<mgrwt>
<rscale>  0 0.91523387E+02</rscale>
<asrwt>0</asrwt>
<pdfrwt beam="1">  1        2 0.62999336E-01 0.91523387E+02</pdfrwt>
<pdfrwt beam="2">  1       -2 0.78675859E-03 0.91523387E+02</pdfrwt>
<totfact> 0.19928246E+05</totfact>
</mgrwt>
</event>
<event>
 5   1  0.1343823E+00  0.9412394E+02  0.7818608E-02  0.1293161E+00
         -2   -1    0    0    0  501 -0.00000000000E+00  0.00000000000E+00  0.20457692872E+02  0.20457693037E+02  0.26000000000E-02 0. -1.
          2   -1    0    0  501    0  0.00000000000E+00 -0.00000000000E+00 -0.10826386908E+03  0.10826386911E+03  0.26000000000E-02 0.  1.
         23    2    1    2    0    0  0.00000000000E+00  0.00000000000E+00 -0.87806176204E+02  0.12872156214E+03  0.94123939469E+02 0.  0.
        -13    1    3    3    0    0  0.98288042620E+01 -0.44939320073E+02 -0.30318588673E+02  0.55094245375E+02  0.10570000000E+00 0.  1.
         13    1    3    3    0    0 -0.98288042620E+01  0.44939320073E+02 -0.57487587532E+02  0.73627316769E+02  0.10570000000E+00 0. -1.
<mgrwt>
<rscale>  0 0.94123939E+02</rscale>
<asrwt>0</asrwt>
<pdfrwt beam="2">  1        2 0.16655980E-01 0.94123939E+02</pdfrwt>
<pdfrwt beam="1">  1       -2 0.31473374E-02 0.94123939E+02</pdfrwt>
<totfact> 0.11517060E+05</totfact>
</mgrwt>
</event>
<event>
 5   1  0.1343823E+00  0.9192768E+02  0.7818608E-02  0.1298250E+00
         -2   -1    0    0    0  501 -0.00000000000E+00  0.00000000000E+00  0.11953942726E+03  0.11953942729E+03  0.26000000000E-02 0.  1.
          2   -1    0    0  501    0  0.00000000000E+00 -0.00000000000E+00 -0.17673452832E+02  0.17673453023E+02  0.26000000000E-02 0. -1.
         23    2    1    2    0    0  0.00000000000E+00  0.00000000000E+00  0.10186597443E+03  0.13721288031E+03  0.91927676883E+02 0.  0.
        -13    1    3    3    0    0  0.37085234908E+02 -0.28705513472E+01  0.91236666461E+02  0.98527636695E+02  0.10570000000E+00 0.  1.
         13    1    3    3    0    0 -0.37085234908E+02  0.28705513472E+01  0.10629307965E+02  0.38685243615E+02  0.10570000000E+00 0. -1.
<mgrwt>
<rscale>  0 0.91927677E+02</rscale>
<asrwt>0</asrwt>
<pdfrwt beam="2">  1        2 0.27189927E-02 0.91927677E+02</pdfrwt>
<pdfrwt beam="1">  1       -2 0.18390681E-01 0.91927677E+02</pdfrwt>
<totfact> 0.73971002E+04</totfact>
</mgrwt>
</event>
<event>
 5   1  0.1343823E+00  0.9164707E+02  0.7818608E-02  0.1298911E+00
         -2   -1    0    0    0  501 -0.00000000000E+00  0.00000000000E+00  0.18518562211E+02  0.18518562394E+02  0.26000000000E-02 0.  1.
          2   -1    0    0  501    0  0.00000000000E+00 -0.00000000000E+00 -0.11338872816E+03  0.11338872819E+03  0.26000000000E-02 0. -1.
         23    2    1    2    0    0  0.00000000000E+00  0.00000000000E+00 -0.94870165945E+02  0.13190729058E+03  0.91647067175E+02 0.  0.
        -13    1    3    3    0    0  0.38445914993E+02  0.26667834518E+01 -0.83116425525E+02  0.91616327574E+02  0.10570000000E+00 0. -1.
         13    1    3    3    0    0 -0.38445914993E+02 -0.26667834518E+01 -0.11753740421E+02  0.40290963007E+02  0.10570000000E+00 0.  1.
<mgrwt>
<rscale>  0 0.91647067E+02</rscale>
<asrwt>0</asrwt>
<pdfrwt beam="2">  1        2 0.17444419E-01 0.91647067E+02</pdfrwt>
<pdfrwt beam="1">  1       -2 0.28490097E-02 0.91647067E+02</pdfrwt>
<totfact> 0.12575986E+05</totfact>
</mgrwt>
</event>
<event>
 5   1  0.1343823E+00  0.8743981E+02  0.7818608E-02  0.1309173E+00
         -2   -1    0    0    0  501 -0.00000000000E+00  0.00000000000E+00  0.19547545714E+02  0.19547545887E+02  0.26000000000E-02 0.  1.
          2   -1    0    0  501    0  0.00000000000E+00 -0.00000000000E+00 -0.97783627036E+02  0.97783627070E+02  0.26000000000E-02 0. -1.
         23    2    1    2    0    0  0.00000000000E+00  0.00000000000E+00 -0.78236081322E+02  0.11733117296E+03  0.87439806306E+02 0.  0.
        -13    1    3    3    0    0  0.12079153832E+02  0.99191957792E+01  0.15670276764E+02  0.22132897428E+02  0.10570000000E+00 0.  1.
         13    1    3    3    0    0 -0.12079153832E+02 -0.99191957792E+01 -0.93906358086E+02  0.95198275529E+02  0.10570000000E+00 0. -1.
<mgrwt>
<rscale>  0 0.87439806E+02</rscale>
<asrwt>0</asrwt>
<pdfrwt beam="2">  1        2 0.15043635E-01 0.87439806E+02</pdfrwt>
<pdfrwt beam="1">  1       -2 0.30073148E-02 0.87439806E+02</pdfrwt>
<totfact> 0.13667631E+05</totfact>
</mgrwt>
</event>
<event>
 5   1  0.1343823E+00  0.9102687E+02  0.7818608E-02  0.1300384E+00
          2   -1    0    0  501    0  0.00000000000E+00  0.00000000000E+00  0.27079724376E+02  0.27079724501E+02  0.26000000000E-02 0. -1.
         -2   -1    0    0    0  501 -0.00000000000E+00 -0.00000000000E+00 -0.76495346666E+02  0.76495346710E+02  0.26000000000E-02 0.  1.
         23    2    1    2    0    0  0.00000000000E+00  0.00000000000E+00 -0.49415622290E+02  0.10357507121E+03  0.91026873231E+02 0.  0.
        -13    1    3    3    0    0  0.43050036812E+02 -0.90967784687E+01 -0.37948252815E+02  0.58104544678E+02  0.10570000000E+00 0.  1.
         13    1    3    3    0    0 -0.43050036812E+02  0.90967784687E+01 -0.11467369474E+02  0.45470526533E+02  0.10570000000E+00 0. -1.
<mgrwt>
<rscale>  0 0.91026873E+02</rscale>
<asrwt>0</asrwt>
<pdfrwt beam="1">  1        2 0.41661115E-02 0.91026873E+02</pdfrwt>
<pdfrwt beam="2">  1       -2 0.11768515E-01 0.91026873E+02</pdfrwt>
<totfact> 0.86480030E+04</totfact>
</mgrwt>
</event>
<event>
 5   1  0.1343823E+00  0.9127223E+02  0.7818608E-02  0.1299800E+00
          2   -1    0    0  501    0  0.00000000000E+00  0.00000000000E+00  0.20271206274E+03  0.20271206276E+03  0.26000000000E-02 0. -1.
         -2   -1    0    0    0  501 -0.00000000000E+00 -0.00000000000E+00 -0.10273955702E+02  0.10273956031E+02  0.26000000000E-02 0.  1.
         23    2    1    2    0    0  0.00000000000E+00  0.00000000000E+00  0.19243810704E+03  0.21298601879E+03  0.91272225562E+02 0.  0.
        -13    1    3    3    0    0 -0.14664062255E+02 -0.33572358390E+02  0.32718626939E+02  0.49118811986E+02  0.10570000000E+00 0.  1.
         13    1    3    3    0    0  0.14664062255E+02  0.33572358390E+02  0.15971948010E+03  0.16386720680E+03  0.10570000000E+00 0. -1.
<mgrwt>
<rscale>  0 0.91272226E+02</rscale>
<asrwt>0</asrwt>
<pdfrwt beam="1">  1        2 0.31186473E-01 0.91272226E+02</pdfrwt>
<pdfrwt beam="2">  1       -2 0.15806085E-02 0.91272226E+02</pdfrwt>
<totfact> 0.15499844E+05</totfact>
</mgrwt>
</event>
<event>
 5   1  0.1343823E+00  0.9148855E+02  0.7818608E-02  0.1299286E+00
         -2   -1    0    0    0  501 -0.00000000000E+00  0.00000000000E+00  0.13261718040E+02  0.13261718295E+02  0.26000000000E-02 0.  1.
          2   -1    0    0  501    0  0.00000000000E+00 -0.00000000000E+00 -0.15778788824E+03  0.15778788826E+03  0.26000000000E-02 0. -1.
         23    2    1    2    0    0  0.00000000000E+00  0.00000000000E+00 -0.14452617020E+03  0.17104960656E+03  0.91488545896E+02 0.  0.
        -13    1    3    3    0    0  0.42623953397E+02 -0.88999947195E+01 -0.46053850339E+02  0.63379646676E+02  0.10570000000E+00 0.  1.
         13    1    3    3    0    0 -0.42623953397E+02  0.88999947195E+01 -0.98472319861E+02  0.10766995988E+03  0.10570000000E+00 0. -1.
<mgrwt>
<rscale>  0 0.91488546E+02</rscale>
<asrwt>0</asrwt>
<pdfrwt beam="2">  1        2 0.24275058E-01 0.91488546E+02</pdfrwt>
<pdfrwt beam="1">  1       -2 0.20402644E-02 0.91488546E+02</pdfrwt>
<totfact> 0.14094115E+05</totfact>
</mgrwt>
</event>
<event>
 5   1  0.1343823E+00  0.9192283E+02  0.7818608E-02  0.1298261E+00
         -2   -1    0    0    0  501 -0.00000000000E+00  0.00000000000E+00  0.12685161024E+02  0.12685161290E+02  0.26000000000E-02 0.  1.
          2   -1    0    0  501    0  0.00000000000E+00 -0.00000000000E+00 -0.16652934304E+03  0.16652934306E+03  0.26000000000E-02 0. -1.
         23    2    1    2    0    0  0.00000000000E+00  0.00000000000E+00 -0.15384418202E+03  0.17921450435E+03  0.91922827576E+02 0.  0.
        -13    1    3    3    0    0  0.26064802172E+00 -0.29246413464E+02 -0.14604481280E+03  0.14894468489E+03  0.10570000000E+00 0. -1.
         13    1    3    3    0    0 -0.26064802172E+00  0.29246413464E+02 -0.77993692211E+01  0.30269819468E+02  0.10570000000E+00 0.  1.
<mgrwt>
<rscale>  0 0.91922828E+02</rscale>
<asrwt>0</asrwt>
<pdfrwt beam="2">  1        2 0.25619897E-01 0.91922828E+02</pdfrwt>
<pdfrwt beam="1">  1       -2 0.19515634E-02 0.91922828E+02</pdfrwt>
<totfact> 0.14176737E+05</totfact>
</mgrwt>
</event>
<event>
 5   1  0.1343823E+00  0.9008602E+02  0.7818608E-02  0.1302644E+00
          2   -1    0    0  501    0  0.00000000000E+00  0.00000000000E+00  0.20087038144E+03  0.20087038146E+03  0.26000000000E-02 0.  1.
         -2   -1    0    0    0  501 -0.00000000000E+00 -0.00000000000E+00 -0.10100406812E+02  0.10100407147E+02  0.26000000000E-02 0. -1.
         23    2    1    2    0    0  0.00000000000E+00  0.00000000000E+00  0.19076997463E+03  0.21097078861E+03  0.90086016810E+02 0.  0.
        -13    1    3    3    0    0 -0.25717714024E+01  0.41439654539E+02  0.13628435658E+03  0.14246857898E+03  0.10570000000E+00 0.  1.
         13    1    3    3    0    0  0.25717714024E+01 -0.41439654539E+02  0.54485618050E+02  0.68502209623E+02  0.10570000000E+00 0. -1.
<mgrwt>
<rscale>  0 0.90086017E+02</rscale>
<asrwt>0</asrwt>
<pdfrwt beam="1">  1        2 0.30903135E-01 0.90086017E+02</pdfrwt>
<pdfrwt beam="2">  1       -2 0.15539088E-02 0.90086017E+02</pdfrwt>
<totfact> 0.16001801E+05</totfact>
</mgrwt>
</event>
<event>
 5   1  0.1343823E+00  0.8805392E+02  0.7818608E-02  0.1307634E+00
         -2   -1    0    0    0  501 -0.00000000000E+00  0.00000000000E+00  0.21797320177E+03  0.21797320178E+03  0.26000000000E-02 0. -1.
          2   -1    0    0  501    0  0.00000000000E+00 -0.00000000000E+00 -0.88927126056E+01  0.88927129857E+01  0.26000000000E-02 0.  1.
         23    2    1    2    0    0  0.00000000000E+00  0.00000000000E+00  0.20908048916E+03  0.22686591477E+03  0.88053917208E+02 0.  0.
        -13    1    3    3    0    0  0.21034005410E+02  0.23035902625E+02  0.24492857483E+02  0.39660981247E+02  0.10570000000E+00 0.  1.
         13    1    3    3    0    0 -0.21034005410E+02 -0.23035902625E+02  0.18458763168E+03  0.18720493352E+03  0.10570000000E+00 0. -1.
<mgrwt>
<rscale>  0 0.88053917E+02</rscale>
<asrwt>0</asrwt>
<pdfrwt beam="2">  1        2 0.13681097E-02 0.88053917E+02</pdfrwt>
<pdfrwt beam="1">  1       -2 0.33534338E-01 0.88053917E+02</pdfrwt>
<totfact> 0.65566073E+04</totfact>
</mgrwt>
</event>
<event>
 5   1  0.1343823E+00  0.9839012E+02  0.7818608E-02  0.1283718E+00
         -2   -1    0    0    0  501 -0.00000000000E+00  0.00000000000E+00  0.24085179965E+02  0.24085180105E+02  0.26000000000E-02 0.  1.
          2   -1    0    0  501    0  0.00000000000E+00 -0.00000000000E+00 -0.10048312460E+03  0.10048312464E+03  0.26000000000E-02 0. -1.
         23    2    1    2    0    0  0.00000000000E+00  0.00000000000E+00 -0.76397944640E+02  0.12456830474E+03  0.98390124511E+02 0.  0.
        -13    1    3    3    0    0  0.13859093044E+02  0.21349206638E+02  0.15100412844E+02  0.29595552446E+02  0.10570000000E+00 0.  1.
         13    1    3    3    0    0 -0.13859093044E+02 -0.21349206638E+02 -0.91498357484E+02  0.94972752296E+02  0.10570000000E+00 0. -1.
<mgrwt>
<rscale>  0 0.98390125E+02</rscale>
<asrwt>0</asrwt>
<pdfrwt beam="2">  1        2 0.15458942E-01 0.98390125E+02</pdfrwt>
<pdfrwt beam="1">  1       -2 0.37054124E-02 0.98390125E+02</pdfrwt>
<totfact> 0.99494718E+04</totfact>
</mgrwt>
</event>
<event>
 5   1  0.1343823E+00  0.9044437E+02  0.7818608E-02  0.1301779E+00
         -2   -1    0    0    0  501 -0.00000000000E+00  0.00000000000E+00  0.47478170446E+02  0.47478170517E+02  0.26000000000E-02 0.  1.
          2   -1    0    0  501    0  0.00000000000E+00 -0.00000000000E+00 -0.43073398726E+02  0.43073398805E+02  0.26000000000E-02 0. -1.
         23    2    1    2    0    0  0.00000000000E+00  0.00000000000E+00  0.44047717193E+01  0.90551569322E+02  0.90444373472E+02 0.  0.
        -13    1    3    3    0    0  0.31317794987E+02  0.31536532097E+02 -0.61548340865E+01  0.44869257791E+02  0.10570000000E+00 0. -1.
         13    1    3    3    0    0 -0.31317794987E+02 -0.31536532097E+02  0.10559605806E+02  0.45682311531E+02  0.10570000000E+00 0.  1.
<mgrwt>
<rscale>  0 0.90444373E+02</rscale>
<asrwt>0</asrwt>
<pdfrwt beam="2">  1        2 0.66266768E-02 0.90444373E+02</pdfrwt>
<pdfrwt beam="1">  1       -2 0.73043339E-02 0.90444373E+02</pdfrwt>
<totfact> 0.99516397E+04</totfact>
</mgrwt>
</event>
<event>
 5   1  0.1343823E+00  0.1010965E+03  0.7818608E-02  0.1278007E+00
         -2   -1    0    0    0  501 -0.00000000000E+00  0.00000000000E+00  0.62590576328E+02  0.62590576382E+02  0.26000000000E-02 0. -1.
          2   -1    0    0  501    0  0.00000000000E+00 -0.00000000000E+00 -0.40822811685E+02  0.40822811767E+02  0.26000000000E-02 0.  1.
         23    2    1    2    0    0  0.00000000000E+00  0.00000000000E+00  0.21767764643E+02  0.10341338815E+03  0.10109645528E+03 0.  0.
        -13    1    3    3    0    0 -0.41801094564E+02 -0.14741470369E+02  0.35740363271E+02  0.56938802188E+02  0.10570000000E+00 0. -1.
         13    1    3    3    0    0  0.41801094564E+02  0.14741470369E+02 -0.13972598627E+02  0.46474585961E+02  0.10570000000E+00 0.  1.
<mgrwt>
<rscale>  0 0.10109646E+03</rscale>
<asrwt>0</asrwt>
<pdfrwt beam="2">  1        2 0.62804326E-02 0.10109646E+03</pdfrwt>
<pdfrwt beam="1">  1       -2 0.96293195E-02 0.10109646E+03</pdfrwt>
<totfact> 0.70870796E+04</totfact>
</mgrwt>
</event>
<event>
 5   1  0.1343823E+00  0.9085412E+02  0.7818608E-02  0.1300796E+00
         -2   -1    0    0    0  501 -0.00000000000E+00  0.00000000000E+00  0.17064660340E+02  0.17064660538E+02  0.26000000000E-02 0. -1.
          2   -1    0    0  501    0  0.00000000000E+00 -0.00000000000E+00 -0.12092931908E+03  0.12092931911E+03  0.26000000000E-02 0.  1.
         23    2    1    2    0    0  0.00000000000E+00  0.00000000000E+00 -0.10386465874E+03  0.13799397965E+03  0.90854119795E+02 0.  0.
        -13    1    3    3    0    0 -0.18004232352E+02 -0.38601666439E+02 -0.27947659003E+02  0.50944321084E+02  0.10570000000E+00 0. -1.
         13    1    3    3    0    0  0.18004232352E+02  0.38601666439E+02 -0.75916999740E+02  0.87049658566E+02  0.10570000000E+00 0.  1.
<mgrwt>
<rscale>  0 0.90854120E+02</rscale>
<asrwt>0</asrwt>
<pdfrwt beam="2">  1        2 0.18604510E-01 0.90854120E+02</pdfrwt>
<pdfrwt beam="1">  1       -2 0.26253325E-02 0.90854120E+02</pdfrwt>
<totfact> 0.13145306E+05</totfact>
</mgrwt>
</event>
<event>
 5   1  0.1343823E+00  0.9161118E+02  0.7818608E-02  0.1298996E+00
         -2   -1    0    0    0  501 -0.00000000000E+00  0.00000000000E+00  0.12437703508E+03  0.12437703511E+03  0.26000000000E-02 0.  1.
          2   -1    0    0  501    0  0.00000000000E+00 -0.00000000000E+00 -0.16869289553E+02  0.16869289754E+02  0.26000000000E-02 0. -1.
         23    2    1    2    0    0  0.00000000000E+00  0.00000000000E+00  0.10750774552E+03  0.14124632486E+03  0.91611183479E+02 0.  0.
        -13    1    3    3    0    0 -0.42641766527E+02  0.66148084489E+01  0.77442755216E+02  0.88653637553E+02  0.10570000000E+00 0.  1.
         13    1    3    3    0    0  0.42641766527E+02 -0.66148084489E+01  0.30064990309E+02  0.52592687306E+02  0.10570000000E+00 0. -1.
<mgrwt>
<rscale>  0 0.91611183E+02</rscale>
<asrwt>0</asrwt>
<pdfrwt beam="2">  1        2 0.25952753E-02 0.91611183E+02</pdfrwt>
<pdfrwt beam="1">  1       -2 0.19134928E-01 0.91611183E+02</pdfrwt>
<totfact> 0.73653309E+04</totfact>
</mgrwt>
</event>
<event>
 5   1  0.1343823E+00  0.9125070E+02  0.7818608E-02  0.1299851E+00
          2   -1    0    0  501    0  0.00000000000E+00  0.00000000000E+00  0.61038273215E+02  0.61038273270E+02  0.26000000000E-02 0. -1.
         -2   -1    0    0    0  501 -0.00000000000E+00 -0.00000000000E+00 -0.34104383528E+02  0.34104383627E+02  0.26000000000E-02 0.  1.
         23    2    1    2    0    0  0.00000000000E+00  0.00000000000E+00  0.26933889687E+02  0.95142656897E+02  0.91250702725E+02 0.  0.
        -13    1    3    3    0    0 -0.38039447392E+02 -0.24561777486E+02  0.19307750366E+02  0.49224799318E+02  0.10570000000E+00 0. -1.
         13    1    3    3    0    0  0.38039447392E+02  0.24561777486E+02  0.76261393208E+01  0.45917857579E+02  0.10570000000E+00 0.  1.
<mgrwt>
<rscale>  0 0.91250703E+02</rscale>
<asrwt>0</asrwt>
<pdfrwt beam="1">  1        2 0.93905035E-02 0.91250703E+02</pdfrwt>
<pdfrwt beam="2">  1       -2 0.52468283E-02 0.91250703E+02</pdfrwt>
<totfact> 0.10631634E+05</totfact>
</mgrwt>
</event>
<event>
 5   1  0.1343823E+00  0.9088839E+02  0.7818608E-02  0.1300714E+00
         -2   -1    0    0    0  501 -0.00000000000E+00  0.00000000000E+00  0.20167843749E+02  0.20167843916E+02  0.26000000000E-02 0. -1.
          2   -1    0    0  501    0  0.00000000000E+00 -0.00000000000E+00 -0.10239939327E+03  0.10239939330E+03  0.26000000000E-02 0.  1.
         23    2    1    2    0    0  0.00000000000E+00  0.00000000000E+00 -0.82231549517E+02  0.12256723722E+03  0.90888392563E+02 0.  0.
        -13    1    3    3    0    0  0.11601305124E+02 -0.37420309182E+02 -0.10061290288E+02  0.40448863453E+02  0.10570000000E+00 0. -1.
         13    1    3    3    0    0 -0.11601305124E+02  0.37420309182E+02 -0.72170259229E+02  0.82118373763E+02  0.10570000000E+00 0.  1.
<mgrwt>
<rscale>  0 0.90888393E+02</rscale>
<asrwt>0</asrwt>
<pdfrwt beam="2">  1        2 0.15753753E-01 0.90888393E+02</pdfrwt>
<pdfrwt beam="1">  1       -2 0.31027453E-02 0.90888393E+02</pdfrwt>
<totfact> 0.12464945E+05</totfact>
</mgrwt>
</event>
<event>
 5   1  0.1343823E+00  0.9199536E+02  0.7818608E-02  0.1298090E+00
         -2   -1    0    0    0  501 -0.00000000000E+00  0.00000000000E+00  0.22841052025E+02  0.22841052173E+02  0.26000000000E-02 0.  1.
          2   -1    0    0  501    0  0.00000000000E+00 -0.00000000000E+00 -0.92630863745E+02  0.92630863781E+02  0.26000000000E-02 0. -1.
         23    2    1    2    0    0  0.00000000000E+00  0.00000000000E+00 -0.69789811720E+02  0.11547191595E+03  0.91995356156E+02 0.  0.
        -13    1    3    3    0    0  0.73848629736E+01 -0.13194950355E+02  0.19632098751E+02  0.24780504229E+02  0.10570000000E+00 0.  1.
         13    1    3    3    0    0 -0.73848629736E+01  0.13194950355E+02 -0.89421910470E+02  0.90691411725E+02  0.10570000000E+00 0. -1.
<mgrwt>
<rscale>  0 0.91995356E+02</rscale>
<asrwt>0</asrwt>
<pdfrwt beam="2">  1        2 0.14250902E-01 0.91995356E+02</pdfrwt>
<pdfrwt beam="1">  1       -2 0.35140081E-02 0.91995356E+02</pdfrwt>
<totfact> 0.11695234E+05</totfact>
</mgrwt>
</event>
<event>
 5   1  0.1343823E+00  0.8964551E+02  0.7818608E-02  0.1303712E+00
         -2   -1    0    0    0  501 -0.00000000000E+00  0.00000000000E+00  0.59480949150E+01  0.59480954833E+01  0.26000000000E-02 0.  1.
          2   -1    0    0  501    0  0.00000000000E+00 -0.00000000000E+00 -0.33776853271E+03  0.33776853272E+03  0.26000000000E-02 0. -1.
         23    2    1    2    0    0  0.00000000000E+00  0.00000000000E+00 -0.33182043780E+03  0.34371662820E+03  0.89645510568E+02 0.  0.
        -13    1    3    3    0    0  0.40806173616E+02  0.16381187848E+02 -0.13257689694E+03  0.13967867373E+03  0.10570000000E+00 0.  1.
         13    1    3    3    0    0 -0.40806173616E+02 -0.16381187848E+02 -0.19924354085E+03  0.20403795447E+03  0.10570000000E+00 0. -1.
<mgrwt>
<rscale>  0 0.89645511E+02</rscale>
<asrwt>0</asrwt>
<pdfrwt beam="2">  1        2 0.51964374E-01 0.89645511E+02</pdfrwt>
<pdfrwt beam="1">  1       -2 0.91509184E-03 0.89645511E+02</pdfrwt>
<totfact> 0.19637605E+05</totfact>
</mgrwt>
</event>
<event>
 5   1  0.1343823E+00  0.9373335E+02  0.7818608E-02  0.1294055E+00
          2   -1    0    0  501    0  0.00000000000E+00  0.00000000000E+00  0.97509587356E+02  0.97509587391E+02  0.26000000000E-02 0. -1.
         -2   -1    0    0    0  501 -0.00000000000E+00 -0.00000000000E+00 -0.22525837411E+02  0.22525837561E+02  0.26000000000E-02 0.  1.
         23    2    1    2    0    0  0.00000000000E+00  0.00000000000E+00  0.74983749945E+02  0.12003542495E+03  0.93733347789E+02 0.  0.
        -13    1    3    3    0    0  0.35054652394E+02 -0.19371810198E+02  0.68660300415E+02  0.79488009853E+02  0.10570000000E+00 0. -1.
         13    1    3    3    0    0 -0.35054652394E+02  0.19371810198E+02  0.63234495297E+01  0.40547415099E+02  0.10570000000E+00 0.  1.
<mgrwt>
<rscale>  0 0.93733348E+02</rscale>
<asrwt>0</asrwt>
<pdfrwt beam="1">  1        2 0.15001475E-01 0.93733348E+02</pdfrwt>
<pdfrwt beam="2">  1       -2 0.34655134E-02 0.93733348E+02</pdfrwt>
<totfact> 0.11278318E+05</totfact>
</mgrwt>
</event>
<event>
 5   1  0.1343823E+00  0.8451282E+02  0.7818608E-02  0.1316712E+00
          2   -1    0    0  501    0  0.00000000000E+00  0.00000000000E+00  0.40036943792E+02  0.40036943876E+02  0.26000000000E-02 0. -1.
         -2   -1    0    0    0  501 -0.00000000000E+00 -0.00000000000E+00 -0.44598909149E+02  0.44598909225E+02  0.26000000000E-02 0.  1.
         23    2    1    2    0    0  0.00000000000E+00  0.00000000000E+00 -0.45619653579E+01  0.84635853101E+02  0.84512816201E+02 0.  0.
        -13    1    3    3    0    0  0.16817922792E+02  0.40873185204E+01  0.36324381969E+02  0.40237055032E+02  0.10570000000E+00 0. -1.
         13    1    3    3    0    0 -0.16817922792E+02 -0.40873185204E+01 -0.40886347327E+02  0.44398798069E+02  0.10570000000E+00 0.  1.
<mgrwt>
<rscale>  0 0.84512816E+02</rscale>
<asrwt>0</asrwt>
<pdfrwt beam="1">  1        2 0.61595298E-02 0.84512816E+02</pdfrwt>
<pdfrwt beam="2">  1       -2 0.68613707E-02 0.84512816E+02</pdfrwt>
<totfact> 0.11864120E+05</totfact>
</mgrwt>
</event>
<event>
 5   1  0.1343823E+00  0.9510909E+02  0.7818608E-02  0.1290931E+00
         -2   -1    0    0    0  501 -0.00000000000E+00  0.00000000000E+00  0.10995044221E+02  0.10995044529E+02  0.26000000000E-02 0. -1.
          2   -1    0    0  501    0  0.00000000000E+00 -0.00000000000E+00 -0.20567763712E+03  0.20567763714E+03  0.26000000000E-02 0.  1.
         23    2    1    2    0    0  0.00000000000E+00  0.00000000000E+00 -0.19468259290E+03  0.21667268167E+03  0.95109090008E+02 0.  0.
        -13    1    3    3    0    0 -0.12962457034E+02 -0.39870986956E+02 -0.46212064975E+02  0.62396209940E+02  0.10570000000E+00 0. -1.
         13    1    3    3    0    0  0.12962457034E+02  0.39870986956E+02 -0.14847052793E+03  0.15427647173E+03  0.10570000000E+00 0.  1.
<mgrwt>
<rscale>  0 0.95109090E+02</rscale>
<asrwt>0</asrwt>
<pdfrwt beam="2">  1        2 0.31642711E-01 0.95109090E+02</pdfrwt>
<pdfrwt beam="1">  1       -2 0.16915454E-02 0.95109090E+02</pdfrwt>
<totfact> 0.13942583E+05</totfact>
</mgrwt>
</event>
<event>
 5   1  0.1343823E+00  0.9059159E+02  0.7818608E-02  0.1301425E+00
         -2   -1    0    0    0  501 -0.00000000000E+00  0.00000000000E+00  0.54986573662E+01  0.54986579809E+01  0.26000000000E-02 0.  1.
          2   -1    0    0  501    0  0.00000000000E+00 -0.00000000000E+00 -0.37312908964E+03  0.37312908965E+03  0.26000000000E-02 0. -1.
         23    2    1    2    0    0  0.00000000000E+00  0.00000000000E+00 -0.36763043228E+03  0.37862774763E+03  0.90591592003E+02 0.  0.
        -13    1    3    3    0    0 -0.41805600159E+02 -0.15913770624E+02 -0.15404329269E+03  0.16040668158E+03  0.10570000000E+00 0.  1.
         13    1    3    3    0    0  0.41805600159E+02  0.15913770624E+02 -0.21358713959E+03  0.21822106605E+03  0.10570000000E+00 0. -1.
<mgrwt>
<rscale>  0 0.90591592E+02</rscale>
<asrwt>0</asrwt>
<pdfrwt beam="2">  1        2 0.57404456E-01 0.90591592E+02</pdfrwt>
<pdfrwt beam="1">  1       -2 0.84594763E-03 0.90591592E+02</pdfrwt>
<totfact> 0.19803715E+05</totfact>
</mgrwt>
</event>
<event>
 5   1  0.1343823E+00  0.8835121E+02  0.7818608E-02  0.1306894E+00
          2   -1    0    0  501    0  0.00000000000E+00  0.00000000000E+00  0.54673036947E+02  0.54673037009E+02  0.26000000000E-02 0.  1.
         -2   -1    0    0    0  501 -0.00000000000E+00 -0.00000000000E+00 -0.35693723814E+02  0.35693723909E+02  0.26000000000E-02 0. -1.
         23    2    1    2    0    0  0.00000000000E+00  0.00000000000E+00  0.18979313133E+02  0.90366760918E+02  0.88351214772E+02 0.  0.
        -13    1    3    3    0    0 -0.12577767566E+02 -0.15297860167E+02  0.49877795137E+02  0.53665914535E+02  0.10570000000E+00 0.  1.
         13    1    3    3    0    0  0.12577767566E+02  0.15297860167E+02 -0.30898482003E+02  0.36700846383E+02  0.10570000000E+00 0. -1.
<mgrwt>
<rscale>  0 0.88351215E+02</rscale>
<asrwt>0</asrwt>
<pdfrwt beam="1">  1        2 0.84112364E-02 0.88351215E+02</pdfrwt>
<pdfrwt beam="2">  1       -2 0.54913422E-02 0.88351215E+02</pdfrwt>
<totfact> 0.11310254E+05</totfact>
</mgrwt>
</event>
<event>
 5   1  0.1343823E+00  0.1210830E+03  0.7818608E-02  0.1241321E+00
          2   -1    0    0  501    0  0.00000000000E+00  0.00000000000E+00  0.80967827790E+01  0.80967831964E+01  0.26000000000E-02 0.  1.
         -2   -1    0    0    0  501 -0.00000000000E+00 -0.00000000000E+00 -0.45268241123E+03  0.45268241123E+03  0.26000000000E-02 0. -1.
         23    2    1    2    0    0  0.00000000000E+00  0.00000000000E+00 -0.44458562845E+03  0.46077919443E+03  0.12108296741E+03 0.  0.
        -13    1    3    3    0    0 -0.13787597627E+02  0.56858927125E+02 -0.28151970856E+03  0.28753502903E+03  0.10570000000E+00 0. -1.
         13    1    3    3    0    0  0.13787597627E+02 -0.56858927125E+02 -0.16306591989E+03  0.17324416540E+03  0.10570000000E+00 0.  1.
<mgrwt>
<rscale>  0 0.12108297E+03</rscale>
<asrwt>0</asrwt>
<pdfrwt beam="1">  1        2 0.12456593E-02 0.12108297E+03</pdfrwt>
<pdfrwt beam="2">  1       -2 0.69643428E-01 0.12108297E+03</pdfrwt>
<totfact> 0.18671374E+04</totfact>
</mgrwt>
</event>
<event>
 5   1  0.1343823E+00  0.9018740E+02  0.7818608E-02  0.1302399E+00
          2   -1    0    0  501    0  0.00000000000E+00  0.00000000000E+00  0.23620913840E+03  0.23620913841E+03  0.26000000000E-02 0. -1.
         -2   -1    0    0    0  501 -0.00000000000E+00 -0.00000000000E+00 -0.86086494870E+01  0.86086498796E+01  0.26000000000E-02 0.  1.
         23    2    1    2    0    0  0.00000000000E+00  0.00000000000E+00  0.22760048891E+03  0.24481778829E+03  0.90187398852E+02 0.  0.
        -13    1    3    3    0    0 -0.40229652979E+02  0.13143426884E+02  0.71549506783E+02  0.83129523891E+02  0.10570000000E+00 0. -1.
         13    1    3    3    0    0  0.40229652979E+02 -0.13143426884E+02  0.15605098213E+03  0.16168826440E+03  0.10570000000E+00 0.  1.
<mgrwt>
<rscale>  0 0.90187399E+02</rscale>
<asrwt>0</asrwt>
<pdfrwt beam="1">  1        2 0.36339862E-01 0.90187399E+02</pdfrwt>
<pdfrwt beam="2">  1       -2 0.13244078E-02 0.90187399E+02</pdfrwt>
<totfact> 0.16925340E+05</totfact>
</mgrwt>
</event>
<event>
 5   1  0.1343823E+00  0.9729219E+02  0.7818608E-02  0.1286095E+00
          2   -1    0    0  501    0  0.00000000000E+00  0.00000000000E+00  0.11815882075E+03  0.11815882078E+03  0.26000000000E-02 0. -1.
         -2   -1    0    0    0  501 -0.00000000000E+00 -0.00000000000E+00 -0.20027642891E+02  0.20027643060E+02  0.26000000000E-02 0.  1.
         23    2    1    2    0    0  0.00000000000E+00  0.00000000000E+00  0.98131177857E+02  0.13818646384E+03  0.97292192492E+02 0.  0.
        -13    1    3    3    0    0  0.96483329857E+00 -0.42698764149E+02  0.15989528271E+02  0.45604731662E+02  0.10570000000E+00 0.  1.
         13    1    3    3    0    0 -0.96483329857E+00  0.42698764149E+02  0.82141649586E+02  0.92581732174E+02  0.10570000000E+00 0. -1.
<mgrwt>
<rscale>  0 0.97292192E+02</rscale>
<asrwt>0</asrwt>
<pdfrwt beam="1">  1        2 0.18178280E-01 0.97292192E+02</pdfrwt>
<pdfrwt beam="2">  1       -2 0.30811758E-02 0.97292192E+02</pdfrwt>
<totfact> 0.10809570E+05</totfact>
</mgrwt>
</event>
<event>
 5   1  0.1343823E+00  0.9166420E+02  0.7818608E-02  0.1298871E+00
          2   -1    0    0  501    0  0.00000000000E+00  0.00000000000E+00  0.24964006308E+02  0.24964006444E+02  0.26000000000E-02 0. -1.
         -2   -1    0    0    0  501 -0.00000000000E+00 -0.00000000000E+00 -0.84144407391E+02  0.84144407431E+02  0.26000000000E-02 0.  1.
         23    2    1    2    0    0  0.00000000000E+00  0.00000000000E+00 -0.59180401083E+02  0.10910841387E+03  0.91664202969E+02 0.  0.
        -13    1    3    3    0    0 -0.36178628798E+02 -0.27599543748E+02 -0.23076894736E+02  0.51021390024E+02  0.10570000000E+00 0.  1.
         13    1    3    3    0    0  0.36178628798E+02  0.27599543748E+02 -0.36103506347E+02  0.58087023851E+02  0.10570000000E+00 0. -1.
<mgrwt>
<rscale>  0 0.91664203E+02</rscale>
<asrwt>0</asrwt>
<pdfrwt beam="1">  1        2 0.38406164E-02 0.91664203E+02</pdfrwt>
<pdfrwt beam="2">  1       -2 0.12945293E-01 0.91664203E+02</pdfrwt>
<totfact> 0.82795472E+04</totfact>
</mgrwt>
</event>
<event>
 5   1  0.1343823E+00  0.8961551E+02  0.7818608E-02  0.1303785E+00
         -2   -1    0    0    0  501 -0.00000000000E+00  0.00000000000E+00  0.34197784056E+03  0.34197784057E+03  0.26000000000E-02 0. -1.
          2   -1    0    0  501    0  0.00000000000E+00 -0.00000000000E+00 -0.58709505890E+01  0.58709511647E+01  0.26000000000E-02 0.  1.
         23    2    1    2    0    0  0.00000000000E+00  0.00000000000E+00  0.33610688997E+03  0.34784879174E+03  0.89615514423E+02 0.  0.
        -13    1    3    3    0    0 -0.43630069762E+02  0.82465193413E+01  0.14472012563E+03  0.15137871053E+03  0.10570000000E+00 0.  1.
         13    1    3    3    0    0  0.43630069762E+02 -0.82465193413E+01  0.19138676435E+03  0.19647008120E+03  0.10570000000E+00 0. -1.
<mgrwt>
<rscale>  0 0.89615514E+02</rscale>
<asrwt>0</asrwt>
<pdfrwt beam="2">  1        2 0.90322341E-03 0.89615514E+02</pdfrwt>
<pdfrwt beam="1">  1       -2 0.52611964E-01 0.89615514E+02</pdfrwt>
<totfact> 0.49376941E+04</totfact>
</mgrwt>
</event>
<event>
 5   1  0.1343823E+00  0.8876538E+02  0.7818608E-02  0.1305869E+00
         -2   -1    0    0    0  501 -0.00000000000E+00  0.00000000000E+00  0.29334876870E+02  0.29334876985E+02  0.26000000000E-02 0.  1.
          2   -1    0    0  501    0  0.00000000000E+00 -0.00000000000E+00 -0.67149521992E+02  0.67149522043E+02  0.26000000000E-02 0. -1.
         23    2    1    2    0    0  0.00000000000E+00  0.00000000000E+00 -0.37814645122E+02  0.96484399027E+02  0.88765375400E+02 0.  0.
        -13    1    3    3    0    0 -0.18480448562E+02 -0.40105227370E+02 -0.14063876125E+02  0.46343931918E+02  0.10570000000E+00 0.  1.
         13    1    3    3    0    0  0.18480448562E+02  0.40105227370E+02 -0.23750768997E+02  0.50140467109E+02  0.10570000000E+00 0. -1.
<mgrwt>
<rscale>  0 0.88765375E+02</rscale>
<asrwt>0</asrwt>
<pdfrwt beam="2">  1        2 0.10330696E-01 0.88765375E+02</pdfrwt>
<pdfrwt beam="1">  1       -2 0.45130580E-02 0.88765375E+02</pdfrwt>
<totfact> 0.11786599E+05</totfact>
</mgrwt>
</event>
<event>
 5   1  0.1343823E+00  0.9033691E+02  0.7818608E-02  0.1302038E+00
          2   -1    0    0  501    0  0.00000000000E+00  0.00000000000E+00  0.27767719891E+02  0.27767720013E+02  0.26000000000E-02 0. -1.
         -2   -1    0    0    0  501 -0.00000000000E+00 -0.00000000000E+00 -0.73473423657E+02  0.73473423703E+02  0.26000000000E-02 0.  1.
         23    2    1    2    0    0  0.00000000000E+00  0.00000000000E+00 -0.45705703766E+02  0.10124114372E+03  0.90336912855E+02 0.  0.
        -13    1    3    3    0    0 -0.45075147131E+02 -0.28651561071E+01 -0.23354391652E+02  0.50846993916E+02  0.10570000000E+00 0.  1.
         13    1    3    3    0    0  0.45075147131E+02  0.28651561071E+01 -0.22351312114E+02  0.50394149800E+02  0.10570000000E+00 0. -1.
<mgrwt>
<rscale>  0 0.90336913E+02</rscale>
<asrwt>0</asrwt>
<pdfrwt beam="1">  1        2 0.42719569E-02 0.90336913E+02</pdfrwt>
<pdfrwt beam="2">  1       -2 0.11303604E-01 0.90336913E+02</pdfrwt>
<totfact> 0.89070240E+04</totfact>
</mgrwt>
</event>
<event>
 5   1  0.1343823E+00  0.9349545E+02  0.7818608E-02  0.1294601E+00
         -2   -1    0    0    0  501 -0.00000000000E+00  0.00000000000E+00  0.90003134317E+01  0.90003138072E+01  0.26000000000E-02 0.  1.
          2   -1    0    0  501    0  0.00000000000E+00 -0.00000000000E+00 -0.24280817173E+03  0.24280817174E+03  0.26000000000E-02 0. -1.
         23    2    1    2    0    0  0.00000000000E+00  0.00000000000E+00 -0.23380785830E+03  0.25180848555E+03  0.93495447983E+02 0.  0.
        -13    1    3    3    0    0  0.30902625762E+02  0.25099123889E+02 -0.50910557393E+02  0.64628432794E+02  0.10570000000E+00 0.  1.
         13    1    3    3    0    0 -0.30902625762E+02 -0.25099123889E+02 -0.18289730091E+03  0.18718005276E+03  0.10570000000E+00 0. -1.
<mgrwt>
<rscale>  0 0.93495448E+02</rscale>
<asrwt>0</asrwt>
<pdfrwt beam="2">  1        2 0.37355098E-01 0.93495448E+02</pdfrwt>
<pdfrwt beam="1">  1       -2 0.13846638E-02 0.93495448E+02</pdfrwt>
<totfact> 0.15522937E+05</totfact>
</mgrwt>
</event>
<event>
 5   1  0.1343823E+00  0.8925368E+02  0.7818608E-02  0.1304669E+00
          2   -1    0    0  501    0  0.00000000000E+00  0.00000000000E+00  0.73966545820E+01  0.73966550390E+01  0.26000000000E-02 0.  1.
         -2   -1    0    0    0  501 -0.00000000000E+00 -0.00000000000E+00 -0.26925076621E+03  0.26925076622E+03  0.26000000000E-02 0. -1.
         23    2    1    2    0    0  0.00000000000E+00  0.00000000000E+00 -0.26185411162E+03  0.27664742126E+03  0.89253682916E+02 0.  0.
        -13    1    3    3    0    0  0.87954211101E+01  0.43166167745E+02 -0.10882077373E+03  0.11739952912E+03  0.10570000000E+00 0.  1.
         13    1    3    3    0    0 -0.87954211101E+01 -0.43166167745E+02 -0.15303333789E+03  0.15924789214E+03  0.10570000000E+00 0. -1.
<mgrwt>
<rscale>  0 0.89253683E+02</rscale>
<asrwt>0</asrwt>
<pdfrwt beam="1">  1        2 0.11379471E-02 0.89253683E+02</pdfrwt>
<pdfrwt beam="2">  1       -2 0.41423187E-01 0.89253683E+02</pdfrwt>
<totfact> 0.57128156E+04</totfact>
</mgrwt>
</event>
<event>
 5   1  0.1343823E+00  0.9040251E+02  0.7818608E-02  0.1301880E+00
          2   -1    0    0  501    0  0.00000000000E+00  0.00000000000E+00  0.56308278295E+02  0.56308278355E+02  0.26000000000E-02 0. -1.
         -2   -1    0    0    0  501 -0.00000000000E+00 -0.00000000000E+00 -0.36285130828E+02  0.36285130921E+02  0.26000000000E-02 0.  1.
         23    2    1    2    0    0  0.00000000000E+00  0.00000000000E+00  0.20023147468E+02  0.92593409276E+02  0.90402505534E+02 0.  0.
        -13    1    3    3    0    0 -0.32574986087E+02  0.22654046083E+02  0.32188249471E+02  0.51092368305E+02  0.10570000000E+00 0. -1.
         13    1    3    3    0    0  0.32574986087E+02 -0.22654046083E+02 -0.12165102003E+02  0.41501040972E+02  0.10570000000E+00 0.  1.
<mgrwt>
<rscale>  0 0.90402506E+02</rscale>
<asrwt>0</asrwt>
<pdfrwt beam="1">  1        2 0.86628121E-02 0.90402506E+02</pdfrwt>
<pdfrwt beam="2">  1       -2 0.55823278E-02 0.90402506E+02</pdfrwt>
<totfact> 0.10683270E+05</totfact>
</mgrwt>
</event>
<event>
 5   1  0.1343823E+00  0.9170981E+02  0.7818608E-02  0.1298763E+00
          2   -1    0    0  501    0  0.00000000000E+00  0.00000000000E+00  0.19085255439E+02  0.19085255616E+02  0.26000000000E-02 0.  1.
         -2   -1    0    0    0  501 -0.00000000000E+00 -0.00000000000E+00 -0.11017260420E+03  0.11017260423E+03  0.26000000000E-02 0. -1.
         23    2    1    2    0    0  0.00000000000E+00  0.00000000000E+00 -0.91087348762E+02  0.12925785985E+03  0.91709809880E+02 0.  0.
        -13    1    3    3    0    0 -0.19779577656E+01 -0.39335355885E+02 -0.78641959902E+02  0.87953121430E+02  0.10570000000E+00 0.  1.
         13    1    3    3    0    0  0.19779577656E+01  0.39335355885E+02 -0.12445388860E+02  0.41304738419E+02  0.10570000000E+00 0. -1.
<mgrwt>
<rscale>  0 0.91709810E+02</rscale>
<asrwt>0</asrwt>
<pdfrwt beam="1">  1        2 0.29361932E-02 0.91709810E+02</pdfrwt>
<pdfrwt beam="2">  1       -2 0.16949631E-01 0.91709810E+02</pdfrwt>
<totfact> 0.76365207E+04</totfact>
</mgrwt>
</event>
<event>
 5   1  0.1343823E+00  0.9077497E+02  0.7818608E-02  0.1300986E+00
          2   -1    0    0  501    0  0.00000000000E+00  0.00000000000E+00  0.58411355953E+01  0.58411361740E+01  0.26000000000E-02 0. -1.
         -2   -1    0    0    0  501 -0.00000000000E+00 -0.00000000000E+00 -0.35267519826E+03  0.35267519827E+03  0.26000000000E-02 0.  1.
         23    2    1    2    0    0  0.00000000000E+00  0.00000000000E+00 -0.34683406266E+03  0.35851633444E+03  0.90774969228E+02 0.  0.
        -13    1    3    3    0    0 -0.14796421476E+02  0.41570349235E+02 -0.21539799392E+03  0.21987117815E+03  0.10570000000E+00 0.  1.
         13    1    3    3    0    0  0.14796421476E+02 -0.41570349235E+02 -0.13143606874E+03  0.13864515629E+03  0.10570000000E+00 0. -1.
<mgrwt>
<rscale>  0 0.90774969E+02</rscale>
<asrwt>0</asrwt>
<pdfrwt beam="1">  1        2 0.89863657E-03 0.90774969E+02</pdfrwt>
<pdfrwt beam="2">  1       -2 0.54257706E-01 0.90774969E+02</pdfrwt>
<totfact> 0.46866686E+04</totfact>
</mgrwt>
</event>
<event>
 5   1  0.1343823E+00  0.9232301E+02  0.7818608E-02  0.1297322E+00
          2   -1    0    0  501    0  0.00000000000E+00  0.00000000000E+00  0.20181253778E+02  0.20181253945E+02  0.26000000000E-02 0. -1.
         -2   -1    0    0    0  501 -0.00000000000E+00 -0.00000000000E+00 -0.10558732941E+03  0.10558732944E+03  0.26000000000E-02 0.  1.
         23    2    1    2    0    0  0.00000000000E+00  0.00000000000E+00 -0.85406075632E+02  0.12576858339E+03  0.92323013450E+02 0.  0.
        -13    1    3    3    0    0  0.33980680672E+02  0.26371146999E+01 -0.29226548667E+00  0.34084272392E+02  0.10570000000E+00 0. -1.
         13    1    3    3    0    0 -0.33980680672E+02 -0.26371146999E+01 -0.85113810145E+02  0.91684310996E+02  0.10570000000E+00 0.  1.
<mgrwt>
<rscale>  0 0.92323013E+02</rscale>
<asrwt>0</asrwt>
<pdfrwt beam="1">  1        2 0.31048084E-02 0.92323013E+02</pdfrwt>
<pdfrwt beam="2">  1       -2 0.16244204E-01 0.92323013E+02</pdfrwt>
<totfact> 0.76096435E+04</totfact>
</mgrwt>
</event>
<event>
 5   1  0.1343823E+00  0.9195458E+02  0.7818608E-02  0.1298186E+00
         -2   -1    0    0    0  501 -0.00000000000E+00  0.00000000000E+00  0.20054572711E+02  0.20054572880E+02  0.26000000000E-02 0.  1.
          2   -1    0    0  501    0  0.00000000000E+00 -0.00000000000E+00 -0.10540792936E+03  0.10540792939E+03  0.26000000000E-02 0. -1.
         23    2    1    2    0    0  0.00000000000E+00  0.00000000000E+00 -0.85353356645E+02  0.12546250227E+03  0.91954575660E+02 0.  0.
        -13    1    3    3    0    0  0.20713319488E+02  0.40770704267E+02 -0.36189278785E+02  0.58317810334E+02  0.10570000000E+00 0.  1.
         13    1    3    3    0    0 -0.20713319488E+02 -0.40770704267E+02 -0.49164077860E+02  0.67144691935E+02  0.10570000000E+00 0. -1.
<mgrwt>
<rscale>  0 0.91954576E+02</rscale>
<asrwt>0</asrwt>
<pdfrwt beam="2">  1        2 0.16216604E-01 0.91954576E+02</pdfrwt>
<pdfrwt beam="1">  1       -2 0.30853189E-02 0.91954576E+02</pdfrwt>
<totfact> 0.12179430E+05</totfact>
</mgrwt>
</event>
<event>
 5   1  0.1343823E+00  0.9072807E+02  0.7818608E-02  0.1301098E+00
         -2   -1    0    0    0  501 -0.00000000000E+00  0.00000000000E+00  0.46797966583E+02  0.46797966655E+02  0.26000000000E-02 0.  1.
          2   -1    0    0  501    0  0.00000000000E+00 -0.00000000000E+00 -0.43974042198E+02  0.43974042275E+02  0.26000000000E-02 0. -1.
         23    2    1    2    0    0  0.00000000000E+00  0.00000000000E+00  0.28239243855E+01  0.90772008930E+02  0.90728072041E+02 0.  0.
        -13    1    3    3    0    0 -0.26253913740E+02  0.60648311343E+01  0.37923942085E+02  0.46521895051E+02  0.10570000000E+00 0.  1.
         13    1    3    3    0    0  0.26253913740E+02 -0.60648311343E+01 -0.35100017699E+02  0.44250113879E+02  0.10570000000E+00 0. -1.
<mgrwt>
<rscale>  0 0.90728072E+02</rscale>
<asrwt>0</asrwt>
<pdfrwt beam="2">  1        2 0.67652373E-02 0.90728072E+02</pdfrwt>
<pdfrwt beam="1">  1       -2 0.71996872E-02 0.90728072E+02</pdfrwt>
<totfact> 0.99152626E+04</totfact>
</mgrwt>
</event>
<event>
 5   1  0.1343823E+00  0.9192354E+02  0.7818608E-02  0.1298259E+00
         -2   -1    0    0    0  501 -0.00000000000E+00  0.00000000000E+00  0.50092775100E+01  0.50092781848E+01  0.26000000000E-02 0.  1.
          2   -1    0    0  501    0  0.00000000000E+00 -0.00000000000E+00 -0.42171435891E+03  0.42171435892E+03  0.26000000000E-02 0. -1.
         23    2    1    2    0    0  0.00000000000E+00  0.00000000000E+00 -0.41670508140E+03  0.42672363710E+03  0.91923542129E+02 0.  0.
        -13    1    3    3    0    0 -0.44873738637E+02  0.95991713800E+01 -0.19635750858E+03  0.20164840406E+03  0.10570000000E+00 0. -1.
         13    1    3    3    0    0  0.44873738637E+02 -0.95991713800E+01 -0.22034757281E+03  0.22507523304E+03  0.10570000000E+00 0.  1.
<mgrwt>
<rscale>  0 0.91923542E+02</rscale>
<asrwt>0</asrwt>
<pdfrwt beam="2">  1        2 0.64879104E-01 0.91923542E+02</pdfrwt>
<pdfrwt beam="1">  1       -2 0.77065847E-03 0.91923542E+02</pdfrwt>
<totfact> 0.19904448E+05</totfact>
</mgrwt>
</event>
<event>
 5   1  0.1343823E+00  0.8788716E+02  0.7818608E-02  0.1308050E+00
         -2   -1    0    0    0  501 -0.00000000000E+00  0.00000000000E+00  0.48048960387E+01  0.48048967422E+01  0.26000000000E-02 0.  1.
          2   -1    0    0  501    0  0.00000000000E+00 -0.00000000000E+00 -0.40188963107E+03  0.40188963108E+03  0.26000000000E-02 0. -1.
         23    2    1    2    0    0  0.00000000000E+00  0.00000000000E+00 -0.39708473503E+03  0.40669452782E+03  0.87887155856E+02 0.  0.
        -13    1    3    3    0    0  0.25663362058E+02 -0.35480428134E+02 -0.21558119507E+03  0.21998348068E+03  0.10570000000E+00 0. -1.
         13    1    3    3    0    0 -0.25663362058E+02  0.35480428134E+02 -0.18150353996E+03  0.18671104714E+03  0.10570000000E+00 0.  1.
<mgrwt>
<rscale>  0 0.87887156E+02</rscale>
<asrwt>0</asrwt>
<pdfrwt beam="2">  1        2 0.61829148E-01 0.87887156E+02</pdfrwt>
<pdfrwt beam="1">  1       -2 0.73921514E-03 0.87887156E+02</pdfrwt>
<totfact> 0.22039961E+05</totfact>
</mgrwt>
</event>
<event>
 5   1  0.1343823E+00  0.9149375E+02  0.7818608E-02  0.1299274E+00
          2   -1    0    0  501    0  0.00000000000E+00  0.00000000000E+00  0.20765606990E+03  0.20765606992E+03  0.26000000000E-02 0. -1.
         -2   -1    0    0    0  501 -0.00000000000E+00 -0.00000000000E+00 -0.10078090778E+02  0.10078091113E+02  0.26000000000E-02 0.  1.
         23    2    1    2    0    0  0.00000000000E+00  0.00000000000E+00  0.19757797912E+03  0.21773416103E+03  0.91493754133E+02 0.  0.
        -13    1    3    3    0    0 -0.73707828895E+01  0.45131479691E+02  0.10178664064E+03  0.11158723172E+03  0.10570000000E+00 0. -1.
         13    1    3    3    0    0  0.73707828895E+01 -0.45131479691E+02  0.95791338487E+02  0.10614692931E+03  0.10570000000E+00 0.  1.
<mgrwt>
<rscale>  0 0.91493754E+02</rscale>
<asrwt>0</asrwt>
<pdfrwt beam="1">  1        2 0.31947087E-01 0.91493754E+02</pdfrwt>
<pdfrwt beam="2">  1       -2 0.15504756E-02 0.91493754E+02</pdfrwt>
<totfact> 0.15534296E+05</totfact>
</mgrwt>
</event>
<event>
 5   1  0.1343823E+00  0.1021660E+03  0.7818608E-02  0.1275806E+00
         -2   -1    0    0    0  501 -0.00000000000E+00  0.00000000000E+00  0.21887040055E+02  0.21887040210E+02  0.26000000000E-02 0.  1.
          2   -1    0    0  501    0  0.00000000000E+00 -0.00000000000E+00 -0.11922455480E+03  0.11922455482E+03  0.26000000000E-02 0. -1.
         23    2    1    2    0    0  0.00000000000E+00  0.00000000000E+00 -0.97337514741E+02  0.14111159503E+03  0.10216599472E+03 0.  0.
        -13    1    3    3    0    0 -0.40158241809E+02  0.23980048660E+02 -0.20304213150E+02  0.50990188890E+02  0.10570000000E+00 0.  1.
         13    1    3    3    0    0  0.40158241809E+02 -0.23980048660E+02 -0.77033301591E+02  0.90121406144E+02  0.10570000000E+00 0. -1.
<mgrwt>
<rscale>  0 0.10216599E+03</rscale>
<asrwt>0</asrwt>
<pdfrwt beam="2">  1        2 0.18342239E-01 0.10216599E+03</pdfrwt>
<pdfrwt beam="1">  1       -2 0.33672370E-02 0.10216599E+03</pdfrwt>
<totfact> 0.94679980E+04</totfact>
</mgrwt>
</event>
<event>
 5   1  0.1343823E+00  0.8472296E+02  0.7818608E-02  0.1316159E+00
         -2   -1    0    0    0  501 -0.00000000000E+00  0.00000000000E+00  0.74690775260E+01  0.74690779785E+01  0.26000000000E-02 0.  1.
          2   -1    0    0  501    0  0.00000000000E+00 -0.00000000000E+00 -0.24025654121E+03  0.24025654122E+03  0.26000000000E-02 0. -1.
         23    2    1    2    0    0  0.00000000000E+00  0.00000000000E+00 -0.23278746368E+03  0.24772561920E+03  0.84722955336E+02 0.  0.
        -13    1    3    3    0    0  0.10667059416E+01  0.38103590127E+02 -0.17042449821E+03  0.17463545518E+03  0.10570000000E+00 0. -1.
         13    1    3    3    0    0 -0.10667059416E+01 -0.38103590127E+02 -0.62362965472E+02  0.73090164024E+02  0.10570000000E+00 0.  1.
<mgrwt>
<rscale>  0 0.84722955E+02</rscale>
<asrwt>0</asrwt>
<pdfrwt beam="2">  1        2 0.36962539E-01 0.84722955E+02</pdfrwt>
<pdfrwt beam="1">  1       -2 0.11490891E-02 0.84722955E+02</pdfrwt>
<totfact> 0.20119732E+05</totfact>
</mgrwt>
</event>
<event>
 5   1  0.1343823E+00  0.9520417E+02  0.7818608E-02  0.1290717E+00
         -2   -1    0    0    0  501 -0.00000000000E+00  0.00000000000E+00  0.43897153402E+02  0.43897153479E+02  0.26000000000E-02 0.  1.
          2   -1    0    0  501    0  0.00000000000E+00 -0.00000000000E+00 -0.51619709314E+02  0.51619709379E+02  0.26000000000E-02 0. -1.
         23    2    1    2    0    0  0.00000000000E+00  0.00000000000E+00 -0.77225559118E+01  0.95516862858E+02  0.95204165982E+02 0.  0.
        -13    1    3    3    0    0  0.23377348515E+02  0.40840075126E+02 -0.11063642891E+02  0.48340743957E+02  0.10570000000E+00 0. -1.
         13    1    3    3    0    0 -0.23377348515E+02 -0.40840075126E+02  0.33410869791E+01  0.47176118901E+02  0.10570000000E+00 0.  1.
<mgrwt>
<rscale>  0 0.95204166E+02</rscale>
<asrwt>0</asrwt>
<pdfrwt beam="2">  1        2 0.79414937E-02 0.95204166E+02</pdfrwt>
<pdfrwt beam="1">  1       -2 0.67534083E-02 0.95204166E+02</pdfrwt>
<totfact> 0.90068845E+04</totfact>
</mgrwt>
</event>
<event>
 5   1  0.1343823E+00  0.9080611E+02  0.7818608E-02  0.1300911E+00
          2   -1    0    0  501    0  0.00000000000E+00  0.00000000000E+00  0.22694458820E+03  0.22694458821E+03  0.26000000000E-02 0. -1.
         -2   -1    0    0    0  501 -0.00000000000E+00 -0.00000000000E+00 -0.90834390186E+01  0.90834393907E+01  0.26000000000E-02 0.  1.
         23    2    1    2    0    0  0.00000000000E+00  0.00000000000E+00  0.21786114918E+03  0.23602802760E+03  0.90806109335E+02 0.  0.
        -13    1    3    3    0    0  0.37353075103E+02  0.69986399018E+01  0.17350477124E+03  0.17761798894E+03  0.10570000000E+00 0. -1.
         13    1    3    3    0    0 -0.37353075103E+02 -0.69986399018E+01  0.44356377940E+02  0.58410038662E+02  0.10570000000E+00 0.  1.
<mgrwt>
<rscale>  0 0.90806109E+02</rscale>
<asrwt>0</asrwt>
<pdfrwt beam="1">  1        2 0.34914551E-01 0.90806109E+02</pdfrwt>
<pdfrwt beam="2">  1       -2 0.13974522E-02 0.90806109E+02</pdfrwt>
<totfact> 0.16375661E+05</totfact>
</mgrwt>
</event>
<event>
 5   1  0.1343823E+00  0.9282234E+02  0.7818608E-02  0.1296157E+00
          2   -1    0    0  501    0  0.00000000000E+00  0.00000000000E+00  0.31899637362E+03  0.31899637363E+03  0.26000000000E-02 0. -1.
         -2   -1    0    0    0  501 -0.00000000000E+00 -0.00000000000E+00 -0.67524170894E+01  0.67524175900E+01  0.26000000000E-02 0.  1.
         23    2    1    2    0    0  0.00000000000E+00  0.00000000000E+00  0.31224395653E+03  0.32574879122E+03  0.92822338862E+02 0.  0.
        -13    1    3    3    0    0 -0.20400278982E+02 -0.34286402704E+02  0.72907744510E+02  0.83110042563E+02  0.10570000000E+00 0.  1.
         13    1    3    3    0    0  0.20400278982E+02  0.34286402704E+02  0.23933621202E+03  0.24263874866E+03  0.10570000000E+00 0. -1.
<mgrwt>
<rscale>  0 0.92822339E+02</rscale>
<asrwt>0</asrwt>
<pdfrwt beam="1">  1        2 0.49076359E-01 0.92822339E+02</pdfrwt>
<pdfrwt beam="2">  1       -2 0.10388336E-02 0.92822339E+02</pdfrwt>
<totfact> 0.17523630E+05</totfact>
</mgrwt>
</event>
<event>
 5   1  0.1343823E+00  0.9295952E+02  0.7818608E-02  0.1295839E+00
          2   -1    0    0  501    0  0.00000000000E+00  0.00000000000E+00  0.48677466418E+02  0.48677466487E+02  0.26000000000E-02 0. -1.
         -2   -1    0    0    0  501 -0.00000000000E+00 -0.00000000000E+00 -0.44381275318E+02  0.44381275394E+02  0.26000000000E-02 0.  1.
         23    2    1    2    0    0  0.00000000000E+00  0.00000000000E+00  0.42961910997E+01  0.93058741882E+02  0.92959519053E+02 0.  0.
        -13    1    3    3    0    0  0.17201845398E+02  0.16415307713E+02 -0.37831871817E+02  0.44683638058E+02  0.10570000000E+00 0.  1.
         13    1    3    3    0    0 -0.17201845398E+02 -0.16415307713E+02  0.42128062917E+02  0.48375103824E+02  0.10570000000E+00 0. -1.
<mgrwt>
<rscale>  0 0.92959519E+02</rscale>
<asrwt>0</asrwt>
<pdfrwt beam="1">  1        2 0.74888410E-02 0.92959519E+02</pdfrwt>
<pdfrwt beam="2">  1       -2 0.68278886E-02 0.92959519E+02</pdfrwt>
<totfact> 0.94954703E+04</totfact>
</mgrwt>
</event>
<event>
 5   1  0.1343823E+00  0.9150104E+02  0.7818608E-02  0.1299257E+00
          2   -1    0    0  501    0  0.00000000000E+00  0.00000000000E+00  0.26039089652E+03  0.26039089654E+03  0.26000000000E-02 0.  1.
         -2   -1    0    0    0  501 -0.00000000000E+00 -0.00000000000E+00 -0.80383379392E+01  0.80383383597E+01  0.26000000000E-02 0. -1.
         23    2    1    2    0    0  0.00000000000E+00  0.00000000000E+00  0.25235255858E+03  0.26842923490E+03  0.91501040010E+02 0.  0.
        -13    1    3    3    0    0  0.39512174120E+02 -0.17437325544E+02  0.17045612268E+03  0.17584246688E+03  0.10570000000E+00 0.  1.
         13    1    3    3    0    0 -0.39512174120E+02  0.17437325544E+02  0.81896435902E+02  0.92586768017E+02  0.10570000000E+00 0. -1.
<mgrwt>
<rscale>  0 0.91501040E+02</rscale>
<asrwt>0</asrwt>
<pdfrwt beam="1">  1        2 0.40060136E-01 0.91501040E+02</pdfrwt>
<pdfrwt beam="2">  1       -2 0.12366675E-02 0.91501040E+02</pdfrwt>
<totfact> 0.16880502E+05</totfact>
</mgrwt>
</event>
<event>
 5   1  0.1343823E+00  0.9099242E+02  0.7818608E-02  0.1300466E+00
         -2   -1    0    0    0  501 -0.00000000000E+00  0.00000000000E+00  0.31404536270E+02  0.31404536378E+02  0.26000000000E-02 0.  1.
          2   -1    0    0  501    0  0.00000000000E+00 -0.00000000000E+00 -0.65911022938E+02  0.65911022990E+02  0.26000000000E-02 0. -1.
         23    2    1    2    0    0  0.00000000000E+00  0.00000000000E+00 -0.34506486668E+02  0.97315559367E+02  0.90992419864E+02 0.  0.
        -13    1    3    3    0    0 -0.36789132001E+02  0.16312456210E+02 -0.39949579788E+02  0.56705524940E+02  0.10570000000E+00 0. -1.
         13    1    3    3    0    0  0.36789132001E+02 -0.16312456210E+02  0.54430931193E+01  0.40610034427E+02  0.10570000000E+00 0.  1.
<mgrwt>
<rscale>  0 0.90992420E+02</rscale>
<asrwt>0</asrwt>
<pdfrwt beam="2">  1        2 0.10140157E-01 0.90992420E+02</pdfrwt>
<pdfrwt beam="1">  1       -2 0.48314672E-02 0.90992420E+02</pdfrwt>
<totfact> 0.10942269E+05</totfact>
</mgrwt>
</event>
<event>
 5   1  0.1343823E+00  0.9284113E+02  0.7818608E-02  0.1296114E+00
         -2   -1    0    0    0  501 -0.00000000000E+00  0.00000000000E+00  0.45848413488E+03  0.45848413488E+03  0.26000000000E-02 0.  1.
          2   -1    0    0  501    0  0.00000000000E+00 -0.00000000000E+00 -0.46999853142E+01  0.46999860333E+01  0.26000000000E-02 0. -1.
         23    2    1    2    0    0  0.00000000000E+00  0.00000000000E+00  0.45378414956E+03  0.46318412092E+03  0.92841130303E+02 0.  0.
        -13    1    3    3    0    0  0.16970637438E+02 -0.42686427389E+02  0.19352762691E+03  0.19890471881E+03  0.10570000000E+00 0.  1.
         13    1    3    3    0    0 -0.16970637438E+02  0.42686427389E+02  0.26025652266E+03  0.26427940210E+03  0.10570000000E+00 0. -1.
<mgrwt>
<rscale>  0 0.92841130E+02</rscale>
<asrwt>0</asrwt>
<pdfrwt beam="2">  1        2 0.72307484E-03 0.92841130E+02</pdfrwt>
<pdfrwt beam="1">  1       -2 0.70536009E-01 0.92841130E+02</pdfrwt>
<totfact> 0.36993062E+04</totfact>
</mgrwt>
</event>
<event>
 5   1  0.1343823E+00  0.8983528E+02  0.7818608E-02  0.1303251E+00
         -2   -1    0    0    0  501 -0.00000000000E+00  0.00000000000E+00  0.24058094903E+02  0.24058095043E+02  0.26000000000E-02 0.  1.
          2   -1    0    0  501    0  0.00000000000E+00 -0.00000000000E+00 -0.83863426746E+02  0.83863426787E+02  0.26000000000E-02 0. -1.
         23    2    1    2    0    0  0.00000000000E+00  0.00000000000E+00 -0.59805331844E+02  0.10792152183E+03  0.89835277909E+02 0.  0.
        -13    1    3    3    0    0  0.40606590727E+02  0.57810068415E+00 -0.68461507745E+01  0.41183860477E+02  0.10570000000E+00 0.  1.
         13    1    3    3    0    0 -0.40606590727E+02 -0.57810068415E+00 -0.52959181069E+02  0.66737661353E+02  0.10570000000E+00 0. -1.
<mgrwt>
<rscale>  0 0.89835278E+02</rscale>
<asrwt>0</asrwt>
<pdfrwt beam="2">  1        2 0.12902066E-01 0.89835278E+02</pdfrwt>
<pdfrwt beam="1">  1       -2 0.37012454E-02 0.89835278E+02</pdfrwt>
<totfact> 0.12130191E+05</totfact>
</mgrwt>
</event>
<event>
 5   1  0.1343823E+00  0.7901366E+02  0.7818608E-02  0.1331874E+00
          2   -1    0    0  501    0  0.00000000000E+00  0.00000000000E+00  0.39362174815E+01  0.39362183402E+01  0.26000000000E-02 0. -1.
         -2   -1    0    0    0  501 -0.00000000000E+00 -0.00000000000E+00 -0.39652007830E+03  0.39652007831E+03  0.26000000000E-02 0.  1.
         23    2    1    2    0    0  0.00000000000E+00  0.00000000000E+00 -0.39258386082E+03  0.40045629665E+03  0.79013655468E+02 0.  0.
        -13    1    3    3    0    0 -0.15668812141E+02 -0.35602387757E+02 -0.16127495668E+03  0.16589956152E+03  0.10570000000E+00 0. -1.
         13    1    3    3    0    0  0.15668812141E+02  0.35602387757E+02 -0.23130890414E+03  0.23455673513E+03  0.10570000000E+00 0.  1.
<mgrwt>
<rscale>  0 0.79013655E+02</rscale>
<asrwt>0</asrwt>
<pdfrwt beam="1">  1        2 0.60557230E-03 0.79013655E+02</pdfrwt>
<pdfrwt beam="2">  1       -2 0.61003058E-01 0.79013655E+02</pdfrwt>
<totfact> 0.62070538E+04</totfact>
</mgrwt>
</event>
<event>
 5   1  0.1343823E+00  0.1035060E+03  0.7818608E-02  0.1273091E+00
         -2   -1    0    0    0  501 -0.00000000000E+00  0.00000000000E+00  0.10258870772E+02  0.10258871102E+02  0.26000000000E-02 0.  1.
          2   -1    0    0  501    0  0.00000000000E+00 -0.00000000000E+00 -0.26107867462E+03  0.26107867463E+03  0.26000000000E-02 0. -1.
         23    2    1    2    0    0  0.00000000000E+00  0.00000000000E+00 -0.25081980385E+03  0.27133754574E+03  0.10350598883E+03 0.  0.
        -13    1    3    3    0    0 -0.85965097131E+01 -0.49940423213E+02 -0.97863856756E+02  0.11020567808E+03  0.10570000000E+00 0.  1.
         13    1    3    3    0    0  0.85965097131E+01  0.49940423213E+02 -0.15295594709E+03  0.16113186765E+03  0.10570000000E+00 0. -1.
<mgrwt>
<rscale>  0 0.10350599E+03</rscale>
<asrwt>0</asrwt>
<pdfrwt beam="2">  1        2 0.40165945E-01 0.10350599E+03</pdfrwt>
<pdfrwt beam="1">  1       -2 0.15782880E-02 0.10350599E+03</pdfrwt>
<totfact> 0.12117911E+05</totfact>
</mgrwt>
</event>
<event>
 5   1  0.1343823E+00  0.9208979E+02  0.7818608E-02  0.1297868E+00
         -2   -1    0    0    0  501 -0.00000000000E+00  0.00000000000E+00  0.12376896350E+03  0.12376896353E+03  0.26000000000E-02 0.  1.
          2   -1    0    0  501    0  0.00000000000E+00 -0.00000000000E+00 -0.17129755905E+02  0.17129756103E+02  0.26000000000E-02 0. -1.
         23    2    1    2    0    0  0.00000000000E+00  0.00000000000E+00  0.10663920760E+03  0.14089871963E+03  0.92089785520E+02 0.  0.
        -13    1    3    3    0    0 -0.11309904543E+02  0.42081720362E+02  0.30557024909E+02  0.53221500103E+02  0.10570000000E+00 0.  1.
         13    1    3    3    0    0  0.11309904543E+02 -0.42081720362E+02  0.76082182689E+02  0.87677219530E+02  0.10570000000E+00 0. -1.
<mgrwt>
<rscale>  0 0.92089786E+02</rscale>
<asrwt>0</asrwt>
<pdfrwt beam="2">  1        2 0.26353470E-02 0.92089786E+02</pdfrwt>
<pdfrwt beam="1">  1       -2 0.19041379E-01 0.92089786E+02</pdfrwt>
<totfact> 0.72811950E+04</totfact>
</mgrwt>
</event>
<event>
 5   1  0.1343823E+00  0.9119985E+02  0.7818608E-02  0.1299972E+00
         -2   -1    0    0    0  501 -0.00000000000E+00  0.00000000000E+00  0.28966089016E+03  0.28966089017E+03  0.26000000000E-02 0. -1.
          2   -1    0    0  501    0  0.00000000000E+00 -0.00000000000E+00 -0.71785769765E+01  0.71785774474E+01  0.26000000000E-02 0.  1.
         23    2    1    2    0    0  0.00000000000E+00  0.00000000000E+00  0.28248231318E+03  0.29683946762E+03  0.91199847998E+02 0.  0.
        -13    1    3    3    0    0  0.35660083551E+02  0.26960268804E+02  0.11197591728E+03  0.12056995843E+03  0.10570000000E+00 0.  1.
         13    1    3    3    0    0 -0.35660083551E+02 -0.26960268804E+02  0.17050639590E+03  0.17626950919E+03  0.10570000000E+00 0. -1.
<mgrwt>
<rscale>  0 0.91199848E+02</rscale>
<asrwt>0</asrwt>
<pdfrwt beam="2">  1        2 0.11043966E-02 0.91199848E+02</pdfrwt>
<pdfrwt beam="1">  1       -2 0.44563208E-01 0.91199848E+02</pdfrwt>
<totfact> 0.51971675E+04</totfact>
</mgrwt>
</event>
<event>
 5   1  0.1343823E+00  0.9268031E+02  0.7818608E-02  0.1296488E+00
          2   -1    0    0  501    0  0.00000000000E+00  0.00000000000E+00  0.50261286758E+01  0.50261293483E+01  0.26000000000E-02 0. -1.
         -2   -1    0    0    0  501 -0.00000000000E+00 -0.00000000000E+00 -0.42724929589E+03  0.42724929589E+03  0.26000000000E-02 0.  1.
         23    2    1    2    0    0  0.00000000000E+00  0.00000000000E+00 -0.42222316721E+03  0.43227542524E+03  0.92680312576E+02 0.  0.
        -13    1    3    3    0    0 -0.24564837279E+02 -0.38985485447E+02 -0.23400855441E+03  0.23850223063E+03  0.10570000000E+00 0. -1.
         13    1    3    3    0    0  0.24564837279E+02  0.38985485447E+02 -0.18821461280E+03  0.19377319461E+03  0.10570000000E+00 0.  1.
<mgrwt>
<rscale>  0 0.92680313E+02</rscale>
<asrwt>0</asrwt>
<pdfrwt beam="1">  1        2 0.77325095E-03 0.92680313E+02</pdfrwt>
<pdfrwt beam="2">  1       -2 0.65730632E-01 0.92680313E+02</pdfrwt>
<totfact> 0.39100806E+04</totfact>
</mgrwt>
</event>
<event>
 5   1  0.1343823E+00  0.9072956E+02  0.7818608E-02  0.1301095E+00
          2   -1    0    0  501    0  0.00000000000E+00  0.00000000000E+00  0.19986928693E+03  0.19986928694E+03  0.26000000000E-02 0.  1.
         -2   -1    0    0    0  501 -0.00000000000E+00 -0.00000000000E+00 -0.10296545566E+02  0.10296545895E+02  0.26000000000E-02 0. -1.
         23    2    1    2    0    0  0.00000000000E+00  0.00000000000E+00  0.18957274136E+03  0.21016583284E+03  0.90729559824E+02 0.  0.
        -13    1    3    3    0    0 -0.41542480895E+02  0.21718020347E+01  0.52869304950E+02  0.67273092848E+02  0.10570000000E+00 0.  1.
         13    1    3    3    0    0  0.41542480895E+02 -0.21718020347E+01  0.13670343641E+03  0.14289273999E+03  0.10570000000E+00 0. -1.
<mgrwt>
<rscale>  0 0.90729560E+02</rscale>
<asrwt>0</asrwt>
<pdfrwt beam="1">  1        2 0.30749118E-01 0.90729560E+02</pdfrwt>
<pdfrwt beam="2">  1       -2 0.15840841E-02 0.90729560E+02</pdfrwt>
<totfact> 0.15670302E+05</totfact>
</mgrwt>
</event>
<event>
 5   1  0.1343823E+00  0.9131216E+02  0.7818608E-02  0.1299705E+00
         -2   -1    0    0    0  501 -0.00000000000E+00  0.00000000000E+00  0.23716391932E+02  0.23716392075E+02  0.26000000000E-02 0. -1.
          2   -1    0    0  501    0  0.00000000000E+00 -0.00000000000E+00 -0.87891862116E+02  0.87891862155E+02  0.26000000000E-02 0.  1.
         23    2    1    2    0    0  0.00000000000E+00  0.00000000000E+00 -0.64175470184E+02  0.11160825423E+03  0.91312164791E+02 0.  0.
        -13    1    3    3    0    0  0.35256293586E+02 -0.19678514341E+02 -0.58137220008E+02  0.70782749925E+02  0.10570000000E+00 0.  1.
         13    1    3    3    0    0 -0.35256293586E+02  0.19678514341E+02 -0.60382501759E+01  0.40825504305E+02  0.10570000000E+00 0. -1.
<mgrwt>
<rscale>  0 0.91312165E+02</rscale>
<asrwt>0</asrwt>
<pdfrwt beam="2">  1        2 0.13521825E-01 0.91312165E+02</pdfrwt>
<pdfrwt beam="1">  1       -2 0.36486757E-02 0.91312165E+02</pdfrwt>
<totfact> 0.11754689E+05</totfact>
</mgrwt>
</event>
<event>
 5   1  0.1343823E+00  0.9144296E+02  0.7818608E-02  0.1299395E+00
          2   -1    0    0  501    0  0.00000000000E+00  0.00000000000E+00  0.14586851028E+03  0.14586851030E+03  0.26000000000E-02 0. -1.
         -2   -1    0    0    0  501 -0.00000000000E+00 -0.00000000000E+00 -0.14331081854E+02  0.14331082090E+02  0.26000000000E-02 0.  1.
         23    2    1    2    0    0  0.00000000000E+00  0.00000000000E+00  0.13153742843E+03  0.16019959239E+03  0.91442956679E+02 0.  0.
        -13    1    3    3    0    0 -0.29984575935E+02 -0.33427663798E+02  0.50702421800E+02  0.67729094560E+02  0.10570000000E+00 0. -1.
         13    1    3    3    0    0  0.29984575935E+02  0.33427663798E+02  0.80835006626E+02  0.92470497834E+02  0.10570000000E+00 0.  1.
<mgrwt>
<rscale>  0 0.91442957E+02</rscale>
<asrwt>0</asrwt>
<pdfrwt beam="1">  1        2 0.22441309E-01 0.91442957E+02</pdfrwt>
<pdfrwt beam="2">  1       -2 0.22047819E-02 0.91442957E+02</pdfrwt>
<totfact> 0.13739881E+05</totfact>
</mgrwt>
</event>
<event>
 5   1  0.1343823E+00  0.9287428E+02  0.7818608E-02  0.1296037E+00
          2   -1    0    0  501    0  0.00000000000E+00  0.00000000000E+00  0.37972331214E+02  0.37972331303E+02  0.26000000000E-02 0. -1.
         -2   -1    0    0    0  501 -0.00000000000E+00 -0.00000000000E+00 -0.56788925572E+02  0.56788925631E+02  0.26000000000E-02 0.  1.
         23    2    1    2    0    0  0.00000000000E+00  0.00000000000E+00 -0.18816594358E+02  0.94761256935E+02  0.92874278423E+02 0.  0.
        -13    1    3    3    0    0  0.24552989380E+02 -0.35055828113E+02 -0.27792040000E+02  0.51031059483E+02  0.10570000000E+00 0.  1.
         13    1    3    3    0    0 -0.24552989380E+02  0.35055828113E+02  0.89754456428E+01  0.43730197451E+02  0.10570000000E+00 0. -1.
<mgrwt>
<rscale>  0 0.92874278E+02</rscale>
<asrwt>0</asrwt>
<pdfrwt beam="1">  1        2 0.58418972E-02 0.92874278E+02</pdfrwt>
<pdfrwt beam="2">  1       -2 0.87367577E-02 0.92874278E+02</pdfrwt>
<totfact> 0.89181925E+04</totfact>
</mgrwt>
</event>
<event>
 5   1  0.1343823E+00  0.9024607E+02  0.7818608E-02  0.1302257E+00
         -2   -1    0    0    0  501 -0.00000000000E+00  0.00000000000E+00  0.67340083743E+02  0.67340083793E+02  0.26000000000E-02 0.  1.
          2   -1    0    0  501    0  0.00000000000E+00 -0.00000000000E+00 -0.30235900988E+02  0.30235901100E+02  0.26000000000E-02 0. -1.
         23    2    1    2    0    0  0.00000000000E+00  0.00000000000E+00  0.37104182755E+02  0.97575984892E+02  0.90246066118E+02 0.  0.
        -13    1    3    3    0    0 -0.32575963906E+02 -0.24001807097E+02 -0.30397897566E+01  0.40577477282E+02  0.10570000000E+00 0. -1.
         13    1    3    3    0    0  0.32575963906E+02  0.24001807097E+02  0.40143972512E+02  0.56998507610E+02  0.10570000000E+00 0.  1.
<mgrwt>
<rscale>  0 0.90246066E+02</rscale>
<asrwt>0</asrwt>
<pdfrwt beam="2">  1        2 0.46516772E-02 0.90246066E+02</pdfrwt>
<pdfrwt beam="1">  1       -2 0.10360013E-01 0.90246066E+02</pdfrwt>
<totfact> 0.91384852E+04</totfact>
</mgrwt>
</event>
<event>
 5   1  0.1343823E+00  0.9012199E+02  0.7818608E-02  0.1302557E+00
         -2   -1    0    0    0  501 -0.00000000000E+00  0.00000000000E+00  0.28644758792E+02  0.28644758910E+02  0.26000000000E-02 0.  1.
          2   -1    0    0  501    0  0.00000000000E+00 -0.00000000000E+00 -0.70885326060E+02  0.70885326107E+02  0.26000000000E-02 0. -1.
         23    2    1    2    0    0  0.00000000000E+00  0.00000000000E+00 -0.42240567268E+02  0.99530085017E+02  0.90121985666E+02 0.  0.
        -13    1    3    3    0    0 -0.32936729839E+01  0.13783146059E+02 -0.68360148053E+02  0.69813640582E+02  0.10570000000E+00 0. -1.
         13    1    3    3    0    0  0.32936729839E+01 -0.13783146059E+02  0.26119580785E+02  0.29716444435E+02  0.10570000000E+00 0.  1.
<mgrwt>
<rscale>  0 0.90121986E+02</rscale>
<asrwt>0</asrwt>
<pdfrwt beam="2">  1        2 0.10905435E-01 0.90121986E+02</pdfrwt>
<pdfrwt beam="1">  1       -2 0.44068860E-02 0.90121986E+02</pdfrwt>
<totfact> 0.11467061E+05</totfact>
</mgrwt>
</event>
<event>
 5   1  0.1343823E+00  0.9304198E+02  0.7818608E-02  0.1295648E+00
          2   -1    0    0  501    0  0.00000000000E+00  0.00000000000E+00  0.32689372357E+03  0.32689372358E+03  0.26000000000E-02 0. -1.
         -2   -1    0    0    0  501 -0.00000000000E+00 -0.00000000000E+00 -0.66205076309E+01  0.66205081414E+01  0.26000000000E-02 0.  1.
         23    2    1    2    0    0  0.00000000000E+00  0.00000000000E+00  0.32027321594E+03  0.33351423172E+03  0.93041979305E+02 0.  0.
        -13    1    3    3    0    0 -0.44384381762E+02 -0.56799468632E+01  0.20575439069E+03  0.21056380411E+03  0.10570000000E+00 0. -1.
         13    1    3    3    0    0  0.44384381762E+02  0.56799468632E+01  0.11451882524E+03  0.12295042761E+03  0.10570000000E+00 0.  1.
<mgrwt>
<rscale>  0 0.93041979E+02</rscale>
<asrwt>0</asrwt>
<pdfrwt beam="1">  1        2 0.50291345E-01 0.93041979E+02</pdfrwt>
<pdfrwt beam="2">  1       -2 0.10185396E-02 0.93041979E+02</pdfrwt>
<totfact> 0.17572080E+05</totfact>
</mgrwt>
</event>
<event>
 5   1  0.1343823E+00  0.9238590E+02  0.7818608E-02  0.1297175E+00
          2   -1    0    0  501    0  0.00000000000E+00  0.00000000000E+00  0.97924126867E+02  0.97924126901E+02  0.26000000000E-02 0. -1.
         -2   -1    0    0    0  501 -0.00000000000E+00 -0.00000000000E+00 -0.21790223968E+02  0.21790224123E+02  0.26000000000E-02 0.  1.
         23    2    1    2    0    0  0.00000000000E+00  0.00000000000E+00  0.76133902899E+02  0.11971435102E+03  0.92385900822E+02 0.  0.
        -13    1    3    3    0    0 -0.31544105746E+02 -0.17293493248E+02  0.75615913289E+02  0.83736927524E+02  0.10570000000E+00 0. -1.
         13    1    3    3    0    0  0.31544105746E+02  0.17293493248E+02  0.51798960934E+00  0.35977423501E+02  0.10570000000E+00 0.  1.
<mgrwt>
<rscale>  0 0.92385901E+02</rscale>
<asrwt>0</asrwt>
<pdfrwt beam="1">  1        2 0.15065251E-01 0.92385901E+02</pdfrwt>
<pdfrwt beam="2">  1       -2 0.33523421E-02 0.92385901E+02</pdfrwt>
<totfact> 0.11754415E+05</totfact>
</mgrwt>
</event>
<event>
 5   1  0.1343823E+00  0.9154723E+02  0.7818608E-02  0.1299148E+00
          2   -1    0    0  501    0  0.00000000000E+00  0.00000000000E+00  0.67607400871E+02  0.67607400921E+02  0.26000000000E-02 0.  1.
         -2   -1    0    0    0  501 -0.00000000000E+00 -0.00000000000E+00 -0.30991041908E+02  0.30991042018E+02  0.26000000000E-02 0. -1.
         23    2    1    2    0    0  0.00000000000E+00  0.00000000000E+00  0.36616358963E+02  0.98598442939E+02  0.91547229375E+02 0.  0.
        -13    1    3    3    0    0 -0.75047068309E+01 -0.37340327275E+02  0.45652509996E+02  0.59454045337E+02  0.10570000000E+00 0.  1.
         13    1    3    3    0    0  0.75047068309E+01  0.37340327275E+02 -0.90361510328E+01  0.39144397601E+02  0.10570000000E+00 0. -1.
<mgrwt>
<rscale>  0 0.91547229E+02</rscale>
<asrwt>0</asrwt>
<pdfrwt beam="1">  1        2 0.10401139E-01 0.91547229E+02</pdfrwt>
<pdfrwt beam="2">  1       -2 0.47678526E-02 0.91547229E+02</pdfrwt>
<totfact> 0.10832354E+05</totfact>
</mgrwt>
</event>
<event>
 5   1  0.1343823E+00  0.9669859E+02  0.7818608E-02  0.1287396E+00
          2   -1    0    0  501    0  0.00000000000E+00  0.00000000000E+00  0.85799956904E+02  0.85799956943E+02  0.26000000000E-02 0. -1.
         -2   -1    0    0    0  501 -0.00000000000E+00 -0.00000000000E+00 -0.27245403298E+02  0.27245403422E+02  0.26000000000E-02 0.  1.
         23    2    1    2    0    0  0.00000000000E+00  0.00000000000E+00  0.58554553606E+02  0.11304536037E+03  0.96698592297E+02 0.  0.
        -13    1    3    3    0    0 -0.41638607134E+02  0.14835077973E+02  0.52179597288E+02  0.68385485947E+02  0.10570000000E+00 0. -1.
         13    1    3    3    0    0  0.41638607134E+02 -0.14835077973E+02  0.63749563179E+01  0.44659874419E+02  0.10570000000E+00 0.  1.
<mgrwt>
<rscale>  0 0.96698592E+02</rscale>
<asrwt>0</asrwt>
<pdfrwt beam="1">  1        2 0.13199993E-01 0.96698592E+02</pdfrwt>
<pdfrwt beam="2">  1       -2 0.41916006E-02 0.96698592E+02</pdfrwt>
<totfact> 0.99495027E+04</totfact>
</mgrwt>
</event>
<event>
 5   1  0.1343823E+00  0.8927666E+02  0.7818608E-02  0.1304613E+00
          2   -1    0    0  501    0  0.00000000000E+00  0.00000000000E+00  0.25271476484E+03  0.25271476486E+03  0.26000000000E-02 0. -1.
         -2   -1    0    0    0  501 -0.00000000000E+00 -0.00000000000E+00 -0.78847019949E+01  0.78847024236E+01  0.26000000000E-02 0.  1.
         23    2    1    2    0    0  0.00000000000E+00  0.00000000000E+00  0.24483006285E+03  0.26059946728E+03  0.89276663650E+02 0.  0.
        -13    1    3    3    0    0 -0.15637254125E+02  0.41495298710E+02  0.13735225408E+03  0.14433307454E+03  0.10570000000E+00 0.  1.
         13    1    3    3    0    0  0.15637254125E+02 -0.41495298710E+02  0.10747780877E+03  0.11626639274E+03  0.10570000000E+00 0. -1.
<mgrwt>
<rscale>  0 0.89276664E+02</rscale>
<asrwt>0</asrwt>
<pdfrwt beam="1">  1        2 0.38879202E-01 0.89276664E+02</pdfrwt>
<pdfrwt beam="2">  1       -2 0.12130309E-02 0.89276664E+02</pdfrwt>
<totfact> 0.17829131E+05</totfact>
</mgrwt>
</event>
<event>
 4   1  0.1343823E+00  0.1422357E+03  0.7818608E-02  0.1210352E+00
         -2   -1    0    0    0  501 -0.00000000000E+00  0.00000000000E+00  0.90574482874E+02  0.90574482911E+02  0.26000000000E-02 0.  1.
          2   -1    0    0  501    0  0.00000000000E+00 -0.00000000000E+00 -0.55840781150E+02  0.55840781210E+02  0.26000000000E-02 0. -1.
        -13    1    1    2    0    0 -0.62978992333E+02  0.33022058886E+02  0.18358946043E+02  0.73442984149E+02  0.10570000000E+00 0.  1.
         13    1    1    2    0    0  0.62978992333E+02 -0.33022058886E+02  0.16374755680E+02  0.72972279973E+02  0.10570000000E+00 0. -1.
<mgrwt>
<rscale>  0 0.14223572E+03</rscale>
<asrwt>0</asrwt>
<pdfrwt beam="2">  1        2 0.85908896E-02 0.14223572E+03</pdfrwt>
<pdfrwt beam="1">  1       -2 0.13934536E-01 0.14223572E+03</pdfrwt>
<totfact> 0.27740660E+04</totfact>
</mgrwt>
</event>
<event>
 5   1  0.1343823E+00  0.8790479E+02  0.7818608E-02  0.1308006E+00
         -2   -1    0    0    0  501 -0.00000000000E+00  0.00000000000E+00  0.14464935863E+02  0.14464936097E+02  0.26000000000E-02 0.  1.
          2   -1    0    0  501    0  0.00000000000E+00 -0.00000000000E+00 -0.13355143314E+03  0.13355143317E+03  0.26000000000E-02 0. -1.
         23    2    1    2    0    0  0.00000000000E+00  0.00000000000E+00 -0.11908649728E+03  0.14801636927E+03  0.87904787903E+02 0.  0.
        -13    1    3    3    0    0 -0.36957968549E+02 -0.20391624941E+02 -0.80172141644E+02  0.90605150379E+02  0.10570000000E+00 0.  1.
         13    1    3    3    0    0  0.36957968549E+02  0.20391624941E+02 -0.38914355637E+02  0.57411218887E+02  0.10570000000E+00 0. -1.
<mgrwt>
<rscale>  0 0.87904788E+02</rscale>
<asrwt>0</asrwt>
<pdfrwt beam="2">  1        2 0.20546374E-01 0.87904788E+02</pdfrwt>
<pdfrwt beam="1">  1       -2 0.22253749E-02 0.87904788E+02</pdfrwt>
<totfact> 0.14849820E+05</totfact>
</mgrwt>
</event>
<event>
 5   1  0.1343823E+00  0.9550372E+02  0.7818608E-02  0.1290046E+00
          2   -1    0    0  501    0  0.00000000000E+00  0.00000000000E+00  0.10776194195E+03  0.10776194198E+03  0.26000000000E-02 0.  1.
         -2   -1    0    0    0  501 -0.00000000000E+00 -0.00000000000E+00 -0.21159976251E+02  0.21159976411E+02  0.26000000000E-02 0. -1.
         23    2    1    2    0    0  0.00000000000E+00  0.00000000000E+00  0.86601965701E+02  0.12892191839E+03  0.95503720237E+02 0.  0.
        -13    1    3    3    0    0 -0.17193081093E+01  0.18470169451E+02 -0.16097213166E+02  0.24560835167E+02  0.10570000000E+00 0. -1.
         13    1    3    3    0    0  0.17193081093E+01 -0.18470169451E+02  0.10269917887E+03  0.10436108323E+03  0.10570000000E+00 0.  1.
<mgrwt>
<rscale>  0 0.95503720E+02</rscale>
<asrwt>0</asrwt>
<pdfrwt beam="1">  1        2 0.16578760E-01 0.95503720E+02</pdfrwt>
<pdfrwt beam="2">  1       -2 0.32553810E-02 0.95503720E+02</pdfrwt>
<totfact> 0.11047064E+05</totfact>
</mgrwt>
</event>
<event>
 5   1  0.1343823E+00  0.9288765E+02  0.7818608E-02  0.1296006E+00
          2   -1    0    0  501    0  0.00000000000E+00  0.00000000000E+00  0.21221799821E+02  0.21221799980E+02  0.26000000000E-02 0. -1.
         -2   -1    0    0    0  501 -0.00000000000E+00 -0.00000000000E+00 -0.10164213408E+03  0.10164213411E+03  0.26000000000E-02 0.  1.
         23    2    1    2    0    0  0.00000000000E+00  0.00000000000E+00 -0.80420334260E+02  0.12286393409E+03  0.92887653316E+02 0.  0.
        -13    1    3    3    0    0  0.32015020329E+02 -0.18040034637E+02 -0.26438028527E+01  0.36842980911E+02  0.10570000000E+00 0. -1.
         13    1    3    3    0    0 -0.32015020329E+02  0.18040034637E+02 -0.77776531407E+02  0.86020953183E+02  0.10570000000E+00 0.  1.
<mgrwt>
<rscale>  0 0.92887653E+02</rscale>
<asrwt>0</asrwt>
<pdfrwt beam="1">  1        2 0.32648924E-02 0.92887653E+02</pdfrwt>
<pdfrwt beam="2">  1       -2 0.15637251E-01 0.92887653E+02</pdfrwt>
<totfact> 0.75822293E+04</totfact>
</mgrwt>
</event>
<event>
 5   1  0.1343823E+00  0.9345430E+02  0.7818608E-02  0.1294696E+00
         -2   -1    0    0    0  501 -0.00000000000E+00  0.00000000000E+00  0.21019330607E+02  0.21019330768E+02  0.26000000000E-02 0.  1.
          2   -1    0    0  501    0  0.00000000000E+00 -0.00000000000E+00 -0.10387706468E+03  0.10387706472E+03  0.26000000000E-02 0. -1.
         23    2    1    2    0    0  0.00000000000E+00  0.00000000000E+00 -0.82857734076E+02  0.12489639548E+03  0.93454296362E+02 0.  0.
        -13    1    3    3    0    0  0.17645169886E+02 -0.37103593181E+01 -0.99040227070E+02  0.10066824990E+03  0.10570000000E+00 0. -1.
         13    1    3    3    0    0 -0.17645169886E+02  0.37103593181E+01  0.16182492994E+02  0.24228145587E+02  0.10570000000E+00 0.  1.
<mgrwt>
<rscale>  0 0.93454296E+02</rscale>
<asrwt>0</asrwt>
<pdfrwt beam="2">  1        2 0.15981087E-01 0.93454296E+02</pdfrwt>
<pdfrwt beam="1">  1       -2 0.32337432E-02 0.93454296E+02</pdfrwt>
<totfact> 0.11595383E+05</totfact>
</mgrwt>
</event>
<event>
 5   1  0.1343823E+00  0.9071403E+02  0.7818608E-02  0.1301132E+00
          2   -1    0    0  501    0  0.00000000000E+00  0.00000000000E+00  0.31585967321E+02  0.31585967428E+02  0.26000000000E-02 0.  1.
         -2   -1    0    0    0  501 -0.00000000000E+00 -0.00000000000E+00 -0.65132047112E+02  0.65132047164E+02  0.26000000000E-02 0. -1.
         23    2    1    2    0    0  0.00000000000E+00  0.00000000000E+00 -0.33546079792E+02  0.96718014592E+02  0.90714028007E+02 0.  0.
        -13    1    3    3    0    0  0.11059615806E+02  0.57325245349E+01  0.29726241208E+02  0.32231002593E+02  0.10570000000E+00 0.  1.
         13    1    3    3    0    0 -0.11059615806E+02 -0.57325245349E+01 -0.63272321000E+02  0.64487011999E+02  0.10570000000E+00 0. -1.
<mgrwt>
<rscale>  0 0.90714028E+02</rscale>
<asrwt>0</asrwt>
<pdfrwt beam="1">  1        2 0.48593796E-02 0.90714028E+02</pdfrwt>
<pdfrwt beam="2">  1       -2 0.10020315E-01 0.90714028E+02</pdfrwt>
<totfact> 0.91042747E+04</totfact>
</mgrwt>
</event>
<event>
 5   1  0.1343823E+00  0.9412168E+02  0.7818608E-02  0.1293167E+00
          2   -1    0    0  501    0  0.00000000000E+00  0.00000000000E+00  0.41037428824E+02  0.41037428906E+02  0.26000000000E-02 0. -1.
         -2   -1    0    0    0  501 -0.00000000000E+00 -0.00000000000E+00 -0.53968358318E+02  0.53968358380E+02  0.26000000000E-02 0.  1.
         23    2    1    2    0    0  0.00000000000E+00  0.00000000000E+00 -0.12930929494E+02  0.95005787286E+02  0.94121680182E+02 0.  0.
        -13    1    3    3    0    0 -0.32884321994E+02  0.61200642511E+01 -0.39880462050E+02  0.52050900523E+02  0.10570000000E+00 0. -1.
         13    1    3    3    0    0  0.32884321994E+02 -0.61200642511E+01  0.26949532556E+02  0.42954886764E+02  0.10570000000E+00 0.  1.
<mgrwt>
<rscale>  0 0.94121680E+02</rscale>
<asrwt>0</asrwt>
<pdfrwt beam="1">  1        2 0.63134506E-02 0.94121680E+02</pdfrwt>
<pdfrwt beam="2">  1       -2 0.83028244E-02 0.94121680E+02</pdfrwt>
<totfact> 0.87556404E+04</totfact>
</mgrwt>
</event>
<event>
 5   1  0.1343823E+00  0.9206016E+02  0.7818608E-02  0.1297938E+00
         -2   -1    0    0    0  501 -0.00000000000E+00  0.00000000000E+00  0.19686918017E+02  0.19686918189E+02  0.26000000000E-02 0.  1.
          2   -1    0    0  501    0  0.00000000000E+00 -0.00000000000E+00 -0.10762315635E+03  0.10762315638E+03  0.26000000000E-02 0. -1.
         23    2    1    2    0    0  0.00000000000E+00  0.00000000000E+00 -0.87936238336E+02  0.12731007457E+03  0.92060160086E+02 0.  0.
        -13    1    3    3    0    0  0.15563768073E+02  0.15136232226E+02  0.12161656339E+02  0.24884803797E+02  0.10570000000E+00 0.  1.
         13    1    3    3    0    0 -0.15563768073E+02 -0.15136232226E+02 -0.10009789468E+03  0.10242527078E+03  0.10570000000E+00 0. -1.
<mgrwt>
<rscale>  0 0.92060160E+02</rscale>
<asrwt>0</asrwt>
<pdfrwt beam="2">  1        2 0.16557408E-01 0.92060160E+02</pdfrwt>
<pdfrwt beam="1">  1       -2 0.30287567E-02 0.92060160E+02</pdfrwt>
<totfact> 0.12219779E+05</totfact>
</mgrwt>
</event>
<event>
 5   1  0.1343823E+00  0.9025950E+02  0.7818608E-02  0.1302224E+00
          2   -1    0    0  501    0  0.00000000000E+00  0.00000000000E+00  0.23353933266E+02  0.23353933411E+02  0.26000000000E-02 0. -1.
         -2   -1    0    0    0  501 -0.00000000000E+00 -0.00000000000E+00 -0.87209913834E+02  0.87209913873E+02  0.26000000000E-02 0.  1.
         23    2    1    2    0    0  0.00000000000E+00  0.00000000000E+00 -0.63855980568E+02  0.11056384728E+03  0.90259504054E+02 0.  0.
        -13    1    3    3    0    0  0.33387005995E+01  0.25979484639E+02  0.13089784348E+02  0.29281976890E+02  0.10570000000E+00 0. -1.
         13    1    3    3    0    0 -0.33387005995E+01 -0.25979484639E+02 -0.76945764916E+02  0.81281870394E+02  0.10570000000E+00 0.  1.
<mgrwt>
<rscale>  0 0.90259504E+02</rscale>
<asrwt>0</asrwt>
<pdfrwt beam="1">  1        2 0.35929129E-02 0.90259504E+02</pdfrwt>
<pdfrwt beam="2">  1       -2 0.13416910E-01 0.90259504E+02</pdfrwt>
<totfact> 0.85146747E+04</totfact>
</mgrwt>
</event>
<event>
 5   1  0.1343823E+00  0.8881294E+02  0.7818608E-02  0.1305752E+00
         -2   -1    0    0    0  501 -0.00000000000E+00  0.00000000000E+00  0.10388367704E+03  0.10388367707E+03  0.26000000000E-02 0.  1.
          2   -1    0    0  501    0  0.00000000000E+00 -0.00000000000E+00 -0.18982140401E+02  0.18982140579E+02  0.26000000000E-02 0. -1.
         23    2    1    2    0    0  0.00000000000E+00  0.00000000000E+00  0.84901536641E+02  0.12286581765E+03  0.88812939506E+02 0.  0.
        -13    1    3    3    0    0  0.10750596658E+02  0.20906481520E+02 -0.96671302366E+01  0.25418907874E+02  0.10570000000E+00 0. -1.
         13    1    3    3    0    0 -0.10750596658E+02 -0.20906481520E+02  0.94568666877E+02  0.97446909779E+02  0.10570000000E+00 0.  1.
<mgrwt>
<rscale>  0 0.88812940E+02</rscale>
<asrwt>0</asrwt>
<pdfrwt beam="2">  1        2 0.29203293E-02 0.88812940E+02</pdfrwt>
<pdfrwt beam="1">  1       -2 0.15982104E-01 0.88812940E+02</pdfrwt>
<totfact> 0.84233441E+04</totfact>
</mgrwt>
</event>
<event>
 5   1  0.1343823E+00  0.9524375E+02  0.7818608E-02  0.1290628E+00
          2   -1    0    0  501    0  0.00000000000E+00  0.00000000000E+00  0.38770894094E+02  0.38770894181E+02  0.26000000000E-02 0. -1.
         -2   -1    0    0    0  501 -0.00000000000E+00 -0.00000000000E+00 -0.58493439367E+02  0.58493439425E+02  0.26000000000E-02 0.  1.
         23    2    1    2    0    0  0.00000000000E+00  0.00000000000E+00 -0.19722545274E+02  0.97264333606E+02  0.95243749400E+02 0.  0.
        -13    1    3    3    0    0  0.38949979897E+02 -0.51339060628E+00 -0.37837104623E+02  0.54304899987E+02  0.10570000000E+00 0.  1.
         13    1    3    3    0    0 -0.38949979897E+02  0.51339060628E+00  0.18114559350E+02  0.42959433618E+02  0.10570000000E+00 0. -1.
<mgrwt>
<rscale>  0 0.95243749E+02</rscale>
<asrwt>0</asrwt>
<pdfrwt beam="1">  1        2 0.59647529E-02 0.95243749E+02</pdfrwt>
<pdfrwt beam="2">  1       -2 0.89989907E-02 0.95243749E+02</pdfrwt>
<totfact> 0.83299343E+04</totfact>
</mgrwt>
</event>
<event>
 5   1  0.1343823E+00  0.9311564E+02  0.7818608E-02  0.1295477E+00
         -2   -1    0    0    0  501 -0.00000000000E+00  0.00000000000E+00  0.61552554700E+02  0.61552554755E+02  0.26000000000E-02 0.  1.
          2   -1    0    0  501    0  0.00000000000E+00 -0.00000000000E+00 -0.35215928664E+02  0.35215928760E+02  0.26000000000E-02 0. -1.
         23    2    1    2    0    0  0.00000000000E+00  0.00000000000E+00  0.26336626036E+02  0.96768483514E+02  0.93115635264E+02 0.  0.
        -13    1    3    3    0    0 -0.15914958398E+02  0.40123305217E+01  0.58446211075E+02  0.60707128564E+02  0.10570000000E+00 0.  1.
         13    1    3    3    0    0  0.15914958398E+02 -0.40123305217E+01 -0.32109585039E+02  0.36061354950E+02  0.10570000000E+00 0. -1.
<mgrwt>
<rscale>  0 0.93115635E+02</rscale>
<asrwt>0</asrwt>
<pdfrwt beam="2">  1        2 0.54178352E-02 0.93115635E+02</pdfrwt>
<pdfrwt beam="1">  1       -2 0.94696238E-02 0.93115635E+02</pdfrwt>
<totfact> 0.86756242E+04</totfact>
</mgrwt>
</event>
<event>
 5   1  0.1343823E+00  0.9216122E+02  0.7818608E-02  0.1297701E+00
         -2   -1    0    0    0  501 -0.00000000000E+00  0.00000000000E+00  0.47221884377E+02  0.47221884448E+02  0.26000000000E-02 0.  1.
          2   -1    0    0  501    0  0.00000000000E+00 -0.00000000000E+00 -0.44966916725E+02  0.44966916800E+02  0.26000000000E-02 0. -1.
         23    2    1    2    0    0  0.00000000000E+00  0.00000000000E+00  0.22549676515E+01  0.92188801248E+02  0.92161218506E+02 0.  0.
        -13    1    3    3    0    0  0.25059488212E+01 -0.31467890754E+02 -0.32451945694E+02  0.45273037006E+02  0.10570000000E+00 0. -1.
         13    1    3    3    0    0 -0.25059488212E+01  0.31467890754E+02  0.34706913345E+02  0.46915764242E+02  0.10570000000E+00 0.  1.
<mgrwt>
<rscale>  0 0.92161219E+02</rscale>
<asrwt>0</asrwt>
<pdfrwt beam="2">  1        2 0.69179872E-02 0.92161219E+02</pdfrwt>
<pdfrwt beam="1">  1       -2 0.72649053E-02 0.92161219E+02</pdfrwt>
<totfact> 0.95331141E+04</totfact>
</mgrwt>
</event>
<event>
 5   1  0.1343823E+00  0.9063339E+02  0.7818608E-02  0.1301325E+00
         -2   -1    0    0    0  501 -0.00000000000E+00  0.00000000000E+00  0.61501776974E+01  0.61501782470E+01  0.26000000000E-02 0.  1.
          2   -1    0    0  501    0  0.00000000000E+00 -0.00000000000E+00 -0.33390952074E+03  0.33390952075E+03  0.26000000000E-02 0. -1.
         23    2    1    2    0    0  0.00000000000E+00  0.00000000000E+00 -0.32775934305E+03  0.34005969900E+03  0.90633393021E+02 0.  0.
        -13    1    3    3    0    0  0.26954334343E+02 -0.36428485670E+02 -0.16333463116E+03  0.16950452389E+03  0.10570000000E+00 0. -1.
         13    1    3    3    0    0 -0.26954334343E+02  0.36428485670E+02 -0.16442471188E+03  0.17055517511E+03  0.10570000000E+00 0.  1.
<mgrwt>
<rscale>  0 0.90633393E+02</rscale>
<asrwt>0</asrwt>
<pdfrwt beam="2">  1        2 0.51370681E-01 0.90633393E+02</pdfrwt>
<pdfrwt beam="1">  1       -2 0.94618149E-03 0.90633393E+02</pdfrwt>
<totfact> 0.18993471E+05</totfact>
</mgrwt>
</event>
<event>
 5   1  0.1343823E+00  0.8930573E+02  0.7818608E-02  0.1304542E+00
         -2   -1    0    0    0  501 -0.00000000000E+00  0.00000000000E+00  0.86295670402E+01  0.86295674319E+01  0.26000000000E-02 0.  1.
          2   -1    0    0  501    0  0.00000000000E+00 -0.00000000000E+00 -0.23105193063E+03  0.23105193064E+03  0.26000000000E-02 0. -1.
         23    2    1    2    0    0  0.00000000000E+00  0.00000000000E+00 -0.22242236359E+03  0.23968149808E+03  0.89305725994E+02 0.  0.
        -13    1    3    3    0    0  0.40022597874E+02 -0.19492511494E+02 -0.10187520699E+03  0.11117704492E+03  0.10570000000E+00 0.  1.
         13    1    3    3    0    0 -0.40022597874E+02  0.19492511494E+02 -0.12054715660E+03  0.12850445316E+03  0.10570000000E+00 0. -1.
<mgrwt>
<rscale>  0 0.89305726E+02</rscale>
<asrwt>0</asrwt>
<pdfrwt beam="2">  1        2 0.35546446E-01 0.89305726E+02</pdfrwt>
<pdfrwt beam="1">  1       -2 0.13276259E-02 0.89305726E+02</pdfrwt>
<totfact> 0.17235760E+05</totfact>
</mgrwt>
</event>
<event>
 5   1  0.1343823E+00  0.9180384E+02  0.7818608E-02  0.1298541E+00
         -2   -1    0    0    0  501 -0.00000000000E+00  0.00000000000E+00  0.30140517165E+02  0.30140517277E+02  0.26000000000E-02 0. -1.
          2   -1    0    0  501    0  0.00000000000E+00 -0.00000000000E+00 -0.69905439966E+02  0.69905440014E+02  0.26000000000E-02 0.  1.
         23    2    1    2    0    0  0.00000000000E+00  0.00000000000E+00 -0.39764922800E+02  0.10004595729E+03  0.91803836984E+02 0.  0.
        -13    1    3    3    0    0  0.14786358700E+02 -0.19526882329E+02 -0.62188368951E+02  0.66838162320E+02  0.10570000000E+00 0.  1.
         13    1    3    3    0    0 -0.14786358700E+02  0.19526882329E+02  0.22423446150E+02  0.33207794971E+02  0.10570000000E+00 0. -1.
<mgrwt>
<rscale>  0 0.91803837E+02</rscale>
<asrwt>0</asrwt>
<pdfrwt beam="2">  1        2 0.10754683E-01 0.91803837E+02</pdfrwt>
<pdfrwt beam="1">  1       -2 0.46370027E-02 0.91803837E+02</pdfrwt>
<totfact> 0.10847483E+05</totfact>
</mgrwt>
</event>
<event>
 5   1  0.1343823E+00  0.8911776E+02  0.7818608E-02  0.1305002E+00
          2   -1    0    0  501    0  0.00000000000E+00  0.00000000000E+00  0.18078893955E+02  0.18078894142E+02  0.26000000000E-02 0. -1.
         -2   -1    0    0    0  501 -0.00000000000E+00 -0.00000000000E+00 -0.10982383990E+03  0.10982383993E+03  0.26000000000E-02 0.  1.
         23    2    1    2    0    0  0.00000000000E+00  0.00000000000E+00 -0.91744945948E+02  0.12790273408E+03  0.89117755118E+02 0.  0.
        -13    1    3    3    0    0 -0.48892183432E+01  0.37411579863E+02 -0.79894881796E+02  0.88355724622E+02  0.10570000000E+00 0.  1.
         13    1    3    3    0    0  0.48892183432E+01 -0.37411579863E+02 -0.11850064152E+02  0.39547009454E+02  0.10570000000E+00 0. -1.
<mgrwt>
<rscale>  0 0.89117755E+02</rscale>
<asrwt>0</asrwt>
<pdfrwt beam="1">  1        2 0.27813684E-02 0.89117755E+02</pdfrwt>
<pdfrwt beam="2">  1       -2 0.16895975E-01 0.89117755E+02</pdfrwt>
<totfact> 0.82117335E+04</totfact>
</mgrwt>
</event>
<event>
 5   1  0.1343823E+00  0.9190144E+02  0.7818608E-02  0.1298311E+00
          2   -1    0    0  501    0  0.00000000000E+00  0.00000000000E+00  0.27374403821E+02  0.27374403944E+02  0.26000000000E-02 0. -1.
         -2   -1    0    0    0  501 -0.00000000000E+00 -0.00000000000E+00 -0.77132948861E+02  0.77132948904E+02  0.26000000000E-02 0.  1.
         23    2    1    2    0    0  0.00000000000E+00  0.00000000000E+00 -0.49758545040E+02  0.10450735285E+03  0.91901436305E+02 0.  0.
        -13    1    3    3    0    0  0.21731206890E+02  0.26685634129E+02  0.97453653616E+01  0.35768026788E+02  0.10570000000E+00 0. -1.
         13    1    3    3    0    0 -0.21731206890E+02 -0.26685634129E+02 -0.59503910401E+02  0.68739326061E+02  0.10570000000E+00 0.  1.
<mgrwt>
<rscale>  0 0.91901436E+02</rscale>
<asrwt>0</asrwt>
<pdfrwt beam="1">  1        2 0.42114468E-02 0.91901436E+02</pdfrwt>
<pdfrwt beam="2">  1       -2 0.11866607E-01 0.91901436E+02</pdfrwt>
<totfact> 0.84283600E+04</totfact>
</mgrwt>
</event>
<event>
 5   1  0.1343823E+00  0.9116865E+02  0.7818608E-02  0.1300046E+00
         -2   -1    0    0    0  501 -0.00000000000E+00  0.00000000000E+00  0.41061962813E+01  0.41061971045E+01  0.26000000000E-02 0.  1.
          2   -1    0    0  501    0  0.00000000000E+00 -0.00000000000E+00 -0.50604752777E+03  0.50604752778E+03  0.26000000000E-02 0. -1.
         23    2    1    2    0    0  0.00000000000E+00  0.00000000000E+00 -0.50194133149E+03  0.51015372488E+03  0.91168650058E+02 0.  0.
        -13    1    3    3    0    0 -0.66767418861E+01 -0.45085286184E+02 -0.24643294723E+03  0.25061219158E+03  0.10570000000E+00 0. -1.
         13    1    3    3    0    0  0.66767418861E+01  0.45085286184E+02 -0.25550838425E+03  0.25954153330E+03  0.10570000000E+00 0.  1.
<mgrwt>
<rscale>  0 0.91168650E+02</rscale>
<asrwt>0</asrwt>
<pdfrwt beam="2">  1        2 0.77853417E-01 0.91168650E+02</pdfrwt>
<pdfrwt beam="1">  1       -2 0.63172297E-03 0.91168650E+02</pdfrwt>
<totfact> 0.21638882E+05</totfact>
</mgrwt>
</event>
<event>
 4   1  0.1343823E+00  0.2665501E+02  0.7818608E-02  0.1638308E+00
         -2   -1    0    0    0  501 -0.00000000000E+00  0.00000000000E+00  0.21339550716E+02  0.21339550875E+02  0.26000000000E-02 0. -1.
          2   -1    0    0  501    0  0.00000000000E+00 -0.00000000000E+00 -0.83236248840E+01  0.83236252901E+01  0.26000000000E-02 0.  1.
        -13    1    1    2    0    0  0.73416301812E+01  0.70060365294E+01  0.16121589404E+02  0.19049957978E+02  0.10570000000E+00 0. -1.
         13    1    1    2    0    0 -0.73416301812E+01 -0.70060365294E+01 -0.31056635716E+01  0.10613218187E+02  0.10570000000E+00 0.  1.
<mgrwt>
<rscale>  0 0.26655013E+02</rscale>
<asrwt>0</asrwt>
<pdfrwt beam="2">  1        2 0.12805577E-02 0.26655013E+02</pdfrwt>
<pdfrwt beam="1">  1       -2 0.32830079E-02 0.26655013E+02</pdfrwt>
<totfact> 0.19717817E+06</totfact>
</mgrwt>
</event>
<event>
 5   1  0.1343823E+00  0.9222081E+02  0.7818608E-02  0.1297561E+00
          2   -1    0    0  501    0  0.00000000000E+00  0.00000000000E+00  0.44887543621E+02  0.44887543696E+02  0.26000000000E-02 0. -1.
         -2   -1    0    0    0  501 -0.00000000000E+00 -0.00000000000E+00 -0.47366577103E+02  0.47366577174E+02  0.26000000000E-02 0.  1.
         23    2    1    2    0    0  0.00000000000E+00  0.00000000000E+00 -0.24790334816E+01  0.92254120870E+02  0.92220806820E+02 0.  0.
        -13    1    3    3    0    0  0.19173134576E+02  0.76311783025E+01 -0.42489278326E+02  0.47235515419E+02  0.10570000000E+00 0.  1.
         13    1    3    3    0    0 -0.19173134576E+02 -0.76311783025E+01  0.40010244844E+02  0.45018605451E+02  0.10570000000E+00 0. -1.
<mgrwt>
<rscale>  0 0.92220807E+02</rscale>
<asrwt>0</asrwt>
<pdfrwt beam="1">  1        2 0.69057760E-02 0.92220807E+02</pdfrwt>
<pdfrwt beam="2">  1       -2 0.72871657E-02 0.92220807E+02</pdfrwt>
<totfact> 0.95109772E+04</totfact>
</mgrwt>
</event>
<event>
 5   1  0.1343823E+00  0.9111922E+02  0.7818608E-02  0.1300164E+00
         -2   -1    0    0    0  501 -0.00000000000E+00  0.00000000000E+00  0.11776037481E+03  0.11776037484E+03  0.26000000000E-02 0.  1.
          2   -1    0    0  501    0  0.00000000000E+00 -0.00000000000E+00 -0.17626287464E+02  0.17626287656E+02  0.26000000000E-02 0. -1.
         23    2    1    2    0    0  0.00000000000E+00  0.00000000000E+00  0.10013408735E+03  0.13538666250E+03  0.91119223729E+02 0.  0.
        -13    1    3    3    0    0  0.38455000006E+02 -0.21795267482E+02  0.66468111869E+02  0.79823817110E+02  0.10570000000E+00 0.  1.
         13    1    3    3    0    0 -0.38455000006E+02  0.21795267482E+02  0.33665975482E+02  0.55562845389E+02  0.10570000000E+00 0. -1.
<mgrwt>
<rscale>  0 0.91119224E+02</rscale>
<asrwt>0</asrwt>
<pdfrwt beam="2">  1        2 0.27117366E-02 0.91119224E+02</pdfrwt>
<pdfrwt beam="1">  1       -2 0.18116980E-01 0.91119224E+02</pdfrwt>
<totfact> 0.75995974E+04</totfact>
</mgrwt>
</event>
<event>
 5   1  0.1343823E+00  0.9113476E+02  0.7818608E-02  0.1300127E+00
         -2   -1    0    0    0  501 -0.00000000000E+00  0.00000000000E+00  0.60652612484E+01  0.60652618057E+01  0.26000000000E-02 0.  1.
          2   -1    0    0  501    0  0.00000000000E+00 -0.00000000000E+00 -0.34234071998E+03  0.34234071999E+03  0.26000000000E-02 0. -1.
         23    2    1    2    0    0  0.00000000000E+00  0.00000000000E+00 -0.33627545873E+03  0.34840598179E+03  0.91134757397E+02 0.  0.
        -13    1    3    3    0    0 -0.45481154882E+01  0.41748114544E+02 -0.23574977997E+03  0.23946097876E+03  0.10570000000E+00 0.  1.
         13    1    3    3    0    0  0.45481154882E+01 -0.41748114544E+02 -0.10052567877E+03  0.10894500303E+03  0.10570000000E+00 0. -1.
<mgrwt>
<rscale>  0 0.91134757E+02</rscale>
<asrwt>0</asrwt>
<pdfrwt beam="2">  1        2 0.52667788E-01 0.91134757E+02</pdfrwt>
<pdfrwt beam="1">  1       -2 0.93311742E-03 0.91134757E+02</pdfrwt>
<totfact> 0.18889219E+05</totfact>
</mgrwt>
</event>
<event>
 5   1  0.1343823E+00  0.9259340E+02  0.7818608E-02  0.1296690E+00
          2   -1    0    0  501    0  0.00000000000E+00  0.00000000000E+00  0.58275217991E+02  0.58275218049E+02  0.26000000000E-02 0. -1.
         -2   -1    0    0    0  501 -0.00000000000E+00 -0.00000000000E+00 -0.36780375071E+02  0.36780375163E+02  0.26000000000E-02 0.  1.
         23    2    1    2    0    0  0.00000000000E+00  0.00000000000E+00  0.21494842920E+02  0.95055593211E+02  0.92593398947E+02 0.  0.
        -13    1    3    3    0    0  0.39473068283E+01 -0.13097749548E+02  0.56152958959E+02  0.57795313364E+02  0.10570000000E+00 0. -1.
         13    1    3    3    0    0 -0.39473068283E+01  0.13097749548E+02 -0.34658116040E+02  0.37260279848E+02  0.10570000000E+00 0.  1.
<mgrwt>
<rscale>  0 0.92593399E+02</rscale>
<asrwt>0</asrwt>
<pdfrwt beam="1">  1        2 0.89654181E-02 0.92593399E+02</pdfrwt>
<pdfrwt beam="2">  1       -2 0.56585193E-02 0.92593399E+02</pdfrwt>
<totfact> 0.10074847E+05</totfact>
</mgrwt>
</event>
<event>
 5   1  0.1343823E+00  0.9126504E+02  0.7818608E-02  0.1299817E+00
          2   -1    0    0  501    0  0.00000000000E+00  0.00000000000E+00  0.28965648633E+02  0.28965648749E+02  0.26000000000E-02 0. -1.
         -2   -1    0    0    0  501 -0.00000000000E+00 -0.00000000000E+00 -0.71889529006E+02  0.71889529053E+02  0.26000000000E-02 0.  1.
         23    2    1    2    0    0  0.00000000000E+00  0.00000000000E+00 -0.42923880373E+02  0.10085517780E+03  0.91265039217E+02 0.  0.
        -13    1    3    3    0    0  0.39241968588E+02  0.20756455926E+02 -0.97902271907E+01  0.45460117490E+02  0.10570000000E+00 0. -1.
         13    1    3    3    0    0 -0.39241968588E+02 -0.20756455926E+02 -0.33133653182E+02  0.55395060312E+02  0.10570000000E+00 0.  1.
<mgrwt>
<rscale>  0 0.91265039E+02</rscale>
<asrwt>0</asrwt>
<pdfrwt beam="1">  1        2 0.44562537E-02 0.91265039E+02</pdfrwt>
<pdfrwt beam="2">  1       -2 0.11059927E-01 0.91265039E+02</pdfrwt>
<totfact> 0.87386080E+04</totfact>
</mgrwt>
</event>
<event>
 5   1  0.1343823E+00  0.9356680E+02  0.7818608E-02  0.1294437E+00
          2   -1    0    0  501    0  0.00000000000E+00  0.00000000000E+00  0.22190382025E+03  0.22190382027E+03  0.26000000000E-02 0. -1.
         -2   -1    0    0    0  501 -0.00000000000E+00 -0.00000000000E+00 -0.98632212866E+01  0.98632216293E+01  0.26000000000E-02 0.  1.
         23    2    1    2    0    0  0.00000000000E+00  0.00000000000E+00  0.21204059896E+03  0.23176704189E+03  0.93566800201E+02 0.  0.
        -13    1    3    3    0    0 -0.45139715538E+02  0.14769714130E+01  0.13624605971E+03  0.14353666891E+03  0.10570000000E+00 0.  1.
         13    1    3    3    0    0  0.45139715538E+02 -0.14769714130E+01  0.75794539252E+02  0.88230372981E+02  0.10570000000E+00 0. -1.
<mgrwt>
<rscale>  0 0.93566800E+02</rscale>
<asrwt>0</asrwt>
<pdfrwt beam="1">  1        2 0.34139048E-01 0.93566800E+02</pdfrwt>
<pdfrwt beam="2">  1       -2 0.15174187E-02 0.93566800E+02</pdfrwt>
<totfact> 0.14983933E+05</totfact>
</mgrwt>
</event>
<event>
 5   1  0.1343823E+00  0.9252844E+02  0.7818608E-02  0.1296842E+00
         -2   -1    0    0    0  501 -0.00000000000E+00  0.00000000000E+00  0.88963533420E+01  0.88963537220E+01  0.26000000000E-02 0.  1.
          2   -1    0    0  501    0  0.00000000000E+00 -0.00000000000E+00 -0.24059048112E+03  0.24059048114E+03  0.26000000000E-02 0. -1.
         23    2    1    2    0    0  0.00000000000E+00  0.00000000000E+00 -0.23169412778E+03  0.24948683486E+03  0.92528438438E+02 0.  0.
        -13    1    3    3    0    0  0.11401682443E+02  0.39128776947E+02 -0.56816163988E+02  0.69922437105E+02  0.10570000000E+00 0.  1.
         13    1    3    3    0    0 -0.11401682443E+02 -0.39128776947E+02 -0.17487796379E+03  0.17956439776E+03  0.10570000000E+00 0. -1.
<mgrwt>
<rscale>  0 0.92528438E+02</rscale>
<asrwt>0</asrwt>
<pdfrwt beam="2">  1        2 0.37013915E-01 0.92528438E+02</pdfrwt>
<pdfrwt beam="1">  1       -2 0.13686700E-02 0.92528438E+02</pdfrwt>
<totfact> 0.15908684E+05</totfact>
</mgrwt>
</event>
<event>
 5   1  0.1343823E+00  0.8992432E+02  0.7818608E-02  0.1303035E+00
         -2   -1    0    0    0  501 -0.00000000000E+00  0.00000000000E+00  0.12054216640E+03  0.12054216643E+03  0.26000000000E-02 0. -1.
          2   -1    0    0  501    0  0.00000000000E+00 -0.00000000000E+00 -0.16770861072E+02  0.16770861273E+02  0.26000000000E-02 0.  1.
         23    2    1    2    0    0  0.00000000000E+00  0.00000000000E+00  0.10377130533E+03  0.13731302770E+03  0.89924322443E+02 0.  0.
        -13    1    3    3    0    0 -0.21506567071E+02 -0.33546721389E+02  0.83684704597E+02  0.92687949050E+02  0.10570000000E+00 0. -1.
         13    1    3    3    0    0  0.21506567071E+02  0.33546721389E+02  0.20086600731E+02  0.44625078651E+02  0.10570000000E+00 0.  1.
<mgrwt>
<rscale>  0 0.89924322E+02</rscale>
<asrwt>0</asrwt>
<pdfrwt beam="2">  1        2 0.25801326E-02 0.89924322E+02</pdfrwt>
<pdfrwt beam="1">  1       -2 0.18544948E-01 0.89924322E+02</pdfrwt>
<totfact> 0.77965256E+04</totfact>
</mgrwt>
</event>
<event>
 5   1  0.1343823E+00  0.9072223E+02  0.7818608E-02  0.1301112E+00
          2   -1    0    0  501    0  0.00000000000E+00  0.00000000000E+00  0.15020690954E+03  0.15020690957E+03  0.26000000000E-02 0. -1.
         -2   -1    0    0    0  501 -0.00000000000E+00 -0.00000000000E+00 -0.13698642850E+02  0.13698643096E+02  0.26000000000E-02 0.  1.
         23    2    1    2    0    0  0.00000000000E+00  0.00000000000E+00  0.13650826669E+03  0.16390555266E+03  0.90722231662E+02 0.  0.
        -13    1    3    3    0    0 -0.28845336960E+02  0.98079902036E+01  0.12896940928E+03  0.13251931874E+03  0.10570000000E+00 0. -1.
         13    1    3    3    0    0  0.28845336960E+02 -0.98079902036E+01  0.75388574096E+01  0.31386233920E+02  0.10570000000E+00 0.  1.
<mgrwt>
<rscale>  0 0.90722232E+02</rscale>
<asrwt>0</asrwt>
<pdfrwt beam="1">  1        2 0.23108756E-01 0.90722232E+02</pdfrwt>
<pdfrwt beam="2">  1       -2 0.21074835E-02 0.90722232E+02</pdfrwt>
<totfact> 0.14178451E+05</totfact>
</mgrwt>
</event>
<event>
 5   1  0.1343823E+00  0.9147091E+02  0.7818608E-02  0.1299328E+00
         -2   -1    0    0    0  501 -0.00000000000E+00  0.00000000000E+00  0.43035811694E+02  0.43035811773E+02  0.26000000000E-02 0.  1.
          2   -1    0    0  501    0  0.00000000000E+00 -0.00000000000E+00 -0.48604445558E+02  0.48604445628E+02  0.26000000000E-02 0. -1.
         23    2    1    2    0    0  0.00000000000E+00  0.00000000000E+00 -0.55686338639E+01  0.91640257401E+02  0.91470908454E+02 0.  0.
        -13    1    3    3    0    0 -0.29558538974E+02  0.11566314989E+02  0.30204349944E+02  0.43815531456E+02  0.10570000000E+00 0.  1.
         13    1    3    3    0    0  0.29558538974E+02 -0.11566314989E+02 -0.35772983808E+02  0.47824725945E+02  0.10570000000E+00 0. -1.
<mgrwt>
<rscale>  0 0.91470908E+02</rscale>
<asrwt>0</asrwt>
<pdfrwt beam="2">  1        2 0.74776070E-02 0.91470908E+02</pdfrwt>
<pdfrwt beam="1">  1       -2 0.66208941E-02 0.91470908E+02</pdfrwt>
<totfact> 0.99412568E+04</totfact>
</mgrwt>
</event>
<event>
 5   1  0.1343823E+00  0.9442298E+02  0.7818608E-02  0.1292481E+00
          2   -1    0    0  501    0  0.00000000000E+00  0.00000000000E+00  0.39318345545E+03  0.39318345546E+03  0.26000000000E-02 0. -1.
         -2   -1    0    0    0  501 -0.00000000000E+00 -0.00000000000E+00 -0.56689181731E+01  0.56689187693E+01  0.26000000000E-02 0.  1.
         23    2    1    2    0    0  0.00000000000E+00  0.00000000000E+00  0.38751453728E+03  0.39885237423E+03  0.94422983571E+02 0.  0.
        -13    1    3    3    0    0  0.27262765123E+02  0.38120288215E+02  0.21783800619E+03  0.22282240203E+03  0.10570000000E+00 0. -1.
         13    1    3    3    0    0 -0.27262765123E+02 -0.38120288215E+02  0.16967653110E+03  0.17602997220E+03  0.10570000000E+00 0.  1.
<mgrwt>
<rscale>  0 0.94422984E+02</rscale>
<asrwt>0</asrwt>
<pdfrwt beam="1">  1        2 0.60489775E-01 0.94422984E+02</pdfrwt>
<pdfrwt beam="2">  1       -2 0.87214112E-03 0.94422984E+02</pdfrwt>
<totfact> 0.18075845E+05</totfact>
</mgrwt>
</event>
<event>
 5   1  0.1343823E+00  0.8746122E+02  0.7818608E-02  0.1309119E+00
          2   -1    0    0  501    0  0.00000000000E+00  0.00000000000E+00  0.44514886019E+03  0.44514886020E+03  0.26000000000E-02 0. -1.
         -2   -1    0    0    0  501 -0.00000000000E+00 -0.00000000000E+00 -0.42960150538E+01  0.42960158406E+01  0.26000000000E-02 0.  1.
         23    2    1    2    0    0  0.00000000000E+00  0.00000000000E+00  0.44085284514E+03  0.44944487604E+03  0.87461223021E+02 0.  0.
        -13    1    3    3    0    0  0.31835853434E+02 -0.29044324590E+02  0.25862697917E+03  0.26219271516E+03  0.10570000000E+00 0. -1.
         13    1    3    3    0    0 -0.31835853434E+02  0.29044324590E+02  0.18222586596E+03  0.18725216087E+03  0.10570000000E+00 0.  1.
<mgrwt>
<rscale>  0 0.87461223E+02</rscale>
<asrwt>0</asrwt>
<pdfrwt beam="1">  1        2 0.68484421E-01 0.87461223E+02</pdfrwt>
<pdfrwt beam="2">  1       -2 0.66092564E-03 0.87461223E+02</pdfrwt>
<totfact> 0.23136773E+05</totfact>
</mgrwt>
</event>
<event>
 5   1  0.1343823E+00  0.9213429E+02  0.7818608E-02  0.1297764E+00
         -2   -1    0    0    0  501 -0.00000000000E+00  0.00000000000E+00  0.19622814998E+02  0.19622815170E+02  0.26000000000E-02 0.  1.
          2   -1    0    0  501    0  0.00000000000E+00 -0.00000000000E+00 -0.10814869386E+03  0.10814869389E+03  0.26000000000E-02 0. -1.
         23    2    1    2    0    0  0.00000000000E+00  0.00000000000E+00 -0.88525878864E+02  0.12777150906E+03  0.92134289489E+02 0.  0.
        -13    1    3    3    0    0 -0.11588764979E+02  0.42230565635E+02 -0.64092214019E+02  0.77624372577E+02  0.10570000000E+00 0. -1.
         13    1    3    3    0    0  0.11588764979E+02 -0.42230565635E+02 -0.24433664845E+02  0.50147136487E+02  0.10570000000E+00 0.  1.
<mgrwt>
<rscale>  0 0.92134289E+02</rscale>
<asrwt>0</asrwt>
<pdfrwt beam="2">  1        2 0.16638260E-01 0.92134289E+02</pdfrwt>
<pdfrwt beam="1">  1       -2 0.30188947E-02 0.92134289E+02</pdfrwt>
<totfact> 0.12211299E+05</totfact>
</mgrwt>
</event>
<event>
 5   1  0.1343823E+00  0.9150461E+02  0.7818608E-02  0.1299248E+00
         -2   -1    0    0    0  501 -0.00000000000E+00  0.00000000000E+00  0.11820759218E+03  0.11820759221E+03  0.26000000000E-02 0.  1.
          2   -1    0    0  501    0  0.00000000000E+00 -0.00000000000E+00 -0.17708450462E+02  0.17708450652E+02  0.26000000000E-02 0. -1.
         23    2    1    2    0    0  0.00000000000E+00  0.00000000000E+00  0.10049914172E+03  0.13591604286E+03  0.91504607649E+02 0.  0.
        -13    1    3    3    0    0  0.31474092716E+02 -0.70134056279E+01  0.20397064556E+01  0.32310647560E+02  0.10570000000E+00 0. -1.
         13    1    3    3    0    0 -0.31474092716E+02  0.70134056279E+01  0.98459435264E+02  0.10360539530E+03  0.10570000000E+00 0.  1.
<mgrwt>
<rscale>  0 0.91504608E+02</rscale>
<asrwt>0</asrwt>
<pdfrwt beam="2">  1        2 0.27243769E-02 0.91504608E+02</pdfrwt>
<pdfrwt beam="1">  1       -2 0.18185784E-01 0.91504608E+02</pdfrwt>
<totfact> 0.75103659E+04</totfact>
</mgrwt>
</event>
<event>
 5   1  0.1343823E+00  0.9170365E+02  0.7818608E-02  0.1298778E+00
         -2   -1    0    0    0  501 -0.00000000000E+00  0.00000000000E+00  0.10649361242E+03  0.10649361245E+03  0.26000000000E-02 0.  1.
          2   -1    0    0  501    0  0.00000000000E+00 -0.00000000000E+00 -0.19741932956E+02  0.19741933127E+02  0.26000000000E-02 0. -1.
         23    2    1    2    0    0  0.00000000000E+00  0.00000000000E+00  0.86751679462E+02  0.12623554558E+03  0.91703648115E+02 0.  0.
        -13    1    3    3    0    0 -0.39213031021E+02  0.23635467173E+01  0.75925886543E+02  0.85486838606E+02  0.10570000000E+00 0. -1.
         13    1    3    3    0    0  0.39213031021E+02 -0.23635467173E+01  0.10825792918E+02  0.40748706970E+02  0.10570000000E+00 0.  1.
<mgrwt>
<rscale>  0 0.91703648E+02</rscale>
<asrwt>0</asrwt>
<pdfrwt beam="2">  1        2 0.30372204E-02 0.91703648E+02</pdfrwt>
<pdfrwt beam="1">  1       -2 0.16383633E-01 0.91703648E+02</pdfrwt>
<totfact> 0.77184077E+04</totfact>
</mgrwt>
</event>
<event>
 5   1  0.1343823E+00  0.9011964E+02  0.7818608E-02  0.1302562E+00
          2   -1    0    0  501    0  0.00000000000E+00  0.00000000000E+00  0.91868980406E+02  0.91868980442E+02  0.26000000000E-02 0. -1.
         -2   -1    0    0    0  501 -0.00000000000E+00 -0.00000000000E+00 -0.22100900758E+02  0.22100900911E+02  0.26000000000E-02 0.  1.
         23    2    1    2    0    0  0.00000000000E+00  0.00000000000E+00  0.69768079648E+02  0.11396988135E+03  0.90119636694E+02 0.  0.
        -13    1    3    3    0    0  0.16547008343E+02 -0.10999976993E+01  0.87869179257E+02  0.89420452447E+02  0.10570000000E+00 0. -1.
         13    1    3    3    0    0 -0.16547008343E+02  0.10999976993E+01 -0.18101099609E+02  0.24549428906E+02  0.10570000000E+00 0.  1.
<mgrwt>
<rscale>  0 0.90119637E+02</rscale>
<asrwt>0</asrwt>
<pdfrwt beam="1">  1        2 0.14133689E-01 0.90119637E+02</pdfrwt>
<pdfrwt beam="2">  1       -2 0.34001387E-02 0.90119637E+02</pdfrwt>
<totfact> 0.12349432E+05</totfact>
</mgrwt>
</event>
<event>
 5   1  0.1343823E+00  0.9765887E+02  0.7818608E-02  0.1285297E+00
          2   -1    0    0  501    0  0.00000000000E+00  0.00000000000E+00  0.14029093132E+03  0.14029093134E+03  0.26000000000E-02 0. -1.
         -2   -1    0    0    0  501 -0.00000000000E+00 -0.00000000000E+00 -0.16995493857E+02  0.16995494056E+02  0.26000000000E-02 0.  1.
         23    2    1    2    0    0  0.00000000000E+00  0.00000000000E+00  0.12329543746E+03  0.15728642540E+03  0.97658869110E+02 0.  0.
        -13    1    3    3    0    0 -0.19483123971E+02  0.31605740562E+02  0.10569860375E+02  0.38603731386E+02  0.10570000000E+00 0.  1.
         13    1    3    3    0    0  0.19483123971E+02 -0.31605740562E+02  0.11272557708E+03  0.11868269401E+03  0.10570000000E+00 0. -1.
<mgrwt>
<rscale>  0 0.97658869E+02</rscale>
<asrwt>0</asrwt>
<pdfrwt beam="1">  1        2 0.21583221E-01 0.97658869E+02</pdfrwt>
<pdfrwt beam="2">  1       -2 0.26146913E-02 0.97658869E+02</pdfrwt>
<totfact> 0.11328699E+05</totfact>
</mgrwt>
</event>
<event>
 5   1  0.1343823E+00  0.8998596E+02  0.7818608E-02  0.1302886E+00
          2   -1    0    0  501    0  0.00000000000E+00  0.00000000000E+00  0.29859098796E+03  0.29859098797E+03  0.26000000000E-02 0. -1.
         -2   -1    0    0    0  501 -0.00000000000E+00 -0.00000000000E+00 -0.67797359561E+01  0.67797364547E+01  0.26000000000E-02 0.  1.
         23    2    1    2    0    0  0.00000000000E+00  0.00000000000E+00  0.29181125200E+03  0.30537072443E+03  0.89985957462E+02 0.  0.
        -13    1    3    3    0    0  0.16500457259E+02  0.41820591012E+02  0.15190944542E+03  0.15842259215E+03  0.10570000000E+00 0. -1.
         13    1    3    3    0    0 -0.16500457259E+02 -0.41820591012E+02  0.13990180658E+03  0.14694813228E+03  0.10570000000E+00 0.  1.
<mgrwt>
<rscale>  0 0.89985957E+02</rscale>
<asrwt>0</asrwt>
<pdfrwt beam="1">  1        2 0.45937088E-01 0.89985957E+02</pdfrwt>
<pdfrwt beam="2">  1       -2 0.10430360E-02 0.89985957E+02</pdfrwt>
<totfact> 0.18574100E+05</totfact>
</mgrwt>
</event>
<event>
 5   1  0.1343823E+00  0.8517037E+02  0.7818608E-02  0.1314988E+00
          2   -1    0    0  501    0  0.00000000000E+00  0.00000000000E+00  0.39670585577E+02  0.39670585662E+02  0.26000000000E-02 0. -1.
         -2   -1    0    0    0  501 -0.00000000000E+00 -0.00000000000E+00 -0.45713915980E+02  0.45713916054E+02  0.26000000000E-02 0.  1.
         23    2    1    2    0    0  0.00000000000E+00  0.00000000000E+00 -0.60433304025E+01  0.85384501716E+02  0.85170366272E+02 0.  0.
        -13    1    3    3    0    0 -0.14487572091E+02  0.15087654202E+02 -0.40208856172E+02  0.45324279824E+02  0.10570000000E+00 0.  1.
         13    1    3    3    0    0  0.14487572091E+02 -0.15087654202E+02  0.34165525769E+02  0.40060221892E+02  0.10570000000E+00 0. -1.
<mgrwt>
<rscale>  0 0.85170366E+02</rscale>
<asrwt>0</asrwt>
<pdfrwt beam="1">  1        2 0.61031670E-02 0.85170366E+02</pdfrwt>
<pdfrwt beam="2">  1       -2 0.70329102E-02 0.85170366E+02</pdfrwt>
<totfact> 0.11578736E+05</totfact>
</mgrwt>
</event>
<event>
 5   1  0.1343823E+00  0.9027991E+02  0.7818608E-02  0.1302175E+00
          2   -1    0    0  501    0  0.00000000000E+00  0.00000000000E+00  0.14313082197E+02  0.14313082433E+02  0.26000000000E-02 0. -1.
         -2   -1    0    0    0  501 -0.00000000000E+00 -0.00000000000E+00 -0.14236037089E+03  0.14236037091E+03  0.26000000000E-02 0.  1.
         23    2    1    2    0    0  0.00000000000E+00  0.00000000000E+00 -0.12804728869E+03  0.15667345335E+03  0.90279913835E+02 0.  0.
        -13    1    3    3    0    0 -0.53743129437E+01 -0.37307179509E+02 -0.20920382565E+02  0.43108960341E+02  0.10570000000E+00 0. -1.
         13    1    3    3    0    0  0.53743129437E+01  0.37307179509E+02 -0.10712690613E+03  0.11356449301E+03  0.10570000000E+00 0.  1.
<mgrwt>
<rscale>  0 0.90279914E+02</rscale>
<asrwt>0</asrwt>
<pdfrwt beam="1">  1        2 0.22020128E-02 0.90279914E+02</pdfrwt>
<pdfrwt beam="2">  1       -2 0.21901595E-01 0.90279914E+02</pdfrwt>
<totfact> 0.72978585E+04</totfact>
</mgrwt>
</event>
<event>
 5   1  0.1343823E+00  0.8850507E+02  0.7818608E-02  0.1306513E+00
         -2   -1    0    0    0  501 -0.00000000000E+00  0.00000000000E+00  0.28476846640E+02  0.28476846759E+02  0.26000000000E-02 0.  1.
          2   -1    0    0  501    0  0.00000000000E+00 -0.00000000000E+00 -0.68767690444E+02  0.68767690493E+02  0.26000000000E-02 0. -1.
         23    2    1    2    0    0  0.00000000000E+00  0.00000000000E+00 -0.40290843804E+02  0.97244537252E+02  0.88505072911E+02 0.  0.
        -13    1    3    3    0    0 -0.41253098988E+02 -0.94643962126E+01 -0.59514843964E+01  0.42741365337E+02  0.10570000000E+00 0.  1.
         13    1    3    3    0    0  0.41253098988E+02  0.94643962126E+01 -0.34339359407E+02  0.54503171915E+02  0.10570000000E+00 0. -1.
<mgrwt>
<rscale>  0 0.88505073E+02</rscale>
<asrwt>0</asrwt>
<pdfrwt beam="2">  1        2 0.10579645E-01 0.88505073E+02</pdfrwt>
<pdfrwt beam="1">  1       -2 0.43810534E-02 0.88505073E+02</pdfrwt>
<totfact> 0.11960428E+05</totfact>
</mgrwt>
</event>
<event>
 5   1  0.1343823E+00  0.9244811E+02  0.7818608E-02  0.1297029E+00
         -2   -1    0    0    0  501 -0.00000000000E+00  0.00000000000E+00  0.15029119949E+02  0.15029120174E+02  0.26000000000E-02 0. -1.
          2   -1    0    0  501    0  0.00000000000E+00 -0.00000000000E+00 -0.14216821630E+03  0.14216821632E+03  0.26000000000E-02 0.  1.
         23    2    1    2    0    0  0.00000000000E+00  0.00000000000E+00 -0.12713909635E+03  0.15719733650E+03  0.92448108584E+02 0.  0.
        -13    1    3    3    0    0  0.23126417766E+02 -0.28719751380E+02 -0.11096719072E+03  0.11693324552E+03  0.10570000000E+00 0.  1.
         13    1    3    3    0    0 -0.23126417766E+02  0.28719751380E+02 -0.16171905625E+02  0.40264090975E+02  0.10570000000E+00 0. -1.
<mgrwt>
<rscale>  0 0.92448109E+02</rscale>
<asrwt>0</asrwt>
<pdfrwt beam="2">  1        2 0.21872032E-01 0.92448109E+02</pdfrwt>
<pdfrwt beam="1">  1       -2 0.23121724E-02 0.92448109E+02</pdfrwt>
<totfact> 0.13221750E+05</totfact>
</mgrwt>
</event>
<event>
 5   1  0.1343823E+00  0.8463315E+02  0.7818608E-02  0.1316395E+00
          2   -1    0    0  501    0  0.00000000000E+00  0.00000000000E+00  0.32028339070E+03  0.32028339071E+03  0.26000000000E-02 0.  1.
         -2   -1    0    0    0  501 -0.00000000000E+00 -0.00000000000E+00 -0.55909626214E+01  0.55909632260E+01  0.26000000000E-02 0. -1.
         23    2    1    2    0    0  0.00000000000E+00  0.00000000000E+00  0.31469242808E+03  0.32587435394E+03  0.84633151091E+02 0.  0.
        -13    1    3    3    0    0  0.40963446155E+02 -0.10448453801E+02  0.15013521825E+03  0.15597361648E+03  0.10570000000E+00 0.  1.
         13    1    3    3    0    0 -0.40963446155E+02  0.10448453801E+02  0.16455720983E+03  0.16990073745E+03  0.10570000000E+00 0. -1.
<mgrwt>
<rscale>  0 0.84633151E+02</rscale>
<asrwt>0</asrwt>
<pdfrwt beam="1">  1        2 0.49274390E-01 0.84633151E+02</pdfrwt>
<pdfrwt beam="2">  1       -2 0.86014775E-03 0.84633151E+02</pdfrwt>
<totfact> 0.22428888E+05</totfact>
</mgrwt>
</event>
<event>
 5   1  0.1343823E+00  0.8848970E+02  0.7818608E-02  0.1306551E+00
         -2   -1    0    0    0  501 -0.00000000000E+00  0.00000000000E+00  0.11447885360E+02  0.11447885655E+02  0.26000000000E-02 0.  1.
          2   -1    0    0  501    0  0.00000000000E+00 -0.00000000000E+00 -0.17100160454E+03  0.17100160456E+03  0.26000000000E-02 0. -1.
         23    2    1    2    0    0  0.00000000000E+00  0.00000000000E+00 -0.15955371918E+03  0.18244949021E+03  0.88489700957E+02 0.  0.
        -13    1    3    3    0    0 -0.25235959082E+02 -0.29963645014E+02 -0.37375473965E+02  0.54144352244E+02  0.10570000000E+00 0.  1.
         13    1    3    3    0    0  0.25235959082E+02  0.29963645014E+02 -0.12217824522E+03  0.12830513797E+03  0.10570000000E+00 0. -1.
<mgrwt>
<rscale>  0 0.88489701E+02</rscale>
<asrwt>0</asrwt>
<pdfrwt beam="2">  1        2 0.26307937E-01 0.88489701E+02</pdfrwt>
<pdfrwt beam="1">  1       -2 0.17612133E-02 0.88489701E+02</pdfrwt>
<totfact> 0.15856786E+05</totfact>
</mgrwt>
</event>
<event>
 5   1  0.1343823E+00  0.9103421E+02  0.7818608E-02  0.1300366E+00
          2   -1    0    0  501    0  0.00000000000E+00  0.00000000000E+00  0.37236557492E+03  0.37236557493E+03  0.26000000000E-02 0. -1.
         -2   -1    0    0    0  501 -0.00000000000E+00 -0.00000000000E+00 -0.55639054554E+01  0.55639060629E+01  0.26000000000E-02 0.  1.
         23    2    1    2    0    0  0.00000000000E+00  0.00000000000E+00  0.36680166947E+03  0.37792948099E+03  0.91034212694E+02 0.  0.
        -13    1    3    3    0    0 -0.44965196004E+02 -0.41619294972E+01  0.20710639134E+03  0.21197230719E+03  0.10570000000E+00 0. -1.
         13    1    3    3    0    0  0.44965196004E+02  0.41619294972E+01  0.15969527813E+03  0.16595717381E+03  0.10570000000E+00 0.  1.
<mgrwt>
<rscale>  0 0.91034213E+02</rscale>
<asrwt>0</asrwt>
<pdfrwt beam="1">  1        2 0.57287006E-01 0.91034213E+02</pdfrwt>
<pdfrwt beam="2">  1       -2 0.85598559E-03 0.91034213E+02</pdfrwt>
<totfact> 0.19534535E+05</totfact>
</mgrwt>
</event>
<event>
 5   1  0.1343823E+00  0.8977189E+02  0.7818608E-02  0.1303405E+00
         -2   -1    0    0    0  501 -0.00000000000E+00  0.00000000000E+00  0.52549305499E+01  0.52549311931E+01  0.26000000000E-02 0.  1.
          2   -1    0    0  501    0  0.00000000000E+00 -0.00000000000E+00 -0.38340141009E+03  0.38340141010E+03  0.26000000000E-02 0. -1.
         23    2    1    2    0    0  0.00000000000E+00  0.00000000000E+00 -0.37814647954E+03  0.38865634129E+03  0.89771886678E+02 0.  0.
        -13    1    3    3    0    0  0.42447340706E+02 -0.14590766585E+02 -0.19021486925E+03  0.19543892872E+03  0.10570000000E+00 0.  1.
         13    1    3    3    0    0 -0.42447340706E+02  0.14590766585E+02 -0.18793161029E+03  0.19321741257E+03  0.10570000000E+00 0. -1.
<mgrwt>
<rscale>  0 0.89771887E+02</rscale>
<asrwt>0</asrwt>
<pdfrwt beam="2">  1        2 0.58984810E-01 0.89771887E+02</pdfrwt>
<pdfrwt beam="1">  1       -2 0.80845121E-03 0.89771887E+02</pdfrwt>
<totfact> 0.20487550E+05</totfact>
</mgrwt>
</event>
<event>
 5   1  0.1343823E+00  0.9105550E+02  0.7818608E-02  0.1300316E+00
          2   -1    0    0  501    0  0.00000000000E+00  0.00000000000E+00  0.38857237321E+03  0.38857237321E+03  0.26000000000E-02 0. -1.
         -2   -1    0    0    0  501 -0.00000000000E+00 -0.00000000000E+00 -0.53343373049E+01  0.53343379385E+01  0.26000000000E-02 0.  1.
         23    2    1    2    0    0  0.00000000000E+00  0.00000000000E+00  0.38323803590E+03  0.39390671115E+03  0.91055504667E+02 0.  0.
        -13    1    3    3    0    0 -0.44367637545E+02 -0.89294484773E+01  0.21305033070E+03  0.21780421689E+03  0.10570000000E+00 0.  1.
         13    1    3    3    0    0  0.44367637545E+02  0.89294484773E+01  0.17018770520E+03  0.17610249426E+03  0.10570000000E+00 0. -1.
<mgrwt>
<rscale>  0 0.91055505E+02</rscale>
<asrwt>0</asrwt>
<pdfrwt beam="1">  1        2 0.59780364E-01 0.91055505E+02</pdfrwt>
<pdfrwt beam="2">  1       -2 0.82066735E-03 0.91055505E+02</pdfrwt>
<totfact> 0.19825916E+05</totfact>
</mgrwt>
</event>
<event>
 5   1  0.1343823E+00  0.8926268E+02  0.7818608E-02  0.1304647E+00
          2   -1    0    0  501    0  0.00000000000E+00  0.00000000000E+00  0.14051323032E+03  0.14051323035E+03  0.26000000000E-02 0. -1.
         -2   -1    0    0    0  501 -0.00000000000E+00 -0.00000000000E+00 -0.14176292241E+02  0.14176292480E+02  0.26000000000E-02 0.  1.
         23    2    1    2    0    0  0.00000000000E+00  0.00000000000E+00  0.12633693808E+03  0.15468952283E+03  0.89262682844E+02 0.  0.
        -13    1    3    3    0    0 -0.33944390717E+02 -0.12251771315E+00  0.11338599521E+03  0.11835806586E+03  0.10570000000E+00 0. -1.
         13    1    3    3    0    0  0.33944390717E+02  0.12251771315E+00  0.12950942874E+02  0.36331456969E+02  0.10570000000E+00 0.  1.
<mgrwt>
<rscale>  0 0.89262683E+02</rscale>
<asrwt>0</asrwt>
<pdfrwt beam="1">  1        2 0.21617419E-01 0.89262683E+02</pdfrwt>
<pdfrwt beam="2">  1       -2 0.21809682E-02 0.89262683E+02</pdfrwt>
<totfact> 0.14486692E+05</totfact>
</mgrwt>
</event>
<event>
 5   1  0.1343823E+00  0.9857384E+02  0.7818608E-02  0.1283324E+00
         -2   -1    0    0    0  501 -0.00000000000E+00  0.00000000000E+00  0.27694876737E+02  0.27694876859E+02  0.26000000000E-02 0.  1.
          2   -1    0    0  501    0  0.00000000000E+00 -0.00000000000E+00 -0.87712998631E+02  0.87712998670E+02  0.26000000000E-02 0. -1.
         23    2    1    2    0    0  0.00000000000E+00  0.00000000000E+00 -0.60018121894E+02  0.11540787553E+03  0.98573844292E+02 0.  0.
        -13    1    3    3    0    0 -0.35787648249E+01 -0.45009411029E+02 -0.68722409181E+01  0.45671583141E+02  0.10570000000E+00 0.  1.
         13    1    3    3    0    0  0.35787648249E+01  0.45009411029E+02 -0.53145880976E+02  0.69736292388E+02  0.10570000000E+00 0. -1.
<mgrwt>
<rscale>  0 0.98573844E+02</rscale>
<asrwt>0</asrwt>
<pdfrwt beam="2">  1        2 0.13494307E-01 0.98573844E+02</pdfrwt>
<pdfrwt beam="1">  1       -2 0.42607503E-02 0.98573844E+02</pdfrwt>
<totfact> 0.94912672E+04</totfact>
</mgrwt>
</event>
<event>
 5   1  0.1343823E+00  0.9478850E+02  0.7818608E-02  0.1291653E+00
          2   -1    0    0  501    0  0.00000000000E+00  0.00000000000E+00  0.28845196405E+03  0.28845196406E+03  0.26000000000E-02 0. -1.
         -2   -1    0    0    0  501 -0.00000000000E+00 -0.00000000000E+00 -0.77871362298E+01  0.77871366639E+01  0.26000000000E-02 0.  1.
         23    2    1    2    0    0  0.00000000000E+00  0.00000000000E+00  0.28066482782E+03  0.29623910073E+03  0.94788497316E+02 0.  0.
        -13    1    3    3    0    0 -0.36130237976E+02  0.30060395265E+02  0.12127543164E+03  0.13006445691E+03  0.10570000000E+00 0.  1.
         13    1    3    3    0    0  0.36130237976E+02 -0.30060395265E+02  0.15938939618E+03  0.16617464382E+03  0.10570000000E+00 0. -1.
<mgrwt>
<rscale>  0 0.94788497E+02</rscale>
<asrwt>0</asrwt>
<pdfrwt beam="1">  1        2 0.44377218E-01 0.94788497E+02</pdfrwt>
<pdfrwt beam="2">  1       -2 0.11980212E-02 0.94788497E+02</pdfrwt>
<totfact> 0.15956011E+05</totfact>
</mgrwt>
</event>
<event>
 5   1  0.1343823E+00  0.8949694E+02  0.7818608E-02  0.1304075E+00
         -2   -1    0    0    0  501 -0.00000000000E+00  0.00000000000E+00  0.35827855157E+02  0.35827855251E+02  0.26000000000E-02 0.  1.
          2   -1    0    0  501    0  0.00000000000E+00 -0.00000000000E+00 -0.55890187997E+02  0.55890188057E+02  0.26000000000E-02 0. -1.
         23    2    1    2    0    0  0.00000000000E+00  0.00000000000E+00 -0.20062332840E+02  0.91718043309E+02  0.89496940000E+02 0.  0.
        -13    1    3    3    0    0 -0.89602030827E+01  0.30448789506E+02 -0.42357631459E+02  0.52930087257E+02  0.10570000000E+00 0. -1.
         13    1    3    3    0    0  0.89602030827E+01 -0.30448789506E+02  0.22295298619E+02  0.38787956052E+02  0.10570000000E+00 0.  1.
<mgrwt>
<rscale>  0 0.89496940E+02</rscale>
<asrwt>0</asrwt>
<pdfrwt beam="2">  1        2 0.85984904E-02 0.89496940E+02</pdfrwt>
<pdfrwt beam="1">  1       -2 0.55119778E-02 0.89496940E+02</pdfrwt>
<totfact> 0.10969607E+05</totfact>
</mgrwt>
</event>
<event>
 5   1  0.1343823E+00  0.8994635E+02  0.7818608E-02  0.1302982E+00
          2   -1    0    0  501    0  0.00000000000E+00  0.00000000000E+00  0.82137383931E+02  0.82137383972E+02  0.26000000000E-02 0. -1.
         -2   -1    0    0    0  501 -0.00000000000E+00 -0.00000000000E+00 -0.24624430609E+02  0.24624430746E+02  0.26000000000E-02 0.  1.
         23    2    1    2    0    0  0.00000000000E+00  0.00000000000E+00  0.57512953322E+02  0.10676181472E+03  0.89946346686E+02 0.  0.
        -13    1    3    3    0    0 -0.28078573080E+02 -0.34693217492E+02  0.22196009441E+02  0.49846761317E+02  0.10570000000E+00 0.  1.
         13    1    3    3    0    0  0.28078573080E+02  0.34693217492E+02  0.35316943881E+02  0.56915053402E+02  0.10570000000E+00 0. -1.
<mgrwt>
<rscale>  0 0.89946347E+02</rscale>
<asrwt>0</asrwt>
<pdfrwt beam="1">  1        2 0.12636521E-01 0.89946347E+02</pdfrwt>
<pdfrwt beam="2">  1       -2 0.37883739E-02 0.89946347E+02</pdfrwt>
<totfact> 0.12016844E+05</totfact>
</mgrwt>
</event>
<event>
 5   1  0.1343823E+00  0.9150287E+02  0.7818608E-02  0.1299253E+00
          2   -1    0    0  501    0  0.00000000000E+00  0.00000000000E+00  0.27116359402E+03  0.27116359403E+03  0.26000000000E-02 0. -1.
         -2   -1    0    0    0  501 -0.00000000000E+00 -0.00000000000E+00 -0.77193024906E+01  0.77193029285E+01  0.26000000000E-02 0.  1.
         23    2    1    2    0    0  0.00000000000E+00  0.00000000000E+00  0.26344429153E+03  0.27888289696E+03  0.91502871418E+02 0.  0.
        -13    1    3    3    0    0 -0.19122116839E+02 -0.39830985892E+02  0.95528913394E+02  0.10525182780E+03  0.10570000000E+00 0.  1.
         13    1    3    3    0    0  0.19122116839E+02  0.39830985892E+02  0.16791537813E+03  0.17363106915E+03  0.10570000000E+00 0. -1.
<mgrwt>
<rscale>  0 0.91502871E+02</rscale>
<asrwt>0</asrwt>
<pdfrwt beam="1">  1        2 0.41717476E-01 0.91502871E+02</pdfrwt>
<pdfrwt beam="2">  1       -2 0.11875850E-02 0.91502871E+02</pdfrwt>
<totfact> 0.17136930E+05</totfact>
</mgrwt>
</event>
<event>
 5   1  0.1343823E+00  0.8933861E+02  0.7818608E-02  0.1304461E+00
         -2   -1    0    0    0  501 -0.00000000000E+00  0.00000000000E+00  0.10703548760E+02  0.10703549076E+02  0.26000000000E-02 0.  1.
          2   -1    0    0  501    0  0.00000000000E+00 -0.00000000000E+00 -0.18641916643E+03  0.18641916645E+03  0.26000000000E-02 0. -1.
         23    2    1    2    0    0  0.00000000000E+00  0.00000000000E+00 -0.17571561767E+03  0.19712271552E+03  0.89338606897E+02 0.  0.
        -13    1    3    3    0    0  0.20812236897E+02  0.26154068278E+02 -0.15324340666E+03  0.15684622198E+03  0.10570000000E+00 0. -1.
         13    1    3    3    0    0 -0.20812236897E+02 -0.26154068278E+02 -0.22472211016E+02  0.40276493549E+02  0.10570000000E+00 0.  1.
<mgrwt>
<rscale>  0 0.89338607E+02</rscale>
<asrwt>0</asrwt>
<pdfrwt beam="2">  1        2 0.28679869E-01 0.89338607E+02</pdfrwt>
<pdfrwt beam="1">  1       -2 0.16467000E-02 0.89338607E+02</pdfrwt>
<totfact> 0.15931787E+05</totfact>
</mgrwt>
</event>
<event>
 5   1  0.1343823E+00  0.9440863E+02  0.7818608E-02  0.1292514E+00
         -2   -1    0    0    0  501 -0.00000000000E+00  0.00000000000E+00  0.24895426959E+02  0.24895427095E+02  0.26000000000E-02 0. -1.
          2   -1    0    0  501    0  0.00000000000E+00 -0.00000000000E+00 -0.89504288709E+02  0.89504288747E+02  0.26000000000E-02 0.  1.
         23    2    1    2    0    0  0.00000000000E+00  0.00000000000E+00 -0.64608861750E+02  0.11439971584E+03  0.94408632911E+02 0.  0.
        -13    1    3    3    0    0 -0.86863513899E+01  0.46345917066E+02 -0.29638692403E+02  0.55694344318E+02  0.10570000000E+00 0. -1.
         13    1    3    3    0    0  0.86863513899E+01 -0.46345917066E+02 -0.34970169347E+02  0.58705371524E+02  0.10570000000E+00 0.  1.
<mgrwt>
<rscale>  0 0.94408633E+02</rscale>
<asrwt>0</asrwt>
<pdfrwt beam="2">  1        2 0.13769890E-01 0.94408633E+02</pdfrwt>
<pdfrwt beam="1">  1       -2 0.38300657E-02 0.94408633E+02</pdfrwt>
<totfact> 0.10773047E+05</totfact>
</mgrwt>
</event>
<event>
 5   1  0.1343823E+00  0.9124984E+02  0.7818608E-02  0.1299853E+00
         -2   -1    0    0    0  501 -0.00000000000E+00  0.00000000000E+00  0.67453112306E+01  0.67453117317E+01  0.26000000000E-02 0.  1.
          2   -1    0    0  501    0  0.00000000000E+00 -0.00000000000E+00 -0.30860450609E+03  0.30860450610E+03  0.26000000000E-02 0. -1.
         23    2    1    2    0    0  0.00000000000E+00  0.00000000000E+00 -0.30185919486E+03  0.31534981783E+03  0.91249844306E+02 0.  0.
        -13    1    3    3    0    0  0.31211177826E+02 -0.32996017787E+02 -0.13596611865E+03  0.14335156575E+03  0.10570000000E+00 0.  1.
         13    1    3    3    0    0 -0.31211177826E+02  0.32996017787E+02 -0.16589307621E+03  0.17199825208E+03  0.10570000000E+00 0. -1.
<mgrwt>
<rscale>  0 0.91249844E+02</rscale>
<asrwt>0</asrwt>
<pdfrwt beam="2">  1        2 0.47477606E-01 0.91249844E+02</pdfrwt>
<pdfrwt beam="1">  1       -2 0.10377405E-02 0.91249844E+02</pdfrwt>
<totfact> 0.18117290E+05</totfact>
</mgrwt>
</event>
<event>
 5   1  0.1343823E+00  0.9131046E+02  0.7818608E-02  0.1299709E+00
         -2   -1    0    0    0  501 -0.00000000000E+00  0.00000000000E+00  0.14559878300E+02  0.14559878532E+02  0.26000000000E-02 0.  1.
          2   -1    0    0  501    0  0.00000000000E+00 -0.00000000000E+00 -0.14316054148E+03  0.14316054150E+03  0.26000000000E-02 0. -1.
         23    2    1    2    0    0  0.00000000000E+00  0.00000000000E+00 -0.12860066318E+03  0.15772042003E+03  0.91310461207E+02 0.  0.
        -13    1    3    3    0    0 -0.15597783009E+02 -0.34825726353E+02 -0.10759550306E+03  0.11416183908E+03  0.10570000000E+00 0. -1.
         13    1    3    3    0    0  0.15597783009E+02  0.34825726353E+02 -0.21005160120E+02  0.43558580957E+02  0.10570000000E+00 0.  1.
<mgrwt>
<rscale>  0 0.91310461E+02</rscale>
<asrwt>0</asrwt>
<pdfrwt beam="2">  1        2 0.22024698E-01 0.91310461E+02</pdfrwt>
<pdfrwt beam="1">  1       -2 0.22399814E-02 0.91310461E+02</pdfrwt>
<totfact> 0.13707276E+05</totfact>
</mgrwt>
</event>
<event>
 5   1  0.1343823E+00  0.9074046E+02  0.7818608E-02  0.1301068E+00
         -2   -1    0    0    0  501 -0.00000000000E+00  0.00000000000E+00  0.26208325761E+03  0.26208325762E+03  0.26000000000E-02 0.  1.
          2   -1    0    0  501    0  0.00000000000E+00 -0.00000000000E+00 -0.78542125542E+01  0.78542129846E+01  0.26000000000E-02 0. -1.
         23    2    1    2    0    0  0.00000000000E+00  0.00000000000E+00  0.25422904505E+03  0.26993747060E+03  0.90740457834E+02 0.  0.
        -13    1    3    3    0    0 -0.33852407047E+02  0.19568838409E+02  0.19556934493E+03  0.19943997780E+03  0.10570000000E+00 0.  1.
         13    1    3    3    0    0  0.33852407047E+02 -0.19568838409E+02  0.58659700126E+02  0.70497492799E+02  0.10570000000E+00 0. -1.
<mgrwt>
<rscale>  0 0.90740458E+02</rscale>
<asrwt>0</asrwt>
<pdfrwt beam="2">  1        2 0.12083404E-02 0.90740458E+02</pdfrwt>
<pdfrwt beam="1">  1       -2 0.40320502E-01 0.90740458E+02</pdfrwt>
<totfact> 0.55528722E+04</totfact>
</mgrwt>
</event>
<event>
 5   1  0.1343823E+00  0.9195675E+02  0.7818608E-02  0.1298181E+00
          2   -1    0    0  501    0  0.00000000000E+00  0.00000000000E+00  0.18933783537E+02  0.18933783716E+02  0.26000000000E-02 0.  1.
         -2   -1    0    0    0  501 -0.00000000000E+00 -0.00000000000E+00 -0.11165285000E+03  0.11165285003E+03  0.26000000000E-02 0. -1.
         23    2    1    2    0    0  0.00000000000E+00  0.00000000000E+00 -0.92719066461E+02  0.13058663374E+03  0.91956748677E+02 0.  0.
        -13    1    3    3    0    0 -0.26257485507E+02  0.36163850428E+02 -0.61701744751E+02  0.76186587407E+02  0.10570000000E+00 0. -1.
         13    1    3    3    0    0  0.26257485507E+02 -0.36163850428E+02 -0.31017321710E+02  0.54400046337E+02  0.10570000000E+00 0.  1.
<mgrwt>
<rscale>  0 0.91956749E+02</rscale>
<asrwt>0</asrwt>
<pdfrwt beam="1">  1        2 0.29128899E-02 0.91956749E+02</pdfrwt>
<pdfrwt beam="2">  1       -2 0.17177361E-01 0.91956749E+02</pdfrwt>
<totfact> 0.75537228E+04</totfact>
</mgrwt>
</event>
<event>
 5   1  0.1343823E+00  0.9320525E+02  0.7818608E-02  0.1295270E+00
          2   -1    0    0  501    0  0.00000000000E+00  0.00000000000E+00  0.19626310542E+02  0.19626310714E+02  0.26000000000E-02 0. -1.
         -2   -1    0    0    0  501 -0.00000000000E+00 -0.00000000000E+00 -0.11065781205E+03  0.11065781208E+03  0.26000000000E-02 0.  1.
         23    2    1    2    0    0  0.00000000000E+00  0.00000000000E+00 -0.91031501508E+02  0.13028412279E+03  0.93205248701E+02 0.  0.
        -13    1    3    3    0    0 -0.38154430519E+02 -0.11739883506E+02 -0.79127658918E+02  0.88627213717E+02  0.10570000000E+00 0.  1.
         13    1    3    3    0    0  0.38154430519E+02  0.11739883506E+02 -0.11903842589E+02  0.41656909077E+02  0.10570000000E+00 0. -1.
<mgrwt>
<rscale>  0 0.93205249E+02</rscale>
<asrwt>0</asrwt>
<pdfrwt beam="1">  1        2 0.30194325E-02 0.93205249E+02</pdfrwt>
<pdfrwt beam="2">  1       -2 0.17024278E-01 0.93205249E+02</pdfrwt>
<totfact> 0.73235330E+04</totfact>
</mgrwt>
</event>
<event>
 5   1  0.1343823E+00  0.9295308E+02  0.7818608E-02  0.1295854E+00
          2   -1    0    0  501    0  0.00000000000E+00  0.00000000000E+00  0.20220906489E+02  0.20220906656E+02  0.26000000000E-02 0. -1.
         -2   -1    0    0    0  501 -0.00000000000E+00 -0.00000000000E+00 -0.10682354445E+03  0.10682354448E+03  0.26000000000E-02 0.  1.
         23    2    1    2    0    0  0.00000000000E+00  0.00000000000E+00 -0.86602637963E+02  0.12704445114E+03  0.92953083130E+02 0.  0.
        -13    1    3    3    0    0  0.50862719136E+01  0.18413302792E+02 -0.10120961762E+03  0.10299668807E+03  0.10570000000E+00 0.  1.
         13    1    3    3    0    0 -0.50862719136E+01 -0.18413302792E+02  0.14606979655E+02  0.24047763073E+02  0.10570000000E+00 0. -1.
<mgrwt>
<rscale>  0 0.92953083E+02</rscale>
<asrwt>0</asrwt>
<pdfrwt beam="1">  1        2 0.31109088E-02 0.92953083E+02</pdfrwt>
<pdfrwt beam="2">  1       -2 0.16434391E-01 0.92953083E+02</pdfrwt>
<totfact> 0.74547196E+04</totfact>
</mgrwt>
</event>
<event>
 5   1  0.1343823E+00  0.9127689E+02  0.7818608E-02  0.1299789E+00
         -2   -1    0    0    0  501 -0.00000000000E+00  0.00000000000E+00  0.20772405097E+02  0.20772405259E+02  0.26000000000E-02 0.  1.
          2   -1    0    0  501    0  0.00000000000E+00 -0.00000000000E+00 -0.10027088532E+03  0.10027088535E+03  0.26000000000E-02 0. -1.
         23    2    1    2    0    0  0.00000000000E+00  0.00000000000E+00 -0.79498480219E+02  0.12104329061E+03  0.91276885597E+02 0.  0.
        -13    1    3    3    0    0  0.76910608788E+01  0.39684372271E+02 -0.67844476132E+02  0.78973957316E+02  0.10570000000E+00 0.  1.
         13    1    3    3    0    0 -0.76910608788E+01 -0.39684372271E+02 -0.11654004087E+02  0.42069333293E+02  0.10570000000E+00 0. -1.
<mgrwt>
<rscale>  0 0.91276886E+02</rscale>
<asrwt>0</asrwt>
<pdfrwt beam="2">  1        2 0.15426290E-01 0.91276886E+02</pdfrwt>
<pdfrwt beam="1">  1       -2 0.31957547E-02 0.91276886E+02</pdfrwt>
<totfact> 0.12240686E+05</totfact>
</mgrwt>
</event>
<event>
 5   1  0.1343823E+00  0.9148032E+02  0.7818608E-02  0.1299306E+00
          2   -1    0    0  501    0  0.00000000000E+00  0.00000000000E+00  0.12702651262E+03  0.12702651265E+03  0.26000000000E-02 0. -1.
         -2   -1    0    0    0  501 -0.00000000000E+00 -0.00000000000E+00 -0.16470278128E+02  0.16470278333E+02  0.26000000000E-02 0.  1.
         23    2    1    2    0    0  0.00000000000E+00  0.00000000000E+00  0.11055623449E+03  0.14349679098E+03  0.91480315021E+02 0.  0.
        -13    1    3    3    0    0  0.27826713640E+02  0.27034465617E+02  0.93281278149E+02  0.10102770090E+03  0.10570000000E+00 0. -1.
         13    1    3    3    0    0 -0.27826713640E+02 -0.27034465617E+02  0.17274956344E+02  0.42469090082E+02  0.10570000000E+00 0.  1.
<mgrwt>
<rscale>  0 0.91480315E+02</rscale>
<asrwt>0</asrwt>
<pdfrwt beam="1">  1        2 0.19542540E-01 0.91480315E+02</pdfrwt>
<pdfrwt beam="2">  1       -2 0.25338890E-02 0.91480315E+02</pdfrwt>
<totfact> 0.13108044E+05</totfact>
</mgrwt>
</event>
<event>
 5   1  0.1343823E+00  0.9161867E+02  0.7818608E-02  0.1298979E+00
         -2   -1    0    0    0  501 -0.00000000000E+00  0.00000000000E+00  0.24640312927E+03  0.24640312929E+03  0.26000000000E-02 0.  1.
          2   -1    0    0  501    0  0.00000000000E+00 -0.00000000000E+00 -0.85165111331E+01  0.85165115300E+01  0.26000000000E-02 0. -1.
         23    2    1    2    0    0  0.00000000000E+00  0.00000000000E+00  0.23788661814E+03  0.25491964082E+03  0.91618667225E+02 0.  0.
        -13    1    3    3    0    0  0.36360286001E+01  0.36244718371E+02  0.19623108514E+03  0.19958344185E+03  0.10570000000E+00 0.  1.
         13    1    3    3    0    0 -0.36360286001E+01 -0.36244718371E+02  0.41655532998E+02  0.55336198962E+02  0.10570000000E+00 0. -1.
<mgrwt>
<rscale>  0 0.91618667E+02</rscale>
<asrwt>0</asrwt>
<pdfrwt beam="2">  1        2 0.13102325E-02 0.91618667E+02</pdfrwt>
<pdfrwt beam="1">  1       -2 0.37908174E-01 0.91618667E+02</pdfrwt>
<totfact> 0.55884743E+04</totfact>
</mgrwt>
</event>
<event>
 5   1  0.1343823E+00  0.9076592E+02  0.7818608E-02  0.1301007E+00
         -2   -1    0    0    0  501 -0.00000000000E+00  0.00000000000E+00  0.17363138651E+02  0.17363138846E+02  0.26000000000E-02 0. -1.
          2   -1    0    0  501    0  0.00000000000E+00 -0.00000000000E+00 -0.11861986108E+03  0.11861986111E+03  0.26000000000E-02 0.  1.
         23    2    1    2    0    0  0.00000000000E+00  0.00000000000E+00 -0.10125672243E+03  0.13598299995E+03  0.90765921136E+02 0.  0.
        -13    1    3    3    0    0 -0.41522821625E+02 -0.18113519412E+02 -0.46564574050E+02  0.64965491071E+02  0.10570000000E+00 0. -1.
         13    1    3    3    0    0  0.41522821625E+02  0.18113519412E+02 -0.54692148380E+02  0.71017508884E+02  0.10570000000E+00 0.  1.
<mgrwt>
<rscale>  0 0.90765921E+02</rscale>
<asrwt>0</asrwt>
<pdfrwt beam="2">  1        2 0.18249209E-01 0.90765921E+02</pdfrwt>
<pdfrwt beam="1">  1       -2 0.26712522E-02 0.90765921E+02</pdfrwt>
<totfact> 0.13099216E+05</totfact>
</mgrwt>
</event>
<event>
 5   1  0.1343823E+00  0.8934212E+02  0.7818608E-02  0.1304453E+00
          2   -1    0    0  501    0  0.00000000000E+00  0.00000000000E+00  0.34750400750E+03  0.34750400751E+03  0.26000000000E-02 0. -1.
         -2   -1    0    0    0  501 -0.00000000000E+00 -0.00000000000E+00 -0.57423895772E+01  0.57423901658E+01  0.26000000000E-02 0.  1.
         23    2    1    2    0    0  0.00000000000E+00  0.00000000000E+00  0.34176161793E+03  0.35324639768E+03  0.89342117647E+02 0.  0.
        -13    1    3    3    0    0  0.33918160114E+02 -0.29046185259E+02  0.16625316815E+03  0.17214601232E+03  0.10570000000E+00 0. -1.
         13    1    3    3    0    0 -0.33918160114E+02  0.29046185259E+02  0.17550844977E+03  0.18110038536E+03  0.10570000000E+00 0.  1.
<mgrwt>
<rscale>  0 0.89342118E+02</rscale>
<asrwt>0</asrwt>
<pdfrwt beam="1">  1        2 0.53462165E-01 0.89342118E+02</pdfrwt>
<pdfrwt beam="2">  1       -2 0.88344444E-03 0.89342118E+02</pdfrwt>
<totfact> 0.20022510E+05</totfact>
</mgrwt>
</event>
<event>
 5   1  0.1343823E+00  0.9054504E+02  0.7818608E-02  0.1301537E+00
         -2   -1    0    0    0  501 -0.00000000000E+00  0.00000000000E+00  0.11783764275E+03  0.11783764278E+03  0.26000000000E-02 0.  1.
          2   -1    0    0  501    0  0.00000000000E+00 -0.00000000000E+00 -0.17393430434E+02  0.17393430628E+02  0.26000000000E-02 0. -1.
         23    2    1    2    0    0  0.00000000000E+00  0.00000000000E+00  0.10044421232E+03  0.13523107341E+03  0.90545035353E+02 0.  0.
        -13    1    3    3    0    0  0.25767532011E+02  0.37223954029E+02  0.50274374618E+02  0.67654359618E+02  0.10570000000E+00 0.  1.
         13    1    3    3    0    0 -0.25767532011E+02 -0.37223954029E+02  0.50169837702E+02  0.67576713793E+02  0.10570000000E+00 0. -1.
<mgrwt>
<rscale>  0 0.90545035E+02</rscale>
<asrwt>0</asrwt>
<pdfrwt beam="2">  1        2 0.26759124E-02 0.90545035E+02</pdfrwt>
<pdfrwt beam="1">  1       -2 0.18128868E-01 0.90545035E+02</pdfrwt>
<totfact> 0.77193091E+04</totfact>
</mgrwt>
</event>
<event>
 5   1  0.1343823E+00  0.9173053E+02  0.7818608E-02  0.1298714E+00
          2   -1    0    0  501    0  0.00000000000E+00  0.00000000000E+00  0.13589127856E+03  0.13589127859E+03  0.26000000000E-02 0. -1.
         -2   -1    0    0    0  501 -0.00000000000E+00 -0.00000000000E+00 -0.15480187742E+02  0.15480187960E+02  0.26000000000E-02 0.  1.
         23    2    1    2    0    0  0.00000000000E+00  0.00000000000E+00  0.12041109082E+03  0.15137146655E+03  0.91730529771E+02 0.  0.
        -13    1    3    3    0    0  0.37107622649E+01 -0.45714773109E+02  0.60150480630E+02  0.75641931027E+02  0.10570000000E+00 0.  1.
         13    1    3    3    0    0 -0.37107622649E+01  0.45714773109E+02  0.60260610191E+02  0.75729535520E+02  0.10570000000E+00 0. -1.
<mgrwt>
<rscale>  0 0.91730530E+02</rscale>
<asrwt>0</asrwt>
<pdfrwt beam="1">  1        2 0.20906350E-01 0.91730530E+02</pdfrwt>
<pdfrwt beam="2">  1       -2 0.23815674E-02 0.91730530E+02</pdfrwt>
<totfact> 0.13303059E+05</totfact>
</mgrwt>
</event>
<event>
 5   1  0.1343823E+00  0.9005643E+02  0.7818608E-02  0.1302715E+00
          2   -1    0    0  501    0  0.00000000000E+00  0.00000000000E+00  0.87142717977E+01  0.87142721856E+01  0.26000000000E-02 0.  1.
         -2   -1    0    0    0  501 -0.00000000000E+00 -0.00000000000E+00 -0.23266890309E+03  0.23266890310E+03  0.26000000000E-02 0. -1.
         23    2    1    2    0    0  0.00000000000E+00  0.00000000000E+00 -0.22395463129E+03  0.24138317529E+03  0.90056429176E+02 0.  0.
        -13    1    3    3    0    0 -0.32067524388E+02  0.23395196728E+02 -0.16895409118E+03  0.17355447978E+03  0.10570000000E+00 0. -1.
         13    1    3    3    0    0  0.32067524388E+02 -0.23395196728E+02 -0.55000540108E+02  0.67828695513E+02  0.10570000000E+00 0.  1.
<mgrwt>
<rscale>  0 0.90056429E+02</rscale>
<asrwt>0</asrwt>
<pdfrwt beam="1">  1        2 0.13406574E-02 0.90056429E+02</pdfrwt>
<pdfrwt beam="2">  1       -2 0.35795211E-01 0.90056429E+02</pdfrwt>
<totfact> 0.60051522E+04</totfact>
</mgrwt>
</event>
<event>
 5   1  0.1343823E+00  0.9116450E+02  0.7818608E-02  0.1300056E+00
          2   -1    0    0  501    0  0.00000000000E+00  0.00000000000E+00  0.24336862238E+02  0.24336862377E+02  0.26000000000E-02 0.  1.
         -2   -1    0    0    0  501 -0.00000000000E+00 -0.00000000000E+00 -0.85374261775E+02  0.85374261814E+02  0.26000000000E-02 0. -1.
         23    2    1    2    0    0  0.00000000000E+00  0.00000000000E+00 -0.61037399536E+02  0.10971112419E+03  0.91164503121E+02 0.  0.
        -13    1    3    3    0    0 -0.80280407449E+01  0.44248249116E+02 -0.21563487781E+02  0.49873361284E+02  0.10570000000E+00 0.  1.
         13    1    3    3    0    0  0.80280407449E+01 -0.44248249116E+02 -0.39473911755E+02  0.59837762908E+02  0.10570000000E+00 0. -1.
<mgrwt>
<rscale>  0 0.91164503E+02</rscale>
<asrwt>0</asrwt>
<pdfrwt beam="1">  1        2 0.37441327E-02 0.91164503E+02</pdfrwt>
<pdfrwt beam="2">  1       -2 0.13134502E-01 0.91164503E+02</pdfrwt>
<totfact> 0.83577479E+04</totfact>
</mgrwt>
</event>
<event>
 5   1  0.1343823E+00  0.8988191E+02  0.7818608E-02  0.1303138E+00
          2   -1    0    0  501    0  0.00000000000E+00  0.00000000000E+00  0.41888277614E+02  0.41888277695E+02  0.26000000000E-02 0. -1.
         -2   -1    0    0    0  501 -0.00000000000E+00 -0.00000000000E+00 -0.48216102984E+02  0.48216103054E+02  0.26000000000E-02 0.  1.
         23    2    1    2    0    0  0.00000000000E+00  0.00000000000E+00 -0.63278253698E+01  0.90104380749E+02  0.89881911730E+02 0.  0.
        -13    1    3    3    0    0 -0.24590933995E+02 -0.24475291753E+02 -0.31799003565E+02  0.47063167566E+02  0.10570000000E+00 0.  1.
         13    1    3    3    0    0  0.24590933995E+02  0.24475291753E+02  0.25471178195E+02  0.43041213183E+02  0.10570000000E+00 0. -1.
<mgrwt>
<rscale>  0 0.89881912E+02</rscale>
<asrwt>0</asrwt>
<pdfrwt beam="1">  1        2 0.64443504E-02 0.89881912E+02</pdfrwt>
<pdfrwt beam="2">  1       -2 0.74178620E-02 0.89881912E+02</pdfrwt>
<totfact> 0.10059428E+05</totfact>
</mgrwt>
</event>
<event>
 5   1  0.1343823E+00  0.9180878E+02  0.7818608E-02  0.1298530E+00
          2   -1    0    0  501    0  0.00000000000E+00  0.00000000000E+00  0.25142976523E+02  0.25142976658E+02  0.26000000000E-02 0. -1.
         -2   -1    0    0    0  501 -0.00000000000E+00 -0.00000000000E+00 -0.83809206441E+02  0.83809206482E+02  0.26000000000E-02 0.  1.
         23    2    1    2    0    0  0.00000000000E+00  0.00000000000E+00 -0.58666229918E+02  0.10895218314E+03  0.91808777783E+02 0.  0.
        -13    1    3    3    0    0  0.25464965562E+02  0.42095986445E+01  0.15715995125E+02  0.30219014992E+02  0.10570000000E+00 0. -1.
         13    1    3    3    0    0 -0.25464965562E+02 -0.42095986445E+01 -0.74382225043E+02  0.78733168148E+02  0.10570000000E+00 0.  1.
<mgrwt>
<rscale>  0 0.91808778E+02</rscale>
<asrwt>0</asrwt>
<pdfrwt beam="1">  1        2 0.38681503E-02 0.91808778E+02</pdfrwt>
<pdfrwt beam="2">  1       -2 0.12893724E-01 0.91808778E+02</pdfrwt>
<totfact> 0.82566968E+04</totfact>
</mgrwt>
</event>
<event>
 5   1  0.1343823E+00  0.8984982E+02  0.7818608E-02  0.1303216E+00
         -2   -1    0    0    0  501 -0.00000000000E+00  0.00000000000E+00  0.10443023523E+03  0.10443023526E+03  0.26000000000E-02 0.  1.
          2   -1    0    0  501    0  0.00000000000E+00 -0.00000000000E+00 -0.19326276818E+02  0.19326276993E+02  0.26000000000E-02 0. -1.
         23    2    1    2    0    0  0.00000000000E+00  0.00000000000E+00  0.85103958414E+02  0.12375651226E+03  0.89849822418E+02 0.  0.
        -13    1    3    3    0    0 -0.19691144107E+01  0.40886208462E+02  0.17054729953E+02  0.44344497294E+02  0.10570000000E+00 0.  1.
         13    1    3    3    0    0  0.19691144107E+01 -0.40886208462E+02  0.68049228461E+02  0.79412014964E+02  0.10570000000E+00 0. -1.
<mgrwt>
<rscale>  0 0.89849822E+02</rscale>
<asrwt>0</asrwt>
<pdfrwt beam="2">  1        2 0.29732734E-02 0.89849822E+02</pdfrwt>
<pdfrwt beam="1">  1       -2 0.16066190E-01 0.89849822E+02</pdfrwt>
<totfact> 0.81702953E+04</totfact>
</mgrwt>
</event>
<event>
 5   1  0.1343823E+00  0.9170137E+02  0.7818608E-02  0.1298783E+00
         -2   -1    0    0    0  501 -0.00000000000E+00  0.00000000000E+00  0.44167808934E+02  0.44167809010E+02  0.26000000000E-02 0.  1.
          2   -1    0    0  501    0  0.00000000000E+00 -0.00000000000E+00 -0.47597678643E+02  0.47597678714E+02  0.26000000000E-02 0. -1.
         23    2    1    2    0    0  0.00000000000E+00  0.00000000000E+00 -0.34298697095E+01  0.91765487725E+02  0.91701367117E+02 0.  0.
        -13    1    3    3    0    0 -0.15677493101E+02 -0.24201471208E+02  0.33957978874E+02  0.44549416385E+02  0.10570000000E+00 0.  1.
         13    1    3    3    0    0  0.15677493101E+02  0.24201471208E+02 -0.37387848583E+02  0.47216071340E+02  0.10570000000E+00 0. -1.
<mgrwt>
<rscale>  0 0.91701367E+02</rscale>
<asrwt>0</asrwt>
<pdfrwt beam="2">  1        2 0.73227199E-02 0.91701367E+02</pdfrwt>
<pdfrwt beam="1">  1       -2 0.67950475E-02 0.91701367E+02</pdfrwt>
<totfact> 0.98159976E+04</totfact>
</mgrwt>
</event>
<event>
 5   1  0.1343823E+00  0.8832086E+02  0.7818608E-02  0.1306970E+00
          2   -1    0    0  501    0  0.00000000000E+00  0.00000000000E+00  0.32401726932E+03  0.32401726933E+03  0.26000000000E-02 0. -1.
         -2   -1    0    0    0  501 -0.00000000000E+00 -0.00000000000E+00 -0.60186411392E+01  0.60186417007E+01  0.26000000000E-02 0.  1.
         23    2    1    2    0    0  0.00000000000E+00  0.00000000000E+00  0.31799862818E+03  0.33003591103E+03  0.88320864156E+02 0.  0.
        -13    1    3    3    0    0 -0.22398643198E+02 -0.37135488961E+02  0.19012670177E+03  0.19501004501E+03  0.10570000000E+00 0. -1.
         13    1    3    3    0    0  0.22398643198E+02  0.37135488961E+02  0.12787192641E+03  0.13502586602E+03  0.10570000000E+00 0.  1.
<mgrwt>
<rscale>  0 0.88320864E+02</rscale>
<asrwt>0</asrwt>
<pdfrwt beam="1">  1        2 0.49848824E-01 0.88320864E+02</pdfrwt>
<pdfrwt beam="2">  1       -2 0.92594460E-03 0.88320864E+02</pdfrwt>
<totfact> 0.20119229E+05</totfact>
</mgrwt>
</event>
<event>
 5   1  0.1343823E+00  0.9087859E+02  0.7818608E-02  0.1300738E+00
          2   -1    0    0  501    0  0.00000000000E+00  0.00000000000E+00  0.10542675494E+03  0.10542675497E+03  0.26000000000E-02 0. -1.
         -2   -1    0    0    0  501 -0.00000000000E+00 -0.00000000000E+00 -0.19584491447E+02  0.19584491620E+02  0.26000000000E-02 0.  1.
         23    2    1    2    0    0  0.00000000000E+00  0.00000000000E+00  0.85842263495E+02  0.12501124659E+03  0.90878586988E+02 0.  0.
        -13    1    3    3    0    0 -0.26708356035E+02  0.36531416822E+02  0.37276616789E+02  0.58629668504E+02  0.10570000000E+00 0. -1.
         13    1    3    3    0    0  0.26708356035E+02 -0.36531416822E+02  0.48565646706E+02  0.66381578089E+02  0.10570000000E+00 0.  1.
<mgrwt>
<rscale>  0 0.90878587E+02</rscale>
<asrwt>0</asrwt>
<pdfrwt beam="1">  1        2 0.16219501E-01 0.90878587E+02</pdfrwt>
<pdfrwt beam="2">  1       -2 0.30129987E-02 0.90878587E+02</pdfrwt>
<totfact> 0.12580829E+05</totfact>
</mgrwt>
</event>
<event>
 5   1  0.1343823E+00  0.9023791E+02  0.7818608E-02  0.1302277E+00
         -2   -1    0    0    0  501 -0.00000000000E+00  0.00000000000E+00  0.10459661995E+02  0.10459662319E+02  0.26000000000E-02 0.  1.
          2   -1    0    0  501    0  0.00000000000E+00 -0.00000000000E+00 -0.19462581244E+03  0.19462581246E+03  0.26000000000E-02 0. -1.
         23    2    1    2    0    0  0.00000000000E+00  0.00000000000E+00 -0.18416615045E+03  0.20508547478E+03  0.90237913288E+02 0.  0.
        -13    1    3    3    0    0  0.10686432975E+02 -0.39269306371E+02 -0.13635334325E+03  0.14229730729E+03  0.10570000000E+00 0. -1.
         13    1    3    3    0    0 -0.10686432975E+02  0.39269306371E+02 -0.47812807193E+02  0.62788167490E+02  0.10570000000E+00 0.  1.
<mgrwt>
<rscale>  0 0.90237913E+02</rscale>
<asrwt>0</asrwt>
<pdfrwt beam="2">  1        2 0.29942430E-01 0.90237913E+02</pdfrwt>
<pdfrwt beam="1">  1       -2 0.16091789E-02 0.90237913E+02</pdfrwt>
<totfact> 0.15749326E+05</totfact>
</mgrwt>
</event>
<event>
 5   1  0.1343823E+00  0.8935172E+02  0.7818608E-02  0.1304429E+00
         -2   -1    0    0    0  501 -0.00000000000E+00  0.00000000000E+00  0.13686062192E+02  0.13686062439E+02  0.26000000000E-02 0.  1.
          2   -1    0    0  501    0  0.00000000000E+00 -0.00000000000E+00 -0.14583688069E+03  0.14583688071E+03  0.26000000000E-02 0. -1.
         23    2    1    2    0    0  0.00000000000E+00  0.00000000000E+00 -0.13215081849E+03  0.15952294315E+03  0.89351723889E+02 0.  0.
        -13    1    3    3    0    0  0.33169739538E+02  0.57443631921E+01 -0.11851365300E+03  0.12320197421E+03  0.10570000000E+00 0. -1.
         13    1    3    3    0    0 -0.33169739538E+02 -0.57443631921E+01 -0.13637165497E+02  0.36320968940E+02  0.10570000000E+00 0.  1.
<mgrwt>
<rscale>  0 0.89351724E+02</rscale>
<asrwt>0</asrwt>
<pdfrwt beam="2">  1        2 0.22436442E-01 0.89351724E+02</pdfrwt>
<pdfrwt beam="1">  1       -2 0.21055482E-02 0.89351724E+02</pdfrwt>
<totfact> 0.14628514E+05</totfact>
</mgrwt>
</event>
<event>
 5   1  0.1343823E+00  0.9320095E+02  0.7818608E-02  0.1295280E+00
         -2   -1    0    0    0  501 -0.00000000000E+00  0.00000000000E+00  0.23449453194E+02  0.23449453338E+02  0.26000000000E-02 0.  1.
          2   -1    0    0  501    0  0.00000000000E+00 -0.00000000000E+00 -0.92607886118E+02  0.92607886154E+02  0.26000000000E-02 0. -1.
         23    2    1    2    0    0  0.00000000000E+00  0.00000000000E+00 -0.69158432924E+02  0.11605733949E+03  0.93200950668E+02 0.  0.
        -13    1    3    3    0    0  0.10899052089E+02  0.27205137215E+02  0.10536973235E+02  0.31143985050E+02  0.10570000000E+00 0.  1.
         13    1    3    3    0    0 -0.10899052089E+02 -0.27205137215E+02 -0.79695406159E+02  0.84913354442E+02  0.10570000000E+00 0. -1.
<mgrwt>
<rscale>  0 0.93200951E+02</rscale>
<asrwt>0</asrwt>
<pdfrwt beam="2">  1        2 0.14247367E-01 0.93200951E+02</pdfrwt>
<pdfrwt beam="1">  1       -2 0.36076083E-02 0.93200951E+02</pdfrwt>
<totfact> 0.11280063E+05</totfact>
</mgrwt>
</event>
<event>
 5   1  0.1343823E+00  0.8955260E+02  0.7818608E-02  0.1303939E+00
         -2   -1    0    0    0  501 -0.00000000000E+00  0.00000000000E+00  0.89997870833E+01  0.89997874589E+01  0.26000000000E-02 0.  1.
          2   -1    0    0  501    0  0.00000000000E+00 -0.00000000000E+00 -0.22277380559E+03  0.22277380561E+03  0.26000000000E-02 0. -1.
         23    2    1    2    0    0  0.00000000000E+00  0.00000000000E+00 -0.21377401851E+03  0.23177359306E+03  0.89552596017E+02 0.  0.
        -13    1    3    3    0    0 -0.44391347195E+02  0.48413070036E+01 -0.11542223503E+03  0.12375917530E+03  0.10570000000E+00 0. -1.
         13    1    3    3    0    0  0.44391347195E+02 -0.48413070036E+01 -0.98351783478E+02  0.10801441776E+03  0.10570000000E+00 0.  1.
<mgrwt>
<rscale>  0 0.89552596E+02</rscale>
<asrwt>0</asrwt>
<pdfrwt beam="2">  1        2 0.34272889E-01 0.89552596E+02</pdfrwt>
<pdfrwt beam="1">  1       -2 0.13845828E-02 0.89552596E+02</pdfrwt>
<totfact> 0.16881929E+05</totfact>
</mgrwt>
</event>
<event>
 5   1  0.1343823E+00  0.9123281E+02  0.7818608E-02  0.1299893E+00
          2   -1    0    0  501    0  0.00000000000E+00  0.00000000000E+00  0.33314444534E+02  0.33314444636E+02  0.26000000000E-02 0. -1.
         -2   -1    0    0    0  501 -0.00000000000E+00 -0.00000000000E+00 -0.62461087709E+02  0.62461087763E+02  0.26000000000E-02 0.  1.
         23    2    1    2    0    0  0.00000000000E+00  0.00000000000E+00 -0.29146643175E+02  0.95775532399E+02  0.91232810972E+02 0.  0.
        -13    1    3    3    0    0  0.37340995770E+01 -0.35572335993E+02  0.15147319839E+02  0.38843108249E+02  0.10570000000E+00 0. -1.
         13    1    3    3    0    0 -0.37340995770E+01  0.35572335993E+02 -0.44293963014E+02  0.56932424150E+02  0.10570000000E+00 0.  1.
<mgrwt>
<rscale>  0 0.91232811E+02</rscale>
<asrwt>0</asrwt>
<pdfrwt beam="1">  1        2 0.51252992E-02 0.91232811E+02</pdfrwt>
<pdfrwt beam="2">  1       -2 0.96093981E-02 0.91232811E+02</pdfrwt>
<totfact> 0.90790099E+04</totfact>
</mgrwt>
</event>
<event>
 5   1  0.1343823E+00  0.9262447E+02  0.7818608E-02  0.1296618E+00
          2   -1    0    0  501    0  0.00000000000E+00  0.00000000000E+00  0.38450726171E+02  0.38450726259E+02  0.26000000000E-02 0. -1.
         -2   -1    0    0    0  501 -0.00000000000E+00 -0.00000000000E+00 -0.55781082213E+02  0.55781082274E+02  0.26000000000E-02 0.  1.
         23    2    1    2    0    0  0.00000000000E+00  0.00000000000E+00 -0.17330356042E+02  0.94231808533E+02  0.92624470303E+02 0.  0.
        -13    1    3    3    0    0 -0.88724933600E+01 -0.35066216855E+02 -0.38088527220E+02  0.52527209913E+02  0.10570000000E+00 0.  1.
         13    1    3    3    0    0  0.88724933600E+01  0.35066216855E+02  0.20758171178E+02  0.41704598620E+02  0.10570000000E+00 0. -1.
<mgrwt>
<rscale>  0 0.92624470E+02</rscale>
<asrwt>0</asrwt>
<pdfrwt beam="1">  1        2 0.59154963E-02 0.92624470E+02</pdfrwt>
<pdfrwt beam="2">  1       -2 0.85817050E-02 0.92624470E+02</pdfrwt>
<totfact> 0.90182746E+04</totfact>
</mgrwt>
</event>
<event>
 5   1  0.1343823E+00  0.8826491E+02  0.7818608E-02  0.1307109E+00
         -2   -1    0    0    0  501 -0.00000000000E+00  0.00000000000E+00  0.20235860473E+02  0.20235860640E+02  0.26000000000E-02 0.  1.
          2   -1    0    0  501    0  0.00000000000E+00 -0.00000000000E+00 -0.96248613413E+02  0.96248613448E+02  0.26000000000E-02 0. -1.
         23    2    1    2    0    0  0.00000000000E+00  0.00000000000E+00 -0.76012752939E+02  0.11648447409E+03  0.88264908623E+02 0.  0.
        -13    1    3    3    0    0 -0.19697791641E+02  0.14807985646E+02 -0.86322758814E+02  0.89771428061E+02  0.10570000000E+00 0. -1.
         13    1    3    3    0    0  0.19697791641E+02 -0.14807985646E+02  0.10310005874E+02  0.26713046027E+02  0.10570000000E+00 0.  1.
<mgrwt>
<rscale>  0 0.88264909E+02</rscale>
<asrwt>0</asrwt>
<pdfrwt beam="2">  1        2 0.14807479E-01 0.88264909E+02</pdfrwt>
<pdfrwt beam="1">  1       -2 0.31132094E-02 0.88264909E+02</pdfrwt>
<totfact> 0.13257852E+05</totfact>
</mgrwt>
</event>
<event>
 5   1  0.1343823E+00  0.9127512E+02  0.7818608E-02  0.1299793E+00
          2   -1    0    0  501    0  0.00000000000E+00  0.00000000000E+00  0.20895589531E+02  0.20895589693E+02  0.26000000000E-02 0. -1.
         -2   -1    0    0    0  501 -0.00000000000E+00 -0.00000000000E+00 -0.99675918724E+02  0.99675918758E+02  0.26000000000E-02 0.  1.
         23    2    1    2    0    0  0.00000000000E+00  0.00000000000E+00 -0.78780329194E+02  0.12057150845E+03  0.91275124663E+02 0.  0.
        -13    1    3    3    0    0 -0.19425047065E+02  0.20649899851E+02  0.78522181865E+01  0.29418010134E+02  0.10570000000E+00 0. -1.
         13    1    3    3    0    0  0.19425047065E+02 -0.20649899851E+02 -0.86632547380E+02  0.91153498317E+02  0.10570000000E+00 0.  1.
<mgrwt>
<rscale>  0 0.91275125E+02</rscale>
<asrwt>0</asrwt>
<pdfrwt beam="1">  1        2 0.32147062E-02 0.91275125E+02</pdfrwt>
<pdfrwt beam="2">  1       -2 0.15334756E-01 0.91275125E+02</pdfrwt>
<totfact> 0.79669481E+04</totfact>
</mgrwt>
</event>
<event>
 5   1  0.1343823E+00  0.9130032E+02  0.7818608E-02  0.1299733E+00
          2   -1    0    0  501    0  0.00000000000E+00  0.00000000000E+00  0.10096070553E+03  0.10096070556E+03  0.26000000000E-02 0. -1.
         -2   -1    0    0    0  501 -0.00000000000E+00 -0.00000000000E+00 -0.20641072296E+02  0.20641072460E+02  0.26000000000E-02 0.  1.
         23    2    1    2    0    0  0.00000000000E+00  0.00000000000E+00  0.80319633235E+02  0.12160177802E+03  0.91300322757E+02 0.  0.
        -13    1    3    3    0    0  0.24497810387E+02  0.99904587985E+01 -0.93888065017E+01  0.28073347516E+02  0.10570000000E+00 0.  1.
         13    1    3    3    0    0 -0.24497810387E+02 -0.99904587985E+01  0.89708439736E+02  0.93528430508E+02  0.10570000000E+00 0. -1.
<mgrwt>
<rscale>  0 0.91300323E+02</rscale>
<asrwt>0</asrwt>
<pdfrwt beam="1">  1        2 0.15532416E-01 0.91300323E+02</pdfrwt>
<pdfrwt beam="2">  1       -2 0.31755496E-02 0.91300323E+02</pdfrwt>
<totfact> 0.12257648E+05</totfact>
</mgrwt>
</event>
<event>
 5   1  0.1343823E+00  0.9120856E+02  0.7818608E-02  0.1299951E+00
         -2   -1    0    0    0  501 -0.00000000000E+00  0.00000000000E+00  0.65290305634E+01  0.65290310811E+01  0.26000000000E-02 0.  1.
          2   -1    0    0  501    0  0.00000000000E+00 -0.00000000000E+00 -0.31853890346E+03  0.31853890347E+03  0.26000000000E-02 0. -1.
         23    2    1    2    0    0  0.00000000000E+00  0.00000000000E+00 -0.31200987290E+03  0.32506793455E+03  0.91208559295E+02 0.  0.
        -13    1    3    3    0    0  0.18835702661E+02 -0.40227952288E+02 -0.11919592054E+03  0.12720357890E+03  0.10570000000E+00 0. -1.
         13    1    3    3    0    0 -0.18835702661E+02  0.40227952288E+02 -0.19281395236E+03  0.19786435565E+03  0.10570000000E+00 0.  1.
<mgrwt>
<rscale>  0 0.91208559E+02</rscale>
<asrwt>0</asrwt>
<pdfrwt beam="2">  1        2 0.49005973E-01 0.91208559E+02</pdfrwt>
<pdfrwt beam="1">  1       -2 0.10044665E-02 0.91208559E+02</pdfrwt>
<totfact> 0.18353788E+05</totfact>
</mgrwt>
</event>
<event>
 5   1  0.1343823E+00  0.7923006E+02  0.7818608E-02  0.1331251E+00
         -2   -1    0    0    0  501 -0.00000000000E+00  0.00000000000E+00  0.26683690634E+02  0.26683690761E+02  0.26000000000E-02 0. -1.
          2   -1    0    0  501    0  0.00000000000E+00 -0.00000000000E+00 -0.58813096486E+02  0.58813096543E+02  0.26000000000E-02 0.  1.
         23    2    1    2    0    0  0.00000000000E+00  0.00000000000E+00 -0.32129405852E+02  0.85496787304E+02  0.79230056916E+02 0.  0.
        -13    1    3    3    0    0  0.32993084448E+02  0.13058929043E+02 -0.35072105034E+02  0.49891311600E+02  0.10570000000E+00 0.  1.
         13    1    3    3    0    0 -0.32993084448E+02 -0.13058929043E+02  0.29426991826E+01  0.35605475704E+02  0.10570000000E+00 0. -1.
<mgrwt>
<rscale>  0 0.79230057E+02</rscale>
<asrwt>0</asrwt>
<pdfrwt beam="2">  1        2 0.90481686E-02 0.79230057E+02</pdfrwt>
<pdfrwt beam="1">  1       -2 0.41051832E-02 0.79230057E+02</pdfrwt>
<totfact> 0.15606062E+05</totfact>
</mgrwt>
</event>
<event>
 5   1  0.1343823E+00  0.9265168E+02  0.7818608E-02  0.1296554E+00
          2   -1    0    0  501    0  0.00000000000E+00  0.00000000000E+00  0.12494577865E+02  0.12494578135E+02  0.26000000000E-02 0.  1.
         -2   -1    0    0    0  501 -0.00000000000E+00 -0.00000000000E+00 -0.17176117968E+03  0.17176117970E+03  0.26000000000E-02 0. -1.
         23    2    1    2    0    0  0.00000000000E+00  0.00000000000E+00 -0.15926660182E+03  0.18425575784E+03  0.92651680189E+02 0.  0.
        -13    1    3    3    0    0 -0.12037186393E+02  0.41256006644E+02 -0.45238662585E+02  0.62397914271E+02  0.10570000000E+00 0.  1.
         13    1    3    3    0    0  0.12037186393E+02 -0.41256006644E+02 -0.11402793923E+03  0.12185784357E+03  0.10570000000E+00 0. -1.
<mgrwt>
<rscale>  0 0.92651680E+02</rscale>
<asrwt>0</asrwt>
<pdfrwt beam="1">  1        2 0.19222429E-02 0.92651680E+02</pdfrwt>
<pdfrwt beam="2">  1       -2 0.26424795E-01 0.92651680E+02</pdfrwt>
<totfact> 0.63708791E+04</totfact>
</mgrwt>
</event>
<event>
 5   1  0.1343823E+00  0.9092038E+02  0.7818608E-02  0.1300638E+00
          2   -1    0    0  501    0  0.00000000000E+00  0.00000000000E+00  0.16918722949E+03  0.16918722951E+03  0.26000000000E-02 0.  1.
         -2   -1    0    0    0  501 -0.00000000000E+00 -0.00000000000E+00 -0.12215039248E+02  0.12215039524E+02  0.26000000000E-02 0. -1.
         23    2    1    2    0    0  0.00000000000E+00  0.00000000000E+00  0.15697219024E+03  0.18140226903E+03  0.90920375610E+02 0.  0.
        -13    1    3    3    0    0  0.30871825235E+02 -0.35603344391E+00  0.11911087149E+02  0.33092015996E+02  0.10570000000E+00 0. -1.
         13    1    3    3    0    0 -0.30871825235E+02  0.35603344391E+00  0.14506110309E+03  0.14831025303E+03  0.10570000000E+00 0.  1.
<mgrwt>
<rscale>  0 0.90920376E+02</rscale>
<asrwt>0</asrwt>
<pdfrwt beam="1">  1        2 0.26028802E-01 0.90920376E+02</pdfrwt>
<pdfrwt beam="2">  1       -2 0.18792370E-02 0.90920376E+02</pdfrwt>
<totfact> 0.14684849E+05</totfact>
</mgrwt>
</event>
<event>
 5   1  0.1343823E+00  0.9966950E+02  0.7818608E-02  0.1280992E+00
          2   -1    0    0  501    0  0.00000000000E+00  0.00000000000E+00  0.33315156435E+02  0.33315156536E+02  0.26000000000E-02 0. -1.
         -2   -1    0    0    0  501 -0.00000000000E+00 -0.00000000000E+00 -0.74545724829E+02  0.74545724875E+02  0.26000000000E-02 0.  1.
         23    2    1    2    0    0  0.00000000000E+00  0.00000000000E+00 -0.41230568394E+02  0.10786088141E+03  0.99669503704E+02 0.  0.
        -13    1    3    3    0    0  0.42062636822E+02 -0.15903411719E+02 -0.43858535586E+02  0.62815334409E+02  0.10570000000E+00 0.  1.
         13    1    3    3    0    0 -0.42062636822E+02  0.15903411719E+02  0.26279671914E+01  0.45045547002E+02  0.10570000000E+00 0. -1.
<mgrwt>
<rscale>  0 0.99669504E+02</rscale>
<asrwt>0</asrwt>
<pdfrwt beam="1">  1        2 0.51254087E-02 0.99669504E+02</pdfrwt>
<pdfrwt beam="2">  1       -2 0.11468573E-01 0.99669504E+02</pdfrwt>
<totfact> 0.69787878E+04</totfact>
</mgrwt>
</event>
<event>
 5   1  0.1343823E+00  0.9377929E+02  0.7818608E-02  0.1293949E+00
          2   -1    0    0  501    0  0.00000000000E+00  0.00000000000E+00  0.24614999741E+03  0.24614999742E+03  0.26000000000E-02 0.  1.
         -2   -1    0    0    0  501 -0.00000000000E+00 -0.00000000000E+00 -0.89321099389E+01  0.89321103173E+01  0.26000000000E-02 0. -1.
         23    2    1    2    0    0  0.00000000000E+00  0.00000000000E+00  0.23721788747E+03  0.25508210774E+03  0.93779291708E+02 0.  0.
        -13    1    3    3    0    0  0.43162007582E+02 -0.77623148322E+00  0.68819369570E+02  0.81238403692E+02  0.10570000000E+00 0. -1.
         13    1    3    3    0    0 -0.43162007582E+02  0.77623148322E+00  0.16839851790E+03  0.17384370404E+03  0.10570000000E+00 0.  1.
<mgrwt>
<rscale>  0 0.93779292E+02</rscale>
<asrwt>0</asrwt>
<pdfrwt beam="1">  1        2 0.37869227E-01 0.93779292E+02</pdfrwt>
<pdfrwt beam="2">  1       -2 0.13741709E-02 0.93779292E+02</pdfrwt>
<totfact> 0.15475227E+05</totfact>
</mgrwt>
</event>
<event>
 5   1  0.1343823E+00  0.9293731E+02  0.7818608E-02  0.1295891E+00
         -2   -1    0    0    0  501 -0.00000000000E+00  0.00000000000E+00  0.15322706396E+02  0.15322706616E+02  0.26000000000E-02 0.  1.
          2   -1    0    0  501    0  0.00000000000E+00 -0.00000000000E+00 -0.14092390959E+03  0.14092390962E+03  0.26000000000E-02 0. -1.
         23    2    1    2    0    0  0.00000000000E+00  0.00000000000E+00 -0.12560120320E+03  0.15624661623E+03  0.92937305963E+02 0.  0.
        -13    1    3    3    0    0  0.14541107246E+02  0.20603581827E+02 -0.12841870756E+03  0.13087141402E+03  0.10570000000E+00 0. -1.
         13    1    3    3    0    0 -0.14541107246E+02 -0.20603581827E+02  0.28175043611E+01  0.25375202213E+02  0.10570000000E+00 0.  1.
<mgrwt>
<rscale>  0 0.92937306E+02</rscale>
<asrwt>0</asrwt>
<pdfrwt beam="2">  1        2 0.21680601E-01 0.92937306E+02</pdfrwt>
<pdfrwt beam="1">  1       -2 0.23573396E-02 0.92937306E+02</pdfrwt>
<totfact> 0.12994284E+05</totfact>
</mgrwt>
</event>
<event>
 5   1  0.1343823E+00  0.8906109E+02  0.7818608E-02  0.1305141E+00
         -2   -1    0    0    0  501 -0.00000000000E+00  0.00000000000E+00  0.38624737864E+02  0.38624737951E+02  0.26000000000E-02 0.  1.
          2   -1    0    0  501    0  0.00000000000E+00 -0.00000000000E+00 -0.51339362189E+02  0.51339362255E+02  0.26000000000E-02 0. -1.
         23    2    1    2    0    0  0.00000000000E+00  0.00000000000E+00 -0.12714624325E+02  0.89964100206E+02  0.89061089451E+02 0.  0.
        -13    1    3    3    0    0 -0.39455641634E+01 -0.42072695191E+02  0.78307067413E+01  0.42976857700E+02  0.10570000000E+00 0.  1.
         13    1    3    3    0    0  0.39455641634E+01  0.42072695191E+02 -0.20545331067E+02  0.46987242506E+02  0.10570000000E+00 0. -1.
<mgrwt>
<rscale>  0 0.89061089E+02</rscale>
<asrwt>0</asrwt>
<pdfrwt beam="2">  1        2 0.78983634E-02 0.89061089E+02</pdfrwt>
<pdfrwt beam="1">  1       -2 0.59422674E-02 0.89061089E+02</pdfrwt>
<totfact> 0.10879276E+05</totfact>
</mgrwt>
</event>
<event>
 5   1  0.1343823E+00  0.9069026E+02  0.7818608E-02  0.1301189E+00
         -2   -1    0    0    0  501 -0.00000000000E+00  0.00000000000E+00  0.31022877740E+03  0.31022877741E+03  0.26000000000E-02 0.  1.
          2   -1    0    0  501    0  0.00000000000E+00 -0.00000000000E+00 -0.66279494599E+01  0.66279499699E+01  0.26000000000E-02 0. -1.
         23    2    1    2    0    0  0.00000000000E+00  0.00000000000E+00  0.30360082794E+03  0.31685672738E+03  0.90690258355E+02 0.  0.
        -13    1    3    3    0    0  0.25683952759E+02 -0.33594677815E+02  0.94614366919E+02  0.10363473070E+03  0.10570000000E+00 0. -1.
         13    1    3    3    0    0 -0.25683952759E+02  0.33594677815E+02  0.20898646102E+03  0.21322199668E+03  0.10570000000E+00 0.  1.
<mgrwt>
<rscale>  0 0.90690258E+02</rscale>
<asrwt>0</asrwt>
<pdfrwt beam="2">  1        2 0.10196845E-02 0.90690258E+02</pdfrwt>
<pdfrwt beam="1">  1       -2 0.47727505E-01 0.90690258E+02</pdfrwt>
<totfact> 0.50732709E+04</totfact>
</mgrwt>
</event>
<event>
 5   1  0.1343823E+00  0.9233024E+02  0.7818608E-02  0.1297305E+00
          2   -1    0    0  501    0  0.00000000000E+00  0.00000000000E+00  0.93774533526E+01  0.93774537130E+01  0.26000000000E-02 0. -1.
         -2   -1    0    0    0  501 -0.00000000000E+00 -0.00000000000E+00 -0.22727045832E+03  0.22727045834E+03  0.26000000000E-02 0.  1.
         23    2    1    2    0    0  0.00000000000E+00  0.00000000000E+00 -0.21789300497E+03  0.23664791205E+03  0.92330236992E+02 0.  0.
        -13    1    3    3    0    0  0.37611210725E+02  0.23355016567E+02 -0.14247726274E+03  0.14919732417E+03  0.10570000000E+00 0.  1.
         13    1    3    3    0    0 -0.37611210725E+02 -0.23355016567E+02 -0.75415742233E+02  0.87450587877E+02  0.10570000000E+00 0. -1.
<mgrwt>
<rscale>  0 0.92330237E+02</rscale>
<asrwt>0</asrwt>
<pdfrwt beam="1">  1        2 0.14426853E-02 0.92330237E+02</pdfrwt>
<pdfrwt beam="2">  1       -2 0.34964682E-01 0.92330237E+02</pdfrwt>
<totfact> 0.56963497E+04</totfact>
</mgrwt>
</event>
<event>
 5   1  0.1343823E+00  0.9219207E+02  0.7818608E-02  0.1297628E+00
          2   -1    0    0  501    0  0.00000000000E+00  0.00000000000E+00  0.68407355427E+02  0.68407355477E+02  0.26000000000E-02 0. -1.
         -2   -1    0    0    0  501 -0.00000000000E+00 -0.00000000000E+00 -0.31061636165E+02  0.31061636273E+02  0.26000000000E-02 0.  1.
         23    2    1    2    0    0  0.00000000000E+00  0.00000000000E+00  0.37345719263E+02  0.99468991750E+02  0.92192068924E+02 0.  0.
        -13    1    3    3    0    0  0.41609110941E+02 -0.23380395099E+01  0.39926692394E+02  0.57714265828E+02  0.10570000000E+00 0.  1.
         13    1    3    3    0    0 -0.41609110941E+02  0.23380395099E+01 -0.25809731308E+01  0.41754725922E+02  0.10570000000E+00 0. -1.
<mgrwt>
<rscale>  0 0.92192069E+02</rscale>
<asrwt>0</asrwt>
<pdfrwt beam="1">  1        2 0.10524208E-01 0.92192069E+02</pdfrwt>
<pdfrwt beam="2">  1       -2 0.47787133E-02 0.92192069E+02</pdfrwt>
<totfact> 0.10655518E+05</totfact>
</mgrwt>
</event>
<event>
 5   1  0.1343823E+00  0.9077733E+02  0.7818608E-02  0.1300980E+00
         -2   -1    0    0    0  501 -0.00000000000E+00  0.00000000000E+00  0.45482096737E+02  0.45482096811E+02  0.26000000000E-02 0.  1.
          2   -1    0    0  501    0  0.00000000000E+00 -0.00000000000E+00 -0.45295426568E+02  0.45295426642E+02  0.26000000000E-02 0. -1.
         23    2    1    2    0    0  0.00000000000E+00  0.00000000000E+00  0.18667016899E+00  0.90777523453E+02  0.90777331524E+02 0.  0.
        -13    1    3    3    0    0  0.26081336119E+02 -0.32607351056E+02  0.17887876648E+02  0.45425353495E+02  0.10570000000E+00 0.  1.
         13    1    3    3    0    0 -0.26081336119E+02  0.32607351056E+02 -0.17701206479E+02  0.45352169959E+02  0.10570000000E+00 0. -1.
<mgrwt>
<rscale>  0 0.90777332E+02</rscale>
<asrwt>0</asrwt>
<pdfrwt beam="2">  1        2 0.69685271E-02 0.90777332E+02</pdfrwt>
<pdfrwt beam="1">  1       -2 0.69972457E-02 0.90777332E+02</pdfrwt>
<totfact> 0.99758551E+04</totfact>
</mgrwt>
</event>
<event>
 5   1  0.1343823E+00  0.9027867E+02  0.7818608E-02  0.1302178E+00
          2   -1    0    0  501    0  0.00000000000E+00  0.00000000000E+00  0.89210499315E+02  0.89210499352E+02  0.26000000000E-02 0. -1.
         -2   -1    0    0    0  501 -0.00000000000E+00 -0.00000000000E+00 -0.22839909638E+02  0.22839909786E+02  0.26000000000E-02 0.  1.
         23    2    1    2    0    0  0.00000000000E+00  0.00000000000E+00  0.66370589677E+02  0.11205040914E+03  0.90278674193E+02 0.  0.
        -13    1    3    3    0    0 -0.32437092173E+02  0.12146802488E+02 -0.27406760788E+01  0.34745247692E+02  0.10570000000E+00 0.  1.
         13    1    3    3    0    0  0.32437092173E+02 -0.12146802488E+02  0.69111265756E+02  0.77305161446E+02  0.10570000000E+00 0. -1.
<mgrwt>
<rscale>  0 0.90278674E+02</rscale>
<asrwt>0</asrwt>
<pdfrwt beam="1">  1        2 0.13724692E-01 0.90278674E+02</pdfrwt>
<pdfrwt beam="2">  1       -2 0.35138323E-02 0.90278674E+02</pdfrwt>
<totfact> 0.12183566E+05</totfact>
</mgrwt>
</event>
<event>
 5   1  0.1343823E+00  0.9005581E+02  0.7818608E-02  0.1302717E+00
         -2   -1    0    0    0  501 -0.00000000000E+00  0.00000000000E+00  0.16006748048E+02  0.16006748259E+02  0.26000000000E-02 0.  1.
          2   -1    0    0  501    0  0.00000000000E+00 -0.00000000000E+00 -0.12666608774E+03  0.12666608776E+03  0.26000000000E-02 0. -1.
         23    2    1    2    0    0  0.00000000000E+00  0.00000000000E+00 -0.11065933969E+03  0.14267283602E+03  0.90055808687E+02 0.  0.
        -13    1    3    3    0    0 -0.34700626380E+01  0.39427410211E+02 -0.89343166840E+02  0.97717831762E+02  0.10570000000E+00 0. -1.
         13    1    3    3    0    0  0.34700626380E+01 -0.39427410211E+02 -0.21316172849E+02  0.44955004261E+02  0.10570000000E+00 0.  1.
<mgrwt>
<rscale>  0 0.90055809E+02</rscale>
<asrwt>0</asrwt>
<pdfrwt beam="2">  1        2 0.19487090E-01 0.90055809E+02</pdfrwt>
<pdfrwt beam="1">  1       -2 0.24625767E-02 0.90055809E+02</pdfrwt>
<totfact> 0.13668395E+05</totfact>
</mgrwt>
</event>
<event>
 5   1  0.1343823E+00  0.9065947E+02  0.7818608E-02  0.1301263E+00
         -2   -1    0    0    0  501 -0.00000000000E+00  0.00000000000E+00  0.39161621410E+02  0.39161621496E+02  0.26000000000E-02 0.  1.
          2   -1    0    0  501    0  0.00000000000E+00 -0.00000000000E+00 -0.52469347612E+02  0.52469347677E+02  0.26000000000E-02 0. -1.
         23    2    1    2    0    0  0.00000000000E+00  0.00000000000E+00 -0.13307726203E+02  0.91630969173E+02  0.90659466879E+02 0.  0.
        -13    1    3    3    0    0  0.78068846913E+01  0.43309708449E+02  0.43297535018E+01  0.44220314702E+02  0.10570000000E+00 0.  1.
         13    1    3    3    0    0 -0.78068846913E+01 -0.43309708449E+02 -0.17637479705E+02  0.47410654470E+02  0.10570000000E+00 0. -1.
<mgrwt>
<rscale>  0 0.90659467E+02</rscale>
<asrwt>0</asrwt>
<pdfrwt beam="2">  1        2 0.80722074E-02 0.90659467E+02</pdfrwt>
<pdfrwt beam="1">  1       -2 0.60248648E-02 0.90659467E+02</pdfrwt>
<totfact> 0.10403035E+05</totfact>
</mgrwt>
</event>
<event>
 5   1  0.1343823E+00  0.9335400E+02  0.7818608E-02  0.1294927E+00
          2   -1    0    0  501    0  0.00000000000E+00  0.00000000000E+00  0.91140515831E+02  0.91140515868E+02  0.26000000000E-02 0. -1.
         -2   -1    0    0    0  501 -0.00000000000E+00 -0.00000000000E+00 -0.23905309529E+02  0.23905309670E+02  0.26000000000E-02 0.  1.
         23    2    1    2    0    0  0.00000000000E+00  0.00000000000E+00  0.67235206302E+02  0.11504582554E+03  0.93353998346E+02 0.  0.
        -13    1    3    3    0    0  0.41206757274E+01  0.44983302050E+02  0.19127341074E+02  0.49054498069E+02  0.10570000000E+00 0.  1.
         13    1    3    3    0    0 -0.41206757274E+01 -0.44983302050E+02  0.48107865229E+02  0.65991327469E+02  0.10570000000E+00 0. -1.
<mgrwt>
<rscale>  0 0.93353998E+02</rscale>
<asrwt>0</asrwt>
<pdfrwt beam="1">  1        2 0.14021618E-01 0.93353998E+02</pdfrwt>
<pdfrwt beam="2">  1       -2 0.36777400E-02 0.93353998E+02</pdfrwt>
<totfact> 0.11175145E+05</totfact>
</mgrwt>
</event>
<event>
 5   1  0.1343823E+00  0.7019351E+02  0.7818608E-02  0.1359436E+00
          2   -1    0    0  501    0  0.00000000000E+00  0.00000000000E+00  0.18882856469E+03  0.18882856471E+03  0.26000000000E-02 0. -1.
         -2   -1    0    0    0  501 -0.00000000000E+00 -0.00000000000E+00 -0.65232824782E+01  0.65232829963E+01  0.26000000000E-02 0.  1.
         23    2    1    2    0    0  0.00000000000E+00  0.00000000000E+00  0.18230528222E+03  0.19535184771E+03  0.70193507387E+02 0.  0.
        -13    1    3    3    0    0 -0.18960485347E+02  0.19344757302E+02  0.15326208234E+03  0.15563738849E+03  0.10570000000E+00 0. -1.
         13    1    3    3    0    0  0.18960485347E+02 -0.19344757302E+02  0.29043199877E+02  0.39714459222E+02  0.10570000000E+00 0.  1.
<mgrwt>
<rscale>  0 0.70193507E+02</rscale>
<asrwt>0</asrwt>
<pdfrwt beam="1">  1        2 0.29050554E-01 0.70193507E+02</pdfrwt>
<pdfrwt beam="2">  1       -2 0.10035818E-02 0.70193507E+02</pdfrwt>
<totfact> 0.30324596E+05</totfact>
</mgrwt>
</event>
<event>
 5   1  0.1343823E+00  0.1260612E+03  0.7818608E-02  0.1233420E+00
         -2   -1    0    0    0  501 -0.00000000000E+00  0.00000000000E+00  0.19155614971E+02  0.19155615148E+02  0.26000000000E-02 0.  1.
          2   -1    0    0  501    0  0.00000000000E+00 -0.00000000000E+00 -0.20739900199E+03  0.20739900201E+03  0.26000000000E-02 0. -1.
         23    2    1    2    0    0  0.00000000000E+00  0.00000000000E+00 -0.18824338702E+03  0.22655461716E+03  0.12606118276E+03 0.  0.
        -13    1    3    3    0    0  0.17347017223E+02 -0.59513604484E+02 -0.11461712140E+03  0.13030688322E+03  0.10570000000E+00 0.  1.
         13    1    3    3    0    0 -0.17347017223E+02  0.59513604484E+02 -0.73626265624E+02  0.96247733934E+02  0.10570000000E+00 0. -1.
<mgrwt>
<rscale>  0 0.12606118E+03</rscale>
<asrwt>0</asrwt>
<pdfrwt beam="2">  1        2 0.31907537E-01 0.12606118E+03</pdfrwt>
<pdfrwt beam="1">  1       -2 0.29470178E-02 0.12606118E+03</pdfrwt>
<totfact> 0.64386332E+04</totfact>
</mgrwt>
</event>
<event>
 5   1  0.1343823E+00  0.8462441E+02  0.7818608E-02  0.1316418E+00
          2   -1    0    0  501    0  0.00000000000E+00  0.00000000000E+00  0.71112155402E+02  0.71112155449E+02  0.26000000000E-02 0. -1.
         -2   -1    0    0    0  501 -0.00000000000E+00 -0.00000000000E+00 -0.25176041430E+02  0.25176041565E+02  0.26000000000E-02 0.  1.
         23    2    1    2    0    0  0.00000000000E+00  0.00000000000E+00  0.45936113971E+02  0.96288197014E+02  0.84624407339E+02 0.  0.
        -13    1    3    3    0    0  0.10490005453E+02  0.24658682317E+02 -0.14289938320E+02  0.30369463902E+02  0.10570000000E+00 0.  1.
         13    1    3    3    0    0 -0.10490005453E+02 -0.24658682317E+02  0.60226052291E+02  0.65918733112E+02  0.10570000000E+00 0. -1.
<mgrwt>
<rscale>  0 0.84624407E+02</rscale>
<asrwt>0</asrwt>
<pdfrwt beam="1">  1        2 0.10940331E-01 0.84624407E+02</pdfrwt>
<pdfrwt beam="2">  1       -2 0.38732372E-02 0.84624407E+02</pdfrwt>
<totfact> 0.13665985E+05</totfact>
</mgrwt>
</event>
<event>
 5   1  0.1343823E+00  0.9055791E+02  0.7818608E-02  0.1301506E+00
          2   -1    0    0  501    0  0.00000000000E+00  0.00000000000E+00  0.37974323565E+02  0.37974323654E+02  0.26000000000E-02 0. -1.
         -2   -1    0    0    0  501 -0.00000000000E+00 -0.00000000000E+00 -0.53988682566E+02  0.53988682628E+02  0.26000000000E-02 0.  1.
         23    2    1    2    0    0  0.00000000000E+00  0.00000000000E+00 -0.16014359000E+02  0.91963006283E+02  0.90557908713E+02 0.  0.
        -13    1    3    3    0    0 -0.43350361518E+02  0.81022115185E+01  0.24122750842E+01  0.44167068261E+02  0.10570000000E+00 0. -1.
         13    1    3    3    0    0  0.43350361518E+02 -0.81022115185E+01 -0.18426634085E+02  0.47795938022E+02  0.10570000000E+00 0.  1.
<mgrwt>
<rscale>  0 0.90557909E+02</rscale>
<asrwt>0</asrwt>
<pdfrwt beam="1">  1        2 0.58422036E-02 0.90557909E+02</pdfrwt>
<pdfrwt beam="2">  1       -2 0.83059512E-02 0.90557909E+02</pdfrwt>
<totfact> 0.95993400E+04</totfact>
</mgrwt>
</event>
<event>
 5   1  0.1343823E+00  0.8323711E+02  0.7818608E-02  0.1320108E+00
         -2   -1    0    0    0  501 -0.00000000000E+00  0.00000000000E+00  0.10202308195E+02  0.10202308526E+02  0.26000000000E-02 0.  1.
          2   -1    0    0  501    0  0.00000000000E+00 -0.00000000000E+00 -0.16977569950E+03  0.16977569952E+03  0.26000000000E-02 0. -1.
         23    2    1    2    0    0  0.00000000000E+00  0.00000000000E+00 -0.15957339131E+03  0.17997800805E+03  0.83237108119E+02 0.  0.
        -13    1    3    3    0    0  0.33229092074E+02  0.19281901945E+02 -0.11439110711E+03  0.12067021531E+03  0.10570000000E+00 0. -1.
         13    1    3    3    0    0 -0.33229092074E+02 -0.19281901945E+02 -0.45182284194E+02  0.59307792744E+02  0.10570000000E+00 0.  1.
<mgrwt>
<rscale>  0 0.83237108E+02</rscale>
<asrwt>0</asrwt>
<pdfrwt beam="2">  1        2 0.26119336E-01 0.83237108E+02</pdfrwt>
<pdfrwt beam="1">  1       -2 0.15695860E-02 0.83237108E+02</pdfrwt>
<totfact> 0.18638809E+05</totfact>
</mgrwt>
</event>
<event>
 5   1  0.1343823E+00  0.8602289E+02  0.7818608E-02  0.1312779E+00
          2   -1    0    0  501    0  0.00000000000E+00  0.00000000000E+00  0.90982388583E+01  0.90982392298E+01  0.26000000000E-02 0. -1.
         -2   -1    0    0    0  501 -0.00000000000E+00 -0.00000000000E+00 -0.20333435196E+03  0.20333435198E+03  0.26000000000E-02 0.  1.
         23    2    1    2    0    0  0.00000000000E+00  0.00000000000E+00 -0.19423611310E+03  0.21243259121E+03  0.86022893313E+02 0.  0.
        -13    1    3    3    0    0 -0.35749849851E+02 -0.13057338859E+02 -0.47640224061E+02  0.60976618335E+02  0.10570000000E+00 0. -1.
         13    1    3    3    0    0  0.35749849851E+02  0.13057338859E+02 -0.14659588904E+03  0.15145597287E+03  0.10570000000E+00 0.  1.
<mgrwt>
<rscale>  0 0.86022893E+02</rscale>
<asrwt>0</asrwt>
<pdfrwt beam="1">  1        2 0.13997292E-02 0.86022893E+02</pdfrwt>
<pdfrwt beam="2">  1       -2 0.31282205E-01 0.86022893E+02</pdfrwt>
<totfact> 0.71771554E+04</totfact>
</mgrwt>
</event>
<event>
 5   1  0.1343823E+00  0.9054552E+02  0.7818608E-02  0.1301536E+00
          2   -1    0    0  501    0  0.00000000000E+00  0.00000000000E+00  0.10421433080E+02  0.10421433404E+02  0.26000000000E-02 0. -1.
         -2   -1    0    0    0  501 -0.00000000000E+00 -0.00000000000E+00 -0.19667377559E+03  0.19667377561E+03  0.26000000000E-02 0.  1.
         23    2    1    2    0    0  0.00000000000E+00  0.00000000000E+00 -0.18625234251E+03  0.20709520901E+03  0.90545516204E+02 0.  0.
        -13    1    3    3    0    0 -0.26408755756E+02 -0.21165999147E+02 -0.16190152699E+03  0.16540114121E+03  0.10570000000E+00 0.  1.
         13    1    3    3    0    0  0.26408755756E+02  0.21165999147E+02 -0.24350815519E+02  0.41694067797E+02  0.10570000000E+00 0. -1.
<mgrwt>
<rscale>  0 0.90545516E+02</rscale>
<asrwt>0</asrwt>
<pdfrwt beam="1">  1        2 0.16032976E-02 0.90545516E+02</pdfrwt>
<pdfrwt beam="2">  1       -2 0.30257501E-01 0.90545516E+02</pdfrwt>
<totfact> 0.63893561E+04</totfact>
</mgrwt>
</event>
<event>
 5   1  0.1343823E+00  0.9308058E+02  0.7818608E-02  0.1295559E+00
         -2   -1    0    0    0  501 -0.00000000000E+00  0.00000000000E+00  0.68864748330E+02  0.68864748379E+02  0.26000000000E-02 0.  1.
          2   -1    0    0  501    0  0.00000000000E+00 -0.00000000000E+00 -0.31452939979E+02  0.31452940086E+02  0.26000000000E-02 0. -1.
         23    2    1    2    0    0  0.00000000000E+00  0.00000000000E+00  0.37411808351E+02  0.10031768847E+03  0.93080584522E+02 0.  0.
        -13    1    3    3    0    0  0.14624855375E+02  0.74268218346E+01  0.65646177997E+02  0.67664436268E+02  0.10570000000E+00 0.  1.
         13    1    3    3    0    0 -0.14624855375E+02 -0.74268218346E+01 -0.28234369646E+02  0.32653252198E+02  0.10570000000E+00 0. -1.
<mgrwt>
<rscale>  0 0.93080585E+02</rscale>
<asrwt>0</asrwt>
<pdfrwt beam="2">  1        2 0.48389139E-02 0.93080585E+02</pdfrwt>
<pdfrwt beam="1">  1       -2 0.10594577E-01 0.93080585E+02</pdfrwt>
<totfact> 0.84260865E+04</totfact>
</mgrwt>
</event>
<event>
 5   1  0.1343823E+00  0.9185946E+02  0.7818608E-02  0.1298410E+00
          2   -1    0    0  501    0  0.00000000000E+00  0.00000000000E+00  0.10129775646E+03  0.10129775649E+03  0.26000000000E-02 0. -1.
         -2   -1    0    0    0  501 -0.00000000000E+00 -0.00000000000E+00 -0.20825141552E+02  0.20825141714E+02  0.26000000000E-02 0.  1.
         23    2    1    2    0    0  0.00000000000E+00  0.00000000000E+00  0.80472614903E+02  0.12212289820E+03  0.91859460678E+02 0.  0.
        -13    1    3    3    0    0  0.18240389785E+02  0.22483183248E+02 -0.71661947393E+01  0.29825674644E+02  0.10570000000E+00 0.  1.
         13    1    3    3    0    0 -0.18240389785E+02 -0.22483183248E+02  0.87638809643E+02  0.92297223558E+02  0.10570000000E+00 0. -1.
<mgrwt>
<rscale>  0 0.91859461E+02</rscale>
<asrwt>0</asrwt>
<pdfrwt beam="1">  1        2 0.15584271E-01 0.91859461E+02</pdfrwt>
<pdfrwt beam="2">  1       -2 0.32038679E-02 0.91859461E+02</pdfrwt>
<totfact> 0.12065408E+05</totfact>
</mgrwt>
</event>
<event>
 5   1  0.1343823E+00  0.9263453E+02  0.7818608E-02  0.1296594E+00
         -2   -1    0    0    0  501 -0.00000000000E+00  0.00000000000E+00  0.16965747501E+02  0.16965747700E+02  0.26000000000E-02 0.  1.
          2   -1    0    0  501    0  0.00000000000E+00 -0.00000000000E+00 -0.12644825520E+03  0.12644825522E+03  0.26000000000E-02 0. -1.
         23    2    1    2    0    0  0.00000000000E+00  0.00000000000E+00 -0.10948250770E+03  0.14341400292E+03  0.92634533210E+02 0.  0.
        -13    1    3    3    0    0 -0.43183525280E+02  0.42620100747E+01 -0.29667761512E+02  0.52565852329E+02  0.10570000000E+00 0.  1.
         13    1    3    3    0    0  0.43183525280E+02 -0.42620100747E+01 -0.79814746185E+02  0.90848150595E+02  0.10570000000E+00 0. -1.
<mgrwt>
<rscale>  0 0.92634533E+02</rscale>
<asrwt>0</asrwt>
<pdfrwt beam="2">  1        2 0.19453577E-01 0.92634533E+02</pdfrwt>
<pdfrwt beam="1">  1       -2 0.26101151E-02 0.92634533E+02</pdfrwt>
<totfact> 0.12647337E+05</totfact>
</mgrwt>
</event>
<event>
 5   1  0.1343823E+00  0.9211660E+02  0.7818608E-02  0.1297806E+00
         -2   -1    0    0    0  501 -0.00000000000E+00  0.00000000000E+00  0.10218267088E+02  0.10218267419E+02  0.26000000000E-02 0.  1.
          2   -1    0    0  501    0  0.00000000000E+00 -0.00000000000E+00 -0.20760535894E+03  0.20760535896E+03  0.26000000000E-02 0. -1.
         23    2    1    2    0    0  0.00000000000E+00  0.00000000000E+00 -0.19738709185E+03  0.21782362638E+03  0.92116600988E+02 0.  0.
        -13    1    3    3    0    0 -0.28610521712E+02  0.33239843315E+02 -0.65427792262E+02  0.78767101692E+02  0.10570000000E+00 0.  1.
         13    1    3    3    0    0  0.28610521712E+02 -0.33239843315E+02 -0.13195929959E+03  0.13905652468E+03  0.10570000000E+00 0. -1.
<mgrwt>
<rscale>  0 0.92116601E+02</rscale>
<asrwt>0</asrwt>
<pdfrwt beam="2">  1        2 0.31939283E-01 0.92116601E+02</pdfrwt>
<pdfrwt beam="1">  1       -2 0.15720413E-02 0.92116601E+02</pdfrwt>
<totfact> 0.15251583E+05</totfact>
</mgrwt>
</event>
<event>
 5   1  0.1343823E+00  0.9011997E+02  0.7818608E-02  0.1302561E+00
         -2   -1    0    0    0  501 -0.00000000000E+00  0.00000000000E+00  0.85928569542E+01  0.85928573475E+01  0.26000000000E-02 0.  1.
          2   -1    0    0  501    0  0.00000000000E+00 -0.00000000000E+00 -0.23628952012E+03  0.23628952013E+03  0.26000000000E-02 0. -1.
         23    2    1    2    0    0  0.00000000000E+00  0.00000000000E+00 -0.22769666317E+03  0.24488237748E+03  0.90119966624E+02 0.  0.
        -13    1    3    3    0    0 -0.29510496724E+02 -0.26549362472E+02 -0.55908600651E+02  0.68567637146E+02  0.10570000000E+00 0. -1.
         13    1    3    3    0    0  0.29510496724E+02  0.26549362472E+02 -0.17178806251E+03  0.17631474034E+03  0.10570000000E+00 0.  1.
<mgrwt>
<rscale>  0 0.90119967E+02</rscale>
<asrwt>0</asrwt>
<pdfrwt beam="2">  1        2 0.36352229E-01 0.90119967E+02</pdfrwt>
<pdfrwt beam="1">  1       -2 0.13219782E-02 0.90119967E+02</pdfrwt>
<totfact> 0.16961374E+05</totfact>
</mgrwt>
</event>
<event>
 5   1  0.1343823E+00  0.9204401E+02  0.7818608E-02  0.1297976E+00
          2   -1    0    0  501    0  0.00000000000E+00  0.00000000000E+00  0.20453898673E+03  0.20453898675E+03  0.26000000000E-02 0. -1.
         -2   -1    0    0    0  501 -0.00000000000E+00 -0.00000000000E+00 -0.10355116838E+02  0.10355117165E+02  0.26000000000E-02 0.  1.
         23    2    1    2    0    0  0.00000000000E+00  0.00000000000E+00  0.19418386989E+03  0.21489410391E+03  0.92044014307E+02 0.  0.
        -13    1    3    3    0    0 -0.13247473075E+02 -0.42789839866E+02  0.12175005164E+03  0.12972876391E+03  0.10570000000E+00 0. -1.
         13    1    3    3    0    0  0.13247473075E+02  0.42789839866E+02  0.72433818247E+02  0.85165339998E+02  0.10570000000E+00 0.  1.
<mgrwt>
<rscale>  0 0.92044014E+02</rscale>
<asrwt>0</asrwt>
<pdfrwt beam="1">  1        2 0.31467537E-01 0.92044014E+02</pdfrwt>
<pdfrwt beam="2">  1       -2 0.15930949E-02 0.92044014E+02</pdfrwt>
<totfact> 0.15201498E+05</totfact>
</mgrwt>
</event>
<event>
 4   1  0.1343823E+00  0.2016472E+03  0.7818608E-02  0.1148357E+00
          2   -1    0    0  501    0  0.00000000000E+00  0.00000000000E+00  0.52678607745E+03  0.52678607746E+03  0.26000000000E-02 0. -1.
         -2   -1    0    0    0  501 -0.00000000000E+00 -0.00000000000E+00 -0.19297008165E+02  0.19297008340E+02  0.26000000000E-02 0.  1.
        -13    1    1    2    0    0  0.49188521838E+02  0.59983104824E+02  0.79330767498E+02  0.11095433921E+03  0.10570000000E+00 0.  1.
         13    1    1    2    0    0 -0.49188521838E+02 -0.59983104824E+02  0.42815830179E+03  0.43512874659E+03  0.10570000000E+00 0. -1.
<mgrwt>
<rscale>  0 0.20164717E+03</rscale>
<asrwt>0</asrwt>
<pdfrwt beam="1">  1        2 0.81044012E-01 0.20164717E+03</pdfrwt>
<pdfrwt beam="2">  1       -2 0.29687705E-02 0.20164717E+03</pdfrwt>
<totfact> 0.24501935E+04</totfact>
</mgrwt>
</event>
<event>
 5   1  0.1343823E+00  0.9138871E+02  0.7818608E-02  0.1299523E+00
         -2   -1    0    0    0  501 -0.00000000000E+00  0.00000000000E+00  0.78968259255E+01  0.78968263536E+01  0.26000000000E-02 0.  1.
          2   -1    0    0  501    0  0.00000000000E+00 -0.00000000000E+00 -0.26440675451E+03  0.26440675452E+03  0.26000000000E-02 0. -1.
         23    2    1    2    0    0  0.00000000000E+00  0.00000000000E+00 -0.25650992858E+03  0.27230358087E+03  0.91388712080E+02 0.  0.
        -13    1    3    3    0    0 -0.12278675742E+02 -0.33557730945E+02 -0.21311271618E+03  0.21608777881E+03  0.10570000000E+00 0. -1.
         13    1    3    3    0    0  0.12278675742E+02  0.33557730945E+02 -0.43397212406E+02  0.56215802060E+02  0.10570000000E+00 0.  1.
<mgrwt>
<rscale>  0 0.91388712E+02</rscale>
<asrwt>0</asrwt>
<pdfrwt beam="2">  1        2 0.40677956E-01 0.91388712E+02</pdfrwt>
<pdfrwt beam="1">  1       -2 0.12148965E-02 0.91388712E+02</pdfrwt>
<totfact> 0.17033101E+05</totfact>
</mgrwt>
</event>
<event>
 4   1  0.1343823E+00  0.1813503E+03  0.7818608E-02  0.1166503E+00
          2   -1    0    0  501    0  0.00000000000E+00  0.00000000000E+00  0.20339739753E+03  0.20339739755E+03  0.26000000000E-02 0.  1.
         -2   -1    0    0    0  501 -0.00000000000E+00 -0.00000000000E+00 -0.40423247008E+02  0.40423247092E+02  0.26000000000E-02 0. -1.
        -13    1    1    2    0    0 -0.12474359065E+02  0.72498735090E+02  0.10213555387E+02  0.74269806179E+02  0.10570000000E+00 0. -1.
         13    1    1    2    0    0  0.12474359065E+02 -0.72498735090E+02  0.15276059513E+03  0.16955083846E+03  0.10570000000E+00 0.  1.
<mgrwt>
<rscale>  0 0.18135030E+03</rscale>
<asrwt>0</asrwt>
<pdfrwt beam="1">  1        2 0.31291907E-01 0.18135030E+03</pdfrwt>
<pdfrwt beam="2">  1       -2 0.62189611E-02 0.18135030E+03</pdfrwt>
<totfact> 0.22379647E+04</totfact>
</mgrwt>
</event>
<event>
 5   1  0.1343823E+00  0.8488838E+02  0.7818608E-02  0.1315725E+00
          2   -1    0    0  501    0  0.00000000000E+00  0.00000000000E+00  0.34154344937E+02  0.34154345036E+02  0.26000000000E-02 0. -1.
         -2   -1    0    0    0  501 -0.00000000000E+00 -0.00000000000E+00 -0.52746116793E+02  0.52746116857E+02  0.26000000000E-02 0.  1.
         23    2    1    2    0    0  0.00000000000E+00  0.00000000000E+00 -0.18591771856E+02  0.86900461892E+02  0.84888375508E+02 0.  0.
        -13    1    3    3    0    0 -0.21201072372E+02  0.13087788742E+02  0.25880217526E+02  0.35924539184E+02  0.10570000000E+00 0. -1.
         13    1    3    3    0    0  0.21201072372E+02 -0.13087788742E+02 -0.44471989382E+02  0.50975922709E+02  0.10570000000E+00 0.  1.
<mgrwt>
<rscale>  0 0.84888376E+02</rscale>
<asrwt>0</asrwt>
<pdfrwt beam="1">  1        2 0.52545146E-02 0.84888376E+02</pdfrwt>
<pdfrwt beam="2">  1       -2 0.81147872E-02 0.84888376E+02</pdfrwt>
<totfact> 0.11269171E+05</totfact>
</mgrwt>
</event>
<event>
 5   1  0.1343823E+00  0.9139864E+02  0.7818608E-02  0.1299500E+00
          2   -1    0    0  501    0  0.00000000000E+00  0.00000000000E+00  0.23826643107E+02  0.23826643249E+02  0.26000000000E-02 0. -1.
         -2   -1    0    0    0  501 -0.00000000000E+00 -0.00000000000E+00 -0.87650941738E+02  0.87650941777E+02  0.26000000000E-02 0.  1.
         23    2    1    2    0    0  0.00000000000E+00  0.00000000000E+00 -0.63824298631E+02  0.11147758503E+03  0.91398637120E+02 0.  0.
        -13    1    3    3    0    0  0.36347249185E+02 -0.27110624236E+02 -0.38844864683E+02  0.59707982335E+02  0.10570000000E+00 0.  1.
         13    1    3    3    0    0 -0.36347249185E+02  0.27110624236E+02 -0.24979433949E+02  0.51769602690E+02  0.10570000000E+00 0. -1.
<mgrwt>
<rscale>  0 0.91398637E+02</rscale>
<asrwt>0</asrwt>
<pdfrwt beam="1">  1        2 0.36656375E-02 0.91398637E+02</pdfrwt>
<pdfrwt beam="2">  1       -2 0.13484760E-01 0.91398637E+02</pdfrwt>
<totfact> 0.82432076E+04</totfact>
</mgrwt>
</event>
<event>
 5   1  0.1343823E+00  0.8893797E+02  0.7818608E-02  0.1305444E+00
          2   -1    0    0  501    0  0.00000000000E+00  0.00000000000E+00  0.24789257392E+02  0.24789257528E+02  0.26000000000E-02 0. -1.
         -2   -1    0    0    0  501 -0.00000000000E+00 -0.00000000000E+00 -0.79772088699E+02  0.79772088742E+02  0.26000000000E-02 0.  1.
         23    2    1    2    0    0  0.00000000000E+00  0.00000000000E+00 -0.54982831308E+02  0.10456134627E+03  0.88937974989E+02 0.  0.
        -13    1    3    3    0    0 -0.46670605216E+01 -0.22450443155E+02 -0.72285302815E+02  0.75835216274E+02  0.10570000000E+00 0.  1.
         13    1    3    3    0    0  0.46670605216E+01  0.22450443155E+02  0.17302471508E+02  0.28726129995E+02  0.10570000000E+00 0. -1.
<mgrwt>
<rscale>  0 0.88937975E+02</rscale>
<asrwt>0</asrwt>
<pdfrwt beam="1">  1        2 0.38137320E-02 0.88937975E+02</pdfrwt>
<pdfrwt beam="2">  1       -2 0.12272629E-01 0.88937975E+02</pdfrwt>
<totfact> 0.90505385E+04</totfact>
</mgrwt>
</event>
<event>
 5   1  0.1343823E+00  0.8078601E+02  0.7818608E-02  0.1326836E+00
          2   -1    0    0  501    0  0.00000000000E+00  0.00000000000E+00  0.42146515865E+02  0.42146515945E+02  0.26000000000E-02 0. -1.
         -2   -1    0    0    0  501 -0.00000000000E+00 -0.00000000000E+00 -0.38712451015E+02  0.38712451102E+02  0.26000000000E-02 0.  1.
         23    2    1    2    0    0  0.00000000000E+00  0.00000000000E+00  0.34340648504E+01  0.80858967047E+02  0.80786012097E+02 0.  0.
        -13    1    3    3    0    0 -0.13125010608E+02  0.95885627354E+01 -0.35294426615E+02  0.38857613944E+02  0.10570000000E+00 0.  1.
         13    1    3    3    0    0  0.13125010608E+02 -0.95885627354E+01  0.38728491466E+02  0.42001353103E+02  0.10570000000E+00 0. -1.
<mgrwt>
<rscale>  0 0.80786012E+02</rscale>
<asrwt>0</asrwt>
<pdfrwt beam="1">  1        2 0.64840794E-02 0.80786012E+02</pdfrwt>
<pdfrwt beam="2">  1       -2 0.59557617E-02 0.80786012E+02</pdfrwt>
<totfact> 0.13647012E+05</totfact>
</mgrwt>
</event>
<event>
 5   1  0.1343823E+00  0.9423484E+02  0.7818608E-02  0.1292909E+00
         -2   -1    0    0    0  501 -0.00000000000E+00  0.00000000000E+00  0.42959192186E+02  0.42959192265E+02  0.26000000000E-02 0.  1.
          2   -1    0    0  501    0  0.00000000000E+00 -0.00000000000E+00 -0.51678142581E+02  0.51678142646E+02  0.26000000000E-02 0. -1.
         23    2    1    2    0    0  0.00000000000E+00  0.00000000000E+00 -0.87189503943E+01  0.94637334911E+02  0.94234839964E+02 0.  0.
        -13    1    3    3    0    0 -0.59411454574E+01 -0.15036181826E+02  0.40086260689E+02  0.43223875830E+02  0.10570000000E+00 0.  1.
         13    1    3    3    0    0  0.59411454574E+01  0.15036181826E+02 -0.48805211084E+02  0.51413459081E+02  0.10570000000E+00 0. -1.
<mgrwt>
<rscale>  0 0.94234840E+02</rscale>
<asrwt>0</asrwt>
<pdfrwt beam="2">  1        2 0.79504835E-02 0.94234840E+02</pdfrwt>
<pdfrwt beam="1">  1       -2 0.66091065E-02 0.94234840E+02</pdfrwt>
<totfact> 0.92781620E+04</totfact>
</mgrwt>
</event>
<event>
 5   1  0.1343823E+00  0.9147556E+02  0.7818608E-02  0.1299317E+00
         -2   -1    0    0    0  501 -0.00000000000E+00  0.00000000000E+00  0.24999350116E+02  0.24999350252E+02  0.26000000000E-02 0.  1.
          2   -1    0    0  501    0  0.00000000000E+00 -0.00000000000E+00 -0.83679953729E+02  0.83679953770E+02  0.26000000000E-02 0. -1.
         23    2    1    2    0    0  0.00000000000E+00  0.00000000000E+00 -0.58680603613E+02  0.10867930402E+03  0.91475558934E+02 0.  0.
        -13    1    3    3    0    0 -0.21042053898E+02  0.12402006789E+02  0.16602132395E+02  0.29533367184E+02  0.10570000000E+00 0.  1.
         13    1    3    3    0    0  0.21042053898E+02 -0.12402006789E+02 -0.75282736008E+02  0.79145936838E+02  0.10570000000E+00 0. -1.
<mgrwt>
<rscale>  0 0.91475559E+02</rscale>
<asrwt>0</asrwt>
<pdfrwt beam="2">  1        2 0.12873839E-01 0.91475559E+02</pdfrwt>
<pdfrwt beam="1">  1       -2 0.38460539E-02 0.91475559E+02</pdfrwt>
<totfact> 0.11529960E+05</totfact>
</mgrwt>
</event>
<event>
 5   1  0.1343823E+00  0.8928375E+02  0.7818608E-02  0.1304596E+00
          2   -1    0    0  501    0  0.00000000000E+00  0.00000000000E+00  0.79396462008E+01  0.79396466265E+01  0.26000000000E-02 0. -1.
         -2   -1    0    0    0  501 -0.00000000000E+00 -0.00000000000E+00 -0.25100575984E+03  0.25100575986E+03  0.26000000000E-02 0.  1.
         23    2    1    2    0    0  0.00000000000E+00  0.00000000000E+00 -0.24306611364E+03  0.25894540648E+03  0.89283749571E+02 0.  0.
        -13    1    3    3    0    0 -0.37686760859E+02  0.23001576510E+02 -0.10239988598E+03  0.11151283463E+03  0.10570000000E+00 0. -1.
         13    1    3    3    0    0  0.37686760859E+02 -0.23001576510E+02 -0.14066622767E+03  0.14743257186E+03  0.10570000000E+00 0.  1.
<mgrwt>
<rscale>  0 0.89283750E+02</rscale>
<asrwt>0</asrwt>
<pdfrwt beam="1">  1        2 0.12214843E-02 0.89283750E+02</pdfrwt>
<pdfrwt beam="2">  1       -2 0.38616265E-01 0.89283750E+02</pdfrwt>
<totfact> 0.59163004E+04</totfact>
</mgrwt>
</event>
<event>
 5   1  0.1343823E+00  0.9227414E+02  0.7818608E-02  0.1297436E+00
          2   -1    0    0  501    0  0.00000000000E+00  0.00000000000E+00  0.40018885011E+02  0.40018885096E+02  0.26000000000E-02 0. -1.
         -2   -1    0    0    0  501 -0.00000000000E+00 -0.00000000000E+00 -0.53190612999E+02  0.53190613063E+02  0.26000000000E-02 0.  1.
         23    2    1    2    0    0  0.00000000000E+00  0.00000000000E+00 -0.13171727988E+02  0.93209498159E+02  0.92274135752E+02 0.  0.
        -13    1    3    3    0    0 -0.21332893937E+02 -0.31923121429E+02 -0.32427204567E+02  0.50256470370E+02  0.10570000000E+00 0.  1.
         13    1    3    3    0    0  0.21332893937E+02  0.31923121429E+02  0.19255476579E+02  0.42953027789E+02  0.10570000000E+00 0. -1.
<mgrwt>
<rscale>  0 0.92274136E+02</rscale>
<asrwt>0</asrwt>
<pdfrwt beam="1">  1        2 0.61567516E-02 0.92274136E+02</pdfrwt>
<pdfrwt beam="2">  1       -2 0.81831712E-02 0.92274136E+02</pdfrwt>
<totfact> 0.92143764E+04</totfact>
</mgrwt>
</event>
<event>
 5   1  0.1343823E+00  0.1041982E+03  0.7818608E-02  0.1271707E+00
          2   -1    0    0  501    0  0.00000000000E+00  0.00000000000E+00  0.12915133397E+03  0.12915133399E+03  0.26000000000E-02 0. -1.
         -2   -1    0    0    0  501 -0.00000000000E+00 -0.00000000000E+00 -0.21016560345E+02  0.21016560506E+02  0.26000000000E-02 0.  1.
         23    2    1    2    0    0  0.00000000000E+00  0.00000000000E+00  0.10813477362E+03  0.15016789450E+03  0.10419821146E+03 0.  0.
        -13    1    3    3    0    0  0.40036552724E+02 -0.26482913457E+02  0.83250222922E+02  0.96098288478E+02  0.10570000000E+00 0.  1.
         13    1    3    3    0    0 -0.40036552724E+02  0.26482913457E+02  0.24884550698E+02  0.54069606020E+02  0.10570000000E+00 0. -1.
<mgrwt>
<rscale>  0 0.10419821E+03</rscale>
<asrwt>0</asrwt>
<pdfrwt beam="1">  1        2 0.19869435E-01 0.10419821E+03</pdfrwt>
<pdfrwt beam="2">  1       -2 0.32333171E-02 0.10419821E+03</pdfrwt>
<totfact> 0.92082084E+04</totfact>
</mgrwt>
</event>
<event>
 5   1  0.1343823E+00  0.8995240E+02  0.7818608E-02  0.1302967E+00
          2   -1    0    0  501    0  0.00000000000E+00  0.00000000000E+00  0.18846974088E+03  0.18846974090E+03  0.26000000000E-02 0. -1.
         -2   -1    0    0    0  501 -0.00000000000E+00 -0.00000000000E+00 -0.10733066877E+02  0.10733067192E+02  0.26000000000E-02 0.  1.
         23    2    1    2    0    0  0.00000000000E+00  0.00000000000E+00  0.17773667400E+03  0.19920280809E+03  0.89952395550E+02 0.  0.
        -13    1    3    3    0    0  0.16960156518E+02  0.28049290923E+02  0.20667909709E+02  0.38750268317E+02  0.10570000000E+00 0.  1.
         13    1    3    3    0    0 -0.16960156518E+02 -0.28049290923E+02  0.15706876429E+03  0.16045253977E+03  0.10570000000E+00 0. -1.
<mgrwt>
<rscale>  0 0.89952396E+02</rscale>
<asrwt>0</asrwt>
<pdfrwt beam="1">  1        2 0.28995343E-01 0.89952396E+02</pdfrwt>
<pdfrwt beam="2">  1       -2 0.16512412E-02 0.89952396E+02</pdfrwt>
<totfact> 0.15702257E+05</totfact>
</mgrwt>
</event>
<event>
 5   1  0.1343823E+00  0.9056219E+02  0.7818608E-02  0.1301496E+00
          2   -1    0    0  501    0  0.00000000000E+00  0.00000000000E+00  0.29733845624E+03  0.29733845625E+03  0.26000000000E-02 0. -1.
         -2   -1    0    0    0  501 -0.00000000000E+00 -0.00000000000E+00 -0.68957691432E+01  0.68957696334E+01  0.26000000000E-02 0.  1.
         23    2    1    2    0    0  0.00000000000E+00  0.00000000000E+00  0.29044268710E+03  0.30423422589E+03  0.90562186986E+02 0.  0.
        -13    1    3    3    0    0  0.10802039368E+02 -0.36601820768E+02  0.22709615996E+03  0.23028038210E+03  0.10570000000E+00 0. -1.
         13    1    3    3    0    0 -0.10802039368E+02  0.36601820768E+02  0.63346527133E+02  0.73953843783E+02  0.10570000000E+00 0.  1.
<mgrwt>
<rscale>  0 0.90562187E+02</rscale>
<asrwt>0</asrwt>
<pdfrwt beam="1">  1        2 0.45744386E-01 0.90562187E+02</pdfrwt>
<pdfrwt beam="2">  1       -2 0.10608874E-02 0.90562187E+02</pdfrwt>
<totfact> 0.18232408E+05</totfact>
</mgrwt>
</event>
<event>
 5   1  0.1343823E+00  0.9185241E+02  0.7818608E-02  0.1298427E+00
          2   -1    0    0  501    0  0.00000000000E+00  0.00000000000E+00  0.97175745760E+01  0.97175749238E+01  0.26000000000E-02 0. -1.
         -2   -1    0    0    0  501 -0.00000000000E+00 -0.00000000000E+00 -0.21705171131E+03  0.21705171132E+03  0.26000000000E-02 0.  1.
         23    2    1    2    0    0  0.00000000000E+00  0.00000000000E+00 -0.20733413673E+03  0.22676928625E+03  0.91852408410E+02 0.  0.
        -13    1    3    3    0    0 -0.14106091194E+02 -0.43604134192E+02 -0.11103346932E+03  0.12011971033E+03  0.10570000000E+00 0.  1.
         13    1    3    3    0    0  0.14106091194E+02  0.43604134192E+02 -0.96300667412E+02  0.10664957592E+03  0.10570000000E+00 0. -1.
<mgrwt>
<rscale>  0 0.91852408E+02</rscale>
<asrwt>0</asrwt>
<pdfrwt beam="1">  1        2 0.14950117E-02 0.91852408E+02</pdfrwt>
<pdfrwt beam="2">  1       -2 0.33392567E-01 0.91852408E+02</pdfrwt>
<totfact> 0.58969116E+04</totfact>
</mgrwt>
</event>
<event>
 5   1  0.1343823E+00  0.9587110E+02  0.7818608E-02  0.1289226E+00
          2   -1    0    0  501    0  0.00000000000E+00  0.00000000000E+00  0.13057403528E+02  0.13057403787E+02  0.26000000000E-02 0. -1.
         -2   -1    0    0    0  501 -0.00000000000E+00 -0.00000000000E+00 -0.17597810777E+03  0.17597810779E+03  0.26000000000E-02 0.  1.
         23    2    1    2    0    0  0.00000000000E+00  0.00000000000E+00 -0.16292070424E+03  0.18903551158E+03  0.95871104961E+02 0.  0.
        -13    1    3    3    0    0  0.37679888469E+02  0.25669382423E+02 -0.11064749273E+03  0.11967276219E+03  0.10570000000E+00 0.  1.
         13    1    3    3    0    0 -0.37679888469E+02 -0.25669382423E+02 -0.52273211512E+02  0.69362749393E+02  0.10570000000E+00 0. -1.
<mgrwt>
<rscale>  0 0.95871105E+02</rscale>
<asrwt>0</asrwt>
<pdfrwt beam="1">  1        2 0.20088315E-02 0.95871105E+02</pdfrwt>
<pdfrwt beam="2">  1       -2 0.27073553E-01 0.95871105E+02</pdfrwt>
<totfact> 0.57838146E+04</totfact>
</mgrwt>
</event>
<event>
 5   1  0.1343823E+00  0.9086300E+02  0.7818608E-02  0.1300775E+00
          2   -1    0    0  501    0  0.00000000000E+00  0.00000000000E+00  0.91391033269E+02  0.91391033306E+02  0.26000000000E-02 0. -1.
         -2   -1    0    0    0  501 -0.00000000000E+00 -0.00000000000E+00 -0.22584503062E+02  0.22584503212E+02  0.26000000000E-02 0.  1.
         23    2    1    2    0    0  0.00000000000E+00  0.00000000000E+00  0.68806530206E+02  0.11397553652E+03  0.90862997559E+02 0.  0.
        -13    1    3    3    0    0 -0.45273430967E+02  0.35797808367E+01  0.32861094303E+02  0.56056766528E+02  0.10570000000E+00 0.  1.
         13    1    3    3    0    0  0.45273430967E+02 -0.35797808367E+01  0.35945435904E+02  0.57918769990E+02  0.10570000000E+00 0. -1.
<mgrwt>
<rscale>  0 0.90862998E+02</rscale>
<asrwt>0</asrwt>
<pdfrwt beam="1">  1        2 0.14060159E-01 0.90862998E+02</pdfrwt>
<pdfrwt beam="2">  1       -2 0.34745389E-02 0.90862998E+02</pdfrwt>
<totfact> 0.12054241E+05</totfact>
</mgrwt>
</event>
<event>
 5   1  0.1343823E+00  0.7764135E+02  0.7818608E-02  0.1335881E+00
         -2   -1    0    0    0  501 -0.00000000000E+00  0.00000000000E+00  0.14813933440E+02  0.14813933668E+02  0.26000000000E-02 0.  1.
          2   -1    0    0  501    0  0.00000000000E+00 -0.00000000000E+00 -0.10173158158E+03  0.10173158162E+03  0.26000000000E-02 0. -1.
         23    2    1    2    0    0  0.00000000000E+00  0.00000000000E+00 -0.86917648143E+02  0.11654551529E+03  0.77641352219E+02 0.  0.
        -13    1    3    3    0    0  0.34236466521E+02  0.16023549865E+02 -0.56728187931E+02  0.68168821821E+02  0.10570000000E+00 0. -1.
         13    1    3    3    0    0 -0.34236466521E+02 -0.16023549865E+02 -0.30189460212E+02  0.48376693464E+02  0.10570000000E+00 0.  1.
<mgrwt>
<rscale>  0 0.77641352E+02</rscale>
<asrwt>0</asrwt>
<pdfrwt beam="2">  1        2 0.15651012E-01 0.77641352E+02</pdfrwt>
<pdfrwt beam="1">  1       -2 0.22790668E-02 0.77641352E+02</pdfrwt>
<totfact> 0.19087389E+05</totfact>
</mgrwt>
</event>
<event>
 5   1  0.1343823E+00  0.1118683E+03  0.7818608E-02  0.1257149E+00
          2   -1    0    0  501    0  0.00000000000E+00  0.00000000000E+00  0.48227537145E+03  0.48227537145E+03  0.26000000000E-02 0. -1.
         -2   -1    0    0    0  501 -0.00000000000E+00 -0.00000000000E+00 -0.64872262597E+01  0.64872267807E+01  0.26000000000E-02 0.  1.
         23    2    1    2    0    0  0.00000000000E+00  0.00000000000E+00  0.47578814519E+03  0.48876259824E+03  0.11186830799E+03 0.  0.
        -13    1    3    3    0    0 -0.54417301402E+02 -0.94725618520E+00  0.18152123788E+03  0.18950491013E+03  0.10570000000E+00 0.  1.
         13    1    3    3    0    0  0.54417301402E+02  0.94725618520E+00  0.29426690730E+03  0.29925768811E+03  0.10570000000E+00 0. -1.
<mgrwt>
<rscale>  0 0.11186831E+03</rscale>
<asrwt>0</asrwt>
<pdfrwt beam="1">  1        2 0.74196211E-01 0.11186831E+03</pdfrwt>
<pdfrwt beam="2">  1       -2 0.99803485E-03 0.11186831E+03</pdfrwt>
<totfact> 0.12318199E+05</totfact>
</mgrwt>
</event>
<event>
 4   1  0.1343823E+00  0.4291073E+02  0.7818608E-02  0.1487822E+00
         -2   -1    0    0    0  501 -0.00000000000E+00  0.00000000000E+00  0.49512642367E+02  0.49512642435E+02  0.26000000000E-02 0.  1.
          2   -1    0    0  501    0  0.00000000000E+00 -0.00000000000E+00 -0.92972763442E+01  0.92972767078E+01  0.26000000000E-02 0. -1.
        -13    1    1    2    0    0 -0.10991717398E+02  0.18420092427E+02  0.20726547949E+02  0.29828151447E+02  0.10570000000E+00 0.  1.
         13    1    1    2    0    0  0.10991717398E+02 -0.18420092427E+02  0.19488818073E+02  0.28981767695E+02  0.10570000000E+00 0. -1.
<mgrwt>
<rscale>  0 0.42910732E+02</rscale>
<asrwt>0</asrwt>
<pdfrwt beam="2">  1        2 0.14303503E-02 0.42910732E+02</pdfrwt>
<pdfrwt beam="1">  1       -2 0.76173295E-02 0.42910732E+02</pdfrwt>
<totfact> 0.58862739E+05</totfact>
</mgrwt>
</event>
<event>
 5   1  0.1343823E+00  0.9139094E+02  0.7818608E-02  0.1299518E+00
         -2   -1    0    0    0  501 -0.00000000000E+00  0.00000000000E+00  0.13516004899E+03  0.13516004901E+03  0.26000000000E-02 0. -1.
          2   -1    0    0  501    0  0.00000000000E+00 -0.00000000000E+00 -0.15448913835E+02  0.15448914054E+02  0.26000000000E-02 0.  1.
         23    2    1    2    0    0  0.00000000000E+00  0.00000000000E+00  0.11971113515E+03  0.15060896307E+03  0.91390939795E+02 0.  0.
        -13    1    3    3    0    0  0.31146325052E+02 -0.32939741681E+02  0.50396678622E+02  0.67786108716E+02  0.10570000000E+00 0. -1.
         13    1    3    3    0    0 -0.31146325052E+02  0.32939741681E+02  0.69314456531E+02  0.82822854352E+02  0.10570000000E+00 0.  1.
<mgrwt>
<rscale>  0 0.91390940E+02</rscale>
<asrwt>0</asrwt>
<pdfrwt beam="2">  1        2 0.23767561E-02 0.91390940E+02</pdfrwt>
<pdfrwt beam="1">  1       -2 0.20793853E-01 0.91390940E+02</pdfrwt>
<totfact> 0.72052332E+04</totfact>
</mgrwt>
</event>
<event>
 5   1  0.1343823E+00  0.9403546E+02  0.7818608E-02  0.1293363E+00
          2   -1    0    0  501    0  0.00000000000E+00  0.00000000000E+00  0.70477903958E+02  0.70477904005E+02  0.26000000000E-02 0. -1.
         -2   -1    0    0    0  501 -0.00000000000E+00 -0.00000000000E+00 -0.31366808569E+02  0.31366808677E+02  0.26000000000E-02 0.  1.
         23    2    1    2    0    0  0.00000000000E+00  0.00000000000E+00  0.39111095388E+02  0.10184471268E+03  0.94035459902E+02 0.  0.
        -13    1    3    3    0    0  0.17601745809E+02  0.18905644187E+02 -0.22993281937E+02  0.34582467008E+02  0.10570000000E+00 0.  1.
         13    1    3    3    0    0 -0.17601745809E+02 -0.18905644187E+02  0.62104377325E+02  0.67262245674E+02  0.10570000000E+00 0. -1.
<mgrwt>
<rscale>  0 0.94035460E+02</rscale>
<asrwt>0</asrwt>
<pdfrwt beam="1">  1        2 0.10842754E-01 0.94035460E+02</pdfrwt>
<pdfrwt beam="2">  1       -2 0.48256629E-02 0.94035460E+02</pdfrwt>
<totfact> 0.10163042E+05</totfact>
</mgrwt>
</event>
<event>
 5   1  0.1343823E+00  0.9126439E+02  0.7818608E-02  0.1299818E+00
          2   -1    0    0  501    0  0.00000000000E+00  0.00000000000E+00  0.47774184484E+02  0.47774184555E+02  0.26000000000E-02 0.  1.
         -2   -1    0    0    0  501 -0.00000000000E+00 -0.00000000000E+00 -0.43586242883E+02  0.43586242960E+02  0.26000000000E-02 0. -1.
         23    2    1    2    0    0  0.00000000000E+00  0.00000000000E+00  0.41879416013E+01  0.91360427515E+02  0.91264389884E+02 0.  0.
        -13    1    3    3    0    0  0.23573107895E+02 -0.15058236316E+02 -0.33997319569E+02  0.44025797064E+02  0.10570000000E+00 0. -1.
         13    1    3    3    0    0 -0.23573107895E+02  0.15058236316E+02  0.38185261171E+02  0.47334630451E+02  0.10570000000E+00 0.  1.
<mgrwt>
<rscale>  0 0.91264390E+02</rscale>
<asrwt>0</asrwt>
<pdfrwt beam="1">  1        2 0.73498745E-02 0.91264390E+02</pdfrwt>
<pdfrwt beam="2">  1       -2 0.67055758E-02 0.91264390E+02</pdfrwt>
<totfact> 0.99609092E+04</totfact>
</mgrwt>
</event>
<event>
 5   1  0.1343823E+00  0.9136126E+02  0.7818608E-02  0.1299588E+00
          2   -1    0    0  501    0  0.00000000000E+00  0.00000000000E+00  0.12574512992E+03  0.12574512995E+03  0.26000000000E-02 0. -1.
         -2   -1    0    0    0  501 -0.00000000000E+00 -0.00000000000E+00 -0.16594836731E+02  0.16594836935E+02  0.26000000000E-02 0.  1.
         23    2    1    2    0    0  0.00000000000E+00  0.00000000000E+00  0.10915029319E+03  0.14233996689E+03  0.91361259126E+02 0.  0.
        -13    1    3    3    0    0 -0.16517398190E+02  0.32147650762E+02  0.11051328089E+02  0.37794694303E+02  0.10570000000E+00 0.  1.
         13    1    3    3    0    0  0.16517398190E+02 -0.32147650762E+02  0.98098965104E+02  0.10454527258E+03  0.10570000000E+00 0. -1.
<mgrwt>
<rscale>  0 0.91361259E+02</rscale>
<asrwt>0</asrwt>
<pdfrwt beam="1">  1        2 0.19345404E-01 0.91361259E+02</pdfrwt>
<pdfrwt beam="2">  1       -2 0.25530519E-02 0.91361259E+02</pdfrwt>
<totfact> 0.13111382E+05</totfact>
</mgrwt>
</event>
<event>
 5   1  0.1343823E+00  0.9178181E+02  0.7818608E-02  0.1298593E+00
         -2   -1    0    0    0  501 -0.00000000000E+00  0.00000000000E+00  0.13383244192E+03  0.13383244195E+03  0.26000000000E-02 0. -1.
          2   -1    0    0  501    0  0.00000000000E+00 -0.00000000000E+00 -0.15735908335E+02  0.15735908550E+02  0.26000000000E-02 0.  1.
         23    2    1    2    0    0  0.00000000000E+00  0.00000000000E+00  0.11809653359E+03  0.14956835050E+03  0.91781807703E+02 0.  0.
        -13    1    3    3    0    0 -0.35898618630E+02  0.23598304769E+01  0.12620621234E+02  0.38125724547E+02  0.10570000000E+00 0.  1.
         13    1    3    3    0    0  0.35898618630E+02 -0.23598304769E+01  0.10547591235E+03  0.11144262595E+03  0.10570000000E+00 0. -1.
<mgrwt>
<rscale>  0 0.91781808E+02</rscale>
<asrwt>0</asrwt>
<pdfrwt beam="2">  1        2 0.24209090E-02 0.91781808E+02</pdfrwt>
<pdfrwt beam="1">  1       -2 0.20589606E-01 0.91781808E+02</pdfrwt>
<totfact> 0.71522638E+04</totfact>
</mgrwt>
</event>
<event>
 5   1  0.1343823E+00  0.8932082E+02  0.7818608E-02  0.1304505E+00
         -2   -1    0    0    0  501 -0.00000000000E+00  0.00000000000E+00  0.13889459698E+02  0.13889459941E+02  0.26000000000E-02 0.  1.
          2   -1    0    0  501    0  0.00000000000E+00 -0.00000000000E+00 -0.14360185409E+03  0.14360185411E+03  0.26000000000E-02 0. -1.
         23    2    1    2    0    0  0.00000000000E+00  0.00000000000E+00 -0.12971239439E+03  0.15749131406E+03  0.89320819208E+02 0.  0.
        -13    1    3    3    0    0 -0.41460430984E+02  0.14998724262E+01 -0.35705909878E+02  0.54737008754E+02  0.10570000000E+00 0.  1.
         13    1    3    3    0    0  0.41460430984E+02 -0.14998724262E+01 -0.94006484515E+02  0.10275430530E+03  0.10570000000E+00 0. -1.
<mgrwt>
<rscale>  0 0.89320819E+02</rscale>
<asrwt>0</asrwt>
<pdfrwt beam="2">  1        2 0.22092592E-01 0.89320819E+02</pdfrwt>
<pdfrwt beam="1">  1       -2 0.21368401E-02 0.89320819E+02</pdfrwt>
<totfact> 0.14566542E+05</totfact>
</mgrwt>
</event>
<event>
 5   1  0.1343823E+00  0.8973375E+02  0.7818608E-02  0.1303498E+00
          2   -1    0    0  501    0  0.00000000000E+00  0.00000000000E+00  0.21437346927E+03  0.21437346928E+03  0.26000000000E-02 0. -1.
         -2   -1    0    0    0  501 -0.00000000000E+00 -0.00000000000E+00 -0.93903239536E+01  0.93903243135E+01  0.26000000000E-02 0.  1.
         23    2    1    2    0    0  0.00000000000E+00  0.00000000000E+00  0.20498314531E+03  0.22376379360E+03  0.89733747621E+02 0.  0.
        -13    1    3    3    0    0 -0.24348871391E+02  0.26687255119E+02  0.36142522312E+02  0.51101567641E+02  0.10570000000E+00 0.  1.
         13    1    3    3    0    0  0.24348871391E+02 -0.26687255119E+02  0.16884062300E+03  0.17266222596E+03  0.10570000000E+00 0. -1.
<mgrwt>
<rscale>  0 0.89733748E+02</rscale>
<asrwt>0</asrwt>
<pdfrwt beam="1">  1        2 0.32980532E-01 0.89733748E+02</pdfrwt>
<pdfrwt beam="2">  1       -2 0.14446653E-02 0.89733748E+02</pdfrwt>
<totfact> 0.16556954E+05</totfact>
</mgrwt>
</event>
<event>
 5   1  0.1343823E+00  0.8999158E+02  0.7818608E-02  0.1302872E+00
         -2   -1    0    0    0  501 -0.00000000000E+00  0.00000000000E+00  0.71720362550E+01  0.71720367263E+01  0.26000000000E-02 0.  1.
          2   -1    0    0  501    0  0.00000000000E+00 -0.00000000000E+00 -0.28229376027E+03  0.28229376028E+03  0.26000000000E-02 0. -1.
         23    2    1    2    0    0  0.00000000000E+00  0.00000000000E+00 -0.27512172401E+03  0.28946579701E+03  0.89991580787E+02 0.  0.
        -13    1    3    3    0    0 -0.37110344311E+02 -0.22155562040E+02 -0.97313215332E+02  0.10647966771E+03  0.10570000000E+00 0.  1.
         13    1    3    3    0    0  0.37110344311E+02  0.22155562040E+02 -0.17780850868E+03  0.18298612930E+03  0.10570000000E+00 0. -1.
<mgrwt>
<rscale>  0 0.89991581E+02</rscale>
<asrwt>0</asrwt>
<pdfrwt beam="2">  1        2 0.43429801E-01 0.89991581E+02</pdfrwt>
<pdfrwt beam="1">  1       -2 0.11033905E-02 0.89991581E+02</pdfrwt>
<totfact> 0.18187057E+05</totfact>
</mgrwt>
</event>
<event>
 5   1  0.1343823E+00  0.8216427E+02  0.7818608E-02  0.1323019E+00
         -2   -1    0    0    0  501 -0.00000000000E+00  0.00000000000E+00  0.21693992564E+03  0.21693992565E+03  0.26000000000E-02 0.  1.
          2   -1    0    0  501    0  0.00000000000E+00 -0.00000000000E+00 -0.77797648999E+01  0.77797653344E+01  0.26000000000E-02 0. -1.
         23    2    1    2    0    0  0.00000000000E+00  0.00000000000E+00  0.20916016074E+03  0.22471969099E+03  0.82164266429E+02 0.  0.
        -13    1    3    3    0    0 -0.29468511564E+02 -0.27306754393E+02  0.12805631808E+03  0.13421059489E+03  0.10570000000E+00 0.  1.
         13    1    3    3    0    0  0.29468511564E+02  0.27306754393E+02  0.81103842660E+02  0.90509096095E+02  0.10570000000E+00 0. -1.
<mgrwt>
<rscale>  0 0.82164266E+02</rscale>
<asrwt>0</asrwt>
<pdfrwt beam="2">  1        2 0.11968872E-02 0.82164266E+02</pdfrwt>
<pdfrwt beam="1">  1       -2 0.33375366E-01 0.82164266E+02</pdfrwt>
<totfact> 0.78399084E+04</totfact>
</mgrwt>
</event>
<event>
 5   1  0.1343823E+00  0.9157397E+02  0.7818608E-02  0.1299084E+00
          2   -1    0    0  501    0  0.00000000000E+00  0.00000000000E+00  0.94057554227E+02  0.94057554263E+02  0.26000000000E-02 0. -1.
         -2   -1    0    0    0  501 -0.00000000000E+00 -0.00000000000E+00 -0.22288991930E+02  0.22288992082E+02  0.26000000000E-02 0.  1.
         23    2    1    2    0    0  0.00000000000E+00  0.00000000000E+00  0.71768562297E+02  0.11634654634E+03  0.91573971805E+02 0.  0.
        -13    1    3    3    0    0 -0.43483323249E+00  0.39515315047E+02  0.65029037947E+01  0.40049321261E+02  0.10570000000E+00 0.  1.
         13    1    3    3    0    0  0.43483323249E+00 -0.39515315047E+02  0.65265658502E+02  0.76297225083E+02  0.10570000000E+00 0. -1.
<mgrwt>
<rscale>  0 0.91573972E+02</rscale>
<asrwt>0</asrwt>
<pdfrwt beam="1">  1        2 0.14470393E-01 0.91573972E+02</pdfrwt>
<pdfrwt beam="2">  1       -2 0.34290757E-02 0.91573972E+02</pdfrwt>
<totfact> 0.11899034E+05</totfact>
</mgrwt>
</event>
<event>
 5   1  0.1343823E+00  0.9169958E+02  0.7818608E-02  0.1298787E+00
          2   -1    0    0  501    0  0.00000000000E+00  0.00000000000E+00  0.11288582133E+03  0.11288582136E+03  0.26000000000E-02 0. -1.
         -2   -1    0    0    0  501 -0.00000000000E+00 -0.00000000000E+00 -0.18622385115E+02  0.18622385296E+02  0.26000000000E-02 0.  1.
         23    2    1    2    0    0  0.00000000000E+00  0.00000000000E+00  0.94263436215E+02  0.13150820666E+03  0.91699580210E+02 0.  0.
        -13    1    3    3    0    0  0.38884543378E+02 -0.11384666006E+02  0.16354093571E+02  0.43693087357E+02  0.10570000000E+00 0.  1.
         13    1    3    3    0    0 -0.38884543378E+02  0.11384666006E+02  0.77909342644E+02  0.87815119299E+02  0.10570000000E+00 0. -1.
<mgrwt>
<rscale>  0 0.91699580E+02</rscale>
<asrwt>0</asrwt>
<pdfrwt beam="1">  1        2 0.17367049E-01 0.91699580E+02</pdfrwt>
<pdfrwt beam="2">  1       -2 0.28649824E-02 0.91699580E+02</pdfrwt>
<totfact> 0.12538633E+05</totfact>
</mgrwt>
</event>
<event>
 5   1  0.1343823E+00  0.9292715E+02  0.7818608E-02  0.1295914E+00
          2   -1    0    0  501    0  0.00000000000E+00  0.00000000000E+00  0.33920468259E+03  0.33920468260E+03  0.26000000000E-02 0. -1.
         -2   -1    0    0    0  501 -0.00000000000E+00 -0.00000000000E+00 -0.63644874030E+01  0.63644879340E+01  0.26000000000E-02 0.  1.
         23    2    1    2    0    0  0.00000000000E+00  0.00000000000E+00  0.33284019519E+03  0.34556917054E+03  0.92927154758E+02 0.  0.
        -13    1    3    3    0    0 -0.45620327063E+02  0.84750428025E+01  0.17538539728E+03  0.18141964982E+03  0.10570000000E+00 0.  1.
         13    1    3    3    0    0  0.45620327063E+02 -0.84750428025E+01  0.15745479791E+03  0.16414952071E+03  0.10570000000E+00 0. -1.
<mgrwt>
<rscale>  0 0.92927155E+02</rscale>
<asrwt>0</asrwt>
<pdfrwt beam="1">  1        2 0.52185341E-01 0.92927155E+02</pdfrwt>
<pdfrwt beam="2">  1       -2 0.97915185E-03 0.92927155E+02</pdfrwt>
<totfact> 0.17872759E+05</totfact>
</mgrwt>
</event>
<event>
 5   1  0.1343823E+00  0.8866888E+02  0.7818608E-02  0.1306108E+00
         -2   -1    0    0    0  501 -0.00000000000E+00  0.00000000000E+00  0.21043076747E+02  0.21043076908E+02  0.26000000000E-02 0. -1.
          2   -1    0    0  501    0  0.00000000000E+00 -0.00000000000E+00 -0.93405667686E+02  0.93405667722E+02  0.26000000000E-02 0.  1.
         23    2    1    2    0    0  0.00000000000E+00  0.00000000000E+00 -0.72362590939E+02  0.11444874463E+03  0.88668881689E+02 0.  0.
        -13    1    3    3    0    0  0.25782056917E+02 -0.82864703696E+01 -0.81488977463E+02  0.85871093335E+02  0.10570000000E+00 0.  1.
         13    1    3    3    0    0 -0.25782056917E+02  0.82864703696E+01  0.91263865244E+01  0.28577651295E+02  0.10570000000E+00 0. -1.
<mgrwt>
<rscale>  0 0.88668882E+02</rscale>
<asrwt>0</asrwt>
<pdfrwt beam="2">  1        2 0.14370103E-01 0.88668882E+02</pdfrwt>
<pdfrwt beam="1">  1       -2 0.32373965E-02 0.88668882E+02</pdfrwt>
<totfact> 0.12976795E+05</totfact>
</mgrwt>
</event>
<event>
 5   1  0.1343823E+00  0.9071980E+02  0.7818608E-02  0.1301118E+00
          2   -1    0    0  501    0  0.00000000000E+00  0.00000000000E+00  0.45615651923E+02  0.45615651997E+02  0.26000000000E-02 0. -1.
         -2   -1    0    0    0  501 -0.00000000000E+00 -0.00000000000E+00 -0.45105580436E+02  0.45105580511E+02  0.26000000000E-02 0.  1.
         23    2    1    2    0    0  0.00000000000E+00  0.00000000000E+00  0.51007148734E+00  0.90721232508E+02  0.90719798582E+02 0.  0.
        -13    1    3    3    0    0  0.26022625926E+02 -0.37129040578E+02  0.15841831100E+01  0.45368089258E+02  0.10570000000E+00 0. -1.
         13    1    3    3    0    0 -0.26022625926E+02  0.37129040578E+02 -0.10741116226E+01  0.45353143249E+02  0.10570000000E+00 0.  1.
<mgrwt>
<rscale>  0 0.90719799E+02</rscale>
<asrwt>0</asrwt>
<pdfrwt beam="1">  1        2 0.70177926E-02 0.90719799E+02</pdfrwt>
<pdfrwt beam="2">  1       -2 0.69393201E-02 0.90719799E+02</pdfrwt>
<totfact> 0.10012213E+05</totfact>
</mgrwt>
</event>
<event>
 5   1  0.1343823E+00  0.9144985E+02  0.7818608E-02  0.1299378E+00
          2   -1    0    0  501    0  0.00000000000E+00  0.00000000000E+00  0.13001631608E+02  0.13001631868E+02  0.26000000000E-02 0. -1.
         -2   -1    0    0    0  501 -0.00000000000E+00 -0.00000000000E+00 -0.16080816580E+03  0.16080816582E+03  0.26000000000E-02 0.  1.
         23    2    1    2    0    0  0.00000000000E+00  0.00000000000E+00 -0.14780653419E+03  0.17380979769E+03  0.91449845395E+02 0.  0.
        -13    1    3    3    0    0  0.33078994520E+02  0.15697766343E+02 -0.12595748992E+03  0.13117141528E+03  0.10570000000E+00 0.  1.
         13    1    3    3    0    0 -0.33078994520E+02 -0.15697766343E+02 -0.21849044275E+02  0.42638382413E+02  0.10570000000E+00 0. -1.
<mgrwt>
<rscale>  0 0.91449845E+02</rscale>
<asrwt>0</asrwt>
<pdfrwt beam="1">  1        2 0.20002512E-02 0.91449845E+02</pdfrwt>
<pdfrwt beam="2">  1       -2 0.24739716E-01 0.91449845E+02</pdfrwt>
<totfact> 0.67560102E+04</totfact>
</mgrwt>
</event>
<event>
 5   1  0.1343823E+00  0.9041216E+02  0.7818608E-02  0.1301857E+00
         -2   -1    0    0    0  501 -0.00000000000E+00  0.00000000000E+00  0.74534188035E+02  0.74534188080E+02  0.26000000000E-02 0.  1.
          2   -1    0    0  501    0  0.00000000000E+00 -0.00000000000E+00 -0.27418154285E+02  0.27418154409E+02  0.26000000000E-02 0. -1.
         23    2    1    2    0    0  0.00000000000E+00  0.00000000000E+00  0.47116033749E+02  0.10195234249E+03  0.90412164573E+02 0.  0.
        -13    1    3    3    0    0  0.35460747030E+02  0.19998618417E+02  0.45717481413E+02  0.61216897976E+02  0.10570000000E+00 0.  1.
         13    1    3    3    0    0 -0.35460747030E+02 -0.19998618417E+02  0.13985523361E+01  0.40735444513E+02  0.10570000000E+00 0. -1.
<mgrwt>
<rscale>  0 0.90412165E+02</rscale>
<asrwt>0</asrwt>
<pdfrwt beam="2">  1        2 0.42181776E-02 0.90412165E+02</pdfrwt>
<pdfrwt beam="1">  1       -2 0.11466798E-01 0.90412165E+02</pdfrwt>
<totfact> 0.88546771E+04</totfact>
</mgrwt>
</event>
<event>
 5   1  0.1343823E+00  0.9098285E+02  0.7818608E-02  0.1300489E+00
          2   -1    0    0  501    0  0.00000000000E+00  0.00000000000E+00  0.24520456253E+03  0.24520456255E+03  0.26000000000E-02 0. -1.
         -2   -1    0    0    0  501 -0.00000000000E+00 -0.00000000000E+00 -0.84397679574E+01  0.84397683579E+01  0.26000000000E-02 0.  1.
         23    2    1    2    0    0  0.00000000000E+00  0.00000000000E+00  0.23676479458E+03  0.25364433091E+03  0.90982848107E+02 0.  0.
        -13    1    3    3    0    0 -0.26453609423E+02  0.29509605423E+02  0.56116557709E+02  0.68699996255E+02  0.10570000000E+00 0.  1.
         13    1    3    3    0    0  0.26453609423E+02 -0.29509605423E+02  0.18064823687E+03  0.18494433465E+03  0.10570000000E+00 0. -1.
<mgrwt>
<rscale>  0 0.90982848E+02</rscale>
<asrwt>0</asrwt>
<pdfrwt beam="1">  1        2 0.37723777E-01 0.90982848E+02</pdfrwt>
<pdfrwt beam="2">  1       -2 0.12984259E-02 0.90982848E+02</pdfrwt>
<totfact> 0.16761629E+05</totfact>
</mgrwt>
</event>
<event>
 5   1  0.1343823E+00  0.9697656E+02  0.7818608E-02  0.1286785E+00
          2   -1    0    0  501    0  0.00000000000E+00  0.00000000000E+00  0.59313780394E+02  0.59313780451E+02  0.26000000000E-02 0. -1.
         -2   -1    0    0    0  501 -0.00000000000E+00 -0.00000000000E+00 -0.39638567884E+02  0.39638567969E+02  0.26000000000E-02 0.  1.
         23    2    1    2    0    0  0.00000000000E+00  0.00000000000E+00  0.19675212511E+02  0.98952348420E+02  0.96976560418E+02 0.  0.
        -13    1    3    3    0    0 -0.15455816476E+02  0.32104259134E+02 -0.23719144728E+02  0.42803910062E+02  0.10570000000E+00 0.  1.
         13    1    3    3    0    0  0.15455816476E+02 -0.32104259134E+02  0.43394357238E+02  0.56148438359E+02  0.10570000000E+00 0. -1.
<mgrwt>
<rscale>  0 0.96976560E+02</rscale>
<asrwt>0</asrwt>
<pdfrwt beam="1">  1        2 0.91251969E-02 0.96976560E+02</pdfrwt>
<pdfrwt beam="2">  1       -2 0.60982413E-02 0.96976560E+02</pdfrwt>
<totfact> 0.88750126E+04</totfact>
</mgrwt>
</event>
<event>
 5   1  0.1343823E+00  0.7994561E+02  0.7818608E-02  0.1329206E+00
         -2   -1    0    0    0  501 -0.00000000000E+00  0.00000000000E+00  0.10366378070E+02  0.10366378396E+02  0.26000000000E-02 0.  1.
          2   -1    0    0  501    0  0.00000000000E+00 -0.00000000000E+00 -0.15413531531E+03  0.15413531533E+03  0.26000000000E-02 0. -1.
         23    2    1    2    0    0  0.00000000000E+00  0.00000000000E+00 -0.14376893724E+03  0.16450169373E+03  0.79945606036E+02 0.  0.
        -13    1    3    3    0    0  0.16065730250E+02 -0.28840331057E+02 -0.11825932645E+03  0.12278090995E+03  0.10570000000E+00 0. -1.
         13    1    3    3    0    0 -0.16065730250E+02  0.28840331057E+02 -0.25509610797E+02  0.41720783783E+02  0.10570000000E+00 0.  1.
<mgrwt>
<rscale>  0 0.79945606E+02</rscale>
<asrwt>0</asrwt>
<pdfrwt beam="2">  1        2 0.23713124E-01 0.79945606E+02</pdfrwt>
<pdfrwt beam="1">  1       -2 0.15948275E-02 0.79945606E+02</pdfrwt>
<totfact> 0.20091846E+05</totfact>
</mgrwt>
</event>
<event>
 5   1  0.1343823E+00  0.9072626E+02  0.7818608E-02  0.1301102E+00
         -2   -1    0    0    0  501 -0.00000000000E+00  0.00000000000E+00  0.90357597504E+01  0.90357601244E+01  0.26000000000E-02 0.  1.
          2   -1    0    0  501    0  0.00000000000E+00 -0.00000000000E+00 -0.22774104796E+03  0.22774104798E+03  0.26000000000E-02 0. -1.
         23    2    1    2    0    0  0.00000000000E+00  0.00000000000E+00 -0.21870528821E+03  0.23677680810E+03  0.90726257296E+02 0.  0.
        -13    1    3    3    0    0  0.37667753407E+02  0.25260666525E+02 -0.10695880995E+03  0.11617727454E+03  0.10570000000E+00 0.  1.
         13    1    3    3    0    0 -0.37667753407E+02 -0.25260666525E+02 -0.11174647826E+03  0.12059953356E+03  0.10570000000E+00 0. -1.
<mgrwt>
<rscale>  0 0.90726257E+02</rscale>
<asrwt>0</asrwt>
<pdfrwt beam="2">  1        2 0.35037080E-01 0.90726257E+02</pdfrwt>
<pdfrwt beam="1">  1       -2 0.13901171E-02 0.90726257E+02</pdfrwt>
<totfact> 0.16435452E+05</totfact>
</mgrwt>
</event>
<event>
 5   1  0.1343823E+00  0.9220678E+02  0.7818608E-02  0.1297594E+00
         -2   -1    0    0    0  501 -0.00000000000E+00  0.00000000000E+00  0.27608771013E+02  0.27608771135E+02  0.26000000000E-02 0.  1.
          2   -1    0    0  501    0  0.00000000000E+00 -0.00000000000E+00 -0.76987223310E+02  0.76987223354E+02  0.26000000000E-02 0. -1.
         23    2    1    2    0    0  0.00000000000E+00  0.00000000000E+00 -0.49378452297E+02  0.10459599449E+03  0.92206781269E+02 0.  0.
        -13    1    3    3    0    0  0.42286810796E+02  0.73480612029E+01 -0.43783735369E+02  0.61312274677E+02  0.10570000000E+00 0. -1.
         13    1    3    3    0    0 -0.42286810796E+02 -0.73480612029E+01 -0.55947169277E+01  0.43283719812E+02  0.10570000000E+00 0.  1.
<mgrwt>
<rscale>  0 0.92206781E+02</rscale>
<asrwt>0</asrwt>
<pdfrwt beam="2">  1        2 0.11844188E-01 0.92206781E+02</pdfrwt>
<pdfrwt beam="1">  1       -2 0.42475033E-02 0.92206781E+02</pdfrwt>
<totfact> 0.11010309E+05</totfact>
</mgrwt>
</event>
<event>
 5   1  0.1343823E+00  0.9397048E+02  0.7818608E-02  0.1293512E+00
         -2   -1    0    0    0  501 -0.00000000000E+00  0.00000000000E+00  0.67378254517E+02  0.67378254567E+02  0.26000000000E-02 0. -1.
          2   -1    0    0  501    0  0.00000000000E+00 -0.00000000000E+00 -0.32764471115E+02  0.32764471218E+02  0.26000000000E-02 0.  1.
         23    2    1    2    0    0  0.00000000000E+00  0.00000000000E+00  0.34613783403E+02  0.10014272579E+03  0.93970482207E+02 0.  0.
        -13    1    3    3    0    0  0.16592316271E+02  0.31945288818E+02 -0.14872410391E+02  0.38948763783E+02  0.10570000000E+00 0.  1.
         13    1    3    3    0    0 -0.16592316271E+02 -0.31945288818E+02  0.49486193794E+02  0.61193962002E+02  0.10570000000E+00 0. -1.
<mgrwt>
<rscale>  0 0.93970482E+02</rscale>
<asrwt>0</asrwt>
<pdfrwt beam="2">  1        2 0.50406878E-02 0.93970482E+02</pdfrwt>
<pdfrwt beam="1">  1       -2 0.10365885E-01 0.93970482E+02</pdfrwt>
<totfact> 0.82823463E+04</totfact>
</mgrwt>
</event>
<event>
 5   1  0.1343823E+00  0.9115705E+02  0.7818608E-02  0.1300074E+00
          2   -1    0    0  501    0  0.00000000000E+00  0.00000000000E+00  0.13109102299E+02  0.13109102557E+02  0.26000000000E-02 0. -1.
         -2   -1    0    0    0  501 -0.00000000000E+00 -0.00000000000E+00 -0.15847018674E+03  0.15847018676E+03  0.26000000000E-02 0.  1.
         23    2    1    2    0    0  0.00000000000E+00  0.00000000000E+00 -0.14536108444E+03  0.17157928931E+03  0.91157049386E+02 0.  0.
        -13    1    3    3    0    0 -0.15136107083E+02  0.39992892813E+02 -0.10237326313E+03  0.11094516389E+03  0.10570000000E+00 0.  1.
         13    1    3    3    0    0  0.15136107083E+02 -0.39992892813E+02 -0.42987821304E+02  0.60634125426E+02  0.10570000000E+00 0. -1.
<mgrwt>
<rscale>  0 0.91157049E+02</rscale>
<asrwt>0</asrwt>
<pdfrwt beam="1">  1        2 0.20167851E-02 0.91157049E+02</pdfrwt>
<pdfrwt beam="2">  1       -2 0.24380027E-01 0.91157049E+02</pdfrwt>
<totfact> 0.68489914E+04</totfact>
</mgrwt>
</event>
<event>
 5   1  0.1343823E+00  0.9107099E+02  0.7818608E-02  0.1300279E+00
          2   -1    0    0  501    0  0.00000000000E+00  0.00000000000E+00  0.12629808593E+03  0.12629808596E+03  0.26000000000E-02 0. -1.
         -2   -1    0    0    0  501 -0.00000000000E+00 -0.00000000000E+00 -0.16417359571E+02  0.16417359777E+02  0.26000000000E-02 0.  1.
         23    2    1    2    0    0  0.00000000000E+00  0.00000000000E+00  0.10988072636E+03  0.14271544574E+03  0.91070985644E+02 0.  0.
        -13    1    3    3    0    0 -0.22612163626E+02  0.53313479219E+01  0.11631180819E+03  0.11860936351E+03  0.10570000000E+00 0. -1.
         13    1    3    3    0    0  0.22612163626E+02 -0.53313479219E+01 -0.64310818289E+01  0.24106082230E+02  0.10570000000E+00 0.  1.
<mgrwt>
<rscale>  0 0.91070986E+02</rscale>
<asrwt>0</asrwt>
<pdfrwt beam="1">  1        2 0.19430474E-01 0.91070986E+02</pdfrwt>
<pdfrwt beam="2">  1       -2 0.25257478E-02 0.91070986E+02</pdfrwt>
<totfact> 0.13244766E+05</totfact>
</mgrwt>
</event>
<event>
 5   1  0.1343823E+00  0.8836050E+02  0.7818608E-02  0.1306871E+00
          2   -1    0    0  501    0  0.00000000000E+00  0.00000000000E+00  0.30812269505E+02  0.30812269615E+02  0.26000000000E-02 0.  1.
         -2   -1    0    0    0  501 -0.00000000000E+00 -0.00000000000E+00 -0.63347959635E+02  0.63347959689E+02  0.26000000000E-02 0. -1.
         23    2    1    2    0    0  0.00000000000E+00  0.00000000000E+00 -0.32535690130E+02  0.94160229304E+02  0.88360498246E+02 0.  0.
        -13    1    3    3    0    0  0.36282234040E+02 -0.97501940357E+01  0.85048713578E+01  0.38520264796E+02  0.10570000000E+00 0.  1.
         13    1    3    3    0    0 -0.36282234040E+02  0.97501940357E+01 -0.41040561488E+02  0.55639964507E+02  0.10570000000E+00 0. -1.
<mgrwt>
<rscale>  0 0.88360498E+02</rscale>
<asrwt>0</asrwt>
<pdfrwt beam="1">  1        2 0.47403492E-02 0.88360498E+02</pdfrwt>
<pdfrwt beam="2">  1       -2 0.97458400E-02 0.88360498E+02</pdfrwt>
<totfact> 0.97728617E+04</totfact>
</mgrwt>
</event>
<event>
 5   1  0.1343823E+00  0.9126997E+02  0.7818608E-02  0.1299805E+00
          2   -1    0    0  501    0  0.00000000000E+00  0.00000000000E+00  0.39769362630E+03  0.39769362631E+03  0.26000000000E-02 0. -1.
         -2   -1    0    0    0  501 -0.00000000000E+00 -0.00000000000E+00 -0.52365726868E+01  0.52365733323E+01  0.26000000000E-02 0.  1.
         23    2    1    2    0    0  0.00000000000E+00  0.00000000000E+00  0.39245705361E+03  0.40293019964E+03  0.91269966866E+02 0.  0.
        -13    1    3    3    0    0 -0.49848494241E+01  0.44701533790E+02  0.23027181635E+03  0.23462352061E+03  0.10570000000E+00 0. -1.
         13    1    3    3    0    0  0.49848494241E+01 -0.44701533790E+02  0.16218523726E+03  0.16830667903E+03  0.10570000000E+00 0.  1.
<mgrwt>
<rscale>  0 0.91269967E+02</rscale>
<asrwt>0</asrwt>
<pdfrwt beam="1">  1        2 0.61183649E-01 0.91269967E+02</pdfrwt>
<pdfrwt beam="2">  1       -2 0.80562643E-03 0.91269967E+02</pdfrwt>
<totfact> 0.19867280E+05</totfact>
</mgrwt>
</event>
<event>
 5   1  0.1343823E+00  0.9167139E+02  0.7818608E-02  0.1298854E+00
          2   -1    0    0  501    0  0.00000000000E+00  0.00000000000E+00  0.53781297082E+01  0.53781303367E+01  0.26000000000E-02 0. -1.
         -2   -1    0    0    0  501 -0.00000000000E+00 -0.00000000000E+00 -0.39063967000E+03  0.39063967001E+03  0.26000000000E-02 0.  1.
         23    2    1    2    0    0  0.00000000000E+00  0.00000000000E+00 -0.38526154030E+03  0.39601780035E+03  0.91671390098E+02 0.  0.
        -13    1    3    3    0    0 -0.43781999345E+02  0.11955164481E+02 -0.22032928249E+03  0.22495509179E+03  0.10570000000E+00 0.  1.
         13    1    3    3    0    0  0.43781999345E+02 -0.11955164481E+02 -0.16493225780E+03  0.17106270856E+03  0.10570000000E+00 0. -1.
<mgrwt>
<rscale>  0 0.91671390E+02</rscale>
<asrwt>0</asrwt>
<pdfrwt beam="1">  1        2 0.82740492E-03 0.91671390E+02</pdfrwt>
<pdfrwt beam="2">  1       -2 0.60098389E-01 0.91671390E+02</pdfrwt>
<totfact> 0.42773901E+04</totfact>
</mgrwt>
</event>
<event>
 5   1  0.1343823E+00  0.9524182E+02  0.7818608E-02  0.1290632E+00
         -2   -1    0    0    0  501 -0.00000000000E+00  0.00000000000E+00  0.99717352577E+02  0.99717352611E+02  0.26000000000E-02 0.  1.
          2   -1    0    0  501    0  0.00000000000E+00 -0.00000000000E+00 -0.22741791290E+02  0.22741791438E+02  0.26000000000E-02 0. -1.
         23    2    1    2    0    0  0.00000000000E+00  0.00000000000E+00  0.76975561287E+02  0.12245914405E+03  0.95241823407E+02 0.  0.
        -13    1    3    3    0    0 -0.34082504682E+02  0.30199539097E+02  0.20573955264E+02  0.49969271505E+02  0.10570000000E+00 0. -1.
         13    1    3    3    0    0  0.34082504682E+02 -0.30199539097E+02  0.56401606024E+02  0.72489872545E+02  0.10570000000E+00 0.  1.
<mgrwt>
<rscale>  0 0.95241823E+02</rscale>
<asrwt>0</asrwt>
<pdfrwt beam="2">  1        2 0.34987371E-02 0.95241823E+02</pdfrwt>
<pdfrwt beam="1">  1       -2 0.15341131E-01 0.95241823E+02</pdfrwt>
<totfact> 0.71656621E+04</totfact>
</mgrwt>
</event>
<event>
 5   1  0.1343823E+00  0.7459011E+02  0.7818608E-02  0.1345145E+00
         -2   -1    0    0    0  501 -0.00000000000E+00  0.00000000000E+00  0.18127219268E+02  0.18127219455E+02  0.26000000000E-02 0.  1.
          2   -1    0    0  501    0  0.00000000000E+00 -0.00000000000E+00 -0.76731077535E+02  0.76731077579E+02  0.26000000000E-02 0. -1.
         23    2    1    2    0    0  0.00000000000E+00  0.00000000000E+00 -0.58603858266E+02  0.94858297033E+02  0.74590108677E+02 0.  0.
        -13    1    3    3    0    0 -0.11439850594E+02 -0.32113464554E+02 -0.48536787205E+02  0.59312525422E+02  0.10570000000E+00 0. -1.
         13    1    3    3    0    0  0.11439850594E+02  0.32113464554E+02 -0.10067071061E+02  0.35545771612E+02  0.10570000000E+00 0.  1.
<mgrwt>
<rscale>  0 0.74590109E+02</rscale>
<asrwt>0</asrwt>
<pdfrwt beam="2">  1        2 0.11804781E-01 0.74590109E+02</pdfrwt>
<pdfrwt beam="1">  1       -2 0.27888030E-02 0.74590109E+02</pdfrwt>
<totfact> 0.19675821E+05</totfact>
</mgrwt>
</event>
<event>
 5   1  0.1343823E+00  0.8495488E+02  0.7818608E-02  0.1315551E+00
         -2   -1    0    0    0  501 -0.00000000000E+00  0.00000000000E+00  0.16801761184E+03  0.16801761186E+03  0.26000000000E-02 0.  1.
          2   -1    0    0  501    0  0.00000000000E+00 -0.00000000000E+00 -0.10738951970E+02  0.10738952285E+02  0.26000000000E-02 0. -1.
         23    2    1    2    0    0  0.00000000000E+00  0.00000000000E+00  0.15727865987E+03  0.17875656415E+03  0.84954884348E+02 0.  0.
        -13    1    3    3    0    0 -0.14463330619E+02 -0.39128819853E+02  0.61797117995E+02  0.74559690455E+02  0.10570000000E+00 0. -1.
         13    1    3    3    0    0  0.14463330619E+02  0.39128819853E+02  0.95481541876E+02  0.10419687369E+03  0.10570000000E+00 0.  1.
<mgrwt>
<rscale>  0 0.84954884E+02</rscale>
<asrwt>0</asrwt>
<pdfrwt beam="2">  1        2 0.16521465E-02 0.84954884E+02</pdfrwt>
<pdfrwt beam="1">  1       -2 0.25848863E-01 0.84954884E+02</pdfrwt>
<totfact> 0.80086906E+04</totfact>
</mgrwt>
</event>
<event>
 5   1  0.1343823E+00  0.9358971E+02  0.7818608E-02  0.1294384E+00
         -2   -1    0    0    0  501 -0.00000000000E+00  0.00000000000E+00  0.10222499456E+03  0.10222499460E+03  0.26000000000E-02 0. -1.
          2   -1    0    0  501    0  0.00000000000E+00 -0.00000000000E+00 -0.21420968951E+02  0.21420969108E+02  0.26000000000E-02 0.  1.
         23    2    1    2    0    0  0.00000000000E+00  0.00000000000E+00  0.80804025612E+02  0.12364596370E+03  0.93589709825E+02 0.  0.
        -13    1    3    3    0    0  0.18668802175E+02  0.16973269657E+02 -0.11664191405E+02  0.27797132786E+02  0.10570000000E+00 0.  1.
         13    1    3    3    0    0 -0.18668802175E+02 -0.16973269657E+02  0.92468217017E+02  0.95848830918E+02  0.10570000000E+00 0. -1.
<mgrwt>
<rscale>  0 0.93589710E+02</rscale>
<asrwt>0</asrwt>
<pdfrwt beam="2">  1        2 0.32955338E-02 0.93589710E+02</pdfrwt>
<pdfrwt beam="1">  1       -2 0.15726922E-01 0.93589710E+02</pdfrwt>
<totfact> 0.74283911E+04</totfact>
</mgrwt>
</event>
<event>
 5   1  0.1343823E+00  0.9120327E+02  0.7818608E-02  0.1299964E+00
         -2   -1    0    0    0  501 -0.00000000000E+00  0.00000000000E+00  0.76865639605E+01  0.76865644002E+01  0.26000000000E-02 0.  1.
          2   -1    0    0  501    0  0.00000000000E+00 -0.00000000000E+00 -0.27053820283E+03  0.27053820284E+03  0.26000000000E-02 0. -1.
         23    2    1    2    0    0  0.00000000000E+00  0.00000000000E+00 -0.26285163887E+03  0.27822476724E+03  0.91203273247E+02 0.  0.
        -13    1    3    3    0    0  0.36603752461E+02 -0.25096721902E+02 -0.99457337011E+02  0.10891029888E+03  0.10570000000E+00 0.  1.
         13    1    3    3    0    0 -0.36603752461E+02  0.25096721902E+02 -0.16339430186E+03  0.16931446836E+03  0.10570000000E+00 0. -1.
<mgrwt>
<rscale>  0 0.91203273E+02</rscale>
<asrwt>0</asrwt>
<pdfrwt beam="2">  1        2 0.41621255E-01 0.91203273E+02</pdfrwt>
<pdfrwt beam="1">  1       -2 0.11825485E-02 0.91203273E+02</pdfrwt>
<totfact> 0.17273092E+05</totfact>
</mgrwt>
</event>
<event>
 5   1  0.1343823E+00  0.9586668E+02  0.7818608E-02  0.1289236E+00
         -2   -1    0    0    0  501 -0.00000000000E+00  0.00000000000E+00  0.80961976887E+01  0.80961981062E+01  0.26000000000E-02 0.  1.
          2   -1    0    0  501    0  0.00000000000E+00 -0.00000000000E+00 -0.28378817659E+03  0.28378817660E+03  0.26000000000E-02 0. -1.
         23    2    1    2    0    0  0.00000000000E+00  0.00000000000E+00 -0.27569197890E+03  0.29188437471E+03  0.95866683306E+02 0.  0.
        -13    1    3    3    0    0  0.16503901207E+02 -0.42188913253E+02 -0.90158816277E+02  0.10090047810E+03  0.10570000000E+00 0.  1.
         13    1    3    3    0    0 -0.16503901207E+02  0.42188913253E+02 -0.18553316262E+03  0.19098389660E+03  0.10570000000E+00 0. -1.
<mgrwt>
<rscale>  0 0.95866683E+02</rscale>
<asrwt>0</asrwt>
<pdfrwt beam="2">  1        2 0.43659712E-01 0.95866683E+02</pdfrwt>
<pdfrwt beam="1">  1       -2 0.12455691E-02 0.95866683E+02</pdfrwt>
<totfact> 0.15384248E+05</totfact>
</mgrwt>
</event>
<event>
 5   1  0.1343823E+00  0.9339440E+02  0.7818608E-02  0.1294834E+00
          2   -1    0    0  501    0  0.00000000000E+00  0.00000000000E+00  0.11082513641E+03  0.11082513644E+03  0.26000000000E-02 0. -1.
         -2   -1    0    0    0  501 -0.00000000000E+00 -0.00000000000E+00 -0.19676299920E+02  0.19676300091E+02  0.26000000000E-02 0.  1.
         23    2    1    2    0    0  0.00000000000E+00  0.00000000000E+00  0.91148836492E+02  0.13050143653E+03  0.93394403170E+02 0.  0.
        -13    1    3    3    0    0  0.14924419720E+02  0.12744485914E+02  0.10478263407E+03  0.10660474567E+03  0.10570000000E+00 0. -1.
         13    1    3    3    0    0 -0.14924419720E+02 -0.12744485914E+02 -0.13633797577E+02  0.23896690860E+02  0.10570000000E+00 0.  1.
<mgrwt>
<rscale>  0 0.93394403E+02</rscale>
<asrwt>0</asrwt>
<pdfrwt beam="1">  1        2 0.17050021E-01 0.93394403E+02</pdfrwt>
<pdfrwt beam="2">  1       -2 0.30271231E-02 0.93394403E+02</pdfrwt>
<totfact> 0.11853821E+05</totfact>
</mgrwt>
</event>
<event>
 5   1  0.1343823E+00  0.9140629E+02  0.7818608E-02  0.1299481E+00
          2   -1    0    0  501    0  0.00000000000E+00  0.00000000000E+00  0.19312109866E+03  0.19312109868E+03  0.26000000000E-02 0. -1.
         -2   -1    0    0    0  501 -0.00000000000E+00 -0.00000000000E+00 -0.10815893750E+02  0.10815894063E+02  0.26000000000E-02 0.  1.
         23    2    1    2    0    0  0.00000000000E+00  0.00000000000E+00  0.18230520491E+03  0.20393699274E+03  0.91406286824E+02 0.  0.
        -13    1    3    3    0    0  0.32257414789E+02 -0.35268648397E+01  0.19347537444E+02  0.37779861859E+02  0.10570000000E+00 0.  1.
         13    1    3    3    0    0 -0.32257414789E+02  0.35268648397E+01  0.16295766747E+03  0.16615713088E+03  0.10570000000E+00 0. -1.
<mgrwt>
<rscale>  0 0.91406287E+02</rscale>
<asrwt>0</asrwt>
<pdfrwt beam="1">  1        2 0.29710938E-01 0.91406287E+02</pdfrwt>
<pdfrwt beam="2">  1       -2 0.16639837E-02 0.91406287E+02</pdfrwt>
<totfact> 0.15170759E+05</totfact>
</mgrwt>
</event>
<event>
 5   1  0.1343823E+00  0.9068073E+02  0.7818608E-02  0.1301212E+00
          2   -1    0    0  501    0  0.00000000000E+00  0.00000000000E+00  0.45351959958E+03  0.45351959959E+03  0.26000000000E-02 0. -1.
         -2   -1    0    0    0  501 -0.00000000000E+00 -0.00000000000E+00 -0.45328771458E+01  0.45328778915E+01  0.26000000000E-02 0.  1.
         23    2    1    2    0    0  0.00000000000E+00  0.00000000000E+00  0.44898672244E+03  0.45805247748E+03  0.90680732256E+02 0.  0.
        -13    1    3    3    0    0 -0.26281179399E+02 -0.36419361318E+02  0.19308303320E+03  0.19823758259E+03  0.10570000000E+00 0.  1.
         13    1    3    3    0    0  0.26281179399E+02  0.36419361318E+02  0.25590368924E+03  0.25981489489E+03  0.10570000000E+00 0. -1.
<mgrwt>
<rscale>  0 0.90680732E+02</rscale>
<asrwt>0</asrwt>
<pdfrwt beam="1">  1        2 0.69772249E-01 0.90680732E+02</pdfrwt>
<pdfrwt beam="2">  1       -2 0.69736574E-03 0.90680732E+02</pdfrwt>
<totfact> 0.21163191E+05</totfact>
</mgrwt>
</event>
<event>
 5   1  0.1343823E+00  0.9307398E+02  0.7818608E-02  0.1295574E+00
          2   -1    0    0  501    0  0.00000000000E+00  0.00000000000E+00  0.42037008217E+03  0.42037008217E+03  0.26000000000E-02 0. -1.
         -2   -1    0    0    0  501 -0.00000000000E+00 -0.00000000000E+00 -0.51518682804E+01  0.51518689365E+01  0.26000000000E-02 0.  1.
         23    2    1    2    0    0  0.00000000000E+00  0.00000000000E+00  0.41521821389E+03  0.42552195111E+03  0.93073979901E+02 0.  0.
        -13    1    3    3    0    0 -0.44689712481E+02  0.59779089441E+01  0.26028973722E+03  0.26416597864E+03  0.10570000000E+00 0.  1.
         13    1    3    3    0    0  0.44689712481E+02 -0.59779089441E+01  0.15492847666E+03  0.16135597247E+03  0.10570000000E+00 0. -1.
<mgrwt>
<rscale>  0 0.93073980E+02</rscale>
<asrwt>0</asrwt>
<pdfrwt beam="1">  1        2 0.64672298E-01 0.93073980E+02</pdfrwt>
<pdfrwt beam="2">  1       -2 0.79259544E-03 0.93073980E+02</pdfrwt>
<totfact> 0.19235508E+05</totfact>
</mgrwt>
</event>
<event>
 5   1  0.1343823E+00  0.7171002E+02  0.7818608E-02  0.1354373E+00
          2   -1    0    0  501    0  0.00000000000E+00  0.00000000000E+00  0.13059905166E+02  0.13059905425E+02  0.26000000000E-02 0. -1.
         -2   -1    0    0    0  501 -0.00000000000E+00 -0.00000000000E+00 -0.98437284235E+02  0.98437284270E+02  0.26000000000E-02 0.  1.
         23    2    1    2    0    0  0.00000000000E+00  0.00000000000E+00 -0.85377379070E+02  0.11149718969E+03  0.71710016406E+02 0.  0.
        -13    1    3    3    0    0 -0.86755335111E+01  0.30956228432E+02 -0.18005604934E+02  0.36847875678E+02  0.10570000000E+00 0. -1.
         13    1    3    3    0    0  0.86755335111E+01 -0.30956228432E+02 -0.67371774135E+02  0.74649314016E+02  0.10570000000E+00 0.  1.
<mgrwt>
<rscale>  0 0.71710016E+02</rscale>
<asrwt>0</asrwt>
<pdfrwt beam="1">  1        2 0.20092163E-02 0.71710016E+02</pdfrwt>
<pdfrwt beam="2">  1       -2 0.15144197E-01 0.71710016E+02</pdfrwt>
<totfact> 0.14569563E+05</totfact>
</mgrwt>
</event>
<event>
 5   1  0.1343823E+00  0.9278382E+02  0.7818608E-02  0.1296247E+00
         -2   -1    0    0    0  501 -0.00000000000E+00  0.00000000000E+00  0.51368103138E+01  0.51368109717E+01  0.26000000000E-02 0.  1.
          2   -1    0    0  501    0  0.00000000000E+00 -0.00000000000E+00 -0.41897770152E+03  0.41897770152E+03  0.26000000000E-02 0. -1.
         23    2    1    2    0    0  0.00000000000E+00  0.00000000000E+00 -0.41384089120E+03  0.42411451250E+03  0.92783815822E+02 0.  0.
        -13    1    3    3    0    0 -0.26337195835E+02  0.38190022315E+02 -0.20814917083E+03  0.21325621721E+03  0.10570000000E+00 0. -1.
         13    1    3    3    0    0  0.26337195835E+02 -0.38190022315E+02 -0.20569172037E+03  0.21085829529E+03  0.10570000000E+00 0.  1.
<mgrwt>
<rscale>  0 0.92783816E+02</rscale>
<asrwt>0</asrwt>
<pdfrwt beam="2">  1        2 0.64458081E-01 0.92783816E+02</pdfrwt>
<pdfrwt beam="1">  1       -2 0.79027889E-03 0.92783816E+02</pdfrwt>
<totfact> 0.19373212E+05</totfact>
</mgrwt>
</event>
<event>
 5   1  0.1343823E+00  0.9594278E+02  0.7818608E-02  0.1289067E+00
         -2   -1    0    0    0  501 -0.00000000000E+00  0.00000000000E+00  0.28107943061E+02  0.28107943181E+02  0.26000000000E-02 0.  1.
          2   -1    0    0  501    0  0.00000000000E+00 -0.00000000000E+00 -0.81872018929E+02  0.81872018970E+02  0.26000000000E-02 0. -1.
         23    2    1    2    0    0  0.00000000000E+00  0.00000000000E+00 -0.53764075868E+02  0.10997996215E+03  0.95942775762E+02 0.  0.
        -13    1    3    3    0    0  0.32622431099E+02  0.15998797966E+02 -0.62786523026E+02  0.72542009852E+02  0.10570000000E+00 0. -1.
         13    1    3    3    0    0 -0.32622431099E+02 -0.15998797966E+02  0.90224471579E+01  0.37437952300E+02  0.10570000000E+00 0.  1.
<mgrwt>
<rscale>  0 0.95942776E+02</rscale>
<asrwt>0</asrwt>
<pdfrwt beam="2">  1        2 0.12595695E-01 0.95942776E+02</pdfrwt>
<pdfrwt beam="1">  1       -2 0.43242990E-02 0.95942776E+02</pdfrwt>
<totfact> 0.10029927E+05</totfact>
</mgrwt>
</event>
<event>
 5   1  0.1343823E+00  0.9270294E+02  0.7818608E-02  0.1296435E+00
          2   -1    0    0  501    0  0.00000000000E+00  0.00000000000E+00  0.77638787645E+01  0.77638791998E+01  0.26000000000E-02 0. -1.
         -2   -1    0    0    0  501 -0.00000000000E+00 -0.00000000000E+00 -0.27672489769E+03  0.27672489770E+03  0.26000000000E-02 0.  1.
         23    2    1    2    0    0  0.00000000000E+00  0.00000000000E+00 -0.26896101892E+03  0.28448877690E+03  0.92702936748E+02 0.  0.
        -13    1    3    3    0    0  0.34540715382E+02 -0.16234845851E+02 -0.21519788120E+03  0.21855610375E+03  0.10570000000E+00 0.  1.
         13    1    3    3    0    0 -0.34540715382E+02  0.16234845851E+02 -0.53763137721E+02  0.65932673152E+02  0.10570000000E+00 0. -1.
<mgrwt>
<rscale>  0 0.92702937E+02</rscale>
<asrwt>0</asrwt>
<pdfrwt beam="1">  1        2 0.11944431E-02 0.92702937E+02</pdfrwt>
<pdfrwt beam="2">  1       -2 0.42573054E-01 0.92702937E+02</pdfrwt>
<totfact> 0.51078018E+04</totfact>
</mgrwt>
</event>
<event>
 5   1  0.1343823E+00  0.9039925E+02  0.7818608E-02  0.1301888E+00
         -2   -1    0    0    0  501 -0.00000000000E+00  0.00000000000E+00  0.22622786538E+02  0.22622786687E+02  0.26000000000E-02 0.  1.
          2   -1    0    0  501    0  0.00000000000E+00 -0.00000000000E+00 -0.90307451307E+02  0.90307451344E+02  0.26000000000E-02 0. -1.
         23    2    1    2    0    0  0.00000000000E+00  0.00000000000E+00 -0.67684664769E+02  0.11293023803E+03  0.90399252303E+02 0.  0.
        -13    1    3    3    0    0  0.21855551088E+02 -0.27879885510E+02  0.12263994011E+01  0.35446697412E+02  0.10570000000E+00 0.  1.
         13    1    3    3    0    0 -0.21855551088E+02  0.27879885510E+02 -0.68911064170E+02  0.77483540620E+02  0.10570000000E+00 0. -1.
<mgrwt>
<rscale>  0 0.90399252E+02</rscale>
<asrwt>0</asrwt>
<pdfrwt beam="2">  1        2 0.13893454E-01 0.90399252E+02</pdfrwt>
<pdfrwt beam="1">  1       -2 0.34804288E-02 0.90399252E+02</pdfrwt>
<totfact> 0.12182542E+05</totfact>
</mgrwt>
</event>
<event>
 5   1  0.1343823E+00  0.8665780E+02  0.7818608E-02  0.1311153E+00
         -2   -1    0    0    0  501 -0.00000000000E+00  0.00000000000E+00  0.15635164817E+03  0.15635164819E+03  0.26000000000E-02 0.  1.
          2   -1    0    0  501    0  0.00000000000E+00 -0.00000000000E+00 -0.12007507187E+02  0.12007507468E+02  0.26000000000E-02 0. -1.
         23    2    1    2    0    0  0.00000000000E+00  0.00000000000E+00  0.14434414098E+03  0.16835915566E+03  0.86657799753E+02 0.  0.
        -13    1    3    3    0    0 -0.14799102863E+02 -0.24274688094E+02  0.13569638173E+03  0.13864268143E+03  0.10570000000E+00 0.  1.
         13    1    3    3    0    0  0.14799102863E+02  0.24274688094E+02  0.86477592460E+01  0.29716474220E+02  0.10570000000E+00 0. -1.
<mgrwt>
<rscale>  0 0.86657800E+02</rscale>
<asrwt>0</asrwt>
<pdfrwt beam="2">  1        2 0.18473089E-02 0.86657800E+02</pdfrwt>
<pdfrwt beam="1">  1       -2 0.24054099E-01 0.86657800E+02</pdfrwt>
<totfact> 0.78247727E+04</totfact>
</mgrwt>
</event>
<event>
 5   1  0.1343823E+00  0.9046144E+02  0.7818608E-02  0.1301738E+00
         -2   -1    0    0    0  501 -0.00000000000E+00  0.00000000000E+00  0.43906812987E+02  0.43906813064E+02  0.26000000000E-02 0.  1.
          2   -1    0    0  501    0  0.00000000000E+00 -0.00000000000E+00 -0.46594550733E+02  0.46594550806E+02  0.26000000000E-02 0. -1.
         23    2    1    2    0    0  0.00000000000E+00  0.00000000000E+00 -0.26877377464E+01  0.90501363870E+02  0.90461444428E+02 0.  0.
        -13    1    3    3    0    0  0.23695963504E+02 -0.21018135614E+02  0.30958865923E+02  0.44291345236E+02  0.10570000000E+00 0.  1.
         13    1    3    3    0    0 -0.23695963504E+02  0.21018135614E+02 -0.33646603670E+02  0.46210018633E+02  0.10570000000E+00 0. -1.
<mgrwt>
<rscale>  0 0.90461444E+02</rscale>
<asrwt>0</asrwt>
<pdfrwt beam="2">  1        2 0.71683924E-02 0.90461444E+02</pdfrwt>
<pdfrwt beam="1">  1       -2 0.67548943E-02 0.90461444E+02</pdfrwt>
<totfact> 0.10149795E+05</totfact>
</mgrwt>
</event>
<event>
 5   1  0.1343823E+00  0.9189203E+02  0.7818608E-02  0.1298333E+00
         -2   -1    0    0    0  501 -0.00000000000E+00  0.00000000000E+00  0.16389273207E+02  0.16389273413E+02  0.26000000000E-02 0.  1.
          2   -1    0    0  501    0  0.00000000000E+00 -0.00000000000E+00 -0.12880598497E+03  0.12880598500E+03  0.26000000000E-02 0. -1.
         23    2    1    2    0    0  0.00000000000E+00  0.00000000000E+00 -0.11241671177E+03  0.14519525841E+03  0.91892034371E+02 0.  0.
        -13    1    3    3    0    0 -0.65284277019E+01 -0.32447907495E+02 -0.10656104987E+03  0.11158295385E+03  0.10570000000E+00 0.  1.
         13    1    3    3    0    0  0.65284277019E+01  0.32447907495E+02 -0.58556618990E+01  0.33612304560E+02  0.10570000000E+00 0. -1.
<mgrwt>
<rscale>  0 0.91892034E+02</rscale>
<asrwt>0</asrwt>
<pdfrwt beam="2">  1        2 0.19816305E-01 0.91892034E+02</pdfrwt>
<pdfrwt beam="1">  1       -2 0.25214268E-02 0.91892034E+02</pdfrwt>
<totfact> 0.13007262E+05</totfact>
</mgrwt>
</event>
<event>
 5   1  0.1343823E+00  0.9177231E+02  0.7818608E-02  0.1298616E+00
         -2   -1    0    0    0  501 -0.00000000000E+00  0.00000000000E+00  0.11179426178E+03  0.11179426181E+03  0.26000000000E-02 0. -1.
          2   -1    0    0  501    0  0.00000000000E+00 -0.00000000000E+00 -0.18834052422E+02  0.18834052602E+02  0.26000000000E-02 0.  1.
         23    2    1    2    0    0  0.00000000000E+00  0.00000000000E+00  0.92960209358E+02  0.13062831441E+03  0.91772305203E+02 0.  0.
        -13    1    3    3    0    0  0.10883959159E+02  0.39207937524E+02  0.76668343105E+02  0.86797286472E+02  0.10570000000E+00 0. -1.
         13    1    3    3    0    0 -0.10883959159E+02 -0.39207937524E+02  0.16291866252E+02  0.43831027940E+02  0.10570000000E+00 0.  1.
<mgrwt>
<rscale>  0 0.91772305E+02</rscale>
<asrwt>0</asrwt>
<pdfrwt beam="2">  1        2 0.28975465E-02 0.91772305E+02</pdfrwt>
<pdfrwt beam="1">  1       -2 0.17199117E-01 0.91772305E+02</pdfrwt>
<totfact> 0.75887771E+04</totfact>
</mgrwt>
</event>
<event>
 5   1  0.1343823E+00  0.9215726E+02  0.7818608E-02  0.1297710E+00
          2   -1    0    0  501    0  0.00000000000E+00  0.00000000000E+00  0.58849498312E+02  0.58849498369E+02  0.26000000000E-02 0. -1.
         -2   -1    0    0    0  501 -0.00000000000E+00 -0.00000000000E+00 -0.36079152244E+02  0.36079152337E+02  0.26000000000E-02 0.  1.
         23    2    1    2    0    0  0.00000000000E+00  0.00000000000E+00  0.22770346068E+02  0.94928650707E+02  0.92157257256E+02 0.  0.
        -13    1    3    3    0    0 -0.41387930956E+02  0.20038847774E+02  0.83446974158E+01  0.46735012532E+02  0.10570000000E+00 0.  1.
         13    1    3    3    0    0  0.41387930956E+02 -0.20038847774E+02  0.14425648653E+02  0.48193638174E+02  0.10570000000E+00 0. -1.
<mgrwt>
<rscale>  0 0.92157257E+02</rscale>
<asrwt>0</asrwt>
<pdfrwt beam="1">  1        2 0.90537690E-02 0.92157257E+02</pdfrwt>
<pdfrwt beam="2">  1       -2 0.55506388E-02 0.92157257E+02</pdfrwt>
<totfact> 0.10237550E+05</totfact>
</mgrwt>
</event>
<event>
 5   1  0.1343823E+00  0.9037743E+02  0.7818608E-02  0.1301940E+00
          2   -1    0    0  501    0  0.00000000000E+00  0.00000000000E+00  0.20624899448E+02  0.20624899612E+02  0.26000000000E-02 0. -1.
         -2   -1    0    0    0  501 -0.00000000000E+00 -0.00000000000E+00 -0.99007500691E+02  0.99007500725E+02  0.26000000000E-02 0.  1.
         23    2    1    2    0    0  0.00000000000E+00  0.00000000000E+00 -0.78382601242E+02  0.11963240034E+03  0.90377425460E+02 0.  0.
        -13    1    3    3    0    0  0.93675623433E+01  0.28632842180E+02 -0.83774922832E+02  0.89027185419E+02  0.10570000000E+00 0.  1.
         13    1    3    3    0    0 -0.93675623433E+01 -0.28632842180E+02  0.53923215898E+01  0.30605214918E+02  0.10570000000E+00 0. -1.
<mgrwt>
<rscale>  0 0.90377425E+02</rscale>
<asrwt>0</asrwt>
<pdfrwt beam="1">  1        2 0.31730615E-02 0.90377425E+02</pdfrwt>
<pdfrwt beam="2">  1       -2 0.15231923E-01 0.90377425E+02</pdfrwt>
<totfact> 0.81815024E+04</totfact>
</mgrwt>
</event>
<event>
 5   1  0.1343823E+00  0.8292746E+02  0.7818608E-02  0.1320943E+00
          2   -1    0    0  501    0  0.00000000000E+00  0.00000000000E+00  0.92799518461E+01  0.92799522103E+01  0.26000000000E-02 0. -1.
         -2   -1    0    0    0  501 -0.00000000000E+00 -0.00000000000E+00 -0.18526399940E+03  0.18526399942E+03  0.26000000000E-02 0.  1.
         23    2    1    2    0    0  0.00000000000E+00  0.00000000000E+00 -0.17598404756E+03  0.19454395163E+03  0.82927463014E+02 0.  0.
        -13    1    3    3    0    0  0.26070661652E+02  0.21620417314E+02 -0.14410436243E+03  0.14803107879E+03  0.10570000000E+00 0.  1.
         13    1    3    3    0    0 -0.26070661652E+02 -0.21620417314E+02 -0.31879685131E+02  0.46512872845E+02  0.10570000000E+00 0. -1.
<mgrwt>
<rscale>  0 0.82927463E+02</rscale>
<asrwt>0</asrwt>
<pdfrwt beam="1">  1        2 0.14276851E-02 0.82927463E+02</pdfrwt>
<pdfrwt beam="2">  1       -2 0.28502151E-01 0.82927463E+02</pdfrwt>
<totfact> 0.81928057E+04</totfact>
</mgrwt>
</event>
<event>
 5   1  0.1343823E+00  0.9251646E+02  0.7818608E-02  0.1296870E+00
          2   -1    0    0  501    0  0.00000000000E+00  0.00000000000E+00  0.97862339528E+01  0.97862342982E+01  0.26000000000E-02 0. -1.
         -2   -1    0    0    0  501 -0.00000000000E+00 -0.00000000000E+00 -0.21865651697E+03  0.21865651699E+03  0.26000000000E-02 0.  1.
         23    2    1    2    0    0  0.00000000000E+00  0.00000000000E+00 -0.20887028302E+03  0.22844275128E+03  0.92516460624E+02 0.  0.
        -13    1    3    3    0    0 -0.33749663770E+02 -0.30979053508E+02 -0.12025952292E+03  0.12868995915E+03  0.10570000000E+00 0.  1.
         13    1    3    3    0    0  0.33749663770E+02  0.30979053508E+02 -0.88610760098E+02  0.99752792134E+02  0.10570000000E+00 0. -1.
<mgrwt>
<rscale>  0 0.92516461E+02</rscale>
<asrwt>0</asrwt>
<pdfrwt beam="1">  1        2 0.15055746E-02 0.92516461E+02</pdfrwt>
<pdfrwt beam="2">  1       -2 0.33639461E-01 0.92516461E+02</pdfrwt>
<totfact> 0.57695996E+04</totfact>
</mgrwt>
</event>
<event>
 5   1  0.1343823E+00  0.8966886E+02  0.7818608E-02  0.1303656E+00
         -2   -1    0    0    0  501 -0.00000000000E+00  0.00000000000E+00  0.16626086020E+03  0.16626086022E+03  0.26000000000E-02 0.  1.
          2   -1    0    0  501    0  0.00000000000E+00 -0.00000000000E+00 -0.12090194940E+02  0.12090195220E+02  0.26000000000E-02 0. -1.
         23    2    1    2    0    0  0.00000000000E+00  0.00000000000E+00  0.15417066526E+03  0.17835105544E+03  0.89668862766E+02 0.  0.
        -13    1    3    3    0    0  0.36246659407E+02 -0.25343752080E+02  0.62470744777E+02  0.76542349148E+02  0.10570000000E+00 0.  1.
         13    1    3    3    0    0 -0.36246659407E+02  0.25343752080E+02  0.91699920482E+02  0.10180870629E+03  0.10570000000E+00 0. -1.
<mgrwt>
<rscale>  0 0.89668863E+02</rscale>
<asrwt>0</asrwt>
<pdfrwt beam="2">  1        2 0.18600300E-02 0.89668863E+02</pdfrwt>
<pdfrwt beam="1">  1       -2 0.25578594E-01 0.89668863E+02</pdfrwt>
<totfact> 0.70117837E+04</totfact>
</mgrwt>
</event>
<event>
 5   1  0.1343823E+00  0.1018113E+03  0.7818608E-02  0.1276532E+00
          2   -1    0    0  501    0  0.00000000000E+00  0.00000000000E+00  0.23646201393E+03  0.23646201394E+03  0.26000000000E-02 0.  1.
         -2   -1    0    0    0  501 -0.00000000000E+00 -0.00000000000E+00 -0.10958995012E+02  0.10958995321E+02  0.26000000000E-02 0. -1.
         23    2    1    2    0    0  0.00000000000E+00  0.00000000000E+00  0.22550301891E+03  0.24742100926E+03  0.10181131707E+03 0.  0.
        -13    1    3    3    0    0 -0.38486333744E+02 -0.13914655262E+02  0.39178110153E+02  0.56654664448E+02  0.10570000000E+00 0. -1.
         13    1    3    3    0    0  0.38486333744E+02  0.13914655262E+02  0.18632490876E+03  0.19076634481E+03  0.10570000000E+00 0.  1.
<mgrwt>
<rscale>  0 0.10181132E+03</rscale>
<asrwt>0</asrwt>
<pdfrwt beam="1">  1        2 0.36378771E-01 0.10181132E+03</pdfrwt>
<pdfrwt beam="2">  1       -2 0.16859993E-02 0.10181132E+03</pdfrwt>
<totfact> 0.12208089E+05</totfact>
</mgrwt>
</event>
<event>
 5   1  0.1343823E+00  0.8454903E+02  0.7818608E-02  0.1316616E+00
         -2   -1    0    0    0  501 -0.00000000000E+00  0.00000000000E+00  0.42289114110E+02  0.42289114189E+02  0.26000000000E-02 0.  1.
          2   -1    0    0  501    0  0.00000000000E+00 -0.00000000000E+00 -0.42259916973E+02  0.42259917053E+02  0.26000000000E-02 0. -1.
         23    2    1    2    0    0  0.00000000000E+00  0.00000000000E+00  0.29197136953E-01  0.84549031242E+02  0.84549026201E+02 0.  0.
        -13    1    3    3    0    0  0.18255812090E+02  0.55960679110E+01  0.37731077777E+02  0.42287540172E+02  0.10570000000E+00 0.  1.
         13    1    3    3    0    0 -0.18255812090E+02 -0.55960679110E+01 -0.37701880640E+02  0.42261491070E+02  0.10570000000E+00 0. -1.
<mgrwt>
<rscale>  0 0.84549026E+02</rscale>
<asrwt>0</asrwt>
<pdfrwt beam="2">  1        2 0.65015257E-02 0.84549026E+02</pdfrwt>
<pdfrwt beam="1">  1       -2 0.65060176E-02 0.84549026E+02</pdfrwt>
<totfact> 0.12006753E+05</totfact>
</mgrwt>
</event>
<event>
 5   1  0.1343823E+00  0.8914120E+02  0.7818608E-02  0.1304945E+00
         -2   -1    0    0    0  501 -0.00000000000E+00  0.00000000000E+00  0.75270689765E+02  0.75270689810E+02  0.26000000000E-02 0.  1.
          2   -1    0    0  501    0  0.00000000000E+00 -0.00000000000E+00 -0.26391926678E+02  0.26391926806E+02  0.26000000000E-02 0. -1.
         23    2    1    2    0    0  0.00000000000E+00  0.00000000000E+00  0.48878763087E+02  0.10166261662E+03  0.89141203358E+02 0.  0.
        -13    1    3    3    0    0 -0.17929215973E+02  0.19938252718E+02  0.65042842592E+02  0.70353203565E+02  0.10570000000E+00 0.  1.
         13    1    3    3    0    0  0.17929215973E+02 -0.19938252718E+02 -0.16164079505E+02  0.31309413051E+02  0.10570000000E+00 0. -1.
<mgrwt>
<rscale>  0 0.89141203E+02</rscale>
<asrwt>0</asrwt>
<pdfrwt beam="2">  1        2 0.40602965E-02 0.89141203E+02</pdfrwt>
<pdfrwt beam="1">  1       -2 0.11580106E-01 0.89141203E+02</pdfrwt>
<totfact> 0.91424004E+04</totfact>
</mgrwt>
</event>
<event>
 5   1  0.1343823E+00  0.9565906E+02  0.7818608E-02  0.1289699E+00
         -2   -1    0    0    0  501 -0.00000000000E+00  0.00000000000E+00  0.14623957155E+03  0.14623957157E+03  0.26000000000E-02 0.  1.
          2   -1    0    0  501    0  0.00000000000E+00 -0.00000000000E+00 -0.15643263415E+02  0.15643263631E+02  0.26000000000E-02 0. -1.
         23    2    1    2    0    0  0.00000000000E+00  0.00000000000E+00  0.13059630813E+03  0.16188283520E+03  0.95659064572E+02 0.  0.
        -13    1    3    3    0    0 -0.43920445703E+02  0.11240575703E+02  0.91090828309E+02  0.10174923227E+03  0.10570000000E+00 0.  1.
         13    1    3    3    0    0  0.43920445703E+02 -0.11240575703E+02  0.39505479822E+02  0.60133602930E+02  0.10570000000E+00 0. -1.
<mgrwt>
<rscale>  0 0.95659065E+02</rscale>
<asrwt>0</asrwt>
<pdfrwt beam="2">  1        2 0.24066559E-02 0.95659065E+02</pdfrwt>
<pdfrwt beam="1">  1       -2 0.22498396E-01 0.95659065E+02</pdfrwt>
<totfact> 0.62434767E+04</totfact>
</mgrwt>
</event>
<event>
 5   1  0.1343823E+00  0.9361947E+02  0.7818608E-02  0.1294316E+00
          2   -1    0    0  501    0  0.00000000000E+00  0.00000000000E+00  0.10873618088E+02  0.10873618399E+02  0.26000000000E-02 0. -1.
         -2   -1    0    0    0  501 -0.00000000000E+00 -0.00000000000E+00 -0.20151079190E+03  0.20151079191E+03  0.26000000000E-02 0.  1.
         23    2    1    2    0    0  0.00000000000E+00  0.00000000000E+00 -0.19063717381E+03  0.21238441031E+03  0.93619472899E+02 0.  0.
        -13    1    3    3    0    0 -0.18436294520E+02 -0.27559124095E+02 -0.17027618338E+03  0.17347447096E+03  0.10570000000E+00 0.  1.
         13    1    3    3    0    0  0.18436294520E+02  0.27559124095E+02 -0.20360990427E+02  0.38909939349E+02  0.10570000000E+00 0. -1.
<mgrwt>
<rscale>  0 0.93619473E+02</rscale>
<asrwt>0</asrwt>
<pdfrwt beam="1">  1        2 0.16728645E-02 0.93619473E+02</pdfrwt>
<pdfrwt beam="2">  1       -2 0.31001658E-01 0.93619473E+02</pdfrwt>
<totfact> 0.58055524E+04</totfact>
</mgrwt>
</event>
<event>
 5   1  0.1343823E+00  0.9125781E+02  0.7818608E-02  0.1299834E+00
          2   -1    0    0  501    0  0.00000000000E+00  0.00000000000E+00  0.59728003084E+02  0.59728003141E+02  0.26000000000E-02 0. -1.
         -2   -1    0    0    0  501 -0.00000000000E+00 -0.00000000000E+00 -0.34857970586E+02  0.34857970682E+02  0.26000000000E-02 0.  1.
         23    2    1    2    0    0  0.00000000000E+00  0.00000000000E+00  0.24870032498E+02  0.94585973823E+02  0.91257810228E+02 0.  0.
        -13    1    3    3    0    0  0.19134592500E+02  0.40450166764E+02  0.21684439529E+02  0.49724990815E+02  0.10570000000E+00 0. -1.
         13    1    3    3    0    0 -0.19134592500E+02 -0.40450166764E+02  0.31855929698E+01  0.44860983008E+02  0.10570000000E+00 0.  1.
<mgrwt>
<rscale>  0 0.91257810E+02</rscale>
<asrwt>0</asrwt>
<pdfrwt beam="1">  1        2 0.91889235E-02 0.91257810E+02</pdfrwt>
<pdfrwt beam="2">  1       -2 0.53627648E-02 0.91257810E+02</pdfrwt>
<totfact> 0.10567487E+05</totfact>
</mgrwt>
</event>
<event>
 5   1  0.1343823E+00  0.8866397E+02  0.7818608E-02  0.1306120E+00
          2   -1    0    0  501    0  0.00000000000E+00  0.00000000000E+00  0.17795939727E+03  0.17795939729E+03  0.26000000000E-02 0. -1.
         -2   -1    0    0    0  501 -0.00000000000E+00 -0.00000000000E+00 -0.11043670953E+02  0.11043671259E+02  0.26000000000E-02 0.  1.
         23    2    1    2    0    0  0.00000000000E+00  0.00000000000E+00  0.16691572632E+03  0.18900306855E+03  0.88663973681E+02 0.  0.
        -13    1    3    3    0    0 -0.37592491493E+02  0.19251209903E+02  0.11217698836E+03  0.11986447510E+03  0.10570000000E+00 0. -1.
         13    1    3    3    0    0  0.37592491493E+02 -0.19251209903E+02  0.54738737957E+02  0.69138593455E+02  0.10570000000E+00 0.  1.
<mgrwt>
<rscale>  0 0.88663974E+02</rscale>
<asrwt>0</asrwt>
<pdfrwt beam="1">  1        2 0.27378370E-01 0.88663974E+02</pdfrwt>
<pdfrwt beam="2">  1       -2 0.16990263E-02 0.88663974E+02</pdfrwt>
<totfact> 0.15994580E+05</totfact>
</mgrwt>
</event>
<event>
 5   1  0.1343823E+00  0.8939936E+02  0.7818608E-02  0.1304313E+00
         -2   -1    0    0    0  501 -0.00000000000E+00  0.00000000000E+00  0.19212406856E+02  0.19212407032E+02  0.26000000000E-02 0.  1.
          2   -1    0    0  501    0  0.00000000000E+00 -0.00000000000E+00 -0.10399848988E+03  0.10399848992E+03  0.26000000000E-02 0. -1.
         23    2    1    2    0    0  0.00000000000E+00  0.00000000000E+00 -0.84786083028E+02  0.12321089695E+03  0.89399358228E+02 0.  0.
        -13    1    3    3    0    0  0.42602291881E+02 -0.60195760004E+01 -0.25691142762E+02  0.50112239599E+02  0.10570000000E+00 0.  1.
         13    1    3    3    0    0 -0.42602291881E+02  0.60195760004E+01 -0.59094940266E+02  0.73098657349E+02  0.10570000000E+00 0. -1.
<mgrwt>
<rscale>  0 0.89399358E+02</rscale>
<asrwt>0</asrwt>
<pdfrwt beam="2">  1        2 0.15999767E-01 0.89399358E+02</pdfrwt>
<pdfrwt beam="1">  1       -2 0.29557550E-02 0.89399358E+02</pdfrwt>
<totfact> 0.13104627E+05</totfact>
</mgrwt>
</event>
<event>
 5   1  0.1343823E+00  0.9269696E+02  0.7818608E-02  0.1296449E+00
          2   -1    0    0  501    0  0.00000000000E+00  0.00000000000E+00  0.12500070008E+03  0.12500070011E+03  0.26000000000E-02 0. -1.
         -2   -1    0    0    0  501 -0.00000000000E+00 -0.00000000000E+00 -0.17185355484E+02  0.17185355681E+02  0.26000000000E-02 0.  1.
         23    2    1    2    0    0  0.00000000000E+00  0.00000000000E+00  0.10781534460E+03  0.14218605579E+03  0.92696957505E+02 0.  0.
        -13    1    3    3    0    0  0.31406289725E+02 -0.17363617815E+02  0.89170966533E+01  0.36978048125E+02  0.10570000000E+00 0.  1.
         13    1    3    3    0    0 -0.31406289725E+02  0.17363617815E+02  0.98898247946E+02  0.10520800767E+03  0.10570000000E+00 0. -1.
<mgrwt>
<rscale>  0 0.92696958E+02</rscale>
<asrwt>0</asrwt>
<pdfrwt beam="1">  1        2 0.19230877E-01 0.92696958E+02</pdfrwt>
<pdfrwt beam="2">  1       -2 0.26439009E-02 0.92696958E+02</pdfrwt>
<totfact> 0.12576637E+05</totfact>
</mgrwt>
</event>
<event>
 5   1  0.1343823E+00  0.9171250E+02  0.7818608E-02  0.1298757E+00
         -2   -1    0    0    0  501 -0.00000000000E+00  0.00000000000E+00  0.12590719255E+02  0.12590719523E+02  0.26000000000E-02 0.  1.
          2   -1    0    0  501    0  0.00000000000E+00 -0.00000000000E+00 -0.16701154093E+03  0.16701154095E+03  0.26000000000E-02 0. -1.
         23    2    1    2    0    0  0.00000000000E+00  0.00000000000E+00 -0.15442082167E+03  0.17960226047E+03  0.91712495334E+02 0.  0.
        -13    1    3    3    0    0  0.40033560840E+02  0.14186820386E+01 -0.12091583028E+03  0.12737875740E+03  0.10570000000E+00 0. -1.
         13    1    3    3    0    0 -0.40033560840E+02 -0.14186820386E+01 -0.33504991392E+02  0.52223503070E+02  0.10570000000E+00 0.  1.
<mgrwt>
<rscale>  0 0.91712495E+02</rscale>
<asrwt>0</asrwt>
<pdfrwt beam="2">  1        2 0.25694082E-01 0.91712495E+02</pdfrwt>
<pdfrwt beam="1">  1       -2 0.19370339E-02 0.91712495E+02</pdfrwt>
<totfact> 0.14279411E+05</totfact>
</mgrwt>
</event>
<event>
 5   1  0.1343823E+00  0.9166861E+02  0.7818608E-02  0.1298860E+00
         -2   -1    0    0    0  501 -0.00000000000E+00  0.00000000000E+00  0.97321169962E+01  0.97321173435E+01  0.26000000000E-02 0. -1.
          2   -1    0    0  501    0  0.00000000000E+00 -0.00000000000E+00 -0.21586090643E+03  0.21586090644E+03  0.26000000000E-02 0.  1.
         23    2    1    2    0    0  0.00000000000E+00  0.00000000000E+00 -0.20612878943E+03  0.22559302379E+03  0.91668612670E+02 0.  0.
        -13    1    3    3    0    0  0.38880361602E+02 -0.60204417637E+01 -0.45200668616E+02  0.59925285591E+02  0.10570000000E+00 0. -1.
         13    1    3    3    0    0 -0.38880361602E+02  0.60204417637E+01 -0.16092812082E+03  0.16566773820E+03  0.10570000000E+00 0.  1.
<mgrwt>
<rscale>  0 0.91668613E+02</rscale>
<asrwt>0</asrwt>
<pdfrwt beam="2">  1        2 0.33209367E-01 0.91668613E+02</pdfrwt>
<pdfrwt beam="1">  1       -2 0.14972490E-02 0.91668613E+02</pdfrwt>
<totfact> 0.15674671E+05</totfact>
</mgrwt>
</event>
<event>
 5   1  0.1343823E+00  0.9027993E+02  0.7818608E-02  0.1302175E+00
          2   -1    0    0  501    0  0.00000000000E+00  0.00000000000E+00  0.87438235580E+02  0.87438235618E+02  0.26000000000E-02 0. -1.
         -2   -1    0    0    0  501 -0.00000000000E+00 -0.00000000000E+00 -0.23303493235E+02  0.23303493380E+02  0.26000000000E-02 0.  1.
         23    2    1    2    0    0  0.00000000000E+00  0.00000000000E+00  0.64134742345E+02  0.11074172900E+03  0.90279927813E+02 0.  0.
        -13    1    3    3    0    0  0.32056598709E+02  0.27676260389E+02  0.51228398937E+02  0.66467743606E+02  0.10570000000E+00 0. -1.
         13    1    3    3    0    0 -0.32056598709E+02 -0.27676260389E+02  0.12906343408E+02  0.44273985393E+02  0.10570000000E+00 0.  1.
<mgrwt>
<rscale>  0 0.90279928E+02</rscale>
<asrwt>0</asrwt>
<pdfrwt beam="1">  1        2 0.13452037E-01 0.90279928E+02</pdfrwt>
<pdfrwt beam="2">  1       -2 0.35851527E-02 0.90279928E+02</pdfrwt>
<totfact> 0.12111678E+05</totfact>
</mgrwt>
</event>
<event>
 5   1  0.1343823E+00  0.9630679E+02  0.7818608E-02  0.1288260E+00
         -2   -1    0    0    0  501 -0.00000000000E+00  0.00000000000E+00  0.53166276731E+01  0.53166283088E+01  0.26000000000E-02 0.  1.
          2   -1    0    0  501    0  0.00000000000E+00 -0.00000000000E+00 -0.43613156506E+03  0.43613156506E+03  0.26000000000E-02 0. -1.
         23    2    1    2    0    0  0.00000000000E+00  0.00000000000E+00 -0.43081493738E+03  0.44144819337E+03  0.96306786675E+02 0.  0.
        -13    1    3    3    0    0  0.35097365292E+02 -0.31811563745E+02 -0.17572740226E+03  0.18199981240E+03  0.10570000000E+00 0.  1.
         13    1    3    3    0    0 -0.35097365292E+02  0.31811563745E+02 -0.25508753513E+03  0.25944838097E+03  0.10570000000E+00 0. -1.
<mgrwt>
<rscale>  0 0.96306787E+02</rscale>
<asrwt>0</asrwt>
<pdfrwt beam="2">  1        2 0.67097136E-01 0.96306787E+02</pdfrwt>
<pdfrwt beam="1">  1       -2 0.81794311E-03 0.96306787E+02</pdfrwt>
<totfact> 0.17791666E+05</totfact>
</mgrwt>
</event>
<event>
 5   1  0.1343823E+00  0.9108501E+02  0.7818608E-02  0.1300245E+00
          2   -1    0    0  501    0  0.00000000000E+00  0.00000000000E+00  0.78156249777E+02  0.78156249821E+02  0.26000000000E-02 0. -1.
         -2   -1    0    0    0  501 -0.00000000000E+00 -0.00000000000E+00 -0.26538117614E+02  0.26538117742E+02  0.26000000000E-02 0.  1.
         23    2    1    2    0    0  0.00000000000E+00  0.00000000000E+00  0.51618132163E+02  0.10469436756E+03  0.91085009915E+02 0.  0.
        -13    1    3    3    0    0  0.79555235972E+01 -0.21899592563E+02 -0.19168511968E+02  0.30171601444E+02  0.10570000000E+00 0.  1.
         13    1    3    3    0    0 -0.79555235972E+01  0.21899592563E+02  0.70786644131E+02  0.74522766118E+02  0.10570000000E+00 0. -1.
<mgrwt>
<rscale>  0 0.91085010E+02</rscale>
<asrwt>0</asrwt>
<pdfrwt beam="1">  1        2 0.12024038E-01 0.91085010E+02</pdfrwt>
<pdfrwt beam="2">  1       -2 0.40827874E-02 0.91085010E+02</pdfrwt>
<totfact> 0.11441513E+05</totfact>
</mgrwt>
</event>
<event>
 5   1  0.1343823E+00  0.9175904E+02  0.7818608E-02  0.1298647E+00
         -2   -1    0    0    0  501 -0.00000000000E+00  0.00000000000E+00  0.16039764629E+02  0.16039764840E+02  0.26000000000E-02 0.  1.
          2   -1    0    0  501    0  0.00000000000E+00 -0.00000000000E+00 -0.13123200346E+03  0.13123200349E+03  0.26000000000E-02 0. -1.
         23    2    1    2    0    0  0.00000000000E+00  0.00000000000E+00 -0.11519223883E+03  0.14727176833E+03  0.91759042383E+02 0.  0.
        -13    1    3    3    0    0  0.31477423199E+02 -0.32476524224E+02 -0.45229775090E+02  0.63963243539E+02  0.10570000000E+00 0.  1.
         13    1    3    3    0    0 -0.31477423199E+02  0.32476524224E+02 -0.69962463740E+02  0.83308524786E+02  0.10570000000E+00 0. -1.
<mgrwt>
<rscale>  0 0.91759042E+02</rscale>
<asrwt>0</asrwt>
<pdfrwt beam="2">  1        2 0.20189538E-01 0.91759042E+02</pdfrwt>
<pdfrwt beam="1">  1       -2 0.24676562E-02 0.91759042E+02</pdfrwt>
<totfact> 0.13139176E+05</totfact>
</mgrwt>
</event>
<event>
 5   1  0.1343823E+00  0.9038252E+02  0.7818608E-02  0.1301928E+00
         -2   -1    0    0    0  501 -0.00000000000E+00  0.00000000000E+00  0.73738623665E+01  0.73738628249E+01  0.26000000000E-02 0. -1.
          2   -1    0    0  501    0  0.00000000000E+00 -0.00000000000E+00 -0.27695794416E+03  0.27695794417E+03  0.26000000000E-02 0.  1.
         23    2    1    2    0    0  0.00000000000E+00  0.00000000000E+00 -0.26958408179E+03  0.28433180699E+03  0.90382516637E+02 0.  0.
        -13    1    3    3    0    0 -0.23990130494E+02  0.30435301566E+02 -0.20792288386E+03  0.21150359511E+03  0.10570000000E+00 0.  1.
         13    1    3    3    0    0  0.23990130494E+02 -0.30435301566E+02 -0.61661197935E+02  0.72828211881E+02  0.10570000000E+00 0. -1.
<mgrwt>
<rscale>  0 0.90382517E+02</rscale>
<asrwt>0</asrwt>
<pdfrwt beam="2">  1        2 0.42608907E-01 0.90382517E+02</pdfrwt>
<pdfrwt beam="1">  1       -2 0.11344406E-02 0.90382517E+02</pdfrwt>
<totfact> 0.17850643E+05</totfact>
</mgrwt>
</event>
<event>
 5   1  0.1343823E+00  0.9262897E+02  0.7818608E-02  0.1296607E+00
          2   -1    0    0  501    0  0.00000000000E+00  0.00000000000E+00  0.48193093331E+02  0.48193093401E+02  0.26000000000E-02 0. -1.
         -2   -1    0    0    0  501 -0.00000000000E+00 -0.00000000000E+00 -0.44509102626E+02  0.44509102702E+02  0.26000000000E-02 0.  1.
         23    2    1    2    0    0  0.00000000000E+00  0.00000000000E+00  0.36839907058E+01  0.92702196103E+02  0.92628966176E+02 0.  0.
        -13    1    3    3    0    0 -0.18133000565E+02  0.34984036125E+02  0.26199101313E+02  0.47319050870E+02  0.10570000000E+00 0. -1.
         13    1    3    3    0    0  0.18133000565E+02 -0.34984036125E+02 -0.22515110607E+02  0.45383145233E+02  0.10570000000E+00 0.  1.
<mgrwt>
<rscale>  0 0.92628966E+02</rscale>
<asrwt>0</asrwt>
<pdfrwt beam="1">  1        2 0.74143220E-02 0.92628966E+02</pdfrwt>
<pdfrwt beam="2">  1       -2 0.68475543E-02 0.92628966E+02</pdfrwt>
<totfact> 0.95677738E+04</totfact>
</mgrwt>
</event>
<event>
 5   1  0.1343823E+00  0.9142296E+02  0.7818608E-02  0.1299442E+00
          2   -1    0    0  501    0  0.00000000000E+00  0.00000000000E+00  0.48935862947E+02  0.48935863016E+02  0.26000000000E-02 0. -1.
         -2   -1    0    0    0  501 -0.00000000000E+00 -0.00000000000E+00 -0.42699551431E+02  0.42699551511E+02  0.26000000000E-02 0.  1.
         23    2    1    2    0    0  0.00000000000E+00  0.00000000000E+00  0.62363115160E+01  0.91635414527E+02  0.91422959995E+02 0.  0.
        -13    1    3    3    0    0  0.33682500690E+02  0.41877928583E+01 -0.27571288406E+02  0.43729115914E+02  0.10570000000E+00 0.  1.
         13    1    3    3    0    0 -0.33682500690E+02 -0.41877928583E+01  0.33807599922E+02  0.47906298613E+02  0.10570000000E+00 0. -1.
<mgrwt>
<rscale>  0 0.91422960E+02</rscale>
<asrwt>0</asrwt>
<pdfrwt beam="1">  1        2 0.75285943E-02 0.91422960E+02</pdfrwt>
<pdfrwt beam="2">  1       -2 0.65691618E-02 0.91422960E+02</pdfrwt>
<totfact> 0.99738852E+04</totfact>
</mgrwt>
</event>
<event>
 5   1  0.1343823E+00  0.8967875E+02  0.7818608E-02  0.1303632E+00
         -2   -1    0    0    0  501 -0.00000000000E+00  0.00000000000E+00  0.67786818265E+02  0.67786818315E+02  0.26000000000E-02 0.  1.
          2   -1    0    0  501    0  0.00000000000E+00 -0.00000000000E+00 -0.29660187649E+02  0.29660187763E+02  0.26000000000E-02 0. -1.
         23    2    1    2    0    0  0.00000000000E+00  0.00000000000E+00  0.38126630616E+02  0.97447006077E+02  0.89678754626E+02 0.  0.
        -13    1    3    3    0    0  0.41876718030E+02 -0.53536022266E+01  0.26471043915E+01  0.42300578057E+02  0.10570000000E+00 0.  1.
         13    1    3    3    0    0 -0.41876718030E+02  0.53536022266E+01  0.35479526225E+02  0.55146428020E+02  0.10570000000E+00 0. -1.
<mgrwt>
<rscale>  0 0.89678755E+02</rscale>
<asrwt>0</asrwt>
<pdfrwt beam="2">  1        2 0.45631058E-02 0.89678755E+02</pdfrwt>
<pdfrwt beam="1">  1       -2 0.10428741E-01 0.89678755E+02</pdfrwt>
<totfact> 0.92633691E+04</totfact>
</mgrwt>
</event>
<event>
 5   1  0.1343823E+00  0.8960774E+02  0.7818608E-02  0.1303804E+00
         -2   -1    0    0    0  501 -0.00000000000E+00  0.00000000000E+00  0.17147242507E+02  0.17147242704E+02  0.26000000000E-02 0.  1.
          2   -1    0    0  501    0  0.00000000000E+00 -0.00000000000E+00 -0.11706761981E+03  0.11706761984E+03  0.26000000000E-02 0. -1.
         23    2    1    2    0    0  0.00000000000E+00  0.00000000000E+00 -0.99920377306E+02  0.13421486255E+03  0.89607742562E+02 0.  0.
        -13    1    3    3    0    0  0.60405647287E+01 -0.34931124480E+02 -0.90998491313E+02  0.97659656325E+02  0.10570000000E+00 0. -1.
         13    1    3    3    0    0 -0.60405647287E+01  0.34931124480E+02 -0.89218859926E+01  0.36555206221E+02  0.10570000000E+00 0.  1.
<mgrwt>
<rscale>  0 0.89607743E+02</rscale>
<asrwt>0</asrwt>
<pdfrwt beam="2">  1        2 0.18010403E-01 0.89607743E+02</pdfrwt>
<pdfrwt beam="1">  1       -2 0.26380374E-02 0.89607743E+02</pdfrwt>
<totfact> 0.13509823E+05</totfact>
</mgrwt>
</event>
<event>
 5   1  0.1343823E+00  0.9201834E+02  0.7818608E-02  0.1298036E+00
         -2   -1    0    0    0  501 -0.00000000000E+00  0.00000000000E+00  0.14258711053E+02  0.14258711290E+02  0.26000000000E-02 0.  1.
          2   -1    0    0  501    0  0.00000000000E+00 -0.00000000000E+00 -0.14845967083E+03  0.14845967086E+03  0.26000000000E-02 0. -1.
         23    2    1    2    0    0  0.00000000000E+00  0.00000000000E+00 -0.13420095978E+03  0.16271838215E+03  0.92018336664E+02 0.  0.
        -13    1    3    3    0    0 -0.32676028891E+02  0.96965870675E+01 -0.12451329086E+02  0.36287648496E+02  0.10570000000E+00 0.  1.
         13    1    3    3    0    0  0.32676028891E+02 -0.96965870675E+01 -0.12174963069E+03  0.12643073365E+03  0.10570000000E+00 0. -1.
<mgrwt>
<rscale>  0 0.92018337E+02</rscale>
<asrwt>0</asrwt>
<pdfrwt beam="2">  1        2 0.22839948E-01 0.92018337E+02</pdfrwt>
<pdfrwt beam="1">  1       -2 0.21936480E-02 0.92018337E+02</pdfrwt>
<totfact> 0.13588326E+05</totfact>
</mgrwt>
</event>
<event>
 4   1  0.1343823E+00  0.1291853E+03  0.7818608E-02  0.1228670E+00
          2   -1    0    0  501    0  0.00000000000E+00  0.00000000000E+00  0.13244278268E+03  0.13244278271E+03  0.26000000000E-02 0. -1.
         -2   -1    0    0    0  501 -0.00000000000E+00 -0.00000000000E+00 -0.31501961539E+02  0.31501961646E+02  0.26000000000E-02 0.  1.
        -13    1    1    2    0    0 -0.46437189553E+02  0.15581169850E+02 -0.29663660750E+01  0.49071335092E+02  0.10570000000E+00 0.  1.
         13    1    1    2    0    0  0.46437189553E+02 -0.15581169850E+02  0.10390718722E+03  0.11487340926E+03  0.10570000000E+00 0. -1.
<mgrwt>
<rscale>  0 0.12918525E+03</rscale>
<asrwt>0</asrwt>
<pdfrwt beam="1">  1        2 0.20375813E-01 0.12918525E+03</pdfrwt>
<pdfrwt beam="2">  1       -2 0.48464556E-02 0.12918525E+03</pdfrwt>
<totfact> 0.50623797E+04</totfact>
</mgrwt>
</event>
<event>
 5   1  0.1343823E+00  0.9023847E+02  0.7818608E-02  0.1302275E+00
          2   -1    0    0  501    0  0.00000000000E+00  0.00000000000E+00  0.17141215974E+03  0.17141215976E+03  0.26000000000E-02 0. -1.
         -2   -1    0    0    0  501 -0.00000000000E+00 -0.00000000000E+00 -0.11876316933E+02  0.11876317218E+02  0.26000000000E-02 0.  1.
         23    2    1    2    0    0  0.00000000000E+00  0.00000000000E+00  0.15953584281E+03  0.18328847698E+03  0.90238465484E+02 0.  0.
        -13    1    3    3    0    0 -0.52335188428E+00  0.32913238856E+02  0.17091713097E+02  0.37090335914E+02  0.10570000000E+00 0.  1.
         13    1    3    3    0    0  0.52335188428E+00 -0.32913238856E+02  0.14244412971E+03  0.14619814106E+03  0.10570000000E+00 0. -1.
<mgrwt>
<rscale>  0 0.90238465E+02</rscale>
<asrwt>0</asrwt>
<pdfrwt beam="1">  1        2 0.26371103E-01 0.90238465E+02</pdfrwt>
<pdfrwt beam="2">  1       -2 0.18271256E-02 0.90238465E+02</pdfrwt>
<totfact> 0.15054865E+05</totfact>
</mgrwt>
</event>
<event>
 5   1  0.1343823E+00  0.9124654E+02  0.7818608E-02  0.1299861E+00
          2   -1    0    0  501    0  0.00000000000E+00  0.00000000000E+00  0.61361554952E+02  0.61361555007E+02  0.26000000000E-02 0. -1.
         -2   -1    0    0    0  501 -0.00000000000E+00 -0.00000000000E+00 -0.33921612711E+02  0.33921612811E+02  0.26000000000E-02 0.  1.
         23    2    1    2    0    0  0.00000000000E+00  0.00000000000E+00  0.27439942241E+02  0.95283167818E+02  0.91246543163E+02 0.  0.
        -13    1    3    3    0    0 -0.37394433487E+02  0.23825137709E+02  0.24942058343E+02  0.50873355399E+02  0.10570000000E+00 0. -1.
         13    1    3    3    0    0  0.37394433487E+02 -0.23825137709E+02  0.24978838987E+01  0.44409812419E+02  0.10570000000E+00 0.  1.
<mgrwt>
<rscale>  0 0.91246543E+02</rscale>
<asrwt>0</asrwt>
<pdfrwt beam="1">  1        2 0.94402392E-02 0.91246543E+02</pdfrwt>
<pdfrwt beam="2">  1       -2 0.52187097E-02 0.91246543E+02</pdfrwt>
<totfact> 0.10648145E+05</totfact>
</mgrwt>
</event>
<event>
 5   1  0.1343823E+00  0.9381776E+02  0.7818608E-02  0.1293861E+00
         -2   -1    0    0    0  501 -0.00000000000E+00  0.00000000000E+00  0.57855980434E+02  0.57855980492E+02  0.26000000000E-02 0.  1.
          2   -1    0    0  501    0  0.00000000000E+00 -0.00000000000E+00 -0.38033113184E+02  0.38033113272E+02  0.26000000000E-02 0. -1.
         23    2    1    2    0    0  0.00000000000E+00  0.00000000000E+00  0.19822867250E+02  0.95889093765E+02  0.93817760776E+02 0.  0.
        -13    1    3    3    0    0 -0.26022910572E+02  0.20104889197E+02 -0.24279084641E+02  0.40876442699E+02  0.10570000000E+00 0. -1.
         13    1    3    3    0    0  0.26022910572E+02 -0.20104889197E+02  0.44101951891E+02  0.55012651066E+02  0.10570000000E+00 0.  1.
<mgrwt>
<rscale>  0 0.93817761E+02</rscale>
<asrwt>0</asrwt>
<pdfrwt beam="2">  1        2 0.58512482E-02 0.93817761E+02</pdfrwt>
<pdfrwt beam="1">  1       -2 0.89009200E-02 0.93817761E+02</pdfrwt>
<totfact> 0.86619857E+04</totfact>
</mgrwt>
</event>
<event>
 5   1  0.1343823E+00  0.8768408E+02  0.7818608E-02  0.1308559E+00
         -2   -1    0    0    0  501 -0.00000000000E+00  0.00000000000E+00  0.13277590510E+02  0.13277590764E+02  0.26000000000E-02 0.  1.
          2   -1    0    0  501    0  0.00000000000E+00 -0.00000000000E+00 -0.14476455973E+03  0.14476455975E+03  0.26000000000E-02 0. -1.
         23    2    1    2    0    0  0.00000000000E+00  0.00000000000E+00 -0.13148696922E+03  0.15804215052E+03  0.87684082167E+02 0.  0.
        -13    1    3    3    0    0  0.39255296512E+01  0.32953946757E+02 -0.11737979894E+03  0.12198114920E+03  0.10570000000E+00 0. -1.
         13    1    3    3    0    0 -0.39255296512E+01 -0.32953946757E+02 -0.14107170283E+02  0.36061001314E+02  0.10570000000E+00 0.  1.
<mgrwt>
<rscale>  0 0.87684082E+02</rscale>
<asrwt>0</asrwt>
<pdfrwt beam="2">  1        2 0.22271470E-01 0.87684082E+02</pdfrwt>
<pdfrwt beam="1">  1       -2 0.20427064E-02 0.87684082E+02</pdfrwt>
<totfact> 0.15355142E+05</totfact>
</mgrwt>
</event>
<event>
 5   1  0.1343823E+00  0.9267671E+02  0.7818608E-02  0.1296496E+00
          2   -1    0    0  501    0  0.00000000000E+00  0.00000000000E+00  0.37095041039E+02  0.37095041130E+02  0.26000000000E-02 0.  1.
         -2   -1    0    0    0  501 -0.00000000000E+00 -0.00000000000E+00 -0.57884912439E+02  0.57884912498E+02  0.26000000000E-02 0. -1.
         23    2    1    2    0    0  0.00000000000E+00  0.00000000000E+00 -0.20789871400E+02  0.94979953628E+02  0.92676711413E+02 0.  0.
        -13    1    3    3    0    0 -0.44446140566E+02 -0.11652172364E+02 -0.42458633389E+01  0.46144025182E+02  0.10570000000E+00 0.  1.
         13    1    3    3    0    0  0.44446140566E+02  0.11652172364E+02 -0.16544008061E+02  0.48835928446E+02  0.10570000000E+00 0. -1.
<mgrwt>
<rscale>  0 0.92676711E+02</rscale>
<asrwt>0</asrwt>
<pdfrwt beam="1">  1        2 0.57069294E-02 0.92676711E+02</pdfrwt>
<pdfrwt beam="2">  1       -2 0.89053712E-02 0.92676711E+02</pdfrwt>
<totfact> 0.89188198E+04</totfact>
</mgrwt>
</event>
<event>
 5   1  0.1343823E+00  0.9090686E+02  0.7818608E-02  0.1300670E+00
         -2   -1    0    0    0  501 -0.00000000000E+00  0.00000000000E+00  0.41169871643E+02  0.41169871725E+02  0.26000000000E-02 0.  1.
          2   -1    0    0  501    0  0.00000000000E+00 -0.00000000000E+00 -0.50182671190E+02  0.50182671258E+02  0.26000000000E-02 0. -1.
         23    2    1    2    0    0  0.00000000000E+00  0.00000000000E+00 -0.90127995474E+01  0.91352542983E+02  0.90906856473E+02 0.  0.
        -13    1    3    3    0    0  0.28841538600E+02 -0.13330525721E+02 -0.37169071196E+02  0.48898755514E+02  0.10570000000E+00 0. -1.
         13    1    3    3    0    0 -0.28841538600E+02  0.13330525721E+02  0.28156271648E+02  0.42453787469E+02  0.10570000000E+00 0.  1.
<mgrwt>
<rscale>  0 0.90906856E+02</rscale>
<asrwt>0</asrwt>
<pdfrwt beam="2">  1        2 0.77204110E-02 0.90906856E+02</pdfrwt>
<pdfrwt beam="1">  1       -2 0.63338264E-02 0.90906856E+02</pdfrwt>
<totfact> 0.10203260E+05</totfact>
</mgrwt>
</event>
<event>
 5   1  0.1343823E+00  0.9204082E+02  0.7818608E-02  0.1297983E+00
         -2   -1    0    0    0  501 -0.00000000000E+00  0.00000000000E+00  0.91870093840E+01  0.91870097519E+01  0.26000000000E-02 0.  1.
          2   -1    0    0  501    0  0.00000000000E+00 -0.00000000000E+00 -0.23052963177E+03  0.23052963179E+03  0.26000000000E-02 0. -1.
         23    2    1    2    0    0  0.00000000000E+00  0.00000000000E+00 -0.22134262239E+03  0.23971664154E+03  0.92040815647E+02 0.  0.
        -13    1    3    3    0    0 -0.63081544694E+00  0.36722158484E+02 -0.38449676128E+02  0.53172395270E+02  0.10570000000E+00 0.  1.
         13    1    3    3    0    0  0.63081544694E+00 -0.36722158484E+02 -0.18289294626E+03  0.18654424627E+03  0.10570000000E+00 0. -1.
<mgrwt>
<rscale>  0 0.92040816E+02</rscale>
<asrwt>0</asrwt>
<pdfrwt beam="2">  1        2 0.35466093E-01 0.92040816E+02</pdfrwt>
<pdfrwt beam="1">  1       -2 0.14133863E-02 0.92040816E+02</pdfrwt>
<totfact> 0.15883627E+05</totfact>
</mgrwt>
</event>
<event>
 5   1  0.1343823E+00  0.8931075E+02  0.7818608E-02  0.1304529E+00
          2   -1    0    0  501    0  0.00000000000E+00  0.00000000000E+00  0.48151523213E+02  0.48151523283E+02  0.26000000000E-02 0. -1.
         -2   -1    0    0    0  501 -0.00000000000E+00 -0.00000000000E+00 -0.41413074259E+02  0.41413074341E+02  0.26000000000E-02 0.  1.
         23    2    1    2    0    0  0.00000000000E+00  0.00000000000E+00  0.67384489535E+01  0.89564597624E+02  0.89310752170E+02 0.  0.
        -13    1    3    3    0    0 -0.40631288837E+01  0.43768477578E+02 -0.45209709714E+01  0.44188674984E+02  0.10570000000E+00 0.  1.
         13    1    3    3    0    0  0.40631288837E+01 -0.43768477578E+02  0.11259419925E+02  0.45375922639E+02  0.10570000000E+00 0. -1.
<mgrwt>
<rscale>  0 0.89310752E+02</rscale>
<asrwt>0</asrwt>
<pdfrwt beam="1">  1        2 0.74079266E-02 0.89310752E+02</pdfrwt>
<pdfrwt beam="2">  1       -2 0.63712422E-02 0.89310752E+02</pdfrwt>
<totfact> 0.10616658E+05</totfact>
</mgrwt>
</event>
<event>
 5   1  0.1343823E+00  0.9182638E+02  0.7818608E-02  0.1298488E+00
         -2   -1    0    0    0  501 -0.00000000000E+00  0.00000000000E+00  0.27795581286E+02  0.27795581408E+02  0.26000000000E-02 0.  1.
          2   -1    0    0  501    0  0.00000000000E+00 -0.00000000000E+00 -0.75840140455E+02  0.75840140500E+02  0.26000000000E-02 0. -1.
         23    2    1    2    0    0  0.00000000000E+00  0.00000000000E+00 -0.48044559169E+02  0.10363572191E+03  0.91826375239E+02 0.  0.
        -13    1    3    3    0    0 -0.33500443096E+01  0.45056255951E+02 -0.14803528315E+02  0.47544133395E+02  0.10570000000E+00 0.  1.
         13    1    3    3    0    0  0.33500443096E+01 -0.45056255951E+02 -0.33241030854E+02  0.56091588513E+02  0.10570000000E+00 0. -1.
<mgrwt>
<rscale>  0 0.91826375E+02</rscale>
<asrwt>0</asrwt>
<pdfrwt beam="2">  1        2 0.11667714E-01 0.91826375E+02</pdfrwt>
<pdfrwt beam="1">  1       -2 0.42762433E-02 0.91826375E+02</pdfrwt>
<totfact> 0.11090739E+05</totfact>
</mgrwt>
</event>
<event>
 5   1  0.1343823E+00  0.9106175E+02  0.7818608E-02  0.1300301E+00
         -2   -1    0    0    0  501 -0.00000000000E+00  0.00000000000E+00  0.50962878966E+02  0.50962879033E+02  0.26000000000E-02 0.  1.
          2   -1    0    0  501    0  0.00000000000E+00 -0.00000000000E+00 -0.40677852676E+02  0.40677852759E+02  0.26000000000E-02 0. -1.
         23    2    1    2    0    0  0.00000000000E+00  0.00000000000E+00  0.10285026290E+02  0.91640731792E+02  0.91061748048E+02 0.  0.
        -13    1    3    3    0    0 -0.16729420117E+02  0.17541444779E+02  0.43929409086E+02  0.50173498359E+02  0.10570000000E+00 0.  1.
         13    1    3    3    0    0  0.16729420117E+02 -0.17541444779E+02 -0.33644382796E+02  0.41467233433E+02  0.10570000000E+00 0. -1.
<mgrwt>
<rscale>  0 0.91061748E+02</rscale>
<asrwt>0</asrwt>
<pdfrwt beam="2">  1        2 0.62581312E-02 0.91061748E+02</pdfrwt>
<pdfrwt beam="1">  1       -2 0.78404429E-02 0.91061748E+02</pdfrwt>
<totfact> 0.96155218E+04</totfact>
</mgrwt>
</event>
<event>
 5   1  0.1343823E+00  0.9277257E+02  0.7818608E-02  0.1296273E+00
          2   -1    0    0  501    0  0.00000000000E+00  0.00000000000E+00  0.41198041960E+02  0.41198042042E+02  0.26000000000E-02 0. -1.
         -2   -1    0    0    0  501 -0.00000000000E+00 -0.00000000000E+00 -0.52227900474E+02  0.52227900538E+02  0.26000000000E-02 0.  1.
         23    2    1    2    0    0  0.00000000000E+00  0.00000000000E+00 -0.11029858514E+02  0.93425942580E+02  0.92772565816E+02 0.  0.
        -13    1    3    3    0    0 -0.21625526010E+02 -0.57219804367E+01 -0.46436960291E+02  0.51544222653E+02  0.10570000000E+00 0.  1.
         13    1    3    3    0    0  0.21625526010E+02  0.57219804367E+01  0.35407101777E+02  0.41881719927E+02  0.10570000000E+00 0. -1.
<mgrwt>
<rscale>  0 0.92772566E+02</rscale>
<asrwt>0</asrwt>
<pdfrwt beam="1">  1        2 0.63381603E-02 0.92772566E+02</pdfrwt>
<pdfrwt beam="2">  1       -2 0.80350616E-02 0.92772566E+02</pdfrwt>
<totfact> 0.91405613E+04</totfact>
</mgrwt>
</event>
<event>
 5   1  0.1343823E+00  0.9309827E+02  0.7818608E-02  0.1295518E+00
         -2   -1    0    0    0  501 -0.00000000000E+00  0.00000000000E+00  0.95262391057E+02  0.95262391092E+02  0.26000000000E-02 0.  1.
          2   -1    0    0  501    0  0.00000000000E+00 -0.00000000000E+00 -0.22745828955E+02  0.22745829103E+02  0.26000000000E-02 0. -1.
         23    2    1    2    0    0  0.00000000000E+00  0.00000000000E+00  0.72516562102E+02  0.11800822020E+03  0.93098272028E+02 0.  0.
        -13    1    3    3    0    0 -0.72811159172E+01 -0.16739801610E+02  0.90535803201E+02  0.92357882396E+02  0.10570000000E+00 0.  1.
         13    1    3    3    0    0  0.72811159172E+01  0.16739801610E+02 -0.18019241099E+02  0.25650337799E+02  0.10570000000E+00 0. -1.
<mgrwt>
<rscale>  0 0.93098272E+02</rscale>
<asrwt>0</asrwt>
<pdfrwt beam="2">  1        2 0.34993584E-02 0.93098272E+02</pdfrwt>
<pdfrwt beam="1">  1       -2 0.14655752E-01 0.93098272E+02</pdfrwt>
<totfact> 0.76872708E+04</totfact>
</mgrwt>
</event>
<event>
 5   1  0.1343823E+00  0.8919114E+02  0.7818608E-02  0.1304822E+00
          2   -1    0    0  501    0  0.00000000000E+00  0.00000000000E+00  0.11098761777E+03  0.11098761780E+03  0.26000000000E-02 0. -1.
         -2   -1    0    0    0  501 -0.00000000000E+00 -0.00000000000E+00 -0.17918799731E+02  0.17918799920E+02  0.26000000000E-02 0.  1.
         23    2    1    2    0    0  0.00000000000E+00  0.00000000000E+00  0.93068818039E+02  0.12890641772E+03  0.89191141031E+02 0.  0.
        -13    1    3    3    0    0  0.52102514052E+00 -0.27019003609E+02  0.97805409030E+02  0.10147022830E+03  0.10570000000E+00 0. -1.
         13    1    3    3    0    0 -0.52102514052E+00  0.27019003609E+02 -0.47365909906E+01  0.27436189421E+02  0.10570000000E+00 0.  1.
<mgrwt>
<rscale>  0 0.89191141E+02</rscale>
<asrwt>0</asrwt>
<pdfrwt beam="1">  1        2 0.17075017E-01 0.89191141E+02</pdfrwt>
<pdfrwt beam="2">  1       -2 0.27567386E-02 0.89191141E+02</pdfrwt>
<totfact> 0.13455680E+05</totfact>
</mgrwt>
</event>
<event>
 5   1  0.1343823E+00  0.9212871E+02  0.7818608E-02  0.1297777E+00
         -2   -1    0    0    0  501 -0.00000000000E+00  0.00000000000E+00  0.55886366153E+02  0.55886366213E+02  0.26000000000E-02 0. -1.
          2   -1    0    0  501    0  0.00000000000E+00 -0.00000000000E+00 -0.37968560314E+02  0.37968560403E+02  0.26000000000E-02 0.  1.
         23    2    1    2    0    0  0.00000000000E+00  0.00000000000E+00  0.17917805839E+02  0.93854926616E+02  0.92128711507E+02 0.  0.
        -13    1    3    3    0    0  0.19591421037E+02 -0.17233980162E+02  0.47631745895E+02  0.54310480020E+02  0.10570000000E+00 0. -1.
         13    1    3    3    0    0 -0.19591421037E+02  0.17233980162E+02 -0.29713940056E+02  0.39544446596E+02  0.10570000000E+00 0.  1.
<mgrwt>
<rscale>  0 0.92128712E+02</rscale>
<asrwt>0</asrwt>
<pdfrwt beam="2">  1        2 0.58413170E-02 0.92128712E+02</pdfrwt>
<pdfrwt beam="1">  1       -2 0.85979024E-02 0.92128712E+02</pdfrwt>
<totfact> 0.91303515E+04</totfact>
</mgrwt>
</event>
<event>
 5   1  0.1343823E+00  0.9231425E+02  0.7818608E-02  0.1297342E+00
         -2   -1    0    0    0  501 -0.00000000000E+00  0.00000000000E+00  0.27435424597E+02  0.27435424721E+02  0.26000000000E-02 0.  1.
          2   -1    0    0  501    0  0.00000000000E+00 -0.00000000000E+00 -0.77654359019E+02  0.77654359063E+02  0.26000000000E-02 0. -1.
         23    2    1    2    0    0  0.00000000000E+00  0.00000000000E+00 -0.50218934422E+02  0.10508978378E+03  0.92314252860E+02 0.  0.
        -13    1    3    3    0    0  0.15860921442E+02  0.30274001813E+02  0.10206100500E+02  0.35668749273E+02  0.10570000000E+00 0.  1.
         13    1    3    3    0    0 -0.15860921442E+02 -0.30274001813E+02 -0.60425034922E+02  0.69421034511E+02  0.10570000000E+00 0. -1.
<mgrwt>
<rscale>  0 0.92314253E+02</rscale>
<asrwt>0</asrwt>
<pdfrwt beam="2">  1        2 0.11946824E-01 0.92314253E+02</pdfrwt>
<pdfrwt beam="1">  1       -2 0.42208346E-02 0.92314253E+02</pdfrwt>
<totfact> 0.11001606E+05</totfact>
</mgrwt>
</event>
<event>
 5   1  0.1343823E+00  0.9197644E+02  0.7818608E-02  0.1298135E+00
          2   -1    0    0  501    0  0.00000000000E+00  0.00000000000E+00  0.28360263267E+03  0.28360263268E+03  0.26000000000E-02 0. -1.
         -2   -1    0    0    0  501 -0.00000000000E+00 -0.00000000000E+00 -0.74573225123E+01  0.74573229655E+01  0.26000000000E-02 0.  1.
         23    2    1    2    0    0  0.00000000000E+00  0.00000000000E+00  0.27614531016E+03  0.29105995565E+03  0.91976439698E+02 0.  0.
        -13    1    3    3    0    0 -0.37481553757E+02  0.23116905910E+02  0.96132869122E+02  0.10573929217E+03  0.10570000000E+00 0.  1.
         13    1    3    3    0    0  0.37481553757E+02 -0.23116905910E+02  0.18001244104E+03  0.18532066348E+03  0.10570000000E+00 0. -1.
<mgrwt>
<rscale>  0 0.91976440E+02</rscale>
<asrwt>0</asrwt>
<pdfrwt beam="1">  1        2 0.43631174E-01 0.91976440E+02</pdfrwt>
<pdfrwt beam="2">  1       -2 0.11472804E-02 0.91976440E+02</pdfrwt>
<totfact> 0.17187398E+05</totfact>
</mgrwt>
</event>
<event>
 5   1  0.1343823E+00  0.8957891E+02  0.7818608E-02  0.1303875E+00
          2   -1    0    0  501    0  0.00000000000E+00  0.00000000000E+00  0.21556235880E+03  0.21556235882E+03  0.26000000000E-02 0. -1.
         -2   -1    0    0    0  501 -0.00000000000E+00 -0.00000000000E+00 -0.93063327102E+01  0.93063330734E+01  0.26000000000E-02 0.  1.
         23    2    1    2    0    0  0.00000000000E+00  0.00000000000E+00  0.20625602609E+03  0.22486869189E+03  0.89578905405E+02 0.  0.
        -13    1    3    3    0    0  0.36166690211E+01  0.40570125585E+02  0.14989408049E+03  0.15532952689E+03  0.10570000000E+00 0. -1.
         13    1    3    3    0    0 -0.36166690211E+01 -0.40570125585E+02  0.56361945599E+02  0.69539165000E+02  0.10570000000E+00 0.  1.
<mgrwt>
<rscale>  0 0.89578905E+02</rscale>
<asrwt>0</asrwt>
<pdfrwt beam="1">  1        2 0.33163436E-01 0.89578905E+02</pdfrwt>
<pdfrwt beam="2">  1       -2 0.14317437E-02 0.89578905E+02</pdfrwt>
<totfact> 0.16667307E+05</totfact>
</mgrwt>
</event>
<event>
 5   1  0.1343823E+00  0.8766904E+02  0.7818608E-02  0.1308597E+00
         -2   -1    0    0    0  501 -0.00000000000E+00  0.00000000000E+00  0.16096876640E+03  0.16096876642E+03  0.26000000000E-02 0.  1.
          2   -1    0    0  501    0  0.00000000000E+00 -0.00000000000E+00 -0.11936882005E+02  0.11936882288E+02  0.26000000000E-02 0. -1.
         23    2    1    2    0    0  0.00000000000E+00  0.00000000000E+00  0.14903188440E+03  0.17290564871E+03  0.87669041225E+02 0.  0.
        -13    1    3    3    0    0  0.62388288050E+01 -0.42966835806E+02  0.62619788343E+02  0.76199219344E+02  0.10570000000E+00 0. -1.
         13    1    3    3    0    0 -0.62388288050E+01  0.42966835806E+02  0.86412096052E+02  0.96706429366E+02  0.10570000000E+00 0.  1.
<mgrwt>
<rscale>  0 0.87669041E+02</rscale>
<asrwt>0</asrwt>
<pdfrwt beam="2">  1        2 0.18364434E-02 0.87669041E+02</pdfrwt>
<pdfrwt beam="1">  1       -2 0.24764426E-01 0.87669041E+02</pdfrwt>
<totfact> 0.75163490E+04</totfact>
</mgrwt>
</event>
<event>
 5   1  0.1343823E+00  0.8972564E+02  0.7818608E-02  0.1303517E+00
          2   -1    0    0  501    0  0.00000000000E+00  0.00000000000E+00  0.17757392899E+03  0.17757392901E+03  0.26000000000E-02 0. -1.
         -2   -1    0    0    0  501 -0.00000000000E+00 -0.00000000000E+00 -0.11334280344E+02  0.11334280643E+02  0.26000000000E-02 0.  1.
         23    2    1    2    0    0  0.00000000000E+00  0.00000000000E+00  0.16623964865E+03  0.18890820966E+03  0.89725642334E+02 0.  0.
        -13    1    3    3    0    0  0.32821580367E+02  0.45338608170E+01  0.14680070898E+03  0.15049342631E+03  0.10570000000E+00 0. -1.
         13    1    3    3    0    0 -0.32821580367E+02 -0.45338608170E+01  0.19438939666E+02  0.38414783346E+02  0.10570000000E+00 0.  1.
<mgrwt>
<rscale>  0 0.89725642E+02</rscale>
<asrwt>0</asrwt>
<pdfrwt beam="1">  1        2 0.27319063E-01 0.89725642E+02</pdfrwt>
<pdfrwt beam="2">  1       -2 0.17437356E-02 0.89725642E+02</pdfrwt>
<totfact> 0.15478474E+05</totfact>
</mgrwt>
</event>
<event>
 5   1  0.1343823E+00  0.9351020E+02  0.7818608E-02  0.1294567E+00
          2   -1    0    0  501    0  0.00000000000E+00  0.00000000000E+00  0.38019457479E+02  0.38019457568E+02  0.26000000000E-02 0. -1.
         -2   -1    0    0    0  501 -0.00000000000E+00 -0.00000000000E+00 -0.57497905163E+02  0.57497905222E+02  0.26000000000E-02 0.  1.
         23    2    1    2    0    0  0.00000000000E+00  0.00000000000E+00 -0.19478447684E+02  0.95517362789E+02  0.93510195541E+02 0.  0.
        -13    1    3    3    0    0  0.34437593082E+01  0.35628977394E+02  0.20985382745E+02  0.41493143648E+02  0.10570000000E+00 0. -1.
         13    1    3    3    0    0 -0.34437593082E+01 -0.35628977394E+02 -0.40463830429E+02  0.54024219141E+02  0.10570000000E+00 0.  1.
<mgrwt>
<rscale>  0 0.93510196E+02</rscale>
<asrwt>0</asrwt>
<pdfrwt beam="1">  1        2 0.58491473E-02 0.93510196E+02</pdfrwt>
<pdfrwt beam="2">  1       -2 0.88458316E-02 0.93510196E+02</pdfrwt>
<totfact> 0.87448327E+04</totfact>
</mgrwt>
</event>
<event>
 5   1  0.1343823E+00  0.9115921E+02  0.7818608E-02  0.1300069E+00
          2   -1    0    0  501    0  0.00000000000E+00  0.00000000000E+00  0.25669477874E+03  0.25669477876E+03  0.26000000000E-02 0. -1.
         -2   -1    0    0    0  501 -0.00000000000E+00 -0.00000000000E+00 -0.80932709569E+01  0.80932713746E+01  0.26000000000E-02 0.  1.
         23    2    1    2    0    0  0.00000000000E+00  0.00000000000E+00  0.24860150779E+03  0.26478805013E+03  0.91159211375E+02 0.  0.
        -13    1    3    3    0    0 -0.44794777174E+02  0.63996616420E+01  0.10840138202E+03  0.11746658472E+03  0.10570000000E+00 0.  1.
         13    1    3    3    0    0  0.44794777174E+02 -0.63996616420E+01  0.14020012577E+03  0.14732146541E+03  0.10570000000E+00 0. -1.
<mgrwt>
<rscale>  0 0.91159211E+02</rscale>
<asrwt>0</asrwt>
<pdfrwt beam="1">  1        2 0.39491498E-01 0.91159211E+02</pdfrwt>
<pdfrwt beam="2">  1       -2 0.12451188E-02 0.91159211E+02</pdfrwt>
<totfact> 0.16959955E+05</totfact>
</mgrwt>
</event>
<event>
 5   1  0.1343823E+00  0.8892479E+02  0.7818608E-02  0.1305477E+00
         -2   -1    0    0    0  501 -0.00000000000E+00  0.00000000000E+00  0.13770180013E+03  0.13770180016E+03  0.26000000000E-02 0.  1.
          2   -1    0    0  501    0  0.00000000000E+00 -0.00000000000E+00 -0.14356417487E+02  0.14356417722E+02  0.26000000000E-02 0. -1.
         23    2    1    2    0    0  0.00000000000E+00  0.00000000000E+00  0.12334538265E+03  0.15205821788E+03  0.88924789596E+02 0.  0.
        -13    1    3    3    0    0 -0.40095173245E+02  0.18784595044E+02  0.68599513908E+02  0.81647954104E+02  0.10570000000E+00 0. -1.
         13    1    3    3    0    0  0.40095173245E+02 -0.18784595044E+02  0.54745868738E+02  0.70410263776E+02  0.10570000000E+00 0.  1.
<mgrwt>
<rscale>  0 0.88924790E+02</rscale>
<asrwt>0</asrwt>
<pdfrwt beam="2">  1        2 0.22086797E-02 0.88924790E+02</pdfrwt>
<pdfrwt beam="1">  1       -2 0.21184892E-01 0.88924790E+02</pdfrwt>
<totfact> 0.76702221E+04</totfact>
</mgrwt>
</event>
<event>
 5   1  0.1343823E+00  0.9047831E+02  0.7818608E-02  0.1301698E+00
         -2   -1    0    0    0  501 -0.00000000000E+00  0.00000000000E+00  0.89584095604E+01  0.89584099377E+01  0.26000000000E-02 0.  1.
          2   -1    0    0  501    0  0.00000000000E+00 -0.00000000000E+00 -0.22845363747E+03  0.22845363748E+03  0.26000000000E-02 0. -1.
         23    2    1    2    0    0  0.00000000000E+00  0.00000000000E+00 -0.21949522791E+03  0.23741204742E+03  0.90478313347E+02 0.  0.
        -13    1    3    3    0    0  0.59963451763E+01 -0.43586807418E+02 -0.82126808157E+02  0.93169682445E+02  0.10570000000E+00 0. -1.
         13    1    3    3    0    0 -0.59963451763E+01  0.43586807418E+02 -0.13736841975E+03  0.14424236497E+03  0.10570000000E+00 0.  1.
<mgrwt>
<rscale>  0 0.90478313E+02</rscale>
<asrwt>0</asrwt>
<pdfrwt beam="2">  1        2 0.35146709E-01 0.90478313E+02</pdfrwt>
<pdfrwt beam="1">  1       -2 0.13782171E-02 0.90478313E+02</pdfrwt>
<totfact> 0.16575417E+05</totfact>
</mgrwt>
</event>
<event>
 5   1  0.1343823E+00  0.9081869E+02  0.7818608E-02  0.1300881E+00
         -2   -1    0    0    0  501 -0.00000000000E+00  0.00000000000E+00  0.62714849893E+02  0.62714849947E+02  0.26000000000E-02 0.  1.
          2   -1    0    0  501    0  0.00000000000E+00 -0.00000000000E+00 -0.32879109627E+02  0.32879109730E+02  0.26000000000E-02 0. -1.
         23    2    1    2    0    0  0.00000000000E+00  0.00000000000E+00  0.29835740266E+02  0.95593959677E+02  0.90818686015E+02 0.  0.
        -13    1    3    3    0    0 -0.99986659813E+01  0.14779776486E+02  0.58869647649E+02  0.61514727515E+02  0.10570000000E+00 0.  1.
         13    1    3    3    0    0  0.99986659813E+01 -0.14779776486E+02 -0.29033907383E+02  0.34079232163E+02  0.10570000000E+00 0. -1.
<mgrwt>
<rscale>  0 0.90818686E+02</rscale>
<asrwt>0</asrwt>
<pdfrwt beam="2">  1        2 0.50583246E-02 0.90818686E+02</pdfrwt>
<pdfrwt beam="1">  1       -2 0.96484385E-02 0.90818686E+02</pdfrwt>
<totfact> 0.91695830E+04</totfact>
</mgrwt>
</event>
<event>
 5   1  0.1343823E+00  0.1081007E+03  0.7818608E-02  0.1264128E+00
         -2   -1    0    0    0  501 -0.00000000000E+00  0.00000000000E+00  0.26964132701E+02  0.26964132826E+02  0.26000000000E-02 0.  1.
          2   -1    0    0  501    0  0.00000000000E+00 -0.00000000000E+00 -0.10834542216E+03  0.10834542219E+03  0.26000000000E-02 0. -1.
         23    2    1    2    0    0  0.00000000000E+00  0.00000000000E+00 -0.81381289455E+02  0.13530955501E+03  0.10810070030E+03 0.  0.
        -13    1    3    3    0    0  0.18078348487E+02  0.31668862597E+02  0.92470634332E+01  0.37619980022E+02  0.10570000000E+00 0.  1.
         13    1    3    3    0    0 -0.18078348487E+02 -0.31668862597E+02 -0.90628352888E+02  0.97689574991E+02  0.10570000000E+00 0. -1.
<mgrwt>
<rscale>  0 0.10810070E+03</rscale>
<asrwt>0</asrwt>
<pdfrwt beam="2">  1        2 0.16668526E-01 0.10810070E+03</pdfrwt>
<pdfrwt beam="1">  1       -2 0.41483282E-02 0.10810070E+03</pdfrwt>
<totfact> 0.78322729E+04</totfact>
</mgrwt>
</event>
<event>
 5   1  0.1343823E+00  0.8005032E+02  0.7818608E-02  0.1328909E+00
         -2   -1    0    0    0  501 -0.00000000000E+00  0.00000000000E+00  0.14976812752E+03  0.14976812755E+03  0.26000000000E-02 0. -1.
          2   -1    0    0  501    0  0.00000000000E+00 -0.00000000000E+00 -0.10696623826E+02  0.10696624142E+02  0.26000000000E-02 0.  1.
         23    2    1    2    0    0  0.00000000000E+00  0.00000000000E+00  0.13907150370E+03  0.16046475169E+03  0.80050317888E+02 0.  0.
        -13    1    3    3    0    0  0.10207047785E+02  0.37852621090E+02  0.53374884196E+02  0.66226083859E+02  0.10570000000E+00 0.  1.
         13    1    3    3    0    0 -0.10207047785E+02 -0.37852621090E+02  0.85696619502E+02  0.94238667830E+02  0.10570000000E+00 0. -1.
<mgrwt>
<rscale>  0 0.80050318E+02</rscale>
<asrwt>0</asrwt>
<pdfrwt beam="2">  1        2 0.16456344E-02 0.80050318E+02</pdfrwt>
<pdfrwt beam="1">  1       -2 0.23041251E-01 0.80050318E+02</pdfrwt>
<totfact> 0.97115836E+04</totfact>
</mgrwt>
</event>
<event>
 5   1  0.1343823E+00  0.9169291E+02  0.7818608E-02  0.1298803E+00
          2   -1    0    0  501    0  0.00000000000E+00  0.00000000000E+00  0.23180229156E+02  0.23180229302E+02  0.26000000000E-02 0. -1.
         -2   -1    0    0    0  501 -0.00000000000E+00 -0.00000000000E+00 -0.90676304744E+02  0.90676304781E+02  0.26000000000E-02 0.  1.
         23    2    1    2    0    0  0.00000000000E+00  0.00000000000E+00 -0.67496075588E+02  0.11385653408E+03  0.91692912124E+02 0.  0.
        -13    1    3    3    0    0 -0.30868375936E+02 -0.49907156565E+01 -0.75380204200E+02  0.81608518142E+02  0.10570000000E+00 0.  1.
         13    1    3    3    0    0  0.30868375936E+02  0.49907156565E+01  0.78841286117E+01  0.32248015941E+02  0.10570000000E+00 0. -1.
<mgrwt>
<rscale>  0 0.91692912E+02</rscale>
<asrwt>0</asrwt>
<pdfrwt beam="1">  1        2 0.35661892E-02 0.91692912E+02</pdfrwt>
<pdfrwt beam="2">  1       -2 0.13950201E-01 0.91692912E+02</pdfrwt>
<totfact> 0.80986997E+04</totfact>
</mgrwt>
</event>
<event>
 5   1  0.1343823E+00  0.9065530E+02  0.7818608E-02  0.1301273E+00
          2   -1    0    0  501    0  0.00000000000E+00  0.00000000000E+00  0.62465964958E+02  0.62465965013E+02  0.26000000000E-02 0. -1.
         -2   -1    0    0    0  501 -0.00000000000E+00 -0.00000000000E+00 -0.32891444428E+02  0.32891444531E+02  0.26000000000E-02 0.  1.
         23    2    1    2    0    0  0.00000000000E+00  0.00000000000E+00  0.29574520531E+02  0.95357409543E+02  0.90655299294E+02 0.  0.
        -13    1    3    3    0    0 -0.41940168328E+02  0.62944313819E+00  0.32860138368E+02  0.53283897982E+02  0.10570000000E+00 0.  1.
         13    1    3    3    0    0  0.41940168328E+02 -0.62944313819E+00 -0.32856178370E+01  0.42073511562E+02  0.10570000000E+00 0. -1.
<mgrwt>
<rscale>  0 0.90655299E+02</rscale>
<asrwt>0</asrwt>
<pdfrwt beam="1">  1        2 0.96101485E-02 0.90655299E+02</pdfrwt>
<pdfrwt beam="2">  1       -2 0.50602222E-02 0.90655299E+02</pdfrwt>
<totfact> 0.10896970E+05</totfact>
</mgrwt>
</event>
<event>
 5   1  0.1343823E+00  0.8941168E+02  0.7818608E-02  0.1304283E+00
          2   -1    0    0  501    0  0.00000000000E+00  0.00000000000E+00  0.17073491721E+03  0.17073491723E+03  0.26000000000E-02 0. -1.
         -2   -1    0    0    0  501 -0.00000000000E+00 -0.00000000000E+00 -0.11705937255E+02  0.11705937544E+02  0.26000000000E-02 0.  1.
         23    2    1    2    0    0  0.00000000000E+00  0.00000000000E+00  0.15902897995E+03  0.18244085477E+03  0.89411682822E+02 0.  0.
        -13    1    3    3    0    0 -0.38937926720E+02 -0.18063231024E+02  0.54016213447E+02  0.68994238455E+02  0.10570000000E+00 0.  1.
         13    1    3    3    0    0  0.38937926720E+02  0.18063231024E+02  0.10501276651E+03  0.11344661632E+03  0.10570000000E+00 0. -1.
<mgrwt>
<rscale>  0 0.89411683E+02</rscale>
<asrwt>0</asrwt>
<pdfrwt beam="1">  1        2 0.26266909E-01 0.89411683E+02</pdfrwt>
<pdfrwt beam="2">  1       -2 0.18009135E-02 0.89411683E+02</pdfrwt>
<totfact> 0.15411863E+05</totfact>
</mgrwt>
</event>
<event>
 5   1  0.1343823E+00  0.8859962E+02  0.7818608E-02  0.1306279E+00
          2   -1    0    0  501    0  0.00000000000E+00  0.00000000000E+00  0.37588059829E+02  0.37588059919E+02  0.26000000000E-02 0. -1.
         -2   -1    0    0    0  501 -0.00000000000E+00 -0.00000000000E+00 -0.52210013492E+02  0.52210013557E+02  0.26000000000E-02 0.  1.
         23    2    1    2    0    0  0.00000000000E+00  0.00000000000E+00 -0.14621953664E+02  0.89798073476E+02  0.88599618910E+02 0.  0.
        -13    1    3    3    0    0  0.14532587888E+01  0.40041388467E+02  0.11840042548E+02  0.41780647811E+02  0.10570000000E+00 0. -1.
         13    1    3    3    0    0 -0.14532587888E+01 -0.40041388467E+02 -0.26461996212E+02  0.48017425665E+02  0.10570000000E+00 0.  1.
<mgrwt>
<rscale>  0 0.88599619E+02</rscale>
<asrwt>0</asrwt>
<pdfrwt beam="1">  1        2 0.57827784E-02 0.88599619E+02</pdfrwt>
<pdfrwt beam="2">  1       -2 0.80323098E-02 0.88599619E+02</pdfrwt>
<totfact> 0.10199918E+05</totfact>
</mgrwt>
</event>
<event>
 5   1  0.1343823E+00  0.9143575E+02  0.7818608E-02  0.1299412E+00
          2   -1    0    0  501    0  0.00000000000E+00  0.00000000000E+00  0.43059601824E+02  0.43059601903E+02  0.26000000000E-02 0. -1.
         -2   -1    0    0    0  501 -0.00000000000E+00 -0.00000000000E+00 -0.48540255753E+02  0.48540255822E+02  0.26000000000E-02 0.  1.
         23    2    1    2    0    0  0.00000000000E+00  0.00000000000E+00 -0.54806539285E+01  0.91599857725E+02  0.91435749943E+02 0.  0.
        -13    1    3    3    0    0  0.16055464552E+02  0.39887555337E+02 -0.18302618343E+02  0.46731060586E+02  0.10570000000E+00 0.  1.
         13    1    3    3    0    0 -0.16055464552E+02 -0.39887555337E+02  0.12821964415E+02  0.44868797139E+02  0.10570000000E+00 0. -1.
<mgrwt>
<rscale>  0 0.91435750E+02</rscale>
<asrwt>0</asrwt>
<pdfrwt beam="1">  1        2 0.66245541E-02 0.91435750E+02</pdfrwt>
<pdfrwt beam="2">  1       -2 0.74677317E-02 0.91435750E+02</pdfrwt>
<totfact> 0.96433532E+04</totfact>
</mgrwt>
</event>
<event>
 5   1  0.1343823E+00  0.9490156E+02  0.7818608E-02  0.1291398E+00
         -2   -1    0    0    0  501 -0.00000000000E+00  0.00000000000E+00  0.49436108148E+02  0.49436108217E+02  0.26000000000E-02 0.  1.
          2   -1    0    0  501    0  0.00000000000E+00 -0.00000000000E+00 -0.45545176688E+02  0.45545176762E+02  0.26000000000E-02 0. -1.
         23    2    1    2    0    0  0.00000000000E+00  0.00000000000E+00  0.38909314602E+01  0.94981284979E+02  0.94901555038E+02 0.  0.
        -13    1    3    3    0    0 -0.31904590712E+02  0.23955411445E+02  0.27653627368E+02  0.48543783589E+02  0.10570000000E+00 0.  1.
         13    1    3    3    0    0  0.31904590712E+02 -0.23955411445E+02 -0.23762695908E+02  0.46437501390E+02  0.10570000000E+00 0. -1.
<mgrwt>
<rscale>  0 0.94901555E+02</rscale>
<asrwt>0</asrwt>
<pdfrwt beam="2">  1        2 0.70069503E-02 0.94901555E+02</pdfrwt>
<pdfrwt beam="1">  1       -2 0.76055551E-02 0.94901555E+02</pdfrwt>
<totfact> 0.87890973E+04</totfact>
</mgrwt>
</event>
<event>
 5   1  0.1343823E+00  0.9041738E+02  0.7818608E-02  0.1301844E+00
          2   -1    0    0  501    0  0.00000000000E+00  0.00000000000E+00  0.10987307721E+03  0.10987307724E+03  0.26000000000E-02 0. -1.
         -2   -1    0    0    0  501 -0.00000000000E+00 -0.00000000000E+00 -0.18601696438E+02  0.18601696619E+02  0.26000000000E-02 0.  1.
         23    2    1    2    0    0  0.00000000000E+00  0.00000000000E+00  0.91271380774E+02  0.12847477386E+03  0.90417379803E+02 0.  0.
        -13    1    3    3    0    0  0.27508756550E+02  0.18885471926E+02  0.22939977867E+01  0.33446469696E+02  0.10570000000E+00 0.  1.
         13    1    3    3    0    0 -0.27508756550E+02 -0.18885471926E+02  0.88977382988E+02  0.95028304166E+02  0.10570000000E+00 0. -1.
<mgrwt>
<rscale>  0 0.90417380E+02</rscale>
<asrwt>0</asrwt>
<pdfrwt beam="1">  1        2 0.16903550E-01 0.90417380E+02</pdfrwt>
<pdfrwt beam="2">  1       -2 0.28617995E-02 0.90417380E+02</pdfrwt>
<totfact> 0.12921968E+05</totfact>
</mgrwt>
</event>
<event>
 5   1  0.1343823E+00  0.9041117E+02  0.7818608E-02  0.1301859E+00
         -2   -1    0    0    0  501 -0.00000000000E+00  0.00000000000E+00  0.87236452237E+02  0.87236452276E+02  0.26000000000E-02 0.  1.
          2   -1    0    0  501    0  0.00000000000E+00 -0.00000000000E+00 -0.23425356710E+02  0.23425356855E+02  0.26000000000E-02 0. -1.
         23    2    1    2    0    0  0.00000000000E+00  0.00000000000E+00  0.63811095527E+02  0.11066180913E+03  0.90411172361E+02 0.  0.
        -13    1    3    3    0    0  0.37418930332E+02  0.71132095193E+01  0.61705462342E+02  0.72514476845E+02  0.10570000000E+00 0.  1.
         13    1    3    3    0    0 -0.37418930332E+02 -0.71132095193E+01  0.21056331853E+01  0.38147332285E+02  0.10570000000E+00 0. -1.
<mgrwt>
<rscale>  0 0.90411172E+02</rscale>
<asrwt>0</asrwt>
<pdfrwt beam="2">  1        2 0.36039010E-02 0.90411172E+02</pdfrwt>
<pdfrwt beam="1">  1       -2 0.13420993E-01 0.90411172E+02</pdfrwt>
<totfact> 0.84787396E+04</totfact>
</mgrwt>
</event>
<event>
 5   1  0.1343823E+00  0.9011083E+02  0.7818608E-02  0.1302584E+00
         -2   -1    0    0    0  501 -0.00000000000E+00  0.00000000000E+00  0.75273330239E+02  0.75273330284E+02  0.26000000000E-02 0. -1.
          2   -1    0    0  501    0  0.00000000000E+00 -0.00000000000E+00 -0.26968256111E+02  0.26968256236E+02  0.26000000000E-02 0.  1.
         23    2    1    2    0    0  0.00000000000E+00  0.00000000000E+00  0.48305074128E+02  0.10224158652E+03  0.90110830801E+02 0.  0.
        -13    1    3    3    0    0 -0.12143761179E+02  0.14679571033E+02 -0.22173036122E+02  0.29233806536E+02  0.10570000000E+00 0.  1.
         13    1    3    3    0    0  0.12143761179E+02 -0.14679571033E+02  0.70478110250E+02  0.73007779984E+02  0.10570000000E+00 0. -1.
<mgrwt>
<rscale>  0 0.90110831E+02</rscale>
<asrwt>0</asrwt>
<pdfrwt beam="2">  1        2 0.41489625E-02 0.90110831E+02</pdfrwt>
<pdfrwt beam="1">  1       -2 0.11580512E-01 0.90110831E+02</pdfrwt>
<totfact> 0.89034949E+04</totfact>
</mgrwt>
</event>
<event>
 5   1  0.1343823E+00  0.1072394E+03  0.7818608E-02  0.1265769E+00
         -2   -1    0    0    0  501 -0.00000000000E+00  0.00000000000E+00  0.31056136795E+02  0.31056136904E+02  0.26000000000E-02 0. -1.
          2   -1    0    0  501    0  0.00000000000E+00 -0.00000000000E+00 -0.92576635577E+02  0.92576635614E+02  0.26000000000E-02 0.  1.
         23    2    1    2    0    0  0.00000000000E+00  0.00000000000E+00 -0.61520498782E+02  0.12363277252E+03  0.10723940819E+03 0.  0.
        -13    1    3    3    0    0 -0.25597759329E+02  0.45694656071E+02 -0.17524120456E+02  0.55229999514E+02  0.10570000000E+00 0. -1.
         13    1    3    3    0    0  0.25597759329E+02 -0.45694656071E+02 -0.43996378327E+02  0.68402773003E+02  0.10570000000E+00 0.  1.
<mgrwt>
<rscale>  0 0.10723941E+03</rscale>
<asrwt>0</asrwt>
<pdfrwt beam="2">  1        2 0.14242559E-01 0.10723941E+03</pdfrwt>
<pdfrwt beam="1">  1       -2 0.47778672E-02 0.10723941E+03</pdfrwt>
<totfact> 0.76115471E+04</totfact>
</mgrwt>
</event>
<event>
 5   1  0.1343823E+00  0.9150779E+02  0.7818608E-02  0.1299241E+00
          2   -1    0    0  501    0  0.00000000000E+00  0.00000000000E+00  0.37283898303E+03  0.37283898303E+03  0.26000000000E-02 0. -1.
         -2   -1    0    0    0  501 -0.00000000000E+00 -0.00000000000E+00 -0.56148062275E+01  0.56148068294E+01  0.26000000000E-02 0.  1.
         23    2    1    2    0    0  0.00000000000E+00  0.00000000000E+00  0.36722417680E+03  0.37845378986E+03  0.91507786759E+02 0.  0.
        -13    1    3    3    0    0 -0.38839694971E+02 -0.21525285626E+02  0.13801592648E+03  0.14498367826E+03  0.10570000000E+00 0.  1.
         13    1    3    3    0    0  0.38839694971E+02  0.21525285626E+02  0.22920825032E+03  0.23347011160E+03  0.10570000000E+00 0. -1.
<mgrwt>
<rscale>  0 0.91507787E+02</rscale>
<asrwt>0</asrwt>
<pdfrwt beam="1">  1        2 0.57359847E-01 0.91507787E+02</pdfrwt>
<pdfrwt beam="2">  1       -2 0.86381634E-03 0.91507787E+02</pdfrwt>
<totfact> 0.19275723E+05</totfact>
</mgrwt>
</event>
<event>
 5   1  0.1343823E+00  0.8741735E+02  0.7818608E-02  0.1309229E+00
          2   -1    0    0  501    0  0.00000000000E+00  0.00000000000E+00  0.14930562419E+03  0.14930562421E+03  0.26000000000E-02 0. -1.
         -2   -1    0    0    0  501 -0.00000000000E+00 -0.00000000000E+00 -0.12795554874E+02  0.12795555138E+02  0.26000000000E-02 0.  1.
         23    2    1    2    0    0  0.00000000000E+00  0.00000000000E+00  0.13651006931E+03  0.16210117935E+03  0.87417351378E+02 0.  0.
        -13    1    3    3    0    0 -0.37976127668E+01 -0.41667718166E+02  0.91697291356E+02  0.10079198884E+03  0.10570000000E+00 0. -1.
         13    1    3    3    0    0  0.37976127668E+01  0.41667718166E+02  0.44812777958E+02  0.61309190507E+02  0.10570000000E+00 0.  1.
<mgrwt>
<rscale>  0 0.87417351E+02</rscale>
<asrwt>0</asrwt>
<pdfrwt beam="1">  1        2 0.22970097E-01 0.87417351E+02</pdfrwt>
<pdfrwt beam="2">  1       -2 0.19685468E-02 0.87417351E+02</pdfrwt>
<totfact> 0.15643049E+05</totfact>
</mgrwt>
</event>
<event>
 5   1  0.1343823E+00  0.9247221E+02  0.7818608E-02  0.1296973E+00
         -2   -1    0    0    0  501 -0.00000000000E+00  0.00000000000E+00  0.13379743188E+02  0.13379743441E+02  0.26000000000E-02 0.  1.
          2   -1    0    0  501    0  0.00000000000E+00 -0.00000000000E+00 -0.15977716352E+03  0.15977716354E+03  0.26000000000E-02 0. -1.
         23    2    1    2    0    0  0.00000000000E+00  0.00000000000E+00 -0.14639742033E+03  0.17315690698E+03  0.92472210720E+02 0.  0.
        -13    1    3    3    0    0  0.20681793185E+02 -0.22596533768E+02 -0.83479048362E+01  0.31749623546E+02  0.10570000000E+00 0.  1.
         13    1    3    3    0    0 -0.20681793185E+02  0.22596533768E+02 -0.13804951549E+03  0.14140728343E+03  0.10570000000E+00 0. -1.
<mgrwt>
<rscale>  0 0.92472211E+02</rscale>
<asrwt>0</asrwt>
<pdfrwt beam="2">  1        2 0.24581101E-01 0.92472211E+02</pdfrwt>
<pdfrwt beam="1">  1       -2 0.20584222E-02 0.92472211E+02</pdfrwt>
<totfact> 0.13750166E+05</totfact>
</mgrwt>
</event>
<event>
 5   1  0.1343823E+00  0.8071831E+02  0.7818608E-02  0.1327025E+00
          2   -1    0    0  501    0  0.00000000000E+00  0.00000000000E+00  0.39203877359E+02  0.39203877446E+02  0.26000000000E-02 0. -1.
         -2   -1    0    0    0  501 -0.00000000000E+00 -0.00000000000E+00 -0.41548479287E+02  0.41548479369E+02  0.26000000000E-02 0.  1.
         23    2    1    2    0    0  0.00000000000E+00  0.00000000000E+00 -0.23446019278E+01  0.80752356814E+02  0.80718312500E+02 0.  0.
        -13    1    3    3    0    0  0.14926075724E+02 -0.16935630701E+02  0.32296958346E+02  0.39404416183E+02  0.10570000000E+00 0. -1.
         13    1    3    3    0    0 -0.14926075724E+02  0.16935630701E+02 -0.34641560274E+02  0.41347940632E+02  0.10570000000E+00 0.  1.
<mgrwt>
<rscale>  0 0.80718313E+02</rscale>
<asrwt>0</asrwt>
<pdfrwt beam="1">  1        2 0.60313657E-02 0.80718313E+02</pdfrwt>
<pdfrwt beam="2">  1       -2 0.63920738E-02 0.80718313E+02</pdfrwt>
<totfact> 0.13448553E+05</totfact>
</mgrwt>
</event>
<event>
 5   1  0.1343823E+00  0.8656586E+02  0.7818608E-02  0.1311388E+00
         -2   -1    0    0    0  501 -0.00000000000E+00  0.00000000000E+00  0.93973346556E+01  0.93973350152E+01  0.26000000000E-02 0.  1.
          2   -1    0    0  501    0  0.00000000000E+00 -0.00000000000E+00 -0.19935566280E+03  0.19935566282E+03  0.26000000000E-02 0. -1.
         23    2    1    2    0    0  0.00000000000E+00  0.00000000000E+00 -0.18995832814E+03  0.20875299783E+03  0.86565857429E+02 0.  0.
        -13    1    3    3    0    0  0.16859392807E+02  0.39287041269E+02 -0.78678822562E+02  0.89543726915E+02  0.10570000000E+00 0. -1.
         13    1    3    3    0    0 -0.16859392807E+02 -0.39287041269E+02 -0.11127950558E+03  0.11920927092E+03  0.10570000000E+00 0.  1.
<mgrwt>
<rscale>  0 0.86565857E+02</rscale>
<asrwt>0</asrwt>
<pdfrwt beam="2">  1        2 0.30670099E-01 0.86565857E+02</pdfrwt>
<pdfrwt beam="1">  1       -2 0.14457440E-02 0.86565857E+02</pdfrwt>
<totfact> 0.17757636E+05</totfact>
</mgrwt>
</event>
<event>
 5   1  0.1343823E+00  0.9421433E+02  0.7818608E-02  0.1292955E+00
         -2   -1    0    0    0  501 -0.00000000000E+00  0.00000000000E+00  0.90103799970E+01  0.90103803721E+01  0.26000000000E-02 0.  1.
          2   -1    0    0  501    0  0.00000000000E+00 -0.00000000000E+00 -0.24628096887E+03  0.24628096889E+03  0.26000000000E-02 0. -1.
         23    2    1    2    0    0  0.00000000000E+00  0.00000000000E+00 -0.23727058888E+03  0.25529134926E+03  0.94214333627E+02 0.  0.
        -13    1    3    3    0    0  0.41416958171E+02  0.14027567141E+02 -0.71162621040E+02  0.83524049649E+02  0.10570000000E+00 0.  1.
         13    1    3    3    0    0 -0.41416958171E+02 -0.14027567141E+02 -0.16610796784E+03  0.17176729961E+03  0.10570000000E+00 0. -1.
<mgrwt>
<rscale>  0 0.94214334E+02</rscale>
<asrwt>0</asrwt>
<pdfrwt beam="2">  1        2 0.37889375E-01 0.94214334E+02</pdfrwt>
<pdfrwt beam="1">  1       -2 0.13862125E-02 0.94214334E+02</pdfrwt>
<totfact> 0.15286779E+05</totfact>
</mgrwt>
</event>
<event>
 5   1  0.1343823E+00  0.9082907E+02  0.7818608E-02  0.1300856E+00
         -2   -1    0    0    0  501 -0.00000000000E+00  0.00000000000E+00  0.52764928238E+02  0.52764928302E+02  0.26000000000E-02 0.  1.
          2   -1    0    0  501    0  0.00000000000E+00 -0.00000000000E+00 -0.39088082000E+02  0.39088082087E+02  0.26000000000E-02 0. -1.
         23    2    1    2    0    0  0.00000000000E+00  0.00000000000E+00  0.13676846238E+02  0.91853010389E+02  0.90829066903E+02 0.  0.
        -13    1    3    3    0    0  0.38362837435E+02  0.16028346545E+02 -0.11639216826E+02  0.43175198087E+02  0.10570000000E+00 0. -1.
         13    1    3    3    0    0 -0.38362837435E+02 -0.16028346545E+02  0.25316063064E+02  0.48677812302E+02  0.10570000000E+00 0.  1.
<mgrwt>
<rscale>  0 0.90829067E+02</rscale>
<asrwt>0</asrwt>
<pdfrwt beam="2">  1        2 0.60135511E-02 0.90829067E+02</pdfrwt>
<pdfrwt beam="1">  1       -2 0.81176812E-02 0.90829067E+02</pdfrwt>
<totfact> 0.95877276E+04</totfact>
</mgrwt>
</event>
<event>
 5   1  0.1343823E+00  0.9179645E+02  0.7818608E-02  0.1298559E+00
         -2   -1    0    0    0  501 -0.00000000000E+00  0.00000000000E+00  0.15837236192E+03  0.15837236194E+03  0.26000000000E-02 0.  1.
          2   -1    0    0  501    0  0.00000000000E+00 -0.00000000000E+00 -0.13301859706E+02  0.13301859961E+02  0.26000000000E-02 0. -1.
         23    2    1    2    0    0  0.00000000000E+00  0.00000000000E+00  0.14507050221E+03  0.17167422190E+03  0.91796447933E+02 0.  0.
        -13    1    3    3    0    0 -0.40190477298E+02  0.17967146712E+02  0.48256042574E+02  0.65320361633E+02  0.10570000000E+00 0. -1.
         13    1    3    3    0    0  0.40190477298E+02 -0.17967146712E+02  0.96814459639E+02  0.10635386027E+03  0.10570000000E+00 0.  1.
<mgrwt>
<rscale>  0 0.91796448E+02</rscale>
<asrwt>0</asrwt>
<pdfrwt beam="2">  1        2 0.20464400E-02 0.91796448E+02</pdfrwt>
<pdfrwt beam="1">  1       -2 0.24364978E-01 0.91796448E+02</pdfrwt>
<totfact> 0.67300788E+04</totfact>
</mgrwt>
</event>
<event>
 5   1  0.1343823E+00  0.9074211E+02  0.7818608E-02  0.1301064E+00
         -2   -1    0    0    0  501 -0.00000000000E+00  0.00000000000E+00  0.94227953956E+01  0.94227957543E+01  0.26000000000E-02 0. -1.
          2   -1    0    0  501    0  0.00000000000E+00 -0.00000000000E+00 -0.21846304893E+03  0.21846304895E+03  0.26000000000E-02 0.  1.
         23    2    1    2    0    0  0.00000000000E+00  0.00000000000E+00 -0.20904025354E+03  0.22788584470E+03  0.90742110494E+02 0.  0.
        -13    1    3    3    0    0 -0.32223097089E+02  0.31600302088E+02 -0.92844502705E+02  0.10323284329E+03  0.10570000000E+00 0.  1.
         13    1    3    3    0    0  0.32223097089E+02 -0.31600302088E+02 -0.11619575083E+03  0.12465300142E+03  0.10570000000E+00 0. -1.
<mgrwt>
<rscale>  0 0.90742110E+02</rscale>
<asrwt>0</asrwt>
<pdfrwt beam="2">  1        2 0.33609696E-01 0.90742110E+02</pdfrwt>
<pdfrwt beam="1">  1       -2 0.14496610E-02 0.90742110E+02</pdfrwt>
<totfact> 0.16179285E+05</totfact>
</mgrwt>
</event>
<event>
 5   1  0.1343823E+00  0.9160682E+02  0.7818608E-02  0.1299007E+00
         -2   -1    0    0    0  501 -0.00000000000E+00  0.00000000000E+00  0.11891786499E+02  0.11891786783E+02  0.26000000000E-02 0.  1.
          2   -1    0    0  501    0  0.00000000000E+00 -0.00000000000E+00 -0.17642026465E+03  0.17642026467E+03  0.26000000000E-02 0. -1.
         23    2    1    2    0    0  0.00000000000E+00  0.00000000000E+00 -0.16452847815E+03  0.18831205145E+03  0.91606815246E+02 0.  0.
        -13    1    3    3    0    0  0.19120837187E+01 -0.28303187209E+02 -0.83402126669E+01  0.29568510111E+02  0.10570000000E+00 0.  1.
         13    1    3    3    0    0 -0.19120837187E+01  0.28303187209E+02 -0.15618826548E+03  0.15874354134E+03  0.10570000000E+00 0. -1.
<mgrwt>
<rscale>  0 0.91606815E+02</rscale>
<asrwt>0</asrwt>
<pdfrwt beam="2">  1        2 0.27141577E-01 0.91606815E+02</pdfrwt>
<pdfrwt beam="1">  1       -2 0.18295058E-02 0.91606815E+02</pdfrwt>
<totfact> 0.14602067E+05</totfact>
</mgrwt>
</event>
<event>
 5   1  0.1343823E+00  0.8909251E+02  0.7818608E-02  0.1305064E+00
          2   -1    0    0  501    0  0.00000000000E+00  0.00000000000E+00  0.11425113343E+03  0.11425113346E+03  0.26000000000E-02 0. -1.
         -2   -1    0    0    0  501 -0.00000000000E+00 -0.00000000000E+00 -0.17368481828E+02  0.17368482023E+02  0.26000000000E-02 0.  1.
         23    2    1    2    0    0  0.00000000000E+00  0.00000000000E+00  0.96882651604E+02  0.13161961548E+03  0.89092508094E+02 0.  0.
        -13    1    3    3    0    0  0.22996138917E+02  0.34715964376E+02  0.25066846502E+02  0.48604305917E+02  0.10570000000E+00 0.  1.
         13    1    3    3    0    0 -0.22996138917E+02 -0.34715964376E+02  0.71815805102E+02  0.83015309567E+02  0.10570000000E+00 0. -1.
<mgrwt>
<rscale>  0 0.89092508E+02</rscale>
<asrwt>0</asrwt>
<pdfrwt beam="1">  1        2 0.17577097E-01 0.89092508E+02</pdfrwt>
<pdfrwt beam="2">  1       -2 0.26720743E-02 0.89092508E+02</pdfrwt>
<totfact> 0.13619112E+05</totfact>
</mgrwt>
</event>
<event>
 5   1  0.1343823E+00  0.9493765E+02  0.7818608E-02  0.1291317E+00
          2   -1    0    0  501    0  0.00000000000E+00  0.00000000000E+00  0.68784134748E+02  0.68784134798E+02  0.26000000000E-02 0.  1.
         -2   -1    0    0    0  501 -0.00000000000E+00 -0.00000000000E+00 -0.32758853639E+02  0.32758853742E+02  0.26000000000E-02 0. -1.
         23    2    1    2    0    0  0.00000000000E+00  0.00000000000E+00  0.36025281110E+02  0.10154298854E+03  0.94937651343E+02 0.  0.
        -13    1    3    3    0    0  0.26038812282E+02  0.12074665361E+02  0.58451379634E+02  0.65118294221E+02  0.10570000000E+00 0.  1.
         13    1    3    3    0    0 -0.26038812282E+02 -0.12074665361E+02 -0.22426098524E+02  0.36424694318E+02  0.10570000000E+00 0. -1.
<mgrwt>
<rscale>  0 0.94937651E+02</rscale>
<asrwt>0</asrwt>
<pdfrwt beam="1">  1        2 0.10582174E-01 0.94937651E+02</pdfrwt>
<pdfrwt beam="2">  1       -2 0.50398237E-02 0.94937651E+02</pdfrwt>
<totfact> 0.98256495E+04</totfact>
</mgrwt>
</event>
<event>
 5   1  0.1343823E+00  0.8893402E+02  0.7818608E-02  0.1305454E+00
          2   -1    0    0  501    0  0.00000000000E+00  0.00000000000E+00  0.30896990621E+02  0.30896990730E+02  0.26000000000E-02 0. -1.
         -2   -1    0    0    0  501 -0.00000000000E+00 -0.00000000000E+00 -0.63997010743E+02  0.63997010796E+02  0.26000000000E-02 0.  1.
         23    2    1    2    0    0  0.00000000000E+00  0.00000000000E+00 -0.33100020122E+02  0.94894001526E+02  0.88934021575E+02 0.  0.
        -13    1    3    3    0    0 -0.24983951231E+02  0.36023448294E+02 -0.24493168682E+02  0.50217657558E+02  0.10570000000E+00 0.  1.
         13    1    3    3    0    0  0.24983951231E+02 -0.36023448294E+02 -0.86068514398E+01  0.44676343967E+02  0.10570000000E+00 0. -1.
<mgrwt>
<rscale>  0 0.88934022E+02</rscale>
<asrwt>0</asrwt>
<pdfrwt beam="1">  1        2 0.47533832E-02 0.88934022E+02</pdfrwt>
<pdfrwt beam="2">  1       -2 0.98456939E-02 0.88934022E+02</pdfrwt>
<totfact> 0.95956882E+04</totfact>
</mgrwt>
</event>
<event>
 5   1  0.1343823E+00  0.1007858E+03  0.7818608E-02  0.1278652E+00
         -2   -1    0    0    0  501 -0.00000000000E+00  0.00000000000E+00  0.52228882155E+02  0.52228882219E+02  0.26000000000E-02 0.  1.
          2   -1    0    0  501    0  0.00000000000E+00 -0.00000000000E+00 -0.48621438868E+02  0.48621438938E+02  0.26000000000E-02 0. -1.
         23    2    1    2    0    0  0.00000000000E+00  0.00000000000E+00  0.36074432862E+01  0.10085032116E+03  0.10078578089E+03 0.  0.
        -13    1    3    3    0    0  0.19537166375E+02 -0.18265298705E+02  0.44540675090E+02  0.51953872972E+02  0.10570000000E+00 0.  1.
         13    1    3    3    0    0 -0.19537166375E+02  0.18265298705E+02 -0.40933231804E+02  0.48896448186E+02  0.10570000000E+00 0. -1.
<mgrwt>
<rscale>  0 0.10078578E+03</rscale>
<asrwt>0</asrwt>
<pdfrwt beam="2">  1        2 0.74802214E-02 0.10078578E+03</pdfrwt>
<pdfrwt beam="1">  1       -2 0.80352126E-02 0.10078578E+03</pdfrwt>
<totfact> 0.75124869E+04</totfact>
</mgrwt>
</event>
<event>
 5   1  0.1343823E+00  0.9360068E+02  0.7818608E-02  0.1294359E+00
         -2   -1    0    0    0  501 -0.00000000000E+00  0.00000000000E+00  0.11825414569E+02  0.11825414855E+02  0.26000000000E-02 0.  1.
          2   -1    0    0  501    0  0.00000000000E+00 -0.00000000000E+00 -0.18521735622E+03  0.18521735623E+03  0.26000000000E-02 0. -1.
         23    2    1    2    0    0  0.00000000000E+00  0.00000000000E+00 -0.17339194165E+03  0.19704277109E+03  0.93600684883E+02 0.  0.
        -13    1    3    3    0    0 -0.26366504533E+02  0.38169399549E+02 -0.99701127108E+02  0.10996554707E+03  0.10570000000E+00 0. -1.
         13    1    3    3    0    0  0.26366504533E+02 -0.38169399549E+02 -0.73690814538E+02  0.87077224020E+02  0.10570000000E+00 0.  1.
<mgrwt>
<rscale>  0 0.93600685E+02</rscale>
<asrwt>0</asrwt>
<pdfrwt beam="2">  1        2 0.28494976E-01 0.93600685E+02</pdfrwt>
<pdfrwt beam="1">  1       -2 0.18192947E-02 0.93600685E+02</pdfrwt>
<totfact> 0.14016433E+05</totfact>
</mgrwt>
</event>
<event>
 5   1  0.1343823E+00  0.9208166E+02  0.7818608E-02  0.1297888E+00
         -2   -1    0    0    0  501 -0.00000000000E+00  0.00000000000E+00  0.11323936740E+03  0.11323936743E+03  0.26000000000E-02 0. -1.
          2   -1    0    0  501    0  0.00000000000E+00 -0.00000000000E+00 -0.18719269551E+02  0.18719269732E+02  0.26000000000E-02 0.  1.
         23    2    1    2    0    0  0.00000000000E+00  0.00000000000E+00  0.94520097853E+02  0.13195863717E+03  0.92081664974E+02 0.  0.
        -13    1    3    3    0    0  0.14981803029E+02  0.40424288722E+02  0.24100722570E+02  0.49390622000E+02  0.10570000000E+00 0.  1.
         13    1    3    3    0    0 -0.14981803029E+02 -0.40424288722E+02  0.70419375283E+02  0.82568015166E+02  0.10570000000E+00 0. -1.
<mgrwt>
<rscale>  0 0.92081665E+02</rscale>
<asrwt>0</asrwt>
<pdfrwt beam="2">  1        2 0.28798876E-02 0.92081665E+02</pdfrwt>
<pdfrwt beam="1">  1       -2 0.17421441E-01 0.92081665E+02</pdfrwt>
<totfact> 0.74947237E+04</totfact>
</mgrwt>
</event>
<event>
 5   1  0.1343823E+00  0.9253484E+02  0.7818608E-02  0.1296827E+00
         -2   -1    0    0    0  501 -0.00000000000E+00  0.00000000000E+00  0.11912363808E+02  0.11912364092E+02  0.26000000000E-02 0. -1.
          2   -1    0    0  501    0  0.00000000000E+00 -0.00000000000E+00 -0.17970186671E+03  0.17970186673E+03  0.26000000000E-02 0.  1.
         23    2    1    2    0    0  0.00000000000E+00  0.00000000000E+00 -0.16778950291E+03  0.19161423082E+03  0.92534837596E+02 0.  0.
        -13    1    3    3    0    0 -0.16087803846E+02 -0.40773374136E+02 -0.53224422476E+02  0.68950241416E+02  0.10570000000E+00 0. -1.
         13    1    3    3    0    0  0.16087803846E+02  0.40773374136E+02 -0.11456508043E+03  0.12266398941E+03  0.10570000000E+00 0.  1.
<mgrwt>
<rscale>  0 0.92534838E+02</rscale>
<asrwt>0</asrwt>
<pdfrwt beam="2">  1        2 0.27646439E-01 0.92534838E+02</pdfrwt>
<pdfrwt beam="1">  1       -2 0.18326715E-02 0.92534838E+02</pdfrwt>
<totfact> 0.14302445E+05</totfact>
</mgrwt>
</event>
<event>
 5   1  0.1343823E+00  0.9463582E+02  0.7818608E-02  0.1291998E+00
          2   -1    0    0  501    0  0.00000000000E+00  0.00000000000E+00  0.52798339755E+02  0.52798339819E+02  0.26000000000E-02 0. -1.
         -2   -1    0    0    0  501 -0.00000000000E+00 -0.00000000000E+00 -0.42406346950E+02  0.42406347030E+02  0.26000000000E-02 0.  1.
         23    2    1    2    0    0  0.00000000000E+00  0.00000000000E+00  0.10391992805E+02  0.95204686848E+02  0.94635822411E+02 0.  0.
        -13    1    3    3    0    0 -0.38014265629E+01 -0.12203630850E+02 -0.40636549478E+02  0.42599527882E+02  0.10570000000E+00 0.  1.
         13    1    3    3    0    0  0.38014265629E+01  0.12203630850E+02  0.51028542283E+02  0.52605158966E+02  0.10570000000E+00 0. -1.
<mgrwt>
<rscale>  0 0.94635822E+02</rscale>
<asrwt>0</asrwt>
<pdfrwt beam="1">  1        2 0.81228215E-02 0.94635822E+02</pdfrwt>
<pdfrwt beam="2">  1       -2 0.65240534E-02 0.94635822E+02</pdfrwt>
<totfact> 0.92189938E+04</totfact>
</mgrwt>
</event>
<event>
 5   1  0.1343823E+00  0.9413868E+02  0.7818608E-02  0.1293128E+00
          2   -1    0    0  501    0  0.00000000000E+00  0.00000000000E+00  0.33123576667E+02  0.33123576769E+02  0.26000000000E-02 0.  1.
         -2   -1    0    0    0  501 -0.00000000000E+00 -0.00000000000E+00 -0.66886581574E+02  0.66886581624E+02  0.26000000000E-02 0. -1.
         23    2    1    2    0    0  0.00000000000E+00  0.00000000000E+00 -0.33763004906E+02  0.10001015839E+03  0.94138681113E+02 0.  0.
        -13    1    3    3    0    0  0.21969906385E+02  0.13351241346E+02 -0.58768808905E+02  0.64146056033E+02  0.10570000000E+00 0. -1.
         13    1    3    3    0    0 -0.21969906385E+02 -0.13351241346E+02  0.25005803998E+02  0.35864102361E+02  0.10570000000E+00 0.  1.
<mgrwt>
<rscale>  0 0.94138681E+02</rscale>
<asrwt>0</asrwt>
<pdfrwt beam="1">  1        2 0.50959349E-02 0.94138681E+02</pdfrwt>
<pdfrwt beam="2">  1       -2 0.10290243E-01 0.94138681E+02</pdfrwt>
<totfact> 0.82628907E+04</totfact>
</mgrwt>
</event>
<event>
 5   1  0.1343823E+00  0.9105012E+02  0.7818608E-02  0.1300328E+00
          2   -1    0    0  501    0  0.00000000000E+00  0.00000000000E+00  0.74220150614E+02  0.74220150660E+02  0.26000000000E-02 0.  1.
         -2   -1    0    0    0  501 -0.00000000000E+00 -0.00000000000E+00 -0.27924104986E+02  0.27924105107E+02  0.26000000000E-02 0. -1.
         23    2    1    2    0    0  0.00000000000E+00  0.00000000000E+00  0.46296045628E+02  0.10214425577E+03  0.91050124357E+02 0.  0.
        -13    1    3    3    0    0 -0.11843961097E+02  0.24441950979E+02 -0.17839027631E+02  0.32495083650E+02  0.10570000000E+00 0. -1.
         13    1    3    3    0    0  0.11843961097E+02 -0.24441950979E+02  0.64135073259E+02  0.69649172117E+02  0.10570000000E+00 0.  1.
<mgrwt>
<rscale>  0 0.91050124E+02</rscale>
<asrwt>0</asrwt>
<pdfrwt beam="1">  1        2 0.11418485E-01 0.91050124E+02</pdfrwt>
<pdfrwt beam="2">  1       -2 0.42960162E-02 0.91050124E+02</pdfrwt>
<totfact> 0.11287817E+05</totfact>
</mgrwt>
</event>
<event>
 5   1  0.1343823E+00  0.9009287E+02  0.7818608E-02  0.1302627E+00
          2   -1    0    0  501    0  0.00000000000E+00  0.00000000000E+00  0.32404507220E+03  0.32404507221E+03  0.26000000000E-02 0. -1.
         -2   -1    0    0    0  501 -0.00000000000E+00 -0.00000000000E+00 -0.62620333320E+01  0.62620338718E+01  0.26000000000E-02 0.  1.
         23    2    1    2    0    0  0.00000000000E+00  0.00000000000E+00  0.31778303886E+03  0.33030710608E+03  0.90092866178E+02 0.  0.
        -13    1    3    3    0    0  0.17542524354E+02 -0.36867113448E+02  0.22867122955E+03  0.23228746546E+03  0.10570000000E+00 0. -1.
         13    1    3    3    0    0 -0.17542524354E+02  0.36867113448E+02  0.89111809314E+02  0.98019640616E+02  0.10570000000E+00 0.  1.
<mgrwt>
<rscale>  0 0.90092866E+02</rscale>
<asrwt>0</asrwt>
<pdfrwt beam="1">  1        2 0.49853109E-01 0.90092866E+02</pdfrwt>
<pdfrwt beam="2">  1       -2 0.96338939E-03 0.90092866E+02</pdfrwt>
<totfact> 0.19085726E+05</totfact>
</mgrwt>
</event>
<event>
 5   1  0.1343823E+00  0.9392288E+02  0.7818608E-02  0.1293621E+00
          2   -1    0    0  501    0  0.00000000000E+00  0.00000000000E+00  0.61691388393E+02  0.61691388448E+02  0.26000000000E-02 0. -1.
         -2   -1    0    0    0  501 -0.00000000000E+00 -0.00000000000E+00 -0.35748535741E+02  0.35748535836E+02  0.26000000000E-02 0.  1.
         23    2    1    2    0    0  0.00000000000E+00  0.00000000000E+00  0.25942852652E+02  0.97439924283E+02  0.93922879218E+02 0.  0.
        -13    1    3    3    0    0  0.19826062176E+02  0.41771610550E+01 -0.30980601900E+02  0.37017972425E+02  0.10570000000E+00 0.  1.
         13    1    3    3    0    0 -0.19826062176E+02 -0.41771610550E+01  0.56923454551E+02  0.60421951859E+02  0.10570000000E+00 0. -1.
<mgrwt>
<rscale>  0 0.93922879E+02</rscale>
<asrwt>0</asrwt>
<pdfrwt beam="1">  1        2 0.94909829E-02 0.93922879E+02</pdfrwt>
<pdfrwt beam="2">  1       -2 0.54997747E-02 0.93922879E+02</pdfrwt>
<totfact> 0.98268658E+04</totfact>
</mgrwt>
</event>
<event>
 5   1  0.1343823E+00  0.9013697E+02  0.7818608E-02  0.1302520E+00
         -2   -1    0    0    0  501 -0.00000000000E+00  0.00000000000E+00  0.32831204361E+03  0.32831204362E+03  0.26000000000E-02 0.  1.
          2   -1    0    0  501    0  0.00000000000E+00 -0.00000000000E+00 -0.61867008827E+01  0.61867014290E+01  0.26000000000E-02 0. -1.
         23    2    1    2    0    0  0.00000000000E+00  0.00000000000E+00  0.32212534272E+03  0.33449874505E+03  0.90136973614E+02 0.  0.
        -13    1    3    3    0    0  0.38599985412E+02 -0.14270490343E+02  0.22924339110E+03  0.23290802756E+03  0.10570000000E+00 0.  1.
         13    1    3    3    0    0 -0.38599985412E+02  0.14270490343E+02  0.92881951627E+02  0.10159071748E+03  0.10570000000E+00 0. -1.
<mgrwt>
<rscale>  0 0.90136974E+02</rscale>
<asrwt>0</asrwt>
<pdfrwt beam="2">  1        2 0.95179986E-03 0.90136974E+02</pdfrwt>
<pdfrwt beam="1">  1       -2 0.50509562E-01 0.90136974E+02</pdfrwt>
<totfact> 0.49857645E+04</totfact>
</mgrwt>
</event>
<event>
 5   1  0.1343823E+00  0.9073868E+02  0.7818608E-02  0.1301073E+00
          2   -1    0    0  501    0  0.00000000000E+00  0.00000000000E+00  0.18967613560E+03  0.18967613562E+03  0.26000000000E-02 0. -1.
         -2   -1    0    0    0  501 -0.00000000000E+00 -0.00000000000E+00 -0.10852060096E+02  0.10852060408E+02  0.26000000000E-02 0.  1.
         23    2    1    2    0    0  0.00000000000E+00  0.00000000000E+00  0.17882407550E+03  0.20052819603E+03  0.90738676546E+02 0.  0.
        -13    1    3    3    0    0 -0.29966001413E+02 -0.79654444828E+01  0.16260640103E+03  0.16553628718E+03  0.10570000000E+00 0. -1.
         13    1    3    3    0    0  0.29966001413E+02  0.79654444828E+01  0.16217674474E+02  0.34991908840E+02  0.10570000000E+00 0.  1.
<mgrwt>
<rscale>  0 0.90738677E+02</rscale>
<asrwt>0</asrwt>
<pdfrwt beam="1">  1        2 0.29180944E-01 0.90738677E+02</pdfrwt>
<pdfrwt beam="2">  1       -2 0.16695477E-02 0.90738677E+02</pdfrwt>
<totfact> 0.15373819E+05</totfact>
</mgrwt>
</event>
<event>
 5   1  0.1343823E+00  0.9166683E+02  0.7818608E-02  0.1298865E+00
         -2   -1    0    0    0  501 -0.00000000000E+00  0.00000000000E+00  0.13649925054E+03  0.13649925056E+03  0.26000000000E-02 0.  1.
          2   -1    0    0  501    0  0.00000000000E+00 -0.00000000000E+00 -0.15389841777E+02  0.15389841997E+02  0.26000000000E-02 0. -1.
         23    2    1    2    0    0  0.00000000000E+00  0.00000000000E+00  0.12110940876E+03  0.15188909256E+03  0.91666829051E+02 0.  0.
        -13    1    3    3    0    0  0.23908723062E+02 -0.27455151718E+02  0.14418358016E+02  0.39157535861E+02  0.10570000000E+00 0. -1.
         13    1    3    3    0    0 -0.23908723062E+02  0.27455151718E+02  0.10669105074E+03  0.11273155670E+03  0.10570000000E+00 0.  1.
<mgrwt>
<rscale>  0 0.91666829E+02</rscale>
<asrwt>0</asrwt>
<pdfrwt beam="2">  1        2 0.23676679E-02 0.91666829E+02</pdfrwt>
<pdfrwt beam="1">  1       -2 0.20999886E-01 0.91666829E+02</pdfrwt>
<totfact> 0.71262918E+04</totfact>
</mgrwt>
</event>
<event>
 5   1  0.1343823E+00  0.9004120E+02  0.7818608E-02  0.1302752E+00
          2   -1    0    0  501    0  0.00000000000E+00  0.00000000000E+00  0.44783547312E+02  0.44783547387E+02  0.26000000000E-02 0. -1.
         -2   -1    0    0    0  501 -0.00000000000E+00 -0.00000000000E+00 -0.45258910196E+02  0.45258910270E+02  0.26000000000E-02 0.  1.
         23    2    1    2    0    0  0.00000000000E+00  0.00000000000E+00 -0.47536288392E+00  0.90042457657E+02  0.90041202852E+02 0.  0.
        -13    1    3    3    0    0  0.48420879833E+01  0.25323909523E+02  0.36669433524E+02  0.44826384385E+02  0.10570000000E+00 0. -1.
         13    1    3    3    0    0 -0.48420879833E+01 -0.25323909523E+02 -0.37144796408E+02  0.45216073273E+02  0.10570000000E+00 0.  1.
<mgrwt>
<rscale>  0 0.90041203E+02</rscale>
<asrwt>0</asrwt>
<pdfrwt beam="1">  1        2 0.68897765E-02 0.90041203E+02</pdfrwt>
<pdfrwt beam="2">  1       -2 0.69629093E-02 0.90041203E+02</pdfrwt>
<totfact> 0.10181381E+05</totfact>
</mgrwt>
</event>
<event>
 5   1  0.1343823E+00  0.9079942E+02  0.7818608E-02  0.1300927E+00
          2   -1    0    0  501    0  0.00000000000E+00  0.00000000000E+00  0.98706224288E+02  0.98706224322E+02  0.26000000000E-02 0. -1.
         -2   -1    0    0    0  501 -0.00000000000E+00 -0.00000000000E+00 -0.20881495427E+02  0.20881495589E+02  0.26000000000E-02 0.  1.
         23    2    1    2    0    0  0.00000000000E+00  0.00000000000E+00  0.77824728861E+02  0.11958771991E+03  0.90799418121E+02 0.  0.
        -13    1    3    3    0    0 -0.30978099923E+02  0.33166099602E+02  0.37304925920E+02  0.58747778750E+02  0.10570000000E+00 0.  1.
         13    1    3    3    0    0  0.30978099923E+02 -0.33166099602E+02  0.40519802941E+02  0.60839941161E+02  0.10570000000E+00 0. -1.
<mgrwt>
<rscale>  0 0.90799418E+02</rscale>
<asrwt>0</asrwt>
<pdfrwt beam="1">  1        2 0.15185573E-01 0.90799418E+02</pdfrwt>
<pdfrwt beam="2">  1       -2 0.32125377E-02 0.90799418E+02</pdfrwt>
<totfact> 0.12359492E+05</totfact>
</mgrwt>
</event>
<event>
 5   1  0.1343823E+00  0.8958794E+02  0.7818608E-02  0.1303853E+00
          2   -1    0    0  501    0  0.00000000000E+00  0.00000000000E+00  0.38961185539E+03  0.38961185540E+03  0.26000000000E-02 0. -1.
         -2   -1    0    0    0  501 -0.00000000000E+00 -0.00000000000E+00 -0.51499964610E+01  0.51499971173E+01  0.26000000000E-02 0.  1.
         23    2    1    2    0    0  0.00000000000E+00  0.00000000000E+00  0.38446185893E+03  0.39476185252E+03  0.89587941324E+02 0.  0.
        -13    1    3    3    0    0 -0.43505569445E+02  0.67565209915E+01  0.15586704289E+03  0.16196583399E+03  0.10570000000E+00 0.  1.
         13    1    3    3    0    0  0.43505569445E+02 -0.67565209915E+01  0.22859481604E+03  0.23279601852E+03  0.10570000000E+00 0. -1.
<mgrwt>
<rscale>  0 0.89587941E+02</rscale>
<asrwt>0</asrwt>
<pdfrwt beam="1">  1        2 0.59940298E-01 0.89587941E+02</pdfrwt>
<pdfrwt beam="2">  1       -2 0.79230703E-03 0.89587941E+02</pdfrwt>
<totfact> 0.20718782E+05</totfact>
</mgrwt>
</event>
<event>
 5   1  0.1343823E+00  0.9401114E+02  0.7818608E-02  0.1293419E+00
         -2   -1    0    0    0  501 -0.00000000000E+00  0.00000000000E+00  0.10929594356E+02  0.10929594665E+02  0.26000000000E-02 0.  1.
          2   -1    0    0  501    0  0.00000000000E+00 -0.00000000000E+00 -0.20215972372E+03  0.20215972374E+03  0.26000000000E-02 0. -1.
         23    2    1    2    0    0  0.00000000000E+00  0.00000000000E+00 -0.19123012937E+03  0.21308931840E+03  0.94011144234E+02 0.  0.
        -13    1    3    3    0    0 -0.29873135481E+02  0.33740609354E+02 -0.65316647422E+02  0.79354322794E+02  0.10570000000E+00 0.  1.
         13    1    3    3    0    0  0.29873135481E+02 -0.33740609354E+02 -0.12591348194E+03  0.13373499561E+03  0.10570000000E+00 0. -1.
<mgrwt>
<rscale>  0 0.94011144E+02</rscale>
<asrwt>0</asrwt>
<pdfrwt beam="2">  1        2 0.31101493E-01 0.94011144E+02</pdfrwt>
<pdfrwt beam="1">  1       -2 0.16814762E-02 0.94011144E+02</pdfrwt>
<totfact> 0.14297004E+05</totfact>
</mgrwt>
</event>
<event>
 5   1  0.1343823E+00  0.9129922E+02  0.7818608E-02  0.1299736E+00
          2   -1    0    0  501    0  0.00000000000E+00  0.00000000000E+00  0.61692414034E+02  0.61692414088E+02  0.26000000000E-02 0. -1.
         -2   -1    0    0    0  501 -0.00000000000E+00 -0.00000000000E+00 -0.33778654259E+02  0.33778654359E+02  0.26000000000E-02 0.  1.
         23    2    1    2    0    0  0.00000000000E+00  0.00000000000E+00  0.27913759774E+02  0.95471068448E+02  0.91299216458E+02 0.  0.
        -13    1    3    3    0    0  0.23926305346E+02 -0.16025114044E+02 -0.23082006996E+02  0.36906132107E+02  0.10570000000E+00 0.  1.
         13    1    3    3    0    0 -0.23926305346E+02  0.16025114044E+02  0.50995766770E+02  0.58564936341E+02  0.10570000000E+00 0. -1.
<mgrwt>
<rscale>  0 0.91299216E+02</rscale>
<asrwt>0</asrwt>
<pdfrwt beam="1">  1        2 0.94911405E-02 0.91299216E+02</pdfrwt>
<pdfrwt beam="2">  1       -2 0.51967161E-02 0.91299216E+02</pdfrwt>
<totfact> 0.10646261E+05</totfact>
</mgrwt>
</event>
<event>
 5   1  0.1343823E+00  0.9146123E+02  0.7818608E-02  0.1299351E+00
          2   -1    0    0  501    0  0.00000000000E+00  0.00000000000E+00  0.66356894508E+02  0.66356894559E+02  0.26000000000E-02 0.  1.
         -2   -1    0    0    0  501 -0.00000000000E+00 -0.00000000000E+00 -0.31515778080E+02  0.31515778187E+02  0.26000000000E-02 0. -1.
         23    2    1    2    0    0  0.00000000000E+00  0.00000000000E+00  0.34841116428E+02  0.97872672746E+02  0.91461230456E+02 0.  0.
        -13    1    3    3    0    0  0.20185169422E+02  0.33387588645E+02  0.42948801850E+02  0.58023985497E+02  0.10570000000E+00 0.  1.
         13    1    3    3    0    0 -0.20185169422E+02 -0.33387588645E+02 -0.81076854213E+01  0.39848687249E+02  0.10570000000E+00 0. -1.
<mgrwt>
<rscale>  0 0.91461230E+02</rscale>
<asrwt>0</asrwt>
<pdfrwt beam="1">  1        2 0.10208753E-01 0.91461230E+02</pdfrwt>
<pdfrwt beam="2">  1       -2 0.48485813E-02 0.91461230E+02</pdfrwt>
<totfact> 0.10805396E+05</totfact>
</mgrwt>
</event>
<event>
 5   1  0.1343823E+00  0.1024223E+03  0.7818608E-02  0.1275283E+00
         -2   -1    0    0    0  501 -0.00000000000E+00  0.00000000000E+00  0.54393000245E+01  0.54393006459E+01  0.26000000000E-02 0. -1.
          2   -1    0    0  501    0  0.00000000000E+00 -0.00000000000E+00 -0.48215446508E+03  0.48215446509E+03  0.26000000000E-02 0.  1.
         23    2    1    2    0    0  0.00000000000E+00  0.00000000000E+00 -0.47671516506E+03  0.48759376574E+03  0.10242232075E+03 0.  0.
        -13    1    3    3    0    0  0.50467084311E+02  0.41095859313E+01 -0.20186610789E+03  0.20811956175E+03  0.10570000000E+00 0. -1.
         13    1    3    3    0    0 -0.50467084311E+02 -0.41095859313E+01 -0.27484905717E+03  0.27947420399E+03  0.10570000000E+00 0.  1.
<mgrwt>
<rscale>  0 0.10242232E+03</rscale>
<asrwt>0</asrwt>
<pdfrwt beam="2">  1        2 0.74177576E-01 0.10242232E+03</pdfrwt>
<pdfrwt beam="1">  1       -2 0.83681582E-03 0.10242232E+03</pdfrwt>
<totfact> 0.15619496E+05</totfact>
</mgrwt>
</event>
<event>
 5   1  0.1343823E+00  0.1271873E+03  0.7818608E-02  0.1231690E+00
          2   -1    0    0  501    0  0.00000000000E+00  0.00000000000E+00  0.55988771941E+02  0.55988772001E+02  0.26000000000E-02 0. -1.
         -2   -1    0    0    0  501 -0.00000000000E+00 -0.00000000000E+00 -0.72231478095E+02  0.72231478142E+02  0.26000000000E-02 0.  1.
         23    2    1    2    0    0  0.00000000000E+00  0.00000000000E+00 -0.16242706154E+02  0.12822025014E+03  0.12718729120E+03 0.  0.
        -13    1    3    3    0    0 -0.48741763818E+02 -0.28551872145E+02 -0.37567678587E+02  0.67840331588E+02  0.10570000000E+00 0.  1.
         13    1    3    3    0    0  0.48741763818E+02  0.28551872145E+02  0.21324972433E+02  0.60379918555E+02  0.10570000000E+00 0. -1.
<mgrwt>
<rscale>  0 0.12718729E+03</rscale>
<asrwt>0</asrwt>
<pdfrwt beam="1">  1        2 0.86136572E-02 0.12718729E+03</pdfrwt>
<pdfrwt beam="2">  1       -2 0.11112535E-01 0.12718729E+03</pdfrwt>
<totfact> 0.39228289E+04</totfact>
</mgrwt>
</event>
<event>
 5   1  0.1343823E+00  0.9193867E+02  0.7818608E-02  0.1298224E+00
          2   -1    0    0  501    0  0.00000000000E+00  0.00000000000E+00  0.21283222469E+02  0.21283222628E+02  0.26000000000E-02 0. -1.
         -2   -1    0    0    0  501 -0.00000000000E+00 -0.00000000000E+00 -0.99288514102E+02  0.99288514136E+02  0.26000000000E-02 0.  1.
         23    2    1    2    0    0  0.00000000000E+00  0.00000000000E+00 -0.78005291633E+02  0.12057173676E+03  0.91938665335E+02 0.  0.
        -13    1    3    3    0    0  0.24503181575E+02 -0.38345525347E+02 -0.30464885718E+02  0.54762264889E+02  0.10570000000E+00 0. -1.
         13    1    3    3    0    0 -0.24503181575E+02  0.38345525347E+02 -0.47540405915E+02  0.65809471875E+02  0.10570000000E+00 0.  1.
<mgrwt>
<rscale>  0 0.91938665E+02</rscale>
<asrwt>0</asrwt>
<pdfrwt beam="1">  1        2 0.32743420E-02 0.91938665E+02</pdfrwt>
<pdfrwt beam="2">  1       -2 0.15275156E-01 0.91938665E+02</pdfrwt>
<totfact> 0.78336399E+04</totfact>
</mgrwt>
</event>
<event>
 5   1  0.1343823E+00  0.9469319E+02  0.7818608E-02  0.1291869E+00
         -2   -1    0    0    0  501 -0.00000000000E+00  0.00000000000E+00  0.10848151489E+02  0.10848151801E+02  0.26000000000E-02 0.  1.
          2   -1    0    0  501    0  0.00000000000E+00 -0.00000000000E+00 -0.20664349184E+03  0.20664349185E+03  0.26000000000E-02 0. -1.
         23    2    1    2    0    0  0.00000000000E+00  0.00000000000E+00 -0.19579534035E+03  0.21749164365E+03  0.94693187493E+02 0.  0.
        -13    1    3    3    0    0  0.46846325863E+02  0.34365469101E+01 -0.11154398182E+03  0.12103081903E+03  0.10570000000E+00 0. -1.
         13    1    3    3    0    0 -0.46846325863E+02 -0.34365469101E+01 -0.84251358528E+02  0.96460824628E+02  0.10570000000E+00 0.  1.
<mgrwt>
<rscale>  0 0.94693187E+02</rscale>
<asrwt>0</asrwt>
<pdfrwt beam="2">  1        2 0.31791303E-01 0.94693187E+02</pdfrwt>
<pdfrwt beam="1">  1       -2 0.16689466E-02 0.94693187E+02</pdfrwt>
<totfact> 0.14133049E+05</totfact>
</mgrwt>
</event>
<event>
 5   1  0.1343823E+00  0.9124846E+02  0.7818608E-02  0.1299856E+00
         -2   -1    0    0    0  501 -0.00000000000E+00  0.00000000000E+00  0.73518206087E+02  0.73518206133E+02  0.26000000000E-02 0.  1.
          2   -1    0    0  501    0  0.00000000000E+00 -0.00000000000E+00 -0.28313670532E+02  0.28313670651E+02  0.26000000000E-02 0. -1.
         23    2    1    2    0    0  0.00000000000E+00  0.00000000000E+00  0.45204535556E+02  0.10183187678E+03  0.91248458040E+02 0.  0.
        -13    1    3    3    0    0  0.28101805017E+02 -0.32380519933E+02  0.40011255481E+02  0.58644021469E+02  0.10570000000E+00 0.  1.
         13    1    3    3    0    0 -0.28101805017E+02  0.32380519933E+02  0.51932800744E+01  0.43187855316E+02  0.10570000000E+00 0. -1.
<mgrwt>
<rscale>  0 0.91248458E+02</rscale>
<asrwt>0</asrwt>
<pdfrwt beam="2">  1        2 0.43559493E-02 0.91248458E+02</pdfrwt>
<pdfrwt beam="1">  1       -2 0.11310493E-01 0.91248458E+02</pdfrwt>
<totfact> 0.86898123E+04</totfact>
</mgrwt>
</event>
<event>
 5   1  0.1343823E+00  0.9644990E+02  0.7818608E-02  0.1287944E+00
         -2   -1    0    0    0  501 -0.00000000000E+00  0.00000000000E+00  0.24343870698E+02  0.24343870837E+02  0.26000000000E-02 0.  1.
          2   -1    0    0  501    0  0.00000000000E+00 -0.00000000000E+00 -0.95533119961E+02  0.95533119996E+02  0.26000000000E-02 0. -1.
         23    2    1    2    0    0  0.00000000000E+00  0.00000000000E+00 -0.71189249263E+02  0.11987699083E+03  0.96449902647E+02 0.  0.
        -13    1    3    3    0    0 -0.15162573442E+02 -0.22847204351E+02  0.13711404845E+02  0.30657987137E+02  0.10570000000E+00 0.  1.
         13    1    3    3    0    0  0.15162573442E+02  0.22847204351E+02 -0.84900654108E+02  0.89219003696E+02  0.10570000000E+00 0. -1.
<mgrwt>
<rscale>  0 0.96449903E+02</rscale>
<asrwt>0</asrwt>
<pdfrwt beam="2">  1        2 0.14697403E-01 0.96449903E+02</pdfrwt>
<pdfrwt beam="1">  1       -2 0.37452109E-02 0.96449903E+02</pdfrwt>
<totfact> 0.10353157E+05</totfact>
</mgrwt>
</event>
<event>
 5   1  0.1343823E+00  0.9148850E+02  0.7818608E-02  0.1299287E+00
         -2   -1    0    0    0  501 -0.00000000000E+00  0.00000000000E+00  0.10663493007E+03  0.10663493010E+03  0.26000000000E-02 0. -1.
          2   -1    0    0  501    0  0.00000000000E+00 -0.00000000000E+00 -0.19623367002E+02  0.19623367174E+02  0.26000000000E-02 0.  1.
         23    2    1    2    0    0  0.00000000000E+00  0.00000000000E+00  0.87011563067E+02  0.12625829727E+03  0.91488499405E+02 0.  0.
        -13    1    3    3    0    0  0.10438944349E+02  0.31055473614E+02 -0.55013216077E+00  0.32767786290E+02  0.10570000000E+00 0.  1.
         13    1    3    3    0    0 -0.10438944349E+02 -0.31055473614E+02  0.87561695228E+02  0.93490510984E+02  0.10570000000E+00 0. -1.
<mgrwt>
<rscale>  0 0.91488499E+02</rscale>
<asrwt>0</asrwt>
<pdfrwt beam="2">  1        2 0.30189796E-02 0.91488499E+02</pdfrwt>
<pdfrwt beam="1">  1       -2 0.16405374E-01 0.91488499E+02</pdfrwt>
<totfact> 0.77606829E+04</totfact>
</mgrwt>
</event>
<event>
 5   1  0.1343823E+00  0.9079578E+02  0.7818608E-02  0.1300936E+00
         -2   -1    0    0    0  501 -0.00000000000E+00  0.00000000000E+00  0.20121268961E+02  0.20121269129E+02  0.26000000000E-02 0.  1.
          2   -1    0    0  501    0  0.00000000000E+00 -0.00000000000E+00 -0.10242735973E+03  0.10242735977E+03  0.26000000000E-02 0. -1.
         23    2    1    2    0    0  0.00000000000E+00  0.00000000000E+00 -0.82306090773E+02  0.12254862890E+03  0.90795781101E+02 0.  0.
        -13    1    3    3    0    0  0.41568856610E+02 -0.18008073838E+02 -0.45133391138E+02  0.63947593632E+02  0.10570000000E+00 0. -1.
         13    1    3    3    0    0 -0.41568856610E+02  0.18008073838E+02 -0.37172699635E+02  0.58601035263E+02  0.10570000000E+00 0.  1.
<mgrwt>
<rscale>  0 0.90795781E+02</rscale>
<asrwt>0</asrwt>
<pdfrwt beam="2">  1        2 0.15758055E-01 0.90795781E+02</pdfrwt>
<pdfrwt beam="1">  1       -2 0.30955799E-02 0.90795781E+02</pdfrwt>
<totfact> 0.12500938E+05</totfact>
</mgrwt>
</event>
<event>
 5   1  0.1343823E+00  0.9148386E+02  0.7818608E-02  0.1299298E+00
         -2   -1    0    0    0  501 -0.00000000000E+00  0.00000000000E+00  0.10730462099E+03  0.10730462102E+03  0.26000000000E-02 0.  1.
          2   -1    0    0  501    0  0.00000000000E+00 -0.00000000000E+00 -0.19498921438E+02  0.19498921611E+02  0.26000000000E-02 0. -1.
         23    2    1    2    0    0  0.00000000000E+00  0.00000000000E+00  0.87805699551E+02  0.12680354263E+03  0.91483864972E+02 0.  0.
        -13    1    3    3    0    0 -0.28997651178E+02  0.84514797827E+01 -0.37108492277E+01  0.30431445231E+02  0.10570000000E+00 0. -1.
         13    1    3    3    0    0  0.28997651178E+02 -0.84514797827E+01  0.91516548779E+02  0.96372097400E+02  0.10570000000E+00 0.  1.
<mgrwt>
<rscale>  0 0.91483865E+02</rscale>
<asrwt>0</asrwt>
<pdfrwt beam="2">  1        2 0.29998341E-02 0.91483865E+02</pdfrwt>
<pdfrwt beam="1">  1       -2 0.16508403E-01 0.91483865E+02</pdfrwt>
<totfact> 0.77467546E+04</totfact>
</mgrwt>
</event>
<event>
 5   1  0.1343823E+00  0.9216058E+02  0.7818608E-02  0.1297702E+00
          2   -1    0    0  501    0  0.00000000000E+00  0.00000000000E+00  0.10089544435E+02  0.10089544770E+02  0.26000000000E-02 0. -1.
         -2   -1    0    0    0  501 -0.00000000000E+00 -0.00000000000E+00 -0.21045480188E+03  0.21045480189E+03  0.26000000000E-02 0.  1.
         23    2    1    2    0    0  0.00000000000E+00  0.00000000000E+00 -0.20036525744E+03  0.22054434666E+03  0.92160579723E+02 0.  0.
        -13    1    3    3    0    0  0.28290561762E+02 -0.24480054246E+02 -0.16456187982E+03  0.16876093269E+03  0.10570000000E+00 0.  1.
         13    1    3    3    0    0 -0.28290561762E+02  0.24480054246E+02 -0.35803377621E+02  0.51783413969E+02  0.10570000000E+00 0. -1.
<mgrwt>
<rscale>  0 0.92160580E+02</rscale>
<asrwt>0</asrwt>
<pdfrwt beam="1">  1        2 0.15522378E-02 0.92160580E+02</pdfrwt>
<pdfrwt beam="2">  1       -2 0.32377659E-01 0.92160580E+02</pdfrwt>
<totfact> 0.59286722E+04</totfact>
</mgrwt>
</event>
<event>
 5   1  0.1343823E+00  0.9142303E+02  0.7818608E-02  0.1299442E+00
          2   -1    0    0  501    0  0.00000000000E+00  0.00000000000E+00  0.57854418727E+02  0.57854418786E+02  0.26000000000E-02 0. -1.
         -2   -1    0    0    0  501 -0.00000000000E+00 -0.00000000000E+00 -0.36117249880E+02  0.36117249974E+02  0.26000000000E-02 0.  1.
         23    2    1    2    0    0  0.00000000000E+00  0.00000000000E+00  0.21737168847E+02  0.93971668760E+02  0.91423027843E+02 0.  0.
        -13    1    3    3    0    0  0.19996189592E+02 -0.11837961292E+02  0.51330238445E+02  0.56345270228E+02  0.10570000000E+00 0. -1.
         13    1    3    3    0    0 -0.19996189592E+02  0.11837961292E+02 -0.29593069598E+02  0.37626398532E+02  0.10570000000E+00 0.  1.
<mgrwt>
<rscale>  0 0.91423028E+02</rscale>
<asrwt>0</asrwt>
<pdfrwt beam="1">  1        2 0.89006797E-02 0.91423028E+02</pdfrwt>
<pdfrwt beam="2">  1       -2 0.55565000E-02 0.91423028E+02</pdfrwt>
<totfact> 0.10424284E+05</totfact>
</mgrwt>
</event>
<event>
 5   1  0.1343823E+00  0.9068782E+02  0.7818608E-02  0.1301195E+00
         -2   -1    0    0    0  501 -0.00000000000E+00  0.00000000000E+00  0.18951114249E+03  0.18951114251E+03  0.26000000000E-02 0.  1.
          2   -1    0    0  501    0  0.00000000000E+00 -0.00000000000E+00 -0.10849335407E+02  0.10849335719E+02  0.26000000000E-02 0. -1.
         23    2    1    2    0    0  0.00000000000E+00  0.00000000000E+00  0.17866180708E+03  0.20036047823E+03  0.90687815747E+02 0.  0.
        -13    1    3    3    0    0 -0.11770749737E+01  0.40352182658E+02  0.13495127422E+03  0.14086000759E+03  0.10570000000E+00 0.  1.
         13    1    3    3    0    0  0.11770749737E+01 -0.40352182658E+02  0.43710532859E+02  0.59500470638E+02  0.10570000000E+00 0. -1.
<mgrwt>
<rscale>  0 0.90687816E+02</rscale>
<asrwt>0</asrwt>
<pdfrwt beam="2">  1        2 0.16691286E-02 0.90687816E+02</pdfrwt>
<pdfrwt beam="1">  1       -2 0.29155559E-01 0.90687816E+02</pdfrwt>
<totfact> 0.64645419E+04</totfact>
</mgrwt>
</event>
<event>
 5   1  0.1343823E+00  0.9211758E+02  0.7818608E-02  0.1297803E+00
          2   -1    0    0  501    0  0.00000000000E+00  0.00000000000E+00  0.12318171714E+03  0.12318171717E+03  0.26000000000E-02 0. -1.
         -2   -1    0    0    0  501 -0.00000000000E+00 -0.00000000000E+00 -0.17221810798E+02  0.17221810994E+02  0.26000000000E-02 0.  1.
         23    2    1    2    0    0  0.00000000000E+00  0.00000000000E+00  0.10595990634E+03  0.14040352816E+03  0.92117582295E+02 0.  0.
        -13    1    3    3    0    0 -0.18620944700E+02 -0.24209487772E+02  0.43313236461E+00  0.30545665091E+02  0.10570000000E+00 0.  1.
         13    1    3    3    0    0  0.18620944700E+02  0.24209487772E+02  0.10552677398E+03  0.10985786307E+03  0.10570000000E+00 0. -1.
<mgrwt>
<rscale>  0 0.92117582E+02</rscale>
<asrwt>0</asrwt>
<pdfrwt beam="1">  1        2 0.18951033E-01 0.92117582E+02</pdfrwt>
<pdfrwt beam="2">  1       -2 0.26495094E-02 0.92117582E+02</pdfrwt>
<totfact> 0.12733549E+05</totfact>
</mgrwt>
</event>
<event>
 5   1  0.1343823E+00  0.5708451E+02  0.7818608E-02  0.1410491E+00
          2   -1    0    0  501    0  0.00000000000E+00  0.00000000000E+00  0.57455168967E+02  0.57455169026E+02  0.26000000000E-02 0. -1.
         -2   -1    0    0    0  501 -0.00000000000E+00 -0.00000000000E+00 -0.14179061278E+02  0.14179061517E+02  0.26000000000E-02 0.  1.
         23    2    1    2    0    0  0.00000000000E+00  0.00000000000E+00  0.43276107688E+02  0.71634230542E+02  0.57084511811E+02 0.  0.
        -13    1    3    3    0    0  0.24027293432E+02 -0.15040565356E+02  0.25822616643E+02  0.38345118838E+02  0.10570000000E+00 0. -1.
         13    1    3    3    0    0 -0.24027293432E+02  0.15040565356E+02  0.17453491045E+02  0.33289111704E+02  0.10570000000E+00 0.  1.
<mgrwt>
<rscale>  0 0.57084512E+02</rscale>
<asrwt>0</asrwt>
<pdfrwt beam="1">  1        2 0.88392568E-02 0.57084512E+02</pdfrwt>
<pdfrwt beam="2">  1       -2 0.21813941E-02 0.57084512E+02</pdfrwt>
<totfact> 0.37401040E+05</totfact>
</mgrwt>
</event>
<event>
 5   1  0.1343823E+00  0.9183884E+02  0.7818608E-02  0.1298459E+00
         -2   -1    0    0    0  501 -0.00000000000E+00  0.00000000000E+00  0.26701893116E+02  0.26701893243E+02  0.26000000000E-02 0.  1.
          2   -1    0    0  501    0  0.00000000000E+00 -0.00000000000E+00 -0.78967929111E+02  0.78967929154E+02  0.26000000000E-02 0. -1.
         23    2    1    2    0    0  0.00000000000E+00  0.00000000000E+00 -0.52266035995E+02  0.10566982240E+03  0.91838841711E+02 0.  0.
        -13    1    3    3    0    0 -0.38408469378E+02  0.17943827771E+02 -0.58292190640E+01  0.42792317563E+02  0.10570000000E+00 0.  1.
         13    1    3    3    0    0  0.38408469378E+02 -0.17943827771E+02 -0.46436816931E+02  0.62877504834E+02  0.10570000000E+00 0. -1.
<mgrwt>
<rscale>  0 0.91838842E+02</rscale>
<asrwt>0</asrwt>
<pdfrwt beam="2">  1        2 0.12148912E-01 0.91838842E+02</pdfrwt>
<pdfrwt beam="1">  1       -2 0.41079836E-02 0.91838842E+02</pdfrwt>
<totfact> 0.11214802E+05</totfact>
</mgrwt>
</event>
<event>
 5   1  0.1343823E+00  0.8492043E+02  0.7818608E-02  0.1315641E+00
          2   -1    0    0  501    0  0.00000000000E+00  0.00000000000E+00  0.32990357280E+02  0.32990357383E+02  0.26000000000E-02 0. -1.
         -2   -1    0    0    0  501 -0.00000000000E+00 -0.00000000000E+00 -0.54648383232E+02  0.54648383294E+02  0.26000000000E-02 0.  1.
         23    2    1    2    0    0  0.00000000000E+00  0.00000000000E+00 -0.21658025952E+02  0.87638740676E+02  0.84920426160E+02 0.  0.
        -13    1    3    3    0    0  0.20096706307E+02 -0.27150602052E+02  0.15720452745E+02  0.37258242084E+02  0.10570000000E+00 0. -1.
         13    1    3    3    0    0 -0.20096706307E+02  0.27150602052E+02 -0.37378478697E+02  0.50380498592E+02  0.10570000000E+00 0.  1.
<mgrwt>
<rscale>  0 0.84920426E+02</rscale>
<asrwt>0</asrwt>
<pdfrwt beam="1">  1        2 0.50754396E-02 0.84920426E+02</pdfrwt>
<pdfrwt beam="2">  1       -2 0.84074436E-02 0.84920426E+02</pdfrwt>
<totfact> 0.11161606E+05</totfact>
</mgrwt>
</event>
<event>
 5   1  0.1343823E+00  0.9126049E+02  0.7818608E-02  0.1299828E+00
          2   -1    0    0  501    0  0.00000000000E+00  0.00000000000E+00  0.20468898200E+02  0.20468898365E+02  0.26000000000E-02 0. -1.
         -2   -1    0    0    0  501 -0.00000000000E+00 -0.00000000000E+00 -0.10172111598E+03  0.10172111601E+03  0.26000000000E-02 0.  1.
         23    2    1    2    0    0  0.00000000000E+00  0.00000000000E+00 -0.81252217779E+02  0.12219001438E+03  0.91260488272E+02 0.  0.
        -13    1    3    3    0    0 -0.29202960189E+02 -0.15925998113E+02  0.11955897053E+01  0.33284995222E+02  0.10570000000E+00 0. -1.
         13    1    3    3    0    0  0.29202960189E+02  0.15925998113E+02 -0.82447807485E+02  0.88905019156E+02  0.10570000000E+00 0.  1.
<mgrwt>
<rscale>  0 0.91260488E+02</rscale>
<asrwt>0</asrwt>
<pdfrwt beam="1">  1        2 0.31490613E-02 0.91260488E+02</pdfrwt>
<pdfrwt beam="2">  1       -2 0.15649402E-01 0.91260488E+02</pdfrwt>
<totfact> 0.79218243E+04</totfact>
</mgrwt>
</event>
<event>
 5   1  0.1343823E+00  0.9212023E+02  0.7818608E-02  0.1297797E+00
         -2   -1    0    0    0  501 -0.00000000000E+00  0.00000000000E+00  0.32586326050E+02  0.32586326154E+02  0.26000000000E-02 0.  1.
          2   -1    0    0  501    0  0.00000000000E+00 -0.00000000000E+00 -0.65105047470E+02  0.65105047522E+02  0.26000000000E-02 0. -1.
         23    2    1    2    0    0  0.00000000000E+00  0.00000000000E+00 -0.32518721420E+02  0.97691373675E+02  0.92120232565E+02 0.  0.
        -13    1    3    3    0    0  0.13703462098E+02 -0.91477882442E+01  0.29354166387E+02  0.33662221555E+02  0.10570000000E+00 0.  1.
         13    1    3    3    0    0 -0.13703462098E+02  0.91477882442E+01 -0.61872887807E+02  0.64029152121E+02  0.10570000000E+00 0. -1.
<mgrwt>
<rscale>  0 0.92120233E+02</rscale>
<asrwt>0</asrwt>
<pdfrwt beam="2">  1        2 0.10016161E-01 0.92120233E+02</pdfrwt>
<pdfrwt beam="1">  1       -2 0.50132810E-02 0.92120233E+02</pdfrwt>
<totfact> 0.10534231E+05</totfact>
</mgrwt>
</event>
<event>
 5   1  0.1343823E+00  0.9048042E+02  0.7818608E-02  0.1301692E+00
         -2   -1    0    0    0  501 -0.00000000000E+00  0.00000000000E+00  0.82142038062E+01  0.82142042176E+01  0.26000000000E-02 0.  1.
          2   -1    0    0  501    0  0.00000000000E+00 -0.00000000000E+00 -0.24916309972E+03  0.24916309973E+03  0.26000000000E-02 0. -1.
         23    2    1    2    0    0  0.00000000000E+00  0.00000000000E+00 -0.24094889591E+03  0.25737730395E+03  0.90480418584E+02 0.  0.
        -13    1    3    3    0    0 -0.35664330854E+02 -0.96741533672E+01 -0.46235609381E+02  0.59188482714E+02  0.10570000000E+00 0.  1.
         13    1    3    3    0    0  0.35664330854E+02  0.96741533672E+01 -0.19471328653E+03  0.19818882124E+03  0.10570000000E+00 0. -1.
<mgrwt>
<rscale>  0 0.90480419E+02</rscale>
<asrwt>0</asrwt>
<pdfrwt beam="2">  1        2 0.38332779E-01 0.90480419E+02</pdfrwt>
<pdfrwt beam="1">  1       -2 0.12637239E-02 0.90480419E+02</pdfrwt>
<totfact> 0.17112758E+05</totfact>
</mgrwt>
</event>
<event>
 5   1  0.1343823E+00  0.9434666E+02  0.7818608E-02  0.1292654E+00
         -2   -1    0    0    0  501 -0.00000000000E+00  0.00000000000E+00  0.58549983112E+01  0.58549988884E+01  0.26000000000E-02 0. -1.
          2   -1    0    0  501    0  0.00000000000E+00 -0.00000000000E+00 -0.38007236403E+03  0.38007236404E+03  0.26000000000E-02 0.  1.
         23    2    1    2    0    0  0.00000000000E+00  0.00000000000E+00 -0.37421736572E+03  0.38592736292E+03  0.94346662105E+02 0.  0.
        -13    1    3    3    0    0  0.43374668978E+02 -0.16330029114E+02 -0.22306814903E+03  0.22783204788E+03  0.10570000000E+00 0. -1.
         13    1    3    3    0    0 -0.43374668978E+02  0.16330029114E+02 -0.15114921669E+03  0.15809531504E+03  0.10570000000E+00 0.  1.
<mgrwt>
<rscale>  0 0.94346662E+02</rscale>
<asrwt>0</asrwt>
<pdfrwt beam="2">  1        2 0.58472652E-01 0.94346662E+02</pdfrwt>
<pdfrwt beam="1">  1       -2 0.90076932E-03 0.94346662E+02</pdfrwt>
<totfact> 0.17893666E+05</totfact>
</mgrwt>
</event>
<event>
 5   1  0.1343823E+00  0.9013170E+02  0.7818608E-02  0.1302533E+00
         -2   -1    0    0    0  501 -0.00000000000E+00  0.00000000000E+00  0.28527416670E+02  0.28527416788E+02  0.26000000000E-02 0. -1.
          2   -1    0    0  501    0  0.00000000000E+00 -0.00000000000E+00 -0.71192247264E+02  0.71192247312E+02  0.26000000000E-02 0.  1.
         23    2    1    2    0    0  0.00000000000E+00  0.00000000000E+00 -0.42664830594E+02  0.99719664100E+02  0.90131701629E+02 0.  0.
        -13    1    3    3    0    0  0.27454905591E+01  0.40642982700E+02 -0.68689499069E-02  0.40735745738E+02  0.10570000000E+00 0. -1.
         13    1    3    3    0    0 -0.27454905591E+01 -0.40642982700E+02 -0.42657961645E+02  0.58983918362E+02  0.10570000000E+00 0.  1.
<mgrwt>
<rscale>  0 0.90131702E+02</rscale>
<asrwt>0</asrwt>
<pdfrwt beam="2">  1        2 0.10952653E-01 0.90131702E+02</pdfrwt>
<pdfrwt beam="1">  1       -2 0.43888334E-02 0.90131702E+02</pdfrwt>
<totfact> 0.11477312E+05</totfact>
</mgrwt>
</event>
<event>
 5   1  0.1343823E+00  0.8916237E+02  0.7818608E-02  0.1304893E+00
         -2   -1    0    0    0  501 -0.00000000000E+00  0.00000000000E+00  0.41731433751E+02  0.41731433832E+02  0.26000000000E-02 0.  1.
          2   -1    0    0  501    0  0.00000000000E+00 -0.00000000000E+00 -0.47625542378E+02  0.47625542449E+02  0.26000000000E-02 0. -1.
         23    2    1    2    0    0  0.00000000000E+00  0.00000000000E+00 -0.58941086265E+01  0.89356976281E+02  0.89162372633E+02 0.  0.
        -13    1    3    3    0    0 -0.87637325276E+01 -0.72548277961E+01  0.40251961007E+02  0.41829021882E+02  0.10570000000E+00 0.  1.
         13    1    3    3    0    0  0.87637325276E+01  0.72548277961E+01 -0.46146069634E+02  0.47527954399E+02  0.10570000000E+00 0. -1.
<mgrwt>
<rscale>  0 0.89162373E+02</rscale>
<asrwt>0</asrwt>
<pdfrwt beam="2">  1        2 0.73270065E-02 0.89162373E+02</pdfrwt>
<pdfrwt beam="1">  1       -2 0.64202206E-02 0.89162373E+02</pdfrwt>
<totfact> 0.10637004E+05</totfact>
</mgrwt>
</event>
<event>
 5   1  0.1343823E+00  0.9359431E+02  0.7818608E-02  0.1294374E+00
          2   -1    0    0  501    0  0.00000000000E+00  0.00000000000E+00  0.95934849040E+01  0.95934852563E+01  0.26000000000E-02 0. -1.
         -2   -1    0    0    0  501 -0.00000000000E+00 -0.00000000000E+00 -0.22827716004E+03  0.22827716005E+03  0.26000000000E-02 0.  1.
         23    2    1    2    0    0  0.00000000000E+00  0.00000000000E+00 -0.21868367514E+03  0.23787064531E+03  0.93594306075E+02 0.  0.
        -13    1    3    3    0    0 -0.27925480128E+02  0.34452048213E+02 -0.71373185283E+02  0.84029273568E+02  0.10570000000E+00 0.  1.
         13    1    3    3    0    0  0.27925480128E+02 -0.34452048213E+02 -0.14731048985E+03  0.15384137174E+03  0.10570000000E+00 0. -1.
<mgrwt>
<rscale>  0 0.93594306E+02</rscale>
<asrwt>0</asrwt>
<pdfrwt beam="1">  1        2 0.14759209E-02 0.93594306E+02</pdfrwt>
<pdfrwt beam="2">  1       -2 0.35119559E-01 0.93594306E+02</pdfrwt>
<totfact> 0.54896312E+04</totfact>
</mgrwt>
</event>
<event>
 5   1  0.1343823E+00  0.9237352E+02  0.7818608E-02  0.1297204E+00
         -2   -1    0    0    0  501 -0.00000000000E+00  0.00000000000E+00  0.30589648229E+02  0.30589648340E+02  0.26000000000E-02 0.  1.
          2   -1    0    0  501    0  0.00000000000E+00 -0.00000000000E+00 -0.69736563841E+02  0.69736563890E+02  0.26000000000E-02 0. -1.
         23    2    1    2    0    0  0.00000000000E+00  0.00000000000E+00 -0.39146915612E+02  0.10032621223E+03  0.92373523579E+02 0.  0.
        -13    1    3    3    0    0 -0.19582406645E+02  0.29968936572E+02  0.12121065039E+02  0.37796020947E+02  0.10570000000E+00 0.  1.
         13    1    3    3    0    0  0.19582406645E+02 -0.29968936572E+02 -0.51267980651E+02  0.62530191282E+02  0.10570000000E+00 0. -1.
<mgrwt>
<rscale>  0 0.92373524E+02</rscale>
<asrwt>0</asrwt>
<pdfrwt beam="2">  1        2 0.10728702E-01 0.92373524E+02</pdfrwt>
<pdfrwt beam="1">  1       -2 0.47060997E-02 0.92373524E+02</pdfrwt>
<totfact> 0.10653680E+05</totfact>
</mgrwt>
</event>
<event>
 5   1  0.1343823E+00  0.9234801E+02  0.7818608E-02  0.1297263E+00
          2   -1    0    0  501    0  0.00000000000E+00  0.00000000000E+00  0.81591401596E+02  0.81591401638E+02  0.26000000000E-02 0. -1.
         -2   -1    0    0    0  501 -0.00000000000E+00 -0.00000000000E+00 -0.26130679421E+02  0.26130679550E+02  0.26000000000E-02 0.  1.
         23    2    1    2    0    0  0.00000000000E+00  0.00000000000E+00  0.55460722176E+02  0.10772208119E+03  0.92348010651E+02 0.  0.
        -13    1    3    3    0    0  0.18676432319E+02  0.10451500248E+02 -0.19995406495E+02  0.29289425310E+02  0.10570000000E+00 0.  1.
         13    1    3    3    0    0 -0.18676432319E+02 -0.10451500248E+02  0.75456128671E+02  0.78432655878E+02  0.10570000000E+00 0. -1.
<mgrwt>
<rscale>  0 0.92348011E+02</rscale>
<asrwt>0</asrwt>
<pdfrwt beam="1">  1        2 0.12552523E-01 0.92348011E+02</pdfrwt>
<pdfrwt beam="2">  1       -2 0.40201045E-02 0.92348011E+02</pdfrwt>
<totfact> 0.11147675E+05</totfact>
</mgrwt>
</event>
<event>
 5   1  0.1343823E+00  0.9082975E+02  0.7818608E-02  0.1300855E+00
         -2   -1    0    0    0  501 -0.00000000000E+00  0.00000000000E+00  0.23162407386E+02  0.23162407532E+02  0.26000000000E-02 0.  1.
          2   -1    0    0  501    0  0.00000000000E+00 -0.00000000000E+00 -0.89045613663E+02  0.89045613701E+02  0.26000000000E-02 0. -1.
         23    2    1    2    0    0  0.00000000000E+00  0.00000000000E+00 -0.65883206277E+02  0.11220802123E+03  0.90829748210E+02 0.  0.
        -13    1    3    3    0    0 -0.22047608046E+02  0.25311873788E+02 -0.70730725873E+02  0.78291983819E+02  0.10570000000E+00 0. -1.
         13    1    3    3    0    0  0.22047608046E+02 -0.25311873788E+02  0.48475195964E+01  0.33916037415E+02  0.10570000000E+00 0.  1.
<mgrwt>
<rscale>  0 0.90829748E+02</rscale>
<asrwt>0</asrwt>
<pdfrwt beam="2">  1        2 0.13699325E-01 0.90829748E+02</pdfrwt>
<pdfrwt beam="1">  1       -2 0.35634474E-02 0.90829748E+02</pdfrwt>
<totfact> 0.11974088E+05</totfact>
</mgrwt>
</event>
<event>
 5   1  0.1343823E+00  0.9132046E+02  0.7818608E-02  0.1299685E+00
         -2   -1    0    0    0  501 -0.00000000000E+00  0.00000000000E+00  0.92507165452E+01  0.92507169106E+01  0.26000000000E-02 0.  1.
          2   -1    0    0  501    0  0.00000000000E+00 -0.00000000000E+00 -0.22537241767E+03  0.22537241768E+03  0.26000000000E-02 0. -1.
         23    2    1    2    0    0  0.00000000000E+00  0.00000000000E+00 -0.21612170112E+03  0.23462313459E+03  0.91320455486E+02 0.  0.
        -13    1    3    3    0    0  0.28843250785E+02 -0.17561227821E+02 -0.18702087650E+03  0.19004512427E+03  0.10570000000E+00 0. -1.
         13    1    3    3    0    0 -0.28843250785E+02  0.17561227821E+02 -0.29100824622E+02  0.44578010326E+02  0.10570000000E+00 0.  1.
<mgrwt>
<rscale>  0 0.91320455E+02</rscale>
<asrwt>0</asrwt>
<pdfrwt beam="2">  1        2 0.34672676E-01 0.91320455E+02</pdfrwt>
<pdfrwt beam="1">  1       -2 0.14231874E-02 0.91320455E+02</pdfrwt>
<totfact> 0.16088141E+05</totfact>
</mgrwt>
</event>
<event>
 5   1  0.1343823E+00  0.9276490E+02  0.7818608E-02  0.1296291E+00
          2   -1    0    0  501    0  0.00000000000E+00  0.00000000000E+00  0.13907495491E+03  0.13907495493E+03  0.26000000000E-02 0.  1.
         -2   -1    0    0    0  501 -0.00000000000E+00 -0.00000000000E+00 -0.15468864003E+02  0.15468864221E+02  0.26000000000E-02 0. -1.
         23    2    1    2    0    0  0.00000000000E+00  0.00000000000E+00  0.12360609090E+03  0.15454381915E+03  0.92764898156E+02 0.  0.
        -13    1    3    3    0    0  0.40460304164E+02  0.18590746671E+02  0.83439432783E+02  0.94576964375E+02  0.10570000000E+00 0.  1.
         13    1    3    3    0    0 -0.40460304164E+02 -0.18590746671E+02  0.40166658122E+02  0.59966854778E+02  0.10570000000E+00 0. -1.
<mgrwt>
<rscale>  0 0.92764898E+02</rscale>
<asrwt>0</asrwt>
<pdfrwt beam="1">  1        2 0.21396147E-01 0.92764898E+02</pdfrwt>
<pdfrwt beam="2">  1       -2 0.23798253E-02 0.92764898E+02</pdfrwt>
<totfact> 0.13002453E+05</totfact>
</mgrwt>
</event>
<event>
 5   1  0.1343823E+00  0.9087578E+02  0.7818608E-02  0.1300745E+00
          2   -1    0    0  501    0  0.00000000000E+00  0.00000000000E+00  0.15229008942E+03  0.15229008944E+03  0.26000000000E-02 0. -1.
         -2   -1    0    0    0  501 -0.00000000000E+00 -0.00000000000E+00 -0.13557034478E+02  0.13557034727E+02  0.26000000000E-02 0.  1.
         23    2    1    2    0    0  0.00000000000E+00  0.00000000000E+00  0.13873305494E+03  0.16584712417E+03  0.90875783691E+02 0.  0.
        -13    1    3    3    0    0 -0.35277329287E+02 -0.22958464520E+02  0.38127260096E+02  0.56791550336E+02  0.10570000000E+00 0.  1.
         13    1    3    3    0    0  0.35277329287E+02  0.22958464520E+02  0.10060579485E+03  0.10905557383E+03  0.10570000000E+00 0. -1.
<mgrwt>
<rscale>  0 0.90875784E+02</rscale>
<asrwt>0</asrwt>
<pdfrwt beam="1">  1        2 0.23429245E-01 0.90875784E+02</pdfrwt>
<pdfrwt beam="2">  1       -2 0.20856976E-02 0.90875784E+02</pdfrwt>
<totfact> 0.14179972E+05</totfact>
</mgrwt>
</event>
<event>
 5   1  0.1343823E+00  0.8952293E+02  0.7818608E-02  0.1304011E+00
         -2   -1    0    0    0  501 -0.00000000000E+00  0.00000000000E+00  0.51886299364E+01  0.51886305878E+01  0.26000000000E-02 0.  1.
          2   -1    0    0  501    0  0.00000000000E+00 -0.00000000000E+00 -0.38614986600E+03  0.38614986601E+03  0.26000000000E-02 0. -1.
         23    2    1    2    0    0  0.00000000000E+00  0.00000000000E+00 -0.38096123606E+03  0.39133849659E+03  0.89522933013E+02 0.  0.
        -13    1    3    3    0    0  0.27872759405E+02 -0.33032350786E+02 -0.13958629921E+03  0.14612451203E+03  0.10570000000E+00 0. -1.
         13    1    3    3    0    0 -0.27872759405E+02  0.33032350786E+02 -0.24137493685E+03  0.24521398457E+03  0.10570000000E+00 0.  1.
<mgrwt>
<rscale>  0 0.89522933E+02</rscale>
<asrwt>0</asrwt>
<pdfrwt beam="2">  1        2 0.59407649E-01 0.89522933E+02</pdfrwt>
<pdfrwt beam="1">  1       -2 0.79825111E-03 0.89522933E+02</pdfrwt>
<totfact> 0.20692113E+05</totfact>
</mgrwt>
</event>
<event>
 5   1  0.1343823E+00  0.9093502E+02  0.7818608E-02  0.1300603E+00
          2   -1    0    0  501    0  0.00000000000E+00  0.00000000000E+00  0.15039117423E+03  0.15039117425E+03  0.26000000000E-02 0. -1.
         -2   -1    0    0    0  501 -0.00000000000E+00 -0.00000000000E+00 -0.13746116180E+02  0.13746116426E+02  0.26000000000E-02 0.  1.
         23    2    1    2    0    0  0.00000000000E+00  0.00000000000E+00  0.13664505805E+03  0.16413729068E+03  0.90935022415E+02 0.  0.
        -13    1    3    3    0    0 -0.73599739445E+01  0.24312850247E+02  0.13638783545E+03  0.13873332958E+03  0.10570000000E+00 0. -1.
         13    1    3    3    0    0  0.73599739445E+01 -0.24312850247E+02  0.25722259653E+00  0.25403961100E+02  0.10570000000E+00 0.  1.
<mgrwt>
<rscale>  0 0.90935022E+02</rscale>
<asrwt>0</asrwt>
<pdfrwt beam="1">  1        2 0.23137104E-01 0.90935022E+02</pdfrwt>
<pdfrwt beam="2">  1       -2 0.21147871E-02 0.90935022E+02</pdfrwt>
<totfact> 0.14094584E+05</totfact>
</mgrwt>
</event>
<event>
 5   1  0.1343823E+00  0.9139725E+02  0.7818608E-02  0.1299503E+00
         -2   -1    0    0    0  501 -0.00000000000E+00  0.00000000000E+00  0.97755493404E+01  0.97755496862E+01  0.26000000000E-02 0.  1.
          2   -1    0    0  501    0  0.00000000000E+00 -0.00000000000E+00 -0.21363137721E+03  0.21363137722E+03  0.26000000000E-02 0. -1.
         23    2    1    2    0    0  0.00000000000E+00  0.00000000000E+00 -0.20385582787E+03  0.22340692691E+03  0.91397245231E+02 0.  0.
        -13    1    3    3    0    0 -0.28849751312E+02 -0.25305176606E+02 -0.16257997646E+03  0.16704765797E+03  0.10570000000E+00 0. -1.
         13    1    3    3    0    0  0.28849751312E+02  0.25305176606E+02 -0.41275851403E+02  0.56359268939E+02  0.10570000000E+00 0.  1.
<mgrwt>
<rscale>  0 0.91397245E+02</rscale>
<asrwt>0</asrwt>
<pdfrwt beam="2">  1        2 0.32866362E-01 0.91397245E+02</pdfrwt>
<pdfrwt beam="1">  1       -2 0.15039309E-02 0.91397245E+02</pdfrwt>
<totfact> 0.15740393E+05</totfact>
</mgrwt>
</event>
<event>
 5   1  0.1343823E+00  0.9294296E+02  0.7818608E-02  0.1295877E+00
         -2   -1    0    0    0  501 -0.00000000000E+00  0.00000000000E+00  0.20219423102E+03  0.20219423103E+03  0.26000000000E-02 0.  1.
          2   -1    0    0  501    0  0.00000000000E+00 -0.00000000000E+00 -0.10680811030E+02  0.10680811347E+02  0.26000000000E-02 0. -1.
         23    2    1    2    0    0  0.00000000000E+00  0.00000000000E+00  0.19151341999E+03  0.21287504238E+03  0.92942959030E+02 0.  0.
        -13    1    3    3    0    0  0.20060051770E+02 -0.40162413205E+02  0.12325678251E+03  0.13117801157E+03  0.10570000000E+00 0.  1.
         13    1    3    3    0    0 -0.20060051770E+02  0.40162413205E+02  0.68256637475E+02  0.81697030812E+02  0.10570000000E+00 0. -1.
<mgrwt>
<rscale>  0 0.92942959E+02</rscale>
<asrwt>0</asrwt>
<pdfrwt beam="2">  1        2 0.16432019E-02 0.92942959E+02</pdfrwt>
<pdfrwt beam="1">  1       -2 0.31106802E-01 0.92942959E+02</pdfrwt>
<totfact> 0.59055037E+04</totfact>
</mgrwt>
</event>
<event>
 5   1  0.1343823E+00  0.1016476E+03  0.7818608E-02  0.1276869E+00
         -2   -1    0    0    0  501 -0.00000000000E+00  0.00000000000E+00  0.35346421974E+02  0.35346422070E+02  0.26000000000E-02 0.  1.
          2   -1    0    0  501    0  0.00000000000E+00 -0.00000000000E+00 -0.73078406647E+02  0.73078406693E+02  0.26000000000E-02 0. -1.
         23    2    1    2    0    0  0.00000000000E+00  0.00000000000E+00 -0.37731984673E+02  0.10842482876E+03  0.10164763069E+03 0.  0.
        -13    1    3    3    0    0 -0.47451505668E+02  0.17400200408E+02 -0.13157877028E+02  0.52225982659E+02  0.10570000000E+00 0.  1.
         13    1    3    3    0    0  0.47451505668E+02 -0.17400200408E+02 -0.24574107645E+02  0.56198846104E+02  0.10570000000E+00 0. -1.
<mgrwt>
<rscale>  0 0.10164763E+03</rscale>
<asrwt>0</asrwt>
<pdfrwt beam="2">  1        2 0.11242832E-01 0.10164763E+03</pdfrwt>
<pdfrwt beam="1">  1       -2 0.54379111E-02 0.10164763E+03</pdfrwt>
<totfact> 0.82399606E+04</totfact>
</mgrwt>
</event>
<event>
 5   1  0.1343823E+00  0.9065169E+02  0.7818608E-02  0.1301281E+00
          2   -1    0    0  501    0  0.00000000000E+00  0.00000000000E+00  0.67910062640E+02  0.67910062690E+02  0.26000000000E-02 0. -1.
         -2   -1    0    0    0  501 -0.00000000000E+00 -0.00000000000E+00 -0.30252247369E+02  0.30252247481E+02  0.26000000000E-02 0.  1.
         23    2    1    2    0    0  0.00000000000E+00  0.00000000000E+00  0.37657815271E+02  0.98162310171E+02  0.90651685517E+02 0.  0.
        -13    1    3    3    0    0  0.43149606946E+02  0.41371686657E+01  0.33170706221E+02  0.54583071257E+02  0.10570000000E+00 0. -1.
         13    1    3    3    0    0 -0.43149606946E+02 -0.41371686657E+01  0.44871090506E+01  0.43579238914E+02  0.10570000000E+00 0.  1.
<mgrwt>
<rscale>  0 0.90651686E+02</rscale>
<asrwt>0</asrwt>
<pdfrwt beam="1">  1        2 0.10447702E-01 0.90651686E+02</pdfrwt>
<pdfrwt beam="2">  1       -2 0.46541919E-02 0.90651686E+02</pdfrwt>
<totfact> 0.11148590E+05</totfact>
</mgrwt>
</event>
<event>
 5   1  0.1343823E+00  0.9008591E+02  0.7818608E-02  0.1302644E+00
         -2   -1    0    0    0  501 -0.00000000000E+00  0.00000000000E+00  0.98851688544E+01  0.98851691963E+01  0.26000000000E-02 0.  1.
          2   -1    0    0  501    0  0.00000000000E+00 -0.00000000000E+00 -0.20524359808E+03  0.20524359810E+03  0.26000000000E-02 0. -1.
         23    2    1    2    0    0  0.00000000000E+00  0.00000000000E+00 -0.19535842923E+03  0.21512876729E+03  0.90085907041E+02 0.  0.
        -13    1    3    3    0    0  0.18660761974E+02  0.40429238142E+02 -0.11389489648E+03  0.12228984403E+03  0.10570000000E+00 0. -1.
         13    1    3    3    0    0 -0.18660761974E+02 -0.40429238142E+02 -0.81463532742E+02  0.92838923267E+02  0.10570000000E+00 0.  1.
<mgrwt>
<rscale>  0 0.90085907E+02</rscale>
<asrwt>0</asrwt>
<pdfrwt beam="2">  1        2 0.31575935E-01 0.90085907E+02</pdfrwt>
<pdfrwt beam="1">  1       -2 0.15207954E-02 0.90085907E+02</pdfrwt>
<totfact> 0.16126973E+05</totfact>
</mgrwt>
</event>
<event>
 5   1  0.1343823E+00  0.9151091E+02  0.7818608E-02  0.1299234E+00
          2   -1    0    0  501    0  0.00000000000E+00  0.00000000000E+00  0.19957556094E+03  0.19957556095E+03  0.26000000000E-02 0. -1.
         -2   -1    0    0    0  501 -0.00000000000E+00 -0.00000000000E+00 -0.10490069104E+02  0.10490069426E+02  0.26000000000E-02 0.  1.
         23    2    1    2    0    0  0.00000000000E+00  0.00000000000E+00  0.18908549183E+03  0.21006563038E+03  0.91510905609E+02 0.  0.
        -13    1    3    3    0    0  0.30378833845E+02 -0.47649551565E+01  0.16766355134E+02  0.35024279870E+02  0.10570000000E+00 0.  1.
         13    1    3    3    0    0 -0.30378833845E+02  0.47649551565E+01  0.17231913670E+03  0.17504135051E+03  0.10570000000E+00 0. -1.
<mgrwt>
<rscale>  0 0.91510906E+02</rscale>
<asrwt>0</asrwt>
<pdfrwt beam="1">  1        2 0.30703929E-01 0.91510906E+02</pdfrwt>
<pdfrwt beam="2">  1       -2 0.16138570E-02 0.91510906E+02</pdfrwt>
<totfact> 0.15304482E+05</totfact>
</mgrwt>
</event>
<event>
 5   1  0.1343823E+00  0.9173030E+02  0.7818608E-02  0.1298715E+00
          2   -1    0    0  501    0  0.00000000000E+00  0.00000000000E+00  0.26343877059E+02  0.26343877188E+02  0.26000000000E-02 0. -1.
         -2   -1    0    0    0  501 -0.00000000000E+00 -0.00000000000E+00 -0.79852020991E+02  0.79852021034E+02  0.26000000000E-02 0.  1.
         23    2    1    2    0    0  0.00000000000E+00  0.00000000000E+00 -0.53508143932E+02  0.10619589822E+03  0.91730296697E+02 0.  0.
        -13    1    3    3    0    0 -0.19150640748E+01  0.17593824158E+02 -0.75739717078E+02  0.77779984794E+02  0.10570000000E+00 0.  1.
         13    1    3    3    0    0  0.19150640748E+01 -0.17593824158E+02  0.22231573146E+02  0.28415913428E+02  0.10570000000E+00 0. -1.
<mgrwt>
<rscale>  0 0.91730297E+02</rscale>
<asrwt>0</asrwt>
<pdfrwt beam="1">  1        2 0.40529042E-02 0.91730297E+02</pdfrwt>
<pdfrwt beam="2">  1       -2 0.12284926E-01 0.91730297E+02</pdfrwt>
<totfact> 0.83864872E+04</totfact>
</mgrwt>
</event>
<event>
 5   1  0.1343823E+00  0.8680473E+02  0.7818608E-02  0.1310779E+00
         -2   -1    0    0    0  501 -0.00000000000E+00  0.00000000000E+00  0.22178201369E+02  0.22178201521E+02  0.26000000000E-02 0.  1.
          2   -1    0    0  501    0  0.00000000000E+00 -0.00000000000E+00 -0.84937698066E+02  0.84937698106E+02  0.26000000000E-02 0. -1.
         23    2    1    2    0    0  0.00000000000E+00  0.00000000000E+00 -0.62759496697E+02  0.10711589963E+03  0.86804732171E+02 0.  0.
        -13    1    3    3    0    0  0.40100305543E+02  0.14597731553E+02 -0.21614401783E+02  0.47836406722E+02  0.10570000000E+00 0. -1.
         13    1    3    3    0    0 -0.40100305543E+02 -0.14597731553E+02 -0.41145094914E+02  0.59279492905E+02  0.10570000000E+00 0.  1.
<mgrwt>
<rscale>  0 0.86804732E+02</rscale>
<asrwt>0</asrwt>
<pdfrwt beam="2">  1        2 0.13067338E-01 0.86804732E+02</pdfrwt>
<pdfrwt beam="1">  1       -2 0.34120310E-02 0.86804732E+02</pdfrwt>
<totfact> 0.13382458E+05</totfact>
</mgrwt>
</event>
<event>
 5   1  0.1343823E+00  0.9146228E+02  0.7818608E-02  0.1299349E+00
          2   -1    0    0  501    0  0.00000000000E+00  0.00000000000E+00  0.16235539395E+03  0.16235539397E+03  0.26000000000E-02 0. -1.
         -2   -1    0    0    0  501 -0.00000000000E+00 -0.00000000000E+00 -0.12881228749E+02  0.12881229012E+02  0.26000000000E-02 0.  1.
         23    2    1    2    0    0  0.00000000000E+00  0.00000000000E+00  0.14947416520E+03  0.17523662298E+03  0.91462276223E+02 0.  0.
        -13    1    3    3    0    0 -0.38883131409E+02  0.80606693590E+01  0.31280462837E+02  0.50550478004E+02  0.10570000000E+00 0.  1.
         13    1    3    3    0    0  0.38883131409E+02 -0.80606693590E+01  0.11819370237E+03  0.12468614498E+03  0.10570000000E+00 0. -1.
<mgrwt>
<rscale>  0 0.91462276E+02</rscale>
<asrwt>0</asrwt>
<pdfrwt beam="1">  1        2 0.24977752E-01 0.91462276E+02</pdfrwt>
<pdfrwt beam="2">  1       -2 0.19817276E-02 0.91462276E+02</pdfrwt>
<totfact> 0.14244829E+05</totfact>
</mgrwt>
</event>
<event>
 5   1  0.1343823E+00  0.9255070E+02  0.7818608E-02  0.1296790E+00
         -2   -1    0    0    0  501 -0.00000000000E+00  0.00000000000E+00  0.12066067996E+02  0.12066068276E+02  0.26000000000E-02 0.  1.
          2   -1    0    0  501    0  0.00000000000E+00 -0.00000000000E+00 -0.17747356783E+03  0.17747356784E+03  0.26000000000E-02 0. -1.
         23    2    1    2    0    0  0.00000000000E+00  0.00000000000E+00 -0.16540749983E+03  0.18953963612E+03  0.92550703191E+02 0.  0.
        -13    1    3    3    0    0  0.76356017021E+01 -0.41742172589E+02 -0.44903278777E+02  0.61782092901E+02  0.10570000000E+00 0.  1.
         13    1    3    3    0    0 -0.76356017021E+01  0.41742172589E+02 -0.12050422105E+03  0.12775754322E+03  0.10570000000E+00 0. -1.
<mgrwt>
<rscale>  0 0.92550703E+02</rscale>
<asrwt>0</asrwt>
<pdfrwt beam="2">  1        2 0.27303624E-01 0.92550703E+02</pdfrwt>
<pdfrwt beam="1">  1       -2 0.18563183E-02 0.92550703E+02</pdfrwt>
<totfact> 0.14232512E+05</totfact>
</mgrwt>
</event>
<event>
 5   1  0.1343823E+00  0.9239221E+02  0.7818608E-02  0.1297160E+00
         -2   -1    0    0    0  501 -0.00000000000E+00  0.00000000000E+00  0.12720039727E+03  0.12720039729E+03  0.26000000000E-02 0.  1.
          2   -1    0    0  501    0  0.00000000000E+00 -0.00000000000E+00 -0.16777308268E+02  0.16777308470E+02  0.26000000000E-02 0. -1.
         23    2    1    2    0    0  0.00000000000E+00  0.00000000000E+00  0.11042308900E+03  0.14397770576E+03  0.92392213811E+02 0.  0.
        -13    1    3    3    0    0 -0.32491333311E+02  0.66645479475E+00  0.10637463978E+03  0.11122817117E+03  0.10570000000E+00 0.  1.
         13    1    3    3    0    0  0.32491333311E+02 -0.66645479475E+00  0.40484492211E+01  0.32749534590E+02  0.10570000000E+00 0. -1.
<mgrwt>
<rscale>  0 0.92392214E+02</rscale>
<asrwt>0</asrwt>
<pdfrwt beam="2">  1        2 0.25811244E-02 0.92392214E+02</pdfrwt>
<pdfrwt beam="1">  1       -2 0.19569292E-01 0.92392214E+02</pdfrwt>
<totfact> 0.71559826E+04</totfact>
</mgrwt>
</event>
<event>
 5   1  0.1343823E+00  0.8979986E+02  0.7818608E-02  0.1303337E+00
          2   -1    0    0  501    0  0.00000000000E+00  0.00000000000E+00  0.55107996276E+02  0.55107996337E+02  0.26000000000E-02 0. -1.
         -2   -1    0    0    0  501 -0.00000000000E+00 -0.00000000000E+00 -0.36582783678E+02  0.36582783770E+02  0.26000000000E-02 0.  1.
         23    2    1    2    0    0  0.00000000000E+00  0.00000000000E+00  0.18525212598E+02  0.91690780107E+02  0.89799864448E+02 0.  0.
        -13    1    3    3    0    0 -0.40145890972E+01  0.43190639058E+02  0.21101783704E+02  0.48237378410E+02  0.10570000000E+00 0. -1.
         13    1    3    3    0    0  0.40145890972E+01 -0.43190639058E+02 -0.25765711062E+01  0.43453401697E+02  0.10570000000E+00 0.  1.
<mgrwt>
<rscale>  0 0.89799864E+02</rscale>
<asrwt>0</asrwt>
<pdfrwt beam="1">  1        2 0.84781533E-02 0.89799864E+02</pdfrwt>
<pdfrwt beam="2">  1       -2 0.56281206E-02 0.89799864E+02</pdfrwt>
<totfact> 0.10825480E+05</totfact>
</mgrwt>
</event>
<event>
 5   1  0.1343823E+00  0.9297105E+02  0.7818608E-02  0.1295812E+00
          2   -1    0    0  501    0  0.00000000000E+00  0.00000000000E+00  0.43542535980E+02  0.43542536058E+02  0.26000000000E-02 0. -1.
         -2   -1    0    0    0  501 -0.00000000000E+00 -0.00000000000E+00 -0.49627428393E+02  0.49627428461E+02  0.26000000000E-02 0.  1.
         23    2    1    2    0    0  0.00000000000E+00  0.00000000000E+00 -0.60848924126E+01  0.93169964519E+02  0.92971051262E+02 0.  0.
        -13    1    3    3    0    0 -0.36039593899E+01 -0.40090247012E+02 -0.26344646560E+02  0.48106839468E+02  0.10570000000E+00 0.  1.
         13    1    3    3    0    0  0.36039593899E+01  0.40090247012E+02  0.20259754147E+02  0.45063125051E+02  0.10570000000E+00 0. -1.
<mgrwt>
<rscale>  0 0.92971051E+02</rscale>
<asrwt>0</asrwt>
<pdfrwt beam="1">  1        2 0.66988517E-02 0.92971051E+02</pdfrwt>
<pdfrwt beam="2">  1       -2 0.76349890E-02 0.92971051E+02</pdfrwt>
<totfact> 0.92171835E+04</totfact>
</mgrwt>
</event>
<event>
 5   1  0.1343823E+00  0.9101433E+02  0.7818608E-02  0.1300414E+00
          2   -1    0    0  501    0  0.00000000000E+00  0.00000000000E+00  0.15959512911E+03  0.15959512913E+03  0.26000000000E-02 0. -1.
         -2   -1    0    0    0  501 -0.00000000000E+00 -0.00000000000E+00 -0.12975972091E+02  0.12975972352E+02  0.26000000000E-02 0.  1.
         23    2    1    2    0    0  0.00000000000E+00  0.00000000000E+00  0.14661915701E+03  0.17257110148E+03  0.91014327783E+02 0.  0.
        -13    1    3    3    0    0 -0.28316207736E+02 -0.28473569316E+02  0.32716524876E+02  0.51797045694E+02  0.10570000000E+00 0. -1.
         13    1    3    3    0    0  0.28316207736E+02  0.28473569316E+02  0.11390263214E+03  0.12077405578E+03  0.10570000000E+00 0.  1.
<mgrwt>
<rscale>  0 0.91014328E+02</rscale>
<asrwt>0</asrwt>
<pdfrwt beam="1">  1        2 0.24553095E-01 0.91014328E+02</pdfrwt>
<pdfrwt beam="2">  1       -2 0.19963036E-02 0.91014328E+02</pdfrwt>
<totfact> 0.14350370E+05</totfact>
</mgrwt>
</event>
<event>
 5   1  0.1343823E+00  0.9251336E+02  0.7818608E-02  0.1296877E+00
          2   -1    0    0  501    0  0.00000000000E+00  0.00000000000E+00  0.29311793444E+02  0.29311793559E+02  0.26000000000E-02 0. -1.
         -2   -1    0    0    0  501 -0.00000000000E+00 -0.00000000000E+00 -0.72997258256E+02  0.72997258302E+02  0.26000000000E-02 0.  1.
         23    2    1    2    0    0  0.00000000000E+00  0.00000000000E+00 -0.43685464812E+02  0.10230905186E+03  0.92513362586E+02 0.  0.
        -13    1    3    3    0    0  0.95725656558E+01  0.37390764460E+02  0.63511542958E+01  0.39115874188E+02  0.10570000000E+00 0. -1.
         13    1    3    3    0    0 -0.95725656558E+01 -0.37390764460E+02 -0.50036619108E+02  0.63193177673E+02  0.10570000000E+00 0.  1.
<mgrwt>
<rscale>  0 0.92513363E+02</rscale>
<asrwt>0</asrwt>
<pdfrwt beam="1">  1        2 0.45095067E-02 0.92513363E+02</pdfrwt>
<pdfrwt beam="2">  1       -2 0.11230347E-01 0.92513363E+02</pdfrwt>
<totfact> 0.84184349E+04</totfact>
</mgrwt>
</event>
<event>
 5   1  0.1343823E+00  0.8966868E+02  0.7818608E-02  0.1303656E+00
         -2   -1    0    0    0  501 -0.00000000000E+00  0.00000000000E+00  0.14697081564E+02  0.14697081794E+02  0.26000000000E-02 0.  1.
          2   -1    0    0  501    0  0.00000000000E+00 -0.00000000000E+00 -0.13676989030E+03  0.13676989032E+03  0.26000000000E-02 0. -1.
         23    2    1    2    0    0  0.00000000000E+00  0.00000000000E+00 -0.12207280873E+03  0.15146697212E+03  0.89668684666E+02 0.  0.
        -13    1    3    3    0    0  0.11820703871E+02 -0.43127783957E+02 -0.55596209102E+02  0.71349032425E+02  0.10570000000E+00 0.  1.
         13    1    3    3    0    0 -0.11820703871E+02  0.43127783957E+02 -0.66476599633E+02  0.80117939691E+02  0.10570000000E+00 0. -1.
<mgrwt>
<rscale>  0 0.89668685E+02</rscale>
<asrwt>0</asrwt>
<pdfrwt beam="2">  1        2 0.21041521E-01 0.89668685E+02</pdfrwt>
<pdfrwt beam="1">  1       -2 0.22610896E-02 0.89668685E+02</pdfrwt>
<totfact> 0.14181791E+05</totfact>
</mgrwt>
</event>
<event>
 5   1  0.1343823E+00  0.6750392E+02  0.7818608E-02  0.1368793E+00
          2   -1    0    0  501    0  0.00000000000E+00  0.00000000000E+00  0.84880023737E+01  0.84880027719E+01  0.26000000000E-02 0.  1.
         -2   -1    0    0    0  501 -0.00000000000E+00 -0.00000000000E+00 -0.13421236270E+03  0.13421236272E+03  0.26000000000E-02 0. -1.
         23    2    1    2    0    0  0.00000000000E+00  0.00000000000E+00 -0.12572436033E+03  0.14270036550E+03  0.67503922357E+02 0.  0.
        -13    1    3    3    0    0  0.12470457347E+01 -0.31865164202E+02 -0.39489820179E+02  0.50758259259E+02  0.10570000000E+00 0.  1.
         13    1    3    3    0    0 -0.12470457347E+01  0.31865164202E+02 -0.86234540147E+02  0.91942106238E+02  0.10570000000E+00 0. -1.
<mgrwt>
<rscale>  0 0.67503922E+02</rscale>
<asrwt>0</asrwt>
<pdfrwt beam="1">  1        2 0.13058466E-02 0.67503922E+02</pdfrwt>
<pdfrwt beam="2">  1       -2 0.20648054E-01 0.67503922E+02</pdfrwt>
<totfact> 0.15462357E+05</totfact>
</mgrwt>
</event>
<event>
 5   1  0.1343823E+00  0.9249873E+02  0.7818608E-02  0.1296911E+00
          2   -1    0    0  501    0  0.00000000000E+00  0.00000000000E+00  0.73177448465E+02  0.73177448511E+02  0.26000000000E-02 0. -1.
         -2   -1    0    0    0  501 -0.00000000000E+00 -0.00000000000E+00 -0.29230367618E+02  0.29230367734E+02  0.26000000000E-02 0.  1.
         23    2    1    2    0    0  0.00000000000E+00  0.00000000000E+00  0.43947080847E+02  0.10240781624E+03  0.92498729251E+02 0.  0.
        -13    1    3    3    0    0  0.51954871366E+01 -0.35738289541E+02 -0.10014072323E+02  0.37476809401E+02  0.10570000000E+00 0. -1.
         13    1    3    3    0    0 -0.51954871366E+01  0.35738289541E+02  0.53961153169E+02  0.64931006844E+02  0.10570000000E+00 0.  1.
<mgrwt>
<rscale>  0 0.92498729E+02</rscale>
<asrwt>0</asrwt>
<pdfrwt beam="1">  1        2 0.11258069E-01 0.92498729E+02</pdfrwt>
<pdfrwt beam="2">  1       -2 0.44969797E-02 0.92498729E+02</pdfrwt>
<totfact> 0.10757540E+05</totfact>
</mgrwt>
</event>
<event>
 5   1  0.1343823E+00  0.9158918E+02  0.7818608E-02  0.1299048E+00
          2   -1    0    0  501    0  0.00000000000E+00  0.00000000000E+00  0.11776717093E+03  0.11776717096E+03  0.26000000000E-02 0.  1.
         -2   -1    0    0    0  501 -0.00000000000E+00 -0.00000000000E+00 -0.17807545436E+02  0.17807545626E+02  0.26000000000E-02 0. -1.
         23    2    1    2    0    0  0.00000000000E+00  0.00000000000E+00  0.99959625498E+02  0.13557471659E+03  0.91589175388E+02 0.  0.
        -13    1    3    3    0    0  0.12074954511E+02 -0.15873124554E+02 -0.11041120691E+02  0.22796449902E+02  0.10570000000E+00 0. -1.
         13    1    3    3    0    0 -0.12074954511E+02  0.15873124554E+02  0.11100074619E+03  0.11277826669E+03  0.10570000000E+00 0.  1.
<mgrwt>
<rscale>  0 0.91589175E+02</rscale>
<asrwt>0</asrwt>
<pdfrwt beam="1">  1        2 0.18118026E-01 0.91589175E+02</pdfrwt>
<pdfrwt beam="2">  1       -2 0.27396224E-02 0.91589175E+02</pdfrwt>
<totfact> 0.12750182E+05</totfact>
</mgrwt>
</event>
<event>
 5   1  0.1343823E+00  0.1193821E+03  0.7818608E-02  0.1244120E+00
         -2   -1    0    0    0  501 -0.00000000000E+00  0.00000000000E+00  0.15868808078E+02  0.15868808291E+02  0.26000000000E-02 0. -1.
          2   -1    0    0  501    0  0.00000000000E+00 -0.00000000000E+00 -0.22452978218E+03  0.22452978219E+03  0.26000000000E-02 0.  1.
         23    2    1    2    0    0  0.00000000000E+00  0.00000000000E+00 -0.20866097410E+03  0.24039859048E+03  0.11938207652E+03 0.  0.
        -13    1    3    3    0    0  0.12124417480E+02 -0.57944774050E+02 -0.88940495253E+02  0.10684110261E+03  0.10570000000E+00 0. -1.
         13    1    3    3    0    0 -0.12124417480E+02  0.57944774050E+02 -0.11972047884E+03  0.13355748787E+03  0.10570000000E+00 0.  1.
<mgrwt>
<rscale>  0 0.11938208E+03</rscale>
<asrwt>0</asrwt>
<pdfrwt beam="2">  1        2 0.34543041E-01 0.11938208E+03</pdfrwt>
<pdfrwt beam="1">  1       -2 0.24413553E-02 0.11938208E+03</pdfrwt>
<totfact> 0.77297892E+04</totfact>
</mgrwt>
</event>
<event>
 5   1  0.1343823E+00  0.9208784E+02  0.7818608E-02  0.1297873E+00
          2   -1    0    0  501    0  0.00000000000E+00  0.00000000000E+00  0.19650498266E+03  0.19650498268E+03  0.26000000000E-02 0.  1.
         -2   -1    0    0    0  501 -0.00000000000E+00 -0.00000000000E+00 -0.10788746546E+02  0.10788746859E+02  0.26000000000E-02 0. -1.
         23    2    1    2    0    0  0.00000000000E+00  0.00000000000E+00  0.18571623611E+03  0.20729372954E+03  0.92087838223E+02 0.  0.
        -13    1    3    3    0    0  0.19113804565E+02 -0.38885654131E+02  0.12791949843E+03  0.13505865716E+03  0.10570000000E+00 0. -1.
         13    1    3    3    0    0 -0.19113804565E+02  0.38885654131E+02  0.57796737681E+02  0.72235072376E+02  0.10570000000E+00 0.  1.
<mgrwt>
<rscale>  0 0.92087838E+02</rscale>
<asrwt>0</asrwt>
<pdfrwt beam="1">  1        2 0.30231533E-01 0.92087838E+02</pdfrwt>
<pdfrwt beam="2">  1       -2 0.16598073E-02 0.92087838E+02</pdfrwt>
<totfact> 0.14963117E+05</totfact>
</mgrwt>
</event>
<event>
 5   1  0.1343823E+00  0.9043751E+02  0.7818608E-02  0.1301796E+00
          2   -1    0    0  501    0  0.00000000000E+00  0.00000000000E+00  0.19996121466E+03  0.19996121468E+03  0.26000000000E-02 0. -1.
         -2   -1    0    0    0  501 -0.00000000000E+00 -0.00000000000E+00 -0.10225661746E+02  0.10225662077E+02  0.26000000000E-02 0.  1.
         23    2    1    2    0    0  0.00000000000E+00  0.00000000000E+00  0.18973555292E+03  0.21018687676E+03  0.90437509475E+02 0.  0.
        -13    1    3    3    0    0 -0.22286558204E+02 -0.36759045612E+02  0.12747221442E+03  0.13452544269E+03  0.10570000000E+00 0. -1.
         13    1    3    3    0    0  0.22286558204E+02  0.36759045612E+02  0.62263338500E+02  0.75661434063E+02  0.10570000000E+00 0.  1.
<mgrwt>
<rscale>  0 0.90437509E+02</rscale>
<asrwt>0</asrwt>
<pdfrwt beam="1">  1        2 0.30763265E-01 0.90437509E+02</pdfrwt>
<pdfrwt beam="2">  1       -2 0.15731787E-02 0.90437509E+02</pdfrwt>
<totfact> 0.15809330E+05</totfact>
</mgrwt>
</event>
<event>
 5   1  0.1343823E+00  0.8983605E+02  0.7818608E-02  0.1303249E+00
         -2   -1    0    0    0  501 -0.00000000000E+00  0.00000000000E+00  0.40273136385E+02  0.40273136469E+02  0.26000000000E-02 0.  1.
          2   -1    0    0  501    0  0.00000000000E+00 -0.00000000000E+00 -0.50098628417E+02  0.50098628484E+02  0.26000000000E-02 0. -1.
         23    2    1    2    0    0  0.00000000000E+00  0.00000000000E+00 -0.98254920314E+01  0.90371764953E+02  0.89836048483E+02 0.  0.
        -13    1    3    3    0    0 -0.13181571267E+00  0.30521389495E+02  0.28238973621E+02  0.41581527098E+02  0.10570000000E+00 0.  1.
         13    1    3    3    0    0  0.13181571267E+00 -0.30521389495E+02 -0.38064465652E+02  0.48790237855E+02  0.10570000000E+00 0. -1.
<mgrwt>
<rscale>  0 0.89836048E+02</rscale>
<asrwt>0</asrwt>
<pdfrwt beam="2">  1        2 0.77074812E-02 0.89836048E+02</pdfrwt>
<pdfrwt beam="1">  1       -2 0.61958672E-02 0.89836048E+02</pdfrwt>
<totfact> 0.10548365E+05</totfact>
</mgrwt>
</event>
<event>
 5   1  0.1343823E+00  0.9441527E+02  0.7818608E-02  0.1292498E+00
          2   -1    0    0  501    0  0.00000000000E+00  0.00000000000E+00  0.82796235621E+02  0.82796235662E+02  0.26000000000E-02 0. -1.
         -2   -1    0    0    0  501 -0.00000000000E+00 -0.00000000000E+00 -0.26916209753E+02  0.26916209878E+02  0.26000000000E-02 0.  1.
         23    2    1    2    0    0  0.00000000000E+00  0.00000000000E+00  0.55880025868E+02  0.10971244554E+03  0.94415271092E+02 0.  0.
        -13    1    3    3    0    0  0.26684972878E+02 -0.38938027222E+02  0.27312156457E+02  0.54536435566E+02  0.10570000000E+00 0.  1.
         13    1    3    3    0    0 -0.26684972878E+02  0.38938027222E+02  0.28567869411E+02  0.55176009974E+02  0.10570000000E+00 0. -1.
<mgrwt>
<rscale>  0 0.94415271E+02</rscale>
<asrwt>0</asrwt>
<pdfrwt beam="1">  1        2 0.12737882E-01 0.94415271E+02</pdfrwt>
<pdfrwt beam="2">  1       -2 0.41409553E-02 0.94415271E+02</pdfrwt>
<totfact> 0.10525082E+05</totfact>
</mgrwt>
</event>
<event>
 5   1  0.1343823E+00  0.9827379E+02  0.7818608E-02  0.1283968E+00
          2   -1    0    0  501    0  0.00000000000E+00  0.00000000000E+00  0.71768456166E+02  0.71768456213E+02  0.26000000000E-02 0. -1.
         -2   -1    0    0    0  501 -0.00000000000E+00 -0.00000000000E+00 -0.33641998392E+02  0.33641998493E+02  0.26000000000E-02 0.  1.
         23    2    1    2    0    0  0.00000000000E+00  0.00000000000E+00  0.38126457774E+02  0.10541045471E+03  0.98273786835E+02 0.  0.
        -13    1    3    3    0    0  0.45255276209E+02  0.16673076155E+02  0.89787940415E+01  0.49057735457E+02  0.10570000000E+00 0.  1.
         13    1    3    3    0    0 -0.45255276209E+02 -0.16673076155E+02  0.29147663732E+02  0.56352719249E+02  0.10570000000E+00 0. -1.
<mgrwt>
<rscale>  0 0.98273787E+02</rscale>
<asrwt>0</asrwt>
<pdfrwt beam="1">  1        2 0.11041301E-01 0.98273787E+02</pdfrwt>
<pdfrwt beam="2">  1       -2 0.51756921E-02 0.98273787E+02</pdfrwt>
<totfact> 0.90205735E+04</totfact>
</mgrwt>
</event>
<event>
 5   1  0.1343823E+00  0.8304848E+02  0.7818608E-02  0.1320616E+00
         -2   -1    0    0    0  501 -0.00000000000E+00  0.00000000000E+00  0.11874660394E+03  0.11874660397E+03  0.26000000000E-02 0.  1.
          2   -1    0    0  501    0  0.00000000000E+00 -0.00000000000E+00 -0.14520519228E+02  0.14520519460E+02  0.26000000000E-02 0. -1.
         23    2    1    2    0    0  0.00000000000E+00  0.00000000000E+00  0.10422608471E+03  0.13326712343E+03  0.83048476521E+02 0.  0.
        -13    1    3    3    0    0 -0.46357811872E+00  0.39029498278E+02  0.74848432861E+02  0.84414546820E+02  0.10570000000E+00 0.  1.
         13    1    3    3    0    0  0.46357811872E+00 -0.39029498278E+02  0.29377651851E+02  0.48852576608E+02  0.10570000000E+00 0. -1.
<mgrwt>
<rscale>  0 0.83048477E+02</rscale>
<asrwt>0</asrwt>
<pdfrwt beam="2">  1        2 0.22339261E-02 0.83048477E+02</pdfrwt>
<pdfrwt beam="1">  1       -2 0.18268708E-01 0.83048477E+02</pdfrwt>
<totfact> 0.95630650E+04</totfact>
</mgrwt>
</event>
<event>
 5   1  0.1343823E+00  0.8876060E+02  0.7818608E-02  0.1305881E+00
         -2   -1    0    0    0  501 -0.00000000000E+00  0.00000000000E+00  0.41042321168E+02  0.41042321250E+02  0.26000000000E-02 0.  1.
          2   -1    0    0  501    0  0.00000000000E+00 -0.00000000000E+00 -0.47989757518E+02  0.47989757588E+02  0.26000000000E-02 0. -1.
         23    2    1    2    0    0  0.00000000000E+00  0.00000000000E+00 -0.69474363499E+01  0.89032078838E+02  0.88760600440E+02 0.  0.
        -13    1    3    3    0    0  0.21580487815E+01 -0.41752692938E+02  0.11459911413E+02  0.43350724149E+02  0.10570000000E+00 0.  1.
         13    1    3    3    0    0 -0.21580487815E+01  0.41752692938E+02 -0.18407347763E+02  0.45681354690E+02  0.10570000000E+00 0. -1.
<mgrwt>
<rscale>  0 0.88760600E+02</rscale>
<asrwt>0</asrwt>
<pdfrwt beam="2">  1        2 0.73830397E-02 0.88760600E+02</pdfrwt>
<pdfrwt beam="1">  1       -2 0.63142032E-02 0.88760600E+02</pdfrwt>
<totfact> 0.10795542E+05</totfact>
</mgrwt>
</event>
<event>
 5   1  0.1343823E+00  0.9283128E+02  0.7818608E-02  0.1296137E+00
          2   -1    0    0  501    0  0.00000000000E+00  0.00000000000E+00  0.12179210516E+03  0.12179210519E+03  0.26000000000E-02 0. -1.
         -2   -1    0    0    0  501 -0.00000000000E+00 -0.00000000000E+00 -0.17689254008E+02  0.17689254199E+02  0.26000000000E-02 0.  1.
         23    2    1    2    0    0  0.00000000000E+00  0.00000000000E+00  0.10410285116E+03  0.13948135939E+03  0.92831277048E+02 0.  0.
        -13    1    3    3    0    0 -0.41105911259E+02 -0.10961548887E+02  0.24161507546E+02  0.48924851700E+02  0.10570000000E+00 0.  1.
         13    1    3    3    0    0  0.41105911259E+02  0.10961548887E+02  0.79941343609E+02  0.90556507689E+02  0.10570000000E+00 0. -1.
<mgrwt>
<rscale>  0 0.92831277E+02</rscale>
<asrwt>0</asrwt>
<pdfrwt beam="1">  1        2 0.18737247E-01 0.92831277E+02</pdfrwt>
<pdfrwt beam="2">  1       -2 0.27214236E-02 0.92831277E+02</pdfrwt>
<totfact> 0.12421371E+05</totfact>
</mgrwt>
</event>
<event>
 5   1  0.1343823E+00  0.8598495E+02  0.7818608E-02  0.1312877E+00
          2   -1    0    0  501    0  0.00000000000E+00  0.00000000000E+00  0.19492913088E+02  0.19492913261E+02  0.26000000000E-02 0.  1.
         -2   -1    0    0    0  501 -0.00000000000E+00 -0.00000000000E+00 -0.94821786425E+02  0.94821786461E+02  0.26000000000E-02 0. -1.
         23    2    1    2    0    0  0.00000000000E+00  0.00000000000E+00 -0.75328873337E+02  0.11431469972E+03  0.85984948766E+02 0.  0.
        -13    1    3    3    0    0 -0.22422031439E+02 -0.83401884166E+01  0.98265302618E+01  0.25862677861E+02  0.10570000000E+00 0.  1.
         13    1    3    3    0    0  0.22422031439E+02  0.83401884166E+01 -0.85155403599E+02  0.88452021861E+02  0.10570000000E+00 0. -1.
<mgrwt>
<rscale>  0 0.85984949E+02</rscale>
<asrwt>0</asrwt>
<pdfrwt beam="1">  1        2 0.29989098E-02 0.85984949E+02</pdfrwt>
<pdfrwt beam="2">  1       -2 0.14587967E-01 0.85984949E+02</pdfrwt>
<totfact> 0.93761605E+04</totfact>
</mgrwt>
</event>
<event>
 5   1  0.1343823E+00  0.9303876E+02  0.7818608E-02  0.1295655E+00
          2   -1    0    0  501    0  0.00000000000E+00  0.00000000000E+00  0.16082996417E+02  0.16082996627E+02  0.26000000000E-02 0. -1.
         -2   -1    0    0    0  501 -0.00000000000E+00 -0.00000000000E+00 -0.13455530542E+03  0.13455530544E+03  0.26000000000E-02 0.  1.
         23    2    1    2    0    0  0.00000000000E+00  0.00000000000E+00 -0.11847230900E+03  0.15063830207E+03  0.93038755637E+02 0.  0.
        -13    1    3    3    0    0  0.28754110997E+02  0.30299238231E+02 -0.92385994168E+02  0.10139046221E+03  0.10570000000E+00 0.  1.
         13    1    3    3    0    0 -0.28754110997E+02 -0.30299238231E+02 -0.26086314831E+02  0.49247839857E+02  0.10570000000E+00 0. -1.
<mgrwt>
<rscale>  0 0.93038756E+02</rscale>
<asrwt>0</asrwt>
<pdfrwt beam="1">  1        2 0.24743072E-02 0.93038756E+02</pdfrwt>
<pdfrwt beam="2">  1       -2 0.20700815E-01 0.93038756E+02</pdfrwt>
<totfact> 0.68981218E+04</totfact>
</mgrwt>
</event>
<event>
 5   1  0.1343823E+00  0.8730181E+02  0.7818608E-02  0.1309520E+00
          2   -1    0    0  501    0  0.00000000000E+00  0.00000000000E+00  0.23684356785E+02  0.23684356928E+02  0.26000000000E-02 0. -1.
         -2   -1    0    0    0  501 -0.00000000000E+00 -0.00000000000E+00 -0.80449796875E+02  0.80449796917E+02  0.26000000000E-02 0.  1.
         23    2    1    2    0    0  0.00000000000E+00  0.00000000000E+00 -0.56765440089E+02  0.10413415384E+03  0.87301814462E+02 0.  0.
        -13    1    3    3    0    0 -0.30890755401E+02  0.22803763987E+02 -0.36153931845E+01  0.38565952102E+02  0.10570000000E+00 0. -1.
         13    1    3    3    0    0  0.30890755401E+02 -0.22803763987E+02 -0.53150046905E+02  0.65568201742E+02  0.10570000000E+00 0.  1.
<mgrwt>
<rscale>  0 0.87301814E+02</rscale>
<asrwt>0</asrwt>
<pdfrwt beam="1">  1        2 0.36437473E-02 0.87301814E+02</pdfrwt>
<pdfrwt beam="2">  1       -2 0.12376892E-01 0.87301814E+02</pdfrwt>
<totfact> 0.94514935E+04</totfact>
</mgrwt>
</event>
<event>
 5   1  0.1343823E+00  0.8381870E+02  0.7818608E-02  0.1318551E+00
         -2   -1    0    0    0  501 -0.00000000000E+00  0.00000000000E+00  0.57831756698E+02  0.57831756756E+02  0.26000000000E-02 0.  1.
          2   -1    0    0  501    0  0.00000000000E+00 -0.00000000000E+00 -0.30370742733E+02  0.30370742844E+02  0.26000000000E-02 0. -1.
         23    2    1    2    0    0  0.00000000000E+00  0.00000000000E+00  0.27461013965E+02  0.88202499600E+02  0.83818695097E+02 0.  0.
        -13    1    3    3    0    0 -0.12075498552E+02 -0.11298204866E+02 -0.26792171825E+02  0.31484897047E+02  0.10570000000E+00 0. -1.
         13    1    3    3    0    0  0.12075498552E+02  0.11298204866E+02  0.54253185790E+02  0.56717602553E+02  0.10570000000E+00 0.  1.
<mgrwt>
<rscale>  0 0.83818695E+02</rscale>
<asrwt>0</asrwt>
<pdfrwt beam="2">  1        2 0.46724220E-02 0.83818695E+02</pdfrwt>
<pdfrwt beam="1">  1       -2 0.88971932E-02 0.83818695E+02</pdfrwt>
<totfact> 0.11359349E+05</totfact>
</mgrwt>
</event>
<event>
 5   1  0.1343823E+00  0.1040325E+03  0.7818608E-02  0.1272038E+00
         -2   -1    0    0    0  501 -0.00000000000E+00  0.00000000000E+00  0.12608269441E+02  0.12608269709E+02  0.26000000000E-02 0. -1.
          2   -1    0    0  501    0  0.00000000000E+00 -0.00000000000E+00 -0.21459629159E+03  0.21459629160E+03  0.26000000000E-02 0.  1.
         23    2    1    2    0    0  0.00000000000E+00  0.00000000000E+00 -0.20198802215E+03  0.22720456131E+03  0.10403245450E+03 0.  0.
        -13    1    3    3    0    0 -0.37557818371E+02  0.33812176209E+02 -0.74083741415E+02  0.89678675812E+02  0.10570000000E+00 0. -1.
         13    1    3    3    0    0  0.37557818371E+02 -0.33812176209E+02 -0.12790428073E+03  0.13752588550E+03  0.10570000000E+00 0.  1.
<mgrwt>
<rscale>  0 0.10403245E+03</rscale>
<asrwt>0</asrwt>
<pdfrwt beam="2">  1        2 0.33014811E-01 0.10403245E+03</pdfrwt>
<pdfrwt beam="1">  1       -2 0.19397339E-02 0.10403245E+03</pdfrwt>
<totfact> 0.11099519E+05</totfact>
</mgrwt>
</event>
<event>
 5   1  0.1343823E+00  0.9098790E+02  0.7818608E-02  0.1300477E+00
         -2   -1    0    0    0  501 -0.00000000000E+00  0.00000000000E+00  0.12751417008E+02  0.12751417273E+02  0.26000000000E-02 0.  1.
          2   -1    0    0  501    0  0.00000000000E+00 -0.00000000000E+00 -0.16231134167E+03  0.16231134169E+03  0.26000000000E-02 0. -1.
         23    2    1    2    0    0  0.00000000000E+00  0.00000000000E+00 -0.14955992466E+03  0.17506275897E+03  0.90987903103E+02 0.  0.
        -13    1    3    3    0    0  0.39745800309E+02  0.95122957093E+01 -0.11323519843E+03  0.12038452453E+03  0.10570000000E+00 0. -1.
         13    1    3    3    0    0 -0.39745800309E+02 -0.95122957093E+01 -0.36324726235E+02  0.54678234430E+02  0.10570000000E+00 0.  1.
<mgrwt>
<rscale>  0 0.90987903E+02</rscale>
<asrwt>0</asrwt>
<pdfrwt beam="2">  1        2 0.24970974E-01 0.90987903E+02</pdfrwt>
<pdfrwt beam="1">  1       -2 0.19617566E-02 0.90987903E+02</pdfrwt>
<totfact> 0.14445600E+05</totfact>
</mgrwt>
</event>
<event>
 5   1  0.1343823E+00  0.9082703E+02  0.7818608E-02  0.1300861E+00
          2   -1    0    0  501    0  0.00000000000E+00  0.00000000000E+00  0.34662293361E+03  0.34662293362E+03  0.26000000000E-02 0. -1.
         -2   -1    0    0    0  501 -0.00000000000E+00 -0.00000000000E+00 -0.59499440448E+01  0.59499446129E+01  0.26000000000E-02 0.  1.
         23    2    1    2    0    0  0.00000000000E+00  0.00000000000E+00  0.34067298956E+03  0.35257287823E+03  0.90827025966E+02 0.  0.
        -13    1    3    3    0    0 -0.51123084982E+01 -0.44855911687E+02  0.18942751318E+03  0.19473310565E+03  0.10570000000E+00 0.  1.
         13    1    3    3    0    0  0.51123084982E+01  0.44855911687E+02  0.15124547638E+03  0.15783977258E+03  0.10570000000E+00 0. -1.
<mgrwt>
<rscale>  0 0.90827026E+02</rscale>
<asrwt>0</asrwt>
<pdfrwt beam="1">  1        2 0.53326598E-01 0.90827026E+02</pdfrwt>
<pdfrwt beam="2">  1       -2 0.91537617E-03 0.90827026E+02</pdfrwt>
<totfact> 0.19147053E+05</totfact>
</mgrwt>
</event>
<event>
 5   1  0.1343823E+00  0.1049730E+03  0.7818608E-02  0.1270173E+00
          2   -1    0    0  501    0  0.00000000000E+00  0.00000000000E+00  0.18141052442E+03  0.18141052443E+03  0.26000000000E-02 0. -1.
         -2   -1    0    0    0  501 -0.00000000000E+00 -0.00000000000E+00 -0.15185615333E+02  0.15185615556E+02  0.26000000000E-02 0.  1.
         23    2    1    2    0    0  0.00000000000E+00  0.00000000000E+00  0.16622490908E+03  0.19659613999E+03  0.10497295775E+03 0.  0.
        -13    1    3    3    0    0  0.50806093230E+02  0.12089519790E+02  0.73308481463E+02  0.90008667499E+02  0.10570000000E+00 0.  1.
         13    1    3    3    0    0 -0.50806093230E+02 -0.12089519790E+02  0.92916427620E+02  0.10658747249E+03  0.10570000000E+00 0. -1.
<mgrwt>
<rscale>  0 0.10497296E+03</rscale>
<asrwt>0</asrwt>
<pdfrwt beam="1">  1        2 0.27909309E-01 0.10497296E+03</pdfrwt>
<pdfrwt beam="2">  1       -2 0.23362487E-02 0.10497296E+03</pdfrwt>
<totfact> 0.10174721E+05</totfact>
</mgrwt>
</event>
<event>
 5   1  0.1343823E+00  0.9127251E+02  0.7818608E-02  0.1299799E+00
         -2   -1    0    0    0  501 -0.00000000000E+00  0.00000000000E+00  0.97094588202E+02  0.97094588237E+02  0.26000000000E-02 0.  1.
          2   -1    0    0  501    0  0.00000000000E+00 -0.00000000000E+00 -0.21449884165E+02  0.21449884323E+02  0.26000000000E-02 0. -1.
         23    2    1    2    0    0  0.00000000000E+00  0.00000000000E+00  0.75644704037E+02  0.11854447256E+03  0.91272508050E+02 0.  0.
        -13    1    3    3    0    0  0.30583093502E+02  0.33572706555E+02  0.43660336864E+02  0.62997527104E+02  0.10570000000E+00 0.  1.
         13    1    3    3    0    0 -0.30583093502E+02 -0.33572706555E+02  0.31984367173E+02  0.55546945457E+02  0.10570000000E+00 0. -1.
<mgrwt>
<rscale>  0 0.91272508E+02</rscale>
<asrwt>0</asrwt>
<pdfrwt beam="2">  1        2 0.32999822E-02 0.91272508E+02</pdfrwt>
<pdfrwt beam="1">  1       -2 0.14937629E-01 0.91272508E+02</pdfrwt>
<totfact> 0.80297705E+04</totfact>
</mgrwt>
</event>
<event>
 5   1  0.1343823E+00  0.8988100E+02  0.7818608E-02  0.1303140E+00
         -2   -1    0    0    0  501 -0.00000000000E+00  0.00000000000E+00  0.68041038896E+02  0.68041038946E+02  0.26000000000E-02 0.  1.
          2   -1    0    0  501    0  0.00000000000E+00 -0.00000000000E+00 -0.29682801233E+02  0.29682801347E+02  0.26000000000E-02 0. -1.
         23    2    1    2    0    0  0.00000000000E+00  0.00000000000E+00  0.38358237663E+02  0.97723840293E+02  0.89881002247E+02 0.  0.
        -13    1    3    3    0    0  0.38184320493E+02 -0.19888607070E+02  0.51691571074E+01  0.43362776438E+02  0.10570000000E+00 0. -1.
         13    1    3    3    0    0 -0.38184320493E+02  0.19888607070E+02  0.33189080556E+02  0.54361063854E+02  0.10570000000E+00 0.  1.
<mgrwt>
<rscale>  0 0.89881002E+02</rscale>
<asrwt>0</asrwt>
<pdfrwt beam="2">  1        2 0.45665849E-02 0.89881002E+02</pdfrwt>
<pdfrwt beam="1">  1       -2 0.10467852E-01 0.89881002E+02</pdfrwt>
<totfact> 0.92037232E+04</totfact>
</mgrwt>
</event>
<event>
 5   1  0.1343823E+00  0.9275990E+02  0.7818608E-02  0.1296303E+00
         -2   -1    0    0    0  501 -0.00000000000E+00  0.00000000000E+00  0.18936816672E+02  0.18936816850E+02  0.26000000000E-02 0.  1.
          2   -1    0    0  501    0  0.00000000000E+00 -0.00000000000E+00 -0.11359353068E+03  0.11359353071E+03  0.26000000000E-02 0. -1.
         23    2    1    2    0    0  0.00000000000E+00  0.00000000000E+00 -0.94656714009E+02  0.13253034756E+03  0.92759902531E+02 0.  0.
        -13    1    3    3    0    0 -0.43982236470E+02 -0.84907130729E+01 -0.64506577856E+02  0.78534317929E+02  0.10570000000E+00 0.  1.
         13    1    3    3    0    0  0.43982236470E+02  0.84907130729E+01 -0.30150136154E+02  0.53996029632E+02  0.10570000000E+00 0. -1.
<mgrwt>
<rscale>  0 0.92759903E+02</rscale>
<asrwt>0</asrwt>
<pdfrwt beam="2">  1        2 0.17475927E-01 0.92759903E+02</pdfrwt>
<pdfrwt beam="1">  1       -2 0.29133565E-02 0.92759903E+02</pdfrwt>
<totfact> 0.12172951E+05</totfact>
</mgrwt>
</event>
<event>
 5   1  0.1343823E+00  0.8343683E+02  0.7818608E-02  0.1319572E+00
          2   -1    0    0  501    0  0.00000000000E+00  0.00000000000E+00  0.24109070719E+02  0.24109070860E+02  0.26000000000E-02 0. -1.
         -2   -1    0    0    0  501 -0.00000000000E+00 -0.00000000000E+00 -0.72189680480E+02  0.72189680527E+02  0.26000000000E-02 0.  1.
         23    2    1    2    0    0  0.00000000000E+00  0.00000000000E+00 -0.48080609760E+02  0.96298751386E+02  0.83436829300E+02 0.  0.
        -13    1    3    3    0    0 -0.66996292102E+01 -0.26324184216E+02  0.12503992748E+02  0.29903322781E+02  0.10570000000E+00 0. -1.
         13    1    3    3    0    0  0.66996292102E+01  0.26324184216E+02 -0.60584602508E+02  0.66395428606E+02  0.10570000000E+00 0.  1.
<mgrwt>
<rscale>  0 0.83436829E+02</rscale>
<asrwt>0</asrwt>
<pdfrwt beam="1">  1        2 0.37090879E-02 0.83436829E+02</pdfrwt>
<pdfrwt beam="2">  1       -2 0.11106105E-01 0.83436829E+02</pdfrwt>
<totfact> 0.10867458E+05</totfact>
</mgrwt>
</event>
<event>
 5   1  0.1343823E+00  0.9112524E+02  0.7818608E-02  0.1300149E+00
         -2   -1    0    0    0  501 -0.00000000000E+00  0.00000000000E+00  0.92428462713E+01  0.92428466370E+01  0.26000000000E-02 0.  1.
          2   -1    0    0  501    0  0.00000000000E+00 -0.00000000000E+00 -0.22460096854E+03  0.22460096856E+03  0.26000000000E-02 0. -1.
         23    2    1    2    0    0  0.00000000000E+00  0.00000000000E+00 -0.21535812227E+03  0.23384381520E+03  0.91125238417E+02 0.  0.
        -13    1    3    3    0    0  0.37252478694E+02 -0.20122851770E+02 -0.15086908940E+03  0.15669770145E+03  0.10570000000E+00 0.  1.
         13    1    3    3    0    0 -0.37252478694E+02  0.20122851770E+02 -0.64489032877E+02  0.77146113746E+02  0.10570000000E+00 0. -1.
<mgrwt>
<rscale>  0 0.91125238E+02</rscale>
<asrwt>0</asrwt>
<pdfrwt beam="2">  1        2 0.34553991E-01 0.91125238E+02</pdfrwt>
<pdfrwt beam="1">  1       -2 0.14219765E-02 0.91125238E+02</pdfrwt>
<totfact> 0.16160559E+05</totfact>
</mgrwt>
</event>
<event>
 5   1  0.1343823E+00  0.9102759E+02  0.7818608E-02  0.1300382E+00
          2   -1    0    0  501    0  0.00000000000E+00  0.00000000000E+00  0.10281798195E+03  0.10281798198E+03  0.26000000000E-02 0. -1.
         -2   -1    0    0    0  501 -0.00000000000E+00 -0.00000000000E+00 -0.20147306951E+02  0.20147307118E+02  0.26000000000E-02 0.  1.
         23    2    1    2    0    0  0.00000000000E+00  0.00000000000E+00  0.82670674996E+02  0.12296528910E+03  0.91027588228E+02 0.  0.
        -13    1    3    3    0    0 -0.32941255887E+02 -0.30967323245E+02  0.48405476954E+02  0.66235963192E+02  0.10570000000E+00 0. -1.
         13    1    3    3    0    0  0.32941255887E+02  0.30967323245E+02  0.34265198042E+02  0.56729325906E+02  0.10570000000E+00 0.  1.
<mgrwt>
<rscale>  0 0.91027588E+02</rscale>
<asrwt>0</asrwt>
<pdfrwt beam="1">  1        2 0.15818151E-01 0.91027588E+02</pdfrwt>
<pdfrwt beam="2">  1       -2 0.30995858E-02 0.91027588E+02</pdfrwt>
<totfact> 0.12428190E+05</totfact>
</mgrwt>
</event>
<event>
 5   1  0.1343823E+00  0.8916093E+02  0.7818608E-02  0.1304896E+00
          2   -1    0    0  501    0  0.00000000000E+00  0.00000000000E+00  0.12304563389E+02  0.12304563663E+02  0.26000000000E-02 0.  1.
         -2   -1    0    0    0  501 -0.00000000000E+00 -0.00000000000E+00 -0.16151877135E+03  0.16151877137E+03  0.26000000000E-02 0. -1.
         23    2    1    2    0    0  0.00000000000E+00  0.00000000000E+00 -0.14921420796E+03  0.17382333503E+03  0.89160932840E+02 0.  0.
        -13    1    3    3    0    0 -0.12190443340E+02  0.36209118539E+02 -0.29822692305E+02  0.48467631704E+02  0.10570000000E+00 0.  1.
         13    1    3    3    0    0  0.12190443340E+02 -0.36209118539E+02 -0.11939151566E+03  0.12535570333E+03  0.10570000000E+00 0. -1.
<mgrwt>
<rscale>  0 0.89160933E+02</rscale>
<asrwt>0</asrwt>
<pdfrwt beam="1">  1        2 0.18930099E-02 0.89160933E+02</pdfrwt>
<pdfrwt beam="2">  1       -2 0.24849040E-01 0.89160933E+02</pdfrwt>
<totfact> 0.71924639E+04</totfact>
</mgrwt>
</event>
<event>
 5   1  0.1343823E+00  0.9068948E+02  0.7818608E-02  0.1301191E+00
         -2   -1    0    0    0  501 -0.00000000000E+00  0.00000000000E+00  0.51337710326E+02  0.51337710392E+02  0.26000000000E-02 0.  1.
          2   -1    0    0  501    0  0.00000000000E+00 -0.00000000000E+00 -0.40051369502E+02  0.40051369586E+02  0.26000000000E-02 0. -1.
         23    2    1    2    0    0  0.00000000000E+00  0.00000000000E+00  0.11286340825E+02  0.91389079978E+02  0.90689483680E+02 0.  0.
        -13    1    3    3    0    0 -0.30953218571E+02  0.24093493872E+02  0.28568087022E+02  0.48525714374E+02  0.10570000000E+00 0.  1.
         13    1    3    3    0    0  0.30953218571E+02 -0.24093493872E+02 -0.17281746198E+02  0.42863365605E+02  0.10570000000E+00 0. -1.
<mgrwt>
<rscale>  0 0.90689484E+02</rscale>
<asrwt>0</asrwt>
<pdfrwt beam="2">  1        2 0.61617492E-02 0.90689484E+02</pdfrwt>
<pdfrwt beam="1">  1       -2 0.78981093E-02 0.90689484E+02</pdfrwt>
<totfact> 0.96911428E+04</totfact>
</mgrwt>
</event>
<event>
 5   1  0.1343823E+00  0.9167029E+02  0.7818608E-02  0.1298857E+00
          2   -1    0    0  501    0  0.00000000000E+00  0.00000000000E+00  0.19511284014E+02  0.19511284187E+02  0.26000000000E-02 0. -1.
         -2   -1    0    0    0  501 -0.00000000000E+00 -0.00000000000E+00 -0.10767412253E+03  0.10767412256E+03  0.26000000000E-02 0.  1.
         23    2    1    2    0    0  0.00000000000E+00  0.00000000000E+00 -0.88162838514E+02  0.12718540675E+03  0.91670287413E+02 0.  0.
        -13    1    3    3    0    0  0.42239186901E+02 -0.38893055912E+01 -0.19987615794E+02  0.46891273875E+02  0.10570000000E+00 0. -1.
         13    1    3    3    0    0 -0.42239186901E+02  0.38893055912E+01 -0.68175222720E+02  0.80294132870E+02  0.10570000000E+00 0.  1.
<mgrwt>
<rscale>  0 0.91670287E+02</rscale>
<asrwt>0</asrwt>
<pdfrwt beam="1">  1        2 0.30017361E-02 0.91670287E+02</pdfrwt>
<pdfrwt beam="2">  1       -2 0.16565249E-01 0.91670287E+02</pdfrwt>
<totfact> 0.76992805E+04</totfact>
</mgrwt>
</event>
<event>
 5   1  0.1343823E+00  0.8209670E+02  0.7818608E-02  0.1323204E+00
          2   -1    0    0  501    0  0.00000000000E+00  0.00000000000E+00  0.27939667043E+03  0.27939667045E+03  0.26000000000E-02 0. -1.
         -2   -1    0    0    0  501 -0.00000000000E+00 -0.00000000000E+00 -0.60307340164E+01  0.60307345769E+01  0.26000000000E-02 0.  1.
         23    2    1    2    0    0  0.00000000000E+00  0.00000000000E+00  0.27336593642E+03  0.28542740502E+03  0.82096701180E+02 0.  0.
        -13    1    3    3    0    0 -0.21140487849E+02  0.29060459874E+02  0.20565234861E+03  0.20876860448E+03  0.10570000000E+00 0. -1.
         13    1    3    3    0    0  0.21140487849E+02 -0.29060459874E+02  0.67713587805E+02  0.76658800542E+02  0.10570000000E+00 0.  1.
<mgrwt>
<rscale>  0 0.82096701E+02</rscale>
<asrwt>0</asrwt>
<pdfrwt beam="1">  1        2 0.42984105E-01 0.82096701E+02</pdfrwt>
<pdfrwt beam="2">  1       -2 0.92780524E-03 0.82096701E+02</pdfrwt>
<totfact> 0.23115026E+05</totfact>
</mgrwt>
</event>
<event>
 5   1  0.1343823E+00  0.9205953E+02  0.7818608E-02  0.1297940E+00
          2   -1    0    0  501    0  0.00000000000E+00  0.00000000000E+00  0.17067081193E+03  0.17067081195E+03  0.26000000000E-02 0. -1.
         -2   -1    0    0    0  501 -0.00000000000E+00 -0.00000000000E+00 -0.12414185221E+02  0.12414185493E+02  0.26000000000E-02 0.  1.
         23    2    1    2    0    0  0.00000000000E+00  0.00000000000E+00  0.15825662670E+03  0.18308499744E+03  0.92059526346E+02 0.  0.
        -13    1    3    3    0    0 -0.21131289916E+02 -0.40535181839E+02  0.68400844293E+02  0.82269794292E+02  0.10570000000E+00 0.  1.
         13    1    3    3    0    0  0.21131289916E+02  0.40535181839E+02  0.89855782412E+02  0.10081520315E+03  0.10570000000E+00 0. -1.
<mgrwt>
<rscale>  0 0.92059526E+02</rscale>
<asrwt>0</asrwt>
<pdfrwt beam="1">  1        2 0.26257047E-01 0.92059526E+02</pdfrwt>
<pdfrwt beam="2">  1       -2 0.19098747E-02 0.92059526E+02</pdfrwt>
<totfact> 0.14241588E+05</totfact>
</mgrwt>
</event>
<event>
 5   1  0.1343823E+00  0.9266101E+02  0.7818608E-02  0.1296533E+00
          2   -1    0    0  501    0  0.00000000000E+00  0.00000000000E+00  0.73205311215E+02  0.73205311261E+02  0.26000000000E-02 0. -1.
         -2   -1    0    0    0  501 -0.00000000000E+00 -0.00000000000E+00 -0.29321856320E+02  0.29321856435E+02  0.26000000000E-02 0.  1.
         23    2    1    2    0    0  0.00000000000E+00  0.00000000000E+00  0.43883454896E+02  0.10252716770E+03  0.92661008533E+02 0.  0.
        -13    1    3    3    0    0  0.37222290879E+02  0.25263664657E+02  0.96826560237E+01  0.46016482812E+02  0.10570000000E+00 0.  1.
         13    1    3    3    0    0 -0.37222290879E+02 -0.25263664657E+02  0.34200798872E+02  0.56510684885E+02  0.10570000000E+00 0. -1.
<mgrwt>
<rscale>  0 0.92661009E+02</rscale>
<asrwt>0</asrwt>
<pdfrwt beam="1">  1        2 0.11262356E-01 0.92661009E+02</pdfrwt>
<pdfrwt beam="2">  1       -2 0.45110549E-02 0.92661009E+02</pdfrwt>
<totfact> 0.10706001E+05</totfact>
</mgrwt>
</event>
<event>
 5   1  0.1343823E+00  0.8771409E+02  0.7818608E-02  0.1308484E+00
          2   -1    0    0  501    0  0.00000000000E+00  0.00000000000E+00  0.93288129681E+01  0.93288133304E+01  0.26000000000E-02 0. -1.
         -2   -1    0    0    0  501 -0.00000000000E+00 -0.00000000000E+00 -0.20618277651E+03  0.20618277653E+03  0.26000000000E-02 0.  1.
         23    2    1    2    0    0  0.00000000000E+00  0.00000000000E+00 -0.19685396354E+03  0.21551158986E+03  0.87714094651E+02 0.  0.
        -13    1    3    3    0    0  0.36510335274E+02 -0.16313755935E+02 -0.54181850471E+02  0.67341126420E+02  0.10570000000E+00 0. -1.
         13    1    3    3    0    0 -0.36510335274E+02  0.16313755935E+02 -0.14267211307E+03  0.14817046344E+03  0.10570000000E+00 0.  1.
<mgrwt>
<rscale>  0 0.87714095E+02</rscale>
<asrwt>0</asrwt>
<pdfrwt beam="1">  1        2 0.14352022E-02 0.87714095E+02</pdfrwt>
<pdfrwt beam="2">  1       -2 0.31720424E-01 0.87714095E+02</pdfrwt>
<totfact> 0.67882522E+04</totfact>
</mgrwt>
</event>
<event>
 5   1  0.1343823E+00  0.9035531E+02  0.7818608E-02  0.1301994E+00
         -2   -1    0    0    0  501 -0.00000000000E+00  0.00000000000E+00  0.12970370162E+03  0.12970370165E+03  0.26000000000E-02 0.  1.
          2   -1    0    0  501    0  0.00000000000E+00 -0.00000000000E+00 -0.15736023001E+02  0.15736023216E+02  0.26000000000E-02 0. -1.
         23    2    1    2    0    0  0.00000000000E+00  0.00000000000E+00  0.11396767862E+03  0.14543972486E+03  0.90355308634E+02 0.  0.
        -13    1    3    3    0    0  0.31756155853E+02  0.15373881034E+01  0.53197811938E+01  0.32235512113E+02  0.10570000000E+00 0.  1.
         13    1    3    3    0    0 -0.31756155853E+02 -0.15373881034E+01  0.10864789743E+03  0.11320421275E+03  0.10570000000E+00 0. -1.
<mgrwt>
<rscale>  0 0.90355309E+02</rscale>
<asrwt>0</asrwt>
<pdfrwt beam="2">  1        2 0.24209267E-02 0.90355309E+02</pdfrwt>
<pdfrwt beam="1">  1       -2 0.19954415E-01 0.90355309E+02</pdfrwt>
<totfact> 0.75197553E+04</totfact>
</mgrwt>
</event>
<event>
 5   1  0.1343823E+00  0.8024307E+02  0.7818608E-02  0.1328363E+00
          2   -1    0    0  501    0  0.00000000000E+00  0.00000000000E+00  0.14692961455E+02  0.14692961685E+02  0.26000000000E-02 0. -1.
         -2   -1    0    0    0  501 -0.00000000000E+00 -0.00000000000E+00 -0.10955842482E+03  0.10955842485E+03  0.26000000000E-02 0.  1.
         23    2    1    2    0    0  0.00000000000E+00  0.00000000000E+00 -0.94865463363E+02  0.12425138653E+03  0.80243073947E+02 0.  0.
        -13    1    3    3    0    0  0.34580979646E+02  0.15105394343E+02 -0.26331359087E+02  0.46014875154E+02  0.10570000000E+00 0. -1.
         13    1    3    3    0    0 -0.34580979646E+02 -0.15105394343E+02 -0.68534104276E+02  0.78236511380E+02  0.10570000000E+00 0.  1.
<mgrwt>
<rscale>  0 0.80243074E+02</rscale>
<asrwt>0</asrwt>
<pdfrwt beam="1">  1        2 0.22604557E-02 0.80243074E+02</pdfrwt>
<pdfrwt beam="2">  1       -2 0.16855142E-01 0.80243074E+02</pdfrwt>
<totfact> 0.10680736E+05</totfact>
</mgrwt>
</event>
<event>
 5   1  0.1343823E+00  0.8835254E+02  0.7818608E-02  0.1306891E+00
         -2   -1    0    0    0  501 -0.00000000000E+00  0.00000000000E+00  0.20357450709E+02  0.20357450875E+02  0.26000000000E-02 0.  1.
          2   -1    0    0  501    0  0.00000000000E+00 -0.00000000000E+00 -0.95863817465E+02  0.95863817500E+02  0.26000000000E-02 0. -1.
         23    2    1    2    0    0  0.00000000000E+00  0.00000000000E+00 -0.75506366756E+02  0.11622126837E+03  0.88352542702E+02 0.  0.
        -13    1    3    3    0    0 -0.40036226591E+02  0.44551827328E+00 -0.62307436535E+02  0.74062984994E+02  0.10570000000E+00 0. -1.
         13    1    3    3    0    0  0.40036226591E+02 -0.44551827328E+00 -0.13198930221E+02  0.42158283381E+02  0.10570000000E+00 0.  1.
<mgrwt>
<rscale>  0 0.88352543E+02</rscale>
<asrwt>0</asrwt>
<pdfrwt beam="2">  1        2 0.14748279E-01 0.88352543E+02</pdfrwt>
<pdfrwt beam="1">  1       -2 0.31319156E-02 0.88352543E+02</pdfrwt>
<totfact> 0.13206069E+05</totfact>
</mgrwt>
</event>
<event>
 5   1  0.1343823E+00  0.8390432E+02  0.7818608E-02  0.1318323E+00
         -2   -1    0    0    0  501 -0.00000000000E+00  0.00000000000E+00  0.69492815667E+01  0.69492820531E+01  0.26000000000E-02 0.  1.
          2   -1    0    0  501    0  0.00000000000E+00 -0.00000000000E+00 -0.25326124647E+03  0.25326124648E+03  0.26000000000E-02 0. -1.
         23    2    1    2    0    0  0.00000000000E+00  0.00000000000E+00 -0.24631196490E+03  0.26021052853E+03  0.83904321143E+02 0.  0.
        -13    1    3    3    0    0  0.13664282682E+02  0.37593147973E+02 -0.16238624075E+03  0.16724012603E+03  0.10570000000E+00 0. -1.
         13    1    3    3    0    0 -0.13664282682E+02 -0.37593147973E+02 -0.83925724146E+02  0.92970402503E+02  0.10570000000E+00 0.  1.
<mgrwt>
<rscale>  0 0.83904321E+02</rscale>
<asrwt>0</asrwt>
<pdfrwt beam="2">  1        2 0.38963262E-01 0.83904321E+02</pdfrwt>
<pdfrwt beam="1">  1       -2 0.10691205E-02 0.83904321E+02</pdfrwt>
<totfact> 0.21046514E+05</totfact>
</mgrwt>
</event>
<event>
 5   1  0.1343823E+00  0.8713703E+02  0.7818608E-02  0.1309937E+00
         -2   -1    0    0    0  501 -0.00000000000E+00  0.00000000000E+00  0.69148381362E+01  0.69148386250E+01  0.26000000000E-02 0.  1.
          2   -1    0    0  501    0  0.00000000000E+00 -0.00000000000E+00 -0.27451332874E+03  0.27451332876E+03  0.26000000000E-02 0. -1.
         23    2    1    2    0    0  0.00000000000E+00  0.00000000000E+00 -0.26759849061E+03  0.28142816738E+03  0.87137025540E+02 0.  0.
        -13    1    3    3    0    0  0.14988824097E+02 -0.33539631417E+02 -0.58149832548E+02  0.68782162813E+02  0.10570000000E+00 0.  1.
         13    1    3    3    0    0 -0.14988824097E+02  0.33539631417E+02 -0.20944865806E+03  0.21264600457E+03  0.10570000000E+00 0. -1.
<mgrwt>
<rscale>  0 0.87137026E+02</rscale>
<asrwt>0</asrwt>
<pdfrwt beam="2">  1        2 0.42232811E-01 0.87137026E+02</pdfrwt>
<pdfrwt beam="1">  1       -2 0.10638215E-02 0.87137026E+02</pdfrwt>
<totfact> 0.19611657E+05</totfact>
</mgrwt>
</event>
<event>
 5   1  0.1343823E+00  0.9766088E+02  0.7818608E-02  0.1285293E+00
          2   -1    0    0  501    0  0.00000000000E+00  0.00000000000E+00  0.33175433151E+02  0.33175433253E+02  0.26000000000E-02 0. -1.
         -2   -1    0    0    0  501 -0.00000000000E+00 -0.00000000000E+00 -0.71872817765E+02  0.71872817812E+02  0.26000000000E-02 0.  1.
         23    2    1    2    0    0  0.00000000000E+00  0.00000000000E+00 -0.38697384614E+02  0.10504825106E+03  0.97660879966E+02 0.  0.
        -13    1    3    3    0    0 -0.27185257362E+02 -0.17501882122E+02  0.20012300017E+02  0.38024431884E+02  0.10570000000E+00 0. -1.
         13    1    3    3    0    0  0.27185257362E+02  0.17501882122E+02 -0.58709684631E+02  0.67023819181E+02  0.10570000000E+00 0.  1.
<mgrwt>
<rscale>  0 0.97660880E+02</rscale>
<asrwt>0</asrwt>
<pdfrwt beam="1">  1        2 0.51039128E-02 0.97660880E+02</pdfrwt>
<pdfrwt beam="2">  1       -2 0.11057357E-01 0.97660880E+02</pdfrwt>
<totfact> 0.74094345E+04</totfact>
</mgrwt>
</event>
<event>
 5   1  0.1343823E+00  0.8089332E+02  0.7818608E-02  0.1326535E+00
         -2   -1    0    0    0  501 -0.00000000000E+00  0.00000000000E+00  0.62911160878E+02  0.62911160932E+02  0.26000000000E-02 0.  1.
          2   -1    0    0  501    0  0.00000000000E+00 -0.00000000000E+00 -0.26003846215E+02  0.26003846345E+02  0.26000000000E-02 0. -1.
         23    2    1    2    0    0  0.00000000000E+00  0.00000000000E+00  0.36907314663E+02  0.88915007277E+02  0.80893316433E+02 0.  0.
        -13    1    3    3    0    0  0.26087933209E+01 -0.40010807438E+02  0.12611472451E+02  0.42032498431E+02  0.10570000000E+00 0. -1.
         13    1    3    3    0    0 -0.26087933209E+01  0.40010807438E+02  0.24295842212E+02  0.46882508846E+02  0.10570000000E+00 0.  1.
<mgrwt>
<rscale>  0 0.80893316E+02</rscale>
<asrwt>0</asrwt>
<pdfrwt beam="2">  1        2 0.40005918E-02 0.80893316E+02</pdfrwt>
<pdfrwt beam="1">  1       -2 0.96786400E-02 0.80893316E+02</pdfrwt>
<totfact> 0.12128853E+05</totfact>
</mgrwt>
</event>
<event>
 5   1  0.1343823E+00  0.9266567E+02  0.7818608E-02  0.1296522E+00
          2   -1    0    0  501    0  0.00000000000E+00  0.00000000000E+00  0.61414079764E+02  0.61414079819E+02  0.26000000000E-02 0. -1.
         -2   -1    0    0    0  501 -0.00000000000E+00 -0.00000000000E+00 -0.34955040395E+02  0.34955040491E+02  0.26000000000E-02 0.  1.
         23    2    1    2    0    0  0.00000000000E+00  0.00000000000E+00  0.26459039370E+02  0.96369120310E+02  0.92665671017E+02 0.  0.
        -13    1    3    3    0    0  0.43190037911E+02  0.25241090238E+01 -0.40154190147E+01  0.43449801651E+02  0.10570000000E+00 0.  1.
         13    1    3    3    0    0 -0.43190037911E+02 -0.25241090238E+01  0.30474458384E+02  0.52919318660E+02  0.10570000000E+00 0. -1.
<mgrwt>
<rscale>  0 0.92665671E+02</rscale>
<asrwt>0</asrwt>
<pdfrwt beam="1">  1        2 0.94483200E-02 0.92665671E+02</pdfrwt>
<pdfrwt beam="2">  1       -2 0.53776985E-02 0.92665671E+02</pdfrwt>
<totfact> 0.10196400E+05</totfact>
</mgrwt>
</event>
<event>
 5   1  0.1343823E+00  0.9158941E+02  0.7818608E-02  0.1299048E+00
          2   -1    0    0  501    0  0.00000000000E+00  0.00000000000E+00  0.12278944298E+03  0.12278944301E+03  0.26000000000E-02 0. -1.
         -2   -1    0    0    0  501 -0.00000000000E+00 -0.00000000000E+00 -0.17079275892E+02  0.17079276090E+02  0.26000000000E-02 0.  1.
         23    2    1    2    0    0  0.00000000000E+00  0.00000000000E+00  0.10571016709E+03  0.13986871910E+03  0.91589405263E+02 0.  0.
        -13    1    3    3    0    0  0.11639460715E+02  0.34929721544E+02  0.11268361267E+02  0.38503891115E+02  0.10570000000E+00 0.  1.
         13    1    3    3    0    0 -0.11639460715E+02 -0.34929721544E+02  0.94441805822E+02  0.10136482798E+03  0.10570000000E+00 0. -1.
<mgrwt>
<rscale>  0 0.91589405E+02</rscale>
<asrwt>0</asrwt>
<pdfrwt beam="1">  1        2 0.18890684E-01 0.91589405E+02</pdfrwt>
<pdfrwt beam="2">  1       -2 0.26275809E-02 0.91589405E+02</pdfrwt>
<totfact> 0.12922165E+05</totfact>
</mgrwt>
</event>
<event>
 5   1  0.1343823E+00  0.1134539E+03  0.7818608E-02  0.1254304E+00
          2   -1    0    0  501    0  0.00000000000E+00  0.00000000000E+00  0.90130871845E+02  0.90130871882E+02  0.26000000000E-02 0. -1.
         -2   -1    0    0    0  501 -0.00000000000E+00 -0.00000000000E+00 -0.35703070478E+02  0.35703070573E+02  0.26000000000E-02 0.  1.
         23    2    1    2    0    0  0.00000000000E+00  0.00000000000E+00  0.54427801367E+02  0.12583394246E+03  0.11345393564E+03 0.  0.
        -13    1    3    3    0    0 -0.52295439048E+02  0.21610791149E+02  0.22763793322E+02  0.60992136363E+02  0.10570000000E+00 0.  1.
         13    1    3    3    0    0  0.52295439048E+02 -0.21610791149E+02  0.31664008045E+02  0.64841806092E+02  0.10570000000E+00 0. -1.
<mgrwt>
<rscale>  0 0.11345394E+03</rscale>
<asrwt>0</asrwt>
<pdfrwt beam="1">  1        2 0.13866288E-01 0.11345394E+03</pdfrwt>
<pdfrwt beam="2">  1       -2 0.54927802E-02 0.11345394E+03</pdfrwt>
<totfact> 0.64259885E+04</totfact>
</mgrwt>
</event>
<event>
 5   1  0.1343823E+00  0.9155792E+02  0.7818608E-02  0.1299122E+00
         -2   -1    0    0    0  501 -0.00000000000E+00  0.00000000000E+00  0.73588280208E+01  0.73588284802E+01  0.26000000000E-02 0.  1.
          2   -1    0    0  501    0  0.00000000000E+00 -0.00000000000E+00 -0.28478898916E+03  0.28478898918E+03  0.26000000000E-02 0. -1.
         23    2    1    2    0    0  0.00000000000E+00  0.00000000000E+00 -0.27743016114E+03  0.29214781766E+03  0.91557921827E+02 0.  0.
        -13    1    3    3    0    0 -0.41240747909E+02 -0.17514789341E+02 -0.10875928790E+03  0.11762721203E+03  0.10570000000E+00 0.  1.
         13    1    3    3    0    0  0.41240747909E+02  0.17514789341E+02 -0.16867087324E+03  0.17452060562E+03  0.10570000000E+00 0. -1.
<mgrwt>
<rscale>  0 0.91557922E+02</rscale>
<asrwt>0</asrwt>
<pdfrwt beam="2">  1        2 0.43813682E-01 0.91557922E+02</pdfrwt>
<pdfrwt beam="1">  1       -2 0.11321276E-02 0.91557922E+02</pdfrwt>
<totfact> 0.17425483E+05</totfact>
</mgrwt>
</event>
<event>
 5   1  0.1343823E+00  0.9213303E+02  0.7818608E-02  0.1297767E+00
          2   -1    0    0  501    0  0.00000000000E+00  0.00000000000E+00  0.36161847811E+02  0.36161847905E+02  0.26000000000E-02 0. -1.
         -2   -1    0    0    0  501 -0.00000000000E+00 -0.00000000000E+00 -0.58684053324E+02  0.58684053381E+02  0.26000000000E-02 0.  1.
         23    2    1    2    0    0  0.00000000000E+00  0.00000000000E+00 -0.22522205513E+02  0.94845901286E+02  0.92133030177E+02 0.  0.
        -13    1    3    3    0    0  0.27445619856E+02 -0.68702717467E+01  0.26163865091E+02  0.38535979190E+02  0.10570000000E+00 0. -1.
         13    1    3    3    0    0 -0.27445619856E+02  0.68702717467E+01 -0.48686070603E+02  0.56309922096E+02  0.10570000000E+00 0.  1.
<mgrwt>
<rscale>  0 0.92133030E+02</rscale>
<asrwt>0</asrwt>
<pdfrwt beam="1">  1        2 0.55633612E-02 0.92133030E+02</pdfrwt>
<pdfrwt beam="2">  1       -2 0.90283159E-02 0.92133030E+02</pdfrwt>
<totfact> 0.90131546E+04</totfact>
</mgrwt>
</event>
<event>
 5   1  0.1343823E+00  0.9576429E+02  0.7818608E-02  0.1289464E+00
          2   -1    0    0  501    0  0.00000000000E+00  0.00000000000E+00  0.17931005623E+03  0.17931005625E+03  0.26000000000E-02 0. -1.
         -2   -1    0    0    0  501 -0.00000000000E+00 -0.00000000000E+00 -0.12786230398E+02  0.12786230662E+02  0.26000000000E-02 0.  1.
         23    2    1    2    0    0  0.00000000000E+00  0.00000000000E+00  0.16652382584E+03  0.19209628691E+03  0.95764288100E+02 0.  0.
        -13    1    3    3    0    0  0.21060705525E+02 -0.37386442611E+02  0.12587970418E+03  0.13299252049E+03  0.10570000000E+00 0.  1.
         13    1    3    3    0    0 -0.21060705525E+02  0.37386442611E+02  0.40644121654E+02  0.59103766426E+02  0.10570000000E+00 0. -1.
<mgrwt>
<rscale>  0 0.95764288E+02</rscale>
<asrwt>0</asrwt>
<pdfrwt beam="1">  1        2 0.27586163E-01 0.95764288E+02</pdfrwt>
<pdfrwt beam="2">  1       -2 0.19671123E-02 0.95764288E+02</pdfrwt>
<totfact> 0.13021521E+05</totfact>
</mgrwt>
</event>
<event>
 5   1  0.1343823E+00  0.9082571E+02  0.7818608E-02  0.1300864E+00
         -2   -1    0    0    0  501 -0.00000000000E+00  0.00000000000E+00  0.27022794941E+02  0.27022795066E+02  0.26000000000E-02 0.  1.
          2   -1    0    0  501    0  0.00000000000E+00 -0.00000000000E+00 -0.76318055772E+02  0.76318055816E+02  0.26000000000E-02 0. -1.
         23    2    1    2    0    0  0.00000000000E+00  0.00000000000E+00 -0.49295260831E+02  0.10334085088E+03  0.90825705175E+02 0.  0.
        -13    1    3    3    0    0 -0.29734896867E+02  0.16051086028E+02 -0.59168250179E+02  0.68137320582E+02  0.10570000000E+00 0. -1.
         13    1    3    3    0    0  0.29734896867E+02 -0.16051086028E+02  0.98729893480E+01  0.35203530299E+02  0.10570000000E+00 0.  1.
<mgrwt>
<rscale>  0 0.90825705E+02</rscale>
<asrwt>0</asrwt>
<pdfrwt beam="2">  1        2 0.11741239E-01 0.90825705E+02</pdfrwt>
<pdfrwt beam="1">  1       -2 0.41573531E-02 0.90825705E+02</pdfrwt>
<totfact> 0.11455133E+05</totfact>
</mgrwt>
</event>
<event>
 5   1  0.1343823E+00  0.9292578E+02  0.7818608E-02  0.1295917E+00
         -2   -1    0    0    0  501 -0.00000000000E+00  0.00000000000E+00  0.35915116486E+03  0.35915116487E+03  0.26000000000E-02 0.  1.
          2   -1    0    0  501    0  0.00000000000E+00 -0.00000000000E+00 -0.60108393223E+01  0.60108398846E+01  0.26000000000E-02 0. -1.
         23    2    1    2    0    0  0.00000000000E+00  0.00000000000E+00  0.35314032554E+03  0.36516200476E+03  0.92925777883E+02 0.  0.
        -13    1    3    3    0    0 -0.30739698679E+02 -0.28813656340E+02  0.25353765951E+03  0.25701461404E+03  0.10570000000E+00 0.  1.
         13    1    3    3    0    0  0.30739698679E+02  0.28813656340E+02  0.99602666034E+02  0.10814739072E+03  0.10570000000E+00 0. -1.
<mgrwt>
<rscale>  0 0.92925778E+02</rscale>
<asrwt>0</asrwt>
<pdfrwt beam="2">  1        2 0.92474417E-03 0.92925778E+02</pdfrwt>
<pdfrwt beam="1">  1       -2 0.55254048E-01 0.92925778E+02</pdfrwt>
<totfact> 0.43613318E+04</totfact>
</mgrwt>
</event>
<event>
 5   1  0.1343823E+00  0.9083060E+02  0.7818608E-02  0.1300853E+00
          2   -1    0    0  501    0  0.00000000000E+00  0.00000000000E+00  0.10056397021E+03  0.10056397024E+03  0.26000000000E-02 0. -1.
         -2   -1    0    0    0  501 -0.00000000000E+00 -0.00000000000E+00 -0.20509824437E+02  0.20509824601E+02  0.26000000000E-02 0.  1.
         23    2    1    2    0    0  0.00000000000E+00  0.00000000000E+00  0.80054145774E+02  0.12107379485E+03  0.90830598053E+02 0.  0.
        -13    1    3    3    0    0  0.33154235456E+02 -0.18433887837E+02  0.73311837962E+02  0.82544826048E+02  0.10570000000E+00 0.  1.
         13    1    3    3    0    0 -0.33154235456E+02  0.18433887837E+02  0.67423078125E+01  0.38528968798E+02  0.10570000000E+00 0. -1.
<mgrwt>
<rscale>  0 0.90830598E+02</rscale>
<asrwt>0</asrwt>
<pdfrwt beam="1">  1        2 0.15471380E-01 0.90830598E+02</pdfrwt>
<pdfrwt beam="2">  1       -2 0.31553576E-02 0.90830598E+02</pdfrwt>
<totfact> 0.12417967E+05</totfact>
</mgrwt>
</event>
<event>
 5   1  0.1343823E+00  0.9148480E+02  0.7818608E-02  0.1299295E+00
         -2   -1    0    0    0  501 -0.00000000000E+00  0.00000000000E+00  0.53721579755E+02  0.53721579818E+02  0.26000000000E-02 0.  1.
          2   -1    0    0  501    0  0.00000000000E+00 -0.00000000000E+00 -0.38948357599E+02  0.38948357686E+02  0.26000000000E-02 0. -1.
         23    2    1    2    0    0  0.00000000000E+00  0.00000000000E+00  0.14773222157E+02  0.92669937504E+02  0.91484803241E+02 0.  0.
        -13    1    3    3    0    0 -0.12768601730E+02  0.20346361845E+02 -0.32045097975E+02  0.40048859000E+02  0.10570000000E+00 0. -1.
         13    1    3    3    0    0  0.12768601730E+02 -0.20346361845E+02  0.46818320132E+02  0.52621078504E+02  0.10570000000E+00 0.  1.
<mgrwt>
<rscale>  0 0.91484803E+02</rscale>
<asrwt>0</asrwt>
<pdfrwt beam="2">  1        2 0.59920551E-02 0.91484803E+02</pdfrwt>
<pdfrwt beam="1">  1       -2 0.82648584E-02 0.91484803E+02</pdfrwt>
<totfact> 0.93808798E+04</totfact>
</mgrwt>
</event>
<event>
 5   1  0.1343823E+00  0.9202123E+02  0.7818608E-02  0.1298030E+00
          2   -1    0    0  501    0  0.00000000000E+00  0.00000000000E+00  0.65451893237E+02  0.65451893289E+02  0.26000000000E-02 0. -1.
         -2   -1    0    0    0  501 -0.00000000000E+00 -0.00000000000E+00 -0.32344011130E+02  0.32344011234E+02  0.26000000000E-02 0.  1.
         23    2    1    2    0    0  0.00000000000E+00  0.00000000000E+00  0.33107882107E+02  0.97795904523E+02  0.92021231702E+02 0.  0.
        -13    1    3    3    0    0 -0.11997839828E+02 -0.27721326689E+02 -0.20330586738E+02  0.36411042879E+02  0.10570000000E+00 0. -1.
         13    1    3    3    0    0  0.11997839828E+02  0.27721326689E+02  0.53438468846E+02  0.61384861644E+02  0.10570000000E+00 0.  1.
<mgrwt>
<rscale>  0 0.92021232E+02</rscale>
<asrwt>0</asrwt>
<pdfrwt beam="1">  1        2 0.10069522E-01 0.92021232E+02</pdfrwt>
<pdfrwt beam="2">  1       -2 0.49760017E-02 0.92021232E+02</pdfrwt>
<totfact> 0.10581575E+05</totfact>
</mgrwt>
</event>
<event>
 5   1  0.1343823E+00  0.9184258E+02  0.7818608E-02  0.1298450E+00
          2   -1    0    0  501    0  0.00000000000E+00  0.00000000000E+00  0.12313019137E+03  0.12313019139E+03  0.26000000000E-02 0. -1.
         -2   -1    0    0    0  501 -0.00000000000E+00 -0.00000000000E+00 -0.17126301003E+02  0.17126301201E+02  0.26000000000E-02 0.  1.
         23    2    1    2    0    0  0.00000000000E+00  0.00000000000E+00  0.10600389036E+03  0.14025649259E+03  0.91842576961E+02 0.  0.
        -13    1    3    3    0    0  0.24275773777E+02  0.22397081209E+02  0.42813584269E+01  0.33305910010E+02  0.10570000000E+00 0.  1.
         13    1    3    3    0    0 -0.24275773777E+02 -0.22397081209E+02  0.10172253194E+03  0.10695058258E+03  0.10570000000E+00 0. -1.
<mgrwt>
<rscale>  0 0.91842577E+02</rscale>
<asrwt>0</asrwt>
<pdfrwt beam="1">  1        2 0.18943107E-01 0.91842577E+02</pdfrwt>
<pdfrwt beam="2">  1       -2 0.26348155E-02 0.91842577E+02</pdfrwt>
<totfact> 0.12836442E+05</totfact>
</mgrwt>
</event>
<event>
 5   1  0.1343823E+00  0.9404044E+02  0.7818608E-02  0.1293352E+00
          2   -1    0    0  501    0  0.00000000000E+00  0.00000000000E+00  0.16609423322E+03  0.16609423324E+03  0.26000000000E-02 0. -1.
         -2   -1    0    0    0  501 -0.00000000000E+00 -0.00000000000E+00 -0.13311125836E+02  0.13311126089E+02  0.26000000000E-02 0.  1.
         23    2    1    2    0    0  0.00000000000E+00  0.00000000000E+00  0.15278310739E+03  0.17940535933E+03  0.94040443716E+02 0.  0.
        -13    1    3    3    0    0 -0.40753843965E+02 -0.15670186229E+02  0.43103718837E+02  0.61354480558E+02  0.10570000000E+00 0. -1.
         13    1    3    3    0    0  0.40753843965E+02  0.15670186229E+02  0.10967938855E+03  0.11805087878E+03  0.10570000000E+00 0.  1.
<mgrwt>
<rscale>  0 0.94040444E+02</rscale>
<asrwt>0</asrwt>
<pdfrwt beam="1">  1        2 0.25552959E-01 0.94040444E+02</pdfrwt>
<pdfrwt beam="2">  1       -2 0.20478656E-02 0.94040444E+02</pdfrwt>
<totfact> 0.13314650E+05</totfact>
</mgrwt>
</event>
<event>
 5   1  0.1343823E+00  0.8797721E+02  0.7818608E-02  0.1307825E+00
          2   -1    0    0  501    0  0.00000000000E+00  0.00000000000E+00  0.31302489768E+03  0.31302489769E+03  0.26000000000E-02 0. -1.
         -2   -1    0    0    0  501 -0.00000000000E+00 -0.00000000000E+00 -0.61816081376E+01  0.61816086843E+01  0.26000000000E-02 0.  1.
         23    2    1    2    0    0  0.00000000000E+00  0.00000000000E+00  0.30684328955E+03  0.31920650638E+03  0.87977209407E+02 0.  0.
        -13    1    3    3    0    0 -0.31409522089E+02 -0.29979826111E+02  0.12785879817E+03  0.13503048357E+03  0.10570000000E+00 0.  1.
         13    1    3    3    0    0  0.31409522089E+02  0.29979826111E+02  0.17898449137E+03  0.18417602281E+03  0.10570000000E+00 0. -1.
<mgrwt>
<rscale>  0 0.87977209E+02</rscale>
<asrwt>0</asrwt>
<pdfrwt beam="1">  1        2 0.48157674E-01 0.87977209E+02</pdfrwt>
<pdfrwt beam="2">  1       -2 0.95101674E-03 0.87977209E+02</pdfrwt>
<totfact> 0.20071236E+05</totfact>
</mgrwt>
</event>
<event>
 5   1  0.1343823E+00  0.9154361E+02  0.7818608E-02  0.1299156E+00
         -2   -1    0    0    0  501 -0.00000000000E+00  0.00000000000E+00  0.13389275914E+03  0.13389275917E+03  0.26000000000E-02 0. -1.
          2   -1    0    0  501    0  0.00000000000E+00 -0.00000000000E+00 -0.15647283760E+02  0.15647283976E+02  0.26000000000E-02 0.  1.
         23    2    1    2    0    0  0.00000000000E+00  0.00000000000E+00  0.11824547538E+03  0.14954004314E+03  0.91543607395E+02 0.  0.
        -13    1    3    3    0    0  0.38624710281E+00  0.22033327819E+02  0.12465656639E+03  0.12658944442E+03  0.10570000000E+00 0. -1.
         13    1    3    3    0    0 -0.38624710281E+00 -0.22033327819E+02 -0.64110910044E+01  0.22950598727E+02  0.10570000000E+00 0.  1.
<mgrwt>
<rscale>  0 0.91543607E+02</rscale>
<asrwt>0</asrwt>
<pdfrwt beam="2">  1        2 0.24072744E-02 0.91543607E+02</pdfrwt>
<pdfrwt beam="1">  1       -2 0.20598887E-01 0.91543607E+02</pdfrwt>
<totfact> 0.71982073E+04</totfact>
</mgrwt>
</event>
<event>
 5   1  0.1343823E+00  0.8715349E+02  0.7818608E-02  0.1309895E+00
         -2   -1    0    0    0  501 -0.00000000000E+00  0.00000000000E+00  0.27624467197E+02  0.27624467319E+02  0.26000000000E-02 0.  1.
          2   -1    0    0  501    0  0.00000000000E+00 -0.00000000000E+00 -0.68740978059E+02  0.68740978108E+02  0.26000000000E-02 0. -1.
         23    2    1    2    0    0  0.00000000000E+00  0.00000000000E+00 -0.41116510862E+02  0.96365445427E+02  0.87153494519E+02 0.  0.
        -13    1    3    3    0    0  0.35199018341E+02 -0.89400345917E+01 -0.47187600794E+02  0.59544739077E+02  0.10570000000E+00 0. -1.
         13    1    3    3    0    0 -0.35199018341E+02  0.89400345917E+01  0.60710899312E+01  0.36820706350E+02  0.10570000000E+00 0.  1.
<mgrwt>
<rscale>  0 0.87153495E+02</rscale>
<asrwt>0</asrwt>
<pdfrwt beam="2">  1        2 0.10575535E-01 0.87153495E+02</pdfrwt>
<pdfrwt beam="1">  1       -2 0.42499181E-02 0.87153495E+02</pdfrwt>
<totfact> 0.12481983E+05</totfact>
</mgrwt>
</event>
<event>
 5   1  0.1343823E+00  0.8555131E+02  0.7818608E-02  0.1313997E+00
          2   -1    0    0  501    0  0.00000000000E+00  0.00000000000E+00  0.35087442694E+03  0.35087442695E+03  0.26000000000E-02 0. -1.
         -2   -1    0    0    0  501 -0.00000000000E+00 -0.00000000000E+00 -0.52148477189E+01  0.52148483671E+01  0.26000000000E-02 0.  1.
         23    2    1    2    0    0  0.00000000000E+00  0.00000000000E+00  0.34565957922E+03  0.35608927532E+03  0.85551313773E+02 0.  0.
        -13    1    3    3    0    0 -0.32556044482E+02 -0.27491925163E+02  0.15723166127E+03  0.16290337154E+03  0.10570000000E+00 0. -1.
         13    1    3    3    0    0  0.32556044482E+02  0.27491925163E+02  0.18842791795E+03  0.19318590377E+03  0.10570000000E+00 0.  1.
<mgrwt>
<rscale>  0 0.85551314E+02</rscale>
<asrwt>0</asrwt>
<pdfrwt beam="1">  1        2 0.53980697E-01 0.85551314E+02</pdfrwt>
<pdfrwt beam="2">  1       -2 0.80228408E-03 0.85551314E+02</pdfrwt>
<totfact> 0.22537019E+05</totfact>
</mgrwt>
</event>
<event>
 5   1  0.1343823E+00  0.8957745E+02  0.7818608E-02  0.1303878E+00
         -2   -1    0    0    0  501 -0.00000000000E+00  0.00000000000E+00  0.39116884707E+02  0.39116884794E+02  0.26000000000E-02 0.  1.
          2   -1    0    0  501    0  0.00000000000E+00 -0.00000000000E+00 -0.51282962134E+02  0.51282962200E+02  0.26000000000E-02 0. -1.
         23    2    1    2    0    0  0.00000000000E+00  0.00000000000E+00 -0.12166077427E+02  0.90399846994E+02  0.89577446361E+02 0.  0.
        -13    1    3    3    0    0 -0.41120603085E+02  0.15735205247E+02  0.22093257597E+01  0.44083931030E+02  0.10570000000E+00 0.  1.
         13    1    3    3    0    0  0.41120603085E+02 -0.15735205247E+02 -0.14375403187E+02  0.46315915964E+02  0.10570000000E+00 0. -1.
<mgrwt>
<rscale>  0 0.89577446E+02</rscale>
<asrwt>0</asrwt>
<pdfrwt beam="2">  1        2 0.78896865E-02 0.89577446E+02</pdfrwt>
<pdfrwt beam="1">  1       -2 0.60179823E-02 0.89577446E+02</pdfrwt>
<totfact> 0.10699503E+05</totfact>
</mgrwt>
</event>
<event>
 5   1  0.1343823E+00  0.9173761E+02  0.7818608E-02  0.1298698E+00
          2   -1    0    0  501    0  0.00000000000E+00  0.00000000000E+00  0.26236324612E+02  0.26236324741E+02  0.26000000000E-02 0. -1.
         -2   -1    0    0    0  501 -0.00000000000E+00 -0.00000000000E+00 -0.80192149751E+02  0.80192149793E+02  0.26000000000E-02 0.  1.
         23    2    1    2    0    0  0.00000000000E+00  0.00000000000E+00 -0.53955825139E+02  0.10642847453E+03  0.91737610200E+02 0.  0.
        -13    1    3    3    0    0 -0.16684938498E+02 -0.33093923506E+02 -0.58330493989E+02  0.69108991074E+02  0.10570000000E+00 0.  1.
         13    1    3    3    0    0  0.16684938498E+02  0.33093923506E+02  0.43746688506E+01  0.37319483460E+02  0.10570000000E+00 0. -1.
<mgrwt>
<rscale>  0 0.91737610E+02</rscale>
<asrwt>0</asrwt>
<pdfrwt beam="1">  1        2 0.40363577E-02 0.91737610E+02</pdfrwt>
<pdfrwt beam="2">  1       -2 0.12337254E-01 0.91737610E+02</pdfrwt>
<totfact> 0.83749715E+04</totfact>
</mgrwt>
</event>
<event>
 5   1  0.1343823E+00  0.9266804E+02  0.7818608E-02  0.1296516E+00
         -2   -1    0    0    0  501 -0.00000000000E+00  0.00000000000E+00  0.12855859234E+02  0.12855859497E+02  0.26000000000E-02 0.  1.
          2   -1    0    0  501    0  0.00000000000E+00 -0.00000000000E+00 -0.16699323261E+03  0.16699323263E+03  0.26000000000E-02 0. -1.
         23    2    1    2    0    0  0.00000000000E+00  0.00000000000E+00 -0.15413737337E+03  0.17984909212E+03  0.92668042320E+02 0.  0.
        -13    1    3    3    0    0 -0.81925388738E+01  0.43915205176E+02 -0.10093071415E+03  0.11037519273E+03  0.10570000000E+00 0. -1.
         13    1    3    3    0    0  0.81925388738E+01 -0.43915205176E+02 -0.53206659226E+02  0.69473899396E+02  0.10570000000E+00 0.  1.
<mgrwt>
<rscale>  0 0.92668042E+02</rscale>
<asrwt>0</asrwt>
<pdfrwt beam="2">  1        2 0.25691265E-01 0.92668042E+02</pdfrwt>
<pdfrwt beam="1">  1       -2 0.19778246E-02 0.92668042E+02</pdfrwt>
<totfact> 0.13883191E+05</totfact>
</mgrwt>
</event>
<event>
 5   1  0.1343823E+00  0.7824402E+02  0.7818608E-02  0.1334110E+00
          2   -1    0    0  501    0  0.00000000000E+00  0.00000000000E+00  0.39354303401E+02  0.39354303487E+02  0.26000000000E-02 0. -1.
         -2   -1    0    0    0  501 -0.00000000000E+00 -0.00000000000E+00 -0.38891086039E+02  0.38891086126E+02  0.26000000000E-02 0.  1.
         23    2    1    2    0    0  0.00000000000E+00  0.00000000000E+00  0.46321736213E+00  0.78245389612E+02  0.78244018463E+02 0.  0.
        -13    1    3    3    0    0 -0.12797114639E+02  0.36274566370E+02  0.73668668912E+01  0.39164935959E+02  0.10570000000E+00 0. -1.
         13    1    3    3    0    0  0.12797114639E+02 -0.36274566370E+02 -0.69036495290E+01  0.39080453653E+02  0.10570000000E+00 0.  1.
<mgrwt>
<rscale>  0 0.78244018E+02</rscale>
<asrwt>0</asrwt>
<pdfrwt beam="1">  1        2 0.60545082E-02 0.78244018E+02</pdfrwt>
<pdfrwt beam="2">  1       -2 0.59832440E-02 0.78244018E+02</pdfrwt>
<totfact> 0.14694959E+05</totfact>
</mgrwt>
</event>
<event>
 5   1  0.1343823E+00  0.9306726E+02  0.7818608E-02  0.1295589E+00
          2   -1    0    0  501    0  0.00000000000E+00  0.00000000000E+00  0.23912958248E+03  0.23912958250E+03  0.26000000000E-02 0. -1.
         -2   -1    0    0    0  501 -0.00000000000E+00 -0.00000000000E+00 -0.90552523881E+01  0.90552527613E+01  0.26000000000E-02 0.  1.
         23    2    1    2    0    0  0.00000000000E+00  0.00000000000E+00  0.23007433010E+03  0.24818483526E+03  0.93067261073E+02 0.  0.
        -13    1    3    3    0    0  0.70291481688E+01  0.41316318413E+02  0.61111221360E+02  0.74101549510E+02  0.10570000000E+00 0.  1.
         13    1    3    3    0    0 -0.70291481688E+01 -0.41316318413E+02  0.16896310874E+03  0.17408328575E+03  0.10570000000E+00 0. -1.
<mgrwt>
<rscale>  0 0.93067261E+02</rscale>
<asrwt>0</asrwt>
<pdfrwt beam="1">  1        2 0.36789160E-01 0.93067261E+02</pdfrwt>
<pdfrwt beam="2">  1       -2 0.13931160E-02 0.93067261E+02</pdfrwt>
<totfact> 0.15627059E+05</totfact>
</mgrwt>
</event>
<event>
 5   1  0.1343823E+00  0.9162055E+02  0.7818608E-02  0.1298974E+00
          2   -1    0    0  501    0  0.00000000000E+00  0.00000000000E+00  0.41768120855E+02  0.41768120936E+02  0.26000000000E-02 0. -1.
         -2   -1    0    0    0  501 -0.00000000000E+00 -0.00000000000E+00 -0.50243611868E+02  0.50243611936E+02  0.26000000000E-02 0.  1.
         23    2    1    2    0    0  0.00000000000E+00  0.00000000000E+00 -0.84754910135E+01  0.92011732871E+02  0.91620549213E+02 0.  0.
        -13    1    3    3    0    0  0.12068534385E+01  0.29132522011E+02  0.31245954228E+02  0.42737350901E+02  0.10570000000E+00 0. -1.
         13    1    3    3    0    0 -0.12068534385E+01 -0.29132522011E+02 -0.39721445241E+02  0.49274381970E+02  0.10570000000E+00 0.  1.
<mgrwt>
<rscale>  0 0.91620549E+02</rscale>
<asrwt>0</asrwt>
<pdfrwt beam="1">  1        2 0.64258648E-02 0.91620549E+02</pdfrwt>
<pdfrwt beam="2">  1       -2 0.77297865E-02 0.91620549E+02</pdfrwt>
<totfact> 0.95117486E+04</totfact>
</mgrwt>
</event>
<event>
 5   1  0.1343823E+00  0.9130274E+02  0.7818608E-02  0.1299727E+00
         -2   -1    0    0    0  501 -0.00000000000E+00  0.00000000000E+00  0.74744294466E+01  0.74744298988E+01  0.26000000000E-02 0. -1.
          2   -1    0    0  501    0  0.00000000000E+00 -0.00000000000E+00 -0.27882361281E+03  0.27882361282E+03  0.26000000000E-02 0.  1.
         23    2    1    2    0    0  0.00000000000E+00  0.00000000000E+00 -0.27134918336E+03  0.28629804272E+03  0.91302737932E+02 0.  0.
        -13    1    3    3    0    0  0.39498746413E+02  0.13250227060E+02 -0.77152234845E+02  0.87682369947E+02  0.10570000000E+00 0. -1.
         13    1    3    3    0    0 -0.39498746413E+02 -0.13250227060E+02 -0.19419694852E+03  0.19861567278E+03  0.10570000000E+00 0.  1.
<mgrwt>
<rscale>  0 0.91302738E+02</rscale>
<asrwt>0</asrwt>
<pdfrwt beam="2">  1        2 0.42895932E-01 0.91302738E+02</pdfrwt>
<pdfrwt beam="1">  1       -2 0.11499125E-02 0.91302738E+02</pdfrwt>
<totfact> 0.17417825E+05</totfact>
</mgrwt>
</event>
<event>
 5   1  0.1343823E+00  0.9499547E+02  0.7818608E-02  0.1291186E+00
         -2   -1    0    0    0  501 -0.00000000000E+00  0.00000000000E+00  0.34398106169E+02  0.34398106267E+02  0.26000000000E-02 0.  1.
          2   -1    0    0  501    0  0.00000000000E+00 -0.00000000000E+00 -0.65586023358E+02  0.65586023409E+02  0.26000000000E-02 0. -1.
         23    2    1    2    0    0  0.00000000000E+00  0.00000000000E+00 -0.31187917189E+02  0.99984129677E+02  0.94995473622E+02 0.  0.
        -13    1    3    3    0    0 -0.99131179764E+01 -0.11435444706E+02  0.31792404175E+02  0.35210899440E+02  0.10570000000E+00 0.  1.
         13    1    3    3    0    0  0.99131179764E+01  0.11435444706E+02 -0.62980321364E+02  0.64773230237E+02  0.10570000000E+00 0. -1.
<mgrwt>
<rscale>  0 0.94995474E+02</rscale>
<asrwt>0</asrwt>
<pdfrwt beam="2">  1        2 0.10090157E-01 0.94995474E+02</pdfrwt>
<pdfrwt beam="1">  1       -2 0.52920163E-02 0.94995474E+02</pdfrwt>
<totfact> 0.96785926E+04</totfact>
</mgrwt>
</event>
<event>
 5   1  0.1343823E+00  0.9179049E+02  0.7818608E-02  0.1298573E+00
          2   -1    0    0  501    0  0.00000000000E+00  0.00000000000E+00  0.68207887478E+02  0.68207887528E+02  0.26000000000E-02 0. -1.
         -2   -1    0    0    0  501 -0.00000000000E+00 -0.00000000000E+00 -0.30881671671E+02  0.30881671780E+02  0.26000000000E-02 0.  1.
         23    2    1    2    0    0  0.00000000000E+00  0.00000000000E+00  0.37326215807E+02  0.99089559308E+02  0.91790491759E+02 0.  0.
        -13    1    3    3    0    0 -0.20053863958E+02 -0.40782997401E+02  0.11754855286E+02  0.46942498144E+02  0.10570000000E+00 0.  1.
         13    1    3    3    0    0  0.20053863958E+02  0.40782997401E+02  0.25571360522E+02  0.52147061165E+02  0.10570000000E+00 0. -1.
<mgrwt>
<rscale>  0 0.91790492E+02</rscale>
<asrwt>0</asrwt>
<pdfrwt beam="1">  1        2 0.10493521E-01 0.91790492E+02</pdfrwt>
<pdfrwt beam="2">  1       -2 0.47510265E-02 0.91790492E+02</pdfrwt>
<totfact> 0.10778223E+05</totfact>
</mgrwt>
</event>
<event>
 5   1  0.1343823E+00  0.9027039E+02  0.7818608E-02  0.1302198E+00
          2   -1    0    0  501    0  0.00000000000E+00  0.00000000000E+00  0.54739494584E+01  0.54739500759E+01  0.26000000000E-02 0. -1.
         -2   -1    0    0    0  501 -0.00000000000E+00 -0.00000000000E+00 -0.37216012923E+03  0.37216012924E+03  0.26000000000E-02 0.  1.
         23    2    1    2    0    0  0.00000000000E+00  0.00000000000E+00 -0.36668617977E+03  0.37763407932E+03  0.90270390631E+02 0.  0.
        -13    1    3    3    0    0  0.66988052191E+01 -0.42539702299E+02 -0.23988425161E+03  0.24371903004E+03  0.10570000000E+00 0. -1.
         13    1    3    3    0    0 -0.66988052191E+01  0.42539702299E+02 -0.12680192816E+03  0.13391504927E+03  0.10570000000E+00 0.  1.
<mgrwt>
<rscale>  0 0.90270391E+02</rscale>
<asrwt>0</asrwt>
<pdfrwt beam="1">  1        2 0.84214641E-03 0.90270391E+02</pdfrwt>
<pdfrwt beam="2">  1       -2 0.57255385E-01 0.90270391E+02</pdfrwt>
<totfact> 0.45947479E+04</totfact>
</mgrwt>
</event>
<event>
 5   1  0.1343823E+00  0.9160637E+02  0.7818608E-02  0.1299008E+00
          2   -1    0    0  501    0  0.00000000000E+00  0.00000000000E+00  0.11755010603E+03  0.11755010606E+03  0.26000000000E-02 0. -1.
         -2   -1    0    0    0  501 -0.00000000000E+00 -0.00000000000E+00 -0.17847127143E+02  0.17847127332E+02  0.26000000000E-02 0.  1.
         23    2    1    2    0    0  0.00000000000E+00  0.00000000000E+00  0.99702978890E+02  0.13539723339E+03  0.91606368836E+02 0.  0.
        -13    1    3    3    0    0  0.18993015791E+02 -0.15962534714E+02 -0.70553398505E+01  0.25793917039E+02  0.10570000000E+00 0.  1.
         13    1    3    3    0    0 -0.18993015791E+02  0.15962534714E+02  0.10675831874E+03  0.10960331636E+03  0.10570000000E+00 0. -1.
<mgrwt>
<rscale>  0 0.91606369E+02</rscale>
<asrwt>0</asrwt>
<pdfrwt beam="1">  1        2 0.18084631E-01 0.91606369E+02</pdfrwt>
<pdfrwt beam="2">  1       -2 0.27457120E-02 0.91606369E+02</pdfrwt>
<totfact> 0.12736130E+05</totfact>
</mgrwt>
</event>
<event>
 5   1  0.1343823E+00  0.9196637E+02  0.7818608E-02  0.1298159E+00
         -2   -1    0    0    0  501 -0.00000000000E+00  0.00000000000E+00  0.10661268827E+03  0.10661268830E+03  0.26000000000E-02 0.  1.
          2   -1    0    0  501    0  0.00000000000E+00 -0.00000000000E+00 -0.19833036215E+02  0.19833036385E+02  0.26000000000E-02 0. -1.
         23    2    1    2    0    0  0.00000000000E+00  0.00000000000E+00  0.86779652053E+02  0.12644572468E+03  0.91966370379E+02 0.  0.
        -13    1    3    3    0    0  0.28228568276E+02  0.29925778526E+02  0.71635426349E+02  0.82607806943E+02  0.10570000000E+00 0.  1.
         13    1    3    3    0    0 -0.28228568276E+02 -0.29925778526E+02  0.15144225705E+02  0.43837917742E+02  0.10570000000E+00 0. -1.
<mgrwt>
<rscale>  0 0.91966370E+02</rscale>
<asrwt>0</asrwt>
<pdfrwt beam="2">  1        2 0.30512364E-02 0.91966370E+02</pdfrwt>
<pdfrwt beam="1">  1       -2 0.16401952E-01 0.91966370E+02</pdfrwt>
<totfact> 0.76608058E+04</totfact>
</mgrwt>
</event>
<event>
 5   1  0.1343823E+00  0.6525305E+02  0.7818608E-02  0.1377022E+00
         -2   -1    0    0    0  501 -0.00000000000E+00  0.00000000000E+00  0.56953356435E+02  0.56953356495E+02  0.26000000000E-02 0. -1.
          2   -1    0    0  501    0  0.00000000000E+00 -0.00000000000E+00 -0.18690559888E+02  0.18690560069E+02  0.26000000000E-02 0.  1.
         23    2    1    2    0    0  0.00000000000E+00  0.00000000000E+00  0.38262796547E+02  0.75643916563E+02  0.65253049840E+02 0.  0.
        -13    1    3    3    0    0  0.29759479578E+02 -0.13259474544E+01  0.34558180692E+02  0.45625253826E+02  0.10570000000E+00 0.  1.
         13    1    3    3    0    0 -0.29759479578E+02  0.13259474544E+01  0.37046158554E+01  0.30018662738E+02  0.10570000000E+00 0. -1.
<mgrwt>
<rscale>  0 0.65253050E+02</rscale>
<asrwt>0</asrwt>
<pdfrwt beam="2">  1        2 0.28754708E-02 0.65253050E+02</pdfrwt>
<pdfrwt beam="1">  1       -2 0.87620548E-02 0.65253050E+02</pdfrwt>
<totfact> 0.20908560E+05</totfact>
</mgrwt>
</event>
<event>
 5   1  0.1343823E+00  0.8985166E+02  0.7818608E-02  0.1303211E+00
          2   -1    0    0  501    0  0.00000000000E+00  0.00000000000E+00  0.19596049148E+03  0.19596049150E+03  0.26000000000E-02 0. -1.
         -2   -1    0    0    0  501 -0.00000000000E+00 -0.00000000000E+00 -0.10299679787E+02  0.10299680115E+02  0.26000000000E-02 0.  1.
         23    2    1    2    0    0  0.00000000000E+00  0.00000000000E+00  0.18566081169E+03  0.20626017161E+03  0.89851663285E+02 0.  0.
        -13    1    3    3    0    0  0.11981985234E+01  0.31925217434E+02  0.16533765052E+03  0.16839597691E+03  0.10570000000E+00 0. -1.
         13    1    3    3    0    0 -0.11981985234E+01 -0.31925217434E+02  0.20323161175E+02  0.37864194703E+02  0.10570000000E+00 0.  1.
<mgrwt>
<rscale>  0 0.89851663E+02</rscale>
<asrwt>0</asrwt>
<pdfrwt beam="1">  1        2 0.30147765E-01 0.89851663E+02</pdfrwt>
<pdfrwt beam="2">  1       -2 0.15845663E-02 0.89851663E+02</pdfrwt>
<totfact> 0.15971144E+05</totfact>
</mgrwt>
</event>
<event>
 5   1  0.1343823E+00  0.9133329E+02  0.7818608E-02  0.1299655E+00
          2   -1    0    0  501    0  0.00000000000E+00  0.00000000000E+00  0.17034041069E+02  0.17034041267E+02  0.26000000000E-02 0. -1.
         -2   -1    0    0    0  501 -0.00000000000E+00 -0.00000000000E+00 -0.12242792931E+03  0.12242792934E+03  0.26000000000E-02 0.  1.
         23    2    1    2    0    0  0.00000000000E+00  0.00000000000E+00 -0.10539388824E+03  0.13946197060E+03  0.91333288380E+02 0.  0.
        -13    1    3    3    0    0 -0.41497867501E+01 -0.40642743621E+02 -0.21538875603E+02  0.46184279510E+02  0.10570000000E+00 0. -1.
         13    1    3    3    0    0  0.41497867501E+01  0.40642743621E+02 -0.83855012636E+02  0.93277691094E+02  0.10570000000E+00 0.  1.
<mgrwt>
<rscale>  0 0.91333288E+02</rscale>
<asrwt>0</asrwt>
<pdfrwt beam="1">  1        2 0.26206218E-02 0.91333288E+02</pdfrwt>
<pdfrwt beam="2">  1       -2 0.18835066E-01 0.91333288E+02</pdfrwt>
<totfact> 0.74604890E+04</totfact>
</mgrwt>
</event>
<event>
 5   1  0.1343823E+00  0.9029525E+02  0.7818608E-02  0.1302138E+00
          2   -1    0    0  501    0  0.00000000000E+00  0.00000000000E+00  0.26990646760E+03  0.26990646761E+03  0.26000000000E-02 0. -1.
         -2   -1    0    0    0  501 -0.00000000000E+00 -0.00000000000E+00 -0.75519053471E+01  0.75519057947E+01  0.26000000000E-02 0.  1.
         23    2    1    2    0    0  0.00000000000E+00  0.00000000000E+00  0.26235456225E+03  0.27745837341E+03  0.90295252582E+02 0.  0.
        -13    1    3    3    0    0 -0.21606458755E+02  0.39258117792E+02  0.14807989426E+03  0.15471168388E+03  0.10570000000E+00 0. -1.
         13    1    3    3    0    0  0.21606458755E+02 -0.39258117792E+02  0.11427466800E+03  0.12274668953E+03  0.10570000000E+00 0.  1.
<mgrwt>
<rscale>  0 0.90295253E+02</rscale>
<asrwt>0</asrwt>
<pdfrwt beam="1">  1        2 0.41524064E-01 0.90295253E+02</pdfrwt>
<pdfrwt beam="2">  1       -2 0.11618318E-02 0.90295253E+02</pdfrwt>
<totfact> 0.17725506E+05</totfact>
</mgrwt>
</event>
<event>
 5   1  0.1343823E+00  0.9176357E+02  0.7818608E-02  0.1298636E+00
         -2   -1    0    0    0  501 -0.00000000000E+00  0.00000000000E+00  0.40123138073E+02  0.40123138157E+02  0.26000000000E-02 0.  1.
          2   -1    0    0  501    0  0.00000000000E+00 -0.00000000000E+00 -0.52466939872E+02  0.52466939936E+02  0.26000000000E-02 0. -1.
         23    2    1    2    0    0  0.00000000000E+00  0.00000000000E+00 -0.12343801799E+02  0.92590078093E+02  0.91763571849E+02 0.  0.
        -13    1    3    3    0    0 -0.11558393712E+02  0.22066656919E+02 -0.45049361309E+02  0.51478052989E+02  0.10570000000E+00 0. -1.
         13    1    3    3    0    0  0.11558393712E+02 -0.22066656919E+02  0.32705559510E+02  0.41112025104E+02  0.10570000000E+00 0.  1.
<mgrwt>
<rscale>  0 0.91763572E+02</rscale>
<asrwt>0</asrwt>
<pdfrwt beam="2">  1        2 0.80718369E-02 0.91763572E+02</pdfrwt>
<pdfrwt beam="1">  1       -2 0.61727905E-02 0.91763572E+02</pdfrwt>
<totfact> 0.10050837E+05</totfact>
</mgrwt>
</event>
<event>
 5   1  0.1343823E+00  0.9128061E+02  0.7818608E-02  0.1299780E+00
         -2   -1    0    0    0  501 -0.00000000000E+00  0.00000000000E+00  0.53569668267E+01  0.53569674577E+01  0.26000000000E-02 0.  1.
          2   -1    0    0  501    0  0.00000000000E+00 -0.00000000000E+00 -0.38884639561E+03  0.38884639562E+03  0.26000000000E-02 0. -1.
         23    2    1    2    0    0  0.00000000000E+00  0.00000000000E+00 -0.38348942879E+03  0.39420336308E+03  0.91280608413E+02 0.  0.
        -13    1    3    3    0    0  0.28319426413E+02  0.35787562171E+02 -0.19405698294E+03  0.19935110563E+03  0.10570000000E+00 0. -1.
         13    1    3    3    0    0 -0.28319426413E+02 -0.35787562171E+02 -0.18943244585E+03  0.19485225745E+03  0.10570000000E+00 0.  1.
<mgrwt>
<rscale>  0 0.91280608E+02</rscale>
<asrwt>0</asrwt>
<pdfrwt beam="2">  1        2 0.59822500E-01 0.91280608E+02</pdfrwt>
<pdfrwt beam="1">  1       -2 0.82414910E-03 0.91280608E+02</pdfrwt>
<totfact> 0.19701252E+05</totfact>
</mgrwt>
</event>
<event>
 5   1  0.1343823E+00  0.9111980E+02  0.7818608E-02  0.1300162E+00
          2   -1    0    0  501    0  0.00000000000E+00  0.00000000000E+00  0.79407955035E+02  0.79407955078E+02  0.26000000000E-02 0. -1.
         -2   -1    0    0    0  501 -0.00000000000E+00 -0.00000000000E+00 -0.26139756933E+02  0.26139757062E+02  0.26000000000E-02 0.  1.
         23    2    1    2    0    0  0.00000000000E+00  0.00000000000E+00  0.53268198102E+02  0.10554771214E+03  0.91119803605E+02 0.  0.
        -13    1    3    3    0    0  0.27632579500E+02  0.14460200540E+02  0.65104881234E+02  0.72189428468E+02  0.10570000000E+00 0. -1.
         13    1    3    3    0    0 -0.27632579500E+02 -0.14460200540E+02 -0.11836683132E+02  0.33358283672E+02  0.10570000000E+00 0.  1.
<mgrwt>
<rscale>  0 0.91119804E+02</rscale>
<asrwt>0</asrwt>
<pdfrwt beam="1">  1        2 0.12216608E-01 0.91119804E+02</pdfrwt>
<pdfrwt beam="2">  1       -2 0.40215011E-02 0.91119804E+02</pdfrwt>
<totfact> 0.11481191E+05</totfact>
</mgrwt>
</event>
<event>
 5   1  0.1343823E+00  0.9525613E+02  0.7818608E-02  0.1290600E+00
          2   -1    0    0  501    0  0.00000000000E+00  0.00000000000E+00  0.26679186403E+02  0.26679186529E+02  0.26000000000E-02 0. -1.
         -2   -1    0    0    0  501 -0.00000000000E+00 -0.00000000000E+00 -0.85026308590E+02  0.85026308630E+02  0.26000000000E-02 0.  1.
         23    2    1    2    0    0  0.00000000000E+00  0.00000000000E+00 -0.58347122187E+02  0.11170549516E+03  0.95256133562E+02 0.  0.
        -13    1    3    3    0    0  0.45620619589E+02  0.11915607425E+02 -0.37057544788E+02  0.59970788141E+02  0.10570000000E+00 0.  1.
         13    1    3    3    0    0 -0.45620619589E+02 -0.11915607425E+02 -0.21289577399E+02  0.51734707019E+02  0.10570000000E+00 0. -1.
<mgrwt>
<rscale>  0 0.95256134E+02</rscale>
<asrwt>0</asrwt>
<pdfrwt beam="1">  1        2 0.41044903E-02 0.95256134E+02</pdfrwt>
<pdfrwt beam="2">  1       -2 0.13080970E-01 0.95256134E+02</pdfrwt>
<totfact> 0.75087377E+04</totfact>
</mgrwt>
</event>
<event>
 5   1  0.1343823E+00  0.9577141E+02  0.7818608E-02  0.1289448E+00
          2   -1    0    0  501    0  0.00000000000E+00  0.00000000000E+00  0.35583593657E+02  0.35583593752E+02  0.26000000000E-02 0. -1.
         -2   -1    0    0    0  501 -0.00000000000E+00 -0.00000000000E+00 -0.64440949808E+02  0.64440949861E+02  0.26000000000E-02 0.  1.
         23    2    1    2    0    0  0.00000000000E+00  0.00000000000E+00 -0.28857356151E+02  0.10002454361E+03  0.95771406593E+02 0.  0.
        -13    1    3    3    0    0  0.29552718587E+02 -0.14819472614E+02  0.21751465508E+02  0.39574200796E+02  0.10570000000E+00 0. -1.
         13    1    3    3    0    0 -0.29552718587E+02  0.14819472614E+02 -0.50608821659E+02  0.60450342817E+02  0.10570000000E+00 0.  1.
<mgrwt>
<rscale>  0 0.95771407E+02</rscale>
<asrwt>0</asrwt>
<pdfrwt beam="1">  1        2 0.54743990E-02 0.95771407E+02</pdfrwt>
<pdfrwt beam="2">  1       -2 0.99139923E-02 0.95771407E+02</pdfrwt>
<totfact> 0.80069261E+04</totfact>
</mgrwt>
</event>
<event>
 5   1  0.1343823E+00  0.8530151E+02  0.7818608E-02  0.1314646E+00
         -2   -1    0    0    0  501 -0.00000000000E+00  0.00000000000E+00  0.68734485364E+02  0.68734485413E+02  0.26000000000E-02 0.  1.
          2   -1    0    0  501    0  0.00000000000E+00 -0.00000000000E+00 -0.26465417621E+02  0.26465417749E+02  0.26000000000E-02 0. -1.
         23    2    1    2    0    0  0.00000000000E+00  0.00000000000E+00  0.42269067743E+02  0.95199903162E+02  0.85301509214E+02 0.  0.
        -13    1    3    3    0    0 -0.27899927823E+02 -0.23787970385E+01 -0.14770247316E+02  0.31658111538E+02  0.10570000000E+00 0. -1.
         13    1    3    3    0    0  0.27899927823E+02  0.23787970385E+01  0.57039315059E+02  0.63541791624E+02  0.10570000000E+00 0.  1.
<mgrwt>
<rscale>  0 0.85301509E+02</rscale>
<asrwt>0</asrwt>
<pdfrwt beam="2">  1        2 0.40716027E-02 0.85301509E+02</pdfrwt>
<pdfrwt beam="1">  1       -2 0.10574536E-01 0.85301509E+02</pdfrwt>
<totfact> 0.10425907E+05</totfact>
</mgrwt>
</event>
<event>
 5   1  0.1343823E+00  0.9033344E+02  0.7818608E-02  0.1302046E+00
          2   -1    0    0  501    0  0.00000000000E+00  0.00000000000E+00  0.43950688177E+02  0.43950688254E+02  0.26000000000E-02 0. -1.
         -2   -1    0    0    0  501 -0.00000000000E+00 -0.00000000000E+00 -0.46416400226E+02  0.46416400299E+02  0.26000000000E-02 0.  1.
         23    2    1    2    0    0  0.00000000000E+00  0.00000000000E+00 -0.24657120488E+01  0.90367088553E+02  0.90333443185E+02 0.  0.
        -13    1    3    3    0    0  0.10415396718E+02 -0.24823108879E+02 -0.37514178400E+02  0.46173498641E+02  0.10570000000E+00 0.  1.
         13    1    3    3    0    0 -0.10415396718E+02  0.24823108879E+02  0.35048466352E+02  0.44193589912E+02  0.10570000000E+00 0. -1.
<mgrwt>
<rscale>  0 0.90333443E+02</rscale>
<asrwt>0</asrwt>
<pdfrwt beam="1">  1        2 0.67616444E-02 0.90333443E+02</pdfrwt>
<pdfrwt beam="2">  1       -2 0.71409846E-02 0.90333443E+02</pdfrwt>
<totfact> 0.10038708E+05</totfact>
</mgrwt>
</event>
<event>
 5   1  0.1343823E+00  0.9030600E+02  0.7818608E-02  0.1302112E+00
         -2   -1    0    0    0  501 -0.00000000000E+00  0.00000000000E+00  0.28624153783E+02  0.28624153901E+02  0.26000000000E-02 0.  1.
          2   -1    0    0  501    0  0.00000000000E+00 -0.00000000000E+00 -0.71226333586E+02  0.71226333633E+02  0.26000000000E-02 0. -1.
         23    2    1    2    0    0  0.00000000000E+00  0.00000000000E+00 -0.42602179803E+02  0.99850487535E+02  0.90306002773E+02 0.  0.
        -13    1    3    3    0    0 -0.21809511751E+02 -0.17087226782E+02  0.18120369264E+02  0.33105695532E+02  0.10570000000E+00 0.  1.
         13    1    3    3    0    0  0.21809511751E+02  0.17087226782E+02 -0.60722549066E+02  0.66744792003E+02  0.10570000000E+00 0. -1.
<mgrwt>
<rscale>  0 0.90306003E+02</rscale>
<asrwt>0</asrwt>
<pdfrwt beam="2">  1        2 0.10957897E-01 0.90306003E+02</pdfrwt>
<pdfrwt beam="1">  1       -2 0.44037160E-02 0.90306003E+02</pdfrwt>
<totfact> 0.11417177E+05</totfact>
</mgrwt>
</event>
<event>
 5   1  0.1343823E+00  0.9094681E+02  0.7818608E-02  0.1300575E+00
          2   -1    0    0  501    0  0.00000000000E+00  0.00000000000E+00  0.15069090150E+03  0.15069090153E+03  0.26000000000E-02 0. -1.
         -2   -1    0    0    0  501 -0.00000000000E+00 -0.00000000000E+00 -0.13722330550E+02  0.13722330796E+02  0.26000000000E-02 0.  1.
         23    2    1    2    0    0  0.00000000000E+00  0.00000000000E+00  0.13696857095E+03  0.16441323232E+03  0.90946806065E+02 0.  0.
        -13    1    3    3    0    0 -0.31013467930E+02 -0.25201868686E+02  0.29256794978E+02  0.49527170354E+02  0.10570000000E+00 0. -1.
         13    1    3    3    0    0  0.31013467930E+02  0.25201868686E+02  0.10771177598E+03  0.11488606197E+03  0.10570000000E+00 0.  1.
<mgrwt>
<rscale>  0 0.90946806E+02</rscale>
<asrwt>0</asrwt>
<pdfrwt beam="1">  1        2 0.23183215E-01 0.90946806E+02</pdfrwt>
<pdfrwt beam="2">  1       -2 0.21111279E-02 0.90946806E+02</pdfrwt>
<totfact> 0.14099182E+05</totfact>
</mgrwt>
</event>
<event>
 5   1  0.1343823E+00  0.1023009E+03  0.7818608E-02  0.1275531E+00
          2   -1    0    0  501    0  0.00000000000E+00  0.00000000000E+00  0.31499541940E+02  0.31499542047E+02  0.26000000000E-02 0. -1.
         -2   -1    0    0    0  501 -0.00000000000E+00 -0.00000000000E+00 -0.83060535416E+02  0.83060535457E+02  0.26000000000E-02 0.  1.
         23    2    1    2    0    0  0.00000000000E+00  0.00000000000E+00 -0.51560993476E+02  0.11456007750E+03  0.10230090571E+03 0.  0.
        -13    1    3    3    0    0  0.16038636782E+01  0.45205857346E+02  0.96024316734E+00  0.45244614668E+02  0.10570000000E+00 0. -1.
         13    1    3    3    0    0 -0.16038636782E+01 -0.45205857346E+02 -0.52521236643E+02  0.69315462836E+02  0.10570000000E+00 0.  1.
<mgrwt>
<rscale>  0 0.10230091E+03</rscale>
<asrwt>0</asrwt>
<pdfrwt beam="1">  1        2 0.48460834E-02 0.10230091E+03</pdfrwt>
<pdfrwt beam="2">  1       -2 0.12778544E-01 0.10230091E+03</pdfrwt>
<totfact> 0.63450418E+04</totfact>
</mgrwt>
</event>
<event>
 5   1  0.1343823E+00  0.9427157E+02  0.7818608E-02  0.1292825E+00
          2   -1    0    0  501    0  0.00000000000E+00  0.00000000000E+00  0.45486084496E+02  0.45486084570E+02  0.26000000000E-02 0. -1.
         -2   -1    0    0    0  501 -0.00000000000E+00 -0.00000000000E+00 -0.48845316337E+02  0.48845316406E+02  0.26000000000E-02 0.  1.
         23    2    1    2    0    0  0.00000000000E+00  0.00000000000E+00 -0.33592318409E+01  0.94331400977E+02  0.94271569265E+02 0.  0.
        -13    1    3    3    0    0 -0.63812114323E+01  0.31756083176E+02  0.32585399111E+02  0.45945490374E+02  0.10570000000E+00 0. -1.
         13    1    3    3    0    0  0.63812114323E+01 -0.31756083176E+02 -0.35944630952E+02  0.48385910602E+02  0.10570000000E+00 0.  1.
<mgrwt>
<rscale>  0 0.94271569E+02</rscale>
<asrwt>0</asrwt>
<pdfrwt beam="1">  1        2 0.69978592E-02 0.94271569E+02</pdfrwt>
<pdfrwt beam="2">  1       -2 0.75146641E-02 0.94271569E+02</pdfrwt>
<totfact> 0.89570546E+04</totfact>
</mgrwt>
</event>
<event>
 5   1  0.1343823E+00  0.9352988E+02  0.7818608E-02  0.1294522E+00
         -2   -1    0    0    0  501 -0.00000000000E+00  0.00000000000E+00  0.16346381888E+03  0.16346381890E+03  0.26000000000E-02 0.  1.
          2   -1    0    0  501    0  0.00000000000E+00 -0.00000000000E+00 -0.13378859560E+02  0.13378859813E+02  0.26000000000E-02 0. -1.
         23    2    1    2    0    0  0.00000000000E+00  0.00000000000E+00  0.15008495932E+03  0.17684267872E+03  0.93529877584E+02 0.  0.
        -13    1    3    3    0    0  0.12811401752E+02  0.21763240986E+02  0.14946207957E+03  0.15158065535E+03  0.10570000000E+00 0.  1.
         13    1    3    3    0    0 -0.12811401752E+02 -0.21763240986E+02  0.62287975139E+00  0.25262023370E+02  0.10570000000E+00 0. -1.
<mgrwt>
<rscale>  0 0.93529878E+02</rscale>
<asrwt>0</asrwt>
<pdfrwt beam="2">  1        2 0.20582860E-02 0.93529878E+02</pdfrwt>
<pdfrwt beam="1">  1       -2 0.25148281E-01 0.93529878E+02</pdfrwt>
<totfact> 0.63409818E+04</totfact>
</mgrwt>
</event>
<event>
 5   1  0.1343823E+00  0.9809501E+02  0.7818608E-02  0.1284354E+00
         -2   -1    0    0    0  501 -0.00000000000E+00  0.00000000000E+00  0.39884560328E+02  0.39884560413E+02  0.26000000000E-02 0.  1.
          2   -1    0    0  501    0  0.00000000000E+00 -0.00000000000E+00 -0.60315514000E+02  0.60315514056E+02  0.26000000000E-02 0. -1.
         23    2    1    2    0    0  0.00000000000E+00  0.00000000000E+00 -0.20430953672E+02  0.10020007447E+03  0.98095010350E+02 0.  0.
        -13    1    3    3    0    0 -0.18206963002E+02 -0.18931944939E+02  0.32094830054E+02  0.41472898737E+02  0.10570000000E+00 0.  1.
         13    1    3    3    0    0  0.18206963002E+02  0.18931944939E+02 -0.52525783726E+02  0.58727175732E+02  0.10570000000E+00 0. -1.
<mgrwt>
<rscale>  0 0.98095010E+02</rscale>
<asrwt>0</asrwt>
<pdfrwt beam="2">  1        2 0.92793099E-02 0.98095010E+02</pdfrwt>
<pdfrwt beam="1">  1       -2 0.61360862E-02 0.98095010E+02</pdfrwt>
<totfact> 0.86291478E+04</totfact>
</mgrwt>
</event>
<event>
 5   1  0.1343823E+00  0.8541964E+02  0.7818608E-02  0.1314339E+00
          2   -1    0    0  501    0  0.00000000000E+00  0.00000000000E+00  0.18509090186E+02  0.18509090369E+02  0.26000000000E-02 0.  1.
         -2   -1    0    0    0  501 -0.00000000000E+00 -0.00000000000E+00 -0.98553120572E+02  0.98553120607E+02  0.26000000000E-02 0. -1.
         23    2    1    2    0    0  0.00000000000E+00  0.00000000000E+00 -0.80044030386E+02  0.11706221098E+03  0.85419637310E+02 0.  0.
        -13    1    3    3    0    0  0.23386223259E+02  0.35736933192E+02 -0.39650213103E+02  0.58276877095E+02  0.10570000000E+00 0.  1.
         13    1    3    3    0    0 -0.23386223259E+02 -0.35736933192E+02 -0.40393817282E+02  0.58785333881E+02  0.10570000000E+00 0. -1.
<mgrwt>
<rscale>  0 0.85419637E+02</rscale>
<asrwt>0</asrwt>
<pdfrwt beam="1">  1        2 0.28475524E-02 0.85419637E+02</pdfrwt>
<pdfrwt beam="2">  1       -2 0.15162018E-01 0.85419637E+02</pdfrwt>
<totfact> 0.94261697E+04</totfact>
</mgrwt>
</event>
<event>
 5   1  0.1343823E+00  0.9245808E+02  0.7818608E-02  0.1297006E+00
         -2   -1    0    0    0  501 -0.00000000000E+00  0.00000000000E+00  0.26142022885E+02  0.26142023015E+02  0.26000000000E-02 0.  1.
          2   -1    0    0  501    0  0.00000000000E+00 -0.00000000000E+00 -0.81750519700E+02  0.81750519742E+02  0.26000000000E-02 0. -1.
         23    2    1    2    0    0  0.00000000000E+00  0.00000000000E+00 -0.55608496815E+02  0.10789254276E+03  0.92458076253E+02 0.  0.
        -13    1    3    3    0    0  0.24770136381E+02  0.19220085836E+01 -0.73297630875E+02  0.77393847544E+02  0.10570000000E+00 0. -1.
         13    1    3    3    0    0 -0.24770136381E+02 -0.19220085836E+01  0.17689134060E+02  0.30498695212E+02  0.10570000000E+00 0.  1.
<mgrwt>
<rscale>  0 0.92458076E+02</rscale>
<asrwt>0</asrwt>
<pdfrwt beam="2">  1        2 0.12577003E-01 0.92458076E+02</pdfrwt>
<pdfrwt beam="1">  1       -2 0.40218497E-02 0.92458076E+02</pdfrwt>
<totfact> 0.11117019E+05</totfact>
</mgrwt>
</event>
<event>
 5   1  0.1343823E+00  0.8873551E+02  0.7818608E-02  0.1305943E+00
          2   -1    0    0  501    0  0.00000000000E+00  0.00000000000E+00  0.13261751000E+02  0.13261751255E+02  0.26000000000E-02 0. -1.
         -2   -1    0    0    0  501 -0.00000000000E+00 -0.00000000000E+00 -0.14843421281E+03  0.14843421283E+03  0.26000000000E-02 0.  1.
         23    2    1    2    0    0  0.00000000000E+00  0.00000000000E+00 -0.13517246181E+03  0.16169596409E+03  0.88735507946E+02 0.  0.
        -13    1    3    3    0    0  0.14970979562E+02  0.41188619589E+02 -0.54980733449E+02  0.70310204351E+02  0.10570000000E+00 0. -1.
         13    1    3    3    0    0 -0.14970979562E+02 -0.41188619589E+02 -0.80191728362E+02  0.91385759738E+02  0.10570000000E+00 0.  1.
<mgrwt>
<rscale>  0 0.88735508E+02</rscale>
<asrwt>0</asrwt>
<pdfrwt beam="1">  1        2 0.20402695E-02 0.88735508E+02</pdfrwt>
<pdfrwt beam="2">  1       -2 0.22836032E-01 0.88735508E+02</pdfrwt>
<totfact> 0.75103840E+04</totfact>
</mgrwt>
</event>
<event>
 5   1  0.1343823E+00  0.8973475E+02  0.7818608E-02  0.1303495E+00
         -2   -1    0    0    0  501 -0.00000000000E+00  0.00000000000E+00  0.78106331837E+01  0.78106336164E+01  0.26000000000E-02 0.  1.
          2   -1    0    0  501    0  0.00000000000E+00 -0.00000000000E+00 -0.25773597986E+03  0.25773597987E+03  0.26000000000E-02 0. -1.
         23    2    1    2    0    0  0.00000000000E+00  0.00000000000E+00 -0.24992534668E+03  0.26554661349E+03  0.89734748144E+02 0.  0.
        -13    1    3    3    0    0  0.40334855190E+02  0.14451650598E+02 -0.85557053208E+02  0.95685794528E+02  0.10570000000E+00 0. -1.
         13    1    3    3    0    0 -0.40334855190E+02 -0.14451650598E+02 -0.16436829347E+03  0.16986081896E+03  0.10570000000E+00 0.  1.
<mgrwt>
<rscale>  0 0.89734748E+02</rscale>
<asrwt>0</asrwt>
<pdfrwt beam="2">  1        2 0.39651683E-01 0.89734748E+02</pdfrwt>
<pdfrwt beam="1">  1       -2 0.12016361E-02 0.89734748E+02</pdfrwt>
<totfact> 0.17715688E+05</totfact>
</mgrwt>
</event>
<event>
 5   1  0.1343823E+00  0.9194495E+02  0.7818608E-02  0.1298209E+00
          2   -1    0    0  501    0  0.00000000000E+00  0.00000000000E+00  0.25319494599E+03  0.25319494600E+03  0.26000000000E-02 0. -1.
         -2   -1    0    0    0  501 -0.00000000000E+00 -0.00000000000E+00 -0.83471984577E+01  0.83471988626E+01  0.26000000000E-02 0.  1.
         23    2    1    2    0    0  0.00000000000E+00  0.00000000000E+00  0.24484774753E+03  0.26154214486E+03  0.91944951299E+02 0.  0.
        -13    1    3    3    0    0 -0.35684683155E+02 -0.21185673803E+02  0.17868763165E+03  0.18344347975E+03  0.10570000000E+00 0. -1.
         13    1    3    3    0    0  0.35684683155E+02  0.21185673803E+02  0.66160115876E+02  0.78098665108E+02  0.10570000000E+00 0.  1.
<mgrwt>
<rscale>  0 0.91944951E+02</rscale>
<asrwt>0</asrwt>
<pdfrwt beam="1">  1        2 0.38953067E-01 0.91944951E+02</pdfrwt>
<pdfrwt beam="2">  1       -2 0.12841845E-02 0.91944951E+02</pdfrwt>
<totfact> 0.16490127E+05</totfact>
</mgrwt>
</event>
<event>
 5   1  0.1343823E+00  0.9274258E+02  0.7818608E-02  0.1296343E+00
          2   -1    0    0  501    0  0.00000000000E+00  0.00000000000E+00  0.29646116879E+03  0.29646116880E+03  0.26000000000E-02 0. -1.
         -2   -1    0    0    0  501 -0.00000000000E+00 -0.00000000000E+00 -0.72532142633E+01  0.72532147293E+01  0.26000000000E-02 0.  1.
         23    2    1    2    0    0  0.00000000000E+00  0.00000000000E+00  0.28920795453E+03  0.30371438353E+03  0.92742578150E+02 0.  0.
        -13    1    3    3    0    0  0.19117511893E+02 -0.38683336527E+02  0.20021846722E+03  0.20481534506E+03  0.10570000000E+00 0. -1.
         13    1    3    3    0    0 -0.19117511893E+02  0.38683336527E+02  0.88989487308E+02  0.98899038466E+02  0.10570000000E+00 0.  1.
<mgrwt>
<rscale>  0 0.92742578E+02</rscale>
<asrwt>0</asrwt>
<pdfrwt beam="1">  1        2 0.45609418E-01 0.92742578E+02</pdfrwt>
<pdfrwt beam="2">  1       -2 0.11158790E-02 0.92742578E+02</pdfrwt>
<totfact> 0.17090956E+05</totfact>
</mgrwt>
</event>
<event>
 5   1  0.1343823E+00  0.9309929E+02  0.7818608E-02  0.1295515E+00
          2   -1    0    0  501    0  0.00000000000E+00  0.00000000000E+00  0.10068535760E+03  0.10068535764E+03  0.26000000000E-02 0. -1.
         -2   -1    0    0    0  501 -0.00000000000E+00 -0.00000000000E+00 -0.21521197919E+02  0.21521198076E+02  0.26000000000E-02 0.  1.
         23    2    1    2    0    0  0.00000000000E+00  0.00000000000E+00  0.79164159685E+02  0.12220655571E+03  0.93099291515E+02 0.  0.
        -13    1    3    3    0    0  0.29864001992E+02  0.28150134357E+02  0.10746536536E+02  0.42423907166E+02  0.10570000000E+00 0. -1.
         13    1    3    3    0    0 -0.29864001992E+02 -0.28150134357E+02  0.68417623149E+02  0.79782648547E+02  0.10570000000E+00 0.  1.
<mgrwt>
<rscale>  0 0.93099292E+02</rscale>
<asrwt>0</asrwt>
<pdfrwt beam="1">  1        2 0.15490055E-01 0.93099292E+02</pdfrwt>
<pdfrwt beam="2">  1       -2 0.33109535E-02 0.93099292E+02</pdfrwt>
<totfact> 0.11605492E+05</totfact>
</mgrwt>
</event>
<event>
 5   1  0.1343823E+00  0.8903615E+02  0.7818608E-02  0.1305203E+00
         -2   -1    0    0    0  501 -0.00000000000E+00  0.00000000000E+00  0.81909238658E+01  0.81909242784E+01  0.26000000000E-02 0.  1.
          2   -1    0    0  501    0  0.00000000000E+00 -0.00000000000E+00 -0.24195794045E+03  0.24195794046E+03  0.26000000000E-02 0. -1.
         23    2    1    2    0    0  0.00000000000E+00  0.00000000000E+00 -0.23376701658E+03  0.25014886474E+03  0.89036152709E+02 0.  0.
        -13    1    3    3    0    0  0.38338951368E+02 -0.22600980590E+02 -0.11992043469E+03  0.12791247533E+03  0.10570000000E+00 0. -1.
         13    1    3    3    0    0 -0.38338951368E+02  0.22600980590E+02 -0.11384658189E+03  0.12223638941E+03  0.10570000000E+00 0.  1.
<mgrwt>
<rscale>  0 0.89036153E+02</rscale>
<asrwt>0</asrwt>
<pdfrwt beam="2">  1        2 0.37224293E-01 0.89036153E+02</pdfrwt>
<pdfrwt beam="1">  1       -2 0.12601423E-02 0.89036153E+02</pdfrwt>
<totfact> 0.17672437E+05</totfact>
</mgrwt>
</event>
<event>
 5   1  0.1343823E+00  0.8862661E+02  0.7818608E-02  0.1306212E+00
         -2   -1    0    0    0  501 -0.00000000000E+00  0.00000000000E+00  0.50895156232E+01  0.50895162873E+01  0.26000000000E-02 0.  1.
          2   -1    0    0  501    0  0.00000000000E+00 -0.00000000000E+00 -0.38582626367E+03  0.38582626368E+03  0.26000000000E-02 0. -1.
         23    2    1    2    0    0  0.00000000000E+00  0.00000000000E+00 -0.38073674804E+03  0.39091577996E+03  0.88626608381E+02 0.  0.
        -13    1    3    3    0    0  0.17690822780E+02 -0.39125156938E+02 -0.23866926873E+03  0.24250108067E+03  0.10570000000E+00 0.  1.
         13    1    3    3    0    0 -0.17690822780E+02  0.39125156938E+02 -0.14206747931E+03  0.14841469929E+03  0.10570000000E+00 0. -1.
<mgrwt>
<rscale>  0 0.88626608E+02</rscale>
<asrwt>0</asrwt>
<pdfrwt beam="2">  1        2 0.59357864E-01 0.88626608E+02</pdfrwt>
<pdfrwt beam="1">  1       -2 0.78300276E-03 0.88626608E+02</pdfrwt>
<totfact> 0.21244564E+05</totfact>
</mgrwt>
</event>
<event>
 5   1  0.1343823E+00  0.9022860E+02  0.7818608E-02  0.1302299E+00
         -2   -1    0    0    0  501 -0.00000000000E+00  0.00000000000E+00  0.51890795675E+01  0.51890802189E+01  0.26000000000E-02 0.  1.
          2   -1    0    0  501    0  0.00000000000E+00 -0.00000000000E+00 -0.39222753418E+03  0.39222753419E+03  0.26000000000E-02 0. -1.
         23    2    1    2    0    0  0.00000000000E+00  0.00000000000E+00 -0.38703845461E+03  0.39741661441E+03  0.90228598894E+02 0.  0.
        -13    1    3    3    0    0 -0.19400643705E+02  0.38628874419E+02 -0.25038981898E+03  0.25409377705E+03  0.10570000000E+00 0. -1.
         13    1    3    3    0    0  0.19400643705E+02 -0.38628874419E+02 -0.13664863564E+03  0.14332283736E+03  0.10570000000E+00 0.  1.
<mgrwt>
<rscale>  0 0.90228599E+02</rscale>
<asrwt>0</asrwt>
<pdfrwt beam="2">  1        2 0.60342674E-01 0.90228599E+02</pdfrwt>
<pdfrwt beam="1">  1       -2 0.79832029E-03 0.90228599E+02</pdfrwt>
<totfact> 0.20380076E+05</totfact>
</mgrwt>
</event>
<event>
 5   1  0.1343823E+00  0.8840200E+02  0.7818608E-02  0.1306768E+00
          2   -1    0    0  501    0  0.00000000000E+00  0.00000000000E+00  0.44411502438E+03  0.44411502439E+03  0.26000000000E-02 0. -1.
         -2   -1    0    0    0  501 -0.00000000000E+00 -0.00000000000E+00 -0.43991495017E+01  0.43991502701E+01  0.26000000000E-02 0.  1.
         23    2    1    2    0    0  0.00000000000E+00  0.00000000000E+00  0.43971587488E+03  0.44851417466E+03  0.88402003648E+02 0.  0.
        -13    1    3    3    0    0 -0.36815551455E+02  0.23735906353E+02  0.24984757580E+03  0.25365843251E+03  0.10570000000E+00 0. -1.
         13    1    3    3    0    0  0.36815551455E+02 -0.23735906353E+02  0.18986829908E+03  0.19485574215E+03  0.10570000000E+00 0.  1.
<mgrwt>
<rscale>  0 0.88402004E+02</rscale>
<asrwt>0</asrwt>
<pdfrwt beam="1">  1        2 0.68325400E-01 0.88402004E+02</pdfrwt>
<pdfrwt beam="2">  1       -2 0.67679218E-03 0.88402004E+02</pdfrwt>
<totfact> 0.22474523E+05</totfact>
</mgrwt>
</event>
<event>
 5   1  0.1343823E+00  0.9054835E+02  0.7818608E-02  0.1301529E+00
          2   -1    0    0  501    0  0.00000000000E+00  0.00000000000E+00  0.18913991100E+02  0.18913991279E+02  0.26000000000E-02 0.  1.
         -2   -1    0    0    0  501 -0.00000000000E+00 -0.00000000000E+00 -0.10837220758E+03  0.10837220761E+03  0.26000000000E-02 0. -1.
         23    2    1    2    0    0  0.00000000000E+00  0.00000000000E+00 -0.89458216481E+02  0.12728619889E+03  0.90548351350E+02 0.  0.
        -13    1    3    3    0    0 -0.27760916811E+02 -0.22752777469E+01  0.54435934757E+01  0.28381142920E+02  0.10570000000E+00 0.  1.
         13    1    3    3    0    0  0.27760916811E+02  0.22752777469E+01 -0.94901809957E+02  0.98905055971E+02  0.10570000000E+00 0. -1.
<mgrwt>
<rscale>  0 0.90548351E+02</rscale>
<asrwt>0</asrwt>
<pdfrwt beam="1">  1        2 0.29098449E-02 0.90548351E+02</pdfrwt>
<pdfrwt beam="2">  1       -2 0.16672647E-01 0.90548351E+02</pdfrwt>
<totfact> 0.79240352E+04</totfact>
</mgrwt>
</event>
<event>
 5   1  0.1343823E+00  0.8976402E+02  0.7818608E-02  0.1303424E+00
          2   -1    0    0  501    0  0.00000000000E+00  0.00000000000E+00  0.52372822108E+02  0.52372822172E+02  0.26000000000E-02 0. -1.
         -2   -1    0    0    0  501 -0.00000000000E+00 -0.00000000000E+00 -0.38462597543E+02  0.38462597630E+02  0.26000000000E-02 0.  1.
         23    2    1    2    0    0  0.00000000000E+00  0.00000000000E+00  0.13910224565E+02  0.90835419803E+02  0.89764019202E+02 0.  0.
        -13    1    3    3    0    0 -0.43713268290E+01 -0.11568604703E+02  0.50614511016E+02  0.52103560444E+02  0.10570000000E+00 0. -1.
         13    1    3    3    0    0  0.43713268290E+01  0.11568604703E+02 -0.36704286451E+02  0.38731859359E+02  0.10570000000E+00 0.  1.
<mgrwt>
<rscale>  0 0.89764019E+02</rscale>
<asrwt>0</asrwt>
<pdfrwt beam="1">  1        2 0.80573573E-02 0.89764019E+02</pdfrwt>
<pdfrwt beam="2">  1       -2 0.59173227E-02 0.89764019E+02</pdfrwt>
<totfact> 0.10694767E+05</totfact>
</mgrwt>
</event>
<event>
 5   1  0.1343823E+00  0.9215644E+02  0.7818608E-02  0.1297712E+00
         -2   -1    0    0    0  501 -0.00000000000E+00  0.00000000000E+00  0.24144017470E+02  0.24144017610E+02  0.26000000000E-02 0.  1.
          2   -1    0    0  501    0  0.00000000000E+00 -0.00000000000E+00 -0.87939065896E+02  0.87939065934E+02  0.26000000000E-02 0. -1.
         23    2    1    2    0    0  0.00000000000E+00  0.00000000000E+00 -0.63795048426E+02  0.11208308354E+03  0.92156439890E+02 0.  0.
        -13    1    3    3    0    0  0.36958883610E+02 -0.95965443821E+01 -0.53071049351E+00  0.38188290979E+02  0.10570000000E+00 0.  1.
         13    1    3    3    0    0 -0.36958883610E+02  0.95965443821E+01 -0.63264337932E+02  0.73894792565E+02  0.10570000000E+00 0. -1.
<mgrwt>
<rscale>  0 0.92156440E+02</rscale>
<asrwt>0</asrwt>
<pdfrwt beam="2">  1        2 0.13529087E-01 0.92156440E+02</pdfrwt>
<pdfrwt beam="1">  1       -2 0.37144643E-02 0.92156440E+02</pdfrwt>
<totfact> 0.11460323E+05</totfact>
</mgrwt>
</event>
<event>
 5   1  0.1343823E+00  0.9220595E+02  0.7818608E-02  0.1297596E+00
         -2   -1    0    0    0  501 -0.00000000000E+00  0.00000000000E+00  0.31244575257E+03  0.31244575258E+03  0.26000000000E-02 0.  1.
          2   -1    0    0  501    0  0.00000000000E+00 -0.00000000000E+00 -0.68027311127E+01  0.68027316095E+01  0.26000000000E-02 0. -1.
         23    2    1    2    0    0  0.00000000000E+00  0.00000000000E+00  0.30564302146E+03  0.31924848419E+03  0.92205954755E+02 0.  0.
        -13    1    3    3    0    0 -0.40668148280E+02  0.12071363274E+02  0.21532202228E+03  0.21946115954E+03  0.10570000000E+00 0.  1.
         13    1    3    3    0    0  0.40668148280E+02 -0.12071363274E+02  0.90320999178E+02  0.99787324650E+02  0.10570000000E+00 0. -1.
<mgrwt>
<rscale>  0 0.92205955E+02</rscale>
<asrwt>0</asrwt>
<pdfrwt beam="2">  1        2 0.10465743E-02 0.92205955E+02</pdfrwt>
<pdfrwt beam="1">  1       -2 0.48068565E-01 0.92205955E+02</pdfrwt>
<totfact> 0.48411502E+04</totfact>
</mgrwt>
</event>
<event>
 5   1  0.1343823E+00  0.8790430E+02  0.7818608E-02  0.1308008E+00
          2   -1    0    0  501    0  0.00000000000E+00  0.00000000000E+00  0.58299475703E+02  0.58299475761E+02  0.26000000000E-02 0. -1.
         -2   -1    0    0    0  501 -0.00000000000E+00 -0.00000000000E+00 -0.33135656937E+02  0.33135657039E+02  0.26000000000E-02 0.  1.
         23    2    1    2    0    0  0.00000000000E+00  0.00000000000E+00  0.25163818766E+02  0.91435132801E+02  0.87904298731E+02 0.  0.
        -13    1    3    3    0    0  0.11706952878E+01 -0.24698905338E+02  0.50378396448E+02  0.56119519363E+02  0.10570000000E+00 0. -1.
         13    1    3    3    0    0 -0.11706952878E+01  0.24698905338E+02 -0.25214577682E+02  0.35315613438E+02  0.10570000000E+00 0.  1.
<mgrwt>
<rscale>  0 0.87904299E+02</rscale>
<asrwt>0</asrwt>
<pdfrwt beam="1">  1        2 0.89691500E-02 0.87904299E+02</pdfrwt>
<pdfrwt beam="2">  1       -2 0.50977934E-02 0.87904299E+02</pdfrwt>
<totfact> 0.11665742E+05</totfact>
</mgrwt>
</event>
<event>
 5   1  0.1343823E+00  0.9110178E+02  0.7818608E-02  0.1300205E+00
          2   -1    0    0  501    0  0.00000000000E+00  0.00000000000E+00  0.13816105205E+02  0.13816105450E+02  0.26000000000E-02 0. -1.
         -2   -1    0    0    0  501 -0.00000000000E+00 -0.00000000000E+00 -0.15017862901E+03  0.15017862903E+03  0.26000000000E-02 0.  1.
         23    2    1    2    0    0  0.00000000000E+00  0.00000000000E+00 -0.13636252380E+03  0.16399473448E+03  0.91101783953E+02 0.  0.
        -13    1    3    3    0    0  0.37880888875E+01  0.23408402912E+02  0.18288404520E+01  0.23783582030E+02  0.10570000000E+00 0. -1.
         13    1    3    3    0    0 -0.37880888875E+01 -0.23408402912E+02 -0.13819136425E+03  0.14021115245E+03  0.10570000000E+00 0.  1.
<mgrwt>
<rscale>  0 0.91101784E+02</rscale>
<asrwt>0</asrwt>
<pdfrwt beam="1">  1        2 0.21255548E-02 0.91101784E+02</pdfrwt>
<pdfrwt beam="2">  1       -2 0.23104403E-01 0.91101784E+02</pdfrwt>
<totfact> 0.69972192E+04</totfact>
</mgrwt>
</event>
<event>
 5   1  0.1343823E+00  0.9237545E+02  0.7818608E-02  0.1297199E+00
         -2   -1    0    0    0  501 -0.00000000000E+00  0.00000000000E+00  0.12764584399E+02  0.12764584664E+02  0.26000000000E-02 0.  1.
          2   -1    0    0  501    0  0.00000000000E+00 -0.00000000000E+00 -0.16712694573E+03  0.16712694575E+03  0.26000000000E-02 0. -1.
         23    2    1    2    0    0  0.00000000000E+00  0.00000000000E+00 -0.15436236133E+03  0.17989153041E+03  0.92375451928E+02 0.  0.
        -13    1    3    3    0    0  0.36162734342E+02  0.58935041749E+01 -0.22417523405E+02  0.42953850522E+02  0.10570000000E+00 0.  1.
         13    1    3    3    0    0 -0.36162734342E+02 -0.58935041749E+01 -0.13194483792E+03  0.13693767989E+03  0.10570000000E+00 0. -1.
<mgrwt>
<rscale>  0 0.92375452E+02</rscale>
<asrwt>0</asrwt>
<pdfrwt beam="2">  1        2 0.25711836E-01 0.92375452E+02</pdfrwt>
<pdfrwt beam="1">  1       -2 0.19637824E-02 0.92375452E+02</pdfrwt>
<totfact> 0.14006704E+05</totfact>
</mgrwt>
</event>
<event>
 5   1  0.1343823E+00  0.9040417E+02  0.7818608E-02  0.1301876E+00
          2   -1    0    0  501    0  0.00000000000E+00  0.00000000000E+00  0.12072997381E+02  0.12072997661E+02  0.26000000000E-02 0. -1.
         -2   -1    0    0    0  501 -0.00000000000E+00 -0.00000000000E+00 -0.16923955083E+03  0.16923955085E+03  0.26000000000E-02 0.  1.
         23    2    1    2    0    0  0.00000000000E+00  0.00000000000E+00 -0.15716655345E+03  0.18131254851E+03  0.90404174266E+02 0.  0.
        -13    1    3    3    0    0  0.42320828213E+02  0.15062905538E+02 -0.88665942684E+02  0.99396198058E+02  0.10570000000E+00 0. -1.
         13    1    3    3    0    0 -0.42320828213E+02 -0.15062905538E+02 -0.68500610766E+02  0.81916350454E+02  0.10570000000E+00 0.  1.
<mgrwt>
<rscale>  0 0.90404174E+02</rscale>
<asrwt>0</asrwt>
<pdfrwt beam="1">  1        2 0.18573844E-02 0.90404174E+02</pdfrwt>
<pdfrwt beam="2">  1       -2 0.26036852E-01 0.90404174E+02</pdfrwt>
<totfact> 0.68208911E+04</totfact>
</mgrwt>
</event>
<event>
 5   1  0.1343823E+00  0.8675641E+02  0.7818608E-02  0.1310902E+00
         -2   -1    0    0    0  501 -0.00000000000E+00  0.00000000000E+00  0.67996994344E+02  0.67996994393E+02  0.26000000000E-02 0.  1.
          2   -1    0    0  501    0  0.00000000000E+00 -0.00000000000E+00 -0.27672818616E+02  0.27672818739E+02  0.26000000000E-02 0. -1.
         23    2    1    2    0    0  0.00000000000E+00  0.00000000000E+00  0.40324175727E+02  0.95669813132E+02  0.86756406084E+02 0.  0.
        -13    1    3    3    0    0  0.40574835018E+02 -0.58668281097E+01  0.35793039133E+02  0.54423246243E+02  0.10570000000E+00 0. -1.
         13    1    3    3    0    0 -0.40574835018E+02  0.58668281097E+01  0.45311365941E+01  0.41246566889E+02  0.10570000000E+00 0.  1.
<mgrwt>
<rscale>  0 0.86756406E+02</rscale>
<asrwt>0</asrwt>
<pdfrwt beam="2">  1        2 0.42573568E-02 0.86756406E+02</pdfrwt>
<pdfrwt beam="1">  1       -2 0.10461076E-01 0.86756406E+02</pdfrwt>
<totfact> 0.10032705E+05</totfact>
</mgrwt>
</event>
<event>
 5   1  0.1343823E+00  0.9016764E+02  0.7818608E-02  0.1302446E+00
          2   -1    0    0  501    0  0.00000000000E+00  0.00000000000E+00  0.10106369847E+02  0.10106370182E+02  0.26000000000E-02 0. -1.
         -2   -1    0    0    0  501 -0.00000000000E+00 -0.00000000000E+00 -0.20111581317E+03  0.20111581319E+03  0.26000000000E-02 0.  1.
         23    2    1    2    0    0  0.00000000000E+00  0.00000000000E+00 -0.19100944333E+03  0.21122218337E+03  0.90167640030E+02 0.  0.
        -13    1    3    3    0    0 -0.21207915470E+02 -0.30162376211E+02 -0.15627549395E+03  0.16056645291E+03  0.10570000000E+00 0.  1.
         13    1    3    3    0    0  0.21207915470E+02  0.30162376211E+02 -0.34733949377E+02  0.50655730466E+02  0.10570000000E+00 0. -1.
<mgrwt>
<rscale>  0 0.90167640E+02</rscale>
<asrwt>0</asrwt>
<pdfrwt beam="1">  1        2 0.15548263E-02 0.90167640E+02</pdfrwt>
<pdfrwt beam="2">  1       -2 0.30940891E-01 0.90167640E+02</pdfrwt>
<totfact> 0.63960168E+04</totfact>
</mgrwt>
</event>
<event>
 5   1  0.1343823E+00  0.9423024E+02  0.7818608E-02  0.1292919E+00
          2   -1    0    0  501    0  0.00000000000E+00  0.00000000000E+00  0.23534611436E+03  0.23534611438E+03  0.26000000000E-02 0. -1.
         -2   -1    0    0    0  501 -0.00000000000E+00 -0.00000000000E+00 -0.94322112499E+01  0.94322116082E+01  0.26000000000E-02 0.  1.
         23    2    1    2    0    0  0.00000000000E+00  0.00000000000E+00  0.22591390311E+03  0.24477832599E+03  0.94230235342E+02 0.  0.
        -13    1    3    3    0    0  0.69612319289E+01  0.39961456076E+02  0.17521671236E+03  0.17985072750E+03  0.10570000000E+00 0. -1.
         13    1    3    3    0    0 -0.69612319289E+01 -0.39961456076E+02  0.50697190758E+02  0.64927598484E+02  0.10570000000E+00 0.  1.
<mgrwt>
<rscale>  0 0.94230235E+02</rscale>
<asrwt>0</asrwt>
<pdfrwt beam="1">  1        2 0.36207092E-01 0.94230235E+02</pdfrwt>
<pdfrwt beam="2">  1       -2 0.14511096E-02 0.94230235E+02</pdfrwt>
<totfact> 0.15024333E+05</totfact>
</mgrwt>
</event>
<event>
 5   1  0.1343823E+00  0.9128775E+02  0.7818608E-02  0.1299763E+00
         -2   -1    0    0    0  501 -0.00000000000E+00  0.00000000000E+00  0.18947619904E+03  0.18947619906E+03  0.26000000000E-02 0.  1.
          2   -1    0    0  501    0  0.00000000000E+00 -0.00000000000E+00 -0.10995382818E+02  0.10995383125E+02  0.26000000000E-02 0. -1.
         23    2    1    2    0    0  0.00000000000E+00  0.00000000000E+00  0.17848081622E+03  0.20047158218E+03  0.91287751114E+02 0.  0.
        -13    1    3    3    0    0  0.39804220750E+02 -0.13966006125E+02  0.12752507480E+03  0.13432081444E+03  0.10570000000E+00 0.  1.
         13    1    3    3    0    0 -0.39804220750E+02  0.13966006125E+02  0.50955741423E+02  0.66150767743E+02  0.10570000000E+00 0. -1.
<mgrwt>
<rscale>  0 0.91287751E+02</rscale>
<asrwt>0</asrwt>
<pdfrwt beam="2">  1        2 0.16915975E-02 0.91287751E+02</pdfrwt>
<pdfrwt beam="1">  1       -2 0.29150182E-01 0.91287751E+02</pdfrwt>
<totfact> 0.63572739E+04</totfact>
</mgrwt>
</event>
<event>
 5   1  0.1343823E+00  0.8786517E+02  0.7818608E-02  0.1308105E+00
          2   -1    0    0  501    0  0.00000000000E+00  0.00000000000E+00  0.67723260102E+02  0.67723260152E+02  0.26000000000E-02 0. -1.
         -2   -1    0    0    0  501 -0.00000000000E+00 -0.00000000000E+00 -0.28499398572E+02  0.28499398690E+02  0.26000000000E-02 0.  1.
         23    2    1    2    0    0  0.00000000000E+00  0.00000000000E+00  0.39223861531E+02  0.96222658843E+02  0.87865173769E+02 0.  0.
        -13    1    3    3    0    0  0.25928253530E+02  0.14616083943E+02  0.54998905562E+02  0.62536349641E+02  0.10570000000E+00 0. -1.
         13    1    3    3    0    0 -0.25928253530E+02 -0.14616083943E+02 -0.15775044032E+02  0.33686309201E+02  0.10570000000E+00 0.  1.
<mgrwt>
<rscale>  0 0.87865174E+02</rscale>
<asrwt>0</asrwt>
<pdfrwt beam="1">  1        2 0.10418963E-01 0.87865174E+02</pdfrwt>
<pdfrwt beam="2">  1       -2 0.43845229E-02 0.87865174E+02</pdfrwt>
<totfact> 0.12153968E+05</totfact>
</mgrwt>
</event>
<event>
 5   1  0.1343823E+00  0.9156897E+02  0.7818608E-02  0.1299096E+00
         -2   -1    0    0    0  501 -0.00000000000E+00  0.00000000000E+00  0.34042665522E+03  0.34042665523E+03  0.26000000000E-02 0.  1.
          2   -1    0    0  501    0  0.00000000000E+00 -0.00000000000E+00 -0.61576231008E+01  0.61576236497E+01  0.26000000000E-02 0. -1.
         23    2    1    2    0    0  0.00000000000E+00  0.00000000000E+00  0.33426903212E+03  0.34658427888E+03  0.91568971450E+02 0.  0.
        -13    1    3    3    0    0  0.24128843620E+02 -0.34056013911E+02  0.95901455728E+02  0.10459021733E+03  0.10570000000E+00 0. -1.
         13    1    3    3    0    0 -0.24128843620E+02  0.34056013911E+02  0.23836757639E+03  0.24199406155E+03  0.10570000000E+00 0.  1.
<mgrwt>
<rscale>  0 0.91568971E+02</rscale>
<asrwt>0</asrwt>
<pdfrwt beam="2">  1        2 0.94732647E-03 0.91568971E+02</pdfrwt>
<pdfrwt beam="1">  1       -2 0.52373343E-01 0.91568971E+02</pdfrwt>
<totfact> 0.46836717E+04</totfact>
</mgrwt>
</event>
<event>
 5   1  0.1343823E+00  0.8680713E+02  0.7818608E-02  0.1310773E+00
         -2   -1    0    0    0  501 -0.00000000000E+00  0.00000000000E+00  0.93053169522E+01  0.93053173154E+01  0.26000000000E-02 0.  1.
          2   -1    0    0  501    0  0.00000000000E+00 -0.00000000000E+00 -0.20245088093E+03  0.20245088094E+03  0.26000000000E-02 0. -1.
         23    2    1    2    0    0  0.00000000000E+00  0.00000000000E+00 -0.19314556398E+03  0.21175619826E+03  0.86807134603E+02 0.  0.
        -13    1    3    3    0    0 -0.39227704579E+02 -0.11267356644E+02 -0.13259752789E+03  0.13873673524E+03  0.10570000000E+00 0. -1.
         13    1    3    3    0    0  0.39227704579E+02  0.11267356644E+02 -0.60548036089E+02  0.73019463015E+02  0.10570000000E+00 0.  1.
<mgrwt>
<rscale>  0 0.86807135E+02</rscale>
<asrwt>0</asrwt>
<pdfrwt beam="2">  1        2 0.31146286E-01 0.86807135E+02</pdfrwt>
<pdfrwt beam="1">  1       -2 0.14315874E-02 0.86807135E+02</pdfrwt>
<totfact> 0.17723588E+05</totfact>
</mgrwt>
</event>
<event>
 5   1  0.1343823E+00  0.9157161E+02  0.7818608E-02  0.1299090E+00
          2   -1    0    0  501    0  0.00000000000E+00  0.00000000000E+00  0.63470419266E+02  0.63470419320E+02  0.26000000000E-02 0. -1.
         -2   -1    0    0    0  501 -0.00000000000E+00 -0.00000000000E+00 -0.33028616294E+02  0.33028616396E+02  0.26000000000E-02 0.  1.
         23    2    1    2    0    0  0.00000000000E+00  0.00000000000E+00  0.30441802973E+02  0.96499035716E+02  0.91571614192E+02 0.  0.
        -13    1    3    3    0    0 -0.15105051434E+02 -0.25625056234E+02  0.51900782036E+02  0.59820635522E+02  0.10570000000E+00 0. -1.
         13    1    3    3    0    0  0.15105051434E+02  0.25625056234E+02 -0.21458979063E+02  0.36678400194E+02  0.10570000000E+00 0.  1.
<mgrwt>
<rscale>  0 0.91571614E+02</rscale>
<asrwt>0</asrwt>
<pdfrwt beam="1">  1        2 0.97646798E-02 0.91571614E+02</pdfrwt>
<pdfrwt beam="2">  1       -2 0.50813256E-02 0.91571614E+02</pdfrwt>
<totfact> 0.10638821E+05</totfact>
</mgrwt>
</event>
<event>
 5   1  0.1343823E+00  0.9096476E+02  0.7818608E-02  0.1300532E+00
         -2   -1    0    0    0  501 -0.00000000000E+00  0.00000000000E+00  0.46419311695E+01  0.46419318977E+01  0.26000000000E-02 0.  1.
          2   -1    0    0  501    0  0.00000000000E+00 -0.00000000000E+00 -0.44564356225E+03  0.44564356226E+03  0.26000000000E-02 0. -1.
         23    2    1    2    0    0  0.00000000000E+00  0.00000000000E+00 -0.44100163108E+03  0.45028549416E+03  0.90964760380E+02 0.  0.
        -13    1    3    3    0    0  0.35525257907E+02  0.27916653699E+02 -0.19465942877E+03  0.19983415094E+03  0.10570000000E+00 0.  1.
         13    1    3    3    0    0 -0.35525257907E+02 -0.27916653699E+02 -0.24634220231E+03  0.25045134321E+03  0.10570000000E+00 0. -1.
<mgrwt>
<rscale>  0 0.90964760E+02</rscale>
<asrwt>0</asrwt>
<pdfrwt beam="2">  1        2 0.68560515E-01 0.90964760E+02</pdfrwt>
<pdfrwt beam="1">  1       -2 0.71414366E-03 0.90964760E+02</pdfrwt>
<totfact> 0.20863006E+05</totfact>
</mgrwt>
</event>
<event>
 5   1  0.1343823E+00  0.8806584E+02  0.7818608E-02  0.1307604E+00
         -2   -1    0    0    0  501 -0.00000000000E+00  0.00000000000E+00  0.35133038143E+02  0.35133038239E+02  0.26000000000E-02 0. -1.
          2   -1    0    0  501    0  0.00000000000E+00 -0.00000000000E+00 -0.55187310146E+02  0.55187310207E+02  0.26000000000E-02 0.  1.
         23    2    1    2    0    0  0.00000000000E+00  0.00000000000E+00 -0.20054272003E+02  0.90320348446E+02  0.88065836270E+02 0.  0.
        -13    1    3    3    0    0 -0.12246288051E+02 -0.35235865404E+02 -0.34021557062E+02  0.50487773760E+02  0.10570000000E+00 0.  1.
         13    1    3    3    0    0  0.12246288051E+02  0.35235865404E+02  0.13967285058E+02  0.39832574687E+02  0.10570000000E+00 0. -1.
<mgrwt>
<rscale>  0 0.88065836E+02</rscale>
<asrwt>0</asrwt>
<pdfrwt beam="2">  1        2 0.84903554E-02 0.88065836E+02</pdfrwt>
<pdfrwt beam="1">  1       -2 0.54050828E-02 0.88065836E+02</pdfrwt>
<totfact> 0.11441435E+05</totfact>
</mgrwt>
</event>
<event>
 5   1  0.1343823E+00  0.8840345E+02  0.7818608E-02  0.1306765E+00
         -2   -1    0    0    0  501 -0.00000000000E+00  0.00000000000E+00  0.21035649268E+03  0.21035649269E+03  0.26000000000E-02 0.  1.
          2   -1    0    0  501    0  0.00000000000E+00 -0.00000000000E+00 -0.92880058933E+01  0.92880062572E+01  0.26000000000E-02 0. -1.
         23    2    1    2    0    0  0.00000000000E+00  0.00000000000E+00  0.20106848678E+03  0.21964449895E+03  0.88403447566E+02 0.  0.
        -13    1    3    3    0    0 -0.21796938514E+02 -0.35076645850E+02  0.61383263435E+02  0.73982388547E+02  0.10570000000E+00 0. -1.
         13    1    3    3    0    0  0.21796938514E+02  0.35076645850E+02  0.13968522335E+03  0.14566211040E+03  0.10570000000E+00 0.  1.
<mgrwt>
<rscale>  0 0.88403448E+02</rscale>
<asrwt>0</asrwt>
<pdfrwt beam="2">  1        2 0.14289242E-02 0.88403448E+02</pdfrwt>
<pdfrwt beam="1">  1       -2 0.32362534E-01 0.88403448E+02</pdfrwt>
<totfact> 0.65953346E+04</totfact>
</mgrwt>
</event>
<event>
 5   1  0.1343823E+00  0.9169469E+02  0.7818608E-02  0.1298799E+00
          2   -1    0    0  501    0  0.00000000000E+00  0.00000000000E+00  0.29419528417E+03  0.29419528418E+03  0.26000000000E-02 0.  1.
         -2   -1    0    0    0  501 -0.00000000000E+00 -0.00000000000E+00 -0.71448419191E+01  0.71448423922E+01  0.26000000000E-02 0. -1.
         23    2    1    2    0    0  0.00000000000E+00  0.00000000000E+00  0.28705044225E+03  0.30134012658E+03  0.91694686253E+02 0.  0.
        -13    1    3    3    0    0  0.25757654995E+02 -0.37850433210E+02  0.15147763598E+03  0.15824537105E+03  0.10570000000E+00 0.  1.
         13    1    3    3    0    0 -0.25757654995E+02  0.37850433210E+02  0.13557280628E+03  0.14309475553E+03  0.10570000000E+00 0. -1.
<mgrwt>
<rscale>  0 0.91694686E+02</rscale>
<asrwt>0</asrwt>
<pdfrwt beam="1">  1        2 0.45260820E-01 0.91694686E+02</pdfrwt>
<pdfrwt beam="2">  1       -2 0.10992063E-02 0.91694686E+02</pdfrwt>
<totfact> 0.17567858E+05</totfact>
</mgrwt>
</event>
<event>
 5   1  0.1343823E+00  0.9390521E+02  0.7818608E-02  0.1293661E+00
         -2   -1    0    0    0  501 -0.00000000000E+00  0.00000000000E+00  0.12521018020E+02  0.12521018290E+02  0.26000000000E-02 0.  1.
          2   -1    0    0  501    0  0.00000000000E+00 -0.00000000000E+00 -0.17606773687E+03  0.17606773688E+03  0.26000000000E-02 0. -1.
         23    2    1    2    0    0  0.00000000000E+00  0.00000000000E+00 -0.16354671885E+03  0.18858875517E+03  0.93905214621E+02 0.  0.
        -13    1    3    3    0    0  0.31904944803E+02  0.82950108921E+01 -0.14891760639E+03  0.15252277658E+03  0.10570000000E+00 0. -1.
         13    1    3    3    0    0 -0.31904944803E+02 -0.82950108921E+01 -0.14629112455E+02  0.36065978599E+02  0.10570000000E+00 0.  1.
<mgrwt>
<rscale>  0 0.93905215E+02</rscale>
<asrwt>0</asrwt>
<pdfrwt beam="2">  1        2 0.27087342E-01 0.93905215E+02</pdfrwt>
<pdfrwt beam="1">  1       -2 0.19263106E-02 0.93905215E+02</pdfrwt>
<totfact> 0.13644360E+05</totfact>
</mgrwt>
</event>
<event>
 5   1  0.1343823E+00  0.9017106E+02  0.7818608E-02  0.1302438E+00
          2   -1    0    0  501    0  0.00000000000E+00  0.00000000000E+00  0.17970017623E+03  0.17970017625E+03  0.26000000000E-02 0. -1.
         -2   -1    0    0    0  501 -0.00000000000E+00 -0.00000000000E+00 -0.11311648213E+02  0.11311648512E+02  0.26000000000E-02 0.  1.
         23    2    1    2    0    0  0.00000000000E+00  0.00000000000E+00  0.16838852802E+03  0.19101182476E+03  0.90171064267E+02 0.  0.
        -13    1    3    3    0    0 -0.23565201499E+02  0.22708214591E+02  0.18501786050E+02  0.37594002063E+02  0.10570000000E+00 0.  1.
         13    1    3    3    0    0  0.23565201499E+02 -0.22708214591E+02  0.14988674197E+03  0.15341782270E+03  0.10570000000E+00 0. -1.
<mgrwt>
<rscale>  0 0.90171064E+02</rscale>
<asrwt>0</asrwt>
<pdfrwt beam="1">  1        2 0.27646182E-01 0.90171064E+02</pdfrwt>
<pdfrwt beam="2">  1       -2 0.17402536E-02 0.90171064E+02</pdfrwt>
<totfact> 0.15337794E+05</totfact>
</mgrwt>
</event>
<event>
 5   1  0.1343823E+00  0.9799584E+02  0.7818608E-02  0.1284568E+00
          2   -1    0    0  501    0  0.00000000000E+00  0.00000000000E+00  0.11188509155E+03  0.11188509158E+03  0.26000000000E-02 0.  1.
         -2   -1    0    0    0  501 -0.00000000000E+00 -0.00000000000E+00 -0.21457696409E+02  0.21457696566E+02  0.26000000000E-02 0. -1.
         23    2    1    2    0    0  0.00000000000E+00  0.00000000000E+00  0.90427395141E+02  0.13334278815E+03  0.97995843578E+02 0.  0.
        -13    1    3    3    0    0 -0.12082506179E+02  0.25415460576E+02 -0.93646020328E+01  0.29658717700E+02  0.10570000000E+00 0. -1.
         13    1    3    3    0    0  0.12082506179E+02 -0.25415460576E+02  0.99791997174E+02  0.10368407045E+03  0.10570000000E+00 0.  1.
<mgrwt>
<rscale>  0 0.97995844E+02</rscale>
<asrwt>0</asrwt>
<pdfrwt beam="1">  1        2 0.17213091E-01 0.97995844E+02</pdfrwt>
<pdfrwt beam="2">  1       -2 0.33011841E-02 0.97995844E+02</pdfrwt>
<totfact> 0.10410638E+05</totfact>
</mgrwt>
</event>
<event>
 5   1  0.1343823E+00  0.9152319E+02  0.7818608E-02  0.1299204E+00
         -2   -1    0    0    0  501 -0.00000000000E+00  0.00000000000E+00  0.16110028240E+02  0.16110028449E+02  0.26000000000E-02 0.  1.
          2   -1    0    0  501    0  0.00000000000E+00 -0.00000000000E+00 -0.12998883066E+03  0.12998883069E+03  0.26000000000E-02 0. -1.
         23    2    1    2    0    0  0.00000000000E+00  0.00000000000E+00 -0.11387880242E+03  0.14609885914E+03  0.91523193782E+02 0.  0.
        -13    1    3    3    0    0  0.34695613722E+02 -0.15746779014E+02 -0.97397633414E+02  0.10458516543E+03  0.10570000000E+00 0. -1.
         13    1    3    3    0    0 -0.34695613722E+02  0.15746779014E+02 -0.16481169008E+02  0.41513693707E+02  0.10570000000E+00 0.  1.
<mgrwt>
<rscale>  0 0.91523194E+02</rscale>
<asrwt>0</asrwt>
<pdfrwt beam="2">  1        2 0.19998281E-01 0.91523194E+02</pdfrwt>
<pdfrwt beam="1">  1       -2 0.24784660E-02 0.91523194E+02</pdfrwt>
<totfact> 0.13190461E+05</totfact>
</mgrwt>
</event>
<event>
 5   1  0.1343823E+00  0.9265136E+02  0.7818608E-02  0.1296555E+00
         -2   -1    0    0    0  501 -0.00000000000E+00  0.00000000000E+00  0.22055162298E+02  0.22055162451E+02  0.26000000000E-02 0.  1.
          2   -1    0    0  501    0  0.00000000000E+00 -0.00000000000E+00 -0.97304588384E+02  0.97304588419E+02  0.26000000000E-02 0. -1.
         23    2    1    2    0    0  0.00000000000E+00  0.00000000000E+00 -0.75249426086E+02  0.11935975087E+03  0.92651357256E+02 0.  0.
        -13    1    3    3    0    0 -0.17690340857E+02  0.42804267496E+02 -0.36399942145E+02  0.58907728154E+02  0.10570000000E+00 0. -1.
         13    1    3    3    0    0  0.17690340857E+02 -0.42804267496E+02 -0.38849483941E+02  0.60452022716E+02  0.10570000000E+00 0.  1.
<mgrwt>
<rscale>  0 0.92651357E+02</rscale>
<asrwt>0</asrwt>
<pdfrwt beam="2">  1        2 0.14969936E-01 0.92651357E+02</pdfrwt>
<pdfrwt beam="1">  1       -2 0.33931020E-02 0.92651357E+02</pdfrwt>
<totfact> 0.11639079E+05</totfact>
</mgrwt>
</event>
<event>
 5   1  0.1343823E+00  0.9062932E+02  0.7818608E-02  0.1301335E+00
          2   -1    0    0  501    0  0.00000000000E+00  0.00000000000E+00  0.22758595894E+02  0.22758596042E+02  0.26000000000E-02 0. -1.
         -2   -1    0    0    0  501 -0.00000000000E+00 -0.00000000000E+00 -0.90226063516E+02  0.90226063553E+02  0.26000000000E-02 0.  1.
         23    2    1    2    0    0  0.00000000000E+00  0.00000000000E+00 -0.67467467622E+02  0.11298465960E+03  0.90629322609E+02 0.  0.
        -13    1    3    3    0    0 -0.30418781480E+02  0.29756250518E+02 -0.53154187428E+02  0.68089026467E+02  0.10570000000E+00 0.  1.
         13    1    3    3    0    0  0.30418781480E+02 -0.29756250518E+02 -0.14313280194E+02  0.44895633128E+02  0.10570000000E+00 0. -1.
<mgrwt>
<rscale>  0 0.90629323E+02</rscale>
<asrwt>0</asrwt>
<pdfrwt beam="1">  1        2 0.35013225E-02 0.90629323E+02</pdfrwt>
<pdfrwt beam="2">  1       -2 0.13880933E-01 0.90629323E+02</pdfrwt>
<totfact> 0.83479606E+04</totfact>
</mgrwt>
</event>
<event>
 5   1  0.1343823E+00  0.8750717E+02  0.7818608E-02  0.1309003E+00
         -2   -1    0    0    0  501 -0.00000000000E+00  0.00000000000E+00  0.53884775572E+02  0.53884775635E+02  0.26000000000E-02 0.  1.
          2   -1    0    0  501    0  0.00000000000E+00 -0.00000000000E+00 -0.35527220216E+02  0.35527220311E+02  0.26000000000E-02 0. -1.
         23    2    1    2    0    0  0.00000000000E+00  0.00000000000E+00  0.18357555357E+02  0.89411995946E+02  0.87507172165E+02 0.  0.
        -13    1    3    3    0    0 -0.31019584145E+02  0.30854793997E+02  0.95502987560E+01  0.44782276538E+02  0.10570000000E+00 0. -1.
         13    1    3    3    0    0  0.31019584145E+02 -0.30854793997E+02  0.88072566008E+01  0.44629719408E+02  0.10570000000E+00 0.  1.
<mgrwt>
<rscale>  0 0.87507172E+02</rscale>
<asrwt>0</asrwt>
<pdfrwt beam="2">  1        2 0.54657262E-02 0.87507172E+02</pdfrwt>
<pdfrwt beam="1">  1       -2 0.82899654E-02 0.87507172E+02</pdfrwt>
<totfact> 0.10423401E+05</totfact>
</mgrwt>
</event>
<event>
 5   1  0.1343823E+00  0.9032608E+02  0.7818608E-02  0.1302064E+00
          2   -1    0    0  501    0  0.00000000000E+00  0.00000000000E+00  0.87971765602E+02  0.87971765640E+02  0.26000000000E-02 0. -1.
         -2   -1    0    0    0  501 -0.00000000000E+00 -0.00000000000E+00 -0.23185847698E+02  0.23185847844E+02  0.26000000000E-02 0.  1.
         23    2    1    2    0    0  0.00000000000E+00  0.00000000000E+00  0.64785917904E+02  0.11115761348E+03  0.90326075288E+02 0.  0.
        -13    1    3    3    0    0 -0.11869832832E+02 -0.21422713871E+02 -0.14303794655E+02  0.28362568909E+02  0.10570000000E+00 0.  1.
         13    1    3    3    0    0  0.11869832832E+02  0.21422713871E+02  0.79089712559E+02  0.82795044575E+02  0.10570000000E+00 0. -1.
<mgrwt>
<rscale>  0 0.90326075E+02</rscale>
<asrwt>0</asrwt>
<pdfrwt beam="1">  1        2 0.13534118E-01 0.90326075E+02</pdfrwt>
<pdfrwt beam="2">  1       -2 0.35670536E-02 0.90326075E+02</pdfrwt>
<totfact> 0.12116137E+05</totfact>
</mgrwt>
</event>
<event>
 4   1  0.1343823E+00  0.1696591E+03  0.7818608E-02  0.1178204E+00
         -2   -1    0    0    0  501 -0.00000000000E+00  0.00000000000E+00  0.42200691073E+03  0.42200691074E+03  0.26000000000E-02 0.  1.
          2   -1    0    0  501    0  0.00000000000E+00 -0.00000000000E+00 -0.17051974212E+02  0.17051974411E+02  0.26000000000E-02 0. -1.
        -13    1    1    2    0    0 -0.62602400814E+02 -0.52361391874E+02  0.26235027661E+03  0.27475162375E+03  0.10570000000E+00 0.  1.
         13    1    1    2    0    0  0.62602400814E+02  0.52361391874E+02  0.14260465991E+03  0.16430726139E+03  0.10570000000E+00 0. -1.
<mgrwt>
<rscale>  0 0.16965908E+03</rscale>
<asrwt>0</asrwt>
<pdfrwt beam="2">  1        2 0.26233808E-02 0.16965908E+03</pdfrwt>
<pdfrwt beam="1">  1       -2 0.64924137E-01 0.16965908E+03</pdfrwt>
<totfact> 0.80917976E+03</totfact>
</mgrwt>
</event>
<event>
 5   1  0.1343823E+00  0.9468548E+02  0.7818608E-02  0.1291886E+00
         -2   -1    0    0    0  501 -0.00000000000E+00  0.00000000000E+00  0.23118549349E+02  0.23118549495E+02  0.26000000000E-02 0.  1.
          2   -1    0    0  501    0  0.00000000000E+00 -0.00000000000E+00 -0.96949641700E+02  0.96949641735E+02  0.26000000000E-02 0. -1.
         23    2    1    2    0    0  0.00000000000E+00  0.00000000000E+00 -0.73831092351E+02  0.12006819123E+03  0.94685481186E+02 0.  0.
        -13    1    3    3    0    0 -0.25927455479E+02  0.29638731543E+02 -0.35906074310E+01  0.39542268389E+02  0.10570000000E+00 0.  1.
         13    1    3    3    0    0  0.25927455479E+02 -0.29638731543E+02 -0.70240484920E+02  0.80525922841E+02  0.10570000000E+00 0. -1.
<mgrwt>
<rscale>  0 0.94685481E+02</rscale>
<asrwt>0</asrwt>
<pdfrwt beam="2">  1        2 0.14915329E-01 0.94685481E+02</pdfrwt>
<pdfrwt beam="1">  1       -2 0.35567000E-02 0.94685481E+02</pdfrwt>
<totfact> 0.10947471E+05</totfact>
</mgrwt>
</event>
<event>
 5   1  0.1343823E+00  0.8247719E+02  0.7818608E-02  0.1322165E+00
         -2   -1    0    0    0  501 -0.00000000000E+00  0.00000000000E+00  0.13700966812E+02  0.13700967059E+02  0.26000000000E-02 0.  1.
          2   -1    0    0  501    0  0.00000000000E+00 -0.00000000000E+00 -0.12412422277E+03  0.12412422280E+03  0.26000000000E-02 0. -1.
         23    2    1    2    0    0  0.00000000000E+00  0.00000000000E+00 -0.11042325596E+03  0.13782518986E+03  0.82477193833E+02 0.  0.
        -13    1    3    3    0    0  0.23940224419E+02 -0.33576915302E+02 -0.55644550288E+02  0.69259445101E+02  0.10570000000E+00 0. -1.
         13    1    3    3    0    0 -0.23940224419E+02  0.33576915302E+02 -0.54778705669E+02  0.68565744754E+02  0.10570000000E+00 0.  1.
<mgrwt>
<rscale>  0 0.82477194E+02</rscale>
<asrwt>0</asrwt>
<pdfrwt beam="2">  1        2 0.19096034E-01 0.82477194E+02</pdfrwt>
<pdfrwt beam="1">  1       -2 0.21078411E-02 0.82477194E+02</pdfrwt>
<totfact> 0.17229410E+05</totfact>
</mgrwt>
</event>
<event>
 5   1  0.1343823E+00  0.9167621E+02  0.7818608E-02  0.1298843E+00
          2   -1    0    0  501    0  0.00000000000E+00  0.00000000000E+00  0.13194777927E+02  0.13194778183E+02  0.26000000000E-02 0. -1.
         -2   -1    0    0    0  501 -0.00000000000E+00 -0.00000000000E+00 -0.15923965210E+03  0.15923965212E+03  0.26000000000E-02 0.  1.
         23    2    1    2    0    0  0.00000000000E+00  0.00000000000E+00 -0.14604487417E+03  0.17243443030E+03  0.91676210011E+02 0.  0.
        -13    1    3    3    0    0  0.59526492698E+01 -0.41766949297E+02 -0.10673260575E+03  0.11476834228E+03  0.10570000000E+00 0.  1.
         13    1    3    3    0    0 -0.59526492698E+01  0.41766949297E+02 -0.39312268422E+02  0.57666088023E+02  0.10570000000E+00 0. -1.
<mgrwt>
<rscale>  0 0.91676210E+02</rscale>
<asrwt>0</asrwt>
<pdfrwt beam="1">  1        2 0.20299660E-02 0.91676210E+02</pdfrwt>
<pdfrwt beam="2">  1       -2 0.24498407E-01 0.91676210E+02</pdfrwt>
<totfact> 0.67386457E+04</totfact>
</mgrwt>
</event>
<event>
 5   1  0.1343823E+00  0.8975324E+02  0.7818608E-02  0.1303450E+00
         -2   -1    0    0    0  501 -0.00000000000E+00  0.00000000000E+00  0.56541335401E+02  0.56541335461E+02  0.26000000000E-02 0.  1.
          2   -1    0    0  501    0  0.00000000000E+00 -0.00000000000E+00 -0.35618382468E+02  0.35618382563E+02  0.26000000000E-02 0. -1.
         23    2    1    2    0    0  0.00000000000E+00  0.00000000000E+00  0.20922952933E+02  0.92159718024E+02  0.89753237640E+02 0.  0.
        -13    1    3    3    0    0  0.33173855616E+02  0.76658497285E+00  0.41484247575E+02  0.53122935897E+02  0.10570000000E+00 0.  1.
         13    1    3    3    0    0 -0.33173855616E+02 -0.76658497285E+00 -0.20561294642E+02  0.39036782127E+02  0.10570000000E+00 0. -1.
<mgrwt>
<rscale>  0 0.89753238E+02</rscale>
<asrwt>0</asrwt>
<pdfrwt beam="2">  1        2 0.54797512E-02 0.89753238E+02</pdfrwt>
<pdfrwt beam="1">  1       -2 0.86986670E-02 0.89753238E+02</pdfrwt>
<totfact> 0.96905922E+04</totfact>
</mgrwt>
</event>
<event>
 5   1  0.1343823E+00  0.9239234E+02  0.7818608E-02  0.1297160E+00
         -2   -1    0    0    0  501 -0.00000000000E+00  0.00000000000E+00  0.13302978394E+02  0.13302978648E+02  0.26000000000E-02 0. -1.
          2   -1    0    0  501    0  0.00000000000E+00 -0.00000000000E+00 -0.16042166123E+03  0.16042166125E+03  0.26000000000E-02 0.  1.
         23    2    1    2    0    0  0.00000000000E+00  0.00000000000E+00 -0.14711868284E+03  0.17372463990E+03  0.92392335553E+02 0.  0.
        -13    1    3    3    0    0  0.28437369098E+02  0.25187478284E+02 -0.12298571575E+03  0.12871903696E+03  0.10570000000E+00 0.  1.
         13    1    3    3    0    0 -0.28437369098E+02 -0.25187478284E+02 -0.24132967086E+02  0.45005602944E+02  0.10570000000E+00 0. -1.
<mgrwt>
<rscale>  0 0.92392336E+02</rscale>
<asrwt>0</asrwt>
<pdfrwt beam="2">  1        2 0.24680254E-01 0.92392336E+02</pdfrwt>
<pdfrwt beam="1">  1       -2 0.20466122E-02 0.92392336E+02</pdfrwt>
<totfact> 0.13801705E+05</totfact>
</mgrwt>
</event>
<event>
 5   1  0.1343823E+00  0.8647272E+02  0.7818608E-02  0.1311626E+00
         -2   -1    0    0    0  501 -0.00000000000E+00  0.00000000000E+00  0.21384173642E+03  0.21384173644E+03  0.26000000000E-02 0.  1.
          2   -1    0    0  501    0  0.00000000000E+00 -0.00000000000E+00 -0.87418995388E+01  0.87418999255E+01  0.26000000000E-02 0. -1.
         23    2    1    2    0    0  0.00000000000E+00  0.00000000000E+00  0.20509983688E+03  0.22258363636E+03  0.86472724527E+02 0.  0.
        -13    1    3    3    0    0 -0.26016344587E+02  0.20081717668E+02  0.30236255253E+02  0.44658346077E+02  0.10570000000E+00 0. -1.
         13    1    3    3    0    0  0.26016344587E+02 -0.20081717668E+02  0.17486358163E+03  0.17792529028E+03  0.10570000000E+00 0.  1.
<mgrwt>
<rscale>  0 0.86472725E+02</rscale>
<asrwt>0</asrwt>
<pdfrwt beam="2">  1        2 0.13449078E-02 0.86472725E+02</pdfrwt>
<pdfrwt beam="1">  1       -2 0.32898725E-01 0.86472725E+02</pdfrwt>
<totfact> 0.69266425E+04</totfact>
</mgrwt>
</event>
<event>
 5   1  0.1343823E+00  0.9164465E+02  0.7818608E-02  0.1298917E+00
         -2   -1    0    0    0  501 -0.00000000000E+00  0.00000000000E+00  0.50554005013E+02  0.50554005080E+02  0.26000000000E-02 0.  1.
          2   -1    0    0  501    0  0.00000000000E+00 -0.00000000000E+00 -0.41533512947E+02  0.41533513028E+02  0.26000000000E-02 0. -1.
         23    2    1    2    0    0  0.00000000000E+00  0.00000000000E+00  0.90204920661E+01  0.92087518108E+02  0.91644649130E+02 0.  0.
        -13    1    3    3    0    0 -0.18181688608E+02  0.41980247667E+02  0.18978244130E+01  0.45787857614E+02  0.10570000000E+00 0.  1.
         13    1    3    3    0    0  0.18181688608E+02 -0.41980247667E+02  0.71226676531E+01  0.46299660494E+02  0.10570000000E+00 0. -1.
<mgrwt>
<rscale>  0 0.91644649E+02</rscale>
<asrwt>0</asrwt>
<pdfrwt beam="2">  1        2 0.63897713E-02 0.91644649E+02</pdfrwt>
<pdfrwt beam="1">  1       -2 0.77775392E-02 0.91644649E+02</pdfrwt>
<totfact> 0.94906106E+04</totfact>
</mgrwt>
</event>
<event>
 5   1  0.1343823E+00  0.8818241E+02  0.7818608E-02  0.1307314E+00
         -2   -1    0    0    0  501 -0.00000000000E+00  0.00000000000E+00  0.26160744052E+02  0.26160744181E+02  0.26000000000E-02 0.  1.
          2   -1    0    0  501    0  0.00000000000E+00 -0.00000000000E+00 -0.74311125493E+02  0.74311125539E+02  0.26000000000E-02 0. -1.
         23    2    1    2    0    0  0.00000000000E+00  0.00000000000E+00 -0.48150381442E+02  0.10047186972E+03  0.88182409652E+02 0.  0.
        -13    1    3    3    0    0  0.14560782685E+02  0.21791897074E+02 -0.64472355900E+02  0.69595969842E+02  0.10570000000E+00 0. -1.
         13    1    3    3    0    0 -0.14560782685E+02 -0.21791897074E+02  0.16321974458E+02  0.30875899877E+02  0.10570000000E+00 0.  1.
<mgrwt>
<rscale>  0 0.88182410E+02</rscale>
<asrwt>0</asrwt>
<pdfrwt beam="2">  1        2 0.11432481E-01 0.88182410E+02</pdfrwt>
<pdfrwt beam="1">  1       -2 0.40247299E-02 0.88182410E+02</pdfrwt>
<totfact> 0.12341784E+05</totfact>
</mgrwt>
</event>
<event>
 5   1  0.1343823E+00  0.9460173E+02  0.7818608E-02  0.1292076E+00
         -2   -1    0    0    0  501 -0.00000000000E+00  0.00000000000E+00  0.11136752863E+03  0.11136752866E+03  0.26000000000E-02 0.  1.
          2   -1    0    0  501    0  0.00000000000E+00 -0.00000000000E+00 -0.20089982190E+02  0.20089982358E+02  0.26000000000E-02 0. -1.
         23    2    1    2    0    0  0.00000000000E+00  0.00000000000E+00  0.91277546438E+02  0.13145751102E+03  0.94601726828E+02 0.  0.
        -13    1    3    3    0    0  0.30392618391E+02 -0.25075492160E+02  0.82004316405E+02  0.90979176966E+02  0.10570000000E+00 0.  1.
         13    1    3    3    0    0 -0.30392618391E+02  0.25075492160E+02  0.92732300322E+01  0.40478334050E+02  0.10570000000E+00 0. -1.
<mgrwt>
<rscale>  0 0.94601727E+02</rscale>
<asrwt>0</asrwt>
<pdfrwt beam="2">  1        2 0.30907665E-02 0.94601727E+02</pdfrwt>
<pdfrwt beam="1">  1       -2 0.17133466E-01 0.94601727E+02</pdfrwt>
<totfact> 0.70418242E+04</totfact>
</mgrwt>
</event>
<event>
 5   1  0.1343823E+00  0.8952034E+02  0.7818608E-02  0.1304017E+00
          2   -1    0    0  501    0  0.00000000000E+00  0.00000000000E+00  0.12583728937E+03  0.12583728940E+03  0.26000000000E-02 0.  1.
         -2   -1    0    0    0  501 -0.00000000000E+00 -0.00000000000E+00 -0.15921138316E+02  0.15921138529E+02  0.26000000000E-02 0. -1.
         23    2    1    2    0    0  0.00000000000E+00  0.00000000000E+00  0.10991615105E+03  0.14175842793E+03  0.89520341965E+02 0.  0.
        -13    1    3    3    0    0  0.28143972443E+02  0.16269065713E+01  0.11001248595E+03  0.11356710900E+03  0.10570000000E+00 0.  1.
         13    1    3    3    0    0 -0.28143972443E+02 -0.16269065713E+01 -0.96334893617E-01  0.28191318925E+02  0.10570000000E+00 0. -1.
<mgrwt>
<rscale>  0 0.89520342E+02</rscale>
<asrwt>0</asrwt>
<pdfrwt beam="1">  1        2 0.19359582E-01 0.89520342E+02</pdfrwt>
<pdfrwt beam="2">  1       -2 0.24494060E-02 0.89520342E+02</pdfrwt>
<totfact> 0.13862491E+05</totfact>
</mgrwt>
</event>
<event>
 5   1  0.1343823E+00  0.8774959E+02  0.7818608E-02  0.1308395E+00
          2   -1    0    0  501    0  0.00000000000E+00  0.00000000000E+00  0.26325761462E+03  0.26325761464E+03  0.26000000000E-02 0. -1.
         -2   -1    0    0    0  501 -0.00000000000E+00 -0.00000000000E+00 -0.73122192916E+01  0.73122197539E+01  0.26000000000E-02 0.  1.
         23    2    1    2    0    0  0.00000000000E+00  0.00000000000E+00  0.25594539533E+03  0.27056983439E+03  0.87749586269E+02 0.  0.
        -13    1    3    3    0    0 -0.34082859469E+01 -0.39522971733E+02  0.70179568201E+02  0.80615536177E+02  0.10570000000E+00 0.  1.
         13    1    3    3    0    0  0.34082859469E+01  0.39522971733E+02  0.18576582713E+03  0.18995429821E+03  0.10570000000E+00 0. -1.
<mgrwt>
<rscale>  0 0.87749586E+02</rscale>
<asrwt>0</asrwt>
<pdfrwt beam="1">  1        2 0.40501165E-01 0.87749586E+02</pdfrwt>
<pdfrwt beam="2">  1       -2 0.11249570E-02 0.87749586E+02</pdfrwt>
<totfact> 0.18952968E+05</totfact>
</mgrwt>
</event>
<event>
 5   1  0.1343823E+00  0.9316119E+02  0.7818608E-02  0.1295372E+00
         -2   -1    0    0    0  501 -0.00000000000E+00  0.00000000000E+00  0.19432199258E+02  0.19432199432E+02  0.26000000000E-02 0. -1.
          2   -1    0    0  501    0  0.00000000000E+00 -0.00000000000E+00 -0.11165754834E+03  0.11165754837E+03  0.26000000000E-02 0.  1.
         23    2    1    2    0    0  0.00000000000E+00  0.00000000000E+00 -0.92225349084E+02  0.13108974780E+03  0.93161188087E+02 0.  0.
        -13    1    3    3    0    0  0.21222844009E+02  0.29288612996E+02 -0.48113936734E+01  0.36488253461E+02  0.10570000000E+00 0. -1.
         13    1    3    3    0    0 -0.21222844009E+02 -0.29288612996E+02 -0.87413955411E+02  0.94601494344E+02  0.10570000000E+00 0.  1.
<mgrwt>
<rscale>  0 0.93161188E+02</rscale>
<asrwt>0</asrwt>
<pdfrwt beam="2">  1        2 0.17178084E-01 0.93161188E+02</pdfrwt>
<pdfrwt beam="1">  1       -2 0.29895692E-02 0.93161188E+02</pdfrwt>
<totfact> 0.11963955E+05</totfact>
</mgrwt>
</event>
<event>
 5   1  0.1343823E+00  0.9081498E+02  0.7818608E-02  0.1300890E+00
          2   -1    0    0  501    0  0.00000000000E+00  0.00000000000E+00  0.31923027276E+02  0.31923027382E+02  0.26000000000E-02 0. -1.
         -2   -1    0    0    0  501 -0.00000000000E+00 -0.00000000000E+00 -0.64587858439E+02  0.64587858491E+02  0.26000000000E-02 0.  1.
         23    2    1    2    0    0  0.00000000000E+00  0.00000000000E+00 -0.32664831163E+02  0.96510885874E+02  0.90814976173E+02 0.  0.
        -13    1    3    3    0    0  0.74426139704E+01 -0.42127981468E+02 -0.32507748847E+02  0.53730105462E+02  0.10570000000E+00 0.  1.
         13    1    3    3    0    0 -0.74426139704E+01  0.42127981468E+02 -0.15708231521E+00  0.42780780412E+02  0.10570000000E+00 0. -1.
<mgrwt>
<rscale>  0 0.90814976E+02</rscale>
<asrwt>0</asrwt>
<pdfrwt beam="1">  1        2 0.49112350E-02 0.90814976E+02</pdfrwt>
<pdfrwt beam="2">  1       -2 0.99365936E-02 0.90814976E+02</pdfrwt>
<totfact> 0.90998812E+04</totfact>
</mgrwt>
</event>
<event>
 5   1  0.1343823E+00  0.9161050E+02  0.7818608E-02  0.1298998E+00
          2   -1    0    0  501    0  0.00000000000E+00  0.00000000000E+00  0.20988603656E+02  0.20988603817E+02  0.26000000000E-02 0. -1.
         -2   -1    0    0    0  501 -0.00000000000E+00 -0.00000000000E+00 -0.99964767307E+02  0.99964767341E+02  0.26000000000E-02 0.  1.
         23    2    1    2    0    0  0.00000000000E+00  0.00000000000E+00 -0.78976163652E+02  0.12095337116E+03  0.91610499231E+02 0.  0.
        -13    1    3    3    0    0  0.37386456190E+02  0.52937384097E+01 -0.52533553521E+01  0.38123217175E+02  0.10570000000E+00 0.  1.
         13    1    3    3    0    0 -0.37386456190E+02 -0.52937384097E+01 -0.73722808300E+02  0.82830153983E+02  0.10570000000E+00 0. -1.
<mgrwt>
<rscale>  0 0.91610499E+02</rscale>
<asrwt>0</asrwt>
<pdfrwt beam="1">  1        2 0.32290160E-02 0.91610499E+02</pdfrwt>
<pdfrwt beam="2">  1       -2 0.15379195E-01 0.91610499E+02</pdfrwt>
<totfact> 0.78876882E+04</totfact>
</mgrwt>
</event>
<event>
 5   1  0.1343823E+00  0.8936961E+02  0.7818608E-02  0.1304385E+00
         -2   -1    0    0    0  501 -0.00000000000E+00  0.00000000000E+00  0.18539404829E+03  0.18539404831E+03  0.26000000000E-02 0.  1.
          2   -1    0    0  501    0  0.00000000000E+00 -0.00000000000E+00 -0.10770204469E+02  0.10770204783E+02  0.26000000000E-02 0. -1.
         23    2    1    2    0    0  0.00000000000E+00  0.00000000000E+00  0.17462384382E+03  0.19616425309E+03  0.89369610941E+02 0.  0.
        -13    1    3    3    0    0  0.42334343015E+02 -0.54864194148E+01  0.58322989945E+02  0.72276411955E+02  0.10570000000E+00 0. -1.
         13    1    3    3    0    0 -0.42334343015E+02  0.54864194148E+01  0.11630085387E+03  0.12388784113E+03  0.10570000000E+00 0.  1.
<mgrwt>
<rscale>  0 0.89369611E+02</rscale>
<asrwt>0</asrwt>
<pdfrwt beam="2">  1        2 0.16569548E-02 0.89369611E+02</pdfrwt>
<pdfrwt beam="1">  1       -2 0.28522157E-01 0.89369611E+02</pdfrwt>
<totfact> 0.67715483E+04</totfact>
</mgrwt>
</event>
<event>
 5   1  0.1343823E+00  0.9205404E+02  0.7818608E-02  0.1297952E+00
         -2   -1    0    0    0  501 -0.00000000000E+00  0.00000000000E+00  0.52407447154E+02  0.52407447219E+02  0.26000000000E-02 0.  1.
          2   -1    0    0  501    0  0.00000000000E+00 -0.00000000000E+00 -0.40423387975E+02  0.40423388059E+02  0.26000000000E-02 0. -1.
         23    2    1    2    0    0  0.00000000000E+00  0.00000000000E+00  0.11984059179E+02  0.92830835278E+02  0.92054040129E+02 0.  0.
        -13    1    3    3    0    0 -0.15513198066E+02 -0.21992879452E+02  0.43645146984E+02  0.51276272179E+02  0.10570000000E+00 0.  1.
         13    1    3    3    0    0  0.15513198066E+02  0.21992879452E+02 -0.31661087805E+02  0.41554563099E+02  0.10570000000E+00 0. -1.
<mgrwt>
<rscale>  0 0.92054040E+02</rscale>
<asrwt>0</asrwt>
<pdfrwt beam="2">  1        2 0.62189828E-02 0.92054040E+02</pdfrwt>
<pdfrwt beam="1">  1       -2 0.80626841E-02 0.92054040E+02</pdfrwt>
<totfact> 0.93029228E+04</totfact>
</mgrwt>
</event>
<event>
 5   1  0.1343823E+00  0.9170299E+02  0.7818608E-02  0.1298779E+00
          2   -1    0    0  501    0  0.00000000000E+00  0.00000000000E+00  0.99336206586E+02  0.99336206620E+02  0.26000000000E-02 0. -1.
         -2   -1    0    0    0  501 -0.00000000000E+00 -0.00000000000E+00 -0.21164080226E+02  0.21164080386E+02  0.26000000000E-02 0.  1.
         23    2    1    2    0    0  0.00000000000E+00  0.00000000000E+00  0.78172126360E+02  0.12050028701E+03  0.91702987022E+02 0.  0.
        -13    1    3    3    0    0  0.19658918762E+02  0.38583511351E+02  0.19280046080E+02  0.47401390111E+02  0.10570000000E+00 0. -1.
         13    1    3    3    0    0 -0.19658918762E+02 -0.38583511351E+02  0.58892080280E+02  0.73098896895E+02  0.10570000000E+00 0.  1.
<mgrwt>
<rscale>  0 0.91702987E+02</rscale>
<asrwt>0</asrwt>
<pdfrwt beam="1">  1        2 0.15282493E-01 0.91702987E+02</pdfrwt>
<pdfrwt beam="2">  1       -2 0.32560124E-02 0.91702987E+02</pdfrwt>
<totfact> 0.12050070E+05</totfact>
</mgrwt>
</event>
<event>
 5   1  0.1343823E+00  0.9265475E+02  0.7818608E-02  0.1296547E+00
         -2   -1    0    0    0  501 -0.00000000000E+00  0.00000000000E+00  0.10208697778E+02  0.10208698109E+02  0.26000000000E-02 0.  1.
          2   -1    0    0  501    0  0.00000000000E+00 -0.00000000000E+00 -0.21023500949E+03  0.21023500951E+03  0.26000000000E-02 0. -1.
         23    2    1    2    0    0  0.00000000000E+00  0.00000000000E+00 -0.20002631172E+03  0.22044370762E+03  0.92654750823E+02 0.  0.
        -13    1    3    3    0    0  0.30656925385E+02 -0.16932304399E+02 -0.17216455107E+03  0.17569061962E+03  0.10570000000E+00 0. -1.
         13    1    3    3    0    0 -0.30656925385E+02  0.16932304399E+02 -0.27861760646E+02  0.44753087995E+02  0.10570000000E+00 0.  1.
<mgrwt>
<rscale>  0 0.92654751E+02</rscale>
<asrwt>0</asrwt>
<pdfrwt beam="2">  1        2 0.32343845E-01 0.92654751E+02</pdfrwt>
<pdfrwt beam="1">  1       -2 0.15705691E-02 0.92654751E+02</pdfrwt>
<totfact> 0.15083061E+05</totfact>
</mgrwt>
</event>
<event>
 5   1  0.1343823E+00  0.9336261E+02  0.7818608E-02  0.1294907E+00
         -2   -1    0    0    0  501 -0.00000000000E+00  0.00000000000E+00  0.11750725008E+02  0.11750725295E+02  0.26000000000E-02 0.  1.
          2   -1    0    0  501    0  0.00000000000E+00 -0.00000000000E+00 -0.18544762106E+03  0.18544762108E+03  0.26000000000E-02 0. -1.
         23    2    1    2    0    0  0.00000000000E+00  0.00000000000E+00 -0.17369689605E+03  0.19719834637E+03  0.93362605546E+02 0.  0.
        -13    1    3    3    0    0 -0.35151204513E+02 -0.20753793437E+02 -0.39017747423E+02  0.56468778163E+02  0.10570000000E+00 0. -1.
         13    1    3    3    0    0  0.35151204513E+02  0.20753793437E+02 -0.13467914863E+03  0.14072956821E+03  0.10570000000E+00 0.  1.
<mgrwt>
<rscale>  0 0.93362606E+02</rscale>
<asrwt>0</asrwt>
<pdfrwt beam="2">  1        2 0.28530401E-01 0.93362606E+02</pdfrwt>
<pdfrwt beam="1">  1       -2 0.18078040E-02 0.93362606E+02</pdfrwt>
<totfact> 0.14119720E+05</totfact>
</mgrwt>
</event>
<event>
 5   1  0.1343823E+00  0.8506200E+02  0.7818608E-02  0.1315270E+00
         -2   -1    0    0    0  501 -0.00000000000E+00  0.00000000000E+00  0.75965028282E+01  0.75965032732E+01  0.26000000000E-02 0.  1.
          2   -1    0    0  501    0  0.00000000000E+00 -0.00000000000E+00 -0.23812085682E+03  0.23812085683E+03  0.26000000000E-02 0. -1.
         23    2    1    2    0    0  0.00000000000E+00  0.00000000000E+00 -0.23052435399E+03  0.24571736010E+03  0.85061996653E+02 0.  0.
        -13    1    3    3    0    0  0.30476891248E+02  0.15543966760E+02 -0.42273899145E+02  0.54383357052E+02  0.10570000000E+00 0.  1.
         13    1    3    3    0    0 -0.30476891248E+02 -0.15543966760E+02 -0.18825045484E+03  0.19133400305E+03  0.10570000000E+00 0. -1.
<mgrwt>
<rscale>  0 0.85061997E+02</rscale>
<asrwt>0</asrwt>
<pdfrwt beam="2">  1        2 0.36633972E-01 0.85061997E+02</pdfrwt>
<pdfrwt beam="1">  1       -2 0.11686930E-02 0.85061997E+02</pdfrwt>
<totfact> 0.19842541E+05</totfact>
</mgrwt>
</event>
<event>
 5   1  0.1343823E+00  0.9317224E+02  0.7818608E-02  0.1295347E+00
          2   -1    0    0  501    0  0.00000000000E+00  0.00000000000E+00  0.26705842148E+02  0.26705842275E+02  0.26000000000E-02 0. -1.
         -2   -1    0    0    0  501 -0.00000000000E+00 -0.00000000000E+00 -0.81265603861E+02  0.81265603903E+02  0.26000000000E-02 0.  1.
         23    2    1    2    0    0  0.00000000000E+00  0.00000000000E+00 -0.54559761713E+02  0.10797144618E+03  0.93172236163E+02 0.  0.
        -13    1    3    3    0    0  0.65540496085E+01  0.46111046604E+02 -0.28479173813E+02  0.54591745702E+02  0.10570000000E+00 0. -1.
         13    1    3    3    0    0 -0.65540496085E+01 -0.46111046604E+02 -0.26080587899E+02  0.53379700476E+02  0.10570000000E+00 0.  1.
<mgrwt>
<rscale>  0 0.93172236E+02</rscale>
<asrwt>0</asrwt>
<pdfrwt beam="1">  1        2 0.41085911E-02 0.93172236E+02</pdfrwt>
<pdfrwt beam="2">  1       -2 0.12502400E-01 0.93172236E+02</pdfrwt>
<totfact> 0.80315434E+04</totfact>
</mgrwt>
</event>
<event>
 5   1  0.1343823E+00  0.9337944E+02  0.7818608E-02  0.1294868E+00
          2   -1    0    0  501    0  0.00000000000E+00  0.00000000000E+00  0.41975194908E+02  0.41975194988E+02  0.26000000000E-02 0.  1.
         -2   -1    0    0    0  501 -0.00000000000E+00 -0.00000000000E+00 -0.51933763024E+02  0.51933763089E+02  0.26000000000E-02 0. -1.
         23    2    1    2    0    0  0.00000000000E+00  0.00000000000E+00 -0.99585681164E+01  0.93908958077E+02  0.93379437395E+02 0.  0.
        -13    1    3    3    0    0 -0.39519615517E+02  0.86626086153E+00  0.20008509619E+02  0.44304650412E+02  0.10570000000E+00 0.  1.
         13    1    3    3    0    0  0.39519615517E+02 -0.86626086153E+00 -0.29967077736E+02  0.49604307665E+02  0.10570000000E+00 0. -1.
<mgrwt>
<rscale>  0 0.93379437E+02</rscale>
<asrwt>0</asrwt>
<pdfrwt beam="1">  1        2 0.64577223E-02 0.93379437E+02</pdfrwt>
<pdfrwt beam="2">  1       -2 0.79898097E-02 0.93379437E+02</pdfrwt>
<totfact> 0.90133623E+04</totfact>
</mgrwt>
</event>
<event>
 5   1  0.1343823E+00  0.8071206E+02  0.7818608E-02  0.1327043E+00
         -2   -1    0    0    0  501 -0.00000000000E+00  0.00000000000E+00  0.40746447421E+02  0.40746447503E+02  0.26000000000E-02 0. -1.
          2   -1    0    0  501    0  0.00000000000E+00 -0.00000000000E+00 -0.39969349630E+02  0.39969349715E+02  0.26000000000E-02 0.  1.
         23    2    1    2    0    0  0.00000000000E+00  0.00000000000E+00  0.77709779043E+00  0.80715797218E+02  0.80712056346E+02 0.  0.
        -13    1    3    3    0    0 -0.21635332247E+02  0.13990105814E+02 -0.30673914142E+02  0.40058842263E+02  0.10570000000E+00 0.  1.
         13    1    3    3    0    0  0.21635332247E+02 -0.13990105814E+02  0.31451011933E+02  0.40656954955E+02  0.10570000000E+00 0. -1.
<mgrwt>
<rscale>  0 0.80712056E+02</rscale>
<asrwt>0</asrwt>
<pdfrwt beam="2">  1        2 0.61491307E-02 0.80712056E+02</pdfrwt>
<pdfrwt beam="1">  1       -2 0.62686843E-02 0.80712056E+02</pdfrwt>
<totfact> 0.13512689E+05</totfact>
</mgrwt>
</event>
<event>
 5   1  0.1343823E+00  0.9270243E+02  0.7818608E-02  0.1296436E+00
         -2   -1    0    0    0  501 -0.00000000000E+00  0.00000000000E+00  0.50226884529E+02  0.50226884596E+02  0.26000000000E-02 0. -1.
          2   -1    0    0  501    0  0.00000000000E+00 -0.00000000000E+00 -0.42774604773E+02  0.42774604852E+02  0.26000000000E-02 0.  1.
         23    2    1    2    0    0  0.00000000000E+00  0.00000000000E+00  0.74522797561E+01  0.93001489448E+02  0.92702430205E+02 0.  0.
        -13    1    3    3    0    0  0.72017897190E+01 -0.19845594337E+02  0.45123171565E+02  0.49817920212E+02  0.10570000000E+00 0. -1.
         13    1    3    3    0    0 -0.72017897190E+01  0.19845594337E+02 -0.37670891809E+02  0.43183569235E+02  0.10570000000E+00 0.  1.
<mgrwt>
<rscale>  0 0.92702430E+02</rscale>
<asrwt>0</asrwt>
<pdfrwt beam="2">  1        2 0.65807084E-02 0.92702430E+02</pdfrwt>
<pdfrwt beam="1">  1       -2 0.77272130E-02 0.92702430E+02</pdfrwt>
<totfact> 0.92513487E+04</totfact>
</mgrwt>
</event>
<event>
 5   1  0.1343823E+00  0.9110540E+02  0.7818608E-02  0.1300197E+00
         -2   -1    0    0    0  501 -0.00000000000E+00  0.00000000000E+00  0.11409615985E+02  0.11409616281E+02  0.26000000000E-02 0.  1.
          2   -1    0    0  501    0  0.00000000000E+00 -0.00000000000E+00 -0.18186839488E+03  0.18186839490E+03  0.26000000000E-02 0. -1.
         23    2    1    2    0    0  0.00000000000E+00  0.00000000000E+00 -0.17045877890E+03  0.19327801118E+03  0.91105402163E+02 0.  0.
        -13    1    3    3    0    0 -0.10972081591E+02  0.33321923219E+02 -0.14687281726E+03  0.15100454550E+03  0.10570000000E+00 0. -1.
         13    1    3    3    0    0  0.10972081591E+02 -0.33321923219E+02 -0.23585961641E+02  0.42273465678E+02  0.10570000000E+00 0.  1.
<mgrwt>
<rscale>  0 0.91105402E+02</rscale>
<asrwt>0</asrwt>
<pdfrwt beam="2">  1        2 0.27979751E-01 0.91105402E+02</pdfrwt>
<pdfrwt beam="1">  1       -2 0.17553257E-02 0.91105402E+02</pdfrwt>
<totfact> 0.14981105E+05</totfact>
</mgrwt>
</event>
<event>
 5   1  0.1343823E+00  0.9096743E+02  0.7818608E-02  0.1300526E+00
          2   -1    0    0  501    0  0.00000000000E+00  0.00000000000E+00  0.32714771793E+02  0.32714771896E+02  0.26000000000E-02 0. -1.
         -2   -1    0    0    0  501 -0.00000000000E+00 -0.00000000000E+00 -0.63236525186E+02  0.63236525240E+02  0.26000000000E-02 0.  1.
         23    2    1    2    0    0  0.00000000000E+00  0.00000000000E+00 -0.30521753394E+02  0.95951297136E+02  0.90967433688E+02 0.  0.
        -13    1    3    3    0    0 -0.39628445876E+02  0.16684071251E+02 -0.30905380977E+02  0.52952107624E+02  0.10570000000E+00 0.  1.
         13    1    3    3    0    0  0.39628445876E+02 -0.16684071251E+02  0.38362758351E+00  0.42999189511E+02  0.10570000000E+00 0. -1.
<mgrwt>
<rscale>  0 0.90967434E+02</rscale>
<asrwt>0</asrwt>
<pdfrwt beam="1">  1        2 0.50330418E-02 0.90967434E+02</pdfrwt>
<pdfrwt beam="2">  1       -2 0.97286962E-02 0.90967434E+02</pdfrwt>
<totfact> 0.91135914E+04</totfact>
</mgrwt>
</event>
<event>
 5   1  0.1343823E+00  0.9219226E+02  0.7818608E-02  0.1297628E+00
         -2   -1    0    0    0  501 -0.00000000000E+00  0.00000000000E+00  0.14415796842E+02  0.14415797077E+02  0.26000000000E-02 0. -1.
          2   -1    0    0  501    0  0.00000000000E+00 -0.00000000000E+00 -0.14739754154E+03  0.14739754157E+03  0.26000000000E-02 0.  1.
         23    2    1    2    0    0  0.00000000000E+00  0.00000000000E+00 -0.13298174470E+03  0.16181333864E+03  0.92192256393E+02 0.  0.
        -13    1    3    3    0    0 -0.83120296870E+00  0.39214892366E+02 -0.10899154597E+03  0.11583465348E+03  0.10570000000E+00 0. -1.
         13    1    3    3    0    0  0.83120296870E+00 -0.39214892366E+02 -0.23990198733E+02  0.45978685164E+02  0.10570000000E+00 0.  1.
<mgrwt>
<rscale>  0 0.92192256E+02</rscale>
<asrwt>0</asrwt>
<pdfrwt beam="2">  1        2 0.22676544E-01 0.92192256E+02</pdfrwt>
<pdfrwt beam="1">  1       -2 0.22178150E-02 0.92192256E+02</pdfrwt>
<totfact> 0.13485735E+05</totfact>
</mgrwt>
</event>
<event>
 5   1  0.1343823E+00  0.9132052E+02  0.7818608E-02  0.1299685E+00
         -2   -1    0    0    0  501 -0.00000000000E+00  0.00000000000E+00  0.13255747767E+03  0.13255747770E+03  0.26000000000E-02 0.  1.
          2   -1    0    0  501    0  0.00000000000E+00 -0.00000000000E+00 -0.15727965622E+02  0.15727965837E+02  0.26000000000E-02 0. -1.
         23    2    1    2    0    0  0.00000000000E+00  0.00000000000E+00  0.11682951205E+03  0.14828544353E+03  0.91320522766E+02 0.  0.
        -13    1    3    3    0    0 -0.29721808369E+02  0.32784962877E+02  0.40143779570E+02  0.59747584840E+02  0.10570000000E+00 0. -1.
         13    1    3    3    0    0  0.29721808369E+02 -0.32784962877E+02  0.76685732478E+02  0.88537858692E+02  0.10570000000E+00 0.  1.
<mgrwt>
<rscale>  0 0.91320523E+02</rscale>
<asrwt>0</asrwt>
<pdfrwt beam="2">  1        2 0.24196869E-02 0.91320523E+02</pdfrwt>
<pdfrwt beam="1">  1       -2 0.20393459E-01 0.91320523E+02</pdfrwt>
<totfact> 0.72675152E+04</totfact>
</mgrwt>
</event>
<event>
 5   1  0.1343823E+00  0.8979812E+02  0.7818608E-02  0.1303341E+00
          2   -1    0    0  501    0  0.00000000000E+00  0.00000000000E+00  0.14614648781E+03  0.14614648783E+03  0.26000000000E-02 0. -1.
         -2   -1    0    0    0  501 -0.00000000000E+00 -0.00000000000E+00 -0.13793870456E+02  0.13793870701E+02  0.26000000000E-02 0.  1.
         23    2    1    2    0    0  0.00000000000E+00  0.00000000000E+00  0.13235261735E+03  0.15994035853E+03  0.89798123408E+02 0.  0.
        -13    1    3    3    0    0  0.26678277820E+02 -0.20333192116E+02  0.13018436469E+02  0.35981385043E+02  0.10570000000E+00 0.  1.
         13    1    3    3    0    0 -0.26678277820E+02  0.20333192116E+02  0.11933418088E+03  0.12395897349E+03  0.10570000000E+00 0. -1.
<mgrwt>
<rscale>  0 0.89798123E+02</rscale>
<asrwt>0</asrwt>
<pdfrwt beam="1">  1        2 0.22484075E-01 0.89798123E+02</pdfrwt>
<pdfrwt beam="2">  1       -2 0.21221339E-02 0.89798123E+02</pdfrwt>
<totfact> 0.14442726E+05</totfact>
</mgrwt>
</event>
<event>
 5   1  0.1343823E+00  0.9003342E+02  0.7818608E-02  0.1302771E+00
         -2   -1    0    0    0  501 -0.00000000000E+00  0.00000000000E+00  0.15324770645E+02  0.15324770866E+02  0.26000000000E-02 0.  1.
          2   -1    0    0  501    0  0.00000000000E+00 -0.00000000000E+00 -0.13223717382E+03  0.13223717385E+03  0.26000000000E-02 0. -1.
         23    2    1    2    0    0  0.00000000000E+00  0.00000000000E+00 -0.11691240318E+03  0.14756194471E+03  0.90033424411E+02 0.  0.
        -13    1    3    3    0    0  0.10891499015E+02 -0.32526432736E+02 -0.10675291129E+02  0.35924456718E+02  0.10570000000E+00 0.  1.
         13    1    3    3    0    0 -0.10891499015E+02  0.32526432736E+02 -0.10623711205E+03  0.11163748800E+03  0.10570000000E+00 0. -1.
<mgrwt>
<rscale>  0 0.90033424E+02</rscale>
<asrwt>0</asrwt>
<pdfrwt beam="2">  1        2 0.20344180E-01 0.90033424E+02</pdfrwt>
<pdfrwt beam="1">  1       -2 0.23576571E-02 0.90033424E+02</pdfrwt>
<totfact> 0.13871272E+05</totfact>
</mgrwt>
</event>
<event>
 5   1  0.1343823E+00  0.8941453E+02  0.7818608E-02  0.1304276E+00
          2   -1    0    0  501    0  0.00000000000E+00  0.00000000000E+00  0.10362270602E+03  0.10362270605E+03  0.26000000000E-02 0. -1.
         -2   -1    0    0    0  501 -0.00000000000E+00 -0.00000000000E+00 -0.19288626162E+02  0.19288626338E+02  0.26000000000E-02 0.  1.
         23    2    1    2    0    0  0.00000000000E+00  0.00000000000E+00  0.84334079856E+02  0.12291133239E+03  0.89414532400E+02 0.  0.
        -13    1    3    3    0    0 -0.11141723203E+02  0.35080153936E+02  0.77050354275E+02  0.85390417861E+02  0.10570000000E+00 0. -1.
         13    1    3    3    0    0  0.11141723203E+02 -0.35080153936E+02  0.72837255807E+01  0.37520914527E+02  0.10570000000E+00 0.  1.
<mgrwt>
<rscale>  0 0.89414532E+02</rscale>
<asrwt>0</asrwt>
<pdfrwt beam="1">  1        2 0.15941955E-01 0.89414532E+02</pdfrwt>
<pdfrwt beam="2">  1       -2 0.29674810E-02 0.89414532E+02</pdfrwt>
<totfact> 0.13084051E+05</totfact>
</mgrwt>
</event>
<event>
 5   1  0.1343823E+00  0.8944488E+02  0.7818608E-02  0.1304202E+00
         -2   -1    0    0    0  501 -0.00000000000E+00  0.00000000000E+00  0.11366141692E+03  0.11366141695E+03  0.26000000000E-02 0.  1.
          2   -1    0    0  501    0  0.00000000000E+00 -0.00000000000E+00 -0.17596969315E+02  0.17596969507E+02  0.26000000000E-02 0. -1.
         23    2    1    2    0    0  0.00000000000E+00  0.00000000000E+00  0.96064447602E+02  0.13125838645E+03  0.89444876439E+02 0.  0.
        -13    1    3    3    0    0 -0.18567095098E+02 -0.26226774872E+02  0.93677738093E+02  0.99035905243E+02  0.10570000000E+00 0.  1.
         13    1    3    3    0    0  0.18567095098E+02  0.26226774872E+02  0.23867095092E+01  0.32222481210E+02  0.10570000000E+00 0. -1.
<mgrwt>
<rscale>  0 0.89444876E+02</rscale>
<asrwt>0</asrwt>
<pdfrwt beam="2">  1        2 0.27072260E-02 0.89444876E+02</pdfrwt>
<pdfrwt beam="1">  1       -2 0.17486372E-01 0.89444876E+02</pdfrwt>
<totfact> 0.80505771E+04</totfact>
</mgrwt>
</event>
<event>
 5   1  0.1343823E+00  0.9278064E+02  0.7818608E-02  0.1296254E+00
         -2   -1    0    0    0  501 -0.00000000000E+00  0.00000000000E+00  0.12178189834E+02  0.12178190112E+02  0.26000000000E-02 0.  1.
          2   -1    0    0  501    0  0.00000000000E+00 -0.00000000000E+00 -0.17671441132E+03  0.17671441134E+03  0.26000000000E-02 0. -1.
         23    2    1    2    0    0  0.00000000000E+00  0.00000000000E+00 -0.16453622149E+03  0.18889260145E+03  0.92780637540E+02 0.  0.
        -13    1    3    3    0    0 -0.37990702984E+02  0.17257819862E+02 -0.40997709724E+02  0.58497429300E+02  0.10570000000E+00 0.  1.
         13    1    3    3    0    0  0.37990702984E+02 -0.17257819862E+02 -0.12353851176E+03  0.13039517215E+03  0.10570000000E+00 0. -1.
<mgrwt>
<rscale>  0 0.92780638E+02</rscale>
<asrwt>0</asrwt>
<pdfrwt beam="2">  1        2 0.27186831E-01 0.92780638E+02</pdfrwt>
<pdfrwt beam="1">  1       -2 0.18735678E-02 0.92780638E+02</pdfrwt>
<totfact> 0.14115679E+05</totfact>
</mgrwt>
</event>
<event>
 5   1  0.1343823E+00  0.8482095E+02  0.7818608E-02  0.1315901E+00
         -2   -1    0    0    0  501 -0.00000000000E+00  0.00000000000E+00  0.12498537898E+03  0.12498537900E+03  0.26000000000E-02 0.  1.
          2   -1    0    0  501    0  0.00000000000E+00 -0.00000000000E+00 -0.14390871091E+02  0.14390871326E+02  0.26000000000E-02 0. -1.
         23    2    1    2    0    0  0.00000000000E+00  0.00000000000E+00  0.11059450788E+03  0.13937625033E+03  0.84820952490E+02 0.  0.
        -13    1    3    3    0    0 -0.32001810299E+02  0.20236704971E+02  0.23904427642E+02  0.44778040644E+02  0.10570000000E+00 0. -1.
         13    1    3    3    0    0  0.32001810299E+02 -0.20236704971E+02  0.86690080243E+02  0.94598209685E+02  0.10570000000E+00 0.  1.
<mgrwt>
<rscale>  0 0.84820952E+02</rscale>
<asrwt>0</asrwt>
<pdfrwt beam="2">  1        2 0.22139803E-02 0.84820952E+02</pdfrwt>
<pdfrwt beam="1">  1       -2 0.19228519E-01 0.84820952E+02</pdfrwt>
<totfact> 0.89230266E+04</totfact>
</mgrwt>
</event>
<event>
 5   1  0.1343823E+00  0.9350579E+02  0.7818608E-02  0.1294577E+00
          2   -1    0    0  501    0  0.00000000000E+00  0.00000000000E+00  0.97941351285E+02  0.97941351319E+02  0.26000000000E-02 0. -1.
         -2   -1    0    0    0  501 -0.00000000000E+00 -0.00000000000E+00 -0.22317776744E+02  0.22317776895E+02  0.26000000000E-02 0.  1.
         23    2    1    2    0    0  0.00000000000E+00  0.00000000000E+00  0.75623574541E+02  0.12025912821E+03  0.93505790690E+02 0.  0.
        -13    1    3    3    0    0  0.22018265432E+00  0.45264438048E+02  0.52860105248E+02  0.69592526405E+02  0.10570000000E+00 0.  1.
         13    1    3    3    0    0 -0.22018265432E+00 -0.45264438048E+02  0.22763469293E+02  0.50666601809E+02  0.10570000000E+00 0. -1.
<mgrwt>
<rscale>  0 0.93505791E+02</rscale>
<asrwt>0</asrwt>
<pdfrwt beam="1">  1        2 0.15067900E-01 0.93505791E+02</pdfrwt>
<pdfrwt beam="2">  1       -2 0.34335042E-02 0.93505791E+02</pdfrwt>
<totfact> 0.11369809E+05</totfact>
</mgrwt>
</event>
<event>
 5   1  0.1343823E+00  0.9181943E+02  0.7818608E-02  0.1298505E+00
         -2   -1    0    0    0  501 -0.00000000000E+00  0.00000000000E+00  0.10987781491E+02  0.10987781799E+02  0.26000000000E-02 0.  1.
          2   -1    0    0  501    0  0.00000000000E+00 -0.00000000000E+00 -0.19182233654E+03  0.19182233656E+03  0.26000000000E-02 0. -1.
         23    2    1    2    0    0  0.00000000000E+00  0.00000000000E+00 -0.18083455505E+03  0.20281011836E+03  0.91819430450E+02 0.  0.
        -13    1    3    3    0    0  0.42172122841E+02 -0.10996562197E+02 -0.58540295528E+02  0.72982119030E+02  0.10570000000E+00 0.  1.
         13    1    3    3    0    0 -0.42172122841E+02  0.10996562197E+02 -0.12229425952E+03  0.12982799933E+03  0.10570000000E+00 0. -1.
<mgrwt>
<rscale>  0 0.91819430E+02</rscale>
<asrwt>0</asrwt>
<pdfrwt beam="2">  1        2 0.29511126E-01 0.91819430E+02</pdfrwt>
<pdfrwt beam="1">  1       -2 0.16904281E-02 0.91819430E+02</pdfrwt>
<totfact> 0.14950911E+05</totfact>
</mgrwt>
</event>
<event>
 5   1  0.1343823E+00  0.8905307E+02  0.7818608E-02  0.1305161E+00
         -2   -1    0    0    0  501 -0.00000000000E+00  0.00000000000E+00  0.34634019634E+02  0.34634019731E+02  0.26000000000E-02 0.  1.
          2   -1    0    0  501    0  0.00000000000E+00 -0.00000000000E+00 -0.57244655794E+02  0.57244655853E+02  0.26000000000E-02 0. -1.
         23    2    1    2    0    0  0.00000000000E+00  0.00000000000E+00 -0.22610636160E+02  0.91878675584E+02  0.89053074959E+02 0.  0.
        -13    1    3    3    0    0  0.10909101052E+02 -0.20884058262E+02 -0.50285701391E+02  0.55532110640E+02  0.10570000000E+00 0. -1.
         13    1    3    3    0    0 -0.10909101052E+02  0.20884058262E+02  0.27675065231E+02  0.36346564945E+02  0.10570000000E+00 0.  1.
<mgrwt>
<rscale>  0 0.89053075E+02</rscale>
<asrwt>0</asrwt>
<pdfrwt beam="2">  1        2 0.88068701E-02 0.89053075E+02</pdfrwt>
<pdfrwt beam="1">  1       -2 0.53283107E-02 0.89053075E+02</pdfrwt>
<totfact> 0.11194326E+05</totfact>
</mgrwt>
</event>
<event>
 5   1  0.1343823E+00  0.9809027E+02  0.7818608E-02  0.1284364E+00
          2   -1    0    0  501    0  0.00000000000E+00  0.00000000000E+00  0.33525040564E+03  0.33525040565E+03  0.26000000000E-02 0. -1.
         -2   -1    0    0    0  501 -0.00000000000E+00 -0.00000000000E+00 -0.71750101916E+01  0.71750106627E+01  0.26000000000E-02 0.  1.
         23    2    1    2    0    0  0.00000000000E+00  0.00000000000E+00  0.32807539545E+03  0.34242541632E+03  0.98090267807E+02 0.  0.
        -13    1    3    3    0    0 -0.41618016458E+02  0.25709322908E+02  0.17632326588E+03  0.18298342504E+03  0.10570000000E+00 0.  1.
         13    1    3    3    0    0  0.41618016458E+02 -0.25709322908E+02  0.15175212958E+03  0.15944199127E+03  0.10570000000E+00 0. -1.
<mgrwt>
<rscale>  0 0.98090268E+02</rscale>
<asrwt>0</asrwt>
<pdfrwt beam="1">  1        2 0.51576987E-01 0.98090268E+02</pdfrwt>
<pdfrwt beam="2">  1       -2 0.11038477E-02 0.98090268E+02</pdfrwt>
<totfact> 0.15397172E+05</totfact>
</mgrwt>
</event>
<event>
 5   1  0.1343823E+00  0.9189062E+02  0.7818608E-02  0.1298337E+00
         -2   -1    0    0    0  501 -0.00000000000E+00  0.00000000000E+00  0.24952441680E+03  0.24952441681E+03  0.26000000000E-02 0.  1.
          2   -1    0    0  501    0  0.00000000000E+00 -0.00000000000E+00 -0.84599793323E+01  0.84599797319E+01  0.26000000000E-02 0. -1.
         23    2    1    2    0    0  0.00000000000E+00  0.00000000000E+00  0.24106443746E+03  0.25798439654E+03  0.91890618940E+02 0.  0.
        -13    1    3    3    0    0 -0.16271373616E+02  0.38558463413E+02  0.17376020679E+03  0.17872921791E+03  0.10570000000E+00 0.  1.
         13    1    3    3    0    0  0.16271373616E+02 -0.38558463413E+02  0.67304230676E+02  0.79255178629E+02  0.10570000000E+00 0. -1.
<mgrwt>
<rscale>  0 0.91890619E+02</rscale>
<asrwt>0</asrwt>
<pdfrwt beam="2">  1        2 0.13015356E-02 0.91890619E+02</pdfrwt>
<pdfrwt beam="1">  1       -2 0.38388363E-01 0.91890619E+02</pdfrwt>
<totfact> 0.55115166E+04</totfact>
</mgrwt>
</event>
<event>
 5   1  0.1343823E+00  0.9127685E+02  0.7818608E-02  0.1299789E+00
         -2   -1    0    0    0  501 -0.00000000000E+00  0.00000000000E+00  0.19570117075E+02  0.19570117248E+02  0.26000000000E-02 0.  1.
          2   -1    0    0  501    0  0.00000000000E+00 -0.00000000000E+00 -0.10643093977E+03  0.10643093980E+03  0.26000000000E-02 0. -1.
         23    2    1    2    0    0  0.00000000000E+00  0.00000000000E+00 -0.86860822692E+02  0.12600105705E+03  0.91276852806E+02 0.  0.
        -13    1    3    3    0    0  0.36721141424E+02 -0.11187914018E+02 -0.77503292360E+02  0.86489208267E+02  0.10570000000E+00 0. -1.
         13    1    3    3    0    0 -0.36721141424E+02  0.11187914018E+02 -0.93575303317E+01  0.39511848779E+02  0.10570000000E+00 0.  1.
<mgrwt>
<rscale>  0 0.91276853E+02</rscale>
<asrwt>0</asrwt>
<pdfrwt beam="2">  1        2 0.16373990E-01 0.91276853E+02</pdfrwt>
<pdfrwt beam="1">  1       -2 0.30107873E-02 0.91276853E+02</pdfrwt>
<totfact> 0.12467117E+05</totfact>
</mgrwt>
</event>
<event>
 5   1  0.1343823E+00  0.7909519E+02  0.7818608E-02  0.1331639E+00
         -2   -1    0    0    0  501 -0.00000000000E+00  0.00000000000E+00  0.15708616952E+03  0.15708616954E+03  0.26000000000E-02 0.  1.
          2   -1    0    0  501    0  0.00000000000E+00 -0.00000000000E+00 -0.99563980234E+01  0.99563983629E+01  0.26000000000E-02 0. -1.
         23    2    1    2    0    0  0.00000000000E+00  0.00000000000E+00  0.14712977150E+03  0.16704256790E+03  0.79095194743E+02 0.  0.
        -13    1    3    3    0    0 -0.45264751126E+01 -0.39160455036E+02  0.80233689493E+02  0.89395113500E+02  0.10570000000E+00 0. -1.
         13    1    3    3    0    0  0.45264751126E+01  0.39160455036E+02  0.66896082004E+02  0.77647454405E+02  0.10570000000E+00 0.  1.
<mgrwt>
<rscale>  0 0.79095195E+02</rscale>
<asrwt>0</asrwt>
<pdfrwt beam="2">  1        2 0.15317536E-02 0.79095195E+02</pdfrwt>
<pdfrwt beam="1">  1       -2 0.24167103E-01 0.79095195E+02</pdfrwt>
<totfact> 0.98408348E+04</totfact>
</mgrwt>
</event>
<event>
 5   1  0.1343823E+00  0.9427942E+02  0.7818608E-02  0.1292807E+00
         -2   -1    0    0    0  501 -0.00000000000E+00  0.00000000000E+00  0.91381226086E+01  0.91381229785E+01  0.26000000000E-02 0.  1.
          2   -1    0    0  501    0  0.00000000000E+00 -0.00000000000E+00 -0.24317382762E+03  0.24317382764E+03  0.26000000000E-02 0. -1.
         23    2    1    2    0    0  0.00000000000E+00  0.00000000000E+00 -0.23403570501E+03  0.25231195062E+03  0.94279420882E+02 0.  0.
        -13    1    3    3    0    0 -0.40026977202E+02  0.24614789483E+02 -0.12706501987E+03  0.13547537493E+03  0.10570000000E+00 0. -1.
         13    1    3    3    0    0  0.40026977202E+02 -0.24614789483E+02 -0.10697068514E+03  0.11683657568E+03  0.10570000000E+00 0.  1.
<mgrwt>
<rscale>  0 0.94279421E+02</rscale>
<asrwt>0</asrwt>
<pdfrwt beam="2">  1        2 0.37411353E-01 0.94279421E+02</pdfrwt>
<pdfrwt beam="1">  1       -2 0.14058652E-02 0.94279421E+02</pdfrwt>
<totfact> 0.15186547E+05</totfact>
</mgrwt>
</event>
<event>
 5   1  0.1343823E+00  0.9368410E+02  0.7818608E-02  0.1294168E+00
          2   -1    0    0  501    0  0.00000000000E+00  0.00000000000E+00  0.40834754034E+03  0.40834754035E+03  0.26000000000E-02 0. -1.
         -2   -1    0    0    0  501 -0.00000000000E+00 -0.00000000000E+00 -0.53733087957E+01  0.53733094248E+01  0.26000000000E-02 0.  1.
         23    2    1    2    0    0  0.00000000000E+00  0.00000000000E+00  0.40297423155E+03  0.41372084978E+03  0.93684098162E+02 0.  0.
        -13    1    3    3    0    0  0.15355705424E+02  0.42886096320E+02  0.24969201514E+03  0.25381317646E+03  0.10570000000E+00 0. -1.
         13    1    3    3    0    0 -0.15355705424E+02 -0.42886096320E+02  0.15328221640E+03  0.15990767332E+03  0.10570000000E+00 0.  1.
<mgrwt>
<rscale>  0 0.93684098E+02</rscale>
<asrwt>0</asrwt>
<pdfrwt beam="1">  1        2 0.62822673E-01 0.93684098E+02</pdfrwt>
<pdfrwt beam="2">  1       -2 0.82666327E-03 0.93684098E+02</pdfrwt>
<totfact> 0.18710409E+05</totfact>
</mgrwt>
</event>
<event>
 5   1  0.1343823E+00  0.9458372E+02  0.7818608E-02  0.1292116E+00
         -2   -1    0    0    0  501 -0.00000000000E+00  0.00000000000E+00  0.12012077603E+02  0.12012077885E+02  0.26000000000E-02 0.  1.
          2   -1    0    0  501    0  0.00000000000E+00 -0.00000000000E+00 -0.18618926334E+03  0.18618926336E+03  0.26000000000E-02 0. -1.
         23    2    1    2    0    0  0.00000000000E+00  0.00000000000E+00 -0.17417718574E+03  0.19820134125E+03  0.94583717623E+02 0.  0.
        -13    1    3    3    0    0  0.15981724112E+02  0.41620045772E+02 -0.54030930544E+02  0.70049956057E+02  0.10570000000E+00 0.  1.
         13    1    3    3    0    0 -0.15981724112E+02 -0.41620045772E+02 -0.12014625520E+03  0.12815138519E+03  0.10570000000E+00 0. -1.
<mgrwt>
<rscale>  0 0.94583718E+02</rscale>
<asrwt>0</asrwt>
<pdfrwt beam="2">  1        2 0.28644500E-01 0.94583718E+02</pdfrwt>
<pdfrwt beam="1">  1       -2 0.18480121E-02 0.94583718E+02</pdfrwt>
<totfact> 0.13650856E+05</totfact>
</mgrwt>
</event>
<event>
 5   1  0.1343823E+00  0.9118626E+02  0.7818608E-02  0.1300004E+00
         -2   -1    0    0    0  501 -0.00000000000E+00  0.00000000000E+00  0.15451832332E+02  0.15451832551E+02  0.26000000000E-02 0.  1.
          2   -1    0    0  501    0  0.00000000000E+00 -0.00000000000E+00 -0.13452988925E+03  0.13452988928E+03  0.26000000000E-02 0. -1.
         23    2    1    2    0    0  0.00000000000E+00  0.00000000000E+00 -0.11907805692E+03  0.14998172183E+03  0.91186255778E+02 0.  0.
        -13    1    3    3    0    0  0.15118068501E+02  0.30574438940E+02 -0.10930210795E+03  0.11450028073E+03  0.10570000000E+00 0. -1.
         13    1    3    3    0    0 -0.15118068501E+02 -0.30574438940E+02 -0.97759489663E+01  0.35481441098E+02  0.10570000000E+00 0.  1.
<mgrwt>
<rscale>  0 0.91186256E+02</rscale>
<asrwt>0</asrwt>
<pdfrwt beam="2">  1        2 0.20696905E-01 0.91186256E+02</pdfrwt>
<pdfrwt beam="1">  1       -2 0.23772051E-02 0.91186256E+02</pdfrwt>
<totfact> 0.13475581E+05</totfact>
</mgrwt>
</event>
<event>
 5   1  0.1343823E+00  0.9107261E+02  0.7818608E-02  0.1300275E+00
         -2   -1    0    0    0  501 -0.00000000000E+00  0.00000000000E+00  0.22432768291E+03  0.22432768292E+03  0.26000000000E-02 0.  1.
          2   -1    0    0  501    0  0.00000000000E+00 -0.00000000000E+00 -0.92434204056E+01  0.92434207713E+01  0.26000000000E-02 0. -1.
         23    2    1    2    0    0  0.00000000000E+00  0.00000000000E+00  0.21508426250E+03  0.23357110369E+03  0.91072611167E+02 0.  0.
        -13    1    3    3    0    0  0.41034360936E+02 -0.62459957675E-01  0.56912078280E+02  0.70162800010E+02  0.10570000000E+00 0. -1.
         13    1    3    3    0    0 -0.41034360936E+02  0.62459957675E-01  0.15817218422E+03  0.16340830368E+03  0.10570000000E+00 0.  1.
<mgrwt>
<rscale>  0 0.91072611E+02</rscale>
<asrwt>0</asrwt>
<pdfrwt beam="2">  1        2 0.14220647E-02 0.91072611E+02</pdfrwt>
<pdfrwt beam="1">  1       -2 0.34511952E-01 0.91072611E+02</pdfrwt>
<totfact> 0.59362808E+04</totfact>
</mgrwt>
</event>
<event>
 5   1  0.1343823E+00  0.9210311E+02  0.7818608E-02  0.1297837E+00
         -2   -1    0    0    0  501 -0.00000000000E+00  0.00000000000E+00  0.24871511109E+02  0.24871511245E+02  0.26000000000E-02 0.  1.
          2   -1    0    0  501    0  0.00000000000E+00 -0.00000000000E+00 -0.85268076159E+02  0.85268076199E+02  0.26000000000E-02 0. -1.
         23    2    1    2    0    0  0.00000000000E+00  0.00000000000E+00 -0.60396565050E+02  0.11013958744E+03  0.92103114238E+02 0.  0.
        -13    1    3    3    0    0 -0.28198497962E+02 -0.36358922096E+02 -0.27926761929E+02  0.53824174008E+02  0.10570000000E+00 0.  1.
         13    1    3    3    0    0  0.28198497962E+02  0.36358922096E+02 -0.32469803121E+02  0.56315413436E+02  0.10570000000E+00 0. -1.
<mgrwt>
<rscale>  0 0.92103114E+02</rscale>
<asrwt>0</asrwt>
<pdfrwt beam="2">  1        2 0.13118165E-01 0.92103114E+02</pdfrwt>
<pdfrwt beam="1">  1       -2 0.38263864E-02 0.92103114E+02</pdfrwt>
<totfact> 0.11375187E+05</totfact>
</mgrwt>
</event>
<event>
 5   1  0.1343823E+00  0.9229267E+02  0.7818608E-02  0.1297393E+00
         -2   -1    0    0    0  501 -0.00000000000E+00  0.00000000000E+00  0.86647865585E+02  0.86647865624E+02  0.26000000000E-02 0.  1.
          2   -1    0    0  501    0  0.00000000000E+00 -0.00000000000E+00 -0.24576301513E+02  0.24576301651E+02  0.26000000000E-02 0. -1.
         23    2    1    2    0    0  0.00000000000E+00  0.00000000000E+00  0.62071564072E+02  0.11122416727E+03  0.92292666662E+02 0.  0.
        -13    1    3    3    0    0  0.74932447208E+01 -0.45357039433E+02  0.35865786437E+02  0.58307594289E+02  0.10570000000E+00 0.  1.
         13    1    3    3    0    0 -0.74932447208E+01  0.45357039433E+02  0.26205777635E+02  0.52916572985E+02  0.10570000000E+00 0. -1.
<mgrwt>
<rscale>  0 0.92292667E+02</rscale>
<asrwt>0</asrwt>
<pdfrwt beam="2">  1        2 0.37809695E-02 0.92292667E+02</pdfrwt>
<pdfrwt beam="1">  1       -2 0.13330441E-01 0.92292667E+02</pdfrwt>
<totfact> 0.80737014E+04</totfact>
</mgrwt>
</event>
<event>
 5   1  0.1343823E+00  0.9264046E+02  0.7818608E-02  0.1296581E+00
          2   -1    0    0  501    0  0.00000000000E+00  0.00000000000E+00  0.75436390404E+02  0.75436390449E+02  0.26000000000E-02 0. -1.
         -2   -1    0    0    0  501 -0.00000000000E+00 -0.00000000000E+00 -0.28442022064E+02  0.28442022183E+02  0.26000000000E-02 0.  1.
         23    2    1    2    0    0  0.00000000000E+00  0.00000000000E+00  0.46994368340E+02  0.10387841263E+03  0.92640455284E+02 0.  0.
        -13    1    3    3    0    0 -0.37477204642E+02  0.19525553736E+02  0.44765524251E+02  0.61560957192E+02  0.10570000000E+00 0. -1.
         13    1    3    3    0    0  0.37477204642E+02 -0.19525553736E+02  0.22288440894E+01  0.42317455440E+02  0.10570000000E+00 0.  1.
<mgrwt>
<rscale>  0 0.92640455E+02</rscale>
<asrwt>0</asrwt>
<pdfrwt beam="1">  1        2 0.11605598E-01 0.92640455E+02</pdfrwt>
<pdfrwt beam="2">  1       -2 0.43756958E-02 0.92640455E+02</pdfrwt>
<totfact> 0.10804119E+05</totfact>
</mgrwt>
</event>
<event>
 5   1  0.1343823E+00  0.1059234E+03  0.7818608E-02  0.1268311E+00
          2   -1    0    0  501    0  0.00000000000E+00  0.00000000000E+00  0.99353106258E+01  0.99353109660E+01  0.26000000000E-02 0.  1.
         -2   -1    0    0    0  501 -0.00000000000E+00 -0.00000000000E+00 -0.28232073101E+03  0.28232073102E+03  0.26000000000E-02 0. -1.
         23    2    1    2    0    0  0.00000000000E+00  0.00000000000E+00 -0.27238542038E+03  0.29225604198E+03  0.10592344802E+03 0.  0.
        -13    1    3    3    0    0  0.10103238095E+02  0.37611180354E+02 -0.23522403726E+03  0.23842616296E+03  0.10570000000E+00 0. -1.
         13    1    3    3    0    0 -0.10103238095E+02 -0.37611180354E+02 -0.37161383122E+02  0.53829879023E+02  0.10570000000E+00 0.  1.
<mgrwt>
<rscale>  0 0.10592345E+03</rscale>
<asrwt>0</asrwt>
<pdfrwt beam="1">  1        2 0.15285096E-02 0.10592345E+03</pdfrwt>
<pdfrwt beam="2">  1       -2 0.43433953E-01 0.10592345E+03</pdfrwt>
<totfact> 0.35817051E+04</totfact>
</mgrwt>
</event>
<event>
 5   1  0.1343823E+00  0.9031050E+02  0.7818608E-02  0.1302102E+00
          2   -1    0    0  501    0  0.00000000000E+00  0.00000000000E+00  0.16454948172E+03  0.16454948174E+03  0.26000000000E-02 0. -1.
         -2   -1    0    0    0  501 -0.00000000000E+00 -0.00000000000E+00 -0.12391388604E+02  0.12391388876E+02  0.26000000000E-02 0.  1.
         23    2    1    2    0    0  0.00000000000E+00  0.00000000000E+00  0.15215809311E+03  0.17694087061E+03  0.90310499909E+02 0.  0.
        -13    1    3    3    0    0 -0.19782437504E+02 -0.32955918916E+02  0.29650685170E+02  0.48544945450E+02  0.10570000000E+00 0.  1.
         13    1    3    3    0    0  0.19782437504E+02  0.32955918916E+02  0.12250740794E+03  0.12839592516E+03  0.10570000000E+00 0. -1.
<mgrwt>
<rscale>  0 0.90310500E+02</rscale>
<asrwt>0</asrwt>
<pdfrwt beam="1">  1        2 0.25315302E-01 0.90310500E+02</pdfrwt>
<pdfrwt beam="2">  1       -2 0.19063677E-02 0.90310500E+02</pdfrwt>
<totfact> 0.14810380E+05</totfact>
</mgrwt>
</event>
<event>
 5   1  0.1343823E+00  0.9052941E+02  0.7818608E-02  0.1301575E+00
          2   -1    0    0  501    0  0.00000000000E+00  0.00000000000E+00  0.42248010068E+02  0.42248010148E+02  0.26000000000E-02 0.  1.
         -2   -1    0    0    0  501 -0.00000000000E+00 -0.00000000000E+00 -0.48496801542E+02  0.48496801612E+02  0.26000000000E-02 0. -1.
         23    2    1    2    0    0  0.00000000000E+00  0.00000000000E+00 -0.62487914744E+01  0.90744811760E+02  0.90529406640E+02 0.  0.
        -13    1    3    3    0    0 -0.38665276221E+02  0.23372958743E+01 -0.26598393171E+02  0.46988852178E+02  0.10570000000E+00 0. -1.
         13    1    3    3    0    0  0.38665276221E+02 -0.23372958743E+01  0.20349601696E+02  0.43755959582E+02  0.10570000000E+00 0.  1.
<mgrwt>
<rscale>  0 0.90529407E+02</rscale>
<asrwt>0</asrwt>
<pdfrwt beam="1">  1        2 0.64996939E-02 0.90529407E+02</pdfrwt>
<pdfrwt beam="2">  1       -2 0.74610464E-02 0.90529407E+02</pdfrwt>
<totfact> 0.98754896E+04</totfact>
</mgrwt>
</event>
<event>
 5   1  0.1343823E+00  0.9081285E+02  0.7818608E-02  0.1300895E+00
          2   -1    0    0  501    0  0.00000000000E+00  0.00000000000E+00  0.32219571759E+02  0.32219571864E+02  0.26000000000E-02 0. -1.
         -2   -1    0    0    0  501 -0.00000000000E+00 -0.00000000000E+00 -0.63990397698E+02  0.63990397750E+02  0.26000000000E-02 0.  1.
         23    2    1    2    0    0  0.00000000000E+00  0.00000000000E+00 -0.31770825939E+02  0.96209969614E+02  0.90812845305E+02 0.  0.
        -13    1    3    3    0    0  0.34298830586E+02  0.27369045409E+02 -0.35187309795E+01  0.44021211550E+02  0.10570000000E+00 0.  1.
         13    1    3    3    0    0 -0.34298830586E+02 -0.27369045409E+02 -0.28252094959E+02  0.52188758064E+02  0.10570000000E+00 0. -1.
<mgrwt>
<rscale>  0 0.90812845E+02</rscale>
<asrwt>0</asrwt>
<pdfrwt beam="1">  1        2 0.49568572E-02 0.90812845E+02</pdfrwt>
<pdfrwt beam="2">  1       -2 0.98446766E-02 0.90812845E+02</pdfrwt>
<totfact> 0.91226686E+04</totfact>
</mgrwt>
</event>
<event>
 5   1  0.1343823E+00  0.1025340E+03  0.7818608E-02  0.1275056E+00
          2   -1    0    0  501    0  0.00000000000E+00  0.00000000000E+00  0.65732764445E+02  0.65732764497E+02  0.26000000000E-02 0. -1.
         -2   -1    0    0    0  501 -0.00000000000E+00 -0.00000000000E+00 -0.39984705976E+02  0.39984706061E+02  0.26000000000E-02 0.  1.
         23    2    1    2    0    0  0.00000000000E+00  0.00000000000E+00  0.25748058469E+02  0.10571747056E+03  0.10253399956E+03 0.  0.
        -13    1    3    3    0    0  0.70958013056E+01 -0.44651607387E+02 -0.12046160004E+02  0.46789289177E+02  0.10570000000E+00 0.  1.
         13    1    3    3    0    0 -0.70958013056E+01  0.44651607387E+02  0.37794218473E+02  0.58928181381E+02  0.10570000000E+00 0. -1.
<mgrwt>
<rscale>  0 0.10253400E+03</rscale>
<asrwt>0</asrwt>
<pdfrwt beam="1">  1        2 0.10112733E-01 0.10253400E+03</pdfrwt>
<pdfrwt beam="2">  1       -2 0.61514933E-02 0.10253400E+03</pdfrwt>
<totfact> 0.77916357E+04</totfact>
</mgrwt>
</event>
<event>
 5   1  0.1343823E+00  0.8813557E+02  0.7818608E-02  0.1307431E+00
          2   -1    0    0  501    0  0.00000000000E+00  0.00000000000E+00  0.21490031604E+02  0.21490031761E+02  0.26000000000E-02 0. -1.
         -2   -1    0    0    0  501 -0.00000000000E+00 -0.00000000000E+00 -0.90366060782E+02  0.90366060819E+02  0.26000000000E-02 0.  1.
         23    2    1    2    0    0  0.00000000000E+00  0.00000000000E+00 -0.68876029178E+02  0.11185609258E+03  0.88135566328E+02 0.  0.
        -13    1    3    3    0    0 -0.20217081116E+02  0.11045085125E+02 -0.82114910320E+02  0.85285367700E+02  0.10570000000E+00 0.  1.
         13    1    3    3    0    0  0.20217081116E+02 -0.11045085125E+02  0.13238881142E+02  0.26570724880E+02  0.10570000000E+00 0. -1.
<mgrwt>
<rscale>  0 0.88135566E+02</rscale>
<asrwt>0</asrwt>
<pdfrwt beam="1">  1        2 0.33061588E-02 0.88135566E+02</pdfrwt>
<pdfrwt beam="2">  1       -2 0.13902471E-01 0.88135566E+02</pdfrwt>
<totfact> 0.89405122E+04</totfact>
</mgrwt>
</event>
<event>
 5   1  0.1343823E+00  0.9148804E+02  0.7818608E-02  0.1299288E+00
         -2   -1    0    0    0  501 -0.00000000000E+00  0.00000000000E+00  0.28131923566E+02  0.28131923686E+02  0.26000000000E-02 0.  1.
          2   -1    0    0  501    0  0.00000000000E+00 -0.00000000000E+00 -0.74382232348E+02  0.74382232393E+02  0.26000000000E-02 0. -1.
         23    2    1    2    0    0  0.00000000000E+00  0.00000000000E+00 -0.46250308782E+02  0.10251415608E+03  0.91488038203E+02 0.  0.
        -13    1    3    3    0    0 -0.11681005487E+02  0.10479648735E+02  0.25021158890E+02  0.29535376948E+02  0.10570000000E+00 0.  1.
         13    1    3    3    0    0  0.11681005487E+02 -0.10479648735E+02 -0.71271467672E+02  0.72978779131E+02  0.10570000000E+00 0. -1.
<mgrwt>
<rscale>  0 0.91488038E+02</rscale>
<asrwt>0</asrwt>
<pdfrwt beam="2">  1        2 0.11443420E-01 0.91488038E+02</pdfrwt>
<pdfrwt beam="1">  1       -2 0.43279883E-02 0.91488038E+02</pdfrwt>
<totfact> 0.11144411E+05</totfact>
</mgrwt>
</event>
<event>
 5   1  0.1343823E+00  0.8578416E+02  0.7818608E-02  0.1313395E+00
          2   -1    0    0  501    0  0.00000000000E+00  0.00000000000E+00  0.13429318995E+03  0.13429318998E+03  0.26000000000E-02 0. -1.
         -2   -1    0    0    0  501 -0.00000000000E+00 -0.00000000000E+00 -0.13699356780E+02  0.13699357027E+02  0.26000000000E-02 0.  1.
         23    2    1    2    0    0  0.00000000000E+00  0.00000000000E+00  0.12059383317E+03  0.14799254700E+03  0.85784155704E+02 0.  0.
        -13    1    3    3    0    0  0.16299360318E+02  0.17834960238E+02 -0.84251495304E+00  0.24175937570E+02  0.10570000000E+00 0.  1.
         13    1    3    3    0    0 -0.16299360318E+02 -0.17834960238E+02  0.12143634812E+03  0.12381660943E+03  0.10570000000E+00 0. -1.
<mgrwt>
<rscale>  0 0.85784156E+02</rscale>
<asrwt>0</asrwt>
<pdfrwt beam="1">  1        2 0.20660491E-01 0.85784156E+02</pdfrwt>
<pdfrwt beam="2">  1       -2 0.21075934E-02 0.85784156E+02</pdfrwt>
<totfact> 0.15892428E+05</totfact>
</mgrwt>
</event>
<event>
 5   1  0.1343823E+00  0.9031121E+02  0.7818608E-02  0.1302100E+00
          2   -1    0    0  501    0  0.00000000000E+00  0.00000000000E+00  0.11851828842E+03  0.11851828844E+03  0.26000000000E-02 0. -1.
         -2   -1    0    0    0  501 -0.00000000000E+00 -0.00000000000E+00 -0.17204337158E+02  0.17204337355E+02  0.26000000000E-02 0.  1.
         23    2    1    2    0    0  0.00000000000E+00  0.00000000000E+00  0.10131395126E+03  0.13572262580E+03  0.90311208797E+02 0.  0.
        -13    1    3    3    0    0 -0.30897313695E+02 -0.23573602610E+02  0.85210972601E+02  0.93655110687E+02  0.10570000000E+00 0. -1.
         13    1    3    3    0    0  0.30897313695E+02  0.23573602610E+02  0.16102978657E+02  0.42067515113E+02  0.10570000000E+00 0.  1.
<mgrwt>
<rscale>  0 0.90311209E+02</rscale>
<asrwt>0</asrwt>
<pdfrwt beam="1">  1        2 0.18233583E-01 0.90311209E+02</pdfrwt>
<pdfrwt beam="2">  1       -2 0.26468212E-02 0.90311209E+02</pdfrwt>
<totfact> 0.13276429E+05</totfact>
</mgrwt>
</event>
<event>
 5   1  0.1343823E+00  0.8889999E+02  0.7818608E-02  0.1305538E+00
          2   -1    0    0  501    0  0.00000000000E+00  0.00000000000E+00  0.65772003521E+02  0.65772003572E+02  0.26000000000E-02 0. -1.
         -2   -1    0    0    0  501 -0.00000000000E+00 -0.00000000000E+00 -0.30040166799E+02  0.30040166911E+02  0.26000000000E-02 0.  1.
         23    2    1    2    0    0  0.00000000000E+00  0.00000000000E+00  0.35731836722E+02  0.95812170484E+02  0.88899987949E+02 0.  0.
        -13    1    3    3    0    0  0.26287902595E+02  0.30938395291E+02  0.37371528768E+02  0.55180435491E+02  0.10570000000E+00 0. -1.
         13    1    3    3    0    0 -0.26287902595E+02 -0.30938395291E+02 -0.16396920454E+01  0.40631734993E+02  0.10570000000E+00 0.  1.
<mgrwt>
<rscale>  0 0.88899988E+02</rscale>
<asrwt>0</asrwt>
<pdfrwt beam="1">  1        2 0.10118770E-01 0.88899988E+02</pdfrwt>
<pdfrwt beam="2">  1       -2 0.46215641E-02 0.88899988E+02</pdfrwt>
<totfact> 0.11671340E+05</totfact>
</mgrwt>
</event>
<event>
 5   1  0.1343823E+00  0.9132823E+02  0.7818608E-02  0.1299667E+00
         -2   -1    0    0    0  501 -0.00000000000E+00  0.00000000000E+00  0.88101356715E+01  0.88101360551E+01  0.26000000000E-02 0.  1.
          2   -1    0    0  501    0  0.00000000000E+00 -0.00000000000E+00 -0.23668321697E+03  0.23668321698E+03  0.26000000000E-02 0. -1.
         23    2    1    2    0    0  0.00000000000E+00  0.00000000000E+00 -0.22787308130E+03  0.24549335304E+03  0.91328227870E+02 0.  0.
        -13    1    3    3    0    0 -0.36440835048E+02  0.14387097415E+02 -0.17699239670E+03  0.18127670202E+03  0.10570000000E+00 0. -1.
         13    1    3    3    0    0  0.36440835048E+02 -0.14387097415E+02 -0.50880684593E+02  0.64216651020E+02  0.10570000000E+00 0.  1.
<mgrwt>
<rscale>  0 0.91328228E+02</rscale>
<asrwt>0</asrwt>
<pdfrwt beam="2">  1        2 0.36412798E-01 0.91328228E+02</pdfrwt>
<pdfrwt beam="1">  1       -2 0.13554057E-02 0.91328228E+02</pdfrwt>
<totfact> 0.16376962E+05</totfact>
</mgrwt>
</event>
<event>
 5   1  0.1343823E+00  0.1211573E+03  0.7818608E-02  0.1241200E+00
          2   -1    0    0  501    0  0.00000000000E+00  0.00000000000E+00  0.41601114746E+02  0.41601114827E+02  0.26000000000E-02 0. -1.
         -2   -1    0    0    0  501 -0.00000000000E+00 -0.00000000000E+00 -0.88213347235E+02  0.88213347273E+02  0.26000000000E-02 0.  1.
         23    2    1    2    0    0  0.00000000000E+00  0.00000000000E+00 -0.46612232489E+02  0.12981446210E+03  0.12115731242E+03 0.  0.
        -13    1    3    3    0    0  0.56097345447E+02  0.79547041784E+01 -0.46275570013E+02  0.73154829214E+02  0.10570000000E+00 0.  1.
         13    1    3    3    0    0 -0.56097345447E+02 -0.79547041784E+01 -0.33666247611E+00  0.56659632886E+02  0.10570000000E+00 0. -1.
<mgrwt>
<rscale>  0 0.12115731E+03</rscale>
<asrwt>0</asrwt>
<pdfrwt beam="1">  1        2 0.64001715E-02 0.12115731E+03</pdfrwt>
<pdfrwt beam="2">  1       -2 0.13571284E-01 0.12115731E+03</pdfrwt>
<totfact> 0.41205911E+04</totfact>
</mgrwt>
</event>
<event>
 5   1  0.1343823E+00  0.9039338E+02  0.7818608E-02  0.1301902E+00
          2   -1    0    0  501    0  0.00000000000E+00  0.00000000000E+00  0.28483492537E+03  0.28483492538E+03  0.26000000000E-02 0. -1.
         -2   -1    0    0    0  501 -0.00000000000E+00 -0.00000000000E+00 -0.71716653349E+01  0.71716658062E+01  0.26000000000E-02 0.  1.
         23    2    1    2    0    0  0.00000000000E+00  0.00000000000E+00  0.27766326004E+03  0.29200659119E+03  0.90393380974E+02 0.  0.
        -13    1    3    3    0    0  0.19014674356E+02  0.31792759661E+02  0.55190379623E+02  0.66470494080E+02  0.10570000000E+00 0.  1.
         13    1    3    3    0    0 -0.19014674356E+02 -0.31792759661E+02  0.22247288041E+03  0.22553609711E+03  0.10570000000E+00 0. -1.
<mgrwt>
<rscale>  0 0.90393381E+02</rscale>
<asrwt>0</asrwt>
<pdfrwt beam="1">  1        2 0.43820751E-01 0.90393381E+02</pdfrwt>
<pdfrwt beam="2">  1       -2 0.11033333E-02 0.90393381E+02</pdfrwt>
<totfact> 0.18032432E+05</totfact>
</mgrwt>
</event>
<event>
 5   1  0.1343823E+00  0.1018484E+03  0.7818608E-02  0.1276456E+00
          2   -1    0    0  501    0  0.00000000000E+00  0.00000000000E+00  0.18032400896E+02  0.18032401084E+02  0.26000000000E-02 0.  1.
         -2   -1    0    0    0  501 -0.00000000000E+00 -0.00000000000E+00 -0.14381203924E+03  0.14381203926E+03  0.26000000000E-02 0. -1.
         23    2    1    2    0    0  0.00000000000E+00  0.00000000000E+00 -0.12577963834E+03  0.16184444035E+03  0.10184844353E+03 0.  0.
        -13    1    3    3    0    0  0.48209618379E+02 -0.11618789676E+02 -0.44488015706E+02  0.66621004884E+02  0.10570000000E+00 0. -1.
         13    1    3    3    0    0 -0.48209618379E+02  0.11618789676E+02 -0.81291622637E+02  0.95223435463E+02  0.10570000000E+00 0.  1.
<mgrwt>
<rscale>  0 0.10184844E+03</rscale>
<asrwt>0</asrwt>
<pdfrwt beam="1">  1        2 0.27742156E-02 0.10184844E+03</pdfrwt>
<pdfrwt beam="2">  1       -2 0.22124928E-01 0.10184844E+03</pdfrwt>
<totfact> 0.53604492E+04</totfact>
</mgrwt>
</event>
<event>
 5   1  0.1343823E+00  0.1001736E+03  0.7818608E-02  0.1279931E+00
          2   -1    0    0  501    0  0.00000000000E+00  0.00000000000E+00  0.45286404874E+02  0.45286404949E+02  0.26000000000E-02 0.  1.
         -2   -1    0    0    0  501 -0.00000000000E+00 -0.00000000000E+00 -0.55396027122E+02  0.55396027183E+02  0.26000000000E-02 0. -1.
         23    2    1    2    0    0  0.00000000000E+00  0.00000000000E+00 -0.10109622248E+02  0.10068243213E+03  0.10017358773E+03 0.  0.
        -13    1    3    3    0    0  0.19041224495E+02 -0.15561941377E+02 -0.48910542398E+02  0.54744813269E+02  0.10570000000E+00 0. -1.
         13    1    3    3    0    0 -0.19041224495E+02  0.15561941377E+02  0.38800920150E+02  0.45937618862E+02  0.10570000000E+00 0.  1.
<mgrwt>
<rscale>  0 0.10017359E+03</rscale>
<asrwt>0</asrwt>
<pdfrwt beam="1">  1        2 0.69671392E-02 0.10017359E+03</pdfrwt>
<pdfrwt beam="2">  1       -2 0.85224658E-02 0.10017359E+03</pdfrwt>
<totfact> 0.74967763E+04</totfact>
</mgrwt>
</event>
<event>
 5   1  0.1343823E+00  0.9159922E+02  0.7818608E-02  0.1299025E+00
         -2   -1    0    0    0  501 -0.00000000000E+00  0.00000000000E+00  0.59404596985E+02  0.59404597042E+02  0.26000000000E-02 0.  1.
          2   -1    0    0  501    0  0.00000000000E+00 -0.00000000000E+00 -0.35310467016E+02  0.35310467112E+02  0.26000000000E-02 0. -1.
         23    2    1    2    0    0  0.00000000000E+00  0.00000000000E+00  0.24094129969E+02  0.94715064153E+02  0.91599215491E+02 0.  0.
        -13    1    3    3    0    0 -0.30799393800E+01 -0.21451231876E+02  0.53767424060E+02  0.57970582523E+02  0.10570000000E+00 0.  1.
         13    1    3    3    0    0  0.30799393800E+01  0.21451231876E+02 -0.29673294091E+02  0.36744481630E+02  0.10570000000E+00 0. -1.
<mgrwt>
<rscale>  0 0.91599215E+02</rscale>
<asrwt>0</asrwt>
<pdfrwt beam="2">  1        2 0.54323796E-02 0.91599215E+02</pdfrwt>
<pdfrwt beam="1">  1       -2 0.91391687E-02 0.91599215E+02</pdfrwt>
<totfact> 0.91108067E+04</totfact>
</mgrwt>
</event>
<event>
 5   1  0.1343823E+00  0.9325600E+02  0.7818608E-02  0.1295153E+00
          2   -1    0    0  501    0  0.00000000000E+00  0.00000000000E+00  0.12829835005E+03  0.12829835007E+03  0.26000000000E-02 0. -1.
         -2   -1    0    0    0  501 -0.00000000000E+00 -0.00000000000E+00 -0.16946207830E+02  0.16946208030E+02  0.26000000000E-02 0.  1.
         23    2    1    2    0    0  0.00000000000E+00  0.00000000000E+00  0.11135214222E+03  0.14524455810E+03  0.93256002928E+02 0.  0.
        -13    1    3    3    0    0 -0.35845451266E+02 -0.76014420847E+01  0.10058671176E+03  0.10705314593E+03  0.10570000000E+00 0.  1.
         13    1    3    3    0    0  0.35845451266E+02  0.76014420847E+01  0.10765430454E+02  0.38191412171E+02  0.10570000000E+00 0. -1.
<mgrwt>
<rscale>  0 0.93256003E+02</rscale>
<asrwt>0</asrwt>
<pdfrwt beam="1">  1        2 0.19738208E-01 0.93256003E+02</pdfrwt>
<pdfrwt beam="2">  1       -2 0.26071089E-02 0.93256003E+02</pdfrwt>
<totfact> 0.12477252E+05</totfact>
</mgrwt>
</event>
<event>
 5   1  0.1343823E+00  0.8647011E+02  0.7818608E-02  0.1311632E+00
          2   -1    0    0  501    0  0.00000000000E+00  0.00000000000E+00  0.38148505523E+02  0.38148505612E+02  0.26000000000E-02 0. -1.
         -2   -1    0    0    0  501 -0.00000000000E+00 -0.00000000000E+00 -0.48999821759E+02  0.48999821828E+02  0.26000000000E-02 0.  1.
         23    2    1    2    0    0  0.00000000000E+00  0.00000000000E+00 -0.10851316236E+02  0.87148327440E+02  0.86470109931E+02 0.  0.
        -13    1    3    3    0    0  0.35475016897E+02 -0.53584932457E+01  0.18889668393E+02  0.40546529053E+02  0.10570000000E+00 0. -1.
         13    1    3    3    0    0 -0.35475016897E+02  0.53584932457E+01 -0.29740984629E+02  0.46601798387E+02  0.10570000000E+00 0.  1.
<mgrwt>
<rscale>  0 0.86470110E+02</rscale>
<asrwt>0</asrwt>
<pdfrwt beam="1">  1        2 0.58690009E-02 0.86470110E+02</pdfrwt>
<pdfrwt beam="2">  1       -2 0.75384341E-02 0.86470110E+02</pdfrwt>
<totfact> 0.10981020E+05</totfact>
</mgrwt>
</event>
<event>
 5   1  0.1343823E+00  0.9028017E+02  0.7818608E-02  0.1302175E+00
         -2   -1    0    0    0  501 -0.00000000000E+00  0.00000000000E+00  0.11736476443E+02  0.11736476731E+02  0.26000000000E-02 0.  1.
          2   -1    0    0  501    0  0.00000000000E+00 -0.00000000000E+00 -0.17361489651E+03  0.17361489653E+03  0.26000000000E-02 0. -1.
         23    2    1    2    0    0  0.00000000000E+00  0.00000000000E+00 -0.16187842006E+03  0.18535137326E+03  0.90280167734E+02 0.  0.
        -13    1    3    3    0    0  0.44148949995E+02  0.86859812462E+01 -0.73525402618E+02  0.86200765997E+02  0.10570000000E+00 0. -1.
         13    1    3    3    0    0 -0.44148949995E+02 -0.86859812462E+01 -0.88353017447E+02  0.99150607262E+02  0.10570000000E+00 0.  1.
<mgrwt>
<rscale>  0 0.90280168E+02</rscale>
<asrwt>0</asrwt>
<pdfrwt beam="2">  1        2 0.26709982E-01 0.90280168E+02</pdfrwt>
<pdfrwt beam="1">  1       -2 0.18056119E-02 0.90280168E+02</pdfrwt>
<totfact> 0.15103456E+05</totfact>
</mgrwt>
</event>
<event>
 5   1  0.1343823E+00  0.7720656E+02  0.7818608E-02  0.1337171E+00
          2   -1    0    0  501    0  0.00000000000E+00  0.00000000000E+00  0.81269019205E+02  0.81269019246E+02  0.26000000000E-02 0. -1.
         -2   -1    0    0    0  501 -0.00000000000E+00 -0.00000000000E+00 -0.18336794619E+02  0.18336794803E+02  0.26000000000E-02 0.  1.
         23    2    1    2    0    0  0.00000000000E+00  0.00000000000E+00  0.62932224586E+02  0.99605814050E+02  0.77206562553E+02 0.  0.
        -13    1    3    3    0    0  0.29925081296E+02  0.57048679908E+01  0.62054394622E+02  0.69128974199E+02  0.10570000000E+00 0. -1.
         13    1    3    3    0    0 -0.29925081296E+02 -0.57048679908E+01  0.87782996380E+00  0.30476839851E+02  0.10570000000E+00 0.  1.
<mgrwt>
<rscale>  0 0.77206563E+02</rscale>
<asrwt>0</asrwt>
<pdfrwt beam="1">  1        2 0.12502926E-01 0.77206563E+02</pdfrwt>
<pdfrwt beam="2">  1       -2 0.28210453E-02 0.77206563E+02</pdfrwt>
<totfact> 0.18199886E+05</totfact>
</mgrwt>
</event>
<event>
 5   1  0.1343823E+00  0.9016791E+02  0.7818608E-02  0.1302446E+00
          2   -1    0    0  501    0  0.00000000000E+00  0.00000000000E+00  0.18620219127E+02  0.18620219309E+02  0.26000000000E-02 0.  1.
         -2   -1    0    0    0  501 -0.00000000000E+00 -0.00000000000E+00 -0.10915891844E+03  0.10915891848E+03  0.26000000000E-02 0. -1.
         23    2    1    2    0    0  0.00000000000E+00  0.00000000000E+00 -0.90538699317E+02  0.12777913778E+03  0.90167909917E+02 0.  0.
        -13    1    3    3    0    0  0.16336925007E+02  0.41776589456E+02 -0.38872908713E+02  0.59357331052E+02  0.10570000000E+00 0.  1.
         13    1    3    3    0    0 -0.16336925007E+02 -0.41776589456E+02 -0.51665790604E+02  0.68421806732E+02  0.10570000000E+00 0. -1.
<mgrwt>
<rscale>  0 0.90167910E+02</rscale>
<asrwt>0</asrwt>
<pdfrwt beam="1">  1        2 0.28646492E-02 0.90167910E+02</pdfrwt>
<pdfrwt beam="2">  1       -2 0.16793679E-01 0.90167910E+02</pdfrwt>
<totfact> 0.79899230E+04</totfact>
</mgrwt>
</event>
<event>
 5   1  0.1343823E+00  0.9120908E+02  0.7818608E-02  0.1299950E+00
          2   -1    0    0  501    0  0.00000000000E+00  0.00000000000E+00  0.95703940371E+01  0.95703943903E+01  0.26000000000E-02 0. -1.
         -2   -1    0    0    0  501 -0.00000000000E+00 -0.00000000000E+00 -0.21731329253E+03  0.21731329255E+03  0.26000000000E-02 0.  1.
         23    2    1    2    0    0  0.00000000000E+00  0.00000000000E+00 -0.20774289850E+03  0.22688368694E+03  0.91209075883E+02 0.  0.
        -13    1    3    3    0    0 -0.41079289104E+02  0.55792946028E+01 -0.15114244019E+03  0.15672487014E+03  0.10570000000E+00 0.  1.
         13    1    3    3    0    0  0.41079289104E+02 -0.55792946028E+01 -0.56600458303E+02  0.70158816796E+02  0.10570000000E+00 0. -1.
<mgrwt>
<rscale>  0 0.91209076E+02</rscale>
<asrwt>0</asrwt>
<pdfrwt beam="1">  1        2 0.14723685E-02 0.91209076E+02</pdfrwt>
<pdfrwt beam="2">  1       -2 0.33432811E-01 0.91209076E+02</pdfrwt>
<totfact> 0.60007387E+04</totfact>
</mgrwt>
</event>
<event>
 5   1  0.1343823E+00  0.8900600E+02  0.7818608E-02  0.1305277E+00
          2   -1    0    0  501    0  0.00000000000E+00  0.00000000000E+00  0.35064124355E+03  0.35064124356E+03  0.26000000000E-02 0. -1.
         -2   -1    0    0    0  501 -0.00000000000E+00 -0.00000000000E+00 -0.56482714258E+01  0.56482720242E+01  0.26000000000E-02 0.  1.
         23    2    1    2    0    0  0.00000000000E+00  0.00000000000E+00  0.34499297213E+03  0.35628951558E+03  0.89006000359E+02 0.  0.
        -13    1    3    3    0    0 -0.78235472087E+01 -0.42280063140E+02  0.21843396086E+03  0.22262573539E+03  0.10570000000E+00 0.  1.
         13    1    3    3    0    0  0.78235472087E+01  0.42280063140E+02  0.12655901127E+03  0.13366378019E+03  0.10570000000E+00 0. -1.
<mgrwt>
<rscale>  0 0.89006000E+02</rscale>
<asrwt>0</asrwt>
<pdfrwt beam="1">  1        2 0.53944804E-01 0.89006000E+02</pdfrwt>
<pdfrwt beam="2">  1       -2 0.86896493E-03 0.89006000E+02</pdfrwt>
<totfact> 0.20290207E+05</totfact>
</mgrwt>
</event>
<event>
 5   1  0.1343823E+00  0.8692249E+02  0.7818608E-02  0.1310480E+00
         -2   -1    0    0    0  501 -0.00000000000E+00  0.00000000000E+00  0.10261021660E+03  0.10261021663E+03  0.26000000000E-02 0.  1.
          2   -1    0    0  501    0  0.00000000000E+00 -0.00000000000E+00 -0.18408300745E+02  0.18408300928E+02  0.26000000000E-02 0. -1.
         23    2    1    2    0    0  0.00000000000E+00  0.00000000000E+00  0.84201915854E+02  0.12101851756E+03  0.86922488223E+02 0.  0.
        -13    1    3    3    0    0  0.34915331338E+02 -0.14057614856E+02  0.11847874738E+02  0.39459855628E+02  0.10570000000E+00 0. -1.
         13    1    3    3    0    0 -0.34915331338E+02  0.14057614856E+02  0.72354041116E+02  0.81558661932E+02  0.10570000000E+00 0.  1.
<mgrwt>
<rscale>  0 0.86922488E+02</rscale>
<asrwt>0</asrwt>
<pdfrwt beam="2">  1        2 0.28320462E-02 0.86922488E+02</pdfrwt>
<pdfrwt beam="1">  1       -2 0.15786187E-01 0.86922488E+02</pdfrwt>
<totfact> 0.89198835E+04</totfact>
</mgrwt>
</event>
<event>
 5   1  0.1343823E+00  0.9125436E+02  0.7818608E-02  0.1299842E+00
          2   -1    0    0  501    0  0.00000000000E+00  0.00000000000E+00  0.41760013879E+02  0.41760013960E+02  0.26000000000E-02 0.  1.
         -2   -1    0    0    0  501 -0.00000000000E+00 -0.00000000000E+00 -0.49852465346E+02  0.49852465414E+02  0.26000000000E-02 0. -1.
         23    2    1    2    0    0  0.00000000000E+00  0.00000000000E+00 -0.80924514666E+01  0.91612479374E+02  0.91254362122E+02 0.  0.
        -13    1    3    3    0    0 -0.34847104603E+02 -0.99113709230E+01 -0.31890833770E+02  0.48265851529E+02  0.10570000000E+00 0. -1.
         13    1    3    3    0    0  0.34847104603E+02  0.99113709230E+01  0.23798382304E+02  0.43346627845E+02  0.10570000000E+00 0.  1.
<mgrwt>
<rscale>  0 0.91254362E+02</rscale>
<asrwt>0</asrwt>
<pdfrwt beam="1">  1        2 0.64246175E-02 0.91254362E+02</pdfrwt>
<pdfrwt beam="2">  1       -2 0.76696101E-02 0.91254362E+02</pdfrwt>
<totfact> 0.96220694E+04</totfact>
</mgrwt>
</event>
<event>
 5   1  0.1343823E+00  0.9076575E+02  0.7818608E-02  0.1301008E+00
          2   -1    0    0  501    0  0.00000000000E+00  0.00000000000E+00  0.61068632585E+02  0.61068632640E+02  0.26000000000E-02 0. -1.
         -2   -1    0    0    0  501 -0.00000000000E+00 -0.00000000000E+00 -0.33726074024E+02  0.33726074124E+02  0.26000000000E-02 0.  1.
         23    2    1    2    0    0  0.00000000000E+00  0.00000000000E+00  0.27342558561E+02  0.94794706764E+02  0.90765747515E+02 0.  0.
        -13    1    3    3    0    0 -0.56695979309E+01  0.38926254614E+02 -0.99650682929E+01  0.40579691935E+02  0.10570000000E+00 0.  1.
         13    1    3    3    0    0  0.56695979309E+01 -0.38926254614E+02  0.37307626854E+02  0.54215014829E+02  0.10570000000E+00 0. -1.
<mgrwt>
<rscale>  0 0.90765748E+02</rscale>
<asrwt>0</asrwt>
<pdfrwt beam="1">  1        2 0.93951742E-02 0.90765748E+02</pdfrwt>
<pdfrwt beam="2">  1       -2 0.51886268E-02 0.90765748E+02</pdfrwt>
<totfact> 0.10793856E+05</totfact>
</mgrwt>
</event>
<event>
 5   1  0.1343823E+00  0.9172542E+02  0.7818608E-02  0.1298726E+00
         -2   -1    0    0    0  501 -0.00000000000E+00  0.00000000000E+00  0.59730514727E+02  0.59730514784E+02  0.26000000000E-02 0.  1.
          2   -1    0    0  501    0  0.00000000000E+00 -0.00000000000E+00 -0.35214631346E+02  0.35214631442E+02  0.26000000000E-02 0. -1.
         23    2    1    2    0    0  0.00000000000E+00  0.00000000000E+00  0.24515883381E+02  0.94945146225E+02  0.91725417708E+02 0.  0.
        -13    1    3    3    0    0 -0.16339907071E+02 -0.41624831670E+02  0.22801647309E+02  0.50195074132E+02  0.10570000000E+00 0.  1.
         13    1    3    3    0    0  0.16339907071E+02  0.41624831670E+02  0.17142360727E+01  0.44750072094E+02  0.10570000000E+00 0. -1.
<mgrwt>
<rscale>  0 0.91725418E+02</rscale>
<asrwt>0</asrwt>
<pdfrwt beam="2">  1        2 0.54176357E-02 0.91725418E+02</pdfrwt>
<pdfrwt beam="1">  1       -2 0.91893099E-02 0.91725418E+02</pdfrwt>
<totfact> 0.90676260E+04</totfact>
</mgrwt>
</event>
<event>
 5   1  0.1343823E+00  0.9203426E+02  0.7818608E-02  0.1297999E+00
          2   -1    0    0  501    0  0.00000000000E+00  0.00000000000E+00  0.91118517827E+02  0.91118517864E+02  0.26000000000E-02 0. -1.
         -2   -1    0    0    0  501 -0.00000000000E+00 -0.00000000000E+00 -0.23239800226E+02  0.23239800371E+02  0.26000000000E-02 0.  1.
         23    2    1    2    0    0  0.00000000000E+00  0.00000000000E+00  0.67878717601E+02  0.11435831824E+03  0.92034258005E+02 0.  0.
        -13    1    3    3    0    0  0.32977263232E+01  0.19023418986E+02  0.85842185555E+02  0.87986689120E+02  0.10570000000E+00 0. -1.
         13    1    3    3    0    0 -0.32977263232E+01 -0.19023418986E+02 -0.17963467954E+02  0.26371629116E+02  0.10570000000E+00 0.  1.
<mgrwt>
<rscale>  0 0.92034258E+02</rscale>
<asrwt>0</asrwt>
<pdfrwt beam="1">  1        2 0.14018234E-01 0.92034258E+02</pdfrwt>
<pdfrwt beam="2">  1       -2 0.35753538E-02 0.92034258E+02</pdfrwt>
<totfact> 0.11624302E+05</totfact>
</mgrwt>
</event>
<event>
 5   1  0.1343823E+00  0.8855751E+02  0.7818608E-02  0.1306383E+00
         -2   -1    0    0    0  501 -0.00000000000E+00  0.00000000000E+00  0.13997865874E+03  0.13997865876E+03  0.26000000000E-02 0.  1.
          2   -1    0    0  501    0  0.00000000000E+00 -0.00000000000E+00 -0.14006479834E+02  0.14006480075E+02  0.26000000000E-02 0. -1.
         23    2    1    2    0    0  0.00000000000E+00  0.00000000000E+00  0.12597217890E+03  0.15398513883E+03  0.88557513091E+02 0.  0.
        -13    1    3    3    0    0 -0.19542086082E+02  0.34615498778E+02  0.96902845295E+02  0.10473919268E+03  0.10570000000E+00 0.  1.
         13    1    3    3    0    0  0.19542086082E+02 -0.34615498778E+02  0.29069333606E+02  0.49245946156E+02  0.10570000000E+00 0. -1.
<mgrwt>
<rscale>  0 0.88557513E+02</rscale>
<asrwt>0</asrwt>
<pdfrwt beam="2">  1        2 0.21548430E-02 0.88557513E+02</pdfrwt>
<pdfrwt beam="1">  1       -2 0.21535179E-01 0.88557513E+02</pdfrwt>
<totfact> 0.77067761E+04</totfact>
</mgrwt>
</event>
<event>
 5   1  0.1343823E+00  0.9195532E+02  0.7818608E-02  0.1298185E+00
         -2   -1    0    0    0  501 -0.00000000000E+00  0.00000000000E+00  0.12199205782E+02  0.12199206059E+02  0.26000000000E-02 0.  1.
          2   -1    0    0  501    0  0.00000000000E+00 -0.00000000000E+00 -0.17328546868E+03  0.17328546870E+03  0.26000000000E-02 0. -1.
         23    2    1    2    0    0  0.00000000000E+00  0.00000000000E+00 -0.16108626290E+03  0.18548467476E+03  0.91955317823E+02 0.  0.
        -13    1    3    3    0    0 -0.44001102256E+02  0.55674674405E+00 -0.10741905305E+03  0.11608303535E+03  0.10570000000E+00 0. -1.
         13    1    3    3    0    0  0.44001102256E+02 -0.55674674405E+00 -0.53667209853E+02  0.69401639408E+02  0.10570000000E+00 0.  1.
<mgrwt>
<rscale>  0 0.91955318E+02</rscale>
<asrwt>0</asrwt>
<pdfrwt beam="2">  1        2 0.26659301E-01 0.91955318E+02</pdfrwt>
<pdfrwt beam="1">  1       -2 0.18768010E-02 0.91955318E+02</pdfrwt>
<totfact> 0.14361816E+05</totfact>
</mgrwt>
</event>
<event>
 5   1  0.1343823E+00  0.9031361E+02  0.7818608E-02  0.1302094E+00
         -2   -1    0    0    0  501 -0.00000000000E+00  0.00000000000E+00  0.87920069412E+01  0.87920073257E+01  0.26000000000E-02 0.  1.
          2   -1    0    0  501    0  0.00000000000E+00 -0.00000000000E+00 -0.23193075261E+03  0.23193075262E+03  0.26000000000E-02 0. -1.
         23    2    1    2    0    0  0.00000000000E+00  0.00000000000E+00 -0.22313874567E+03  0.24072275995E+03  0.90313605505E+02 0.  0.
        -13    1    3    3    0    0 -0.19516500242E+02 -0.32262854595E+02 -0.17779502067E+03  0.18174945974E+03  0.10570000000E+00 0. -1.
         13    1    3    3    0    0  0.19516500242E+02  0.32262854595E+02 -0.45343724995E+02  0.58973300207E+02  0.10570000000E+00 0.  1.
<mgrwt>
<rscale>  0 0.90313606E+02</rscale>
<asrwt>0</asrwt>
<pdfrwt beam="2">  1        2 0.35681650E-01 0.90313606E+02</pdfrwt>
<pdfrwt beam="1">  1       -2 0.13526167E-02 0.90313606E+02</pdfrwt>
<totfact> 0.16749156E+05</totfact>
</mgrwt>
</event>
<event>
 5   1  0.1343823E+00  0.9033352E+02  0.7818608E-02  0.1302046E+00
         -2   -1    0    0    0  501 -0.00000000000E+00  0.00000000000E+00  0.81985912796E+02  0.81985912837E+02  0.26000000000E-02 0.  1.
          2   -1    0    0  501    0  0.00000000000E+00 -0.00000000000E+00 -0.24882766178E+02  0.24882766314E+02  0.26000000000E-02 0. -1.
         23    2    1    2    0    0  0.00000000000E+00  0.00000000000E+00  0.57103146618E+02  0.10686867915E+03  0.90333522182E+02 0.  0.
        -13    1    3    3    0    0 -0.27382489183E+01 -0.32322910187E+02 -0.86298892329E+01  0.33567166856E+02  0.10570000000E+00 0. -1.
         13    1    3    3    0    0  0.27382489183E+01  0.32322910187E+02  0.65733035851E+02  0.73301512295E+02  0.10570000000E+00 0.  1.
<mgrwt>
<rscale>  0 0.90333522E+02</rscale>
<asrwt>0</asrwt>
<pdfrwt beam="2">  1        2 0.38281179E-02 0.90333522E+02</pdfrwt>
<pdfrwt beam="1">  1       -2 0.12613217E-01 0.90333522E+02</pdfrwt>
<totfact> 0.86455750E+04</totfact>
</mgrwt>
</event>
<event>
 5   1  0.1343823E+00  0.9142931E+02  0.7818608E-02  0.1299427E+00
          2   -1    0    0  501    0  0.00000000000E+00  0.00000000000E+00  0.12903504828E+03  0.12903504830E+03  0.26000000000E-02 0. -1.
         -2   -1    0    0    0  501 -0.00000000000E+00 -0.00000000000E+00 -0.16195829397E+02  0.16195829606E+02  0.26000000000E-02 0.  1.
         23    2    1    2    0    0  0.00000000000E+00  0.00000000000E+00  0.11283921888E+03  0.14523087791E+03  0.91429309199E+02 0.  0.
        -13    1    3    3    0    0  0.36615032722E+02  0.16688224893E+02  0.21958628829E+02  0.45840484551E+02  0.10570000000E+00 0.  1.
         13    1    3    3    0    0 -0.36615032722E+02 -0.16688224893E+02  0.90880590052E+02  0.99390393358E+02  0.10570000000E+00 0. -1.
<mgrwt>
<rscale>  0 0.91429309E+02</rscale>
<asrwt>0</asrwt>
<pdfrwt beam="1">  1        2 0.19851546E-01 0.91429309E+02</pdfrwt>
<pdfrwt beam="2">  1       -2 0.24916661E-02 0.91429309E+02</pdfrwt>
<totfact> 0.13195558E+05</totfact>
</mgrwt>
</event>
<event>
 5   1  0.1343823E+00  0.9241810E+02  0.7818608E-02  0.1297099E+00
          2   -1    0    0  501    0  0.00000000000E+00  0.00000000000E+00  0.73131370915E+02  0.73131370961E+02  0.26000000000E-02 0. -1.
         -2   -1    0    0    0  501 -0.00000000000E+00 -0.00000000000E+00 -0.29197814634E+02  0.29197814750E+02  0.26000000000E-02 0.  1.
         23    2    1    2    0    0  0.00000000000E+00  0.00000000000E+00  0.43933556281E+02  0.10232918571E+03  0.92418098232E+02 0.  0.
        -13    1    3    3    0    0  0.18928177617E+02 -0.19280183410E+02 -0.19540227090E+02  0.33344160320E+02  0.10570000000E+00 0.  1.
         13    1    3    3    0    0 -0.18928177617E+02  0.19280183410E+02  0.63473783371E+02  0.68985025391E+02  0.10570000000E+00 0. -1.
<mgrwt>
<rscale>  0 0.92418098E+02</rscale>
<asrwt>0</asrwt>
<pdfrwt beam="1">  1        2 0.11250980E-01 0.92418098E+02</pdfrwt>
<pdfrwt beam="2">  1       -2 0.44919715E-02 0.92418098E+02</pdfrwt>
<totfact> 0.10781931E+05</totfact>
</mgrwt>
</event>
<event>
 5   1  0.1343823E+00  0.8552666E+02  0.7818608E-02  0.1314061E+00
         -2   -1    0    0    0  501 -0.00000000000E+00  0.00000000000E+00  0.49139880699E+02  0.49139880768E+02  0.26000000000E-02 0. -1.
          2   -1    0    0  501    0  0.00000000000E+00 -0.00000000000E+00 -0.37214217036E+02  0.37214217127E+02  0.26000000000E-02 0.  1.
         23    2    1    2    0    0  0.00000000000E+00  0.00000000000E+00  0.11925663664E+02  0.86354097895E+02  0.85526655315E+02 0.  0.
        -13    1    3    3    0    0 -0.41264961432E+02  0.13859208371E+01 -0.52792145110E+01  0.41624501160E+02  0.10570000000E+00 0.  1.
         13    1    3    3    0    0  0.41264961432E+02 -0.13859208371E+01  0.17204878175E+02  0.44729596734E+02  0.10570000000E+00 0. -1.
<mgrwt>
<rscale>  0 0.85526655E+02</rscale>
<asrwt>0</asrwt>
<pdfrwt beam="2">  1        2 0.57252642E-02 0.85526655E+02</pdfrwt>
<pdfrwt beam="1">  1       -2 0.75599816E-02 0.85526655E+02</pdfrwt>
<totfact> 0.11263304E+05</totfact>
</mgrwt>
</event>
<event>
 5   1  0.1343823E+00  0.8844110E+02  0.7818608E-02  0.1306671E+00
         -2   -1    0    0    0  501 -0.00000000000E+00  0.00000000000E+00  0.33276898967E+02  0.33276899069E+02  0.26000000000E-02 0. -1.
          2   -1    0    0  501    0  0.00000000000E+00 -0.00000000000E+00 -0.58763197579E+02  0.58763197636E+02  0.26000000000E-02 0.  1.
         23    2    1    2    0    0  0.00000000000E+00  0.00000000000E+00 -0.25486298611E+02  0.92040096705E+02  0.88441098956E+02 0.  0.
        -13    1    3    3    0    0 -0.15902786773E+02  0.27222498902E+02 -0.45012756904E+02  0.54955641477E+02  0.10570000000E+00 0.  1.
         13    1    3    3    0    0  0.15902786773E+02 -0.27222498902E+02  0.19526458292E+02  0.37084455228E+02  0.10570000000E+00 0. -1.
<mgrwt>
<rscale>  0 0.88441099E+02</rscale>
<asrwt>0</asrwt>
<pdfrwt beam="2">  1        2 0.90404919E-02 0.88441099E+02</pdfrwt>
<pdfrwt beam="1">  1       -2 0.51195229E-02 0.88441099E+02</pdfrwt>
<totfact> 0.11492013E+05</totfact>
</mgrwt>
</event>
<event>
 5   1  0.1343823E+00  0.8217778E+02  0.7818608E-02  0.1322982E+00
          2   -1    0    0  501    0  0.00000000000E+00  0.00000000000E+00  0.40603817055E+03  0.40603817055E+03  0.26000000000E-02 0. -1.
         -2   -1    0    0    0  501 -0.00000000000E+00 -0.00000000000E+00 -0.41579752366E+01  0.41579760495E+01  0.26000000000E-02 0.  1.
         23    2    1    2    0    0  0.00000000000E+00  0.00000000000E+00  0.40188019531E+03  0.41019614660E+03  0.82177778667E+02 0.  0.
        -13    1    3    3    0    0 -0.26210993909E+02  0.30729278883E+02  0.16326089330E+03  0.16818274357E+03  0.10570000000E+00 0. -1.
         13    1    3    3    0    0  0.26210993909E+02 -0.30729278883E+02  0.23861930201E+03  0.24201340303E+03  0.10570000000E+00 0.  1.
<mgrwt>
<rscale>  0 0.82177779E+02</rscale>
<asrwt>0</asrwt>
<pdfrwt beam="1">  1        2 0.62467416E-01 0.82177779E+02</pdfrwt>
<pdfrwt beam="2">  1       -2 0.63968851E-03 0.82177779E+02</pdfrwt>
<totfact> 0.26401402E+05</totfact>
</mgrwt>
</event>
<event>
 5   1  0.1343823E+00  0.9043108E+02  0.7818608E-02  0.1301811E+00
          2   -1    0    0  501    0  0.00000000000E+00  0.00000000000E+00  0.21095726600E+02  0.21095726760E+02  0.26000000000E-02 0. -1.
         -2   -1    0    0    0  501 -0.00000000000E+00 -0.00000000000E+00 -0.96912754740E+02  0.96912754775E+02  0.26000000000E-02 0.  1.
         23    2    1    2    0    0  0.00000000000E+00  0.00000000000E+00 -0.75817028140E+02  0.11800848154E+03  0.90431078497E+02 0.  0.
        -13    1    3    3    0    0  0.48190748746E+01 -0.32037036114E+02 -0.79068179591E+02  0.85448132583E+02  0.10570000000E+00 0.  1.
         13    1    3    3    0    0 -0.48190748746E+01  0.32037036114E+02  0.32511514513E+01  0.32560348952E+02  0.10570000000E+00 0. -1.
<mgrwt>
<rscale>  0 0.90431078E+02</rscale>
<asrwt>0</asrwt>
<pdfrwt beam="1">  1        2 0.32454965E-02 0.90431078E+02</pdfrwt>
<pdfrwt beam="2">  1       -2 0.14909654E-01 0.90431078E+02</pdfrwt>
<totfact> 0.82211338E+04</totfact>
</mgrwt>
</event>
<event>
 5   1  0.1343823E+00  0.9180007E+02  0.7818608E-02  0.1298550E+00
          2   -1    0    0  501    0  0.00000000000E+00  0.00000000000E+00  0.57876958232E+02  0.57876958291E+02  0.26000000000E-02 0. -1.
         -2   -1    0    0    0  501 -0.00000000000E+00 -0.00000000000E+00 -0.36401586145E+02  0.36401586238E+02  0.26000000000E-02 0.  1.
         23    2    1    2    0    0  0.00000000000E+00  0.00000000000E+00  0.21475372087E+02  0.94278544529E+02  0.91800067278E+02 0.  0.
        -13    1    3    3    0    0  0.26971784362E+02 -0.30255736591E+02 -0.11382519367E+02  0.42100589877E+02  0.10570000000E+00 0.  1.
         13    1    3    3    0    0 -0.26971784362E+02  0.30255736591E+02  0.32857891454E+02  0.52177954652E+02  0.10570000000E+00 0. -1.
<mgrwt>
<rscale>  0 0.91800067E+02</rscale>
<asrwt>0</asrwt>
<pdfrwt beam="1">  1        2 0.89041474E-02 0.91800067E+02</pdfrwt>
<pdfrwt beam="2">  1       -2 0.56002441E-02 0.91800067E+02</pdfrwt>
<totfact> 0.10304577E+05</totfact>
</mgrwt>
</event>
<event>
 4   1  0.1343823E+00  0.1935770E+03  0.7818608E-02  0.1155274E+00
         -2   -1    0    0    0  501 -0.00000000000E+00  0.00000000000E+00  0.21058201234E+03  0.21058201236E+03  0.26000000000E-02 0.  1.
          2   -1    0    0  501    0  0.00000000000E+00 -0.00000000000E+00 -0.44486301558E+02  0.44486301634E+02  0.26000000000E-02 0. -1.
        -13    1    1    2    0    0  0.73061248244E+01  0.96315733196E+02  0.91160159640E+02  0.13281673765E+03  0.10570000000E+00 0.  1.
         13    1    1    2    0    0 -0.73061248244E+01 -0.96315733196E+02  0.74935551145E+02  0.12225157635E+03  0.10570000000E+00 0. -1.
<mgrwt>
<rscale>  0 0.19357701E+03</rscale>
<asrwt>0</asrwt>
<pdfrwt beam="2">  1        2 0.68440465E-02 0.19357701E+03</pdfrwt>
<pdfrwt beam="1">  1       -2 0.32397232E-01 0.19357701E+03</pdfrwt>
<totfact> 0.89309738E+03</totfact>
</mgrwt>
</event>
<event>
 5   1  0.1343823E+00  0.7902197E+02  0.7818608E-02  0.1331850E+00
         -2   -1    0    0    0  501 -0.00000000000E+00  0.00000000000E+00  0.33594675540E+02  0.33594675641E+02  0.26000000000E-02 0.  1.
          2   -1    0    0  501    0  0.00000000000E+00 -0.00000000000E+00 -0.46469201237E+02  0.46469201309E+02  0.26000000000E-02 0. -1.
         23    2    1    2    0    0  0.00000000000E+00  0.00000000000E+00 -0.12874525696E+02  0.80063876950E+02  0.79021965177E+02 0.  0.
        -13    1    3    3    0    0 -0.29416687020E+02  0.56421813053E+01  0.19669331864E+02  0.35833915131E+02  0.10570000000E+00 0.  1.
         13    1    3    3    0    0  0.29416687020E+02 -0.56421813053E+01 -0.32543857560E+02  0.44229961819E+02  0.10570000000E+00 0. -1.
<mgrwt>
<rscale>  0 0.79021965E+02</rscale>
<asrwt>0</asrwt>
<pdfrwt beam="2">  1        2 0.71491079E-02 0.79021965E+02</pdfrwt>
<pdfrwt beam="1">  1       -2 0.51684116E-02 0.79021965E+02</pdfrwt>
<totfact> 0.14854613E+05</totfact>
</mgrwt>
</event>
<event>
 5   1  0.1343823E+00  0.8347528E+02  0.7818608E-02  0.1319469E+00
         -2   -1    0    0    0  501 -0.00000000000E+00  0.00000000000E+00  0.93632021967E+01  0.93632025577E+01  0.26000000000E-02 0.  1.
          2   -1    0    0  501    0  0.00000000000E+00 -0.00000000000E+00 -0.18605073566E+03  0.18605073567E+03  0.26000000000E-02 0. -1.
         23    2    1    2    0    0  0.00000000000E+00  0.00000000000E+00 -0.17668753346E+03  0.19541393823E+03  0.83475282422E+02 0.  0.
        -13    1    3    3    0    0  0.21546482192E+02 -0.32414209018E+02 -0.53066540748E+02  0.65810339314E+02  0.10570000000E+00 0. -1.
         13    1    3    3    0    0 -0.21546482192E+02  0.32414209018E+02 -0.12362099271E+03  0.12960359892E+03  0.10570000000E+00 0.  1.
<mgrwt>
<rscale>  0 0.83475282E+02</rscale>
<asrwt>0</asrwt>
<pdfrwt beam="2">  1        2 0.28623187E-01 0.83475282E+02</pdfrwt>
<pdfrwt beam="1">  1       -2 0.14404928E-02 0.83475282E+02</pdfrwt>
<totfact> 0.19094870E+05</totfact>
</mgrwt>
</event>
<event>
 5   1  0.1343823E+00  0.9134819E+02  0.7818608E-02  0.1299619E+00
         -2   -1    0    0    0  501 -0.00000000000E+00  0.00000000000E+00  0.15978689524E+02  0.15978689736E+02  0.26000000000E-02 0.  1.
          2   -1    0    0  501    0  0.00000000000E+00 -0.00000000000E+00 -0.13055656878E+03  0.13055656880E+03  0.26000000000E-02 0. -1.
         23    2    1    2    0    0  0.00000000000E+00  0.00000000000E+00 -0.11457787925E+03  0.14653525854E+03  0.91348188712E+02 0.  0.
        -13    1    3    3    0    0  0.30318001712E+02  0.32669774761E+02 -0.41278346387E+02  0.60748732198E+02  0.10570000000E+00 0.  1.
         13    1    3    3    0    0 -0.30318001712E+02 -0.32669774761E+02 -0.73299532867E+02  0.85786526341E+02  0.10570000000E+00 0. -1.
<mgrwt>
<rscale>  0 0.91348189E+02</rscale>
<asrwt>0</asrwt>
<pdfrwt beam="2">  1        2 0.20085625E-01 0.91348189E+02</pdfrwt>
<pdfrwt beam="1">  1       -2 0.24582600E-02 0.91348189E+02</pdfrwt>
<totfact> 0.13278557E+05</totfact>
</mgrwt>
</event>
<event>
 5   1  0.1343823E+00  0.9082094E+02  0.7818608E-02  0.1300876E+00
          2   -1    0    0  501    0  0.00000000000E+00  0.00000000000E+00  0.19820482682E+02  0.19820482853E+02  0.26000000000E-02 0. -1.
         -2   -1    0    0    0  501 -0.00000000000E+00 -0.00000000000E+00 -0.10403938091E+03  0.10403938094E+03  0.26000000000E-02 0.  1.
         23    2    1    2    0    0  0.00000000000E+00  0.00000000000E+00 -0.84218898224E+02  0.12385986379E+03  0.90820939438E+02 0.  0.
        -13    1    3    3    0    0  0.39924558640E+02  0.10320367996E+02 -0.68043499746E+02  0.79563869994E+02  0.10570000000E+00 0.  1.
         13    1    3    3    0    0 -0.39924558640E+02 -0.10320367996E+02 -0.16175398478E+02  0.44295993798E+02  0.10570000000E+00 0. -1.
<mgrwt>
<rscale>  0 0.90820939E+02</rscale>
<asrwt>0</asrwt>
<pdfrwt beam="1">  1        2 0.30493051E-02 0.90820939E+02</pdfrwt>
<pdfrwt beam="2">  1       -2 0.16006058E-01 0.90820939E+02</pdfrwt>
<totfact> 0.79634064E+04</totfact>
</mgrwt>
</event>
<event>
 5   1  0.1343823E+00  0.8720952E+02  0.7818608E-02  0.1309753E+00
          2   -1    0    0  501    0  0.00000000000E+00  0.00000000000E+00  0.16438428668E+02  0.16438428874E+02  0.26000000000E-02 0. -1.
         -2   -1    0    0    0  501 -0.00000000000E+00 -0.00000000000E+00 -0.11566648333E+03  0.11566648336E+03  0.26000000000E-02 0.  1.
         23    2    1    2    0    0  0.00000000000E+00  0.00000000000E+00 -0.99228054663E+02  0.13210491223E+03  0.87209523587E+02 0.  0.
        -13    1    3    3    0    0  0.22475994713E+02 -0.13398086131E+02 -0.10245175533E+03  0.10574049552E+03  0.10570000000E+00 0.  1.
         13    1    3    3    0    0 -0.22475994713E+02  0.13398086131E+02  0.32237006639E+01  0.26364416716E+02  0.10570000000E+00 0. -1.
<mgrwt>
<rscale>  0 0.87209524E+02</rscale>
<asrwt>0</asrwt>
<pdfrwt beam="1">  1        2 0.25289891E-02 0.87209524E+02</pdfrwt>
<pdfrwt beam="2">  1       -2 0.17794843E-01 0.87209524E+02</pdfrwt>
<totfact> 0.85302151E+04</totfact>
</mgrwt>
</event>
<event>
 5   1  0.1343823E+00  0.9379280E+02  0.7818608E-02  0.1293918E+00
         -2   -1    0    0    0  501 -0.00000000000E+00  0.00000000000E+00  0.18324550885E+03  0.18324550887E+03  0.26000000000E-02 0.  1.
          2   -1    0    0  501    0  0.00000000000E+00 -0.00000000000E+00 -0.12001780377E+02  0.12001780659E+02  0.26000000000E-02 0. -1.
         23    2    1    2    0    0  0.00000000000E+00  0.00000000000E+00  0.17124372847E+03  0.19524728952E+03  0.93792801037E+02 0.  0.
        -13    1    3    3    0    0  0.37037424140E+02 -0.10506497896E+01  0.14546400615E+03  0.15010883688E+03  0.10570000000E+00 0.  1.
         13    1    3    3    0    0 -0.37037424140E+02  0.10506497896E+01  0.25779722325E+02  0.45138452648E+02  0.10570000000E+00 0. -1.
<mgrwt>
<rscale>  0 0.93792801E+02</rscale>
<asrwt>0</asrwt>
<pdfrwt beam="2">  1        2 0.18464279E-02 0.93792801E+02</pdfrwt>
<pdfrwt beam="1">  1       -2 0.28191615E-01 0.93792801E+02</pdfrwt>
<totfact> 0.60159791E+04</totfact>
</mgrwt>
</event>
<event>
 5   1  0.1343823E+00  0.9049674E+02  0.7818608E-02  0.1301653E+00
         -2   -1    0    0    0  501 -0.00000000000E+00  0.00000000000E+00  0.74266603346E+01  0.74266607897E+01  0.26000000000E-02 0.  1.
          2   -1    0    0  501    0  0.00000000000E+00 -0.00000000000E+00 -0.27568446876E+03  0.27568446877E+03  0.26000000000E-02 0. -1.
         23    2    1    2    0    0  0.00000000000E+00  0.00000000000E+00 -0.26825780843E+03  0.28311112956E+03  0.90496739724E+02 0.  0.
        -13    1    3    3    0    0  0.37508723088E+02  0.53924093664E+01 -0.56772845839E+02  0.68257963518E+02  0.10570000000E+00 0.  1.
         13    1    3    3    0    0 -0.37508723088E+02 -0.53924093664E+01 -0.21148496259E+03  0.21485316605E+03  0.10570000000E+00 0. -1.
<mgrwt>
<rscale>  0 0.90496740E+02</rscale>
<asrwt>0</asrwt>
<pdfrwt beam="2">  1        2 0.42412987E-01 0.90496740E+02</pdfrwt>
<pdfrwt beam="1">  1       -2 0.11425634E-02 0.90496740E+02</pdfrwt>
<totfact> 0.17760050E+05</totfact>
</mgrwt>
</event>
<event>
 5   1  0.1343823E+00  0.9063504E+02  0.7818608E-02  0.1301321E+00
          2   -1    0    0  501    0  0.00000000000E+00  0.00000000000E+00  0.99617931087E+02  0.99617931121E+02  0.26000000000E-02 0. -1.
         -2   -1    0    0    0  501 -0.00000000000E+00 -0.00000000000E+00 -0.20615541827E+02  0.20615541990E+02  0.26000000000E-02 0.  1.
         23    2    1    2    0    0  0.00000000000E+00  0.00000000000E+00  0.79002389260E+02  0.12023347311E+03  0.90635040396E+02 0.  0.
        -13    1    3    3    0    0  0.63639987096E+01 -0.42648123801E+02  0.21009803061E+02  0.47966508529E+02  0.10570000000E+00 0.  1.
         13    1    3    3    0    0 -0.63639987096E+01  0.42648123801E+02  0.57992586200E+02  0.72266964582E+02  0.10570000000E+00 0. -1.
<mgrwt>
<rscale>  0 0.90635040E+02</rscale>
<asrwt>0</asrwt>
<pdfrwt beam="1">  1        2 0.15325836E-01 0.90635040E+02</pdfrwt>
<pdfrwt beam="2">  1       -2 0.31716218E-02 0.90635040E+02</pdfrwt>
<totfact> 0.12455894E+05</totfact>
</mgrwt>
</event>
<event>
 5   1  0.1343823E+00  0.9092524E+02  0.7818608E-02  0.1300626E+00
          2   -1    0    0  501    0  0.00000000000E+00  0.00000000000E+00  0.80950424221E+02  0.80950424263E+02  0.26000000000E-02 0. -1.
         -2   -1    0    0    0  501 -0.00000000000E+00 -0.00000000000E+00 -0.25532293643E+02  0.25532293775E+02  0.26000000000E-02 0.  1.
         23    2    1    2    0    0  0.00000000000E+00  0.00000000000E+00  0.55418130579E+02  0.10648271804E+03  0.90925244261E+02 0.  0.
        -13    1    3    3    0    0  0.24067879919E+02 -0.37258557080E+02  0.39383483068E+02  0.59317222040E+02  0.10570000000E+00 0. -1.
         13    1    3    3    0    0 -0.24067879919E+02  0.37258557080E+02  0.16034647510E+02  0.47165495998E+02  0.10570000000E+00 0.  1.
<mgrwt>
<rscale>  0 0.90925244E+02</rscale>
<asrwt>0</asrwt>
<pdfrwt beam="1">  1        2 0.12453911E-01 0.90925244E+02</pdfrwt>
<pdfrwt beam="2">  1       -2 0.39280452E-02 0.90925244E+02</pdfrwt>
<totfact> 0.11613288E+05</totfact>
</mgrwt>
</event>
<event>
 5   1  0.1343823E+00  0.9317915E+02  0.7818608E-02  0.1295331E+00
          2   -1    0    0  501    0  0.00000000000E+00  0.00000000000E+00  0.28462384981E+03  0.28462384982E+03  0.26000000000E-02 0.  1.
         -2   -1    0    0    0  501 -0.00000000000E+00 -0.00000000000E+00 -0.76261650618E+01  0.76261655050E+01  0.26000000000E-02 0. -1.
         23    2    1    2    0    0  0.00000000000E+00  0.00000000000E+00  0.27699768474E+03  0.29225001532E+03  0.93179150579E+02 0.  0.
        -13    1    3    3    0    0  0.32930533035E+02 -0.18319217072E+02  0.52571861166E+02  0.64682497470E+02  0.10570000000E+00 0. -1.
         13    1    3    3    0    0 -0.32930533035E+02  0.18319217072E+02  0.22442582358E+03  0.22756751785E+03  0.10570000000E+00 0.  1.
<mgrwt>
<rscale>  0 0.93179151E+02</rscale>
<asrwt>0</asrwt>
<pdfrwt beam="1">  1        2 0.43788275E-01 0.93179151E+02</pdfrwt>
<pdfrwt beam="2">  1       -2 0.11732565E-02 0.93179151E+02</pdfrwt>
<totfact> 0.16622210E+05</totfact>
</mgrwt>
</event>
<event>
 5   1  0.1343823E+00  0.8873059E+02  0.7818608E-02  0.1305955E+00
         -2   -1    0    0    0  501 -0.00000000000E+00  0.00000000000E+00  0.35706272673E+02  0.35706272767E+02  0.26000000000E-02 0.  1.
          2   -1    0    0  501    0  0.00000000000E+00 -0.00000000000E+00 -0.55124187351E+02  0.55124187412E+02  0.26000000000E-02 0. -1.
         23    2    1    2    0    0  0.00000000000E+00  0.00000000000E+00 -0.19417914678E+02  0.90830460180E+02  0.88730587094E+02 0.  0.
        -13    1    3    3    0    0 -0.80740876521E+01  0.31273185190E+02 -0.40843630189E+02  0.52071261775E+02  0.10570000000E+00 0. -1.
         13    1    3    3    0    0  0.80740876521E+01 -0.31273185190E+02  0.21425715511E+02  0.38759198405E+02  0.10570000000E+00 0.  1.
<mgrwt>
<rscale>  0 0.88730587E+02</rscale>
<asrwt>0</asrwt>
<pdfrwt beam="2">  1        2 0.84806442E-02 0.88730587E+02</pdfrwt>
<pdfrwt beam="1">  1       -2 0.54932727E-02 0.88730587E+02</pdfrwt>
<totfact> 0.11198384E+05</totfact>
</mgrwt>
</event>
<event>
 5   1  0.1343823E+00  0.9622830E+02  0.7818608E-02  0.1288433E+00
          2   -1    0    0  501    0  0.00000000000E+00  0.00000000000E+00  0.13992692982E+03  0.13992692984E+03  0.26000000000E-02 0. -1.
         -2   -1    0    0    0  501 -0.00000000000E+00 -0.00000000000E+00 -0.16544143370E+02  0.16544143575E+02  0.26000000000E-02 0.  1.
         23    2    1    2    0    0  0.00000000000E+00  0.00000000000E+00  0.12338278645E+03  0.15647107342E+03  0.96228295343E+02 0.  0.
        -13    1    3    3    0    0  0.44945802036E+02 -0.10803451178E+02  0.39989978518E+02  0.61123229891E+02  0.10570000000E+00 0.  1.
         13    1    3    3    0    0 -0.44945802036E+02  0.10803451178E+02  0.83392807931E+02  0.95347843526E+02  0.10570000000E+00 0. -1.
<mgrwt>
<rscale>  0 0.96228295E+02</rscale>
<asrwt>0</asrwt>
<pdfrwt beam="1">  1        2 0.21527219E-01 0.96228295E+02</pdfrwt>
<pdfrwt beam="2">  1       -2 0.25452529E-02 0.96228295E+02</pdfrwt>
<totfact> 0.11786378E+05</totfact>
</mgrwt>
</event>
<event>
 5   1  0.1343823E+00  0.9034580E+02  0.7818608E-02  0.1302016E+00
         -2   -1    0    0    0  501 -0.00000000000E+00  0.00000000000E+00  0.22571496858E+03  0.22571496859E+03  0.26000000000E-02 0.  1.
          2   -1    0    0  501    0  0.00000000000E+00 -0.00000000000E+00 -0.90405652357E+01  0.90405656096E+01  0.26000000000E-02 0. -1.
         23    2    1    2    0    0  0.00000000000E+00  0.00000000000E+00  0.21667440334E+03  0.23475553420E+03  0.90345801092E+02 0.  0.
        -13    1    3    3    0    0  0.76937331272E+01  0.40051898423E+02  0.57869684219E+02  0.70797313655E+02  0.10570000000E+00 0. -1.
         13    1    3    3    0    0 -0.76937331272E+01 -0.40051898423E+02  0.15880471912E+03  0.16395822055E+03  0.10570000000E+00 0.  1.
<mgrwt>
<rscale>  0 0.90345801E+02</rscale>
<asrwt>0</asrwt>
<pdfrwt beam="2">  1        2 0.13908564E-02 0.90345801E+02</pdfrwt>
<pdfrwt beam="1">  1       -2 0.34725375E-01 0.90345801E+02</pdfrwt>
<totfact> 0.60418506E+04</totfact>
</mgrwt>
</event>
<event>
 5   1  0.1343823E+00  0.9463115E+02  0.7818608E-02  0.1292009E+00
         -2   -1    0    0    0  501 -0.00000000000E+00  0.00000000000E+00  0.25233239057E+03  0.25233239059E+03  0.26000000000E-02 0. -1.
          2   -1    0    0  501    0  0.00000000000E+00 -0.00000000000E+00 -0.88722797723E+01  0.88722801532E+01  0.26000000000E-02 0.  1.
         23    2    1    2    0    0  0.00000000000E+00  0.00000000000E+00  0.24346011080E+03  0.26120467074E+03  0.94631149550E+02 0.  0.
        -13    1    3    3    0    0 -0.75357938103E+01  0.41524525686E+02  0.18078100034E+03  0.18564174013E+03  0.10570000000E+00 0. -1.
         13    1    3    3    0    0  0.75357938103E+01 -0.41524525686E+02  0.62679110463E+02  0.75562930613E+02  0.10570000000E+00 0.  1.
<mgrwt>
<rscale>  0 0.94631150E+02</rscale>
<asrwt>0</asrwt>
<pdfrwt beam="2">  1        2 0.13649662E-02 0.94631150E+02</pdfrwt>
<pdfrwt beam="1">  1       -2 0.38820366E-01 0.94631150E+02</pdfrwt>
<totfact> 0.50818820E+04</totfact>
</mgrwt>
</event>
<event>
 5   1  0.1343823E+00  0.9213626E+02  0.7818608E-02  0.1297759E+00
         -2   -1    0    0    0  501 -0.00000000000E+00  0.00000000000E+00  0.67795867030E+01  0.67795872015E+01  0.26000000000E-02 0.  1.
          2   -1    0    0  501    0  0.00000000000E+00 -0.00000000000E+00 -0.31303861998E+03  0.31303861999E+03  0.26000000000E-02 0. -1.
         23    2    1    2    0    0  0.00000000000E+00  0.00000000000E+00 -0.30625903328E+03  0.31981820719E+03  0.92136258812E+02 0.  0.
        -13    1    3    3    0    0  0.15770090143E+02 -0.40481075767E+02 -0.20632394785E+03  0.21084827689E+03  0.10570000000E+00 0. -1.
         13    1    3    3    0    0 -0.15770090143E+02  0.40481075767E+02 -0.99935085429E+02  0.10896993030E+03  0.10570000000E+00 0.  1.
<mgrwt>
<rscale>  0 0.92136259E+02</rscale>
<asrwt>0</asrwt>
<pdfrwt beam="2">  1        2 0.48159777E-01 0.92136259E+02</pdfrwt>
<pdfrwt beam="1">  1       -2 0.10430136E-02 0.92136259E+02</pdfrwt>
<totfact> 0.17749567E+05</totfact>
</mgrwt>
</event>
<event>
 5   1  0.1343823E+00  0.9522623E+02  0.7818608E-02  0.1290667E+00
         -2   -1    0    0    0  501 -0.00000000000E+00  0.00000000000E+00  0.12267447943E+02  0.12267448219E+02  0.26000000000E-02 0.  1.
          2   -1    0    0  501    0  0.00000000000E+00 -0.00000000000E+00 -0.18479870279E+03  0.18479870281E+03  0.26000000000E-02 0. -1.
         23    2    1    2    0    0  0.00000000000E+00  0.00000000000E+00 -0.17253125485E+03  0.19706615103E+03  0.95226225284E+02 0.  0.
        -13    1    3    3    0    0  0.40466530107E+02  0.43046887552E+01 -0.35115102424E+02  0.53750832504E+02  0.10570000000E+00 0.  1.
         13    1    3    3    0    0 -0.40466530107E+02 -0.43046887552E+01 -0.13741615243E+03  0.14331531853E+03  0.10570000000E+00 0. -1.
<mgrwt>
<rscale>  0 0.95226225E+02</rscale>
<asrwt>0</asrwt>
<pdfrwt beam="2">  1        2 0.28430568E-01 0.95226225E+02</pdfrwt>
<pdfrwt beam="1">  1       -2 0.18872998E-02 0.95226225E+02</pdfrwt>
<totfact> 0.13366338E+05</totfact>
</mgrwt>
</event>
<event>
 5   1  0.1343823E+00  0.9224961E+02  0.7818608E-02  0.1297494E+00
         -2   -1    0    0    0  501 -0.00000000000E+00  0.00000000000E+00  0.13190211961E+02  0.13190212218E+02  0.26000000000E-02 0.  1.
          2   -1    0    0  501    0  0.00000000000E+00 -0.00000000000E+00 -0.16129367625E+03  0.16129367627E+03  0.26000000000E-02 0. -1.
         23    2    1    2    0    0  0.00000000000E+00  0.00000000000E+00 -0.14810346429E+03  0.17448388849E+03  0.92249613592E+02 0.  0.
        -13    1    3    3    0    0 -0.29434723065E+02 -0.21849455088E+02 -0.21102270579E+02  0.42297974014E+02  0.10570000000E+00 0.  1.
         13    1    3    3    0    0  0.29434723065E+02  0.21849455088E+02 -0.12700119371E+03  0.13218591448E+03  0.10570000000E+00 0. -1.
<mgrwt>
<rscale>  0 0.92249614E+02</rscale>
<asrwt>0</asrwt>
<pdfrwt beam="2">  1        2 0.24814410E-01 0.92249614E+02</pdfrwt>
<pdfrwt beam="1">  1       -2 0.20292635E-02 0.92249614E+02</pdfrwt>
<totfact> 0.13885826E+05</totfact>
</mgrwt>
</event>
<event>
 5   1  0.1343823E+00  0.8911831E+02  0.7818608E-02  0.1305001E+00
          2   -1    0    0  501    0  0.00000000000E+00  0.00000000000E+00  0.16540995057E+02  0.16540995261E+02  0.26000000000E-02 0. -1.
         -2   -1    0    0    0  501 -0.00000000000E+00 -0.00000000000E+00 -0.12003620287E+03  0.12003620290E+03  0.26000000000E-02 0.  1.
         23    2    1    2    0    0  0.00000000000E+00  0.00000000000E+00 -0.10349520782E+03  0.13657719816E+03  0.89118309100E+02 0.  0.
        -13    1    3    3    0    0 -0.38074294885E+02  0.21980988910E+02 -0.40623100728E+02  0.59858694353E+02  0.10570000000E+00 0.  1.
         13    1    3    3    0    0  0.38074294885E+02 -0.21980988910E+02 -0.62872107088E+02  0.76718503809E+02  0.10570000000E+00 0. -1.
<mgrwt>
<rscale>  0 0.89118309E+02</rscale>
<asrwt>0</asrwt>
<pdfrwt beam="1">  1        2 0.25447686E-02 0.89118309E+02</pdfrwt>
<pdfrwt beam="2">  1       -2 0.18467108E-01 0.89118309E+02</pdfrwt>
<totfact> 0.79853524E+04</totfact>
</mgrwt>
</event>
<event>
 5   1  0.1343823E+00  0.9365571E+02  0.7818608E-02  0.1294233E+00
          2   -1    0    0  501    0  0.00000000000E+00  0.00000000000E+00  0.13743869774E+03  0.13743869776E+03  0.26000000000E-02 0. -1.
         -2   -1    0    0    0  501 -0.00000000000E+00 -0.00000000000E+00 -0.15955097566E+02  0.15955097778E+02  0.26000000000E-02 0.  1.
         23    2    1    2    0    0  0.00000000000E+00  0.00000000000E+00  0.12148360017E+03  0.15339379554E+03  0.93655706712E+02 0.  0.
        -13    1    3    3    0    0 -0.23639983006E+02 -0.22762603269E+02  0.60305293004E+01  0.33367099968E+02  0.10570000000E+00 0.  1.
         13    1    3    3    0    0  0.23639983006E+02  0.22762603269E+02  0.11545307087E+03  0.12002669557E+03  0.10570000000E+00 0. -1.
<mgrwt>
<rscale>  0 0.93655707E+02</rscale>
<asrwt>0</asrwt>
<pdfrwt beam="1">  1        2 0.21144415E-01 0.93655707E+02</pdfrwt>
<pdfrwt beam="2">  1       -2 0.24546304E-02 0.93655707E+02</pdfrwt>
<totfact> 0.12617283E+05</totfact>
</mgrwt>
</event>
<event>
 5   1  0.1343823E+00  0.9059658E+02  0.7818608E-02  0.1301413E+00
          2   -1    0    0  501    0  0.00000000000E+00  0.00000000000E+00  0.37774946884E+02  0.37774946974E+02  0.26000000000E-02 0. -1.
         -2   -1    0    0    0  501 -0.00000000000E+00 -0.00000000000E+00 -0.54319995480E+02  0.54319995542E+02  0.26000000000E-02 0.  1.
         23    2    1    2    0    0  0.00000000000E+00  0.00000000000E+00 -0.16545048595E+02  0.92094942516E+02  0.90596577220E+02 0.  0.
        -13    1    3    3    0    0  0.41288817745E+02 -0.17690862236E+01 -0.27127269166E+02  0.49434765517E+02  0.10570000000E+00 0.  1.
         13    1    3    3    0    0 -0.41288817745E+02  0.17690862236E+01  0.10582220571E+02  0.42660176999E+02  0.10570000000E+00 0. -1.
<mgrwt>
<rscale>  0 0.90596577E+02</rscale>
<asrwt>0</asrwt>
<pdfrwt beam="1">  1        2 0.58115303E-02 0.90596577E+02</pdfrwt>
<pdfrwt beam="2">  1       -2 0.83569224E-02 0.90596577E+02</pdfrwt>
<totfact> 0.95744535E+04</totfact>
</mgrwt>
</event>
<event>
 5   1  0.1343823E+00  0.8781594E+02  0.7818608E-02  0.1308229E+00
          2   -1    0    0  501    0  0.00000000000E+00  0.00000000000E+00  0.82327652395E+02  0.82327652436E+02  0.26000000000E-02 0. -1.
         -2   -1    0    0    0  501 -0.00000000000E+00 -0.00000000000E+00 -0.23417524658E+02  0.23417524802E+02  0.26000000000E-02 0.  1.
         23    2    1    2    0    0  0.00000000000E+00  0.00000000000E+00  0.58910127738E+02  0.10574517724E+03  0.87815940234E+02 0.  0.
        -13    1    3    3    0    0 -0.61876589523E+01  0.37682654628E+02  0.33596189208E+01  0.38334942219E+02  0.10570000000E+00 0.  1.
         13    1    3    3    0    0  0.61876589523E+01 -0.37682654628E+02  0.55550508817E+02  0.67410235020E+02  0.10570000000E+00 0. -1.
<mgrwt>
<rscale>  0 0.87815940E+02</rscale>
<asrwt>0</asrwt>
<pdfrwt beam="1">  1        2 0.12665793E-01 0.87815940E+02</pdfrwt>
<pdfrwt beam="2">  1       -2 0.36026961E-02 0.87815940E+02</pdfrwt>
<totfact> 0.12847920E+05</totfact>
</mgrwt>
</event>
<event>
 5   1  0.1343823E+00  0.8832247E+02  0.7818608E-02  0.1306966E+00
          2   -1    0    0  501    0  0.00000000000E+00  0.00000000000E+00  0.32712159542E+02  0.32712159645E+02  0.26000000000E-02 0.  1.
         -2   -1    0    0    0  501 -0.00000000000E+00 -0.00000000000E+00 -0.59617417406E+02  0.59617417463E+02  0.26000000000E-02 0. -1.
         23    2    1    2    0    0  0.00000000000E+00  0.00000000000E+00 -0.26905257864E+02  0.92329577108E+02  0.88322465478E+02 0.  0.
        -13    1    3    3    0    0 -0.41250253341E+02  0.63588574487E+01  0.16305960447E+01  0.41769468331E+02  0.10570000000E+00 0.  1.
         13    1    3    3    0    0  0.41250253341E+02 -0.63588574487E+01 -0.28535853909E+02  0.50560108777E+02  0.10570000000E+00 0. -1.
<mgrwt>
<rscale>  0 0.88322465E+02</rscale>
<asrwt>0</asrwt>
<pdfrwt beam="1">  1        2 0.50326400E-02 0.88322465E+02</pdfrwt>
<pdfrwt beam="2">  1       -2 0.91719104E-02 0.88322465E+02</pdfrwt>
<totfact> 0.99364818E+04</totfact>
</mgrwt>
</event>
<event>
 5   1  0.1343823E+00  0.9332381E+02  0.7818608E-02  0.1294997E+00
          2   -1    0    0  501    0  0.00000000000E+00  0.00000000000E+00  0.17219125963E+02  0.17219126159E+02  0.26000000000E-02 0. -1.
         -2   -1    0    0    0  501 -0.00000000000E+00 -0.00000000000E+00 -0.12644853758E+03  0.12644853761E+03  0.26000000000E-02 0.  1.
         23    2    1    2    0    0  0.00000000000E+00  0.00000000000E+00 -0.10922941162E+03  0.14366766377E+03  0.93323808591E+02 0.  0.
        -13    1    3    3    0    0  0.27348245337E+02  0.27476763597E+02 -0.14635626612E+02  0.41438047730E+02  0.10570000000E+00 0. -1.
         13    1    3    3    0    0 -0.27348245337E+02 -0.27476763597E+02 -0.94593785010E+02  0.10222961604E+03  0.10570000000E+00 0.  1.
<mgrwt>
<rscale>  0 0.93323809E+02</rscale>
<asrwt>0</asrwt>
<pdfrwt beam="1">  1        2 0.26490964E-02 0.93323809E+02</pdfrwt>
<pdfrwt beam="2">  1       -2 0.19453621E-01 0.93323809E+02</pdfrwt>
<totfact> 0.69913784E+04</totfact>
</mgrwt>
</event>
<event>
 4   1  0.1343823E+00  0.1287848E+03  0.7818608E-02  0.1229270E+00
         -2   -1    0    0    0  501 -0.00000000000E+00  0.00000000000E+00  0.53236068202E+02  0.53236068266E+02  0.26000000000E-02 0.  1.
          2   -1    0    0  501    0  0.00000000000E+00 -0.00000000000E+00 -0.77886736039E+02  0.77886736082E+02  0.26000000000E-02 0. -1.
        -13    1    1    2    0    0  0.24675122501E+02 -0.47053602806E+01  0.48041588629E+02  0.54212613812E+02  0.10570000000E+00 0.  1.
         13    1    1    2    0    0 -0.24675122501E+02  0.47053602806E+01 -0.72692256465E+02  0.76910190536E+02  0.10570000000E+00 0. -1.
<mgrwt>
<rscale>  0 0.12878484E+03</rscale>
<asrwt>0</asrwt>
<pdfrwt beam="2">  1        2 0.11982575E-01 0.12878484E+03</pdfrwt>
<pdfrwt beam="1">  1       -2 0.81901643E-02 0.12878484E+03</pdfrwt>
<totfact> 0.42283568E+04</totfact>
</mgrwt>
</event>
<event>
 5   1  0.1343823E+00  0.9619420E+02  0.7818608E-02  0.1288509E+00
          2   -1    0    0  501    0  0.00000000000E+00  0.00000000000E+00  0.17213872437E+02  0.17213872634E+02  0.26000000000E-02 0.  1.
         -2   -1    0    0    0  501 -0.00000000000E+00 -0.00000000000E+00 -0.13438760504E+03  0.13438760506E+03  0.26000000000E-02 0. -1.
         23    2    1    2    0    0  0.00000000000E+00  0.00000000000E+00 -0.11717373260E+03  0.15160147770E+03  0.96194201635E+02 0.  0.
        -13    1    3    3    0    0  0.12064030091E+02  0.40851158424E+02 -0.93790562292E+02  0.10300989620E+03  0.10570000000E+00 0. -1.
         13    1    3    3    0    0 -0.12064030091E+02 -0.40851158424E+02 -0.23383170308E+02  0.48591581501E+02  0.10570000000E+00 0.  1.
<mgrwt>
<rscale>  0 0.96194202E+02</rscale>
<asrwt>0</asrwt>
<pdfrwt beam="1">  1        2 0.26482882E-02 0.96194202E+02</pdfrwt>
<pdfrwt beam="2">  1       -2 0.20675016E-01 0.96194202E+02</pdfrwt>
<totfact> 0.63441112E+04</totfact>
</mgrwt>
</event>
<event>
 5   1  0.1343823E+00  0.8226828E+02  0.7818608E-02  0.1322735E+00
         -2   -1    0    0    0  501 -0.00000000000E+00  0.00000000000E+00  0.33910899880E+02  0.33910899980E+02  0.26000000000E-02 0.  1.
          2   -1    0    0  501    0  0.00000000000E+00 -0.00000000000E+00 -0.49895971595E+02  0.49895971663E+02  0.26000000000E-02 0. -1.
         23    2    1    2    0    0  0.00000000000E+00  0.00000000000E+00 -0.15985071714E+02  0.83806871643E+02  0.82268275883E+02 0.  0.
        -13    1    3    3    0    0  0.30386971226E+02 -0.62273324222E+00 -0.36228238994E+02  0.47289029278E+02  0.10570000000E+00 0. -1.
         13    1    3    3    0    0 -0.30386971226E+02  0.62273324222E+00  0.20243167280E+02  0.36517842365E+02  0.10570000000E+00 0.  1.
<mgrwt>
<rscale>  0 0.82268276E+02</rscale>
<asrwt>0</asrwt>
<pdfrwt beam="2">  1        2 0.76763033E-02 0.82268276E+02</pdfrwt>
<pdfrwt beam="1">  1       -2 0.52170616E-02 0.82268276E+02</pdfrwt>
<totfact> 0.13503394E+05</totfact>
</mgrwt>
</event>
<event>
 5   1  0.1343823E+00  0.9115520E+02  0.7818608E-02  0.1300078E+00
         -2   -1    0    0    0  501 -0.00000000000E+00  0.00000000000E+00  0.12728094694E+03  0.12728094697E+03  0.26000000000E-02 0.  1.
          2   -1    0    0  501    0  0.00000000000E+00 -0.00000000000E+00 -0.16320727324E+02  0.16320727531E+02  0.26000000000E-02 0. -1.
         23    2    1    2    0    0  0.00000000000E+00  0.00000000000E+00  0.11096021962E+03  0.14360167450E+03  0.91155200519E+02 0.  0.
        -13    1    3    3    0    0  0.11781285488E+02  0.27917839542E+02  0.18462707057E+01  0.30358266427E+02  0.10570000000E+00 0. -1.
         13    1    3    3    0    0 -0.11781285488E+02 -0.27917839542E+02  0.10911394891E+03  0.11324340808E+03  0.10570000000E+00 0.  1.
<mgrwt>
<rscale>  0 0.91155201E+02</rscale>
<asrwt>0</asrwt>
<pdfrwt beam="2">  1        2 0.25108811E-02 0.91155201E+02</pdfrwt>
<pdfrwt beam="1">  1       -2 0.19581685E-01 0.91155201E+02</pdfrwt>
<totfact> 0.74014866E+04</totfact>
</mgrwt>
</event>
<event>
 5   1  0.1343823E+00  0.9175095E+02  0.7818608E-02  0.1298666E+00
          2   -1    0    0  501    0  0.00000000000E+00  0.00000000000E+00  0.17010857504E+03  0.17010857506E+03  0.26000000000E-02 0. -1.
         -2   -1    0    0    0  501 -0.00000000000E+00 -0.00000000000E+00 -0.12371858971E+02  0.12371859244E+02  0.26000000000E-02 0.  1.
         23    2    1    2    0    0  0.00000000000E+00  0.00000000000E+00  0.15773671607E+03  0.18248043430E+03  0.91750952626E+02 0.  0.
        -13    1    3    3    0    0 -0.40437568882E+01 -0.34029287858E+02  0.18209424946E+02  0.38806426417E+02  0.10570000000E+00 0.  1.
         13    1    3    3    0    0  0.40437568882E+01  0.34029287858E+02  0.13952729112E+03  0.14367400789E+03  0.10570000000E+00 0. -1.
<mgrwt>
<rscale>  0 0.91750953E+02</rscale>
<asrwt>0</asrwt>
<pdfrwt beam="1">  1        2 0.26170550E-01 0.91750953E+02</pdfrwt>
<pdfrwt beam="2">  1       -2 0.19033629E-02 0.91750953E+02</pdfrwt>
<totfact> 0.14355088E+05</totfact>
</mgrwt>
</event>
<event>
 5   1  0.1343823E+00  0.9092805E+02  0.7818608E-02  0.1300620E+00
         -2   -1    0    0    0  501 -0.00000000000E+00  0.00000000000E+00  0.11451633840E+03  0.11451633843E+03  0.26000000000E-02 0.  1.
          2   -1    0    0  501    0  0.00000000000E+00 -0.00000000000E+00 -0.18049629218E+02  0.18049629405E+02  0.26000000000E-02 0. -1.
         23    2    1    2    0    0  0.00000000000E+00  0.00000000000E+00  0.96466709179E+02  0.13256596783E+03  0.90928047638E+02 0.  0.
        -13    1    3    3    0    0  0.51997019819E+01 -0.33884325947E+02  0.91770855209E+02  0.97964715505E+02  0.10570000000E+00 0.  1.
         13    1    3    3    0    0 -0.51997019819E+01  0.33884325947E+02  0.46958539694E+01  0.34601252326E+02  0.10570000000E+00 0. -1.
<mgrwt>
<rscale>  0 0.90928048E+02</rscale>
<asrwt>0</asrwt>
<pdfrwt beam="2">  1        2 0.27768660E-02 0.90928048E+02</pdfrwt>
<pdfrwt beam="1">  1       -2 0.17617898E-01 0.90928048E+02</pdfrwt>
<totfact> 0.77079055E+04</totfact>
</mgrwt>
</event>
<event>
 4   1  0.1343823E+00  0.1309041E+03  0.7818608E-02  0.1226120E+00
         -2   -1    0    0    0  501 -0.00000000000E+00  0.00000000000E+00  0.10863877545E+03  0.10863877548E+03  0.26000000000E-02 0.  1.
          2   -1    0    0  501    0  0.00000000000E+00 -0.00000000000E+00 -0.39433176463E+02  0.39433176549E+02  0.26000000000E-02 0. -1.
        -13    1    1    2    0    0 -0.42094043733E+02 -0.35253590917E+02  0.74901477136E+02  0.92870698500E+02  0.10570000000E+00 0.  1.
         13    1    1    2    0    0  0.42094043733E+02  0.35253590917E+02 -0.56958781536E+01  0.55201253525E+02  0.10570000000E+00 0. -1.
<mgrwt>
<rscale>  0 0.13090412E+03</rscale>
<asrwt>0</asrwt>
<pdfrwt beam="2">  1        2 0.60666427E-02 0.13090412E+03</pdfrwt>
<pdfrwt beam="1">  1       -2 0.16713657E-01 0.13090412E+03</pdfrwt>
<totfact> 0.31713005E+04</totfact>
</mgrwt>
</event>
<event>
 5   1  0.1343823E+00  0.1035402E+03  0.7818608E-02  0.1273023E+00
          2   -1    0    0  501    0  0.00000000000E+00  0.00000000000E+00  0.15400257993E+02  0.15400258212E+02  0.26000000000E-02 0. -1.
         -2   -1    0    0    0  501 -0.00000000000E+00 -0.00000000000E+00 -0.17403249699E+03  0.17403249701E+03  0.26000000000E-02 0.  1.
         23    2    1    2    0    0  0.00000000000E+00  0.00000000000E+00 -0.15863223900E+03  0.18943275522E+03  0.10354024098E+03 0.  0.
        -13    1    3    3    0    0 -0.24375799647E+02 -0.28318834766E+02 -0.14487448401E+03  0.14961538457E+03  0.10570000000E+00 0.  1.
         13    1    3    3    0    0  0.24375799647E+02  0.28318834766E+02 -0.13757754993E+02  0.39817370655E+02  0.10570000000E+00 0. -1.
<mgrwt>
<rscale>  0 0.10354024E+03</rscale>
<asrwt>0</asrwt>
<pdfrwt beam="1">  1        2 0.23692706E-02 0.10354024E+03</pdfrwt>
<pdfrwt beam="2">  1       -2 0.26774229E-01 0.10354024E+03</pdfrwt>
<totfact> 0.47754025E+04</totfact>
</mgrwt>
</event>
<event>
 5   1  0.1343823E+00  0.9369690E+02  0.7818608E-02  0.1294138E+00
         -2   -1    0    0    0  501 -0.00000000000E+00  0.00000000000E+00  0.74111081667E+02  0.74111081712E+02  0.26000000000E-02 0.  1.
          2   -1    0    0  501    0  0.00000000000E+00 -0.00000000000E+00 -0.29614696299E+02  0.29614696413E+02  0.26000000000E-02 0. -1.
         23    2    1    2    0    0  0.00000000000E+00  0.00000000000E+00  0.44496385367E+02  0.10372577813E+03  0.93696898225E+02 0.  0.
        -13    1    3    3    0    0 -0.21992869427E+02  0.40885325285E+02  0.15293236412E+02  0.48879345145E+02  0.10570000000E+00 0.  1.
         13    1    3    3    0    0  0.21992869427E+02 -0.40885325285E+02  0.29203148955E+02  0.54846432981E+02  0.10570000000E+00 0. -1.
<mgrwt>
<rscale>  0 0.93696898E+02</rscale>
<asrwt>0</asrwt>
<pdfrwt beam="2">  1        2 0.45561071E-02 0.93696898E+02</pdfrwt>
<pdfrwt beam="1">  1       -2 0.11401705E-01 0.93696898E+02</pdfrwt>
<totfact> 0.81272101E+04</totfact>
</mgrwt>
</event>
<event>
 5   1  0.1343823E+00  0.8761950E+02  0.7818608E-02  0.1308721E+00
          2   -1    0    0  501    0  0.00000000000E+00  0.00000000000E+00  0.42140825095E+02  0.42140825175E+02  0.26000000000E-02 0. -1.
         -2   -1    0    0    0  501 -0.00000000000E+00 -0.00000000000E+00 -0.45544768212E+02  0.45544768287E+02  0.26000000000E-02 0.  1.
         23    2    1    2    0    0  0.00000000000E+00  0.00000000000E+00 -0.34039431174E+01  0.87685593462E+02  0.87619498241E+02 0.  0.
        -13    1    3    3    0    0 -0.27373270751E+02  0.34015922783E+02 -0.52968938868E+01  0.43982351139E+02  0.10570000000E+00 0. -1.
         13    1    3    3    0    0  0.27373270751E+02 -0.34015922783E+02  0.18929507694E+01  0.43703242323E+02  0.10570000000E+00 0.  1.
<mgrwt>
<rscale>  0 0.87619498E+02</rscale>
<asrwt>0</asrwt>
<pdfrwt beam="1">  1        2 0.64832038E-02 0.87619498E+02</pdfrwt>
<pdfrwt beam="2">  1       -2 0.70068875E-02 0.87619498E+02</pdfrwt>
<totfact> 0.10838811E+05</totfact>
</mgrwt>
</event>
<event>
 5   1  0.1343823E+00  0.9158340E+02  0.7818608E-02  0.1299062E+00
         -2   -1    0    0    0  501 -0.00000000000E+00  0.00000000000E+00  0.15802309528E+02  0.15802309742E+02  0.26000000000E-02 0.  1.
          2   -1    0    0  501    0  0.00000000000E+00 -0.00000000000E+00 -0.13269451931E+03  0.13269451934E+03  0.26000000000E-02 0. -1.
         23    2    1    2    0    0  0.00000000000E+00  0.00000000000E+00 -0.11689220979E+03  0.14849682908E+03  0.91583402091E+02 0.  0.
        -13    1    3    3    0    0 -0.91169512183E+01  0.44183369516E+02 -0.45722228486E+02  0.64232564105E+02  0.10570000000E+00 0.  1.
         13    1    3    3    0    0  0.91169512183E+01 -0.44183369516E+02 -0.71169981300E+02  0.84264264976E+02  0.10570000000E+00 0. -1.
<mgrwt>
<rscale>  0 0.91583402E+02</rscale>
<asrwt>0</asrwt>
<pdfrwt beam="2">  1        2 0.20414541E-01 0.91583402E+02</pdfrwt>
<pdfrwt beam="1">  1       -2 0.24311246E-02 0.91583402E+02</pdfrwt>
<totfact> 0.13256450E+05</totfact>
</mgrwt>
</event>
<event>
 5   1  0.1343823E+00  0.8792095E+02  0.7818608E-02  0.1307966E+00
         -2   -1    0    0    0  501 -0.00000000000E+00  0.00000000000E+00  0.50390657302E+02  0.50390657369E+02  0.26000000000E-02 0.  1.
          2   -1    0    0  501    0  0.00000000000E+00 -0.00000000000E+00 -0.38350827285E+02  0.38350827373E+02  0.26000000000E-02 0. -1.
         23    2    1    2    0    0  0.00000000000E+00  0.00000000000E+00  0.12039830017E+02  0.88741484741E+02  0.87920950901E+02 0.  0.
        -13    1    3    3    0    0  0.10309887598E+02 -0.34927067367E+01  0.49008711159E+02  0.50203164488E+02  0.10570000000E+00 0.  1.
         13    1    3    3    0    0 -0.10309887598E+02  0.34927067367E+01 -0.36968881142E+02  0.38538320254E+02  0.10570000000E+00 0. -1.
<mgrwt>
<rscale>  0 0.87920951E+02</rscale>
<asrwt>0</asrwt>
<pdfrwt beam="2">  1        2 0.59001273E-02 0.87920951E+02</pdfrwt>
<pdfrwt beam="1">  1       -2 0.77524088E-02 0.87920951E+02</pdfrwt>
<totfact> 0.10481687E+05</totfact>
</mgrwt>
</event>
<event>
 5   1  0.1343823E+00  0.8672680E+02  0.7818608E-02  0.1310978E+00
         -2   -1    0    0    0  501 -0.00000000000E+00  0.00000000000E+00  0.67744314756E+01  0.67744319745E+01  0.26000000000E-02 0. -1.
          2   -1    0    0  501    0  0.00000000000E+00 -0.00000000000E+00 -0.27757083515E+03  0.27757083516E+03  0.26000000000E-02 0.  1.
         23    2    1    2    0    0  0.00000000000E+00  0.00000000000E+00 -0.27079640367E+03  0.28434526713E+03  0.86726804968E+02 0.  0.
        -13    1    3    3    0    0  0.38122508813E+02 -0.16569287448E+02 -0.94909217042E+02  0.10361292205E+03  0.10570000000E+00 0.  1.
         13    1    3    3    0    0 -0.38122508813E+02  0.16569287448E+02 -0.17588718663E+03  0.18073234508E+03  0.10570000000E+00 0. -1.
<mgrwt>
<rscale>  0 0.86726805E+02</rscale>
<asrwt>0</asrwt>
<pdfrwt beam="2">  1        2 0.42703197E-01 0.86726805E+02</pdfrwt>
<pdfrwt beam="1">  1       -2 0.10422205E-02 0.86726805E+02</pdfrwt>
<totfact> 0.19940826E+05</totfact>
</mgrwt>
</event>
<event>
 5   1  0.1343823E+00  0.9695968E+02  0.7818608E-02  0.1286822E+00
         -2   -1    0    0    0  501 -0.00000000000E+00  0.00000000000E+00  0.36857413833E+02  0.36857413925E+02  0.26000000000E-02 0.  1.
          2   -1    0    0  501    0  0.00000000000E+00 -0.00000000000E+00 -0.63767223609E+02  0.63767223662E+02  0.26000000000E-02 0. -1.
         23    2    1    2    0    0  0.00000000000E+00  0.00000000000E+00 -0.26909809776E+02  0.10062463759E+03  0.96959681452E+02 0.  0.
        -13    1    3    3    0    0  0.43629784373E+02 -0.20700418341E+02 -0.17884540810E+02  0.51496925893E+02  0.10570000000E+00 0.  1.
         13    1    3    3    0    0 -0.43629784373E+02  0.20700418341E+02 -0.90252689664E+01  0.49127711694E+02  0.10570000000E+00 0. -1.
<mgrwt>
<rscale>  0 0.96959681E+02</rscale>
<asrwt>0</asrwt>
<pdfrwt beam="2">  1        2 0.98103421E-02 0.96959681E+02</pdfrwt>
<pdfrwt beam="1">  1       -2 0.56703714E-02 0.96959681E+02</pdfrwt>
<totfact> 0.90609996E+04</totfact>
</mgrwt>
</event>
<event>
 5   1  0.1343823E+00  0.9184851E+02  0.7818608E-02  0.1298436E+00
          2   -1    0    0  501    0  0.00000000000E+00  0.00000000000E+00  0.10447895974E+03  0.10447895978E+03  0.26000000000E-02 0. -1.
         -2   -1    0    0    0  501 -0.00000000000E+00 -0.00000000000E+00 -0.20186238460E+02  0.20186238627E+02  0.26000000000E-02 0.  1.
         23    2    1    2    0    0  0.00000000000E+00  0.00000000000E+00  0.84292721284E+02  0.12466519840E+03  0.91848510230E+02 0.  0.
        -13    1    3    3    0    0 -0.22812427224E+02 -0.34554822854E+02  0.69107766297E+02  0.80562628764E+02  0.10570000000E+00 0. -1.
         13    1    3    3    0    0  0.22812427224E+02  0.34554822854E+02  0.15184954987E+02  0.44102569639E+02  0.10570000000E+00 0.  1.
<mgrwt>
<rscale>  0 0.91848510E+02</rscale>
<asrwt>0</asrwt>
<pdfrwt beam="1">  1        2 0.16073686E-01 0.91848510E+02</pdfrwt>
<pdfrwt beam="2">  1       -2 0.31055752E-02 0.91848510E+02</pdfrwt>
<totfact> 0.12184767E+05</totfact>
</mgrwt>
</event>
<event>
 5   1  0.1343823E+00  0.8504489E+02  0.7818608E-02  0.1315315E+00
         -2   -1    0    0    0  501 -0.00000000000E+00  0.00000000000E+00  0.11994101740E+02  0.11994102022E+02  0.26000000000E-02 0.  1.
          2   -1    0    0  501    0  0.00000000000E+00 -0.00000000000E+00 -0.15075395154E+03  0.15075395156E+03  0.26000000000E-02 0. -1.
         23    2    1    2    0    0  0.00000000000E+00  0.00000000000E+00 -0.13875984980E+03  0.16274805358E+03  0.85044888316E+02 0.  0.
        -13    1    3    3    0    0 -0.77109317328E+01  0.39488610119E+02 -0.95712104604E+02  0.10382498224E+03  0.10570000000E+00 0. -1.
         13    1    3    3    0    0  0.77109317328E+01 -0.39488610119E+02 -0.43047745193E+02  0.58923071339E+02  0.10570000000E+00 0.  1.
<mgrwt>
<rscale>  0 0.85044888E+02</rscale>
<asrwt>0</asrwt>
<pdfrwt beam="2">  1        2 0.23192914E-01 0.85044888E+02</pdfrwt>
<pdfrwt beam="1">  1       -2 0.18452465E-02 0.85044888E+02</pdfrwt>
<totfact> 0.16900794E+05</totfact>
</mgrwt>
</event>
<event>
 5   1  0.1343823E+00  0.6945261E+02  0.7818608E-02  0.1361964E+00
         -2   -1    0    0    0  501 -0.00000000000E+00  0.00000000000E+00  0.25174895700E+02  0.25174895834E+02  0.26000000000E-02 0.  1.
          2   -1    0    0  501    0  0.00000000000E+00 -0.00000000000E+00 -0.47901540712E+02  0.47901540782E+02  0.26000000000E-02 0. -1.
         23    2    1    2    0    0  0.00000000000E+00  0.00000000000E+00 -0.22726645011E+02  0.73076436617E+02  0.69452611147E+02 0.  0.
        -13    1    3    3    0    0 -0.43340469469E+01 -0.28293353128E+02 -0.32051575901E+02  0.42972229223E+02  0.10570000000E+00 0. -1.
         13    1    3    3    0    0  0.43340469469E+01  0.28293353128E+02  0.93249308898E+01  0.30104207393E+02  0.10570000000E+00 0.  1.
<mgrwt>
<rscale>  0 0.69452611E+02</rscale>
<asrwt>0</asrwt>
<pdfrwt beam="2">  1        2 0.73694678E-02 0.69452611E+02</pdfrwt>
<pdfrwt beam="1">  1       -2 0.38730609E-02 0.69452611E+02</pdfrwt>
<totfact> 0.21333279E+05</totfact>
</mgrwt>
</event>
<event>
 5   1  0.1343823E+00  0.9280191E+02  0.7818608E-02  0.1296205E+00
         -2   -1    0    0    0  501 -0.00000000000E+00  0.00000000000E+00  0.43568209440E+03  0.43568209441E+03  0.26000000000E-02 0.  1.
          2   -1    0    0  501    0  0.00000000000E+00 -0.00000000000E+00 -0.49417881807E+01  0.49417888647E+01  0.26000000000E-02 0. -1.
         23    2    1    2    0    0  0.00000000000E+00  0.00000000000E+00  0.43074030622E+03  0.44062388327E+03  0.92801913279E+02 0.  0.
        -13    1    3    3    0    0  0.43529755773E+01  0.45518009876E+02  0.17792408318E+03  0.18370581963E+03  0.10570000000E+00 0. -1.
         13    1    3    3    0    0 -0.43529755773E+01 -0.45518009876E+02  0.25281622304E+03  0.25691806364E+03  0.10570000000E+00 0.  1.
<mgrwt>
<rscale>  0 0.92801913E+02</rscale>
<asrwt>0</asrwt>
<pdfrwt beam="2">  1        2 0.76027542E-03 0.92801913E+02</pdfrwt>
<pdfrwt beam="1">  1       -2 0.67027992E-01 0.92801913E+02</pdfrwt>
<totfact> 0.38431051E+04</totfact>
</mgrwt>
</event>
<event>
 5   1  0.1343823E+00  0.9178382E+02  0.7818608E-02  0.1298589E+00
         -2   -1    0    0    0  501 -0.00000000000E+00  0.00000000000E+00  0.78672227337E+01  0.78672231633E+01  0.26000000000E-02 0.  1.
          2   -1    0    0  501    0  0.00000000000E+00 -0.00000000000E+00 -0.26770151113E+03  0.26770151114E+03  0.26000000000E-02 0. -1.
         23    2    1    2    0    0  0.00000000000E+00  0.00000000000E+00 -0.25983428839E+03  0.27556873430E+03  0.91783821562E+02 0.  0.
        -13    1    3    3    0    0  0.12870940080E+02  0.34327154878E+02 -0.47036492493E+02  0.59636041611E+02  0.10570000000E+00 0.  1.
         13    1    3    3    0    0 -0.12870940080E+02 -0.34327154878E+02 -0.21279779590E+03  0.21593269269E+03  0.10570000000E+00 0. -1.
<mgrwt>
<rscale>  0 0.91783822E+02</rscale>
<asrwt>0</asrwt>
<pdfrwt beam="2">  1        2 0.41184841E-01 0.91783822E+02</pdfrwt>
<pdfrwt beam="1">  1       -2 0.12103422E-02 0.91783822E+02</pdfrwt>
<totfact> 0.16915488E+05</totfact>
</mgrwt>
</event>
<event>
 5   1  0.1343823E+00  0.9169341E+02  0.7818608E-02  0.1298802E+00
          2   -1    0    0  501    0  0.00000000000E+00  0.00000000000E+00  0.21705272217E+02  0.21705272372E+02  0.26000000000E-02 0. -1.
         -2   -1    0    0    0  501 -0.00000000000E+00 -0.00000000000E+00 -0.96839161943E+02  0.96839161978E+02  0.26000000000E-02 0.  1.
         23    2    1    2    0    0  0.00000000000E+00  0.00000000000E+00 -0.75133889726E+02  0.11854443435E+03  0.91693410505E+02 0.  0.
        -13    1    3    3    0    0  0.20741805357E+02 -0.60201948684E+01  0.14716100678E+02  0.26135034482E+02  0.10570000000E+00 0. -1.
         13    1    3    3    0    0 -0.20741805357E+02  0.60201948684E+01 -0.89849990405E+02  0.92409399868E+02  0.10570000000E+00 0.  1.
<mgrwt>
<rscale>  0 0.91693411E+02</rscale>
<asrwt>0</asrwt>
<pdfrwt beam="1">  1        2 0.33392727E-02 0.91693411E+02</pdfrwt>
<pdfrwt beam="2">  1       -2 0.14898332E-01 0.91693411E+02</pdfrwt>
<totfact> 0.79445996E+04</totfact>
</mgrwt>
</event>
<event>
 5   1  0.1343823E+00  0.9038255E+02  0.7818608E-02  0.1301928E+00
         -2   -1    0    0    0  501 -0.00000000000E+00  0.00000000000E+00  0.60708653145E+02  0.60708653201E+02  0.26000000000E-02 0.  1.
          2   -1    0    0  501    0  0.00000000000E+00 -0.00000000000E+00 -0.33640197899E+02  0.33640198000E+02  0.26000000000E-02 0. -1.
         23    2    1    2    0    0  0.00000000000E+00  0.00000000000E+00  0.27068455246E+02  0.94348851201E+02  0.90382545071E+02 0.  0.
        -13    1    3    3    0    0 -0.30275608264E+02  0.64233833340E+01  0.47909038926E+02  0.57036475106E+02  0.10570000000E+00 0.  1.
         13    1    3    3    0    0  0.30275608264E+02 -0.64233833340E+01 -0.20840583680E+02  0.37312376094E+02  0.10570000000E+00 0. -1.
<mgrwt>
<rscale>  0 0.90382545E+02</rscale>
<asrwt>0</asrwt>
<pdfrwt beam="2">  1        2 0.51754151E-02 0.90382545E+02</pdfrwt>
<pdfrwt beam="1">  1       -2 0.93397928E-02 0.90382545E+02</pdfrwt>
<totfact> 0.93557345E+04</totfact>
</mgrwt>
</event>
<event>
 5   1  0.1343823E+00  0.7670021E+02  0.7818608E-02  0.1338685E+00
         -2   -1    0    0    0  501 -0.00000000000E+00  0.00000000000E+00  0.19463197388E+02  0.19463197562E+02  0.26000000000E-02 0.  1.
          2   -1    0    0  501    0  0.00000000000E+00 -0.00000000000E+00 -0.75564699108E+02  0.75564699153E+02  0.26000000000E-02 0. -1.
         23    2    1    2    0    0  0.00000000000E+00  0.00000000000E+00 -0.56101501720E+02  0.95027896715E+02  0.76700212899E+02 0.  0.
        -13    1    3    3    0    0 -0.14658406417E+02  0.79936304137E+01  0.14723658310E+02  0.22261273378E+02  0.10570000000E+00 0.  1.
         13    1    3    3    0    0  0.14658406417E+02 -0.79936304137E+01 -0.70825160031E+02  0.72766623336E+02  0.10570000000E+00 0. -1.
<mgrwt>
<rscale>  0 0.76700213E+02</rscale>
<asrwt>0</asrwt>
<pdfrwt beam="2">  1        2 0.11625338E-01 0.76700213E+02</pdfrwt>
<pdfrwt beam="1">  1       -2 0.29943381E-02 0.76700213E+02</pdfrwt>
<totfact> 0.18173373E+05</totfact>
</mgrwt>
</event>
<event>
 5   1  0.1343823E+00  0.8356425E+02  0.7818608E-02  0.1319230E+00
         -2   -1    0    0    0  501 -0.00000000000E+00  0.00000000000E+00  0.91411338973E+02  0.91411339010E+02  0.26000000000E-02 0.  1.
          2   -1    0    0  501    0  0.00000000000E+00 -0.00000000000E+00 -0.19097695073E+02  0.19097695250E+02  0.26000000000E-02 0. -1.
         23    2    1    2    0    0  0.00000000000E+00  0.00000000000E+00  0.72313643900E+02  0.11050903426E+03  0.83564248090E+02 0.  0.
        -13    1    3    3    0    0  0.17655043028E+02  0.17344570735E+02 -0.83606572285E+01  0.26123675853E+02  0.10570000000E+00 0. -1.
         13    1    3    3    0    0 -0.17655043028E+02 -0.17344570735E+02  0.80674301128E+02  0.84385358406E+02  0.10570000000E+00 0.  1.
<mgrwt>
<rscale>  0 0.83564248E+02</rscale>
<asrwt>0</asrwt>
<pdfrwt beam="2">  1        2 0.29381069E-02 0.83564248E+02</pdfrwt>
<pdfrwt beam="1">  1       -2 0.14063283E-01 0.83564248E+02</pdfrwt>
<totfact> 0.10168793E+05</totfact>
</mgrwt>
</event>
<event>
 5   1  0.1343823E+00  0.9675544E+02  0.7818608E-02  0.1287271E+00
         -2   -1    0    0    0  501 -0.00000000000E+00  0.00000000000E+00  0.14336342976E+02  0.14336343212E+02  0.26000000000E-02 0.  1.
          2   -1    0    0  501    0  0.00000000000E+00 -0.00000000000E+00 -0.16324969733E+03  0.16324969735E+03  0.26000000000E-02 0. -1.
         23    2    1    2    0    0  0.00000000000E+00  0.00000000000E+00 -0.14891335435E+03  0.17758604056E+03  0.96755437561E+02 0.  0.
        -13    1    3    3    0    0  0.22062663551E+02  0.42839592507E+02 -0.82329863524E+02  0.95395017740E+02  0.10570000000E+00 0.  1.
         13    1    3    3    0    0 -0.22062663551E+02 -0.42839592507E+02 -0.66583490827E+02  0.82191022820E+02  0.10570000000E+00 0. -1.
<mgrwt>
<rscale>  0 0.96755438E+02</rscale>
<asrwt>0</asrwt>
<pdfrwt beam="2">  1        2 0.25115337E-01 0.96755438E+02</pdfrwt>
<pdfrwt beam="1">  1       -2 0.22055914E-02 0.96755438E+02</pdfrwt>
<totfact> 0.12246897E+05</totfact>
</mgrwt>
</event>
<event>
 5   1  0.1343823E+00  0.9098485E+02  0.7818608E-02  0.1300484E+00
         -2   -1    0    0    0  501 -0.00000000000E+00  0.00000000000E+00  0.47755078931E+02  0.47755079002E+02  0.26000000000E-02 0.  1.
          2   -1    0    0  501    0  0.00000000000E+00 -0.00000000000E+00 -0.43336977535E+02  0.43336977613E+02  0.26000000000E-02 0. -1.
         23    2    1    2    0    0  0.00000000000E+00  0.00000000000E+00  0.44181013960E+01  0.91092056614E+02  0.90984851257E+02 0.  0.
        -13    1    3    3    0    0 -0.22171356253E+02 -0.33458173394E+02  0.23647623464E+02  0.46585831247E+02  0.10570000000E+00 0.  1.
         13    1    3    3    0    0  0.22171356253E+02  0.33458173394E+02 -0.19229522068E+02  0.44506225367E+02  0.10570000000E+00 0. -1.
<mgrwt>
<rscale>  0 0.90984851E+02</rscale>
<asrwt>0</asrwt>
<pdfrwt beam="2">  1        2 0.66672273E-02 0.90984851E+02</pdfrwt>
<pdfrwt beam="1">  1       -2 0.73469352E-02 0.90984851E+02</pdfrwt>
<totfact> 0.97980595E+04</totfact>
</mgrwt>
</event>
<event>
 5   1  0.1343823E+00  0.8781557E+02  0.7818608E-02  0.1308230E+00
         -2   -1    0    0    0  501 -0.00000000000E+00  0.00000000000E+00  0.11255602977E+02  0.11255603278E+02  0.26000000000E-02 0.  1.
          2   -1    0    0  501    0  0.00000000000E+00 -0.00000000000E+00 -0.17128301209E+03  0.17128301211E+03  0.26000000000E-02 0. -1.
         23    2    1    2    0    0  0.00000000000E+00  0.00000000000E+00 -0.16002740912E+03  0.18253861539E+03  0.87815570603E+02 0.  0.
        -13    1    3    3    0    0 -0.17542525237E+02 -0.40244197297E+02 -0.81550830055E+02  0.92616870293E+02  0.10570000000E+00 0. -1.
         13    1    3    3    0    0  0.17542525237E+02  0.40244197297E+02 -0.78476579060E+02  0.89921745097E+02  0.10570000000E+00 0.  1.
<mgrwt>
<rscale>  0 0.87815571E+02</rscale>
<asrwt>0</asrwt>
<pdfrwt beam="2">  1        2 0.26351231E-01 0.87815571E+02</pdfrwt>
<pdfrwt beam="1">  1       -2 0.17316314E-02 0.87815571E+02</pdfrwt>
<totfact> 0.16195657E+05</totfact>
</mgrwt>
</event>
<event>
 5   1  0.1343823E+00  0.1062692E+03  0.7818608E-02  0.1267639E+00
         -2   -1    0    0    0  501 -0.00000000000E+00  0.00000000000E+00  0.72396001317E+01  0.72396005986E+01  0.26000000000E-02 0.  1.
          2   -1    0    0  501    0  0.00000000000E+00 -0.00000000000E+00 -0.38997831213E+03  0.38997831214E+03  0.26000000000E-02 0. -1.
         23    2    1    2    0    0  0.00000000000E+00  0.00000000000E+00 -0.38273871200E+03  0.39721791274E+03  0.10626922667E+03 0.  0.
        -13    1    3    3    0    0 -0.33264232948E+02  0.39242902738E+02 -0.24106461556E+03  0.24649274768E+03  0.10570000000E+00 0.  1.
         13    1    3    3    0    0  0.33264232948E+02 -0.39242902738E+02 -0.14167409644E+03  0.15072516507E+03  0.10570000000E+00 0. -1.
<mgrwt>
<rscale>  0 0.10626923E+03</rscale>
<asrwt>0</asrwt>
<pdfrwt beam="2">  1        2 0.59996647E-01 0.10626923E+03</pdfrwt>
<pdfrwt beam="1">  1       -2 0.11137850E-02 0.10626923E+03</pdfrwt>
<totfact> 0.13124583E+05</totfact>
</mgrwt>
</event>
<event>
 5   1  0.1343823E+00  0.9124357E+02  0.7818608E-02  0.1299868E+00
         -2   -1    0    0    0  501 -0.00000000000E+00  0.00000000000E+00  0.78079069296E+01  0.78079073625E+01  0.26000000000E-02 0.  1.
          2   -1    0    0  501    0  0.00000000000E+00 -0.00000000000E+00 -0.26656914697E+03  0.26656914699E+03  0.26000000000E-02 0. -1.
         23    2    1    2    0    0  0.00000000000E+00  0.00000000000E+00 -0.25876124004E+03  0.27437705435E+03  0.91243567466E+02 0.  0.
        -13    1    3    3    0    0 -0.28932991308E+02  0.34618265811E+02 -0.14972986182E+03  0.15637961826E+03  0.10570000000E+00 0. -1.
         13    1    3    3    0    0  0.28932991308E+02 -0.34618265811E+02 -0.10903137822E+03  0.11799743609E+03  0.10570000000E+00 0.  1.
<mgrwt>
<rscale>  0 0.91243567E+02</rscale>
<asrwt>0</asrwt>
<pdfrwt beam="2">  1        2 0.41010631E-01 0.91243567E+02</pdfrwt>
<pdfrwt beam="1">  1       -2 0.12012167E-02 0.91243567E+02</pdfrwt>
<totfact> 0.17157797E+05</totfact>
</mgrwt>
</event>
<event>
 5   1  0.1343823E+00  0.9462177E+02  0.7818608E-02  0.1292030E+00
          2   -1    0    0  501    0  0.00000000000E+00  0.00000000000E+00  0.59523799068E+02  0.59523799125E+02  0.26000000000E-02 0. -1.
         -2   -1    0    0    0  501 -0.00000000000E+00 -0.00000000000E+00 -0.37603778083E+02  0.37603778173E+02  0.26000000000E-02 0.  1.
         23    2    1    2    0    0  0.00000000000E+00  0.00000000000E+00  0.21920020986E+02  0.97127577298E+02  0.94621767854E+02 0.  0.
        -13    1    3    3    0    0  0.43629729445E+02  0.48797877262E+01  0.29060563867E+02  0.52648771729E+02  0.10570000000E+00 0.  1.
         13    1    3    3    0    0 -0.43629729445E+02 -0.48797877262E+01 -0.71405428819E+01  0.44478805569E+02  0.10570000000E+00 0. -1.
<mgrwt>
<rscale>  0 0.94621768E+02</rscale>
<asrwt>0</asrwt>
<pdfrwt beam="1">  1        2 0.91575075E-02 0.94621768E+02</pdfrwt>
<pdfrwt beam="2">  1       -2 0.57851967E-02 0.94621768E+02</pdfrwt>
<totfact> 0.95283371E+04</totfact>
</mgrwt>
</event>
<event>
 5   1  0.1343823E+00  0.8937702E+02  0.7818608E-02  0.1304367E+00
          2   -1    0    0  501    0  0.00000000000E+00  0.00000000000E+00  0.14471853451E+02  0.14471853684E+02  0.26000000000E-02 0.  1.
         -2   -1    0    0    0  501 -0.00000000000E+00 -0.00000000000E+00 -0.13799635121E+03  0.13799635124E+03  0.26000000000E-02 0. -1.
         23    2    1    2    0    0  0.00000000000E+00  0.00000000000E+00 -0.12352449776E+03  0.15246820492E+03  0.89377021457E+02 0.  0.
        -13    1    3    3    0    0 -0.25835333629E+02 -0.17767497318E+02 -0.74432573776E+01  0.32226723035E+02  0.10570000000E+00 0.  1.
         13    1    3    3    0    0  0.25835333629E+02  0.17767497318E+02 -0.11608124038E+03  0.12024148188E+03  0.10570000000E+00 0. -1.
<mgrwt>
<rscale>  0 0.89377021E+02</rscale>
<asrwt>0</asrwt>
<pdfrwt beam="1">  1        2 0.22264391E-02 0.89377021E+02</pdfrwt>
<pdfrwt beam="2">  1       -2 0.21230207E-01 0.89377021E+02</pdfrwt>
<totfact> 0.75671601E+04</totfact>
</mgrwt>
</event>
<event>
 5   1  0.1343823E+00  0.8966576E+02  0.7818608E-02  0.1303663E+00
         -2   -1    0    0    0  501 -0.00000000000E+00  0.00000000000E+00  0.21021337314E+02  0.21021337474E+02  0.26000000000E-02 0.  1.
          2   -1    0    0  501    0  0.00000000000E+00 -0.00000000000E+00 -0.95616518243E+02  0.95616518279E+02  0.26000000000E-02 0. -1.
         23    2    1    2    0    0  0.00000000000E+00  0.00000000000E+00 -0.74595180930E+02  0.11663785575E+03  0.89665759221E+02 0.  0.
        -13    1    3    3    0    0 -0.43226745416E+02 -0.52828553907E+01 -0.51156885279E+02  0.67182573367E+02  0.10570000000E+00 0.  1.
         13    1    3    3    0    0  0.43226745416E+02  0.52828553907E+01 -0.23438295651E+02  0.49455282386E+02  0.10570000000E+00 0. -1.
<mgrwt>
<rscale>  0 0.89665759E+02</rscale>
<asrwt>0</asrwt>
<pdfrwt beam="2">  1        2 0.14710233E-01 0.89665759E+02</pdfrwt>
<pdfrwt beam="1">  1       -2 0.32340520E-02 0.89665759E+02</pdfrwt>
<totfact> 0.12672032E+05</totfact>
</mgrwt>
</event>
<event>
 5   1  0.1343823E+00  0.8910180E+02  0.7818608E-02  0.1305042E+00
         -2   -1    0    0    0  501 -0.00000000000E+00  0.00000000000E+00  0.20712957382E+02  0.20712957545E+02  0.26000000000E-02 0.  1.
          2   -1    0    0  501    0  0.00000000000E+00 -0.00000000000E+00 -0.95823230037E+02  0.95823230072E+02  0.26000000000E-02 0. -1.
         23    2    1    2    0    0  0.00000000000E+00  0.00000000000E+00 -0.75110272655E+02  0.11653618762E+03  0.89101795526E+02 0.  0.
        -13    1    3    3    0    0 -0.41468026139E+02 -0.13067033953E+02 -0.24845829232E+02  0.50076650955E+02  0.10570000000E+00 0. -1.
         13    1    3    3    0    0  0.41468026139E+02  0.13067033953E+02 -0.50264443423E+02  0.66459536662E+02  0.10570000000E+00 0.  1.
<mgrwt>
<rscale>  0 0.89101796E+02</rscale>
<asrwt>0</asrwt>
<pdfrwt beam="2">  1        2 0.14742035E-01 0.89101796E+02</pdfrwt>
<pdfrwt beam="1">  1       -2 0.31866089E-02 0.89101796E+02</pdfrwt>
<totfact> 0.12901921E+05</totfact>
</mgrwt>
</event>
<event>
 5   1  0.1343823E+00  0.8859268E+02  0.7818608E-02  0.1306296E+00
         -2   -1    0    0    0  501 -0.00000000000E+00  0.00000000000E+00  0.66918423523E+01  0.66918428574E+01  0.26000000000E-02 0. -1.
          2   -1    0    0  501    0  0.00000000000E+00 -0.00000000000E+00 -0.29321752321E+03  0.29321752322E+03  0.26000000000E-02 0.  1.
         23    2    1    2    0    0  0.00000000000E+00  0.00000000000E+00 -0.28652568085E+03  0.29990936607E+03  0.88592675040E+02 0.  0.
        -13    1    3    3    0    0 -0.34026971108E+02 -0.18751287278E+02 -0.21529089510E+03  0.21876843059E+03  0.10570000000E+00 0.  1.
         13    1    3    3    0    0  0.34026971108E+02  0.18751287278E+02 -0.71234785750E+02  0.81140935481E+02  0.10570000000E+00 0. -1.
<mgrwt>
<rscale>  0 0.88592675E+02</rscale>
<asrwt>0</asrwt>
<pdfrwt beam="2">  1        2 0.45110378E-01 0.88592675E+02</pdfrwt>
<pdfrwt beam="1">  1       -2 0.10295145E-02 0.88592675E+02</pdfrwt>
<totfact> 0.19231413E+05</totfact>
</mgrwt>
</event>
<event>
 5   1  0.1343823E+00  0.9104637E+02  0.7818608E-02  0.1300337E+00
          2   -1    0    0  501    0  0.00000000000E+00  0.00000000000E+00  0.68477626838E+02  0.68477626887E+02  0.26000000000E-02 0. -1.
         -2   -1    0    0    0  501 -0.00000000000E+00 -0.00000000000E+00 -0.30263322624E+02  0.30263322736E+02  0.26000000000E-02 0.  1.
         23    2    1    2    0    0  0.00000000000E+00  0.00000000000E+00  0.38214304214E+02  0.98740949624E+02  0.91046373272E+02 0.  0.
        -13    1    3    3    0    0 -0.16478931634E+01  0.37784004184E+02 -0.83719867303E+01  0.38735614857E+02  0.10570000000E+00 0. -1.
         13    1    3    3    0    0  0.16478931634E+01 -0.37784004184E+02  0.46586290944E+02  0.60005334767E+02  0.10570000000E+00 0.  1.
<mgrwt>
<rscale>  0 0.91046373E+02</rscale>
<asrwt>0</asrwt>
<pdfrwt beam="1">  1        2 0.10535019E-01 0.91046373E+02</pdfrwt>
<pdfrwt beam="2">  1       -2 0.46558959E-02 0.91046373E+02</pdfrwt>
<totfact> 0.11039162E+05</totfact>
</mgrwt>
</event>
<event>
 5   1  0.1343823E+00  0.9153332E+02  0.7818608E-02  0.1299180E+00
         -2   -1    0    0    0  501 -0.00000000000E+00  0.00000000000E+00  0.18950018611E+03  0.18950018613E+03  0.26000000000E-02 0.  1.
          2   -1    0    0  501    0  0.00000000000E+00 -0.00000000000E+00 -0.11053219593E+02  0.11053219898E+02  0.26000000000E-02 0. -1.
         23    2    1    2    0    0  0.00000000000E+00  0.00000000000E+00  0.17844696652E+03  0.20055340603E+03  0.91533320762E+02 0.  0.
        -13    1    3    3    0    0  0.38638770493E+02  0.10770482006E+02  0.13750693213E+03  0.14323800272E+03  0.10570000000E+00 0.  1.
         13    1    3    3    0    0 -0.38638770493E+02 -0.10770482006E+02  0.40940034394E+02  0.57315403309E+02  0.10570000000E+00 0. -1.
<mgrwt>
<rscale>  0 0.91533321E+02</rscale>
<asrwt>0</asrwt>
<pdfrwt beam="2">  1        2 0.17004954E-02 0.91533321E+02</pdfrwt>
<pdfrwt beam="1">  1       -2 0.29153873E-01 0.91533321E+02</pdfrwt>
<totfact> 0.63134971E+04</totfact>
</mgrwt>
</event>
<event>
 5   1  0.1343823E+00  0.9134264E+02  0.7818608E-02  0.1299632E+00
          2   -1    0    0  501    0  0.00000000000E+00  0.00000000000E+00  0.76206457623E+02  0.76206457667E+02  0.26000000000E-02 0.  1.
         -2   -1    0    0    0  501 -0.00000000000E+00 -0.00000000000E+00 -0.27371295110E+02  0.27371295233E+02  0.26000000000E-02 0. -1.
         23    2    1    2    0    0  0.00000000000E+00  0.00000000000E+00  0.48835162513E+02  0.10357775290E+03  0.91342639540E+02 0.  0.
        -13    1    3    3    0    0 -0.22363732755E+02  0.21868857513E+02 -0.13318765592E+02  0.33996825750E+02  0.10570000000E+00 0. -1.
         13    1    3    3    0    0  0.22363732755E+02 -0.21868857513E+02  0.62153928106E+02  0.69580927150E+02  0.10570000000E+00 0.  1.
<mgrwt>
<rscale>  0 0.91342640E+02</rscale>
<asrwt>0</asrwt>
<pdfrwt beam="1">  1        2 0.11724070E-01 0.91342640E+02</pdfrwt>
<pdfrwt beam="2">  1       -2 0.42109686E-02 0.91342640E+02</pdfrwt>
<totfact> 0.11270804E+05</totfact>
</mgrwt>
</event>
<event>
 5   1  0.1343823E+00  0.9624642E+02  0.7818608E-02  0.1288393E+00
         -2   -1    0    0    0  501 -0.00000000000E+00  0.00000000000E+00  0.71787582966E+02  0.71787583013E+02  0.26000000000E-02 0. -1.
          2   -1    0    0  501    0  0.00000000000E+00 -0.00000000000E+00 -0.32259663501E+02  0.32259663606E+02  0.26000000000E-02 0.  1.
         23    2    1    2    0    0  0.00000000000E+00  0.00000000000E+00  0.39527919465E+02  0.10404724662E+03  0.96246418695E+02 0.  0.
        -13    1    3    3    0    0  0.27013062129E+02 -0.34038262659E+02 -0.25885290228E+01  0.43531833242E+02  0.10570000000E+00 0. -1.
         13    1    3    3    0    0 -0.27013062129E+02  0.34038262659E+02  0.42116448487E+02  0.60515413376E+02  0.10570000000E+00 0.  1.
<mgrwt>
<rscale>  0 0.96246419E+02</rscale>
<asrwt>0</asrwt>
<pdfrwt beam="2">  1        2 0.49630252E-02 0.96246419E+02</pdfrwt>
<pdfrwt beam="1">  1       -2 0.11044243E-01 0.96246419E+02</pdfrwt>
<totfact> 0.76796001E+04</totfact>
</mgrwt>
</event>
<event>
 5   1  0.1343823E+00  0.9056788E+02  0.7818608E-02  0.1301482E+00
          2   -1    0    0  501    0  0.00000000000E+00  0.00000000000E+00  0.94278260613E+02  0.94278260649E+02  0.26000000000E-02 0. -1.
         -2   -1    0    0    0  501 -0.00000000000E+00 -0.00000000000E+00 -0.21750879678E+02  0.21750879833E+02  0.26000000000E-02 0.  1.
         23    2    1    2    0    0  0.00000000000E+00  0.00000000000E+00  0.72527380935E+02  0.11602914048E+03  0.90567877614E+02 0.  0.
        -13    1    3    3    0    0 -0.93289522049E+01 -0.16740593647E+02  0.88826639627E+02  0.90870566768E+02  0.10570000000E+00 0. -1.
         13    1    3    3    0    0  0.93289522049E+01  0.16740593647E+02 -0.16299258692E+02  0.25158573713E+02  0.10570000000E+00 0.  1.
<mgrwt>
<rscale>  0 0.90567878E+02</rscale>
<asrwt>0</asrwt>
<pdfrwt beam="1">  1        2 0.14504348E-01 0.90567878E+02</pdfrwt>
<pdfrwt beam="2">  1       -2 0.33462892E-02 0.90567878E+02</pdfrwt>
<totfact> 0.12275956E+05</totfact>
</mgrwt>
</event>
<event>
 5   1  0.1343823E+00  0.9125060E+02  0.7818608E-02  0.1299851E+00
         -2   -1    0    0    0  501 -0.00000000000E+00  0.00000000000E+00  0.17766379911E+02  0.17766380101E+02  0.26000000000E-02 0.  1.
          2   -1    0    0  501    0  0.00000000000E+00 -0.00000000000E+00 -0.11716893694E+03  0.11716893696E+03  0.26000000000E-02 0. -1.
         23    2    1    2    0    0  0.00000000000E+00  0.00000000000E+00 -0.99402557024E+02  0.13493531707E+03  0.91250596977E+02 0.  0.
        -13    1    3    3    0    0  0.10995168701E+02 -0.27572400456E+02 -0.10093732938E+03  0.10521162785E+03  0.10570000000E+00 0. -1.
         13    1    3    3    0    0 -0.10995168701E+02  0.27572400456E+02  0.15347723517E+01  0.29723689211E+02  0.10570000000E+00 0.  1.
<mgrwt>
<rscale>  0 0.91250597E+02</rscale>
<asrwt>0</asrwt>
<pdfrwt beam="2">  1        2 0.18025990E-01 0.91250597E+02</pdfrwt>
<pdfrwt beam="1">  1       -2 0.27332893E-02 0.91250597E+02</pdfrwt>
<totfact> 0.12859322E+05</totfact>
</mgrwt>
</event>
<event>
 5   1  0.1343823E+00  0.9012864E+02  0.7818608E-02  0.1302540E+00
          2   -1    0    0  501    0  0.00000000000E+00  0.00000000000E+00  0.11698505645E+03  0.11698505648E+03  0.26000000000E-02 0. -1.
         -2   -1    0    0    0  501 -0.00000000000E+00 -0.00000000000E+00 -0.17359422015E+02  0.17359422210E+02  0.26000000000E-02 0.  1.
         23    2    1    2    0    0  0.00000000000E+00  0.00000000000E+00  0.99625634432E+02  0.13434447869E+03  0.90128640937E+02 0.  0.
        -13    1    3    3    0    0 -0.26807179212E+02  0.36223700568E+02  0.49845017679E+02  0.67196118192E+02  0.10570000000E+00 0. -1.
         13    1    3    3    0    0  0.26807179212E+02 -0.36223700568E+02  0.49780616753E+02  0.67148360493E+02  0.10570000000E+00 0.  1.
<mgrwt>
<rscale>  0 0.90128641E+02</rscale>
<asrwt>0</asrwt>
<pdfrwt beam="1">  1        2 0.17997701E-01 0.90128641E+02</pdfrwt>
<pdfrwt beam="2">  1       -2 0.26706803E-02 0.90128641E+02</pdfrwt>
<totfact> 0.13294875E+05</totfact>
</mgrwt>
</event>
<event>
 5   1  0.1343823E+00  0.9444738E+02  0.7818608E-02  0.1292426E+00
          2   -1    0    0  501    0  0.00000000000E+00  0.00000000000E+00  0.23907303763E+03  0.23907303764E+03  0.26000000000E-02 0. -1.
         -2   -1    0    0    0  501 -0.00000000000E+00 -0.00000000000E+00 -0.93280140472E+01  0.93280144096E+01  0.26000000000E-02 0.  1.
         23    2    1    2    0    0  0.00000000000E+00  0.00000000000E+00  0.22974502358E+03  0.24840105205E+03  0.94447375825E+02 0.  0.
        -13    1    3    3    0    0  0.44687447914E+02 -0.15493443133E+01  0.74925475523E+02  0.87253690603E+02  0.10570000000E+00 0.  1.
         13    1    3    3    0    0 -0.44687447914E+02  0.15493443133E+01  0.15481954806E+03  0.16114736145E+03  0.10570000000E+00 0. -1.
<mgrwt>
<rscale>  0 0.94447376E+02</rscale>
<asrwt>0</asrwt>
<pdfrwt beam="1">  1        2 0.36780470E-01 0.94447376E+02</pdfrwt>
<pdfrwt beam="2">  1       -2 0.14350790E-02 0.94447376E+02</pdfrwt>
<totfact> 0.15018760E+05</totfact>
</mgrwt>
</event>
<event>
 5   1  0.1343823E+00  0.9070861E+02  0.7818608E-02  0.1301145E+00
          2   -1    0    0  501    0  0.00000000000E+00  0.00000000000E+00  0.54135035585E+02  0.54135035648E+02  0.26000000000E-02 0. -1.
         -2   -1    0    0    0  501 -0.00000000000E+00 -0.00000000000E+00 -0.37997813216E+02  0.37997813305E+02  0.26000000000E-02 0.  1.
         23    2    1    2    0    0  0.00000000000E+00  0.00000000000E+00  0.16137222369E+02  0.92132848953E+02  0.90708609902E+02 0.  0.
        -13    1    3    3    0    0 -0.31508217639E+01 -0.44378959389E+02  0.17014978580E+02  0.47633395668E+02  0.10570000000E+00 0.  1.
         13    1    3    3    0    0  0.31508217639E+01  0.44378959389E+02 -0.87775621131E+00  0.44499453285E+02  0.10570000000E+00 0. -1.
<mgrwt>
<rscale>  0 0.90708610E+02</rscale>
<asrwt>0</asrwt>
<pdfrwt beam="1">  1        2 0.83284670E-02 0.90708610E+02</pdfrwt>
<pdfrwt beam="2">  1       -2 0.58458174E-02 0.90708610E+02</pdfrwt>
<totfact> 0.10472535E+05</totfact>
</mgrwt>
</event>
<event>
 5   1  0.1343823E+00  0.9029669E+02  0.7818608E-02  0.1302135E+00
          2   -1    0    0  501    0  0.00000000000E+00  0.00000000000E+00  0.21888737827E+03  0.21888737829E+03  0.26000000000E-02 0. -1.
         -2   -1    0    0    0  501 -0.00000000000E+00 -0.00000000000E+00 -0.93124287683E+01  0.93124291312E+01  0.26000000000E-02 0.  1.
         23    2    1    2    0    0  0.00000000000E+00  0.00000000000E+00  0.20957494950E+03  0.22819980742E+03  0.90296692334E+02 0.  0.
        -13    1    3    3    0    0 -0.19312123132E+02 -0.29103705470E+02  0.32490443814E+02  0.47703499701E+02  0.10570000000E+00 0. -1.
         13    1    3    3    0    0  0.19312123132E+02  0.29103705470E+02  0.17708450569E+03  0.18049630772E+03  0.10570000000E+00 0.  1.
<mgrwt>
<rscale>  0 0.90296692E+02</rscale>
<asrwt>0</asrwt>
<pdfrwt beam="1">  1        2 0.33674982E-01 0.90296692E+02</pdfrwt>
<pdfrwt beam="2">  1       -2 0.14326813E-02 0.90296692E+02</pdfrwt>
<totfact> 0.16405867E+05</totfact>
</mgrwt>
</event>
<event>
 5   1  0.1343823E+00  0.8854721E+02  0.7818608E-02  0.1306408E+00
          2   -1    0    0  501    0  0.00000000000E+00  0.00000000000E+00  0.16781654561E+03  0.16781654563E+03  0.26000000000E-02 0. -1.
         -2   -1    0    0    0  501 -0.00000000000E+00 -0.00000000000E+00 -0.11680326772E+02  0.11680327062E+02  0.26000000000E-02 0.  1.
         23    2    1    2    0    0  0.00000000000E+00  0.00000000000E+00  0.15613621884E+03  0.17949687269E+03  0.88547210421E+02 0.  0.
        -13    1    3    3    0    0  0.28845201620E+01 -0.43289151675E+02  0.95956309099E+02  0.10530857295E+03  0.10570000000E+00 0. -1.
         13    1    3    3    0    0 -0.28845201620E+01  0.43289151675E+02  0.60179909739E+02  0.74188299738E+02  0.10570000000E+00 0.  1.
<mgrwt>
<rscale>  0 0.88547210E+02</rscale>
<asrwt>0</asrwt>
<pdfrwt beam="1">  1        2 0.25817928E-01 0.88547210E+02</pdfrwt>
<pdfrwt beam="2">  1       -2 0.17969735E-02 0.88547210E+02</pdfrwt>
<totfact> 0.15726077E+05</totfact>
</mgrwt>
</event>
<event>
 5   1  0.1343823E+00  0.9066752E+02  0.7818608E-02  0.1301243E+00
          2   -1    0    0  501    0  0.00000000000E+00  0.00000000000E+00  0.54035659564E+02  0.54035659626E+02  0.26000000000E-02 0. -1.
         -2   -1    0    0    0  501 -0.00000000000E+00 -0.00000000000E+00 -0.38033215026E+02  0.38033215115E+02  0.26000000000E-02 0.  1.
         23    2    1    2    0    0  0.00000000000E+00  0.00000000000E+00  0.16002444538E+02  0.92068874741E+02  0.90667521554E+02 0.  0.
        -13    1    3    3    0    0 -0.12552248267E+01 -0.25190105083E+02 -0.30250906672E+02  0.39385854192E+02  0.10570000000E+00 0.  1.
         13    1    3    3    0    0  0.12552248267E+01  0.25190105083E+02  0.46253351210E+02  0.52683020549E+02  0.10570000000E+00 0. -1.
<mgrwt>
<rscale>  0 0.90667522E+02</rscale>
<asrwt>0</asrwt>
<pdfrwt beam="1">  1        2 0.83131784E-02 0.90667522E+02</pdfrwt>
<pdfrwt beam="2">  1       -2 0.58512639E-02 0.90667522E+02</pdfrwt>
<totfact> 0.10480920E+05</totfact>
</mgrwt>
</event>
<event>
 5   1  0.1343823E+00  0.8759529E+02  0.7818608E-02  0.1308782E+00
          2   -1    0    0  501    0  0.00000000000E+00  0.00000000000E+00  0.27019565561E+03  0.27019565563E+03  0.26000000000E-02 0.  1.
         -2   -1    0    0    0  501 -0.00000000000E+00 -0.00000000000E+00 -0.70994244841E+01  0.70994249602E+01  0.26000000000E-02 0. -1.
         23    2    1    2    0    0  0.00000000000E+00  0.00000000000E+00  0.26309623113E+03  0.27729508059E+03  0.87595290300E+02 0.  0.
        -13    1    3    3    0    0 -0.43703636607E+02  0.28837155806E-01  0.14062078651E+03  0.14725564660E+03  0.10570000000E+00 0.  1.
         13    1    3    3    0    0  0.43703636607E+02 -0.28837155806E-01  0.12247544462E+03  0.13003943398E+03  0.10570000000E+00 0. -1.
<mgrwt>
<rscale>  0 0.87595290E+02</rscale>
<asrwt>0</asrwt>
<pdfrwt beam="1">  1        2 0.41568561E-01 0.87595290E+02</pdfrwt>
<pdfrwt beam="2">  1       -2 0.10922192E-02 0.87595290E+02</pdfrwt>
<totfact> 0.19226602E+05</totfact>
</mgrwt>
</event>
<event>
 5   1  0.1343823E+00  0.9140919E+02  0.7818608E-02  0.1299475E+00
         -2   -1    0    0    0  501 -0.00000000000E+00  0.00000000000E+00  0.61150532937E+02  0.61150532992E+02  0.26000000000E-02 0.  1.
          2   -1    0    0  501    0  0.00000000000E+00 -0.00000000000E+00 -0.34160129803E+02  0.34160129902E+02  0.26000000000E-02 0. -1.
         23    2    1    2    0    0  0.00000000000E+00  0.00000000000E+00  0.26990403134E+02  0.95310662894E+02  0.91409193192E+02 0.  0.
        -13    1    3    3    0    0  0.45362610713E+02  0.52803870889E+01  0.15374933433E+02  0.48187640418E+02  0.10570000000E+00 0. -1.
         13    1    3    3    0    0 -0.45362610713E+02 -0.52803870889E+01  0.11615469700E+02  0.47123022476E+02  0.10570000000E+00 0.  1.
<mgrwt>
<rscale>  0 0.91409193E+02</rscale>
<asrwt>0</asrwt>
<pdfrwt beam="2">  1        2 0.52554046E-02 0.91409193E+02</pdfrwt>
<pdfrwt beam="1">  1       -2 0.94077744E-02 0.91409193E+02</pdfrwt>
<totfact> 0.90872196E+04</totfact>
</mgrwt>
</event>
<event>
 5   1  0.1343823E+00  0.9901540E+02  0.7818608E-02  0.1282380E+00
          2   -1    0    0  501    0  0.00000000000E+00  0.00000000000E+00  0.16042376666E+03  0.16042376668E+03  0.26000000000E-02 0.  1.
         -2   -1    0    0    0  501 -0.00000000000E+00 -0.00000000000E+00 -0.15278362425E+02  0.15278362646E+02  0.26000000000E-02 0. -1.
         23    2    1    2    0    0  0.00000000000E+00  0.00000000000E+00  0.14514540423E+03  0.17570212933E+03  0.99015402233E+02 0.  0.
        -13    1    3    3    0    0  0.43933747944E+02 -0.22711388157E+02  0.68596912467E+02  0.84566712913E+02  0.10570000000E+00 0. -1.
         13    1    3    3    0    0 -0.43933747944E+02  0.22711388157E+02  0.76548491767E+02  0.91135416413E+02  0.10570000000E+00 0.  1.
<mgrwt>
<rscale>  0 0.99015402E+02</rscale>
<asrwt>0</asrwt>
<pdfrwt beam="1">  1        2 0.24680579E-01 0.99015402E+02</pdfrwt>
<pdfrwt beam="2">  1       -2 0.23505174E-02 0.99015402E+02</pdfrwt>
<totfact> 0.11427236E+05</totfact>
</mgrwt>
</event>
<event>
 5   1  0.1343823E+00  0.8933018E+02  0.7818608E-02  0.1304482E+00
         -2   -1    0    0    0  501 -0.00000000000E+00  0.00000000000E+00  0.78801346340E+01  0.78801350629E+01  0.26000000000E-02 0.  1.
          2   -1    0    0  501    0  0.00000000000E+00 -0.00000000000E+00 -0.25316447630E+03  0.25316447631E+03  0.26000000000E-02 0. -1.
         23    2    1    2    0    0  0.00000000000E+00  0.00000000000E+00 -0.24528434166E+03  0.26104461137E+03  0.89330178898E+02 0.  0.
        -13    1    3    3    0    0 -0.13129559740E+01  0.42667513079E+02 -0.16104701254E+03  0.16660849902E+03  0.10570000000E+00 0. -1.
         13    1    3    3    0    0  0.13129559740E+01 -0.42667513079E+02 -0.84237329121E+02  0.94436112349E+02  0.10570000000E+00 0.  1.
<mgrwt>
<rscale>  0 0.89330179E+02</rscale>
<asrwt>0</asrwt>
<pdfrwt beam="2">  1        2 0.38948375E-01 0.89330179E+02</pdfrwt>
<pdfrwt beam="1">  1       -2 0.12123286E-02 0.89330179E+02</pdfrwt>
<totfact> 0.17812319E+05</totfact>
</mgrwt>
</event>
<event>
 5   1  0.1343823E+00  0.9193518E+02  0.7818608E-02  0.1298232E+00
          2   -1    0    0  501    0  0.00000000000E+00  0.00000000000E+00  0.34703278582E+02  0.34703278679E+02  0.26000000000E-02 0. -1.
         -2   -1    0    0    0  501 -0.00000000000E+00 -0.00000000000E+00 -0.60888177003E+02  0.60888177058E+02  0.26000000000E-02 0.  1.
         23    2    1    2    0    0  0.00000000000E+00  0.00000000000E+00 -0.26184898421E+02  0.95591455737E+02  0.91935180995E+02 0.  0.
        -13    1    3    3    0    0  0.43042210400E+02  0.10451334156E+02 -0.30936689192E+00  0.44294120853E+02  0.10570000000E+00 0. -1.
         13    1    3    3    0    0 -0.43042210400E+02 -0.10451334156E+02 -0.25875531529E+02  0.51297334884E+02  0.10570000000E+00 0.  1.
<mgrwt>
<rscale>  0 0.91935181E+02</rscale>
<asrwt>0</asrwt>
<pdfrwt beam="1">  1        2 0.53389659E-02 0.91935181E+02</pdfrwt>
<pdfrwt beam="2">  1       -2 0.93674119E-02 0.91935181E+02</pdfrwt>
<totfact> 0.89724315E+04</totfact>
</mgrwt>
</event>
<event>
 5   1  0.1343823E+00  0.8312997E+02  0.7818608E-02  0.1320397E+00
          2   -1    0    0  501    0  0.00000000000E+00  0.00000000000E+00  0.42515824276E+01  0.42515832226E+01  0.26000000000E-02 0. -1.
         -2   -1    0    0    0  501 -0.00000000000E+00 -0.00000000000E+00 -0.40635406263E+03  0.40635406264E+03  0.26000000000E-02 0.  1.
         23    2    1    2    0    0  0.00000000000E+00  0.00000000000E+00 -0.40210248021E+03  0.41060564587E+03  0.83129969493E+02 0.  0.
        -13    1    3    3    0    0 -0.20372655099E+02 -0.35982860522E+02 -0.22190515690E+03  0.22572487935E+03  0.10570000000E+00 0. -1.
         13    1    3    3    0    0  0.20372655099E+02  0.35982860522E+02 -0.18019732331E+03  0.18488076651E+03  0.10570000000E+00 0.  1.
<mgrwt>
<rscale>  0 0.83129969E+02</rscale>
<asrwt>0</asrwt>
<pdfrwt beam="1">  1        2 0.65408998E-03 0.83129969E+02</pdfrwt>
<pdfrwt beam="2">  1       -2 0.62515979E-01 0.83129969E+02</pdfrwt>
<totfact> 0.53593310E+04</totfact>
</mgrwt>
</event>
<event>
 5   1  0.1343823E+00  0.9065889E+02  0.7818608E-02  0.1301264E+00
          2   -1    0    0  501    0  0.00000000000E+00  0.00000000000E+00  0.51814829204E+02  0.51814829270E+02  0.26000000000E-02 0. -1.
         -2   -1    0    0    0  501 -0.00000000000E+00 -0.00000000000E+00 -0.39655804060E+02  0.39655804146E+02  0.26000000000E-02 0.  1.
         23    2    1    2    0    0  0.00000000000E+00  0.00000000000E+00  0.12159025144E+02  0.91470633415E+02  0.90658893027E+02 0.  0.
        -13    1    3    3    0    0 -0.40699855889E+02 -0.65569700703E+01  0.25097031498E+02  0.48263280953E+02  0.10570000000E+00 0. -1.
         13    1    3    3    0    0  0.40699855889E+02  0.65569700703E+01 -0.12938006354E+02  0.43207352462E+02  0.10570000000E+00 0.  1.
<mgrwt>
<rscale>  0 0.90658893E+02</rscale>
<asrwt>0</asrwt>
<pdfrwt beam="1">  1        2 0.79715122E-02 0.90658893E+02</pdfrwt>
<pdfrwt beam="2">  1       -2 0.61008930E-02 0.90658893E+02</pdfrwt>
<totfact> 0.10369142E+05</totfact>
</mgrwt>
</event>
<event>
 5   1  0.1343823E+00  0.9095890E+02  0.7818608E-02  0.1300546E+00
         -2   -1    0    0    0  501 -0.00000000000E+00  0.00000000000E+00  0.31130539861E+03  0.31130539862E+03  0.26000000000E-02 0.  1.
          2   -1    0    0  501    0  0.00000000000E+00 -0.00000000000E+00 -0.66442157455E+01  0.66442162542E+01  0.26000000000E-02 0. -1.
         23    2    1    2    0    0  0.00000000000E+00  0.00000000000E+00  0.30466118287E+03  0.31794961488E+03  0.90958898712E+02 0.  0.
        -13    1    3    3    0    0  0.23493870316E+02 -0.34815343890E+02  0.91353965044E+02  0.10054664696E+03  0.10570000000E+00 0. -1.
         13    1    3    3    0    0 -0.23493870316E+02  0.34815343890E+02  0.21330721782E+03  0.21740296792E+03  0.10570000000E+00 0.  1.
<mgrwt>
<rscale>  0 0.90958899E+02</rscale>
<asrwt>0</asrwt>
<pdfrwt beam="2">  1        2 0.10221871E-02 0.90958899E+02</pdfrwt>
<pdfrwt beam="1">  1       -2 0.47893135E-01 0.90958899E+02</pdfrwt>
<totfact> 0.50247679E+04</totfact>
</mgrwt>
</event>
<event>
 5   1  0.1343823E+00  0.9159867E+02  0.7818608E-02  0.1299026E+00
          2   -1    0    0  501    0  0.00000000000E+00  0.00000000000E+00  0.74282579911E+01  0.74282584462E+01  0.26000000000E-02 0. -1.
         -2   -1    0    0    0  501 -0.00000000000E+00 -0.00000000000E+00 -0.28237830209E+03  0.28237830210E+03  0.26000000000E-02 0.  1.
         23    2    1    2    0    0  0.00000000000E+00  0.00000000000E+00 -0.27495004410E+03  0.28980656054E+03  0.91598666948E+02 0.  0.
        -13    1    3    3    0    0 -0.36048297763E+02 -0.13123213655E+02 -0.21662683598E+03  0.21999749032E+03  0.10570000000E+00 0.  1.
         13    1    3    3    0    0  0.36048297763E+02  0.13123213655E+02 -0.58323208118E+02  0.69809070227E+02  0.10570000000E+00 0. -1.
<mgrwt>
<rscale>  0 0.91598667E+02</rscale>
<asrwt>0</asrwt>
<pdfrwt beam="1">  1        2 0.11428092E-02 0.91598667E+02</pdfrwt>
<pdfrwt beam="2">  1       -2 0.43442807E-01 0.91598667E+02</pdfrwt>
<totfact> 0.52109275E+04</totfact>
</mgrwt>
</event>
<event>
 5   1  0.1343823E+00  0.9072107E+02  0.7818608E-02  0.1301115E+00
         -2   -1    0    0    0  501 -0.00000000000E+00  0.00000000000E+00  0.16839989590E+02  0.16839989791E+02  0.26000000000E-02 0.  1.
          2   -1    0    0  501    0  0.00000000000E+00 -0.00000000000E+00 -0.12218405424E+03  0.12218405426E+03  0.26000000000E-02 0. -1.
         23    2    1    2    0    0  0.00000000000E+00  0.00000000000E+00 -0.10534406465E+03  0.13902404405E+03  0.90721071804E+02 0.  0.
        -13    1    3    3    0    0  0.29928662241E+02  0.19247930044E+02 -0.95781100013E+02  0.10217748248E+03  0.10570000000E+00 0. -1.
         13    1    3    3    0    0 -0.29928662241E+02 -0.19247930044E+02 -0.95629646330E+01  0.36846561571E+02  0.10570000000E+00 0.  1.
<mgrwt>
<rscale>  0 0.90721072E+02</rscale>
<asrwt>0</asrwt>
<pdfrwt beam="2">  1        2 0.18797546E-01 0.90721072E+02</pdfrwt>
<pdfrwt beam="1">  1       -2 0.25907677E-02 0.90721072E+02</pdfrwt>
<totfact> 0.13241808E+05</totfact>
</mgrwt>
</event>
<event>
 5   1  0.1343823E+00  0.9069302E+02  0.7818608E-02  0.1301182E+00
          2   -1    0    0  501    0  0.00000000000E+00  0.00000000000E+00  0.15074787598E+03  0.15074787601E+03  0.26000000000E-02 0. -1.
         -2   -1    0    0    0  501 -0.00000000000E+00 -0.00000000000E+00 -0.13640696634E+02  0.13640696881E+02  0.26000000000E-02 0.  1.
         23    2    1    2    0    0  0.00000000000E+00  0.00000000000E+00  0.13710717935E+03  0.16438857289E+03  0.90693022150E+02 0.  0.
        -13    1    3    3    0    0  0.45327024253E+02 -0.13225086270E+01  0.68404809233E+02  0.82070197121E+02  0.10570000000E+00 0. -1.
         13    1    3    3    0    0 -0.45327024253E+02  0.13225086270E+01  0.68702370118E+02  0.82318375768E+02  0.10570000000E+00 0.  1.
<mgrwt>
<rscale>  0 0.90693022E+02</rscale>
<asrwt>0</asrwt>
<pdfrwt beam="1">  1        2 0.23191980E-01 0.90693022E+02</pdfrwt>
<pdfrwt beam="2">  1       -2 0.20985688E-02 0.90693022E+02</pdfrwt>
<totfact> 0.14208184E+05</totfact>
</mgrwt>
</event>
<event>
 5   1  0.1343823E+00  0.9151356E+02  0.7818608E-02  0.1299227E+00
          2   -1    0    0  501    0  0.00000000000E+00  0.00000000000E+00  0.12344851671E+03  0.12344851674E+03  0.26000000000E-02 0. -1.
         -2   -1    0    0    0  501 -0.00000000000E+00 -0.00000000000E+00 -0.16959968081E+02  0.16959968280E+02  0.26000000000E-02 0.  1.
         23    2    1    2    0    0  0.00000000000E+00  0.00000000000E+00  0.10648854863E+03  0.14040848502E+03  0.91513560065E+02 0.  0.
        -13    1    3    3    0    0  0.26335536419E+02  0.53451433405E+01 -0.35771681257E+01  0.27109746220E+02  0.10570000000E+00 0.  1.
         13    1    3    3    0    0 -0.26335536419E+02 -0.53451433405E+01  0.11006571676E+03  0.11329873880E+03  0.10570000000E+00 0. -1.
<mgrwt>
<rscale>  0 0.91513560E+02</rscale>
<asrwt>0</asrwt>
<pdfrwt beam="1">  1        2 0.18992079E-01 0.91513560E+02</pdfrwt>
<pdfrwt beam="2">  1       -2 0.26092260E-02 0.91513560E+02</pdfrwt>
<totfact> 0.12973944E+05</totfact>
</mgrwt>
</event>
<event>
 5   1  0.1343823E+00  0.8965914E+02  0.7818608E-02  0.1303679E+00
          2   -1    0    0  501    0  0.00000000000E+00  0.00000000000E+00  0.20488609612E+02  0.20488609777E+02  0.26000000000E-02 0. -1.
         -2   -1    0    0    0  501 -0.00000000000E+00 -0.00000000000E+00 -0.98088171636E+02  0.98088171670E+02  0.26000000000E-02 0.  1.
         23    2    1    2    0    0  0.00000000000E+00  0.00000000000E+00 -0.77599562024E+02  0.11857678145E+03  0.89659138252E+02 0.  0.
        -13    1    3    3    0    0  0.26578966364E+02  0.25025874065E+02 -0.73209508650E+02  0.81806962753E+02  0.10570000000E+00 0.  1.
         13    1    3    3    0    0 -0.26578966364E+02 -0.25025874065E+02 -0.43900533738E+01  0.36769818694E+02  0.10570000000E+00 0. -1.
<mgrwt>
<rscale>  0 0.89659138E+02</rscale>
<asrwt>0</asrwt>
<pdfrwt beam="1">  1        2 0.31520938E-02 0.89659138E+02</pdfrwt>
<pdfrwt beam="2">  1       -2 0.15090488E-01 0.89659138E+02</pdfrwt>
<totfact> 0.83683193E+04</totfact>
</mgrwt>
</event>
<event>
 5   1  0.1343823E+00  0.8918518E+02  0.7818608E-02  0.1304837E+00
         -2   -1    0    0    0  501 -0.00000000000E+00  0.00000000000E+00  0.14409812312E+03  0.14409812314E+03  0.26000000000E-02 0.  1.
          2   -1    0    0  501    0  0.00000000000E+00 -0.00000000000E+00 -0.13799619223E+02  0.13799619468E+02  0.26000000000E-02 0. -1.
         23    2    1    2    0    0  0.00000000000E+00  0.00000000000E+00  0.13029850389E+03  0.15789774261E+03  0.89185183770E+02 0.  0.
        -13    1    3    3    0    0  0.13701814030E+02  0.33723852229E+02  0.11075161646E+03  0.11658031411E+03  0.10570000000E+00 0.  1.
         13    1    3    3    0    0 -0.13701814030E+02 -0.33723852229E+02  0.19546887433E+02  0.41317428498E+02  0.10570000000E+00 0. -1.
<mgrwt>
<rscale>  0 0.89185184E+02</rscale>
<asrwt>0</asrwt>
<pdfrwt beam="2">  1        2 0.21230183E-02 0.89185184E+02</pdfrwt>
<pdfrwt beam="1">  1       -2 0.22168943E-01 0.89185184E+02</pdfrwt>
<totfact> 0.74939357E+04</totfact>
</mgrwt>
</event>
<event>
 5   1  0.1343823E+00  0.9131245E+02  0.7818608E-02  0.1299704E+00
         -2   -1    0    0    0  501 -0.00000000000E+00  0.00000000000E+00  0.37054616837E+02  0.37054616928E+02  0.26000000000E-02 0.  1.
          2   -1    0    0  501    0  0.00000000000E+00 -0.00000000000E+00 -0.56254553627E+02  0.56254553687E+02  0.26000000000E-02 0. -1.
         23    2    1    2    0    0  0.00000000000E+00  0.00000000000E+00 -0.19199936790E+02  0.93309170615E+02  0.91312451221E+02 0.  0.
        -13    1    3    3    0    0 -0.37833039255E+02 -0.16671514302E+02  0.10193715039E+02  0.42581700849E+02  0.10570000000E+00 0.  1.
         13    1    3    3    0    0  0.37833039255E+02  0.16671514302E+02 -0.29393651830E+02  0.50727469765E+02  0.10570000000E+00 0. -1.
<mgrwt>
<rscale>  0 0.91312451E+02</rscale>
<asrwt>0</asrwt>
<pdfrwt beam="2">  1        2 0.86545467E-02 0.91312451E+02</pdfrwt>
<pdfrwt beam="1">  1       -2 0.57007103E-02 0.91312451E+02</pdfrwt>
<totfact> 0.10382301E+05</totfact>
</mgrwt>
</event>
<event>
 5   1  0.1343823E+00  0.9583576E+02  0.7818608E-02  0.1289305E+00
          2   -1    0    0  501    0  0.00000000000E+00  0.00000000000E+00  0.80827402035E+02  0.80827402077E+02  0.26000000000E-02 0. -1.
         -2   -1    0    0    0  501 -0.00000000000E+00 -0.00000000000E+00 -0.28407734782E+02  0.28407734901E+02  0.26000000000E-02 0.  1.
         23    2    1    2    0    0  0.00000000000E+00  0.00000000000E+00  0.52419667253E+02  0.10923513698E+03  0.95835763865E+02 0.  0.
        -13    1    3    3    0    0  0.45305295421E+01 -0.29399358980E+02 -0.16609402541E+02  0.34069508826E+02  0.10570000000E+00 0.  1.
         13    1    3    3    0    0 -0.45305295421E+01  0.29399358980E+02  0.69029069794E+02  0.75165628152E+02  0.10570000000E+00 0. -1.
<mgrwt>
<rscale>  0 0.95835764E+02</rscale>
<asrwt>0</asrwt>
<pdfrwt beam="1">  1        2 0.12434985E-01 0.95835764E+02</pdfrwt>
<pdfrwt beam="2">  1       -2 0.43704208E-02 0.95835764E+02</pdfrwt>
<totfact> 0.10023406E+05</totfact>
</mgrwt>
</event>
<event>
 5   1  0.1343823E+00  0.9254266E+02  0.7818608E-02  0.1296809E+00
         -2   -1    0    0    0  501 -0.00000000000E+00  0.00000000000E+00  0.54037891559E+02  0.54037891621E+02  0.26000000000E-02 0.  1.
          2   -1    0    0  501    0  0.00000000000E+00 -0.00000000000E+00 -0.39621008589E+02  0.39621008674E+02  0.26000000000E-02 0. -1.
         23    2    1    2    0    0  0.00000000000E+00  0.00000000000E+00  0.14416882970E+02  0.93658900295E+02  0.92542655516E+02 0.  0.
        -13    1    3    3    0    0 -0.31728946912E+01  0.27423429065E+02  0.44790062654E+02  0.52614376434E+02  0.10570000000E+00 0.  1.
         13    1    3    3    0    0  0.31728946912E+01 -0.27423429065E+02 -0.30373179685E+02  0.41044523862E+02  0.10570000000E+00 0. -1.
<mgrwt>
<rscale>  0 0.92542656E+02</rscale>
<asrwt>0</asrwt>
<pdfrwt beam="2">  1        2 0.60955398E-02 0.92542656E+02</pdfrwt>
<pdfrwt beam="1">  1       -2 0.83135218E-02 0.92542656E+02</pdfrwt>
<totfact> 0.91129509E+04</totfact>
</mgrwt>
</event>
<event>
 5   1  0.1343823E+00  0.1065778E+03  0.7818608E-02  0.1267042E+00
          2   -1    0    0  501    0  0.00000000000E+00  0.00000000000E+00  0.72886181889E+02  0.72886181935E+02  0.26000000000E-02 0.  1.
         -2   -1    0    0    0  501 -0.00000000000E+00 -0.00000000000E+00 -0.38960848759E+02  0.38960848845E+02  0.26000000000E-02 0. -1.
         23    2    1    2    0    0  0.00000000000E+00  0.00000000000E+00  0.33925333130E+02  0.11184703078E+03  0.10657781226E+03 0.  0.
        -13    1    3    3    0    0  0.87639513406E+00  0.50008216074E+02 -0.23340973209E+01  0.50070439644E+02  0.10570000000E+00 0. -1.
         13    1    3    3    0    0 -0.87639513406E+00 -0.50008216074E+02  0.36259430451E+02  0.61776591137E+02  0.10570000000E+00 0.  1.
<mgrwt>
<rscale>  0 0.10657781E+03</rscale>
<asrwt>0</asrwt>
<pdfrwt beam="1">  1        2 0.11213259E-01 0.10657781E+03</pdfrwt>
<pdfrwt beam="2">  1       -2 0.59939768E-02 0.10657781E+03</pdfrwt>
<totfact> 0.71913799E+04</totfact>
</mgrwt>
</event>
<event>
 5   1  0.1343823E+00  0.7844572E+02  0.7818608E-02  0.1333521E+00
          2   -1    0    0  501    0  0.00000000000E+00  0.00000000000E+00  0.63185246923E+02  0.63185246977E+02  0.26000000000E-02 0. -1.
         -2   -1    0    0    0  501 -0.00000000000E+00 -0.00000000000E+00 -0.24347974475E+02  0.24347974613E+02  0.26000000000E-02 0.  1.
         23    2    1    2    0    0  0.00000000000E+00  0.00000000000E+00  0.38837272449E+02  0.87533221590E+02  0.78445721048E+02 0.  0.
        -13    1    3    3    0    0  0.91714724137E+01 -0.25003319275E+02 -0.12711866251E+02  0.29510753923E+02  0.10570000000E+00 0.  1.
         13    1    3    3    0    0 -0.91714724137E+01  0.25003319275E+02  0.51549138700E+02  0.58022467667E+02  0.10570000000E+00 0. -1.
<mgrwt>
<rscale>  0 0.78445721E+02</rscale>
<asrwt>0</asrwt>
<pdfrwt beam="1">  1        2 0.97208071E-02 0.78445721E+02</pdfrwt>
<pdfrwt beam="2">  1       -2 0.37458423E-02 0.78445721E+02</pdfrwt>
<totfact> 0.16327116E+05</totfact>
</mgrwt>
</event>
<event>
 5   1  0.1343823E+00  0.9085484E+02  0.7818608E-02  0.1300795E+00
         -2   -1    0    0    0  501 -0.00000000000E+00  0.00000000000E+00  0.15478844937E+03  0.15478844939E+03  0.26000000000E-02 0.  1.
          2   -1    0    0  501    0  0.00000000000E+00 -0.00000000000E+00 -0.13332069079E+02  0.13332069333E+02  0.26000000000E-02 0. -1.
         23    2    1    2    0    0  0.00000000000E+00  0.00000000000E+00  0.14145638029E+03  0.16812051872E+03  0.90854836366E+02 0.  0.
        -13    1    3    3    0    0 -0.13915928358E+02  0.25395317008E+02  0.59614478528E+01  0.29565608754E+02  0.10570000000E+00 0. -1.
         13    1    3    3    0    0  0.13915928358E+02 -0.25395317008E+02  0.13549493244E+03  0.13855490997E+03  0.10570000000E+00 0.  1.
<mgrwt>
<rscale>  0 0.90854836E+02</rscale>
<asrwt>0</asrwt>
<pdfrwt beam="2">  1        2 0.20510875E-02 0.90854836E+02</pdfrwt>
<pdfrwt beam="1">  1       -2 0.23813608E-01 0.90854836E+02</pdfrwt>
<totfact> 0.69676887E+04</totfact>
</mgrwt>
</event>
<event>
 5   1  0.1343823E+00  0.9048973E+02  0.7818608E-02  0.1301670E+00
         -2   -1    0    0    0  501 -0.00000000000E+00  0.00000000000E+00  0.14232570478E+02  0.14232570715E+02  0.26000000000E-02 0. -1.
          2   -1    0    0  501    0  0.00000000000E+00 -0.00000000000E+00 -0.14383190175E+03  0.14383190177E+03  0.26000000000E-02 0.  1.
         23    2    1    2    0    0  0.00000000000E+00  0.00000000000E+00 -0.12959933127E+03  0.15806447249E+03  0.90489727576E+02 0.  0.
        -13    1    3    3    0    0 -0.36813508256E+02 -0.26276644241E+02 -0.66859150640E+02  0.80720837580E+02  0.10570000000E+00 0.  1.
         13    1    3    3    0    0  0.36813508256E+02  0.26276644241E+02 -0.62740180630E+02  0.77343634907E+02  0.10570000000E+00 0. -1.
<mgrwt>
<rscale>  0 0.90489728E+02</rscale>
<asrwt>0</asrwt>
<pdfrwt beam="2">  1        2 0.22127984E-01 0.90489728E+02</pdfrwt>
<pdfrwt beam="1">  1       -2 0.21896263E-02 0.90489728E+02</pdfrwt>
<totfact> 0.14069693E+05</totfact>
</mgrwt>
</event>
<event>
 5   1  0.1343823E+00  0.9174220E+02  0.7818608E-02  0.1298687E+00
         -2   -1    0    0    0  501 -0.00000000000E+00  0.00000000000E+00  0.93978732283E+02  0.93978732319E+02  0.26000000000E-02 0.  1.
          2   -1    0    0  501    0  0.00000000000E+00 -0.00000000000E+00 -0.22389724716E+02  0.22389724867E+02  0.26000000000E-02 0. -1.
         23    2    1    2    0    0  0.00000000000E+00  0.00000000000E+00  0.71589007568E+02  0.11636845719E+03  0.91742203066E+02 0.  0.
        -13    1    3    3    0    0  0.33624465554E+01  0.42432319232E+02  0.57482004464E+02  0.71526217375E+02  0.10570000000E+00 0.  1.
         13    1    3    3    0    0 -0.33624465554E+01 -0.42432319232E+02  0.14107003103E+02  0.44842239811E+02  0.10570000000E+00 0. -1.
<mgrwt>
<rscale>  0 0.91742203E+02</rscale>
<asrwt>0</asrwt>
<pdfrwt beam="2">  1        2 0.34445731E-02 0.91742203E+02</pdfrwt>
<pdfrwt beam="1">  1       -2 0.14458266E-01 0.91742203E+02</pdfrwt>
<totfact> 0.80043219E+04</totfact>
</mgrwt>
</event>
<event>
 5   1  0.1343823E+00  0.8333621E+02  0.7818608E-02  0.1319842E+00
          2   -1    0    0  501    0  0.00000000000E+00  0.00000000000E+00  0.18968075251E+03  0.18968075252E+03  0.26000000000E-02 0. -1.
         -2   -1    0    0    0  501 -0.00000000000E+00 -0.00000000000E+00 -0.91534379602E+01  0.91534383294E+01  0.26000000000E-02 0.  1.
         23    2    1    2    0    0  0.00000000000E+00  0.00000000000E+00  0.18052731455E+03  0.19883419085E+03  0.83336211548E+02 0.  0.
        -13    1    3    3    0    0  0.33313690071E+02 -0.19057368819E+02  0.51553154620E+02  0.64270710096E+02  0.10570000000E+00 0.  1.
         13    1    3    3    0    0 -0.33313690071E+02  0.19057368819E+02  0.12897415993E+03  0.13456348076E+03  0.10570000000E+00 0. -1.
<mgrwt>
<rscale>  0 0.83336212E+02</rscale>
<asrwt>0</asrwt>
<pdfrwt beam="1">  1        2 0.29181657E-01 0.83336212E+02</pdfrwt>
<pdfrwt beam="2">  1       -2 0.14082211E-02 0.83336212E+02</pdfrwt>
<totfact> 0.19310882E+05</totfact>
</mgrwt>
</event>
<event>
 5   1  0.1343823E+00  0.9128635E+02  0.7818608E-02  0.1299766E+00
          2   -1    0    0  501    0  0.00000000000E+00  0.00000000000E+00  0.32828823720E+02  0.32828823823E+02  0.26000000000E-02 0. -1.
         -2   -1    0    0    0  501 -0.00000000000E+00 -0.00000000000E+00 -0.63459462618E+02  0.63459462671E+02  0.26000000000E-02 0.  1.
         23    2    1    2    0    0  0.00000000000E+00  0.00000000000E+00 -0.30630638898E+02  0.96288286494E+02  0.91286352083E+02 0.  0.
        -13    1    3    3    0    0 -0.35582301718E+02  0.27479921873E+02 -0.23623590523E+02  0.50787119464E+02  0.10570000000E+00 0. -1.
         13    1    3    3    0    0  0.35582301718E+02 -0.27479921873E+02 -0.70070483749E+01  0.45501167031E+02  0.10570000000E+00 0.  1.
<mgrwt>
<rscale>  0 0.91286352E+02</rscale>
<asrwt>0</asrwt>
<pdfrwt beam="1">  1        2 0.50505883E-02 0.91286352E+02</pdfrwt>
<pdfrwt beam="2">  1       -2 0.97629943E-02 0.91286352E+02</pdfrwt>
<totfact> 0.90283792E+04</totfact>
</mgrwt>
</event>
<event>
 5   1  0.1343823E+00  0.1144835E+03  0.7818608E-02  0.1252485E+00
         -2   -1    0    0    0  501 -0.00000000000E+00  0.00000000000E+00  0.90077584155E+01  0.90077587907E+01  0.26000000000E-02 0.  1.
          2   -1    0    0  501    0  0.00000000000E+00 -0.00000000000E+00 -0.36375525016E+03  0.36375525017E+03  0.26000000000E-02 0. -1.
         23    2    1    2    0    0  0.00000000000E+00  0.00000000000E+00 -0.35474749175E+03  0.37276300896E+03  0.11448352698E+03 0.  0.
        -13    1    3    3    0    0 -0.53819751074E+02 -0.12821595924E+02 -0.12955877204E+03  0.14087741307E+03  0.10570000000E+00 0.  1.
         13    1    3    3    0    0  0.53819751074E+02  0.12821595924E+02 -0.22518871971E+03  0.23188559590E+03  0.10570000000E+00 0. -1.
<mgrwt>
<rscale>  0 0.11448353E+03</rscale>
<asrwt>0</asrwt>
<pdfrwt beam="2">  1        2 0.55962335E-01 0.11448353E+03</pdfrwt>
<pdfrwt beam="1">  1       -2 0.13858093E-02 0.11448353E+03</pdfrwt>
<totfact> 0.10449773E+05</totfact>
</mgrwt>
</event>
<event>
 5   1  0.1343823E+00  0.9315070E+02  0.7818608E-02  0.1295396E+00
          2   -1    0    0  501    0  0.00000000000E+00  0.00000000000E+00  0.12923238378E+03  0.12923238381E+03  0.26000000000E-02 0. -1.
         -2   -1    0    0    0  501 -0.00000000000E+00 -0.00000000000E+00 -0.16785755763E+02  0.16785755965E+02  0.26000000000E-02 0.  1.
         23    2    1    2    0    0  0.00000000000E+00  0.00000000000E+00  0.11244662802E+03  0.14601813977E+03  0.93150700427E+02 0.  0.
        -13    1    3    3    0    0 -0.16283182543E+02  0.26139576906E+02  0.14525576496E+01  0.30830838632E+02  0.10570000000E+00 0.  1.
         13    1    3    3    0    0  0.16283182543E+02 -0.26139576906E+02  0.11099407037E+03  0.11518730114E+03  0.10570000000E+00 0. -1.
<mgrwt>
<rscale>  0 0.93150700E+02</rscale>
<asrwt>0</asrwt>
<pdfrwt beam="1">  1        2 0.19881906E-01 0.93150700E+02</pdfrwt>
<pdfrwt beam="2">  1       -2 0.25824239E-02 0.93150700E+02</pdfrwt>
<totfact> 0.12545837E+05</totfact>
</mgrwt>
</event>
<event>
 5   1  0.1343823E+00  0.9106700E+02  0.7818608E-02  0.1300288E+00
         -2   -1    0    0    0  501 -0.00000000000E+00  0.00000000000E+00  0.15900019261E+02  0.15900019473E+02  0.26000000000E-02 0.  1.
          2   -1    0    0  501    0  0.00000000000E+00 -0.00000000000E+00 -0.13039604180E+03  0.13039604182E+03  0.26000000000E-02 0. -1.
         23    2    1    2    0    0  0.00000000000E+00  0.00000000000E+00 -0.11449602254E+03  0.14629606130E+03  0.91066999370E+02 0.  0.
        -13    1    3    3    0    0  0.56533559834E+01  0.22546727752E+02 -0.12014630547E+03  0.12237426714E+03  0.10570000000E+00 0. -1.
         13    1    3    3    0    0 -0.56533559834E+01 -0.22546727752E+02  0.56502829337E+01  0.23921794162E+02  0.10570000000E+00 0.  1.
<mgrwt>
<rscale>  0 0.91066999E+02</rscale>
<asrwt>0</asrwt>
<pdfrwt beam="2">  1        2 0.20060929E-01 0.91066999E+02</pdfrwt>
<pdfrwt beam="1">  1       -2 0.24461569E-02 0.91066999E+02</pdfrwt>
<totfact> 0.13385327E+05</totfact>
</mgrwt>
</event>
<event>
 5   1  0.1343823E+00  0.9328218E+02  0.7818608E-02  0.1295093E+00
          2   -1    0    0  501    0  0.00000000000E+00  0.00000000000E+00  0.22219858499E+02  0.22219858651E+02  0.26000000000E-02 0. -1.
         -2   -1    0    0    0  501 -0.00000000000E+00 -0.00000000000E+00 -0.97903018514E+02  0.97903018548E+02  0.26000000000E-02 0.  1.
         23    2    1    2    0    0  0.00000000000E+00  0.00000000000E+00 -0.75683160015E+02  0.12012287720E+03  0.93282178989E+02 0.  0.
        -13    1    3    3    0    0 -0.39655485061E+02  0.29683316296E+01 -0.69226750720E+02  0.79835597798E+02  0.10570000000E+00 0.  1.
         13    1    3    3    0    0  0.39655485061E+02 -0.29683316296E+01 -0.64564092950E+01  0.40287279401E+02  0.10570000000E+00 0. -1.
<mgrwt>
<rscale>  0 0.93282179E+02</rscale>
<asrwt>0</asrwt>
<pdfrwt beam="1">  1        2 0.34184398E-02 0.93282179E+02</pdfrwt>
<pdfrwt beam="2">  1       -2 0.15062003E-01 0.93282179E+02</pdfrwt>
<totfact> 0.75877298E+04</totfact>
</mgrwt>
</event>
<event>
 5   1  0.1343823E+00  0.9320552E+02  0.7818608E-02  0.1295270E+00
          2   -1    0    0  501    0  0.00000000000E+00  0.00000000000E+00  0.19066990568E+02  0.19066990745E+02  0.26000000000E-02 0.  1.
         -2   -1    0    0    0  501 -0.00000000000E+00 -0.00000000000E+00 -0.11390457263E+03  0.11390457266E+03  0.26000000000E-02 0. -1.
         23    2    1    2    0    0  0.00000000000E+00  0.00000000000E+00 -0.94837582061E+02  0.13297156340E+03  0.93205523993E+02 0.  0.
        -13    1    3    3    0    0 -0.97769874864E+01  0.37637905819E+02 -0.10778490172E+02  0.40353295549E+02  0.10570000000E+00 0.  1.
         13    1    3    3    0    0  0.97769874864E+01 -0.37637905819E+02 -0.84059091889E+02  0.92618267855E+02  0.10570000000E+00 0. -1.
<mgrwt>
<rscale>  0 0.93205524E+02</rscale>
<asrwt>0</asrwt>
<pdfrwt beam="1">  1        2 0.29333833E-02 0.93205524E+02</pdfrwt>
<pdfrwt beam="2">  1       -2 0.17523780E-01 0.93205524E+02</pdfrwt>
<totfact> 0.72568808E+04</totfact>
</mgrwt>
</event>
<event>
 5   1  0.1343823E+00  0.9052992E+02  0.7818608E-02  0.1301573E+00
         -2   -1    0    0    0  501 -0.00000000000E+00  0.00000000000E+00  0.51236695299E+02  0.51236695364E+02  0.26000000000E-02 0.  1.
          2   -1    0    0  501    0  0.00000000000E+00 -0.00000000000E+00 -0.39989239232E+02  0.39989239316E+02  0.26000000000E-02 0. -1.
         23    2    1    2    0    0  0.00000000000E+00  0.00000000000E+00  0.11247456067E+02  0.91225934681E+02  0.90529917102E+02 0.  0.
        -13    1    3    3    0    0  0.21144617925E+01  0.17203794869E+02 -0.36512389895E+02  0.40417908097E+02  0.10570000000E+00 0. -1.
         13    1    3    3    0    0 -0.21144617925E+01 -0.17203794869E+02  0.47759845962E+02  0.50808026584E+02  0.10570000000E+00 0.  1.
<mgrwt>
<rscale>  0 0.90529917E+02</rscale>
<asrwt>0</asrwt>
<pdfrwt beam="2">  1        2 0.61521907E-02 0.90529917E+02</pdfrwt>
<pdfrwt beam="1">  1       -2 0.78825685E-02 0.90529917E+02</pdfrwt>
<totfact> 0.97366939E+04</totfact>
</mgrwt>
</event>
<event>
 5   1  0.1343823E+00  0.9801532E+02  0.7818608E-02  0.1284526E+00
         -2   -1    0    0    0  501 -0.00000000000E+00  0.00000000000E+00  0.16850418302E+02  0.16850418503E+02  0.26000000000E-02 0.  1.
          2   -1    0    0  501    0  0.00000000000E+00 -0.00000000000E+00 -0.14253359148E+03  0.14253359151E+03  0.26000000000E-02 0. -1.
         23    2    1    2    0    0  0.00000000000E+00  0.00000000000E+00 -0.12568317318E+03  0.15938401001E+03  0.98015318323E+02 0.  0.
        -13    1    3    3    0    0 -0.33066475568E+02  0.73735960338E+01 -0.12042477541E+03  0.12509955807E+03  0.10570000000E+00 0. -1.
         13    1    3    3    0    0  0.33066475568E+02 -0.73735960338E+01 -0.52583977697E+01  0.34284451936E+02  0.10570000000E+00 0.  1.
<mgrwt>
<rscale>  0 0.98015318E+02</rscale>
<asrwt>0</asrwt>
<pdfrwt beam="2">  1        2 0.21928244E-01 0.98015318E+02</pdfrwt>
<pdfrwt beam="1">  1       -2 0.25923722E-02 0.98015318E+02</pdfrwt>
<totfact> 0.11276860E+05</totfact>
</mgrwt>
</event>
<event>
 5   1  0.1343823E+00  0.6772455E+02  0.7818608E-02  0.1368006E+00
         -2   -1    0    0    0  501 -0.00000000000E+00  0.00000000000E+00  0.50555127871E+01  0.50555134556E+01  0.26000000000E-02 0.  1.
          2   -1    0    0  501    0  0.00000000000E+00 -0.00000000000E+00 -0.22681248981E+03  0.22681248982E+03  0.26000000000E-02 0. -1.
         23    2    1    2    0    0  0.00000000000E+00  0.00000000000E+00 -0.22175697702E+03  0.23186800328E+03  0.67724545675E+02 0.  0.
        -13    1    3    3    0    0  0.46731901172E+01 -0.31970873667E+02 -0.14556893620E+03  0.14911170923E+03  0.10570000000E+00 0. -1.
         13    1    3    3    0    0 -0.46731901172E+01  0.31970873667E+02 -0.76188040816E+02  0.82756294049E+02  0.10570000000E+00 0.  1.
<mgrwt>
<rscale>  0 0.67724546E+02</rscale>
<asrwt>0</asrwt>
<pdfrwt beam="2">  1        2 0.34894221E-01 0.67724546E+02</pdfrwt>
<pdfrwt beam="1">  1       -2 0.77777142E-03 0.67724546E+02</pdfrwt>
<totfact> 0.35473218E+05</totfact>
</mgrwt>
</event>
<event>
 5   1  0.1343823E+00  0.9211819E+02  0.7818608E-02  0.1297802E+00
          2   -1    0    0  501    0  0.00000000000E+00  0.00000000000E+00  0.29987862831E+02  0.29987862944E+02  0.26000000000E-02 0. -1.
         -2   -1    0    0    0  501 -0.00000000000E+00 -0.00000000000E+00 -0.70743292367E+02  0.70743292415E+02  0.26000000000E-02 0.  1.
         23    2    1    2    0    0  0.00000000000E+00  0.00000000000E+00 -0.40755429536E+02  0.10073115536E+03  0.92118188341E+02 0.  0.
        -13    1    3    3    0    0  0.27797834888E+02  0.24379123485E+02  0.96560633870E+01  0.38214029085E+02  0.10570000000E+00 0. -1.
         13    1    3    3    0    0 -0.27797834888E+02 -0.24379123485E+02 -0.50411492923E+02  0.62517126274E+02  0.10570000000E+00 0.  1.
<mgrwt>
<rscale>  0 0.92118188E+02</rscale>
<asrwt>0</asrwt>
<pdfrwt beam="1">  1        2 0.46135174E-02 0.92118188E+02</pdfrwt>
<pdfrwt beam="2">  1       -2 0.10883583E-01 0.92118188E+02</pdfrwt>
<totfact> 0.85794839E+04</totfact>
</mgrwt>
</event>
<event>
 5   1  0.1343823E+00  0.9165352E+02  0.7818608E-02  0.1298896E+00
         -2   -1    0    0    0  501 -0.00000000000E+00  0.00000000000E+00  0.85801105993E+01  0.85801109932E+01  0.26000000000E-02 0.  1.
          2   -1    0    0  501    0  0.00000000000E+00 -0.00000000000E+00 -0.24476279048E+03  0.24476279050E+03  0.26000000000E-02 0. -1.
         23    2    1    2    0    0  0.00000000000E+00  0.00000000000E+00 -0.23618267988E+03  0.25334290149E+03  0.91653518527E+02 0.  0.
        -13    1    3    3    0    0 -0.44371943880E+02 -0.11420245144E+02 -0.12054705339E+03  0.12896082606E+03  0.10570000000E+00 0. -1.
         13    1    3    3    0    0  0.44371943880E+02  0.11420245144E+02 -0.11563562649E+03  0.12438207543E+03  0.10570000000E+00 0.  1.
<mgrwt>
<rscale>  0 0.91653519E+02</rscale>
<asrwt>0</asrwt>
<pdfrwt beam="2">  1        2 0.37655809E-01 0.91653519E+02</pdfrwt>
<pdfrwt beam="1">  1       -2 0.13200172E-02 0.91653519E+02</pdfrwt>
<totfact> 0.16423817E+05</totfact>
</mgrwt>
</event>
<event>
 5   1  0.1343823E+00  0.9060424E+02  0.7818608E-02  0.1301395E+00
          2   -1    0    0  501    0  0.00000000000E+00  0.00000000000E+00  0.15774591970E+03  0.15774591973E+03  0.26000000000E-02 0. -1.
         -2   -1    0    0    0  501 -0.00000000000E+00 -0.00000000000E+00 -0.13010049592E+02  0.13010049852E+02  0.26000000000E-02 0.  1.
         23    2    1    2    0    0  0.00000000000E+00  0.00000000000E+00  0.14473587011E+03  0.17075596958E+03  0.90604244101E+02 0.  0.
        -13    1    3    3    0    0 -0.14118355132E+02 -0.41822563146E+02  0.53165326369E+02  0.69101503892E+02  0.10570000000E+00 0.  1.
         13    1    3    3    0    0  0.14118355132E+02  0.41822563146E+02  0.91570543744E+02  0.10165446569E+03  0.10570000000E+00 0. -1.
<mgrwt>
<rscale>  0 0.90604244E+02</rscale>
<asrwt>0</asrwt>
<pdfrwt beam="1">  1        2 0.24268604E-01 0.90604244E+02</pdfrwt>
<pdfrwt beam="2">  1       -2 0.20015460E-02 0.90604244E+02</pdfrwt>
<totfact> 0.14468635E+05</totfact>
</mgrwt>
</event>
<event>
 5   1  0.1343823E+00  0.9046014E+02  0.7818608E-02  0.1301741E+00
          2   -1    0    0  501    0  0.00000000000E+00  0.00000000000E+00  0.96260072885E+02  0.96260072920E+02  0.26000000000E-02 0. -1.
         -2   -1    0    0    0  501 -0.00000000000E+00 -0.00000000000E+00 -0.21252416846E+02  0.21252417005E+02  0.26000000000E-02 0.  1.
         23    2    1    2    0    0  0.00000000000E+00  0.00000000000E+00  0.75007656039E+02  0.11751248993E+03  0.90460139420E+02 0.  0.
        -13    1    3    3    0    0  0.82651174286E+01 -0.13450969617E+02 -0.17556813469E+02  0.23611302832E+02  0.10570000000E+00 0.  1.
         13    1    3    3    0    0 -0.82651174286E+01  0.13450969617E+02  0.92564469508E+02  0.93901187094E+02  0.10570000000E+00 0. -1.
<mgrwt>
<rscale>  0 0.90460139E+02</rscale>
<asrwt>0</asrwt>
<pdfrwt beam="1">  1        2 0.14809242E-01 0.90460139E+02</pdfrwt>
<pdfrwt beam="2">  1       -2 0.32696026E-02 0.90460139E+02</pdfrwt>
<totfact> 0.12393244E+05</totfact>
</mgrwt>
</event>
<event>
 5   1  0.1343823E+00  0.9171793E+02  0.7818608E-02  0.1298744E+00
          2   -1    0    0  501    0  0.00000000000E+00  0.00000000000E+00  0.39366191149E+03  0.39366191150E+03  0.26000000000E-02 0. -1.
         -2   -1    0    0    0  501 -0.00000000000E+00 -0.00000000000E+00 -0.53422602280E+01  0.53422608607E+01  0.26000000000E-02 0.  1.
         23    2    1    2    0    0  0.00000000000E+00  0.00000000000E+00  0.38831965126E+03  0.39900417236E+03  0.91717926295E+02 0.  0.
        -13    1    3    3    0    0 -0.16577603908E+02 -0.41142112642E+02  0.24480775188E+03  0.24879376386E+03  0.10570000000E+00 0.  1.
         13    1    3    3    0    0  0.16577603908E+02  0.41142112642E+02  0.14351189939E+03  0.15021040850E+03  0.10570000000E+00 0. -1.
<mgrwt>
<rscale>  0 0.91717926E+02</rscale>
<asrwt>0</asrwt>
<pdfrwt beam="1">  1        2 0.60563373E-01 0.91717926E+02</pdfrwt>
<pdfrwt beam="2">  1       -2 0.82188621E-03 0.91717926E+02</pdfrwt>
<totfact> 0.19538880E+05</totfact>
</mgrwt>
</event>
<event>
 5   1  0.1343823E+00  0.9131027E+02  0.7818608E-02  0.1299709E+00
         -2   -1    0    0    0  501 -0.00000000000E+00  0.00000000000E+00  0.17129452453E+02  0.17129452650E+02  0.26000000000E-02 0.  1.
          2   -1    0    0  501    0  0.00000000000E+00 -0.00000000000E+00 -0.12168463309E+03  0.12168463312E+03  0.26000000000E-02 0. -1.
         23    2    1    2    0    0  0.00000000000E+00  0.00000000000E+00 -0.10455518064E+03  0.13881408577E+03  0.91310265630E+02 0.  0.
        -13    1    3    3    0    0 -0.10837425120E+02  0.17212181525E+02  0.98607141155E+01  0.22604287899E+02  0.10570000000E+00 0.  1.
         13    1    3    3    0    0  0.10837425120E+02 -0.17212181525E+02 -0.11441589475E+03  0.11620979787E+03  0.10570000000E+00 0. -1.
<mgrwt>
<rscale>  0 0.91310266E+02</rscale>
<asrwt>0</asrwt>
<pdfrwt beam="2">  1        2 0.18720712E-01 0.91310266E+02</pdfrwt>
<pdfrwt beam="1">  1       -2 0.26353005E-02 0.91310266E+02</pdfrwt>
<totfact> 0.12992555E+05</totfact>
</mgrwt>
</event>
<event>
 5   1  0.1343823E+00  0.8909887E+02  0.7818608E-02  0.1305049E+00
         -2   -1    0    0    0  501 -0.00000000000E+00  0.00000000000E+00  0.11557363102E+03  0.11557363104E+03  0.26000000000E-02 0.  1.
          2   -1    0    0  501    0  0.00000000000E+00 -0.00000000000E+00 -0.17172188093E+02  0.17172188290E+02  0.26000000000E-02 0. -1.
         23    2    1    2    0    0  0.00000000000E+00  0.00000000000E+00  0.98401442922E+02  0.13274581934E+03  0.89098869700E+02 0.  0.
        -13    1    3    3    0    0 -0.20493252938E+02 -0.27353297714E+02  0.91772064721E+02  0.97930073764E+02  0.10570000000E+00 0.  1.
         13    1    3    3    0    0  0.20493252938E+02  0.27353297714E+02  0.66293782017E+01  0.34815745571E+02  0.10570000000E+00 0. -1.
<mgrwt>
<rscale>  0 0.89098870E+02</rscale>
<asrwt>0</asrwt>
<pdfrwt beam="2">  1        2 0.26418752E-02 0.89098870E+02</pdfrwt>
<pdfrwt beam="1">  1       -2 0.17780558E-01 0.89098870E+02</pdfrwt>
<totfact> 0.80865548E+04</totfact>
</mgrwt>
</event>
<event>
 5   1  0.1343823E+00  0.8852168E+02  0.7818608E-02  0.1306472E+00
          2   -1    0    0  501    0  0.00000000000E+00  0.00000000000E+00  0.36891558055E+03  0.36891558056E+03  0.26000000000E-02 0. -1.
         -2   -1    0    0    0  501 -0.00000000000E+00 -0.00000000000E+00 -0.53102169969E+01  0.53102176335E+01  0.26000000000E-02 0.  1.
         23    2    1    2    0    0  0.00000000000E+00  0.00000000000E+00  0.36360536356E+03  0.37422579820E+03  0.88521678861E+02 0.  0.
        -13    1    3    3    0    0  0.83575989777E+01 -0.41927895145E+02  0.13337738180E+03  0.14006189703E+03  0.10570000000E+00 0.  1.
         13    1    3    3    0    0 -0.83575989777E+01  0.41927895145E+02  0.23022798176E+03  0.23416390117E+03  0.10570000000E+00 0. -1.
<mgrwt>
<rscale>  0 0.88521679E+02</rscale>
<asrwt>0</asrwt>
<pdfrwt beam="1">  1        2 0.56756255E-01 0.88521679E+02</pdfrwt>
<pdfrwt beam="2">  1       -2 0.81695634E-03 0.88521679E+02</pdfrwt>
<totfact> 0.20969004E+05</totfact>
</mgrwt>
</event>
<event>
 5   1  0.1343823E+00  0.8747926E+02  0.7818608E-02  0.1309073E+00
          2   -1    0    0  501    0  0.00000000000E+00  0.00000000000E+00  0.32916226267E+03  0.32916226268E+03  0.26000000000E-02 0. -1.
         -2   -1    0    0    0  501 -0.00000000000E+00 -0.00000000000E+00 -0.58121950843E+01  0.58121956659E+01  0.26000000000E-02 0.  1.
         23    2    1    2    0    0  0.00000000000E+00  0.00000000000E+00  0.32335006759E+03  0.33497445835E+03  0.87479263466E+02 0.  0.
        -13    1    3    3    0    0 -0.41863790627E+02 -0.50798528337E+01  0.11722308051E+03  0.12457786178E+03  0.10570000000E+00 0.  1.
         13    1    3    3    0    0  0.41863790627E+02  0.50798528337E+01  0.20612698708E+03  0.21039659656E+03  0.10570000000E+00 0. -1.
<mgrwt>
<rscale>  0 0.87479263E+02</rscale>
<asrwt>0</asrwt>
<pdfrwt beam="1">  1        2 0.50640333E-01 0.87479263E+02</pdfrwt>
<pdfrwt beam="2">  1       -2 0.89418418E-03 0.87479263E+02</pdfrwt>
<totfact> 0.20756552E+05</totfact>
</mgrwt>
</event>
<event>
 5   1  0.1343823E+00  0.9184716E+02  0.7818608E-02  0.1298439E+00
         -2   -1    0    0    0  501 -0.00000000000E+00  0.00000000000E+00  0.26335155965E+02  0.26335156094E+02  0.26000000000E-02 0.  1.
          2   -1    0    0  501    0  0.00000000000E+00 -0.00000000000E+00 -0.80082128707E+02  0.80082128749E+02  0.26000000000E-02 0. -1.
         23    2    1    2    0    0  0.00000000000E+00  0.00000000000E+00 -0.53746972741E+02  0.10641728484E+03  0.91847163453E+02 0.  0.
        -13    1    3    3    0    0 -0.18277426056E+02 -0.14996835504E+02  0.18741919909E+02  0.30170185825E+02  0.10570000000E+00 0.  1.
         13    1    3    3    0    0  0.18277426056E+02  0.14996835504E+02 -0.72488892650E+02  0.76247099017E+02  0.10570000000E+00 0. -1.
<mgrwt>
<rscale>  0 0.91847163E+02</rscale>
<asrwt>0</asrwt>
<pdfrwt beam="2">  1        2 0.12320327E-01 0.91847163E+02</pdfrwt>
<pdfrwt beam="1">  1       -2 0.40515625E-02 0.91847163E+02</pdfrwt>
<totfact> 0.11257074E+05</totfact>
</mgrwt>
</event>
<event>
 5   1  0.1343823E+00  0.9082081E+02  0.7818608E-02  0.1300876E+00
         -2   -1    0    0    0  501 -0.00000000000E+00  0.00000000000E+00  0.21249778014E+03  0.21249778016E+03  0.26000000000E-02 0.  1.
          2   -1    0    0  501    0  0.00000000000E+00 -0.00000000000E+00 -0.97041245863E+01  0.97041249346E+01  0.26000000000E-02 0. -1.
         23    2    1    2    0    0  0.00000000000E+00  0.00000000000E+00  0.20279365555E+03  0.22220190509E+03  0.90820812004E+02 0.  0.
        -13    1    3    3    0    0 -0.32345905708E+02 -0.16406903167E+02  0.16824981979E+03  0.17211466271E+03  0.10570000000E+00 0.  1.
         13    1    3    3    0    0  0.32345905708E+02  0.16406903167E+02  0.34543835763E+02  0.50087242380E+02  0.10570000000E+00 0. -1.
<mgrwt>
<rscale>  0 0.90820812E+02</rscale>
<asrwt>0</asrwt>
<pdfrwt beam="2">  1        2 0.14929424E-02 0.90820812E+02</pdfrwt>
<pdfrwt beam="1">  1       -2 0.32691964E-01 0.90820812E+02</pdfrwt>
<totfact> 0.61284439E+04</totfact>
</mgrwt>
</event>
<event>
 5   1  0.1343823E+00  0.9147713E+02  0.7818608E-02  0.1299314E+00
          2   -1    0    0  501    0  0.00000000000E+00  0.00000000000E+00  0.92316917323E+02  0.92316917359E+02  0.26000000000E-02 0. -1.
         -2   -1    0    0    0  501 -0.00000000000E+00 -0.00000000000E+00 -0.22661247191E+02  0.22661247340E+02  0.26000000000E-02 0.  1.
         23    2    1    2    0    0  0.00000000000E+00  0.00000000000E+00  0.69655670132E+02  0.11497816470E+03  0.91477133625E+02 0.  0.
        -13    1    3    3    0    0  0.21370573113E+02  0.37176603280E+02  0.14827457847E+02  0.45372523683E+02  0.10570000000E+00 0.  1.
         13    1    3    3    0    0 -0.21370573113E+02 -0.37176603280E+02  0.54828212284E+02  0.69605641017E+02  0.10570000000E+00 0. -1.
<mgrwt>
<rscale>  0 0.91477134E+02</rscale>
<asrwt>0</asrwt>
<pdfrwt beam="1">  1        2 0.14202603E-01 0.91477134E+02</pdfrwt>
<pdfrwt beam="2">  1       -2 0.34863457E-02 0.91477134E+02</pdfrwt>
<totfact> 0.11867428E+05</totfact>
</mgrwt>
</event>
<event>
 5   1  0.1343823E+00  0.9125400E+02  0.7818608E-02  0.1299843E+00
          2   -1    0    0  501    0  0.00000000000E+00  0.00000000000E+00  0.21571992745E+02  0.21571992901E+02  0.26000000000E-02 0. -1.
         -2   -1    0    0    0  501 -0.00000000000E+00 -0.00000000000E+00 -0.96505834740E+02  0.96505834775E+02  0.26000000000E-02 0.  1.
         23    2    1    2    0    0  0.00000000000E+00  0.00000000000E+00 -0.74933841996E+02  0.11807782768E+03  0.91254001077E+02 0.  0.
        -13    1    3    3    0    0  0.55687063818E+01  0.43466242065E+02 -0.53910094790E+02  0.69473982057E+02  0.10570000000E+00 0.  1.
         13    1    3    3    0    0 -0.55687063818E+01 -0.43466242065E+02 -0.21023747205E+02  0.48603845620E+02  0.10570000000E+00 0. -1.
<mgrwt>
<rscale>  0 0.91254001E+02</rscale>
<asrwt>0</asrwt>
<pdfrwt beam="1">  1        2 0.33187682E-02 0.91254001E+02</pdfrwt>
<pdfrwt beam="2">  1       -2 0.14847051E-01 0.91254001E+02</pdfrwt>
<totfact> 0.80482381E+04</totfact>
</mgrwt>
</event>
<event>
 5   1  0.1343823E+00  0.8924366E+02  0.7818608E-02  0.1304694E+00
         -2   -1    0    0    0  501 -0.00000000000E+00  0.00000000000E+00  0.52503384653E+02  0.52503384717E+02  0.26000000000E-02 0.  1.
          2   -1    0    0  501    0  0.00000000000E+00 -0.00000000000E+00 -0.37923416358E+02  0.37923416447E+02  0.26000000000E-02 0. -1.
         23    2    1    2    0    0  0.00000000000E+00  0.00000000000E+00  0.14579968295E+02  0.90426801164E+02  0.89243660241E+02 0.  0.
        -13    1    3    3    0    0  0.65249463177E+01  0.35445552696E+02 -0.19367245764E+02  0.40915321230E+02  0.10570000000E+00 0. -1.
         13    1    3    3    0    0 -0.65249463177E+01 -0.35445552696E+02  0.33947214060E+02  0.49511479934E+02  0.10570000000E+00 0.  1.
<mgrwt>
<rscale>  0 0.89243660E+02</rscale>
<asrwt>0</asrwt>
<pdfrwt beam="2">  1        2 0.58343718E-02 0.89243660E+02</pdfrwt>
<pdfrwt beam="1">  1       -2 0.80774438E-02 0.89243660E+02</pdfrwt>
<totfact> 0.10011110E+05</totfact>
</mgrwt>
</event>
<event>
 5   1  0.1343823E+00  0.9614417E+02  0.7818608E-02  0.1288620E+00
          2   -1    0    0  501    0  0.00000000000E+00  0.00000000000E+00  0.24108777980E+03  0.24108777982E+03  0.26000000000E-02 0. -1.
         -2   -1    0    0    0  501 -0.00000000000E+00 -0.00000000000E+00 -0.95854113033E+01  0.95854116559E+01  0.26000000000E-02 0.  1.
         23    2    1    2    0    0  0.00000000000E+00  0.00000000000E+00  0.23150236850E+03  0.25067319147E+03  0.96144174563E+02 0.  0.
        -13    1    3    3    0    0  0.23145906200E+02 -0.41680328500E+02  0.99693394907E+02  0.11050686367E+03  0.10570000000E+00 0.  1.
         13    1    3    3    0    0 -0.23145906200E+02  0.41680328500E+02  0.13180897359E+03  0.14016632780E+03  0.10570000000E+00 0. -1.
<mgrwt>
<rscale>  0 0.96144175E+02</rscale>
<asrwt>0</asrwt>
<pdfrwt beam="1">  1        2 0.37090423E-01 0.96144175E+02</pdfrwt>
<pdfrwt beam="2">  1       -2 0.14746789E-02 0.96144175E+02</pdfrwt>
<totfact> 0.14359598E+05</totfact>
</mgrwt>
</event>
<event>
 5   1  0.1343823E+00  0.6205873E+02  0.7818608E-02  0.1389390E+00
          2   -1    0    0  501    0  0.00000000000E+00  0.00000000000E+00  0.37331097472E+02  0.37331097563E+02  0.26000000000E-02 0. -1.
         -2   -1    0    0    0  501 -0.00000000000E+00 -0.00000000000E+00 -0.25791403189E+02  0.25791403320E+02  0.26000000000E-02 0.  1.
         23    2    1    2    0    0  0.00000000000E+00  0.00000000000E+00  0.11539694283E+02  0.63122500883E+02  0.62058726813E+02 0.  0.
        -13    1    3    3    0    0  0.47479631190E+01  0.24954174744E+02 -0.12355722086E+02  0.28247637631E+02  0.10570000000E+00 0. -1.
         13    1    3    3    0    0 -0.47479631190E+01 -0.24954174744E+02  0.23895416369E+02  0.34874863253E+02  0.10570000000E+00 0.  1.
<mgrwt>
<rscale>  0 0.62058727E+02</rscale>
<asrwt>0</asrwt>
<pdfrwt beam="1">  1        2 0.57432458E-02 0.62058727E+02</pdfrwt>
<pdfrwt beam="2">  1       -2 0.39679082E-02 0.62058727E+02</pdfrwt>
<totfact> 0.27488871E+05</totfact>
</mgrwt>
</event>
<event>
 5   1  0.1343823E+00  0.9070962E+02  0.7818608E-02  0.1301142E+00
         -2   -1    0    0    0  501 -0.00000000000E+00  0.00000000000E+00  0.61474137516E+02  0.61474137571E+02  0.26000000000E-02 0.  1.
          2   -1    0    0  501    0  0.00000000000E+00 -0.00000000000E+00 -0.33462181333E+02  0.33462181434E+02  0.26000000000E-02 0. -1.
         23    2    1    2    0    0  0.00000000000E+00  0.00000000000E+00  0.28011956184E+02  0.94936319005E+02  0.90709618988E+02 0.  0.
        -13    1    3    3    0    0 -0.20689327967E+02 -0.39009792900E+02  0.31680065032E+01  0.44270302366E+02  0.10570000000E+00 0. -1.
         13    1    3    3    0    0  0.20689327967E+02  0.39009792900E+02  0.24843949680E+02  0.50666016639E+02  0.10570000000E+00 0.  1.
<mgrwt>
<rscale>  0 0.90709619E+02</rscale>
<asrwt>0</asrwt>
<pdfrwt beam="2">  1        2 0.51480279E-02 0.90709619E+02</pdfrwt>
<pdfrwt beam="1">  1       -2 0.94575596E-02 0.90709619E+02</pdfrwt>
<totfact> 0.92444096E+04</totfact>
</mgrwt>
</event>
<event>
 5   1  0.1343823E+00  0.9308236E+02  0.7818608E-02  0.1295554E+00
          2   -1    0    0  501    0  0.00000000000E+00  0.00000000000E+00  0.17025511300E+03  0.17025511302E+03  0.26000000000E-02 0. -1.
         -2   -1    0    0    0  501 -0.00000000000E+00 -0.00000000000E+00 -0.12722562429E+02  0.12722562695E+02  0.26000000000E-02 0.  1.
         23    2    1    2    0    0  0.00000000000E+00  0.00000000000E+00  0.15753255058E+03  0.18297767572E+03  0.93082357732E+02 0.  0.
        -13    1    3    3    0    0  0.41169906374E+02  0.20555140371E+02  0.92469642311E+02  0.10328659598E+03  0.10570000000E+00 0. -1.
         13    1    3    3    0    0 -0.41169906374E+02 -0.20555140371E+02  0.65062908264E+02  0.79691079744E+02  0.10570000000E+00 0.  1.
<mgrwt>
<rscale>  0 0.93082358E+02</rscale>
<asrwt>0</asrwt>
<pdfrwt beam="1">  1        2 0.26193092E-01 0.93082358E+02</pdfrwt>
<pdfrwt beam="2">  1       -2 0.19573175E-02 0.93082358E+02</pdfrwt>
<totfact> 0.13809498E+05</totfact>
</mgrwt>
</event>
<event>
 5   1  0.1343823E+00  0.9392147E+02  0.7818608E-02  0.1293624E+00
          2   -1    0    0  501    0  0.00000000000E+00  0.00000000000E+00  0.14056163443E+03  0.14056163446E+03  0.26000000000E-02 0. -1.
         -2   -1    0    0    0  501 -0.00000000000E+00 -0.00000000000E+00 -0.15689280023E+02  0.15689280239E+02  0.26000000000E-02 0.  1.
         23    2    1    2    0    0  0.00000000000E+00  0.00000000000E+00  0.12487235441E+03  0.15625091470E+03  0.93921474900E+02 0.  0.
        -13    1    3    3    0    0 -0.28565071032E+02 -0.36401398999E+02  0.75773762541E+02  0.88784567320E+02  0.10570000000E+00 0. -1.
         13    1    3    3    0    0  0.28565071032E+02  0.36401398999E+02  0.49098591869E+02  0.67466347375E+02  0.10570000000E+00 0.  1.
<mgrwt>
<rscale>  0 0.93921475E+02</rscale>
<asrwt>0</asrwt>
<pdfrwt beam="1">  1        2 0.21624866E-01 0.93921475E+02</pdfrwt>
<pdfrwt beam="2">  1       -2 0.24137354E-02 0.93921475E+02</pdfrwt>
<totfact> 0.12614926E+05</totfact>
</mgrwt>
</event>
<event>
 5   1  0.1343823E+00  0.9210492E+02  0.7818608E-02  0.1297833E+00
          2   -1    0    0  501    0  0.00000000000E+00  0.00000000000E+00  0.29214981522E+02  0.29214981638E+02  0.26000000000E-02 0.  1.
         -2   -1    0    0    0  501 -0.00000000000E+00 -0.00000000000E+00 -0.72593891831E+02  0.72593891878E+02  0.26000000000E-02 0. -1.
         23    2    1    2    0    0  0.00000000000E+00  0.00000000000E+00 -0.43378910310E+02  0.10180887352E+03  0.92104923141E+02 0.  0.
        -13    1    3    3    0    0  0.27792700327E+02 -0.33305150757E+02 -0.38783258123E+02  0.58187795469E+02  0.10570000000E+00 0. -1.
         13    1    3    3    0    0 -0.27792700327E+02  0.33305150757E+02 -0.45956521869E+01  0.43621078047E+02  0.10570000000E+00 0.  1.
<mgrwt>
<rscale>  0 0.92104923E+02</rscale>
<asrwt>0</asrwt>
<pdfrwt beam="1">  1        2 0.44946126E-02 0.92104923E+02</pdfrwt>
<pdfrwt beam="2">  1       -2 0.11168291E-01 0.92104923E+02</pdfrwt>
<totfact> 0.85227517E+04</totfact>
</mgrwt>
</event>
<event>
 5   1  0.1343823E+00  0.8320561E+02  0.7818608E-02  0.1320193E+00
         -2   -1    0    0    0  501 -0.00000000000E+00  0.00000000000E+00  0.13988840384E+02  0.13988840625E+02  0.26000000000E-02 0.  1.
          2   -1    0    0  501    0  0.00000000000E+00 -0.00000000000E+00 -0.12372671083E+03  0.12372671086E+03  0.26000000000E-02 0. -1.
         23    2    1    2    0    0  0.00000000000E+00  0.00000000000E+00 -0.10973787045E+03  0.13771555148E+03  0.83205606242E+02 0.  0.
        -13    1    3    3    0    0  0.22403813750E+02 -0.34773786400E+02 -0.62203011963E+02  0.74701893958E+02  0.10570000000E+00 0.  1.
         13    1    3    3    0    0 -0.22403813750E+02  0.34773786400E+02 -0.47534858482E+02  0.63013657524E+02  0.10570000000E+00 0. -1.
<mgrwt>
<rscale>  0 0.83205606E+02</rscale>
<asrwt>0</asrwt>
<pdfrwt beam="2">  1        2 0.19034878E-01 0.83205606E+02</pdfrwt>
<pdfrwt beam="1">  1       -2 0.21521294E-02 0.83205606E+02</pdfrwt>
<totfact> 0.16808903E+05</totfact>
</mgrwt>
</event>
<event>
 5   1  0.1343823E+00  0.9304051E+02  0.7818608E-02  0.1295651E+00
         -2   -1    0    0    0  501 -0.00000000000E+00  0.00000000000E+00  0.10281444838E+03  0.10281444841E+03  0.26000000000E-02 0.  1.
          2   -1    0    0  501    0  0.00000000000E+00 -0.00000000000E+00 -0.21048931654E+02  0.21048931815E+02  0.26000000000E-02 0. -1.
         23    2    1    2    0    0  0.00000000000E+00  0.00000000000E+00  0.81765516724E+02  0.12386338023E+03  0.93040513948E+02 0.  0.
        -13    1    3    3    0    0 -0.37349097756E+02 -0.11884435916E+02  0.74242741798E+02  0.83953503812E+02  0.10570000000E+00 0.  1.
         13    1    3    3    0    0  0.37349097756E+02  0.11884435916E+02  0.75227749268E+01  0.39909876413E+02  0.10570000000E+00 0. -1.
<mgrwt>
<rscale>  0 0.93040514E+02</rscale>
<asrwt>0</asrwt>
<pdfrwt beam="2">  1        2 0.32382972E-02 0.93040514E+02</pdfrwt>
<pdfrwt beam="1">  1       -2 0.15817607E-01 0.93040514E+02</pdfrwt>
<totfact> 0.75249838E+04</totfact>
</mgrwt>
</event>
<event>
 5   1  0.1343823E+00  0.7993658E+02  0.7818608E-02  0.1329232E+00
         -2   -1    0    0    0  501 -0.00000000000E+00  0.00000000000E+00  0.59473681307E+02  0.59473681364E+02  0.26000000000E-02 0.  1.
          2   -1    0    0  501    0  0.00000000000E+00 -0.00000000000E+00 -0.26860020277E+02  0.26860020403E+02  0.26000000000E-02 0. -1.
         23    2    1    2    0    0  0.00000000000E+00  0.00000000000E+00  0.32613661030E+02  0.86333701766E+02  0.79936582207E+02 0.  0.
        -13    1    3    3    0    0 -0.24143199160E+02 -0.90674528910E+01 -0.16670995934E+02  0.30709054781E+02  0.10570000000E+00 0. -1.
         13    1    3    3    0    0  0.24143199160E+02  0.90674528910E+01  0.49284656964E+02  0.55624646985E+02  0.10570000000E+00 0.  1.
<mgrwt>
<rscale>  0 0.79936582E+02</rscale>
<asrwt>0</asrwt>
<pdfrwt beam="2">  1        2 0.41323109E-02 0.79936582E+02</pdfrwt>
<pdfrwt beam="1">  1       -2 0.91497970E-02 0.79936582E+02</pdfrwt>
<totfact> 0.12654347E+05</totfact>
</mgrwt>
</event>
<event>
 5   1  0.1343823E+00  0.9770516E+02  0.7818608E-02  0.1285197E+00
         -2   -1    0    0    0  501 -0.00000000000E+00  0.00000000000E+00  0.20486407072E+03  0.20486407073E+03  0.26000000000E-02 0.  1.
          2   -1    0    0  501    0  0.00000000000E+00 -0.00000000000E+00 -0.11649550681E+02  0.11649550971E+02  0.26000000000E-02 0. -1.
         23    2    1    2    0    0  0.00000000000E+00  0.00000000000E+00  0.19321452003E+03  0.21651362170E+03  0.97705156622E+02 0.  0.
        -13    1    3    3    0    0  0.19254486313E+02  0.44762066687E+02  0.88871780507E+02  0.10135374882E+03  0.10570000000E+00 0.  1.
         13    1    3    3    0    0 -0.19254486313E+02 -0.44762066687E+02  0.10434273953E+03  0.11515987288E+03  0.10570000000E+00 0. -1.
<mgrwt>
<rscale>  0 0.97705157E+02</rscale>
<asrwt>0</asrwt>
<pdfrwt beam="2">  1        2 0.17922388E-02 0.97705157E+02</pdfrwt>
<pdfrwt beam="1">  1       -2 0.31517547E-01 0.97705157E+02</pdfrwt>
<totfact> 0.51666544E+04</totfact>
</mgrwt>
</event>
<event>
 5   1  0.1343823E+00  0.9237404E+02  0.7818608E-02  0.1297202E+00
         -2   -1    0    0    0  501 -0.00000000000E+00  0.00000000000E+00  0.67955134602E+01  0.67955139576E+01  0.26000000000E-02 0.  1.
          2   -1    0    0  501    0  0.00000000000E+00 -0.00000000000E+00 -0.31391896284E+03  0.31391896285E+03  0.26000000000E-02 0. -1.
         23    2    1    2    0    0  0.00000000000E+00  0.00000000000E+00 -0.30712344938E+03  0.32071447681E+03  0.92374035722E+02 0.  0.
        -13    1    3    3    0    0  0.30089829456E+02  0.34717022908E+02 -0.13707108429E+03  0.14456542754E+03  0.10570000000E+00 0.  1.
         13    1    3    3    0    0 -0.30089829456E+02 -0.34717022908E+02 -0.17005236509E+03  0.17614904927E+03  0.10570000000E+00 0. -1.
<mgrwt>
<rscale>  0 0.92374036E+02</rscale>
<asrwt>0</asrwt>
<pdfrwt beam="2">  1        2 0.48295214E-01 0.92374036E+02</pdfrwt>
<pdfrwt beam="1">  1       -2 0.10454639E-02 0.92374036E+02</pdfrwt>
<totfact> 0.17646209E+05</totfact>
</mgrwt>
</event>
<event>
 5   1  0.1343823E+00  0.9045487E+02  0.7818608E-02  0.1301754E+00
          2   -1    0    0  501    0  0.00000000000E+00  0.00000000000E+00  0.75226184050E+02  0.75226184095E+02  0.26000000000E-02 0. -1.
         -2   -1    0    0    0  501 -0.00000000000E+00 -0.00000000000E+00 -0.27191608552E+02  0.27191608677E+02  0.26000000000E-02 0.  1.
         23    2    1    2    0    0  0.00000000000E+00  0.00000000000E+00  0.48034575498E+02  0.10241779277E+03  0.90454871803E+02 0.  0.
        -13    1    3    3    0    0 -0.87890110981E+01 -0.11560231979E+02 -0.24479949346E+02  0.28463393543E+02  0.10570000000E+00 0.  1.
         13    1    3    3    0    0  0.87890110981E+01  0.11560231979E+02  0.72514524844E+02  0.73954399229E+02  0.10570000000E+00 0. -1.
<mgrwt>
<rscale>  0 0.90454872E+02</rscale>
<asrwt>0</asrwt>
<pdfrwt beam="1">  1        2 0.11573259E-01 0.90454872E+02</pdfrwt>
<pdfrwt beam="2">  1       -2 0.41833245E-02 0.90454872E+02</pdfrwt>
<totfact> 0.11539333E+05</totfact>
</mgrwt>
</event>
<event>
 5   1  0.1343823E+00  0.9204232E+02  0.7818608E-02  0.1297980E+00
         -2   -1    0    0    0  501 -0.00000000000E+00  0.00000000000E+00  0.97826094663E+01  0.97826098118E+01  0.26000000000E-02 0.  1.
          2   -1    0    0  501    0  0.00000000000E+00 -0.00000000000E+00 -0.21650123246E+03  0.21650123248E+03  0.26000000000E-02 0. -1.
         23    2    1    2    0    0  0.00000000000E+00  0.00000000000E+00 -0.20671862300E+03  0.22628384229E+03  0.92042317376E+02 0.  0.
        -13    1    3    3    0    0 -0.63511621038E+01  0.40166452836E+02 -0.50387582855E+02  0.64750296308E+02  0.10570000000E+00 0.  1.
         13    1    3    3    0    0  0.63511621038E+01 -0.40166452836E+02 -0.15633104014E+03  0.16153354598E+03  0.10570000000E+00 0. -1.
<mgrwt>
<rscale>  0 0.92042317E+02</rscale>
<asrwt>0</asrwt>
<pdfrwt beam="2">  1        2 0.33307878E-01 0.92042317E+02</pdfrwt>
<pdfrwt beam="1">  1       -2 0.15050170E-02 0.92042317E+02</pdfrwt>
<totfact> 0.15520776E+05</totfact>
</mgrwt>
</event>
<event>
 5   1  0.1343823E+00  0.9107060E+02  0.7818608E-02  0.1300280E+00
          2   -1    0    0  501    0  0.00000000000E+00  0.00000000000E+00  0.32516600414E+02  0.32516600518E+02  0.26000000000E-02 0. -1.
         -2   -1    0    0    0  501 -0.00000000000E+00 -0.00000000000E+00 -0.63766308305E+02  0.63766308358E+02  0.26000000000E-02 0.  1.
         23    2    1    2    0    0  0.00000000000E+00  0.00000000000E+00 -0.31249707891E+02  0.96282908876E+02  0.91070600626E+02 0.  0.
        -13    1    3    3    0    0  0.43079701643E+02 -0.84221661985E+01 -0.28428247712E+02  0.52296940805E+02  0.10570000000E+00 0.  1.
         13    1    3    3    0    0 -0.43079701643E+02  0.84221661985E+01 -0.28214601788E+01  0.43985968071E+02  0.10570000000E+00 0. -1.
<mgrwt>
<rscale>  0 0.91070601E+02</rscale>
<asrwt>0</asrwt>
<pdfrwt beam="1">  1        2 0.50025539E-02 0.91070601E+02</pdfrwt>
<pdfrwt beam="2">  1       -2 0.98102013E-02 0.91070601E+02</pdfrwt>
<totfact> 0.90687310E+04</totfact>
</mgrwt>
</event>
<event>
 5   1  0.1343823E+00  0.8972662E+02  0.7818608E-02  0.1303515E+00
          2   -1    0    0  501    0  0.00000000000E+00  0.00000000000E+00  0.56638915642E+02  0.56638915701E+02  0.26000000000E-02 0. -1.
         -2   -1    0    0    0  501 -0.00000000000E+00 -0.00000000000E+00 -0.35535927338E+02  0.35535927433E+02  0.26000000000E-02 0.  1.
         23    2    1    2    0    0  0.00000000000E+00  0.00000000000E+00  0.21102988304E+02  0.92174843134E+02  0.89726615848E+02 0.  0.
        -13    1    3    3    0    0 -0.90311192074E+01  0.42537440435E+02  0.21884751131E+02  0.48682116403E+02  0.10570000000E+00 0. -1.
         13    1    3    3    0    0  0.90311192074E+01 -0.42537440435E+02 -0.78176282700E+00  0.43492726731E+02  0.10570000000E+00 0.  1.
<mgrwt>
<rscale>  0 0.89726616E+02</rscale>
<asrwt>0</asrwt>
<pdfrwt beam="1">  1        2 0.87136792E-02 0.89726616E+02</pdfrwt>
<pdfrwt beam="2">  1       -2 0.54670658E-02 0.89726616E+02</pdfrwt>
<totfact> 0.10928716E+05</totfact>
</mgrwt>
</event>
<event>
 5   1  0.1343823E+00  0.9359581E+02  0.7818608E-02  0.1294370E+00
         -2   -1    0    0    0  501 -0.00000000000E+00  0.00000000000E+00  0.30637599188E+02  0.30637599299E+02  0.26000000000E-02 0.  1.
          2   -1    0    0  501    0  0.00000000000E+00 -0.00000000000E+00 -0.71482222614E+02  0.71482222661E+02  0.26000000000E-02 0. -1.
         23    2    1    2    0    0  0.00000000000E+00  0.00000000000E+00 -0.40844623426E+02  0.10211982196E+03  0.93595805325E+02 0.  0.
        -13    1    3    3    0    0  0.21758502299E+01  0.13776167532E+02 -0.69161827012E+02  0.70554139526E+02  0.10570000000E+00 0. -1.
         13    1    3    3    0    0 -0.21758502299E+01 -0.13776167532E+02  0.28317203586E+02  0.31565682434E+02  0.10570000000E+00 0.  1.
<mgrwt>
<rscale>  0 0.93595805E+02</rscale>
<asrwt>0</asrwt>
<pdfrwt beam="2">  1        2 0.10997265E-01 0.93595805E+02</pdfrwt>
<pdfrwt beam="1">  1       -2 0.47134768E-02 0.93595805E+02</pdfrwt>
<totfact> 0.10339007E+05</totfact>
</mgrwt>
</event>
<event>
 5   1  0.1343823E+00  0.9071860E+02  0.7818608E-02  0.1301121E+00
          2   -1    0    0  501    0  0.00000000000E+00  0.00000000000E+00  0.66747282838E+02  0.66747282889E+02  0.26000000000E-02 0.  1.
         -2   -1    0    0    0  501 -0.00000000000E+00 -0.00000000000E+00 -0.30824714560E+02  0.30824714670E+02  0.26000000000E-02 0. -1.
         23    2    1    2    0    0  0.00000000000E+00  0.00000000000E+00  0.35922568278E+02  0.97571997559E+02  0.90718596748E+02 0.  0.
        -13    1    3    3    0    0  0.17599333176E+02 -0.21571022552E+00  0.62924648686E+02  0.65339923813E+02  0.10570000000E+00 0.  1.
         13    1    3    3    0    0 -0.17599333176E+02  0.21571022552E+00 -0.27002080407E+02  0.32232073746E+02  0.10570000000E+00 0. -1.
<mgrwt>
<rscale>  0 0.90718597E+02</rscale>
<asrwt>0</asrwt>
<pdfrwt beam="1">  1        2 0.10268813E-01 0.90718597E+02</pdfrwt>
<pdfrwt beam="2">  1       -2 0.47422638E-02 0.90718597E+02</pdfrwt>
<totfact> 0.11073106E+05</totfact>
</mgrwt>
</event>
<event>
 5   1  0.1343823E+00  0.8914733E+02  0.7818608E-02  0.1304930E+00
          2   -1    0    0  501    0  0.00000000000E+00  0.00000000000E+00  0.74881500489E+02  0.74881500534E+02  0.26000000000E-02 0.  1.
         -2   -1    0    0    0  501 -0.00000000000E+00 -0.00000000000E+00 -0.26532740883E+02  0.26532741011E+02  0.26000000000E-02 0. -1.
         23    2    1    2    0    0  0.00000000000E+00  0.00000000000E+00  0.48348759606E+02  0.10141424154E+03  0.89147326560E+02 0.  0.
        -13    1    3    3    0    0 -0.40032073445E+02 -0.40212675392E+01  0.45999245484E+02  0.61112022177E+02  0.10570000000E+00 0.  1.
         13    1    3    3    0    0  0.40032073445E+02  0.40212675392E+01  0.23495141213E+01  0.40302219368E+02  0.10570000000E+00 0. -1.
<mgrwt>
<rscale>  0 0.89147327E+02</rscale>
<asrwt>0</asrwt>
<pdfrwt beam="1">  1        2 0.11520231E-01 0.89147327E+02</pdfrwt>
<pdfrwt beam="2">  1       -2 0.40819601E-02 0.89147327E+02</pdfrwt>
<totfact> 0.12000269E+05</totfact>
</mgrwt>
</event>
<event>
 5   1  0.1343823E+00  0.9207816E+02  0.7818608E-02  0.1297896E+00
          2   -1    0    0  501    0  0.00000000000E+00  0.00000000000E+00  0.18926771233E+02  0.18926771412E+02  0.26000000000E-02 0. -1.
         -2   -1    0    0    0  501 -0.00000000000E+00 -0.00000000000E+00 -0.11198935691E+03  0.11198935694E+03  0.26000000000E-02 0.  1.
         23    2    1    2    0    0  0.00000000000E+00  0.00000000000E+00 -0.93062585680E+02  0.13091612836E+03  0.92078161418E+02 0.  0.
        -13    1    3    3    0    0 -0.32354418518E+02 -0.88975428265E+01 -0.91348494350E+02  0.97316664855E+02  0.10570000000E+00 0.  1.
         13    1    3    3    0    0  0.32354418518E+02  0.88975428265E+01 -0.17140913307E+01  0.33599463501E+02  0.10570000000E+00 0. -1.
<mgrwt>
<rscale>  0 0.92078161E+02</rscale>
<asrwt>0</asrwt>
<pdfrwt beam="1">  1        2 0.29118110E-02 0.92078161E+02</pdfrwt>
<pdfrwt beam="2">  1       -2 0.17229131E-01 0.92078161E+02</pdfrwt>
<totfact> 0.75216982E+04</totfact>
</mgrwt>
</event>
<event>
 5   1  0.1343823E+00  0.9067988E+02  0.7818608E-02  0.1301214E+00
         -2   -1    0    0    0  501 -0.00000000000E+00  0.00000000000E+00  0.13413402223E+02  0.13413402475E+02  0.26000000000E-02 0.  1.
          2   -1    0    0  501    0  0.00000000000E+00 -0.00000000000E+00 -0.15325792787E+03  0.15325792789E+03  0.26000000000E-02 0. -1.
         23    2    1    2    0    0  0.00000000000E+00  0.00000000000E+00 -0.13984452564E+03  0.16667133036E+03  0.90679882073E+02 0.  0.
        -13    1    3    3    0    0  0.44671929816E+02  0.70001753092E+01 -0.63794375082E+02  0.78194099730E+02  0.10570000000E+00 0.  1.
         13    1    3    3    0    0 -0.44671929816E+02 -0.70001753092E+01 -0.76050150562E+02  0.88477230635E+02  0.10570000000E+00 0. -1.
<mgrwt>
<rscale>  0 0.90679882E+02</rscale>
<asrwt>0</asrwt>
<pdfrwt beam="2">  1        2 0.23578141E-01 0.90679882E+02</pdfrwt>
<pdfrwt beam="1">  1       -2 0.20636005E-02 0.90679882E+02</pdfrwt>
<totfact> 0.14293974E+05</totfact>
</mgrwt>
</event>
<event>
 5   1  0.1343823E+00  0.9080825E+02  0.7818608E-02  0.1300906E+00
          2   -1    0    0  501    0  0.00000000000E+00  0.00000000000E+00  0.67748364882E+02  0.67748364932E+02  0.26000000000E-02 0. -1.
         -2   -1    0    0    0  501 -0.00000000000E+00 -0.00000000000E+00 -0.30429289366E+02  0.30429289477E+02  0.26000000000E-02 0.  1.
         23    2    1    2    0    0  0.00000000000E+00  0.00000000000E+00  0.37319075516E+02  0.98177654408E+02  0.90808250879E+02 0.  0.
        -13    1    3    3    0    0 -0.39792337093E+02 -0.76437483966E+01 -0.34887148919E+01  0.40669881792E+02  0.10570000000E+00 0.  1.
         13    1    3    3    0    0  0.39792337093E+02  0.76437483966E+01  0.40807790408E+02  0.57507772617E+02  0.10570000000E+00 0. -1.
<mgrwt>
<rscale>  0 0.90808251E+02</rscale>
<asrwt>0</asrwt>
<pdfrwt beam="1">  1        2 0.10422825E-01 0.90808251E+02</pdfrwt>
<pdfrwt beam="2">  1       -2 0.46814292E-02 0.90808251E+02</pdfrwt>
<totfact> 0.11087656E+05</totfact>
</mgrwt>
</event>
<event>
 5   1  0.1343823E+00  0.9207447E+02  0.7818608E-02  0.1297904E+00
          2   -1    0    0  501    0  0.00000000000E+00  0.00000000000E+00  0.19741931479E+03  0.19741931481E+03  0.26000000000E-02 0. -1.
         -2   -1    0    0    0  501 -0.00000000000E+00 -0.00000000000E+00 -0.10735662521E+02  0.10735662836E+02  0.26000000000E-02 0.  1.
         23    2    1    2    0    0  0.00000000000E+00  0.00000000000E+00  0.18668365227E+03  0.20815497765E+03  0.92074473626E+02 0.  0.
        -13    1    3    3    0    0 -0.33722211821E+02  0.25069668370E+02  0.50822170450E+02  0.65943764103E+02  0.10570000000E+00 0.  1.
         13    1    3    3    0    0  0.33722211821E+02 -0.25069668370E+02  0.13586148182E+03  0.14221121354E+03  0.10570000000E+00 0. -1.
<mgrwt>
<rscale>  0 0.92074474E+02</rscale>
<asrwt>0</asrwt>
<pdfrwt beam="1">  1        2 0.30372202E-01 0.92074474E+02</pdfrwt>
<pdfrwt beam="2">  1       -2 0.16516404E-02 0.92074474E+02</pdfrwt>
<totfact> 0.14994117E+05</totfact>
</mgrwt>
</event>
<event>
 5   1  0.1343823E+00  0.9023023E+02  0.7818608E-02  0.1302295E+00
          2   -1    0    0  501    0  0.00000000000E+00  0.00000000000E+00  0.17967480508E+02  0.17967480696E+02  0.26000000000E-02 0. -1.
         -2   -1    0    0    0  501 -0.00000000000E+00 -0.00000000000E+00 -0.11328095590E+03  0.11328095593E+03  0.26000000000E-02 0.  1.
         23    2    1    2    0    0  0.00000000000E+00  0.00000000000E+00 -0.95313475394E+02  0.13124843663E+03  0.90230225121E+02 0.  0.
        -13    1    3    3    0    0  0.16591072614E+02  0.25612988109E+02  0.67596303060E+00  0.30524694084E+02  0.10570000000E+00 0. -1.
         13    1    3    3    0    0 -0.16591072614E+02 -0.25612988109E+02 -0.95989438424E+02  0.10072374254E+03  0.10570000000E+00 0.  1.
<mgrwt>
<rscale>  0 0.90230225E+02</rscale>
<asrwt>0</asrwt>
<pdfrwt beam="1">  1        2 0.27642279E-02 0.90230225E+02</pdfrwt>
<pdfrwt beam="2">  1       -2 0.17427839E-01 0.90230225E+02</pdfrwt>
<totfact> 0.78847463E+04</totfact>
</mgrwt>
</event>
<event>
 5   1  0.1343823E+00  0.8579843E+02  0.7818608E-02  0.1313358E+00
         -2   -1    0    0    0  501 -0.00000000000E+00  0.00000000000E+00  0.42319261589E+01  0.42319269576E+01  0.26000000000E-02 0.  1.
          2   -1    0    0  501    0  0.00000000000E+00 -0.00000000000E+00 -0.43487112051E+03  0.43487112051E+03  0.26000000000E-02 0. -1.
         23    2    1    2    0    0  0.00000000000E+00  0.00000000000E+00 -0.43063919435E+03  0.43910304747E+03  0.85798430001E+02 0.  0.
        -13    1    3    3    0    0 -0.41920258996E+02 -0.85906401202E+01 -0.23086324524E+03  0.23479556297E+03  0.10570000000E+00 0. -1.
         13    1    3    3    0    0  0.41920258996E+02  0.85906401202E+01 -0.19977594910E+03  0.20430748450E+03  0.10570000000E+00 0.  1.
<mgrwt>
<rscale>  0 0.85798430E+02</rscale>
<asrwt>0</asrwt>
<pdfrwt beam="2">  1        2 0.66903214E-01 0.85798430E+02</pdfrwt>
<pdfrwt beam="1">  1       -2 0.65106597E-03 0.85798430E+02</pdfrwt>
<totfact> 0.24142727E+05</totfact>
</mgrwt>
</event>
<event>
 5   1  0.1343823E+00  0.9117145E+02  0.7818608E-02  0.1300039E+00
         -2   -1    0    0    0  501 -0.00000000000E+00  0.00000000000E+00  0.20804011655E+02  0.20804011818E+02  0.26000000000E-02 0.  1.
          2   -1    0    0  501    0  0.00000000000E+00 -0.00000000000E+00 -0.99887377252E+02  0.99887377286E+02  0.26000000000E-02 0. -1.
         23    2    1    2    0    0  0.00000000000E+00  0.00000000000E+00 -0.79083365597E+02  0.12069138910E+03  0.91171446680E+02 0.  0.
        -13    1    3    3    0    0  0.16485743493E+02  0.36303724798E+02 -0.68794240047E+02  0.79513513372E+02  0.10570000000E+00 0. -1.
         13    1    3    3    0    0 -0.16485743493E+02 -0.36303724798E+02 -0.10289125550E+02  0.41177875732E+02  0.10570000000E+00 0.  1.
<mgrwt>
<rscale>  0 0.91171447E+02</rscale>
<asrwt>0</asrwt>
<pdfrwt beam="2">  1        2 0.15367289E-01 0.91171447E+02</pdfrwt>
<pdfrwt beam="1">  1       -2 0.32006172E-02 0.91171447E+02</pdfrwt>
<totfact> 0.12265409E+05</totfact>
</mgrwt>
</event>
<event>
 5   1  0.1343823E+00  0.9877570E+02  0.7818608E-02  0.1282892E+00
         -2   -1    0    0    0  501 -0.00000000000E+00  0.00000000000E+00  0.22869544274E+02  0.22869544422E+02  0.26000000000E-02 0.  1.
          2   -1    0    0  501    0  0.00000000000E+00 -0.00000000000E+00 -0.10665536589E+03  0.10665536592E+03  0.26000000000E-02 0. -1.
         23    2    1    2    0    0  0.00000000000E+00  0.00000000000E+00 -0.83785821615E+02  0.12952491034E+03  0.98775697899E+02 0.  0.
        -13    1    3    3    0    0 -0.48326703541E+02 -0.45102944163E+01 -0.53863568414E+02  0.72505918418E+02  0.10570000000E+00 0. -1.
         13    1    3    3    0    0  0.48326703541E+02  0.45102944163E+01 -0.29922253201E+02  0.57018991924E+02  0.10570000000E+00 0.  1.
<mgrwt>
<rscale>  0 0.98775698E+02</rscale>
<asrwt>0</asrwt>
<pdfrwt beam="2">  1        2 0.16408517E-01 0.98775698E+02</pdfrwt>
<pdfrwt beam="1">  1       -2 0.35183915E-02 0.98775698E+02</pdfrwt>
<totfact> 0.10029097E+05</totfact>
</mgrwt>
</event>
<event>
 5   1  0.1343823E+00  0.9198274E+02  0.7818608E-02  0.1298120E+00
         -2   -1    0    0    0  501 -0.00000000000E+00  0.00000000000E+00  0.78811853784E+01  0.78811858073E+01  0.26000000000E-02 0. -1.
          2   -1    0    0  501    0  0.00000000000E+00 -0.00000000000E+00 -0.26838681167E+03  0.26838681168E+03  0.26000000000E-02 0.  1.
         23    2    1    2    0    0  0.00000000000E+00  0.00000000000E+00 -0.26050562629E+03  0.27626799749E+03  0.91982743530E+02 0.  0.
        -13    1    3    3    0    0  0.88466524025E+01 -0.45104318432E+02 -0.13503230996E+03  0.14264080309E+03  0.10570000000E+00 0. -1.
         13    1    3    3    0    0 -0.88466524025E+01  0.45104318432E+02 -0.12547331632E+03  0.13362719440E+03  0.10570000000E+00 0.  1.
<mgrwt>
<rscale>  0 0.91982744E+02</rscale>
<asrwt>0</asrwt>
<pdfrwt beam="2">  1        2 0.41290272E-01 0.91982744E+02</pdfrwt>
<pdfrwt beam="1">  1       -2 0.12124903E-02 0.91982744E+02</pdfrwt>
<totfact> 0.16833761E+05</totfact>
</mgrwt>
</event>
<event>
 5   1  0.1343823E+00  0.8971795E+02  0.7818608E-02  0.1303536E+00
         -2   -1    0    0    0  501 -0.00000000000E+00  0.00000000000E+00  0.10996547108E+02  0.10996547415E+02  0.26000000000E-02 0.  1.
          2   -1    0    0  501    0  0.00000000000E+00 -0.00000000000E+00 -0.18299632151E+03  0.18299632153E+03  0.26000000000E-02 0. -1.
         23    2    1    2    0    0  0.00000000000E+00  0.00000000000E+00 -0.17199977441E+03  0.19399286895E+03  0.89717951418E+02 0.  0.
        -13    1    3    3    0    0  0.36104707492E+02  0.10255591886E+02 -0.32877541783E+02  0.49896603032E+02  0.10570000000E+00 0.  1.
         13    1    3    3    0    0 -0.36104707492E+02 -0.10255591886E+02 -0.13912223262E+03  0.14409626592E+03  0.10570000000E+00 0. -1.
<mgrwt>
<rscale>  0 0.89717951E+02</rscale>
<asrwt>0</asrwt>
<pdfrwt beam="2">  1        2 0.28153278E-01 0.89717951E+02</pdfrwt>
<pdfrwt beam="1">  1       -2 0.16917766E-02 0.89717951E+02</pdfrwt>
<totfact> 0.15647797E+05</totfact>
</mgrwt>
</event>
<event>
 5   1  0.1343823E+00  0.1009473E+03  0.7818608E-02  0.1278316E+00
         -2   -1    0    0    0  501 -0.00000000000E+00  0.00000000000E+00  0.17668916405E+02  0.17668916597E+02  0.26000000000E-02 0. -1.
          2   -1    0    0  501    0  0.00000000000E+00 -0.00000000000E+00 -0.14418484978E+03  0.14418484981E+03  0.26000000000E-02 0.  1.
         23    2    1    2    0    0  0.00000000000E+00  0.00000000000E+00 -0.12651593338E+03  0.16185376641E+03  0.10094731448E+03 0.  0.
        -13    1    3    3    0    0 -0.24609067888E+02 -0.42003455609E+02 -0.41885716834E+02  0.64220876299E+02  0.10570000000E+00 0.  1.
         13    1    3    3    0    0  0.24609067888E+02  0.42003455609E+02 -0.84630216546E+02  0.97632890106E+02  0.10570000000E+00 0. -1.
<mgrwt>
<rscale>  0 0.10094731E+03</rscale>
<asrwt>0</asrwt>
<pdfrwt beam="2">  1        2 0.22182284E-01 0.10094731E+03</pdfrwt>
<pdfrwt beam="1">  1       -2 0.27182949E-02 0.10094731E+03</pdfrwt>
<totfact> 0.10439980E+05</totfact>
</mgrwt>
</event>
<event>
 5   1  0.1343823E+00  0.8859998E+02  0.7818608E-02  0.1306278E+00
         -2   -1    0    0    0  501 -0.00000000000E+00  0.00000000000E+00  0.15190610800E+02  0.15190611022E+02  0.26000000000E-02 0.  1.
          2   -1    0    0  501    0  0.00000000000E+00 -0.00000000000E+00 -0.12919093774E+03  0.12919093777E+03  0.26000000000E-02 0. -1.
         23    2    1    2    0    0  0.00000000000E+00  0.00000000000E+00 -0.11400032694E+03  0.14438154879E+03  0.88599983567E+02 0.  0.
        -13    1    3    3    0    0 -0.27429094194E+02  0.95642601497E+01 -0.11150370779E+03  0.11522551065E+03  0.10570000000E+00 0. -1.
         13    1    3    3    0    0  0.27429094194E+02 -0.95642601497E+01 -0.24966191523E+01  0.29156038143E+02  0.10570000000E+00 0.  1.
<mgrwt>
<rscale>  0 0.88599984E+02</rscale>
<asrwt>0</asrwt>
<pdfrwt beam="2">  1        2 0.19875528E-01 0.88599984E+02</pdfrwt>
<pdfrwt beam="1">  1       -2 0.23370172E-02 0.88599984E+02</pdfrwt>
<totfact> 0.14379438E+05</totfact>
</mgrwt>
</event>
<event>
 5   1  0.1343823E+00  0.9036179E+02  0.7818608E-02  0.1301978E+00
          2   -1    0    0  501    0  0.00000000000E+00  0.00000000000E+00  0.27146961401E+03  0.27146961403E+03  0.26000000000E-02 0. -1.
         -2   -1    0    0    0  501 -0.00000000000E+00 -0.00000000000E+00 -0.75194904226E+01  0.75194908721E+01  0.26000000000E-02 0.  1.
         23    2    1    2    0    0  0.00000000000E+00  0.00000000000E+00  0.26395012359E+03  0.27898910490E+03  0.90361788983E+02 0.  0.
        -13    1    3    3    0    0  0.23964607188E+02 -0.37291581377E+02  0.10499942427E+03  0.11397304378E+03  0.10570000000E+00 0.  1.
         13    1    3    3    0    0 -0.23964607188E+02  0.37291581377E+02  0.15895069933E+03  0.16501606112E+03  0.10570000000E+00 0. -1.
<mgrwt>
<rscale>  0 0.90361789E+02</rscale>
<asrwt>0</asrwt>
<pdfrwt beam="1">  1        2 0.41764558E-01 0.90361789E+02</pdfrwt>
<pdfrwt beam="2">  1       -2 0.11568447E-02 0.90361789E+02</pdfrwt>
<totfact> 0.17728808E+05</totfact>
</mgrwt>
</event>
<event>
 5   1  0.1343823E+00  0.9010995E+02  0.7818608E-02  0.1302586E+00
         -2   -1    0    0    0  501 -0.00000000000E+00  0.00000000000E+00  0.28407455616E+02  0.28407455735E+02  0.26000000000E-02 0.  1.
          2   -1    0    0  501    0  0.00000000000E+00 -0.00000000000E+00 -0.71458376044E+02  0.71458376091E+02  0.26000000000E-02 0. -1.
         23    2    1    2    0    0  0.00000000000E+00  0.00000000000E+00 -0.43050920428E+02  0.99865831826E+02  0.90109947378E+02 0.  0.
        -13    1    3    3    0    0 -0.64022140459E+01 -0.32115776661E+02 -0.55819601672E+02  0.64716694589E+02  0.10570000000E+00 0. -1.
         13    1    3    3    0    0  0.64022140459E+01  0.32115776661E+02  0.12768681244E+02  0.35149137236E+02  0.10570000000E+00 0.  1.
<mgrwt>
<rscale>  0 0.90109947E+02</rscale>
<asrwt>0</asrwt>
<pdfrwt beam="2">  1        2 0.10993596E-01 0.90109947E+02</pdfrwt>
<pdfrwt beam="1">  1       -2 0.43703778E-02 0.90109947E+02</pdfrwt>
<totfact> 0.11496897E+05</totfact>
</mgrwt>
</event>
<event>
 5   1  0.1343823E+00  0.9174394E+02  0.7818608E-02  0.1298683E+00
          2   -1    0    0  501    0  0.00000000000E+00  0.00000000000E+00  0.67086593618E+02  0.67086593669E+02  0.26000000000E-02 0. -1.
         -2   -1    0    0    0  501 -0.00000000000E+00 -0.00000000000E+00 -0.31365989582E+02  0.31365989690E+02  0.26000000000E-02 0.  1.
         23    2    1    2    0    0  0.00000000000E+00  0.00000000000E+00  0.35720604037E+02  0.98452583358E+02  0.91743935043E+02 0.  0.
        -13    1    3    3    0    0 -0.12497392319E+02 -0.40562325770E+02  0.36532009835E+02  0.56000767867E+02  0.10570000000E+00 0.  1.
         13    1    3    3    0    0  0.12497392319E+02  0.40562325770E+02 -0.81140579859E+00  0.42451815491E+02  0.10570000000E+00 0. -1.
<mgrwt>
<rscale>  0 0.91743935E+02</rscale>
<asrwt>0</asrwt>
<pdfrwt beam="1">  1        2 0.10321014E-01 0.91743935E+02</pdfrwt>
<pdfrwt beam="2">  1       -2 0.48255369E-02 0.91743935E+02</pdfrwt>
<totfact> 0.10744349E+05</totfact>
</mgrwt>
</event>
<event>
 5   1  0.1343823E+00  0.9375087E+02  0.7818608E-02  0.1294014E+00
          2   -1    0    0  501    0  0.00000000000E+00  0.00000000000E+00  0.22471661759E+02  0.22471661910E+02  0.26000000000E-02 0. -1.
         -2   -1    0    0    0  501 -0.00000000000E+00 -0.00000000000E+00 -0.97781210405E+02  0.97781210439E+02  0.26000000000E-02 0.  1.
         23    2    1    2    0    0  0.00000000000E+00  0.00000000000E+00 -0.75309548645E+02  0.12025287235E+03  0.93750867681E+02 0.  0.
        -13    1    3    3    0    0 -0.35683222808E+02  0.30303430583E+02 -0.40718441078E+02  0.62045087730E+02  0.10570000000E+00 0.  1.
         13    1    3    3    0    0  0.35683222808E+02 -0.30303430583E+02 -0.34591107567E+02  0.58207784619E+02  0.10570000000E+00 0. -1.
<mgrwt>
<rscale>  0 0.93750868E+02</rscale>
<asrwt>0</asrwt>
<pdfrwt beam="1">  1        2 0.34571788E-02 0.93750868E+02</pdfrwt>
<pdfrwt beam="2">  1       -2 0.15043263E-01 0.93750868E+02</pdfrwt>
<totfact> 0.74965683E+04</totfact>
</mgrwt>
</event>
<event>
 5   1  0.1343823E+00  0.9010524E+02  0.7818608E-02  0.1302597E+00
          2   -1    0    0  501    0  0.00000000000E+00  0.00000000000E+00  0.12827486591E+03  0.12827486594E+03  0.26000000000E-02 0. -1.
         -2   -1    0    0    0  501 -0.00000000000E+00 -0.00000000000E+00 -0.15823353480E+02  0.15823353694E+02  0.26000000000E-02 0.  1.
         23    2    1    2    0    0  0.00000000000E+00  0.00000000000E+00  0.11245151243E+03  0.14409821963E+03  0.90105239875E+02 0.  0.
        -13    1    3    3    0    0  0.29048218545E+02 -0.33956548032E+02  0.65396037010E+02  0.79205422693E+02  0.10570000000E+00 0. -1.
         13    1    3    3    0    0 -0.29048218545E+02  0.33956548032E+02  0.47055475425E+02  0.64892796941E+02  0.10570000000E+00 0.  1.
<mgrwt>
<rscale>  0 0.90105240E+02</rscale>
<asrwt>0</asrwt>
<pdfrwt beam="1">  1        2 0.19734595E-01 0.90105240E+02</pdfrwt>
<pdfrwt beam="2">  1       -2 0.24343620E-02 0.90105240E+02</pdfrwt>
<totfact> 0.13704145E+05</totfact>
</mgrwt>
</event>
<event>
 5   1  0.1343823E+00  0.9161498E+02  0.7818608E-02  0.1298987E+00
         -2   -1    0    0    0  501 -0.00000000000E+00  0.00000000000E+00  0.63391024916E+01  0.63391030248E+01  0.26000000000E-02 0.  1.
          2   -1    0    0  501    0  0.00000000000E+00 -0.00000000000E+00 -0.33101309421E+03  0.33101309422E+03  0.26000000000E-02 0. -1.
         23    2    1    2    0    0  0.00000000000E+00  0.00000000000E+00 -0.32467399172E+03  0.33735219724E+03  0.91614977420E+02 0.  0.
        -13    1    3    3    0    0  0.10369912222E+02 -0.40437226993E+02 -0.23177613328E+03  0.23550560829E+03  0.10570000000E+00 0.  1.
         13    1    3    3    0    0 -0.10369912222E+02  0.40437226993E+02 -0.92897858438E+02  0.10184658895E+03  0.10570000000E+00 0. -1.
<mgrwt>
<rscale>  0 0.91614977E+02</rscale>
<asrwt>0</asrwt>
<pdfrwt beam="2">  1        2 0.50925078E-01 0.91614977E+02</pdfrwt>
<pdfrwt beam="1">  1       -2 0.97524684E-03 0.91614977E+02</pdfrwt>
<totfact> 0.18397118E+05</totfact>
</mgrwt>
</event>
<event>
 5   1  0.1343823E+00  0.8998011E+02  0.7818608E-02  0.1302900E+00
          2   -1    0    0  501    0  0.00000000000E+00  0.00000000000E+00  0.26320593928E+03  0.26320593930E+03  0.26000000000E-02 0. -1.
         -2   -1    0    0    0  501 -0.00000000000E+00 -0.00000000000E+00 -0.76901949585E+01  0.76901953980E+01  0.26000000000E-02 0.  1.
         23    2    1    2    0    0  0.00000000000E+00  0.00000000000E+00  0.25551574433E+03  0.27089613470E+03  0.89980109993E+02 0.  0.
        -13    1    3    3    0    0 -0.25773093893E+02  0.36394667527E+02  0.14563744200E+03  0.15231250729E+03  0.10570000000E+00 0.  1.
         13    1    3    3    0    0  0.25773093893E+02 -0.36394667527E+02  0.10987830233E+03  0.11858362741E+03  0.10570000000E+00 0. -1.
<mgrwt>
<rscale>  0 0.89980110E+02</rscale>
<asrwt>0</asrwt>
<pdfrwt beam="1">  1        2 0.40493214E-01 0.89980110E+02</pdfrwt>
<pdfrwt beam="2">  1       -2 0.11831072E-02 0.89980110E+02</pdfrwt>
<totfact> 0.17724959E+05</totfact>
</mgrwt>
</event>
<event>
 5   1  0.1343823E+00  0.8924800E+02  0.7818608E-02  0.1304683E+00
         -2   -1    0    0    0  501 -0.00000000000E+00  0.00000000000E+00  0.58715823986E+02  0.58715824043E+02  0.26000000000E-02 0.  1.
          2   -1    0    0  501    0  0.00000000000E+00 -0.00000000000E+00 -0.33914218119E+02  0.33914218219E+02  0.26000000000E-02 0. -1.
         23    2    1    2    0    0  0.00000000000E+00  0.00000000000E+00  0.24801605867E+02  0.92630042262E+02  0.89247997602E+02 0.  0.
        -13    1    3    3    0    0  0.32979536845E+01  0.30945963305E+02  0.45593340151E+02  0.55202291456E+02  0.10570000000E+00 0.  1.
         13    1    3    3    0    0 -0.32979536845E+01 -0.30945963305E+02 -0.20791734284E+02  0.37427750806E+02  0.10570000000E+00 0. -1.
<mgrwt>
<rscale>  0 0.89247998E+02</rscale>
<asrwt>0</asrwt>
<pdfrwt beam="2">  1        2 0.52175721E-02 0.89247998E+02</pdfrwt>
<pdfrwt beam="1">  1       -2 0.90332036E-02 0.89247998E+02</pdfrwt>
<totfact> 0.97281243E+04</totfact>
</mgrwt>
</event>
<event>
 5   1  0.1343823E+00  0.9054160E+02  0.7818608E-02  0.1301545E+00
         -2   -1    0    0    0  501 -0.00000000000E+00  0.00000000000E+00  0.12185701324E+02  0.12185701601E+02  0.26000000000E-02 0.  1.
          2   -1    0    0  501    0  0.00000000000E+00 -0.00000000000E+00 -0.16818444062E+03  0.16818444064E+03  0.26000000000E-02 0. -1.
         23    2    1    2    0    0  0.00000000000E+00  0.00000000000E+00 -0.15599873930E+03  0.18037014224E+03  0.90541601212E+02 0.  0.
        -13    1    3    3    0    0 -0.29372980403E+02 -0.29904527320E+02 -0.11206303751E+03  0.11964609596E+03  0.10570000000E+00 0. -1.
         13    1    3    3    0    0  0.29372980403E+02  0.29904527320E+02 -0.43935701794E+02  0.60724046280E+02  0.10570000000E+00 0.  1.
<mgrwt>
<rscale>  0 0.90541601E+02</rscale>
<asrwt>0</asrwt>
<pdfrwt beam="2">  1        2 0.25874528E-01 0.90541601E+02</pdfrwt>
<pdfrwt beam="1">  1       -2 0.18747234E-02 0.90541601E+02</pdfrwt>
<totfact> 0.14820590E+05</totfact>
</mgrwt>
</event>
<event>
 5   1  0.1343823E+00  0.8819940E+02  0.7818608E-02  0.1307272E+00
         -2   -1    0    0    0  501 -0.00000000000E+00  0.00000000000E+00  0.57624423751E+02  0.57624423810E+02  0.26000000000E-02 0.  1.
          2   -1    0    0  501    0  0.00000000000E+00 -0.00000000000E+00 -0.33749293344E+02  0.33749293444E+02  0.26000000000E-02 0. -1.
         23    2    1    2    0    0  0.00000000000E+00  0.00000000000E+00  0.23875130407E+02  0.91373717254E+02  0.88199401091E+02 0.  0.
        -13    1    3    3    0    0  0.33439332540E+02  0.25594932494E+02  0.25504009896E+02  0.49231648594E+02  0.10570000000E+00 0.  1.
         13    1    3    3    0    0 -0.33439332540E+02 -0.25594932494E+02 -0.16288794892E+01  0.42142068660E+02  0.10570000000E+00 0. -1.
<mgrwt>
<rscale>  0 0.88199401E+02</rscale>
<asrwt>0</asrwt>
<pdfrwt beam="2">  1        2 0.51921991E-02 0.88199401E+02</pdfrwt>
<pdfrwt beam="1">  1       -2 0.88652958E-02 0.88199401E+02</pdfrwt>
<totfact> 0.10056603E+05</totfact>
</mgrwt>
</event>
<event>
 5   1  0.1343823E+00  0.8623268E+02  0.7818608E-02  0.1312240E+00
          2   -1    0    0  501    0  0.00000000000E+00  0.00000000000E+00  0.22389084081E+03  0.22389084083E+03  0.26000000000E-02 0. -1.
         -2   -1    0    0    0  501 -0.00000000000E+00 -0.00000000000E+00 -0.83032367066E+01  0.83032371137E+01  0.26000000000E-02 0.  1.
         23    2    1    2    0    0  0.00000000000E+00  0.00000000000E+00  0.21558760410E+03  0.23219407794E+03  0.86232678184E+02 0.  0.
        -13    1    3    3    0    0  0.35054646769E+02  0.12796096358E+02  0.16594742510E+03  0.17009152658E+03  0.10570000000E+00 0. -1.
         13    1    3    3    0    0 -0.35054646769E+02 -0.12796096358E+02  0.49640179001E+02  0.62102551364E+02  0.10570000000E+00 0.  1.
<mgrwt>
<rscale>  0 0.86232678E+02</rscale>
<asrwt>0</asrwt>
<pdfrwt beam="1">  1        2 0.34444749E-01 0.86232678E+02</pdfrwt>
<pdfrwt beam="2">  1       -2 0.12774209E-02 0.86232678E+02</pdfrwt>
<totfact> 0.18708861E+05</totfact>
</mgrwt>
</event>
<event>
 5   1  0.1343823E+00  0.9043022E+02  0.7818608E-02  0.1301813E+00
         -2   -1    0    0    0  501 -0.00000000000E+00  0.00000000000E+00  0.15481245353E+03  0.15481245355E+03  0.26000000000E-02 0.  1.
          2   -1    0    0  501    0  0.00000000000E+00 -0.00000000000E+00 -0.13205694814E+02  0.13205695070E+02  0.26000000000E-02 0. -1.
         23    2    1    2    0    0  0.00000000000E+00  0.00000000000E+00  0.14160675872E+03  0.16801814862E+03  0.90430217030E+02 0.  0.
        -13    1    3    3    0    0 -0.41503571964E+02  0.65509656397E+01  0.39772595308E+02  0.57856133180E+02  0.10570000000E+00 0. -1.
         13    1    3    3    0    0  0.41503571964E+02 -0.65509656397E+01  0.10183416341E+03  0.11016201544E+03  0.10570000000E+00 0.  1.
<mgrwt>
<rscale>  0 0.90430217E+02</rscale>
<asrwt>0</asrwt>
<pdfrwt beam="2">  1        2 0.20316454E-02 0.90430217E+02</pdfrwt>
<pdfrwt beam="1">  1       -2 0.23817300E-01 0.90430217E+02</pdfrwt>
<totfact> 0.70504115E+04</totfact>
</mgrwt>
</event>
<event>
 5   1  0.1343823E+00  0.8348331E+02  0.7818608E-02  0.1319447E+00
          2   -1    0    0  501    0  0.00000000000E+00  0.00000000000E+00  0.10861688813E+02  0.10861689124E+02  0.26000000000E-02 0. -1.
         -2   -1    0    0    0  501 -0.00000000000E+00 -0.00000000000E+00 -0.16041387837E+03  0.16041387839E+03  0.26000000000E-02 0.  1.
         23    2    1    2    0    0  0.00000000000E+00  0.00000000000E+00 -0.14955218956E+03  0.17127556752E+03  0.83483307471E+02 0.  0.
        -13    1    3    3    0    0  0.36526035756E+02 -0.57100670177E+01 -0.11453712194E+03  0.12035580430E+03  0.10570000000E+00 0.  1.
         13    1    3    3    0    0 -0.36526035756E+02  0.57100670177E+01 -0.35015067616E+02  0.50919763216E+02  0.10570000000E+00 0. -1.
<mgrwt>
<rscale>  0 0.83483307E+02</rscale>
<asrwt>0</asrwt>
<pdfrwt beam="1">  1        2 0.16710292E-02 0.83483307E+02</pdfrwt>
<pdfrwt beam="2">  1       -2 0.24679057E-01 0.83483307E+02</pdfrwt>
<totfact> 0.85187867E+04</totfact>
</mgrwt>
</event>
<event>
 5   1  0.1343823E+00  0.9254143E+02  0.7818608E-02  0.1296811E+00
          2   -1    0    0  501    0  0.00000000000E+00  0.00000000000E+00  0.18424328254E+03  0.18424328256E+03  0.26000000000E-02 0.  1.
         -2   -1    0    0    0  501 -0.00000000000E+00 -0.00000000000E+00 -0.11620391353E+02  0.11620391644E+02  0.26000000000E-02 0. -1.
         23    2    1    2    0    0  0.00000000000E+00  0.00000000000E+00  0.17262289119E+03  0.19586367420E+03  0.92541430236E+02 0.  0.
        -13    1    3    3    0    0  0.40312779814E+02  0.84663667331E+01  0.13091726083E+03  0.13724481753E+03  0.10570000000E+00 0.  1.
         13    1    3    3    0    0 -0.40312779814E+02 -0.84663667331E+01  0.41705630357E+02  0.58618856676E+02  0.10570000000E+00 0. -1.
<mgrwt>
<rscale>  0 0.92541430E+02</rscale>
<asrwt>0</asrwt>
<pdfrwt beam="1">  1        2 0.28345119E-01 0.92541430E+02</pdfrwt>
<pdfrwt beam="2">  1       -2 0.17877527E-02 0.92541430E+02</pdfrwt>
<totfact> 0.14427633E+05</totfact>
</mgrwt>
</event>
<event>
 5   1  0.1343823E+00  0.9241107E+02  0.7818608E-02  0.1297116E+00
         -2   -1    0    0    0  501 -0.00000000000E+00  0.00000000000E+00  0.13326343054E+02  0.13326343308E+02  0.26000000000E-02 0.  1.
          2   -1    0    0  501    0  0.00000000000E+00 -0.00000000000E+00 -0.16020533925E+03  0.16020533927E+03  0.26000000000E-02 0. -1.
         23    2    1    2    0    0  0.00000000000E+00  0.00000000000E+00 -0.14687899620E+03  0.17353168258E+03  0.92411067170E+02 0.  0.
        -13    1    3    3    0    0 -0.99289692144E+01  0.24188722922E+02 -0.19030098594E+01  0.26216623834E+02  0.10570000000E+00 0.  1.
         13    1    3    3    0    0  0.99289692144E+01 -0.24188722922E+02 -0.14497598634E+03  0.14731505875E+03  0.10570000000E+00 0. -1.
<mgrwt>
<rscale>  0 0.92411067E+02</rscale>
<asrwt>0</asrwt>
<pdfrwt beam="2">  1        2 0.24646974E-01 0.92411067E+02</pdfrwt>
<pdfrwt beam="1">  1       -2 0.20502068E-02 0.92411067E+02</pdfrwt>
<totfact> 0.13787662E+05</totfact>
</mgrwt>
</event>
<event>
 5   1  0.1343823E+00  0.9269564E+02  0.7818608E-02  0.1296452E+00
          2   -1    0    0  501    0  0.00000000000E+00  0.00000000000E+00  0.29258645951E+03  0.29258645952E+03  0.26000000000E-02 0. -1.
         -2   -1    0    0    0  501 -0.00000000000E+00 -0.00000000000E+00 -0.73418310024E+01  0.73418314627E+01  0.26000000000E-02 0.  1.
         23    2    1    2    0    0  0.00000000000E+00  0.00000000000E+00  0.28524462851E+03  0.29992829099E+03  0.92695639813E+02 0.  0.
        -13    1    3    3    0    0  0.39754933549E+02 -0.67649112605E+00  0.65563018824E+02  0.76677460779E+02  0.10570000000E+00 0.  1.
         13    1    3    3    0    0 -0.39754933549E+02  0.67649112605E+00  0.21968160968E+03  0.22325083021E+03  0.10570000000E+00 0. -1.
<mgrwt>
<rscale>  0 0.92695640E+02</rscale>
<asrwt>0</asrwt>
<pdfrwt beam="1">  1        2 0.45013295E-01 0.92695640E+02</pdfrwt>
<pdfrwt beam="2">  1       -2 0.11295127E-02 0.92695640E+02</pdfrwt>
<totfact> 0.17030210E+05</totfact>
</mgrwt>
</event>
<event>
 5   1  0.1343823E+00  0.9262252E+02  0.7818608E-02  0.1296622E+00
          2   -1    0    0  501    0  0.00000000000E+00  0.00000000000E+00  0.16922082485E+03  0.16922082487E+03  0.26000000000E-02 0.  1.
         -2   -1    0    0    0  501 -0.00000000000E+00 -0.00000000000E+00 -0.12674166536E+02  0.12674166802E+02  0.26000000000E-02 0. -1.
         23    2    1    2    0    0  0.00000000000E+00  0.00000000000E+00  0.15654665832E+03  0.18189499168E+03  0.92622522997E+02 0.  0.
        -13    1    3    3    0    0 -0.26533789250E+02 -0.20670522730E+02  0.15756552987E+02  0.37142867638E+02  0.10570000000E+00 0. -1.
         13    1    3    3    0    0  0.26533789250E+02  0.20670522730E+02  0.14079010533E+03  0.14475212404E+03  0.10570000000E+00 0.  1.
<mgrwt>
<rscale>  0 0.92622523E+02</rscale>
<asrwt>0</asrwt>
<pdfrwt beam="1">  1        2 0.26033972E-01 0.92622523E+02</pdfrwt>
<pdfrwt beam="2">  1       -2 0.19498719E-02 0.92622523E+02</pdfrwt>
<totfact> 0.13966340E+05</totfact>
</mgrwt>
</event>
<event>
 5   1  0.1343823E+00  0.1260224E+03  0.7818608E-02  0.1233480E+00
         -2   -1    0    0    0  501 -0.00000000000E+00  0.00000000000E+00  0.29049023174E+03  0.29049023176E+03  0.26000000000E-02 0.  1.
          2   -1    0    0  501    0  0.00000000000E+00 -0.00000000000E+00 -0.13667978552E+02  0.13667978800E+02  0.26000000000E-02 0. -1.
         23    2    1    2    0    0  0.00000000000E+00  0.00000000000E+00  0.27682225319E+03  0.30415821055E+03  0.12602244715E+03 0.  0.
        -13    1    3    3    0    0  0.43910113391E+01 -0.60316226893E+02  0.18111583618E+03  0.19094576585E+03  0.10570000000E+00 0.  1.
         13    1    3    3    0    0 -0.43910113391E+01  0.60316226893E+02  0.95706417012E+02  0.11321244471E+03  0.10570000000E+00 0. -1.
<mgrwt>
<rscale>  0 0.12602245E+03</rscale>
<asrwt>0</asrwt>
<pdfrwt beam="2">  1        2 0.21027662E-02 0.12602245E+03</pdfrwt>
<pdfrwt beam="1">  1       -2 0.44690799E-01 0.12602245E+03</pdfrwt>
<totfact> 0.22462763E+04</totfact>
</mgrwt>
</event>
<event>
 5   1  0.1343823E+00  0.9802817E+02  0.7818608E-02  0.1284498E+00
          2   -1    0    0  501    0  0.00000000000E+00  0.00000000000E+00  0.35254330776E+02  0.35254330872E+02  0.26000000000E-02 0.  1.
         -2   -1    0    0    0  501 -0.00000000000E+00 -0.00000000000E+00 -0.68144260903E+02  0.68144260953E+02  0.26000000000E-02 0. -1.
         23    2    1    2    0    0  0.00000000000E+00  0.00000000000E+00 -0.32889930128E+02  0.10339859182E+03  0.98028165787E+02 0.  0.
        -13    1    3    3    0    0  0.15003265383E+02 -0.27783786689E+02 -0.55986477172E+02  0.64277006570E+02  0.10570000000E+00 0. -1.
         13    1    3    3    0    0 -0.15003265383E+02  0.27783786689E+02  0.23096547045E+02  0.39121585255E+02  0.10570000000E+00 0.  1.
<mgrwt>
<rscale>  0 0.98028166E+02</rscale>
<asrwt>0</asrwt>
<pdfrwt beam="1">  1        2 0.54237432E-02 0.98028166E+02</pdfrwt>
<pdfrwt beam="2">  1       -2 0.10483732E-01 0.98028166E+02</pdfrwt>
<totfact> 0.74527165E+04</totfact>
</mgrwt>
</event>
<event>
 5   1  0.1343823E+00  0.9397813E+02  0.7818608E-02  0.1293494E+00
         -2   -1    0    0    0  501 -0.00000000000E+00  0.00000000000E+00  0.28113157303E+02  0.28113157423E+02  0.26000000000E-02 0.  1.
          2   -1    0    0  501    0  0.00000000000E+00 -0.00000000000E+00 -0.78538744727E+02  0.78538744770E+02  0.26000000000E-02 0. -1.
         23    2    1    2    0    0  0.00000000000E+00  0.00000000000E+00 -0.50425587424E+02  0.10665190219E+03  0.93978127105E+02 0.  0.
        -13    1    3    3    0    0 -0.36242217216E+02  0.29903192943E+02 -0.24632278008E+02  0.53051480179E+02  0.10570000000E+00 0. -1.
         13    1    3    3    0    0  0.36242217216E+02 -0.29903192943E+02 -0.25793309416E+02  0.53600422013E+02  0.10570000000E+00 0.  1.
<mgrwt>
<rscale>  0 0.93978127E+02</rscale>
<asrwt>0</asrwt>
<pdfrwt beam="2">  1        2 0.12082884E-01 0.93978127E+02</pdfrwt>
<pdfrwt beam="1">  1       -2 0.43251012E-02 0.93978127E+02</pdfrwt>
<totfact> 0.10499946E+05</totfact>
</mgrwt>
</event>
<event>
 5   1  0.1343823E+00  0.9093472E+02  0.7818608E-02  0.1300604E+00
          2   -1    0    0  501    0  0.00000000000E+00  0.00000000000E+00  0.26784606475E+02  0.26784606601E+02  0.26000000000E-02 0. -1.
         -2   -1    0    0    0  501 -0.00000000000E+00 -0.00000000000E+00 -0.77181676065E+02  0.77181676109E+02  0.26000000000E-02 0.  1.
         23    2    1    2    0    0  0.00000000000E+00  0.00000000000E+00 -0.50397069589E+02  0.10396628271E+03  0.90934720087E+02 0.  0.
        -13    1    3    3    0    0  0.37858092601E+02 -0.53309474434E+01 -0.53334464217E+02  0.65621874568E+02  0.10570000000E+00 0.  1.
         13    1    3    3    0    0 -0.37858092601E+02  0.53309474434E+01  0.29373946275E+01  0.38344408142E+02  0.10570000000E+00 0. -1.
<mgrwt>
<rscale>  0 0.90934720E+02</rscale>
<asrwt>0</asrwt>
<pdfrwt beam="1">  1        2 0.41207087E-02 0.90934720E+02</pdfrwt>
<pdfrwt beam="2">  1       -2 0.11874104E-01 0.90934720E+02</pdfrwt>
<totfact> 0.86483612E+04</totfact>
</mgrwt>
</event>
<event>
 5   1  0.1343823E+00  0.8362427E+02  0.7818608E-02  0.1319070E+00
         -2   -1    0    0    0  501 -0.00000000000E+00  0.00000000000E+00  0.49400268144E+01  0.49400274986E+01  0.26000000000E-02 0. -1.
          2   -1    0    0  501    0  0.00000000000E+00 -0.00000000000E+00 -0.35389571105E+03  0.35389571106E+03  0.26000000000E-02 0.  1.
         23    2    1    2    0    0  0.00000000000E+00  0.00000000000E+00 -0.34895568423E+03  0.35883573856E+03  0.83624265056E+02 0.  0.
        -13    1    3    3    0    0 -0.35451370023E+02 -0.17617432678E+02 -0.23221910092E+03  0.23556930101E+03  0.10570000000E+00 0.  1.
         13    1    3    3    0    0  0.35451370023E+02  0.17617432678E+02 -0.11673658331E+03  0.12326643755E+03  0.10570000000E+00 0. -1.
<mgrwt>
<rscale>  0 0.83624265E+02</rscale>
<asrwt>0</asrwt>
<pdfrwt beam="2">  1        2 0.54445474E-01 0.83624265E+02</pdfrwt>
<pdfrwt beam="1">  1       -2 0.76000445E-03 0.83624265E+02</pdfrwt>
<totfact> 0.24007573E+05</totfact>
</mgrwt>
</event>
<event>
 5   1  0.1343823E+00  0.9800705E+02  0.7818608E-02  0.1284544E+00
          2   -1    0    0  501    0  0.00000000000E+00  0.00000000000E+00  0.27815566727E+02  0.27815566849E+02  0.26000000000E-02 0.  1.
         -2   -1    0    0    0  501 -0.00000000000E+00 -0.00000000000E+00 -0.86330985306E+02  0.86330985345E+02  0.26000000000E-02 0. -1.
         23    2    1    2    0    0  0.00000000000E+00  0.00000000000E+00 -0.58515418579E+02  0.11414655219E+03  0.98007046514E+02 0.  0.
        -13    1    3    3    0    0 -0.75502870900E+01  0.45418297071E+02 -0.48798808810E+02  0.67090710666E+02  0.10570000000E+00 0. -1.
         13    1    3    3    0    0  0.75502870900E+01 -0.45418297071E+02 -0.97166097685E+01  0.47055841527E+02  0.10570000000E+00 0.  1.
<mgrwt>
<rscale>  0 0.98007047E+02</rscale>
<asrwt>0</asrwt>
<pdfrwt beam="1">  1        2 0.42793180E-02 0.98007047E+02</pdfrwt>
<pdfrwt beam="2">  1       -2 0.13281690E-01 0.98007047E+02</pdfrwt>
<totfact> 0.69693496E+04</totfact>
</mgrwt>
</event>
<event>
 5   1  0.1343823E+00  0.8965329E+02  0.7818608E-02  0.1303693E+00
          2   -1    0    0  501    0  0.00000000000E+00  0.00000000000E+00  0.21309187309E+03  0.21309187311E+03  0.26000000000E-02 0. -1.
         -2   -1    0    0    0  501 -0.00000000000E+00 -0.00000000000E+00 -0.94298680117E+01  0.94298683701E+01  0.26000000000E-02 0.  1.
         23    2    1    2    0    0  0.00000000000E+00  0.00000000000E+00  0.20366200508E+03  0.22252174148E+03  0.89653293955E+02 0.  0.
        -13    1    3    3    0    0  0.37564322200E+02 -0.79017842581E+01  0.44373290934E+02  0.58672963259E+02  0.10570000000E+00 0.  1.
         13    1    3    3    0    0 -0.37564322200E+02  0.79017842581E+01  0.15928871414E+03  0.16384877822E+03  0.10570000000E+00 0. -1.
<mgrwt>
<rscale>  0 0.89653294E+02</rscale>
<asrwt>0</asrwt>
<pdfrwt beam="1">  1        2 0.32783366E-01 0.89653294E+02</pdfrwt>
<pdfrwt beam="2">  1       -2 0.14507489E-02 0.89653294E+02</pdfrwt>
<totfact> 0.16560641E+05</totfact>
</mgrwt>
</event>
<event>
 5   1  0.1343823E+00  0.8744744E+02  0.7818608E-02  0.1309154E+00
          2   -1    0    0  501    0  0.00000000000E+00  0.00000000000E+00  0.12402504042E+02  0.12402504314E+02  0.26000000000E-02 0. -1.
         -2   -1    0    0    0  501 -0.00000000000E+00 -0.00000000000E+00 -0.15414335729E+03  0.15414335731E+03  0.26000000000E-02 0.  1.
         23    2    1    2    0    0  0.00000000000E+00  0.00000000000E+00 -0.14174085324E+03  0.16654586162E+03  0.87447438756E+02 0.  0.
        -13    1    3    3    0    0 -0.11765680665E+02 -0.37674756328E+02 -0.10670051406E+03  0.11376655651E+03  0.10570000000E+00 0.  1.
         13    1    3    3    0    0  0.11765680665E+02  0.37674756328E+02 -0.35040339184E+02  0.52779305116E+02  0.10570000000E+00 0. -1.
<mgrwt>
<rscale>  0 0.87447439E+02</rscale>
<asrwt>0</asrwt>
<pdfrwt beam="1">  1        2 0.19080777E-02 0.87447439E+02</pdfrwt>
<pdfrwt beam="2">  1       -2 0.23714361E-01 0.87447439E+02</pdfrwt>
<totfact> 0.76872771E+04</totfact>
</mgrwt>
</event>
<event>
 5   1  0.1343823E+00  0.9314780E+02  0.7818608E-02  0.1295403E+00
          2   -1    0    0  501    0  0.00000000000E+00  0.00000000000E+00  0.84122692576E+02  0.84122692616E+02  0.26000000000E-02 0. -1.
         -2   -1    0    0    0  501 -0.00000000000E+00 -0.00000000000E+00 -0.25785293508E+02  0.25785293639E+02  0.26000000000E-02 0.  1.
         23    2    1    2    0    0  0.00000000000E+00  0.00000000000E+00  0.58337399068E+02  0.10990798625E+03  0.93147803584E+02 0.  0.
        -13    1    3    3    0    0 -0.17267655440E+02  0.85675308749E+01 -0.20857352827E+02  0.28400965637E+02  0.10570000000E+00 0.  1.
         13    1    3    3    0    0  0.17267655440E+02 -0.85675308749E+01  0.79194751895E+02  0.81507020617E+02  0.10570000000E+00 0. -1.
<mgrwt>
<rscale>  0 0.93147804E+02</rscale>
<asrwt>0</asrwt>
<pdfrwt beam="1">  1        2 0.12941953E-01 0.93147804E+02</pdfrwt>
<pdfrwt beam="2">  1       -2 0.39669682E-02 0.93147804E+02</pdfrwt>
<totfact> 0.10980316E+05</totfact>
</mgrwt>
</event>
<event>
 5   1  0.1343823E+00  0.9185634E+02  0.7818608E-02  0.1298418E+00
         -2   -1    0    0    0  501 -0.00000000000E+00  0.00000000000E+00  0.61710914717E+02  0.61710914771E+02  0.26000000000E-02 0.  1.
          2   -1    0    0  501    0  0.00000000000E+00 -0.00000000000E+00 -0.34181907793E+02  0.34181907892E+02  0.26000000000E-02 0. -1.
         23    2    1    2    0    0  0.00000000000E+00  0.00000000000E+00  0.27529006924E+02  0.95892822663E+02  0.91856340097E+02 0.  0.
        -13    1    3    3    0    0 -0.14732865710E+02  0.18183473907E+02  0.55019287766E+02  0.59789875850E+02  0.10570000000E+00 0.  1.
         13    1    3    3    0    0  0.14732865710E+02 -0.18183473907E+02 -0.27490280842E+02  0.36102946814E+02  0.10570000000E+00 0. -1.
<mgrwt>
<rscale>  0 0.91856340E+02</rscale>
<asrwt>0</asrwt>
<pdfrwt beam="2">  1        2 0.52587551E-02 0.91856340E+02</pdfrwt>
<pdfrwt beam="1">  1       -2 0.94939869E-02 0.91856340E+02</pdfrwt>
<totfact> 0.89592722E+04</totfact>
</mgrwt>
</event>
<event>
 5   1  0.1343823E+00  0.9208363E+02  0.7818608E-02  0.1297883E+00
         -2   -1    0    0    0  501 -0.00000000000E+00  0.00000000000E+00  0.10854121821E+03  0.10854121824E+03  0.26000000000E-02 0.  1.
          2   -1    0    0  501    0  0.00000000000E+00 -0.00000000000E+00 -0.19530355455E+02  0.19530355628E+02  0.26000000000E-02 0. -1.
         23    2    1    2    0    0  0.00000000000E+00  0.00000000000E+00  0.89010862758E+02  0.12807157387E+03  0.92083626912E+02 0.  0.
        -13    1    3    3    0    0 -0.24829713053E+02  0.33118169214E+02  0.72547222497E+02  0.83525076754E+02  0.10570000000E+00 0.  1.
         13    1    3    3    0    0  0.24829713053E+02 -0.33118169214E+02  0.16463640261E+02  0.44546497118E+02  0.10570000000E+00 0. -1.
<mgrwt>
<rscale>  0 0.92083627E+02</rscale>
<asrwt>0</asrwt>
<pdfrwt beam="2">  1        2 0.30046702E-02 0.92083627E+02</pdfrwt>
<pdfrwt beam="1">  1       -2 0.16698649E-01 0.92083627E+02</pdfrwt>
<totfact> 0.75943149E+04</totfact>
</mgrwt>
</event>
<event>
 5   1  0.1343823E+00  0.9578235E+02  0.7818608E-02  0.1289424E+00
          2   -1    0    0  501    0  0.00000000000E+00  0.00000000000E+00  0.69019911076E+01  0.69019915973E+01  0.26000000000E-02 0. -1.
         -2   -1    0    0    0  501 -0.00000000000E+00 -0.00000000000E+00 -0.33230478967E+03  0.33230478968E+03  0.26000000000E-02 0.  1.
         23    2    1    2    0    0  0.00000000000E+00  0.00000000000E+00 -0.32540279857E+03  0.33920678128E+03  0.95782353033E+02 0.  0.
        -13    1    3    3    0    0  0.44326418511E+01 -0.47660043210E+02 -0.15718587117E+03  0.16431231634E+03  0.10570000000E+00 0.  1.
         13    1    3    3    0    0 -0.44326418511E+01  0.47660043210E+02 -0.16821692740E+03  0.17489446495E+03  0.10570000000E+00 0. -1.
<mgrwt>
<rscale>  0 0.95782353E+02</rscale>
<asrwt>0</asrwt>
<pdfrwt beam="1">  1        2 0.10618451E-02 0.95782353E+02</pdfrwt>
<pdfrwt beam="2">  1       -2 0.51123801E-01 0.95782353E+02</pdfrwt>
<totfact> 0.42311343E+04</totfact>
</mgrwt>
</event>
<event>
 5   1  0.1343823E+00  0.9093339E+02  0.7818608E-02  0.1300607E+00
          2   -1    0    0  501    0  0.00000000000E+00  0.00000000000E+00  0.85048681433E+02  0.85048681473E+02  0.26000000000E-02 0. -1.
         -2   -1    0    0    0  501 -0.00000000000E+00 -0.00000000000E+00 -0.24306319606E+02  0.24306319746E+02  0.26000000000E-02 0.  1.
         23    2    1    2    0    0  0.00000000000E+00  0.00000000000E+00  0.60742361827E+02  0.10935500122E+03  0.90933391948E+02 0.  0.
        -13    1    3    3    0    0 -0.35197887198E+02  0.12218502934E+02  0.61708260618E+02  0.72084004316E+02  0.10570000000E+00 0. -1.
         13    1    3    3    0    0  0.35197887198E+02 -0.12218502934E+02 -0.96589879119E+00  0.37270996903E+02  0.10570000000E+00 0.  1.
<mgrwt>
<rscale>  0 0.90933392E+02</rscale>
<asrwt>0</asrwt>
<pdfrwt beam="1">  1        2 0.13084413E-01 0.90933392E+02</pdfrwt>
<pdfrwt beam="2">  1       -2 0.37394338E-02 0.90933392E+02</pdfrwt>
<totfact> 0.11777070E+05</totfact>
</mgrwt>
</event>
<event>
 4   1  0.1343823E+00  0.1754464E+03  0.7818608E-02  0.1172284E+00
          2   -1    0    0  501    0  0.00000000000E+00  0.00000000000E+00  0.62183139511E+03  0.62183139511E+03  0.26000000000E-02 0. -1.
         -2   -1    0    0    0  501 -0.00000000000E+00 -0.00000000000E+00 -0.12375316459E+02  0.12375316732E+02  0.26000000000E-02 0.  1.
        -13    1    1    2    0    0  0.19026499512E+01 -0.80526198721E+02  0.17912884763E+03  0.19640581454E+03  0.10570000000E+00 0.  1.
         13    1    1    2    0    0 -0.19026499512E+01  0.80526198721E+02  0.43032723102E+03  0.43780089731E+03  0.10570000000E+00 0. -1.
<mgrwt>
<rscale>  0 0.17544641E+03</rscale>
<asrwt>0</asrwt>
<pdfrwt beam="1">  1        2 0.95666386E-01 0.17544641E+03</pdfrwt>
<pdfrwt beam="2">  1       -2 0.19038945E-02 0.17544641E+03</pdfrwt>
<totfact> 0.38514017E+04</totfact>
</mgrwt>
</event>
<event>
 5   1  0.1343823E+00  0.9223097E+02  0.7818608E-02  0.1297537E+00
         -2   -1    0    0    0  501 -0.00000000000E+00  0.00000000000E+00  0.25804487047E+03  0.25804487049E+03  0.26000000000E-02 0.  1.
          2   -1    0    0  501    0  0.00000000000E+00 -0.00000000000E+00 -0.82413492713E+01  0.82413496814E+01  0.26000000000E-02 0. -1.
         23    2    1    2    0    0  0.00000000000E+00  0.00000000000E+00  0.24980352120E+03  0.26628622017E+03  0.92230970104E+02 0.  0.
        -13    1    3    3    0    0  0.29616595453E+02  0.30439371626E+02  0.73018740233E+02  0.84471567222E+02  0.10570000000E+00 0. -1.
         13    1    3    3    0    0 -0.29616595453E+02 -0.30439371626E+02  0.17678478097E+03  0.18181465295E+03  0.10570000000E+00 0.  1.
<mgrwt>
<rscale>  0 0.92230970E+02</rscale>
<asrwt>0</asrwt>
<pdfrwt beam="2">  1        2 0.12679000E-02 0.92230970E+02</pdfrwt>
<pdfrwt beam="1">  1       -2 0.39699208E-01 0.92230970E+02</pdfrwt>
<totfact> 0.53677006E+04</totfact>
</mgrwt>
</event>
<event>
 5   1  0.1343823E+00  0.9264933E+02  0.7818608E-02  0.1296560E+00
          2   -1    0    0  501    0  0.00000000000E+00  0.00000000000E+00  0.85640060722E+01  0.85640064669E+01  0.26000000000E-02 0. -1.
         -2   -1    0    0    0  501 -0.00000000000E+00 -0.00000000000E+00 -0.25058070332E+03  0.25058070333E+03  0.26000000000E-02 0.  1.
         23    2    1    2    0    0  0.00000000000E+00  0.00000000000E+00 -0.24201669725E+03  0.25914470980E+03  0.92649332813E+02 0.  0.
        -13    1    3    3    0    0 -0.29208076155E+02  0.23052521669E+02 -0.43826367703E+02  0.57491670236E+02  0.10570000000E+00 0.  1.
         13    1    3    3    0    0  0.29208076155E+02 -0.23052521669E+02 -0.19819032954E+03  0.20165303956E+03  0.10570000000E+00 0. -1.
<mgrwt>
<rscale>  0 0.92649333E+02</rscale>
<asrwt>0</asrwt>
<pdfrwt beam="1">  1        2 0.13175396E-02 0.92649333E+02</pdfrwt>
<pdfrwt beam="2">  1       -2 0.38550872E-01 0.92649333E+02</pdfrwt>
<totfact> 0.53849000E+04</totfact>
</mgrwt>
</event>
<event>
 5   1  0.1343823E+00  0.1221798E+03  0.7818608E-02  0.1239544E+00
         -2   -1    0    0    0  501 -0.00000000000E+00  0.00000000000E+00  0.20243458275E+02  0.20243458442E+02  0.26000000000E-02 0.  1.
          2   -1    0    0  501    0  0.00000000000E+00 -0.00000000000E+00 -0.18435464445E+03  0.18435464447E+03  0.26000000000E-02 0. -1.
         23    2    1    2    0    0  0.00000000000E+00  0.00000000000E+00 -0.16411118618E+03  0.20459810291E+03  0.12217979492E+03 0.  0.
        -13    1    3    3    0    0  0.46433273823E+02  0.94484563496E+01 -0.17489362586E+02  0.50509516148E+02  0.10570000000E+00 0.  1.
         13    1    3    3    0    0 -0.46433273823E+02 -0.94484563496E+01 -0.14662182359E+03  0.15408858677E+03  0.10570000000E+00 0. -1.
<mgrwt>
<rscale>  0 0.12217979E+03</rscale>
<asrwt>0</asrwt>
<pdfrwt beam="2">  1        2 0.28362252E-01 0.12217979E+03</pdfrwt>
<pdfrwt beam="1">  1       -2 0.31143783E-02 0.12217979E+03</pdfrwt>
<totfact> 0.67156387E+04</totfact>
</mgrwt>
</event>
<event>
 5   1  0.1343823E+00  0.8959077E+02  0.7818608E-02  0.1303846E+00
         -2   -1    0    0    0  501 -0.00000000000E+00  0.00000000000E+00  0.22458261675E+02  0.22458261826E+02  0.26000000000E-02 0.  1.
          2   -1    0    0  501    0  0.00000000000E+00 -0.00000000000E+00 -0.89349148392E+02  0.89349148430E+02  0.26000000000E-02 0. -1.
         23    2    1    2    0    0  0.00000000000E+00  0.00000000000E+00 -0.66890886717E+02  0.11180741026E+03  0.89590771078E+02 0.  0.
        -13    1    3    3    0    0 -0.20876269293E+02  0.30005821170E+02 -0.65759366801E+02  0.75236117778E+02  0.10570000000E+00 0.  1.
         13    1    3    3    0    0  0.20876269293E+02 -0.30005821170E+02 -0.11315199156E+01  0.36571292478E+02  0.10570000000E+00 0. -1.
<mgrwt>
<rscale>  0 0.89590771E+02</rscale>
<asrwt>0</asrwt>
<pdfrwt beam="2">  1        2 0.13746023E-01 0.89590771E+02</pdfrwt>
<pdfrwt beam="1">  1       -2 0.34551172E-02 0.89590771E+02</pdfrwt>
<totfact> 0.12448942E+05</totfact>
</mgrwt>
</event>
<event>
 5   1  0.1343823E+00  0.9038599E+02  0.7818608E-02  0.1301920E+00
          2   -1    0    0  501    0  0.00000000000E+00  0.00000000000E+00  0.15795537067E+03  0.15795537069E+03  0.26000000000E-02 0. -1.
         -2   -1    0    0    0  501 -0.00000000000E+00 -0.00000000000E+00 -0.12930277342E+02  0.12930277603E+02  0.26000000000E-02 0.  1.
         23    2    1    2    0    0  0.00000000000E+00  0.00000000000E+00  0.14502509332E+03  0.17088564829E+03  0.90385989501E+02 0.  0.
        -13    1    3    3    0    0 -0.40002515198E+02  0.17025158444E+02  0.49177476491E+02  0.65639108835E+02  0.10570000000E+00 0.  1.
         13    1    3    3    0    0  0.40002515198E+02 -0.17025158444E+02  0.95847616833E+02  0.10524653946E+03  0.10570000000E+00 0. -1.
<mgrwt>
<rscale>  0 0.90385990E+02</rscale>
<asrwt>0</asrwt>
<pdfrwt beam="1">  1        2 0.24300827E-01 0.90385990E+02</pdfrwt>
<pdfrwt beam="2">  1       -2 0.19892734E-02 0.90385990E+02</pdfrwt>
<totfact> 0.14569966E+05</totfact>
</mgrwt>
</event>
<event>
 5   1  0.1343823E+00  0.9276124E+02  0.7818608E-02  0.1296299E+00
          2   -1    0    0  501    0  0.00000000000E+00  0.00000000000E+00  0.73113271953E+02  0.73113271999E+02  0.26000000000E-02 0. -1.
         -2   -1    0    0    0  501 -0.00000000000E+00 -0.00000000000E+00 -0.29422319425E+02  0.29422319539E+02  0.26000000000E-02 0.  1.
         23    2    1    2    0    0  0.00000000000E+00  0.00000000000E+00  0.43690952528E+02  0.10253559154E+03  0.92761242981E+02 0.  0.
        -13    1    3    3    0    0  0.24582699993E+02 -0.22393631376E+02 -0.13893530397E+02  0.36039217868E+02  0.10570000000E+00 0.  1.
         13    1    3    3    0    0 -0.24582699993E+02  0.22393631376E+02  0.57584482925E+02  0.66496373671E+02  0.10570000000E+00 0. -1.
<mgrwt>
<rscale>  0 0.92761243E+02</rscale>
<asrwt>0</asrwt>
<pdfrwt beam="1">  1        2 0.11248196E-01 0.92761243E+02</pdfrwt>
<pdfrwt beam="2">  1       -2 0.45265107E-02 0.92761243E+02</pdfrwt>
<totfact> 0.10669831E+05</totfact>
</mgrwt>
</event>
<event>
 5   1  0.1343823E+00  0.9226159E+02  0.7818608E-02  0.1297466E+00
          2   -1    0    0  501    0  0.00000000000E+00  0.00000000000E+00  0.83898711989E+02  0.83898712029E+02  0.26000000000E-02 0. -1.
         -2   -1    0    0    0  501 -0.00000000000E+00 -0.00000000000E+00 -0.25364517692E+02  0.25364517825E+02  0.26000000000E-02 0.  1.
         23    2    1    2    0    0  0.00000000000E+00  0.00000000000E+00  0.58534194297E+02  0.10926322985E+03  0.92261592746E+02 0.  0.
        -13    1    3    3    0    0 -0.27696249710E+01  0.35544227024E+02  0.63935792079E+02  0.73204231971E+02  0.10570000000E+00 0. -1.
         13    1    3    3    0    0  0.27696249710E+01 -0.35544227024E+02 -0.54015977823E+01  0.36058997883E+02  0.10570000000E+00 0.  1.
<mgrwt>
<rscale>  0 0.92261593E+02</rscale>
<asrwt>0</asrwt>
<pdfrwt beam="1">  1        2 0.12907494E-01 0.92261593E+02</pdfrwt>
<pdfrwt beam="2">  1       -2 0.39022335E-02 0.92261593E+02</pdfrwt>
<totfact> 0.11267555E+05</totfact>
</mgrwt>
</event>
<event>
 5   1  0.1343823E+00  0.9261521E+02  0.7818608E-02  0.1296639E+00
          2   -1    0    0  501    0  0.00000000000E+00  0.00000000000E+00  0.37580418848E+02  0.37580418938E+02  0.26000000000E-02 0. -1.
         -2   -1    0    0    0  501 -0.00000000000E+00 -0.00000000000E+00 -0.57061482233E+02  0.57061482292E+02  0.26000000000E-02 0.  1.
         23    2    1    2    0    0  0.00000000000E+00  0.00000000000E+00 -0.19481063385E+02  0.94641901230E+02  0.92615212777E+02 0.  0.
        -13    1    3    3    0    0  0.20533315885E+02 -0.11544912914E+02  0.31000199555E+02  0.38934889499E+02  0.10570000000E+00 0. -1.
         13    1    3    3    0    0 -0.20533315885E+02  0.11544912914E+02 -0.50481262940E+02  0.55707011730E+02  0.10570000000E+00 0.  1.
<mgrwt>
<rscale>  0 0.92615213E+02</rscale>
<asrwt>0</asrwt>
<pdfrwt beam="1">  1        2 0.57816029E-02 0.92615213E+02</pdfrwt>
<pdfrwt beam="2">  1       -2 0.87786896E-02 0.92615213E+02</pdfrwt>
<totfact> 0.89667846E+04</totfact>
</mgrwt>
</event>
<event>
 5   1  0.1343823E+00  0.9067975E+02  0.7818608E-02  0.1301214E+00
          2   -1    0    0  501    0  0.00000000000E+00  0.00000000000E+00  0.28145274744E+02  0.28145274864E+02  0.26000000000E-02 0. -1.
         -2   -1    0    0    0  501 -0.00000000000E+00 -0.00000000000E+00 -0.73039059768E+02  0.73039059814E+02  0.26000000000E-02 0.  1.
         23    2    1    2    0    0  0.00000000000E+00  0.00000000000E+00 -0.44893785024E+02  0.10118433468E+03  0.90679753256E+02 0.  0.
        -13    1    3    3    0    0  0.28869763724E+02 -0.26044345554E+02  0.35769416139E+01  0.39045830464E+02  0.10570000000E+00 0. -1.
         13    1    3    3    0    0 -0.28869763724E+02  0.26044345554E+02 -0.48470726638E+02  0.62138504215E+02  0.10570000000E+00 0.  1.
<mgrwt>
<rscale>  0 0.90679753E+02</rscale>
<asrwt>0</asrwt>
<pdfrwt beam="1">  1        2 0.43300423E-02 0.90679753E+02</pdfrwt>
<pdfrwt beam="2">  1       -2 0.11236778E-01 0.90679753E+02</pdfrwt>
<totfact> 0.88391186E+04</totfact>
</mgrwt>
</event>
<event>
 5   1  0.1343823E+00  0.1089685E+03  0.7818608E-02  0.1262492E+00
         -2   -1    0    0    0  501 -0.00000000000E+00  0.00000000000E+00  0.63182151774E+01  0.63182157124E+01  0.26000000000E-02 0.  1.
          2   -1    0    0  501    0  0.00000000000E+00 -0.00000000000E+00 -0.46983739189E+03  0.46983739190E+03  0.26000000000E-02 0. -1.
         23    2    1    2    0    0  0.00000000000E+00  0.00000000000E+00 -0.46351917671E+03  0.47615560761E+03  0.10896850682E+03 0.  0.
        -13    1    3    3    0    0 -0.53381269946E+02  0.75117530612E+01 -0.26631482977E+03  0.27171600273E+03  0.10570000000E+00 0.  1.
         13    1    3    3    0    0  0.53381269946E+02 -0.75117530612E+01 -0.19720434694E+03  0.20443960488E+03  0.10570000000E+00 0. -1.
<mgrwt>
<rscale>  0 0.10896851E+03</rscale>
<asrwt>0</asrwt>
<pdfrwt beam="2">  1        2 0.72282648E-01 0.10896851E+03</pdfrwt>
<pdfrwt beam="1">  1       -2 0.97203352E-03 0.10896851E+03</pdfrwt>
<totfact> 0.13107020E+05</totfact>
</mgrwt>
</event>
<event>
 5   1  0.1343823E+00  0.9045602E+02  0.7818608E-02  0.1301751E+00
         -2   -1    0    0    0  501 -0.00000000000E+00  0.00000000000E+00  0.25329520312E+03  0.25329520313E+03  0.26000000000E-02 0.  1.
          2   -1    0    0  501    0  0.00000000000E+00 -0.00000000000E+00 -0.80758444230E+01  0.80758448415E+01  0.26000000000E-02 0. -1.
         23    2    1    2    0    0  0.00000000000E+00  0.00000000000E+00  0.24521935869E+03  0.26137104797E+03  0.90456016050E+02 0.  0.
        -13    1    3    3    0    0 -0.34892135187E+02  0.22221549441E+02  0.69778503494E+02  0.81119104284E+02  0.10570000000E+00 0. -1.
         13    1    3    3    0    0  0.34892135187E+02 -0.22221549441E+02  0.17544085520E+03  0.18025194369E+03  0.10570000000E+00 0.  1.
<mgrwt>
<rscale>  0 0.90456016E+02</rscale>
<asrwt>0</asrwt>
<pdfrwt beam="2">  1        2 0.12424378E-02 0.90456016E+02</pdfrwt>
<pdfrwt beam="1">  1       -2 0.38968489E-01 0.90456016E+02</pdfrwt>
<totfact> 0.56957660E+04</totfact>
</mgrwt>
</event>
<event>
 5   1  0.1343823E+00  0.9174631E+02  0.7818608E-02  0.1298677E+00
          2   -1    0    0  501    0  0.00000000000E+00  0.00000000000E+00  0.26679885504E+03  0.26679885505E+03  0.26000000000E-02 0.  1.
         -2   -1    0    0    0  501 -0.00000000000E+00 -0.00000000000E+00 -0.78873891051E+01  0.78873895337E+01  0.26000000000E-02 0. -1.
         23    2    1    2    0    0  0.00000000000E+00  0.00000000000E+00  0.25891146594E+03  0.27468624459E+03  0.91746312037E+02 0.  0.
        -13    1    3    3    0    0 -0.29648756724E+02  0.27867004396E+02  0.19287691697E+03  0.19712213214E+03  0.10570000000E+00 0.  1.
         13    1    3    3    0    0  0.29648756724E+02 -0.27867004396E+02  0.66034548968E+02  0.77564112444E+02  0.10570000000E+00 0. -1.
<mgrwt>
<rscale>  0 0.91746312E+02</rscale>
<asrwt>0</asrwt>
<pdfrwt beam="1">  1        2 0.41045972E-01 0.91746312E+02</pdfrwt>
<pdfrwt beam="2">  1       -2 0.12134447E-02 0.91746312E+02</pdfrwt>
<totfact> 0.16912668E+05</totfact>
</mgrwt>
</event>
<event>
 5   1  0.1343823E+00  0.9356494E+02  0.7818608E-02  0.1294441E+00
         -2   -1    0    0    0  501 -0.00000000000E+00  0.00000000000E+00  0.79330797209E+02  0.79330797252E+02  0.26000000000E-02 0. -1.
          2   -1    0    0  501    0  0.00000000000E+00 -0.00000000000E+00 -0.27588268918E+02  0.27588269040E+02  0.26000000000E-02 0.  1.
         23    2    1    2    0    0  0.00000000000E+00  0.00000000000E+00  0.51742528292E+02  0.10691906629E+03  0.93564937357E+02 0.  0.
        -13    1    3    3    0    0 -0.28120928449E+02  0.79452822306E+01 -0.15876155641E+02  0.33256241775E+02  0.10570000000E+00 0.  1.
         13    1    3    3    0    0  0.28120928449E+02 -0.79452822306E+01  0.67618683933E+02  0.73662824517E+02  0.10570000000E+00 0. -1.
<mgrwt>
<rscale>  0 0.93564937E+02</rscale>
<asrwt>0</asrwt>
<pdfrwt beam="2">  1        2 0.42443492E-02 0.93564937E+02</pdfrwt>
<pdfrwt beam="1">  1       -2 0.12204738E-01 0.93564937E+02</pdfrwt>
<totfact> 0.80028176E+04</totfact>
</mgrwt>
</event>
<event>
 5   1  0.1343823E+00  0.9279463E+02  0.7818608E-02  0.1296222E+00
          2   -1    0    0  501    0  0.00000000000E+00  0.00000000000E+00  0.78117346975E+02  0.78117347019E+02  0.26000000000E-02 0. -1.
         -2   -1    0    0    0  501 -0.00000000000E+00 -0.00000000000E+00 -0.27557396065E+02  0.27557396188E+02  0.26000000000E-02 0.  1.
         23    2    1    2    0    0  0.00000000000E+00  0.00000000000E+00  0.50559950910E+02  0.10567474321E+03  0.92794626545E+02 0.  0.
        -13    1    3    3    0    0 -0.34826678126E+02  0.11499786622E+02 -0.70819937488E+01  0.37353827242E+02  0.10570000000E+00 0.  1.
         13    1    3    3    0    0  0.34826678126E+02 -0.11499786622E+02  0.57641944659E+02  0.68320915965E+02  0.10570000000E+00 0. -1.
<mgrwt>
<rscale>  0 0.92794627E+02</rscale>
<asrwt>0</asrwt>
<pdfrwt beam="1">  1        2 0.12018053E-01 0.92794627E+02</pdfrwt>
<pdfrwt beam="2">  1       -2 0.42395995E-02 0.92794627E+02</pdfrwt>
<totfact> 0.10861783E+05</totfact>
</mgrwt>
</event>
<event>
 5   1  0.1343823E+00  0.8840292E+02  0.7818608E-02  0.1306766E+00
          2   -1    0    0  501    0  0.00000000000E+00  0.00000000000E+00  0.14439384465E+03  0.14439384467E+03  0.26000000000E-02 0. -1.
         -2   -1    0    0    0  501 -0.00000000000E+00 -0.00000000000E+00 -0.13530833214E+02  0.13530833464E+02  0.26000000000E-02 0.  1.
         23    2    1    2    0    0  0.00000000000E+00  0.00000000000E+00  0.13086301143E+03  0.15792467813E+03  0.88402919650E+02 0.  0.
        -13    1    3    3    0    0 -0.73803866440E+01  0.43070161341E+02  0.77314749061E+02  0.88809292868E+02  0.10570000000E+00 0. -1.
         13    1    3    3    0    0  0.73803866440E+01 -0.43070161341E+02  0.53548262371E+02  0.69115385265E+02  0.10570000000E+00 0.  1.
<mgrwt>
<rscale>  0 0.88402920E+02</rscale>
<asrwt>0</asrwt>
<pdfrwt beam="1">  1        2 0.22214438E-01 0.88402920E+02</pdfrwt>
<pdfrwt beam="2">  1       -2 0.20816667E-02 0.88402920E+02</pdfrwt>
<totfact> 0.15007113E+05</totfact>
</mgrwt>
</event>
<event>
 5   1  0.1343823E+00  0.9124386E+02  0.7818608E-02  0.1299867E+00
          2   -1    0    0  501    0  0.00000000000E+00  0.00000000000E+00  0.44580727882E+03  0.44580727883E+03  0.26000000000E-02 0. -1.
         -2   -1    0    0    0  501 -0.00000000000E+00 -0.00000000000E+00 -0.46687449823E+01  0.46687457063E+01  0.26000000000E-02 0.  1.
         23    2    1    2    0    0  0.00000000000E+00  0.00000000000E+00  0.44113853384E+03  0.45047602454E+03  0.91243863593E+02 0.  0.
        -13    1    3    3    0    0  0.31914357434E+02  0.31365225701E+02  0.17667501270E+03  0.18225360045E+03  0.10570000000E+00 0. -1.
         13    1    3    3    0    0 -0.31914357434E+02 -0.31365225701E+02  0.26446352115E+03  0.26822242409E+03  0.10570000000E+00 0.  1.
<mgrwt>
<rscale>  0 0.91243864E+02</rscale>
<asrwt>0</asrwt>
<pdfrwt beam="1">  1        2 0.68585731E-01 0.91243864E+02</pdfrwt>
<pdfrwt beam="2">  1       -2 0.71826856E-03 0.91243864E+02</pdfrwt>
<totfact> 0.20696860E+05</totfact>
</mgrwt>
</event>
<event>
 5   1  0.1343823E+00  0.6574527E+02  0.7818608E-02  0.1375190E+00
         -2   -1    0    0    0  501 -0.00000000000E+00  0.00000000000E+00  0.63806316294E+02  0.63806316347E+02  0.26000000000E-02 0. -1.
          2   -1    0    0  501    0  0.00000000000E+00 -0.00000000000E+00 -0.16935784805E+02  0.16935785004E+02  0.26000000000E-02 0.  1.
         23    2    1    2    0    0  0.00000000000E+00  0.00000000000E+00  0.46870531489E+02  0.80742101352E+02  0.65745267576E+02 0.  0.
        -13    1    3    3    0    0 -0.28023740078E+02 -0.16574370680E+02  0.17866772624E+02  0.37138558236E+02  0.10570000000E+00 0. -1.
         13    1    3    3    0    0  0.28023740078E+02  0.16574370680E+02  0.29003758865E+02  0.43603543115E+02  0.10570000000E+00 0.  1.
<mgrwt>
<rscale>  0 0.65745268E+02</rscale>
<asrwt>0</asrwt>
<pdfrwt beam="2">  1        2 0.26055054E-02 0.65745268E+02</pdfrwt>
<pdfrwt beam="1">  1       -2 0.98163564E-02 0.65745268E+02</pdfrwt>
<totfact> 0.20038965E+05</totfact>
</mgrwt>
</event>
<event>
 5   1  0.1343823E+00  0.9038277E+02  0.7818608E-02  0.1301927E+00
          2   -1    0    0  501    0  0.00000000000E+00  0.00000000000E+00  0.35363161976E+03  0.35363161977E+03  0.26000000000E-02 0. -1.
         -2   -1    0    0    0  501 -0.00000000000E+00 -0.00000000000E+00 -0.57751084580E+01  0.57751090433E+01  0.26000000000E-02 0.  1.
         23    2    1    2    0    0  0.00000000000E+00  0.00000000000E+00  0.34785651131E+03  0.35940672882E+03  0.90382765286E+02 0.  0.
        -13    1    3    3    0    0  0.12287674568E+02  0.40418848736E+02  0.23774818551E+03  0.24147231967E+03  0.10570000000E+00 0. -1.
         13    1    3    3    0    0 -0.12287674568E+02 -0.40418848736E+02  0.11010832579E+03  0.11793440915E+03  0.10570000000E+00 0.  1.
<mgrwt>
<rscale>  0 0.90382765E+02</rscale>
<asrwt>0</asrwt>
<pdfrwt beam="1">  1        2 0.54404863E-01 0.90382765E+02</pdfrwt>
<pdfrwt beam="2">  1       -2 0.88847830E-03 0.90382765E+02</pdfrwt>
<totfact> 0.19540665E+05</totfact>
</mgrwt>
</event>
<event>
 5   1  0.1343823E+00  0.9712760E+02  0.7818608E-02  0.1286455E+00
         -2   -1    0    0    0  501 -0.00000000000E+00  0.00000000000E+00  0.25630114420E+02  0.25630114552E+02  0.26000000000E-02 0.  1.
          2   -1    0    0  501    0  0.00000000000E+00 -0.00000000000E+00 -0.92018415540E+02  0.92018415577E+02  0.26000000000E-02 0. -1.
         23    2    1    2    0    0  0.00000000000E+00  0.00000000000E+00 -0.66388301119E+02  0.11764853013E+03  0.97127597087E+02 0.  0.
        -13    1    3    3    0    0 -0.27932126505E+02 -0.25067067416E+02  0.41373889646E+01  0.37758319876E+02  0.10570000000E+00 0.  1.
         13    1    3    3    0    0  0.27932126505E+02  0.25067067416E+02 -0.70525690084E+02  0.79890210253E+02  0.10570000000E+00 0. -1.
<mgrwt>
<rscale>  0 0.97127597E+02</rscale>
<asrwt>0</asrwt>
<pdfrwt beam="2">  1        2 0.14156679E-01 0.97127597E+02</pdfrwt>
<pdfrwt beam="1">  1       -2 0.39430946E-02 0.97127597E+02</pdfrwt>
<totfact> 0.10037213E+05</totfact>
</mgrwt>
</event>
<event>
 5   1  0.1343823E+00  0.9133740E+02  0.7818608E-02  0.1299645E+00
         -2   -1    0    0    0  501 -0.00000000000E+00  0.00000000000E+00  0.17446866478E+02  0.17446866672E+02  0.26000000000E-02 0.  1.
          2   -1    0    0  501    0  0.00000000000E+00 -0.00000000000E+00 -0.11954180885E+03  0.11954180888E+03  0.26000000000E-02 0. -1.
         23    2    1    2    0    0  0.00000000000E+00  0.00000000000E+00 -0.10209494238E+03  0.13698867555E+03  0.91337396346E+02 0.  0.
        -13    1    3    3    0    0  0.42384007465E+02 -0.16305256102E+02 -0.43799596434E+02  0.63092640503E+02  0.10570000000E+00 0.  1.
         13    1    3    3    0    0 -0.42384007465E+02  0.16305256102E+02 -0.58295345941E+02  0.73896035051E+02  0.10570000000E+00 0. -1.
<mgrwt>
<rscale>  0 0.91337396E+02</rscale>
<asrwt>0</asrwt>
<pdfrwt beam="2">  1        2 0.18391047E-01 0.91337396E+02</pdfrwt>
<pdfrwt beam="1">  1       -2 0.26841334E-02 0.91337396E+02</pdfrwt>
<totfact> 0.12908210E+05</totfact>
</mgrwt>
</event>
<event>
 5   1  0.1343823E+00  0.9196132E+02  0.7818608E-02  0.1298170E+00
         -2   -1    0    0    0  501 -0.00000000000E+00  0.00000000000E+00  0.15888224091E+02  0.15888224304E+02  0.26000000000E-02 0. -1.
          2   -1    0    0  501    0  0.00000000000E+00 -0.00000000000E+00 -0.13306843650E+03  0.13306843652E+03  0.26000000000E-02 0.  1.
         23    2    1    2    0    0  0.00000000000E+00  0.00000000000E+00 -0.11718021241E+03  0.14895666083E+03  0.91961321353E+02 0.  0.
        -13    1    3    3    0    0 -0.19525647317E+02 -0.31573778308E+02 -0.10253516370E+03  0.10904872924E+03  0.10570000000E+00 0.  1.
         13    1    3    3    0    0  0.19525647317E+02  0.31573778308E+02 -0.14645048704E+02  0.39907931591E+02  0.10570000000E+00 0. -1.
<mgrwt>
<rscale>  0 0.91961321E+02</rscale>
<asrwt>0</asrwt>
<pdfrwt beam="2">  1        2 0.20472066E-01 0.91961321E+02</pdfrwt>
<pdfrwt beam="1">  1       -2 0.24443423E-02 0.91961321E+02</pdfrwt>
<totfact> 0.13120492E+05</totfact>
</mgrwt>
</event>
<event>
 4   1  0.1343823E+00  0.2750156E+03  0.7818608E-02  0.1098443E+00
          2   -1    0    0  501    0  0.00000000000E+00  0.00000000000E+00  0.41028553407E+03  0.41028553407E+03  0.26000000000E-02 0. -1.
         -2   -1    0    0    0  501 -0.00000000000E+00 -0.00000000000E+00 -0.46085937769E+02  0.46085937842E+02  0.26000000000E-02 0.  1.
        -13    1    1    2    0    0 -0.58939456117E+02  0.46669115930E+02 -0.89628906501E+01  0.75711362756E+02  0.10570000000E+00 0.  1.
         13    1    1    2    0    0  0.58939456117E+02 -0.46669115930E+02  0.37316248695E+03  0.38066010916E+03  0.10570000000E+00 0. -1.
<mgrwt>
<rscale>  0 0.27501559E+03</rscale>
<asrwt>0</asrwt>
<pdfrwt beam="1">  1        2 0.63120848E-01 0.27501559E+03</pdfrwt>
<pdfrwt beam="2">  1       -2 0.70901446E-02 0.27501559E+03</pdfrwt>
<totfact> 0.88095510E+03</totfact>
</mgrwt>
</event>
<event>
 5   1  0.1343823E+00  0.8851647E+02  0.7818608E-02  0.1306485E+00
         -2   -1    0    0    0  501 -0.00000000000E+00  0.00000000000E+00  0.43000067524E+03  0.43000067525E+03  0.26000000000E-02 0.  1.
          2   -1    0    0  501    0  0.00000000000E+00 -0.00000000000E+00 -0.45553215103E+01  0.45553222523E+01  0.26000000000E-02 0. -1.
         23    2    1    2    0    0  0.00000000000E+00  0.00000000000E+00  0.42544535373E+03  0.43455599750E+03  0.88516472779E+02 0.  0.
        -13    1    3    3    0    0  0.39181858638E+02 -0.18429421159E+02  0.25769559162E+03  0.26130803800E+03  0.10570000000E+00 0. -1.
         13    1    3    3    0    0 -0.39181858638E+02  0.18429421159E+02  0.16774976211E+03  0.17324795950E+03  0.10570000000E+00 0.  1.
<mgrwt>
<rscale>  0 0.88516473E+02</rscale>
<asrwt>0</asrwt>
<pdfrwt beam="2">  1        2 0.70081852E-03 0.88516473E+02</pdfrwt>
<pdfrwt beam="1">  1       -2 0.66153972E-01 0.88516473E+02</pdfrwt>
<totfact> 0.43835911E+04</totfact>
</mgrwt>
</event>
<event>
 5   1  0.1343823E+00  0.8873565E+02  0.7818608E-02  0.1305943E+00
         -2   -1    0    0    0  501 -0.00000000000E+00  0.00000000000E+00  0.33435374319E+03  0.33435374320E+03  0.26000000000E-02 0.  1.
          2   -1    0    0  501    0  0.00000000000E+00 -0.00000000000E+00 -0.58874888840E+01  0.58874894581E+01  0.26000000000E-02 0. -1.
         23    2    1    2    0    0  0.00000000000E+00  0.00000000000E+00  0.32846625431E+03  0.34024123266E+03  0.88735653393E+02 0.  0.
        -13    1    3    3    0    0  0.40953914996E+02  0.16240307441E+02  0.14411767292E+03  0.15070131240E+03  0.10570000000E+00 0. -1.
         13    1    3    3    0    0 -0.40953914996E+02 -0.16240307441E+02  0.18434858139E+03  0.18953992026E+03  0.10570000000E+00 0.  1.
<mgrwt>
<rscale>  0 0.88735653E+02</rscale>
<asrwt>0</asrwt>
<pdfrwt beam="2">  1        2 0.90576733E-03 0.88735653E+02</pdfrwt>
<pdfrwt beam="1">  1       -2 0.51439051E-01 0.88735653E+02</pdfrwt>
<totfact> 0.51345723E+04</totfact>
</mgrwt>
</event>
<event>
 5   1  0.1343823E+00  0.9104298E+02  0.7818608E-02  0.1300345E+00
         -2   -1    0    0    0  501 -0.00000000000E+00  0.00000000000E+00  0.27149041006E+02  0.27149041130E+02  0.26000000000E-02 0.  1.
          2   -1    0    0  501    0  0.00000000000E+00 -0.00000000000E+00 -0.76327049955E+02  0.76327049999E+02  0.26000000000E-02 0. -1.
         23    2    1    2    0    0  0.00000000000E+00  0.00000000000E+00 -0.49178008949E+02  0.10347609113E+03  0.91042983646E+02 0.  0.
        -13    1    3    3    0    0 -0.15690392837E+02 -0.36862919312E+02 -0.49153805352E+02  0.63412703780E+02  0.10570000000E+00 0.  1.
         13    1    3    3    0    0  0.15690392837E+02  0.36862919312E+02 -0.24203597671E-01  0.40063387350E+02  0.10570000000E+00 0. -1.
<mgrwt>
<rscale>  0 0.91042984E+02</rscale>
<asrwt>0</asrwt>
<pdfrwt beam="2">  1        2 0.11742623E-01 0.91042984E+02</pdfrwt>
<pdfrwt beam="1">  1       -2 0.41767756E-02 0.91042984E+02</pdfrwt>
<totfact> 0.11379627E+05</totfact>
</mgrwt>
</event>
<event>
 5   1  0.1343823E+00  0.9111384E+02  0.7818608E-02  0.1300177E+00
         -2   -1    0    0    0  501 -0.00000000000E+00  0.00000000000E+00  0.20529999607E+02  0.20529999772E+02  0.26000000000E-02 0.  1.
          2   -1    0    0  501    0  0.00000000000E+00 -0.00000000000E+00 -0.10109270153E+03  0.10109270157E+03  0.26000000000E-02 0. -1.
         23    2    1    2    0    0  0.00000000000E+00  0.00000000000E+00 -0.80562701925E+02  0.12162270134E+03  0.91113843839E+02 0.  0.
        -13    1    3    3    0    0  0.26700985138E+02  0.10515295915E-01  0.89900855164E+01  0.28174022219E+02  0.10570000000E+00 0.  1.
         13    1    3    3    0    0 -0.26700985138E+02 -0.10515295915E-01 -0.89552787442E+02  0.93448679119E+02  0.10570000000E+00 0. -1.
<mgrwt>
<rscale>  0 0.91113844E+02</rscale>
<asrwt>0</asrwt>
<pdfrwt beam="2">  1        2 0.15552723E-01 0.91113844E+02</pdfrwt>
<pdfrwt beam="1">  1       -2 0.31584616E-02 0.91113844E+02</pdfrwt>
<totfact> 0.12331798E+05</totfact>
</mgrwt>
</event>
<event>
 5   1  0.1343823E+00  0.1062622E+03  0.7818608E-02  0.1267652E+00
          2   -1    0    0  501    0  0.00000000000E+00  0.00000000000E+00  0.35609237170E+02  0.35609237265E+02  0.26000000000E-02 0. -1.
         -2   -1    0    0    0  501 -0.00000000000E+00 -0.00000000000E+00 -0.79274793463E+02  0.79274793506E+02  0.26000000000E-02 0.  1.
         23    2    1    2    0    0  0.00000000000E+00  0.00000000000E+00 -0.43665556293E+02  0.11488403077E+03  0.10626222151E+03 0.  0.
        -13    1    3    3    0    0  0.97844034916E+01  0.22724659388E+02 -0.72666449934E+02  0.76763069340E+02  0.10570000000E+00 0.  1.
         13    1    3    3    0    0 -0.97844034916E+01 -0.22724659388E+02  0.29000893641E+02  0.38120961431E+02  0.10570000000E+00 0. -1.
<mgrwt>
<rscale>  0 0.10626222E+03</rscale>
<asrwt>0</asrwt>
<pdfrwt beam="1">  1        2 0.54783442E-02 0.10626222E+03</pdfrwt>
<pdfrwt beam="2">  1       -2 0.12196122E-01 0.10626222E+03</pdfrwt>
<totfact> 0.58647287E+04</totfact>
</mgrwt>
</event>
<event>
 5   1  0.1343823E+00  0.9574420E+02  0.7818608E-02  0.1289509E+00
         -2   -1    0    0    0  501 -0.00000000000E+00  0.00000000000E+00  0.69584009518E+01  0.69584014376E+01  0.26000000000E-02 0.  1.
          2   -1    0    0  501    0  0.00000000000E+00 -0.00000000000E+00 -0.32934834607E+03  0.32934834608E+03  0.26000000000E-02 0. -1.
         23    2    1    2    0    0  0.00000000000E+00  0.00000000000E+00 -0.32238994512E+03  0.33630674752E+03  0.95744199368E+02 0.  0.
        -13    1    3    3    0    0  0.40248973485E+02  0.17700267807E+02 -0.94692800291E+02  0.10440314625E+03  0.10570000000E+00 0.  1.
         13    1    3    3    0    0 -0.40248973485E+02 -0.17700267807E+02 -0.22769714483E+03  0.23190360127E+03  0.10570000000E+00 0. -1.
<mgrwt>
<rscale>  0 0.95744199E+02</rscale>
<asrwt>0</asrwt>
<pdfrwt beam="2">  1        2 0.50668964E-01 0.95744199E+02</pdfrwt>
<pdfrwt beam="1">  1       -2 0.10705235E-02 0.95744199E+02</pdfrwt>
<totfact> 0.16321791E+05</totfact>
</mgrwt>
</event>
<event>
 5   1  0.1343823E+00  0.9307522E+02  0.7818608E-02  0.1295571E+00
          2   -1    0    0  501    0  0.00000000000E+00  0.00000000000E+00  0.11277779388E+02  0.11277779688E+02  0.26000000000E-02 0. -1.
         -2   -1    0    0    0  501 -0.00000000000E+00 -0.00000000000E+00 -0.19203684328E+03  0.19203684330E+03  0.26000000000E-02 0.  1.
         23    2    1    2    0    0  0.00000000000E+00  0.00000000000E+00 -0.18075906389E+03  0.20331462299E+03  0.93075220874E+02 0.  0.
        -13    1    3    3    0    0 -0.36881550516E+02 -0.27715313454E+02 -0.77029460516E+02  0.89788286141E+02  0.10570000000E+00 0. -1.
         13    1    3    3    0    0  0.36881550516E+02  0.27715313454E+02 -0.10372960338E+03  0.11352633684E+03  0.10570000000E+00 0.  1.
<mgrwt>
<rscale>  0 0.93075221E+02</rscale>
<asrwt>0</asrwt>
<pdfrwt beam="1">  1        2 0.17350431E-02 0.93075221E+02</pdfrwt>
<pdfrwt beam="2">  1       -2 0.29544127E-01 0.93075221E+02</pdfrwt>
<totfact> 0.60160696E+04</totfact>
</mgrwt>
</event>
<event>
 5   1  0.1343823E+00  0.8958407E+02  0.7818608E-02  0.1303862E+00
          2   -1    0    0  501    0  0.00000000000E+00  0.00000000000E+00  0.30531819625E+03  0.30531819627E+03  0.26000000000E-02 0. -1.
         -2   -1    0    0    0  501 -0.00000000000E+00 -0.00000000000E+00 -0.65712634857E+01  0.65712640001E+01  0.26000000000E-02 0.  1.
         23    2    1    2    0    0  0.00000000000E+00  0.00000000000E+00  0.29874693277E+03  0.31188946027E+03  0.89584069935E+02 0.  0.
        -13    1    3    3    0    0 -0.26766434177E+02 -0.31107274955E+02  0.21186768882E+03  0.21580554509E+03  0.10570000000E+00 0. -1.
         13    1    3    3    0    0  0.26766434177E+02  0.31107274955E+02  0.86879243952E+02  0.96083915178E+02  0.10570000000E+00 0.  1.
<mgrwt>
<rscale>  0 0.89584070E+02</rscale>
<asrwt>0</asrwt>
<pdfrwt beam="1">  1        2 0.46972024E-01 0.89584070E+02</pdfrwt>
<pdfrwt beam="2">  1       -2 0.10109638E-02 0.89584070E+02</pdfrwt>
<totfact> 0.18952924E+05</totfact>
</mgrwt>
</event>
<event>
 5   1  0.1343823E+00  0.8958379E+02  0.7818608E-02  0.1303863E+00
         -2   -1    0    0    0  501 -0.00000000000E+00  0.00000000000E+00  0.13606879691E+02  0.13606879939E+02  0.26000000000E-02 0. -1.
          2   -1    0    0  501    0  0.00000000000E+00 -0.00000000000E+00 -0.14744848490E+03  0.14744848493E+03  0.26000000000E-02 0.  1.
         23    2    1    2    0    0  0.00000000000E+00  0.00000000000E+00 -0.13384160521E+03  0.16105536487E+03  0.89583789081E+02 0.  0.
        -13    1    3    3    0    0 -0.31021624862E+02  0.31683671140E+02 -0.55535286902E+02  0.71065993905E+02  0.10570000000E+00 0.  1.
         13    1    3    3    0    0  0.31021624862E+02 -0.31683671140E+02 -0.78306318310E+02  0.89989370960E+02  0.10570000000E+00 0. -1.
<mgrwt>
<rscale>  0 0.89583789E+02</rscale>
<asrwt>0</asrwt>
<pdfrwt beam="2">  1        2 0.22684381E-01 0.89583789E+02</pdfrwt>
<pdfrwt beam="1">  1       -2 0.20933662E-02 0.89583789E+02</pdfrwt>
<totfact> 0.14580012E+05</totfact>
</mgrwt>
</event>
<event>
 5   1  0.1343823E+00  0.9122534E+02  0.7818608E-02  0.1299911E+00
         -2   -1    0    0    0  501 -0.00000000000E+00  0.00000000000E+00  0.99364752360E+01  0.99364755762E+01  0.26000000000E-02 0.  1.
          2   -1    0    0  501    0  0.00000000000E+00 -0.00000000000E+00 -0.20938164572E+03  0.20938164573E+03  0.26000000000E-02 0. -1.
         23    2    1    2    0    0  0.00000000000E+00  0.00000000000E+00 -0.19944517048E+03  0.21931812131E+03  0.91225338073E+02 0.  0.
        -13    1    3    3    0    0 -0.35926162195E+02 -0.17421491717E+02 -0.15273947565E+03  0.15787196109E+03  0.10570000000E+00 0. -1.
         13    1    3    3    0    0  0.35926162195E+02  0.17421491717E+02 -0.46705694830E+02  0.61446160220E+02  0.10570000000E+00 0.  1.
<mgrwt>
<rscale>  0 0.91225338E+02</rscale>
<asrwt>0</asrwt>
<pdfrwt beam="2">  1        2 0.32212558E-01 0.91225338E+02</pdfrwt>
<pdfrwt beam="1">  1       -2 0.15286887E-02 0.91225338E+02</pdfrwt>
<totfact> 0.15704885E+05</totfact>
</mgrwt>
</event>
<event>
 5   1  0.1343823E+00  0.8660216E+02  0.7818608E-02  0.1311295E+00
         -2   -1    0    0    0  501 -0.00000000000E+00  0.00000000000E+00  0.29773564369E+02  0.29773564482E+02  0.26000000000E-02 0.  1.
          2   -1    0    0  501    0  0.00000000000E+00 -0.00000000000E+00 -0.62974775086E+02  0.62974775139E+02  0.26000000000E-02 0. -1.
         23    2    1    2    0    0  0.00000000000E+00  0.00000000000E+00 -0.33201210717E+02  0.92748339621E+02  0.86602159958E+02 0.  0.
        -13    1    3    3    0    0  0.29776767393E+02  0.30657120542E+02 -0.91454337187E+01  0.43705434979E+02  0.10570000000E+00 0. -1.
         13    1    3    3    0    0 -0.29776767393E+02 -0.30657120542E+02 -0.24055776998E+02  0.49042904643E+02  0.10570000000E+00 0.  1.
<mgrwt>
<rscale>  0 0.86602160E+02</rscale>
<asrwt>0</asrwt>
<pdfrwt beam="2">  1        2 0.96884269E-02 0.86602160E+02</pdfrwt>
<pdfrwt beam="1">  1       -2 0.45805484E-02 0.86602160E+02</pdfrwt>
<totfact> 0.12411167E+05</totfact>
</mgrwt>
</event>
<event>
 5   1  0.1343823E+00  0.9138695E+02  0.7818608E-02  0.1299527E+00
         -2   -1    0    0    0  501 -0.00000000000E+00  0.00000000000E+00  0.10868308355E+02  0.10868308666E+02  0.26000000000E-02 0.  1.
          2   -1    0    0  501    0  0.00000000000E+00 -0.00000000000E+00 -0.19210843674E+03  0.19210843676E+03  0.26000000000E-02 0. -1.
         23    2    1    2    0    0  0.00000000000E+00  0.00000000000E+00 -0.18124012839E+03  0.20297674543E+03  0.91386952275E+02 0.  0.
        -13    1    3    3    0    0 -0.15311698924E+02 -0.41999325827E+02 -0.69608808780E+02  0.82727195808E+02  0.10570000000E+00 0.  1.
         13    1    3    3    0    0  0.15311698924E+02  0.41999325827E+02 -0.11163131961E+03  0.12024954962E+03  0.10570000000E+00 0. -1.
<mgrwt>
<rscale>  0 0.91386952E+02</rscale>
<asrwt>0</asrwt>
<pdfrwt beam="2">  1        2 0.29555142E-01 0.91386952E+02</pdfrwt>
<pdfrwt beam="1">  1       -2 0.16720476E-02 0.91386952E+02</pdfrwt>
<totfact> 0.15150747E+05</totfact>
</mgrwt>
</event>
<event>
 5   1  0.1343823E+00  0.9086829E+02  0.7818608E-02  0.1300763E+00
         -2   -1    0    0    0  501 -0.00000000000E+00  0.00000000000E+00  0.29667503353E+02  0.29667503467E+02  0.26000000000E-02 0.  1.
          2   -1    0    0  501    0  0.00000000000E+00 -0.00000000000E+00 -0.69579892720E+02  0.69579892768E+02  0.26000000000E-02 0. -1.
         23    2    1    2    0    0  0.00000000000E+00  0.00000000000E+00 -0.39912389367E+02  0.99247396236E+02  0.90868293891E+02 0.  0.
        -13    1    3    3    0    0 -0.23047162222E+02  0.32465713734E+02  0.39494256266E+01  0.40010041115E+02  0.10570000000E+00 0.  1.
         13    1    3    3    0    0  0.23047162222E+02 -0.32465713734E+02 -0.43861814993E+02  0.59237355121E+02  0.10570000000E+00 0. -1.
<mgrwt>
<rscale>  0 0.90868294E+02</rscale>
<asrwt>0</asrwt>
<pdfrwt beam="2">  1        2 0.10704599E-01 0.90868294E+02</pdfrwt>
<pdfrwt beam="1">  1       -2 0.45642313E-02 0.90868294E+02</pdfrwt>
<totfact> 0.11148756E+05</totfact>
</mgrwt>
</event>
<event>
 5   1  0.1343823E+00  0.9443838E+02  0.7818608E-02  0.1292446E+00
          2   -1    0    0  501    0  0.00000000000E+00  0.00000000000E+00  0.85123475293E+02  0.85123475333E+02  0.26000000000E-02 0. -1.
         -2   -1    0    0    0  501 -0.00000000000E+00 -0.00000000000E+00 -0.26193151865E+02  0.26193151994E+02  0.26000000000E-02 0.  1.
         23    2    1    2    0    0  0.00000000000E+00  0.00000000000E+00  0.58930323428E+02  0.11131662733E+03  0.94438384674E+02 0.  0.
        -13    1    3    3    0    0 -0.52702436157E+00 -0.24440588612E+02 -0.18153187733E+02  0.30449458513E+02  0.10570000000E+00 0.  1.
         13    1    3    3    0    0  0.52702436157E+00  0.24440588612E+02  0.77083511162E+02  0.80867168813E+02  0.10570000000E+00 0. -1.
<mgrwt>
<rscale>  0 0.94438385E+02</rscale>
<asrwt>0</asrwt>
<pdfrwt beam="1">  1        2 0.13095919E-01 0.94438385E+02</pdfrwt>
<pdfrwt beam="2">  1       -2 0.40297157E-02 0.94438385E+02</pdfrwt>
<totfact> 0.10604073E+05</totfact>
</mgrwt>
</event>
<event>
 5   1  0.1343823E+00  0.9146230E+02  0.7818608E-02  0.1299349E+00
         -2   -1    0    0    0  501 -0.00000000000E+00  0.00000000000E+00  0.20481768253E+02  0.20481768418E+02  0.26000000000E-02 0.  1.
          2   -1    0    0  501    0  0.00000000000E+00 -0.00000000000E+00 -0.10210729118E+03  0.10210729122E+03  0.26000000000E-02 0. -1.
         23    2    1    2    0    0  0.00000000000E+00  0.00000000000E+00 -0.81625522930E+02  0.12258905963E+03  0.91462295775E+02 0.  0.
        -13    1    3    3    0    0  0.20429172789E+02  0.10217247689E+02  0.12288131276E+02  0.25937474702E+02  0.10570000000E+00 0.  1.
         13    1    3    3    0    0 -0.20429172789E+02 -0.10217247689E+02 -0.93913654206E+02  0.96651584933E+02  0.10570000000E+00 0. -1.
<mgrwt>
<rscale>  0 0.91462296E+02</rscale>
<asrwt>0</asrwt>
<pdfrwt beam="2">  1        2 0.15708814E-01 0.91462296E+02</pdfrwt>
<pdfrwt beam="1">  1       -2 0.31510413E-02 0.91462296E+02</pdfrwt>
<totfact> 0.12240172E+05</totfact>
</mgrwt>
</event>
<event>
 5   1  0.1343823E+00  0.7956936E+02  0.7818608E-02  0.1330278E+00
          2   -1    0    0  501    0  0.00000000000E+00  0.00000000000E+00  0.17456853342E+03  0.17456853344E+03  0.26000000000E-02 0. -1.
         -2   -1    0    0    0  501 -0.00000000000E+00 -0.00000000000E+00 -0.90670440788E+01  0.90670444516E+01  0.26000000000E-02 0.  1.
         23    2    1    2    0    0  0.00000000000E+00  0.00000000000E+00  0.16550148934E+03  0.18363557789E+03  0.79569356496E+02 0.  0.
        -13    1    3    3    0    0 -0.26084946541E+02 -0.11100762176E+01  0.15203111258E+03  0.15425669214E+03  0.10570000000E+00 0. -1.
         13    1    3    3    0    0  0.26084946541E+02  0.11100762176E+01  0.13470376757E+02  0.29378885747E+02  0.10570000000E+00 0.  1.
<mgrwt>
<rscale>  0 0.79569356E+02</rscale>
<asrwt>0</asrwt>
<pdfrwt beam="1">  1        2 0.26856695E-01 0.79569356E+02</pdfrwt>
<pdfrwt beam="2">  1       -2 0.13949300E-02 0.79569356E+02</pdfrwt>
<totfact> 0.21218786E+05</totfact>
</mgrwt>
</event>
<event>
 5   1  0.1343823E+00  0.8850875E+02  0.7818608E-02  0.1306504E+00
          2   -1    0    0  501    0  0.00000000000E+00  0.00000000000E+00  0.74355773421E+02  0.74355773467E+02  0.26000000000E-02 0.  1.
         -2   -1    0    0    0  501 -0.00000000000E+00 -0.00000000000E+00 -0.26338904212E+02  0.26338904341E+02  0.26000000000E-02 0. -1.
         23    2    1    2    0    0  0.00000000000E+00  0.00000000000E+00  0.48016869209E+02  0.10069467781E+03  0.88508747647E+02 0.  0.
        -13    1    3    3    0    0  0.85954713936E+01 -0.43353158122E+02  0.26567579191E+02  0.51567682556E+02  0.10570000000E+00 0.  1.
         13    1    3    3    0    0 -0.85954713936E+01  0.43353158122E+02  0.21449290018E+02  0.49126995251E+02  0.10570000000E+00 0. -1.
<mgrwt>
<rscale>  0 0.88508748E+02</rscale>
<asrwt>0</asrwt>
<pdfrwt beam="1">  1        2 0.11439350E-01 0.88508748E+02</pdfrwt>
<pdfrwt beam="2">  1       -2 0.40521392E-02 0.88508748E+02</pdfrwt>
<totfact> 0.12218073E+05</totfact>
</mgrwt>
</event>
<event>
 5   1  0.1343823E+00  0.8863711E+02  0.7818608E-02  0.1306186E+00
         -2   -1    0    0    0  501 -0.00000000000E+00  0.00000000000E+00  0.28651078185E+03  0.28651078186E+03  0.26000000000E-02 0. -1.
          2   -1    0    0  501    0  0.00000000000E+00 -0.00000000000E+00 -0.68553581443E+01  0.68553586373E+01  0.26000000000E-02 0.  1.
         23    2    1    2    0    0  0.00000000000E+00  0.00000000000E+00  0.27965542371E+03  0.29336614050E+03  0.88637105004E+02 0.  0.
        -13    1    3    3    0    0 -0.42176801462E+02  0.96740431038E+01  0.10814164633E+03  0.11647788002E+03  0.10570000000E+00 0.  1.
         13    1    3    3    0    0  0.42176801462E+02 -0.96740431038E+01  0.17151377738E+03  0.17688826048E+03  0.10570000000E+00 0. -1.
<mgrwt>
<rscale>  0 0.88637105E+02</rscale>
<asrwt>0</asrwt>
<pdfrwt beam="2">  1        2 0.10546705E-02 0.88637105E+02</pdfrwt>
<pdfrwt beam="1">  1       -2 0.44078584E-01 0.88637105E+02</pdfrwt>
<totfact> 0.56257258E+04</totfact>
</mgrwt>
</event>
<event>
 5   1  0.1343823E+00  0.9105853E+02  0.7818608E-02  0.1300308E+00
         -2   -1    0    0    0  501 -0.00000000000E+00  0.00000000000E+00  0.10735209227E+02  0.10735209542E+02  0.26000000000E-02 0.  1.
          2   -1    0    0  501    0  0.00000000000E+00 -0.00000000000E+00 -0.19309489975E+03  0.19309489976E+03  0.26000000000E-02 0. -1.
         23    2    1    2    0    0  0.00000000000E+00  0.00000000000E+00 -0.18235969052E+03  0.20383010931E+03  0.91058534656E+02 0.  0.
        -13    1    3    3    0    0 -0.30130519185E+02 -0.34043984418E+02 -0.85668547986E+02  0.96984289181E+02  0.10570000000E+00 0. -1.
         13    1    3    3    0    0  0.30130519185E+02  0.34043984418E+02 -0.96691142533E+02  0.10684582013E+03  0.10570000000E+00 0.  1.
<mgrwt>
<rscale>  0 0.91058535E+02</rscale>
<asrwt>0</asrwt>
<pdfrwt beam="2">  1        2 0.29706905E-01 0.91058535E+02</pdfrwt>
<pdfrwt beam="1">  1       -2 0.16515708E-02 0.91058535E+02</pdfrwt>
<totfact> 0.15326782E+05</totfact>
</mgrwt>
</event>
<event>
 5   1  0.1343823E+00  0.9056922E+02  0.7818608E-02  0.1301479E+00
         -2   -1    0    0    0  501 -0.00000000000E+00  0.00000000000E+00  0.71812643394E+02  0.71812643441E+02  0.26000000000E-02 0. -1.
          2   -1    0    0  501    0  0.00000000000E+00 -0.00000000000E+00 -0.28556193257E+02  0.28556193375E+02  0.26000000000E-02 0.  1.
         23    2    1    2    0    0  0.00000000000E+00  0.00000000000E+00  0.43256450138E+02  0.10036883682E+03  0.90569216213E+02 0.  0.
        -13    1    3    3    0    0  0.23745364846E+02 -0.12035952670E+02  0.62224948967E+02  0.67680587725E+02  0.10570000000E+00 0. -1.
         13    1    3    3    0    0 -0.23745364846E+02  0.12035952670E+02 -0.18968498829E+02  0.32688249092E+02  0.10570000000E+00 0.  1.
<mgrwt>
<rscale>  0 0.90569216E+02</rscale>
<asrwt>0</asrwt>
<pdfrwt beam="2">  1        2 0.43932606E-02 0.90569216E+02</pdfrwt>
<pdfrwt beam="1">  1       -2 0.11048099E-01 0.90569216E+02</pdfrwt>
<totfact> 0.89058421E+04</totfact>
</mgrwt>
</event>
<event>
 5   1  0.1343823E+00  0.9159347E+02  0.7818608E-02  0.1299038E+00
          2   -1    0    0  501    0  0.00000000000E+00  0.00000000000E+00  0.11971965370E+02  0.11971965652E+02  0.26000000000E-02 0. -1.
         -2   -1    0    0    0  501 -0.00000000000E+00 -0.00000000000E+00 -0.17518769725E+03  0.17518769726E+03  0.26000000000E-02 0.  1.
         23    2    1    2    0    0  0.00000000000E+00  0.00000000000E+00 -0.16321573188E+03  0.18715966292E+03  0.91593472974E+02 0.  0.
        -13    1    3    3    0    0  0.14295559940E+02 -0.38203808425E+02 -0.12414910760E+03  0.13067863675E+03  0.10570000000E+00 0. -1.
         13    1    3    3    0    0 -0.14295559940E+02  0.38203808425E+02 -0.39066624272E+02  0.56481026165E+02  0.10570000000E+00 0.  1.
<mgrwt>
<rscale>  0 0.91593473E+02</rscale>
<asrwt>0</asrwt>
<pdfrwt beam="1">  1        2 0.18418410E-02 0.91593473E+02</pdfrwt>
<pdfrwt beam="2">  1       -2 0.26951952E-01 0.91593473E+02</pdfrwt>
<totfact> 0.65087409E+04</totfact>
</mgrwt>
</event>
<event>
 5   1  0.1343823E+00  0.9419757E+02  0.7818608E-02  0.1292994E+00
          2   -1    0    0  501    0  0.00000000000E+00  0.00000000000E+00  0.10543295438E+03  0.10543295441E+03  0.26000000000E-02 0. -1.
         -2   -1    0    0    0  501 -0.00000000000E+00 -0.00000000000E+00 -0.21039868302E+02  0.21039868462E+02  0.26000000000E-02 0.  1.
         23    2    1    2    0    0  0.00000000000E+00  0.00000000000E+00  0.84393086074E+02  0.12647282287E+03  0.94197568693E+02 0.  0.
        -13    1    3    3    0    0 -0.27253615137E+02  0.21741239108E+02 -0.32157731821E+00  0.34864818950E+02  0.10570000000E+00 0.  1.
         13    1    3    3    0    0  0.27253615137E+02 -0.21741239108E+02  0.84714663393E+02  0.91608003920E+02  0.10570000000E+00 0. -1.
<mgrwt>
<rscale>  0 0.94197569E+02</rscale>
<asrwt>0</asrwt>
<pdfrwt beam="1">  1        2 0.16220455E-01 0.94197569E+02</pdfrwt>
<pdfrwt beam="2">  1       -2 0.32369028E-02 0.94197569E+02</pdfrwt>
<totfact> 0.11397113E+05</totfact>
</mgrwt>
</event>
<event>
 5   1  0.1343823E+00  0.9672168E+02  0.7818608E-02  0.1287345E+00
          2   -1    0    0  501    0  0.00000000000E+00  0.00000000000E+00  0.16328067902E+03  0.16328067904E+03  0.26000000000E-02 0.  1.
         -2   -1    0    0    0  501 -0.00000000000E+00 -0.00000000000E+00 -0.14323624009E+02  0.14323624245E+02  0.26000000000E-02 0. -1.
         23    2    1    2    0    0  0.00000000000E+00  0.00000000000E+00  0.14895705501E+03  0.17760430328E+03  0.96721684785E+02 0.  0.
        -13    1    3    3    0    0  0.31031232781E+02  0.15964242994E+02  0.12999676316E+02  0.37239726357E+02  0.10570000000E+00 0. -1.
         13    1    3    3    0    0 -0.31031232781E+02 -0.15964242994E+02  0.13595737869E+03  0.14036457692E+03  0.10570000000E+00 0.  1.
<mgrwt>
<rscale>  0 0.96721685E+02</rscale>
<asrwt>0</asrwt>
<pdfrwt beam="1">  1        2 0.25120104E-01 0.96721685E+02</pdfrwt>
<pdfrwt beam="2">  1       -2 0.22036346E-02 0.96721685E+02</pdfrwt>
<totfact> 0.12259383E+05</totfact>
</mgrwt>
</event>
<event>
 5   1  0.1343823E+00  0.9267752E+02  0.7818608E-02  0.1296494E+00
         -2   -1    0    0    0  501 -0.00000000000E+00  0.00000000000E+00  0.11193092572E+02  0.11193092874E+02  0.26000000000E-02 0.  1.
          2   -1    0    0  501    0  0.00000000000E+00 -0.00000000000E+00 -0.19183980712E+03  0.19183980714E+03  0.26000000000E-02 0. -1.
         23    2    1    2    0    0  0.00000000000E+00  0.00000000000E+00 -0.18064671455E+03  0.20303290001E+03  0.92677521599E+02 0.  0.
        -13    1    3    3    0    0  0.28305973364E+02 -0.15396243298E+02 -0.17367994643E+02  0.36605065854E+02  0.10570000000E+00 0.  1.
         13    1    3    3    0    0 -0.28305973364E+02  0.15396243298E+02 -0.16327871990E+03  0.16642783416E+03  0.10570000000E+00 0. -1.
<mgrwt>
<rscale>  0 0.92677522E+02</rscale>
<asrwt>0</asrwt>
<pdfrwt beam="2">  1        2 0.29513814E-01 0.92677522E+02</pdfrwt>
<pdfrwt beam="1">  1       -2 0.17220144E-02 0.92677522E+02</pdfrwt>
<totfact> 0.14580423E+05</totfact>
</mgrwt>
</event>
<event>
 5   1  0.1343823E+00  0.9550532E+02  0.7818608E-02  0.1290042E+00
          2   -1    0    0  501    0  0.00000000000E+00  0.00000000000E+00  0.29953409784E+02  0.29953409897E+02  0.26000000000E-02 0. -1.
         -2   -1    0    0    0  501 -0.00000000000E+00 -0.00000000000E+00 -0.76128782863E+02  0.76128782907E+02  0.26000000000E-02 0.  1.
         23    2    1    2    0    0  0.00000000000E+00  0.00000000000E+00 -0.46175373079E+02  0.10608219280E+03  0.95505322108E+02 0.  0.
        -13    1    3    3    0    0 -0.20983194215E+02  0.41517840740E+02 -0.35065217116E+02  0.58254666449E+02  0.10570000000E+00 0.  1.
         13    1    3    3    0    0  0.20983194215E+02 -0.41517840740E+02 -0.11110155962E+02  0.47827526354E+02  0.10570000000E+00 0. -1.
<mgrwt>
<rscale>  0 0.95505322E+02</rscale>
<asrwt>0</asrwt>
<pdfrwt beam="1">  1        2 0.46082169E-02 0.95505322E+02</pdfrwt>
<pdfrwt beam="2">  1       -2 0.11712120E-01 0.95505322E+02</pdfrwt>
<totfact> 0.76985267E+04</totfact>
</mgrwt>
</event>
<event>
 5   1  0.1343823E+00  0.8666278E+02  0.7818608E-02  0.1311141E+00
         -2   -1    0    0    0  501 -0.00000000000E+00  0.00000000000E+00  0.10934488480E+02  0.10934488789E+02  0.26000000000E-02 0.  1.
          2   -1    0    0  501    0  0.00000000000E+00 -0.00000000000E+00 -0.17171441843E+03  0.17171441845E+03  0.26000000000E-02 0. -1.
         23    2    1    2    0    0  0.00000000000E+00  0.00000000000E+00 -0.16077992995E+03  0.18264890724E+03  0.86662780020E+02 0.  0.
        -13    1    3    3    0    0  0.23462033717E+02 -0.10445554480E+02 -0.15394492239E+03  0.15607250539E+03  0.10570000000E+00 0. -1.
         13    1    3    3    0    0 -0.23462033717E+02  0.10445554480E+02 -0.68350075547E+01  0.26576401850E+02  0.10570000000E+00 0.  1.
<mgrwt>
<rscale>  0 0.86662780E+02</rscale>
<asrwt>0</asrwt>
<pdfrwt beam="2">  1        2 0.26417601E-01 0.86662780E+02</pdfrwt>
<pdfrwt beam="1">  1       -2 0.16822291E-02 0.86662780E+02</pdfrwt>
<totfact> 0.16795682E+05</totfact>
</mgrwt>
</event>
<event>
 5   1  0.1343823E+00  0.9779583E+02  0.7818608E-02  0.1285000E+00
          2   -1    0    0  501    0  0.00000000000E+00  0.00000000000E+00  0.73910089965E+02  0.73910090011E+02  0.26000000000E-02 0.  1.
         -2   -1    0    0    0  501 -0.00000000000E+00 -0.00000000000E+00 -0.32350198803E+02  0.32350198908E+02  0.26000000000E-02 0. -1.
         23    2    1    2    0    0  0.00000000000E+00  0.00000000000E+00  0.41559891161E+02  0.10626028892E+03  0.97795830421E+02 0.  0.
        -13    1    3    3    0    0 -0.21592544977E+01  0.19810234778E+02 -0.27737836741E+02  0.34154158480E+02  0.10570000000E+00 0. -1.
         13    1    3    3    0    0  0.21592544977E+01 -0.19810234778E+02  0.69297727902E+02  0.72106130439E+02  0.10570000000E+00 0.  1.
<mgrwt>
<rscale>  0 0.97795830E+02</rscale>
<asrwt>0</asrwt>
<pdfrwt beam="1">  1        2 0.11370783E-01 0.97795830E+02</pdfrwt>
<pdfrwt beam="2">  1       -2 0.49769537E-02 0.97795830E+02</pdfrwt>
<totfact> 0.92241797E+04</totfact>
</mgrwt>
</event>
<event>
 5   1  0.1343823E+00  0.9063257E+02  0.7818608E-02  0.1301327E+00
         -2   -1    0    0    0  501 -0.00000000000E+00  0.00000000000E+00  0.16968141184E+03  0.16968141186E+03  0.26000000000E-02 0.  1.
          2   -1    0    0  501    0  0.00000000000E+00 -0.00000000000E+00 -0.12102479297E+02  0.12102479577E+02  0.26000000000E-02 0. -1.
         23    2    1    2    0    0  0.00000000000E+00  0.00000000000E+00  0.15757893255E+03  0.18178389144E+03  0.90632572537E+02 0.  0.
        -13    1    3    3    0    0  0.25539190292E+02  0.37429208277E+02  0.79990818758E+02  0.91933335255E+02  0.10570000000E+00 0. -1.
         13    1    3    3    0    0 -0.25539190292E+02 -0.37429208277E+02  0.77588113789E+02  0.89850556186E+02  0.10570000000E+00 0.  1.
<mgrwt>
<rscale>  0 0.90632573E+02</rscale>
<asrwt>0</asrwt>
<pdfrwt beam="2">  1        2 0.18619200E-02 0.90632573E+02</pdfrwt>
<pdfrwt beam="1">  1       -2 0.26104831E-01 0.90632573E+02</pdfrwt>
<totfact> 0.67704491E+04</totfact>
</mgrwt>
</event>
<event>
 5   1  0.1343823E+00  0.9116753E+02  0.7818608E-02  0.1300049E+00
         -2   -1    0    0    0  501 -0.00000000000E+00  0.00000000000E+00  0.23761848259E+02  0.23761848402E+02  0.26000000000E-02 0.  1.
          2   -1    0    0  501    0  0.00000000000E+00 -0.00000000000E+00 -0.87446049882E+02  0.87446049921E+02  0.26000000000E-02 0. -1.
         23    2    1    2    0    0  0.00000000000E+00  0.00000000000E+00 -0.63684201623E+02  0.11120789832E+03  0.91167533217E+02 0.  0.
        -13    1    3    3    0    0  0.12765587853E+02 -0.23241230231E+02  0.13385948865E+02  0.29703700365E+02  0.10570000000E+00 0.  1.
         13    1    3    3    0    0 -0.12765587853E+02  0.23241230231E+02 -0.77070150488E+02  0.81504197957E+02  0.10570000000E+00 0. -1.
<mgrwt>
<rscale>  0 0.91167533E+02</rscale>
<asrwt>0</asrwt>
<pdfrwt beam="2">  1        2 0.13453238E-01 0.91167533E+02</pdfrwt>
<pdfrwt beam="1">  1       -2 0.36556690E-02 0.91167533E+02</pdfrwt>
<totfact> 0.11788817E+05</totfact>
</mgrwt>
</event>
<event>
 5   1  0.1343823E+00  0.9317867E+02  0.7818608E-02  0.1295332E+00
          2   -1    0    0  501    0  0.00000000000E+00  0.00000000000E+00  0.84641435340E+02  0.84641435380E+02  0.26000000000E-02 0. -1.
         -2   -1    0    0    0  501 -0.00000000000E+00 -0.00000000000E+00 -0.25644249511E+02  0.25644249643E+02  0.26000000000E-02 0.  1.
         23    2    1    2    0    0  0.00000000000E+00  0.00000000000E+00  0.58997185829E+02  0.11028568502E+03  0.93178669154E+02 0.  0.
        -13    1    3    3    0    0  0.21201290212E+02  0.37631081761E+02  0.88293087457E+01  0.44085835441E+02  0.10570000000E+00 0.  1.
         13    1    3    3    0    0 -0.21201290212E+02 -0.37631081761E+02  0.50167877083E+02  0.66199849582E+02  0.10570000000E+00 0. -1.
<mgrwt>
<rscale>  0 0.93178669E+02</rscale>
<asrwt>0</asrwt>
<pdfrwt beam="1">  1        2 0.13021759E-01 0.93178669E+02</pdfrwt>
<pdfrwt beam="2">  1       -2 0.39452692E-02 0.93178669E+02</pdfrwt>
<totfact> 0.10989984E+05</totfact>
</mgrwt>
</event>
<event>
 5   1  0.1343823E+00  0.9685323E+02  0.7818608E-02  0.1287056E+00
          2   -1    0    0  501    0  0.00000000000E+00  0.00000000000E+00  0.51856374634E+02  0.51856374699E+02  0.26000000000E-02 0. -1.
         -2   -1    0    0    0  501 -0.00000000000E+00 -0.00000000000E+00 -0.45223696304E+02  0.45223696379E+02  0.26000000000E-02 0.  1.
         23    2    1    2    0    0  0.00000000000E+00  0.00000000000E+00  0.66326783304E+01  0.97080071078E+02  0.96853228024E+02 0.  0.
        -13    1    3    3    0    0  0.46524327316E+02 -0.31372576966E+01 -0.97821807658E+01  0.47645122007E+02  0.10570000000E+00 0.  1.
         13    1    3    3    0    0 -0.46524327316E+02  0.31372576966E+01  0.16414859096E+02  0.49434949071E+02  0.10570000000E+00 0. -1.
<mgrwt>
<rscale>  0 0.96853228E+02</rscale>
<asrwt>0</asrwt>
<pdfrwt beam="1">  1        2 0.79779038E-02 0.96853228E+02</pdfrwt>
<pdfrwt beam="2">  1       -2 0.69574918E-02 0.96853228E+02</pdfrwt>
<totfact> 0.85833556E+04</totfact>
</mgrwt>
</event>
<event>
 5   1  0.1343823E+00  0.8999335E+02  0.7818608E-02  0.1302868E+00
         -2   -1    0    0    0  501 -0.00000000000E+00  0.00000000000E+00  0.25794971425E+02  0.25794971556E+02  0.26000000000E-02 0.  1.
          2   -1    0    0  501    0  0.00000000000E+00 -0.00000000000E+00 -0.78492071058E+02  0.78492071101E+02  0.26000000000E-02 0. -1.
         23    2    1    2    0    0  0.00000000000E+00  0.00000000000E+00 -0.52697099633E+02  0.10428704266E+03  0.89993349513E+02 0.  0.
        -13    1    3    3    0    0 -0.73864833689E+01  0.17105836698E+02  0.21114294493E+02  0.28160156074E+02  0.10570000000E+00 0.  1.
         13    1    3    3    0    0  0.73864833689E+01 -0.17105836698E+02 -0.73811394125E+02  0.76126886583E+02  0.10570000000E+00 0. -1.
<mgrwt>
<rscale>  0 0.89993350E+02</rscale>
<asrwt>0</asrwt>
<pdfrwt beam="2">  1        2 0.12075703E-01 0.89993350E+02</pdfrwt>
<pdfrwt beam="1">  1       -2 0.39684572E-02 0.89993350E+02</pdfrwt>
<totfact> 0.11845409E+05</totfact>
</mgrwt>
</event>
<event>
 5   1  0.1343823E+00  0.9117195E+02  0.7818608E-02  0.1300038E+00
         -2   -1    0    0    0  501 -0.00000000000E+00  0.00000000000E+00  0.47994497491E+02  0.47994497561E+02  0.26000000000E-02 0.  1.
          2   -1    0    0  501    0  0.00000000000E+00 -0.00000000000E+00 -0.43298324350E+02  0.43298324428E+02  0.26000000000E-02 0. -1.
         23    2    1    2    0    0  0.00000000000E+00  0.00000000000E+00  0.46961731413E+01  0.91292821989E+02  0.91171954594E+02 0.  0.
        -13    1    3    3    0    0  0.37458993536E+02 -0.25978367269E+02  0.22122936589E+01  0.45639425702E+02  0.10570000000E+00 0.  1.
         13    1    3    3    0    0 -0.37458993536E+02  0.25978367269E+02  0.24838794824E+01  0.45653396287E+02  0.10570000000E+00 0. -1.
<mgrwt>
<rscale>  0 0.91171955E+02</rscale>
<asrwt>0</asrwt>
<pdfrwt beam="2">  1        2 0.66612807E-02 0.91171955E+02</pdfrwt>
<pdfrwt beam="1">  1       -2 0.73837689E-02 0.91171955E+02</pdfrwt>
<totfact> 0.97379970E+04</totfact>
</mgrwt>
</event>
<event>
 5   1  0.1343823E+00  0.9054236E+02  0.7818608E-02  0.1301544E+00
         -2   -1    0    0    0  501 -0.00000000000E+00  0.00000000000E+00  0.22192120091E+02  0.22192120244E+02  0.26000000000E-02 0.  1.
          2   -1    0    0  501    0  0.00000000000E+00 -0.00000000000E+00 -0.92351694886E+02  0.92351694923E+02  0.26000000000E-02 0. -1.
         23    2    1    2    0    0  0.00000000000E+00  0.00000000000E+00 -0.70159574795E+02  0.11454381517E+03  0.90542363883E+02 0.  0.
        -13    1    3    3    0    0  0.16505278136E+02  0.66076597743E+01 -0.87750249416E+02  0.89533249796E+02  0.10570000000E+00 0. -1.
         13    1    3    3    0    0 -0.16505278136E+02 -0.66076597743E+01  0.17590674621E+02  0.25010565370E+02  0.10570000000E+00 0.  1.
<mgrwt>
<rscale>  0 0.90542364E+02</rscale>
<asrwt>0</asrwt>
<pdfrwt beam="2">  1        2 0.14207953E-01 0.90542364E+02</pdfrwt>
<pdfrwt beam="1">  1       -2 0.34141724E-02 0.90542364E+02</pdfrwt>
<totfact> 0.12210157E+05</totfact>
</mgrwt>
</event>
<event>
 5   1  0.1343823E+00  0.8848376E+02  0.7818608E-02  0.1306566E+00
          2   -1    0    0  501    0  0.00000000000E+00  0.00000000000E+00  0.32200887433E+03  0.32200887434E+03  0.26000000000E-02 0. -1.
         -2   -1    0    0    0  501 -0.00000000000E+00 -0.00000000000E+00 -0.60785402101E+01  0.60785407662E+01  0.26000000000E-02 0.  1.
         23    2    1    2    0    0  0.00000000000E+00  0.00000000000E+00  0.31593033412E+03  0.32808741510E+03  0.88483760850E+02 0.  0.
        -13    1    3    3    0    0  0.36385229974E+02 -0.23184266936E+02  0.12164728927E+03  0.12907156679E+03  0.10570000000E+00 0.  1.
         13    1    3    3    0    0 -0.36385229974E+02  0.23184266936E+02  0.19428304484E+03  0.19901584831E+03  0.10570000000E+00 0. -1.
<mgrwt>
<rscale>  0 0.88483761E+02</rscale>
<asrwt>0</asrwt>
<pdfrwt beam="1">  1        2 0.49539849E-01 0.88483761E+02</pdfrwt>
<pdfrwt beam="2">  1       -2 0.93515966E-03 0.88483761E+02</pdfrwt>
<totfact> 0.19975250E+05</totfact>
</mgrwt>
</event>
<event>
 4   1  0.1343823E+00  0.2531287E+02  0.7818608E-02  0.1656548E+00
          2   -1    0    0  501    0  0.00000000000E+00  0.00000000000E+00  0.44019860503E+01  0.44019868182E+01  0.26000000000E-02 0.  1.
         -2   -1    0    0    0  501 -0.00000000000E+00 -0.00000000000E+00 -0.36389331358E+02  0.36389331451E+02  0.26000000000E-02 0. -1.
        -13    1    1    2    0    0 -0.10016092605E+02  0.77329539246E+01 -0.16366363633E+02  0.20687912377E+02  0.10570000000E+00 0. -1.
         13    1    1    2    0    0  0.10016092605E+02 -0.77329539246E+01 -0.15620981675E+02  0.20103405892E+02  0.10570000000E+00 0.  1.
<mgrwt>
<rscale>  0 0.25312870E+02</rscale>
<asrwt>0</asrwt>
<pdfrwt beam="1">  1        2 0.67722871E-03 0.25312870E+02</pdfrwt>
<pdfrwt beam="2">  1       -2 0.55983585E-02 0.25312870E+02</pdfrwt>
<totfact> 0.20928618E+06</totfact>
</mgrwt>
</event>
<event>
 5   1  0.1343823E+00  0.9132366E+02  0.7818608E-02  0.1299678E+00
         -2   -1    0    0    0  501 -0.00000000000E+00  0.00000000000E+00  0.11252300980E+02  0.11252301281E+02  0.26000000000E-02 0.  1.
          2   -1    0    0  501    0  0.00000000000E+00 -0.00000000000E+00 -0.18529567268E+03  0.18529567270E+03  0.26000000000E-02 0. -1.
         23    2    1    2    0    0  0.00000000000E+00  0.00000000000E+00 -0.17404337170E+03  0.19654797398E+03  0.91323659819E+02 0.  0.
        -13    1    3    3    0    0  0.10786610412E+02 -0.31333749517E+02 -0.15463121530E+03  0.15814227373E+03  0.10570000000E+00 0. -1.
         13    1    3    3    0    0 -0.10786610412E+02  0.31333749517E+02 -0.19412156399E+02  0.38405700248E+02  0.10570000000E+00 0.  1.
<mgrwt>
<rscale>  0 0.91323660E+02</rscale>
<asrwt>0</asrwt>
<pdfrwt beam="2">  1        2 0.28507024E-01 0.91323660E+02</pdfrwt>
<pdfrwt beam="1">  1       -2 0.17311234E-02 0.91323660E+02</pdfrwt>
<totfact> 0.14983988E+05</totfact>
</mgrwt>
</event>
<event>
 5   1  0.1343823E+00  0.9188451E+02  0.7818608E-02  0.1298351E+00
         -2   -1    0    0    0  501 -0.00000000000E+00  0.00000000000E+00  0.16777694613E+02  0.16777694814E+02  0.26000000000E-02 0. -1.
          2   -1    0    0  501    0  0.00000000000E+00 -0.00000000000E+00 -0.12580339216E+03  0.12580339219E+03  0.26000000000E-02 0.  1.
         23    2    1    2    0    0  0.00000000000E+00  0.00000000000E+00 -0.10902569755E+03  0.14258108700E+03  0.91884512541E+02 0.  0.
        -13    1    3    3    0    0  0.38895083848E+02  0.23719747699E+02 -0.45303057384E+02  0.64248207440E+02  0.10570000000E+00 0. -1.
         13    1    3    3    0    0 -0.38895083848E+02 -0.23719747699E+02 -0.63722640166E+02  0.78332879564E+02  0.10570000000E+00 0.  1.
<mgrwt>
<rscale>  0 0.91884513E+02</rscale>
<asrwt>0</asrwt>
<pdfrwt beam="2">  1        2 0.19354368E-01 0.91884513E+02</pdfrwt>
<pdfrwt beam="1">  1       -2 0.25811839E-02 0.91884513E+02</pdfrwt>
<totfact> 0.12910219E+05</totfact>
</mgrwt>
</event>
<event>
 5   1  0.1343823E+00  0.9110987E+02  0.7818608E-02  0.1300186E+00
          2   -1    0    0  501    0  0.00000000000E+00  0.00000000000E+00  0.24183433564E+03  0.24183433565E+03  0.26000000000E-02 0. -1.
         -2   -1    0    0    0  501 -0.00000000000E+00 -0.00000000000E+00 -0.85812968901E+01  0.85812972840E+01  0.26000000000E-02 0.  1.
         23    2    1    2    0    0  0.00000000000E+00  0.00000000000E+00  0.23325303875E+03  0.25041563294E+03  0.91109873963E+02 0.  0.
        -13    1    3    3    0    0  0.43121385583E+02  0.91785669078E+01  0.14814946326E+03  0.15457029023E+03  0.10570000000E+00 0. -1.
         13    1    3    3    0    0 -0.43121385583E+02 -0.91785669078E+01  0.85103575486E+02  0.95845342704E+02  0.10570000000E+00 0.  1.
<mgrwt>
<rscale>  0 0.91109874E+02</rscale>
<asrwt>0</asrwt>
<pdfrwt beam="1">  1        2 0.37205281E-01 0.91109874E+02</pdfrwt>
<pdfrwt beam="2">  1       -2 0.13201996E-02 0.91109874E+02</pdfrwt>
<totfact> 0.16613936E+05</totfact>
</mgrwt>
</event>
<event>
 5   1  0.1343823E+00  0.9087290E+02  0.7818608E-02  0.1300752E+00
         -2   -1    0    0    0  501 -0.00000000000E+00  0.00000000000E+00  0.37242081535E+02  0.37242081625E+02  0.26000000000E-02 0.  1.
          2   -1    0    0  501    0  0.00000000000E+00 -0.00000000000E+00 -0.55433821681E+02  0.55433821742E+02  0.26000000000E-02 0. -1.
         23    2    1    2    0    0  0.00000000000E+00  0.00000000000E+00 -0.18191740146E+02  0.92675903367E+02  0.90872898355E+02 0.  0.
        -13    1    3    3    0    0  0.10578580040E+02 -0.17476805389E+02 -0.50485768852E+02  0.54462547786E+02  0.10570000000E+00 0. -1.
         13    1    3    3    0    0 -0.10578580040E+02  0.17476805389E+02  0.32294028706E+02  0.38213355582E+02  0.10570000000E+00 0.  1.
<mgrwt>
<rscale>  0 0.90872898E+02</rscale>
<asrwt>0</asrwt>
<pdfrwt beam="2">  1        2 0.85282803E-02 0.90872898E+02</pdfrwt>
<pdfrwt beam="1">  1       -2 0.57295510E-02 0.90872898E+02</pdfrwt>
<totfact> 0.10484310E+05</totfact>
</mgrwt>
</event>
<event>
 5   1  0.1343823E+00  0.9246739E+02  0.7818608E-02  0.1296984E+00
         -2   -1    0    0    0  501 -0.00000000000E+00  0.00000000000E+00  0.14522488387E+03  0.14522488389E+03  0.26000000000E-02 0.  1.
          2   -1    0    0  501    0  0.00000000000E+00 -0.00000000000E+00 -0.14718928031E+02  0.14718928260E+02  0.26000000000E-02 0. -1.
         23    2    1    2    0    0  0.00000000000E+00  0.00000000000E+00  0.13050595584E+03  0.15994381215E+03  0.92467391748E+02 0.  0.
        -13    1    3    3    0    0  0.25432155492E+02 -0.31754940468E+02  0.10324305624E+03  0.11096986352E+03  0.10570000000E+00 0.  1.
         13    1    3    3    0    0 -0.25432155492E+02  0.31754940468E+02  0.27262899604E+02  0.48973948630E+02  0.10570000000E+00 0. -1.
<mgrwt>
<rscale>  0 0.92467392E+02</rscale>
<asrwt>0</asrwt>
<pdfrwt beam="2">  1        2 0.22644505E-02 0.92467392E+02</pdfrwt>
<pdfrwt beam="1">  1       -2 0.22342290E-01 0.92467392E+02</pdfrwt>
<totfact> 0.68206500E+04</totfact>
</mgrwt>
</event>
<event>
 5   1  0.1343823E+00  0.8926114E+02  0.7818608E-02  0.1304651E+00
         -2   -1    0    0    0  501 -0.00000000000E+00  0.00000000000E+00  0.80500552153E+02  0.80500552195E+02  0.26000000000E-02 0.  1.
          2   -1    0    0  501    0  0.00000000000E+00 -0.00000000000E+00 -0.24743776391E+02  0.24743776527E+02  0.26000000000E-02 0. -1.
         23    2    1    2    0    0  0.00000000000E+00  0.00000000000E+00  0.55756775762E+02  0.10524432872E+03  0.89261137595E+02 0.  0.
        -13    1    3    3    0    0  0.29592628561E+02 -0.28710568487E+02  0.48021226140E+02  0.63293520525E+02  0.10570000000E+00 0.  1.
         13    1    3    3    0    0 -0.29592628561E+02  0.28710568487E+02  0.77355496228E+01  0.41950808197E+02  0.10570000000E+00 0. -1.
<mgrwt>
<rscale>  0 0.89261138E+02</rscale>
<asrwt>0</asrwt>
<pdfrwt beam="2">  1        2 0.38067348E-02 0.89261138E+02</pdfrwt>
<pdfrwt beam="1">  1       -2 0.12384701E-01 0.89261138E+02</pdfrwt>
<totfact> 0.89480239E+04</totfact>
</mgrwt>
</event>
<event>
 5   1  0.1343823E+00  0.9371722E+02  0.7818608E-02  0.1294092E+00
          2   -1    0    0  501    0  0.00000000000E+00  0.00000000000E+00  0.25503294771E+03  0.25503294773E+03  0.26000000000E-02 0. -1.
         -2   -1    0    0    0  501 -0.00000000000E+00 -0.00000000000E+00 -0.86095904991E+01  0.86095908917E+01  0.26000000000E-02 0.  1.
         23    2    1    2    0    0  0.00000000000E+00  0.00000000000E+00  0.24642335721E+03  0.26364253862E+03  0.93717219273E+02 0.  0.
        -13    1    3    3    0    0  0.26816992007E+02 -0.36473670936E+02  0.89192267340E+02  0.10002375447E+03  0.10570000000E+00 0.  1.
         13    1    3    3    0    0 -0.26816992007E+02  0.36473670936E+02  0.15723108987E+03  0.16361878415E+03  0.10570000000E+00 0. -1.
<mgrwt>
<rscale>  0 0.93717219E+02</rscale>
<asrwt>0</asrwt>
<pdfrwt beam="1">  1        2 0.39235837E-01 0.93717219E+02</pdfrwt>
<pdfrwt beam="2">  1       -2 0.13245525E-02 0.93717219E+02</pdfrwt>
<totfact> 0.15708473E+05</totfact>
</mgrwt>
</event>
<event>
 5   1  0.1343823E+00  0.8855828E+02  0.7818608E-02  0.1306381E+00
          2   -1    0    0  501    0  0.00000000000E+00  0.00000000000E+00  0.79032600440E+02  0.79032600483E+02  0.26000000000E-02 0. -1.
         -2   -1    0    0    0  501 -0.00000000000E+00 -0.00000000000E+00 -0.24808018657E+02  0.24808018793E+02  0.26000000000E-02 0.  1.
         23    2    1    2    0    0  0.00000000000E+00  0.00000000000E+00  0.54224581783E+02  0.10384061928E+03  0.88558279917E+02 0.  0.
        -13    1    3    3    0    0  0.19419616198E+02  0.29059249667E+02  0.58989534403E+02  0.68566302409E+02  0.10570000000E+00 0. -1.
         13    1    3    3    0    0 -0.19419616198E+02 -0.29059249667E+02 -0.47649526193E+01  0.35274316867E+02  0.10570000000E+00 0.  1.
<mgrwt>
<rscale>  0 0.88558280E+02</rscale>
<asrwt>0</asrwt>
<pdfrwt beam="1">  1        2 0.12158862E-01 0.88558280E+02</pdfrwt>
<pdfrwt beam="2">  1       -2 0.38166182E-02 0.88558280E+02</pdfrwt>
<totfact> 0.12408669E+05</totfact>
</mgrwt>
</event>
<event>
 5   1  0.1343823E+00  0.9244186E+02  0.7818608E-02  0.1297044E+00
          2   -1    0    0  501    0  0.00000000000E+00  0.00000000000E+00  0.23707090371E+02  0.23707090513E+02  0.26000000000E-02 0. -1.
         -2   -1    0    0    0  501 -0.00000000000E+00 -0.00000000000E+00 -0.90115426381E+02  0.90115426419E+02  0.26000000000E-02 0.  1.
         23    2    1    2    0    0  0.00000000000E+00  0.00000000000E+00 -0.66408336011E+02  0.11382251693E+03  0.92441864266E+02 0.  0.
        -13    1    3    3    0    0  0.80047777151E+01 -0.44013693933E+02 -0.18893572449E+02  0.48561918952E+02  0.10570000000E+00 0.  1.
         13    1    3    3    0    0 -0.80047777151E+01  0.44013693933E+02 -0.47514763562E+02  0.65260597980E+02  0.10570000000E+00 0. -1.
<mgrwt>
<rscale>  0 0.92441864E+02</rscale>
<asrwt>0</asrwt>
<pdfrwt beam="1">  1        2 0.36472447E-02 0.92441864E+02</pdfrwt>
<pdfrwt beam="2">  1       -2 0.13863912E-01 0.92441864E+02</pdfrwt>
<totfact> 0.79514097E+04</totfact>
</mgrwt>
</event>
<event>
 5   1  0.1343823E+00  0.9234025E+02  0.7818608E-02  0.1297281E+00
         -2   -1    0    0    0  501 -0.00000000000E+00  0.00000000000E+00  0.10639522034E+03  0.10639522037E+03  0.26000000000E-02 0. -1.
          2   -1    0    0  501    0  0.00000000000E+00 -0.00000000000E+00 -0.20035491360E+02  0.20035491529E+02  0.26000000000E-02 0.  1.
         23    2    1    2    0    0  0.00000000000E+00  0.00000000000E+00  0.86359728982E+02  0.12643071190E+03  0.92340251909E+02 0.  0.
        -13    1    3    3    0    0 -0.41094866045E+02 -0.18304901172E+02  0.57396438514E+02  0.72926125283E+02  0.10570000000E+00 0. -1.
         13    1    3    3    0    0  0.41094866045E+02  0.18304901172E+02  0.28963290468E+02  0.53504586621E+02  0.10570000000E+00 0.  1.
<mgrwt>
<rscale>  0 0.92340252E+02</rscale>
<asrwt>0</asrwt>
<pdfrwt beam="2">  1        2 0.30823833E-02 0.92340252E+02</pdfrwt>
<pdfrwt beam="1">  1       -2 0.16368495E-01 0.92340252E+02</pdfrwt>
<totfact> 0.75883130E+04</totfact>
</mgrwt>
</event>
<event>
 5   1  0.1343823E+00  0.9258196E+02  0.7818608E-02  0.1296717E+00
          2   -1    0    0  501    0  0.00000000000E+00  0.00000000000E+00  0.81275653469E+02  0.81275653511E+02  0.26000000000E-02 0. -1.
         -2   -1    0    0    0  501 -0.00000000000E+00 -0.00000000000E+00 -0.26365271594E+02  0.26365271722E+02  0.26000000000E-02 0.  1.
         23    2    1    2    0    0  0.00000000000E+00  0.00000000000E+00  0.54910381875E+02  0.10764092523E+03  0.92581956921E+02 0.  0.
        -13    1    3    3    0    0 -0.45489520653E+02 -0.85646611020E+01  0.27966766389E+02  0.54081430305E+02  0.10570000000E+00 0. -1.
         13    1    3    3    0    0  0.45489520653E+02  0.85646611020E+01  0.26943615486E+02  0.53559494928E+02  0.10570000000E+00 0.  1.
<mgrwt>
<rscale>  0 0.92581957E+02</rscale>
<asrwt>0</asrwt>
<pdfrwt beam="1">  1        2 0.12503947E-01 0.92581957E+02</pdfrwt>
<pdfrwt beam="2">  1       -2 0.40561956E-02 0.92581957E+02</pdfrwt>
<totfact> 0.11056978E+05</totfact>
</mgrwt>
</event>
<event>
 5   1  0.1343823E+00  0.9176228E+02  0.7818608E-02  0.1298639E+00
          2   -1    0    0  501    0  0.00000000000E+00  0.00000000000E+00  0.64200291478E+02  0.64200291530E+02  0.26000000000E-02 0. -1.
         -2   -1    0    0    0  501 -0.00000000000E+00 -0.00000000000E+00 -0.32789243805E+02  0.32789243908E+02  0.26000000000E-02 0.  1.
         23    2    1    2    0    0  0.00000000000E+00  0.00000000000E+00  0.31411047673E+02  0.96989535438E+02  0.91762280206E+02 0.  0.
        -13    1    3    3    0    0  0.20773233476E+02 -0.29098469973E+02 -0.14686951986E+02  0.38651855258E+02  0.10570000000E+00 0.  1.
         13    1    3    3    0    0 -0.20773233476E+02  0.29098469973E+02  0.46097999658E+02  0.58337680180E+02  0.10570000000E+00 0. -1.
<mgrwt>
<rscale>  0 0.91762280E+02</rscale>
<asrwt>0</asrwt>
<pdfrwt beam="1">  1        2 0.98769678E-02 0.91762280E+02</pdfrwt>
<pdfrwt beam="2">  1       -2 0.50444991E-02 0.91762280E+02</pdfrwt>
<totfact> 0.10609667E+05</totfact>
</mgrwt>
</event>
<event>
 5   1  0.1343823E+00  0.8698560E+02  0.7818608E-02  0.1310320E+00
          2   -1    0    0  501    0  0.00000000000E+00  0.00000000000E+00  0.81255652052E+02  0.81255652094E+02  0.26000000000E-02 0. -1.
         -2   -1    0    0    0  501 -0.00000000000E+00 -0.00000000000E+00 -0.23279904867E+02  0.23279905013E+02  0.26000000000E-02 0.  1.
         23    2    1    2    0    0  0.00000000000E+00  0.00000000000E+00  0.57975747185E+02  0.10453555711E+03  0.86985604774E+02 0.  0.
        -13    1    3    3    0    0  0.33959905044E+01  0.21276808303E+02 -0.16415283604E+02  0.27087045453E+02  0.10570000000E+00 0.  1.
         13    1    3    3    0    0 -0.33959905044E+01 -0.21276808303E+02  0.74391030789E+02  0.77448511654E+02  0.10570000000E+00 0. -1.
<mgrwt>
<rscale>  0 0.86985605E+02</rscale>
<asrwt>0</asrwt>
<pdfrwt beam="1">  1        2 0.12500869E-01 0.86985605E+02</pdfrwt>
<pdfrwt beam="2">  1       -2 0.35815239E-02 0.86985605E+02</pdfrwt>
<totfact> 0.13140009E+05</totfact>
</mgrwt>
</event>
<event>
 5   1  0.1343823E+00  0.9122085E+02  0.7818608E-02  0.1299922E+00
          2   -1    0    0  501    0  0.00000000000E+00  0.00000000000E+00  0.27407198224E+03  0.27407198226E+03  0.26000000000E-02 0. -1.
         -2   -1    0    0    0  501 -0.00000000000E+00 -0.00000000000E+00 -0.75903804106E+01  0.75903808559E+01  0.26000000000E-02 0.  1.
         23    2    1    2    0    0  0.00000000000E+00  0.00000000000E+00  0.26648160183E+03  0.28166236311E+03  0.91220845634E+02 0.  0.
        -13    1    3    3    0    0 -0.57981446015E-01  0.41257037806E+02  0.19328464391E+03  0.19763884050E+03  0.10570000000E+00 0. -1.
         13    1    3    3    0    0  0.57981446015E-01 -0.41257037806E+02  0.73196957921E+02  0.84023522609E+02  0.10570000000E+00 0.  1.
<mgrwt>
<rscale>  0 0.91220846E+02</rscale>
<asrwt>0</asrwt>
<pdfrwt beam="1">  1        2 0.42164916E-01 0.91220846E+02</pdfrwt>
<pdfrwt beam="2">  1       -2 0.11677510E-02 0.91220846E+02</pdfrwt>
<totfact> 0.17348014E+05</totfact>
</mgrwt>
</event>
<event>
 5   1  0.1343823E+00  0.8622216E+02  0.7818608E-02  0.1312267E+00
          2   -1    0    0  501    0  0.00000000000E+00  0.00000000000E+00  0.91786602017E+02  0.91786602054E+02  0.26000000000E-02 0. -1.
         -2   -1    0    0    0  501 -0.00000000000E+00 -0.00000000000E+00 -0.20248762620E+02  0.20248762787E+02  0.26000000000E-02 0.  1.
         23    2    1    2    0    0  0.00000000000E+00  0.00000000000E+00  0.71537839396E+02  0.11203536484E+03  0.86222157880E+02 0.  0.
        -13    1    3    3    0    0 -0.25713908244E+02  0.18207145348E+02  0.74003581994E+02  0.80431626487E+02  0.10570000000E+00 0. -1.
         13    1    3    3    0    0  0.25713908244E+02 -0.18207145348E+02 -0.24657425977E+01  0.31603738354E+02  0.10570000000E+00 0.  1.
<mgrwt>
<rscale>  0 0.86222158E+02</rscale>
<asrwt>0</asrwt>
<pdfrwt beam="1">  1        2 0.14121016E-01 0.86222158E+02</pdfrwt>
<pdfrwt beam="2">  1       -2 0.31151943E-02 0.86222158E+02</pdfrwt>
<totfact> 0.13940067E+05</totfact>
</mgrwt>
</event>
<event>
 5   1  0.1343823E+00  0.8862127E+02  0.7818608E-02  0.1306225E+00
         -2   -1    0    0    0  501 -0.00000000000E+00  0.00000000000E+00  0.89245578507E+02  0.89245578545E+02  0.26000000000E-02 0.  1.
          2   -1    0    0  501    0  0.00000000000E+00 -0.00000000000E+00 -0.22000333116E+02  0.22000333270E+02  0.26000000000E-02 0. -1.
         23    2    1    2    0    0  0.00000000000E+00  0.00000000000E+00  0.67245245391E+02  0.11124591181E+03  0.88621272096E+02 0.  0.
        -13    1    3    3    0    0  0.27311494254E+02  0.28393244011E+02  0.81637111488E+01  0.40233709450E+02  0.10570000000E+00 0. -1.
         13    1    3    3    0    0 -0.27311494254E+02 -0.28393244011E+02  0.59081534242E+02  0.71012202365E+02  0.10570000000E+00 0.  1.
<mgrwt>
<rscale>  0 0.88621272E+02</rscale>
<asrwt>0</asrwt>
<pdfrwt beam="2">  1        2 0.33846667E-02 0.88621272E+02</pdfrwt>
<pdfrwt beam="1">  1       -2 0.13730089E-01 0.88621272E+02</pdfrwt>
<totfact> 0.88509341E+04</totfact>
</mgrwt>
</event>
<event>
 5   1  0.1343823E+00  0.9099121E+02  0.7818608E-02  0.1300469E+00
          2   -1    0    0  501    0  0.00000000000E+00  0.00000000000E+00  0.10063683618E+03  0.10063683621E+03  0.26000000000E-02 0. -1.
         -2   -1    0    0    0  501 -0.00000000000E+00 -0.00000000000E+00 -0.20567517083E+02  0.20567517248E+02  0.26000000000E-02 0.  1.
         23    2    1    2    0    0  0.00000000000E+00  0.00000000000E+00  0.80069319096E+02  0.12120435346E+03  0.90991205274E+02 0.  0.
        -13    1    3    3    0    0  0.42889996130E+02 -0.62354415067E+01  0.21605870934E+02  0.48427856964E+02  0.10570000000E+00 0. -1.
         13    1    3    3    0    0 -0.42889996130E+02  0.62354415067E+01  0.58463448163E+02  0.72776496497E+02  0.10570000000E+00 0.  1.
<mgrwt>
<rscale>  0 0.90991205E+02</rscale>
<asrwt>0</asrwt>
<pdfrwt beam="1">  1        2 0.15482591E-01 0.90991205E+02</pdfrwt>
<pdfrwt beam="2">  1       -2 0.31642333E-02 0.90991205E+02</pdfrwt>
<totfact> 0.12360545E+05</totfact>
</mgrwt>
</event>
<event>
 5   1  0.1343823E+00  0.9129483E+02  0.7818608E-02  0.1299746E+00
          2   -1    0    0  501    0  0.00000000000E+00  0.00000000000E+00  0.13078425492E+03  0.13078425494E+03  0.26000000000E-02 0.  1.
         -2   -1    0    0    0  501 -0.00000000000E+00 -0.00000000000E+00 -0.15932241118E+02  0.15932241330E+02  0.26000000000E-02 0. -1.
         23    2    1    2    0    0  0.00000000000E+00  0.00000000000E+00  0.11485201380E+03  0.14671649627E+03  0.91294825729E+02 0.  0.
        -13    1    3    3    0    0  0.13186103830E+02  0.19405471388E+02 -0.55008967958E+01  0.24098064073E+02  0.10570000000E+00 0. -1.
         13    1    3    3    0    0 -0.13186103830E+02 -0.19405471388E+02  0.12035291059E+03  0.12261843220E+03  0.10570000000E+00 0.  1.
<mgrwt>
<rscale>  0 0.91294826E+02</rscale>
<asrwt>0</asrwt>
<pdfrwt beam="1">  1        2 0.20120655E-01 0.91294826E+02</pdfrwt>
<pdfrwt beam="2">  1       -2 0.24511140E-02 0.91294826E+02</pdfrwt>
<totfact> 0.13307369E+05</totfact>
</mgrwt>
</event>
<event>
 5   1  0.1343823E+00  0.9199491E+02  0.7818608E-02  0.1298091E+00
          2   -1    0    0  501    0  0.00000000000E+00  0.00000000000E+00  0.26471367601E+03  0.26471367602E+03  0.26000000000E-02 0. -1.
         -2   -1    0    0    0  501 -0.00000000000E+00 -0.00000000000E+00 -0.79926577609E+01  0.79926581838E+01  0.26000000000E-02 0.  1.
         23    2    1    2    0    0  0.00000000000E+00  0.00000000000E+00  0.25672101825E+03  0.27270633421E+03  0.91994910216E+02 0.  0.
        -13    1    3    3    0    0  0.38246920860E+02 -0.15997380905E+02  0.69295129724E+02  0.80750042273E+02  0.10570000000E+00 0.  1.
         13    1    3    3    0    0 -0.38246920860E+02  0.15997380905E+02  0.18742588853E+03  0.19195629194E+03  0.10570000000E+00 0. -1.
<mgrwt>
<rscale>  0 0.91994910E+02</rscale>
<asrwt>0</asrwt>
<pdfrwt beam="1">  1        2 0.40725170E-01 0.91994910E+02</pdfrwt>
<pdfrwt beam="2">  1       -2 0.12296400E-02 0.91994910E+02</pdfrwt>
<totfact> 0.16741390E+05</totfact>
</mgrwt>
</event>
<event>
 5   1  0.1343823E+00  0.1073732E+03  0.7818608E-02  0.1265513E+00
          2   -1    0    0  501    0  0.00000000000E+00  0.00000000000E+00  0.33326041533E+02  0.33326041635E+02  0.26000000000E-02 0. -1.
         -2   -1    0    0    0  501 -0.00000000000E+00 -0.00000000000E+00 -0.86486484689E+02  0.86486484728E+02  0.26000000000E-02 0.  1.
         23    2    1    2    0    0  0.00000000000E+00  0.00000000000E+00 -0.53160443155E+02  0.11981252636E+03  0.10737322179E+03 0.  0.
        -13    1    3    3    0    0 -0.17368505957E+02 -0.34182847767E+02 -0.68511716111E+02  0.78511136138E+02  0.10570000000E+00 0.  1.
         13    1    3    3    0    0  0.17368505957E+02  0.34182847767E+02  0.15351272956E+02  0.41301390225E+02  0.10570000000E+00 0. -1.
<mgrwt>
<rscale>  0 0.10737322E+03</rscale>
<asrwt>0</asrwt>
<pdfrwt beam="1">  1        2 0.51270833E-02 0.10737322E+03</pdfrwt>
<pdfrwt beam="2">  1       -2 0.13305613E-01 0.10737322E+03</pdfrwt>
<totfact> 0.55675279E+04</totfact>
</mgrwt>
</event>
<event>
 5   1  0.1343823E+00  0.9183840E+02  0.7818608E-02  0.1298460E+00
         -2   -1    0    0    0  501 -0.00000000000E+00  0.00000000000E+00  0.73535226923E+01  0.73535231519E+01  0.26000000000E-02 0.  1.
          2   -1    0    0  501    0  0.00000000000E+00 -0.00000000000E+00 -0.28674321861E+03  0.28674321862E+03  0.26000000000E-02 0. -1.
         23    2    1    2    0    0  0.00000000000E+00  0.00000000000E+00 -0.27938969591E+03  0.29409674177E+03  0.91838397943E+02 0.  0.
        -13    1    3    3    0    0  0.31887326074E+02  0.25734204146E+02 -0.73327727371E+02  0.84000104768E+02  0.10570000000E+00 0.  1.
         13    1    3    3    0    0 -0.31887326074E+02 -0.25734204146E+02 -0.20606196854E+03  0.21009663700E+03  0.10570000000E+00 0. -1.
<mgrwt>
<rscale>  0 0.91838398E+02</rscale>
<asrwt>0</asrwt>
<pdfrwt beam="2">  1        2 0.44114333E-01 0.91838398E+02</pdfrwt>
<pdfrwt beam="1">  1       -2 0.11313114E-02 0.91838398E+02</pdfrwt>
<totfact> 0.17327723E+05</totfact>
</mgrwt>
</event>
<event>
 5   1  0.1343823E+00  0.8691700E+02  0.7818608E-02  0.1310494E+00
         -2   -1    0    0    0  501 -0.00000000000E+00  0.00000000000E+00  0.10984985846E+02  0.10984986154E+02  0.26000000000E-02 0.  1.
          2   -1    0    0  501    0  0.00000000000E+00 -0.00000000000E+00 -0.17192932122E+03  0.17192932124E+03  0.26000000000E-02 0. -1.
         23    2    1    2    0    0  0.00000000000E+00  0.00000000000E+00 -0.16094433538E+03  0.18291430740E+03  0.86916999259E+02 0.  0.
        -13    1    3    3    0    0 -0.34413521022E+02  0.16636428853E+02 -0.36956468287E+02  0.53168156963E+02  0.10570000000E+00 0.  1.
         13    1    3    3    0    0  0.34413521022E+02 -0.16636428853E+02 -0.12398786709E+03  0.12974615043E+03  0.10570000000E+00 0. -1.
<mgrwt>
<rscale>  0 0.86916999E+02</rscale>
<asrwt>0</asrwt>
<pdfrwt beam="2">  1        2 0.26450663E-01 0.86916999E+02</pdfrwt>
<pdfrwt beam="1">  1       -2 0.16899980E-02 0.86916999E+02</pdfrwt>
<totfact> 0.16671331E+05</totfact>
</mgrwt>
</event>
<event>
 5   1  0.1343823E+00  0.8601597E+02  0.7818608E-02  0.1312797E+00
          2   -1    0    0  501    0  0.00000000000E+00  0.00000000000E+00  0.20326287846E+03  0.20326287848E+03  0.26000000000E-02 0. -1.
         -2   -1    0    0    0  501 -0.00000000000E+00 -0.00000000000E+00 -0.90999730581E+01  0.90999734295E+01  0.26000000000E-02 0.  1.
         23    2    1    2    0    0  0.00000000000E+00  0.00000000000E+00  0.19416290541E+03  0.21236285191E+03  0.86015969655E+02 0.  0.
        -13    1    3    3    0    0  0.73210344982E+01  0.42140905660E+02  0.10818374606E+03  0.11633222924E+03  0.10570000000E+00 0. -1.
         13    1    3    3    0    0 -0.73210344982E+01 -0.42140905660E+02  0.85979159347E+02  0.96030622671E+02  0.10570000000E+00 0.  1.
<mgrwt>
<rscale>  0 0.86015970E+02</rscale>
<asrwt>0</asrwt>
<pdfrwt beam="1">  1        2 0.31271209E-01 0.86015970E+02</pdfrwt>
<pdfrwt beam="2">  1       -2 0.13999960E-02 0.86015970E+02</pdfrwt>
<totfact> 0.18188791E+05</totfact>
</mgrwt>
</event>
<event>
 5   1  0.1343823E+00  0.9066912E+02  0.7818608E-02  0.1301239E+00
         -2   -1    0    0    0  501 -0.00000000000E+00  0.00000000000E+00  0.70460040651E+01  0.70460045448E+01  0.26000000000E-02 0.  1.
          2   -1    0    0  501    0  0.00000000000E+00 -0.00000000000E+00 -0.29168620139E+03  0.29168620141E+03  0.26000000000E-02 0. -1.
         23    2    1    2    0    0  0.00000000000E+00  0.00000000000E+00 -0.28464019733E+03  0.29873220595E+03  0.90669117876E+02 0.  0.
        -13    1    3    3    0    0  0.38178245930E+02 -0.17574224958E+02 -0.19830947401E+03  0.20271430758E+03  0.10570000000E+00 0. -1.
         13    1    3    3    0    0 -0.38178245930E+02  0.17574224958E+02 -0.86330723319E+02  0.96017898365E+02  0.10570000000E+00 0.  1.
<mgrwt>
<rscale>  0 0.90669118E+02</rscale>
<asrwt>0</asrwt>
<pdfrwt beam="2">  1        2 0.44874791E-01 0.90669118E+02</pdfrwt>
<pdfrwt beam="1">  1       -2 0.10840009E-02 0.90669118E+02</pdfrwt>
<totfact> 0.18045708E+05</totfact>
</mgrwt>
</event>
<event>
 5   1  0.1343823E+00  0.8806596E+02  0.7818608E-02  0.1307604E+00
          2   -1    0    0  501    0  0.00000000000E+00  0.00000000000E+00  0.13292163436E+03  0.13292163438E+03  0.26000000000E-02 0. -1.
         -2   -1    0    0    0  501 -0.00000000000E+00 -0.00000000000E+00 -0.14586815181E+02  0.14586815412E+02  0.26000000000E-02 0.  1.
         23    2    1    2    0    0  0.00000000000E+00  0.00000000000E+00  0.11833481918E+03  0.14750844979E+03  0.88065960117E+02 0.  0.
        -13    1    3    3    0    0  0.24015048109E+02  0.31457431717E+02  0.91499220127E+02  0.99691579395E+02  0.10570000000E+00 0. -1.
         13    1    3    3    0    0 -0.24015048109E+02 -0.31457431717E+02  0.26835599048E+02  0.47816870399E+02  0.10570000000E+00 0.  1.
<mgrwt>
<rscale>  0 0.88065960E+02</rscale>
<asrwt>0</asrwt>
<pdfrwt beam="1">  1        2 0.20449482E-01 0.88065960E+02</pdfrwt>
<pdfrwt beam="2">  1       -2 0.22441255E-02 0.88065960E+02</pdfrwt>
<totfact> 0.14753465E+05</totfact>
</mgrwt>
</event>
<event>
 5   1  0.1343823E+00  0.9103404E+02  0.7818608E-02  0.1300367E+00
          2   -1    0    0  501    0  0.00000000000E+00  0.00000000000E+00  0.18034393276E+03  0.18034393278E+03  0.26000000000E-02 0. -1.
         -2   -1    0    0    0  501 -0.00000000000E+00 -0.00000000000E+00 -0.11488045075E+02  0.11488045370E+02  0.26000000000E-02 0.  1.
         23    2    1    2    0    0  0.00000000000E+00  0.00000000000E+00  0.16885588768E+03  0.19183197814E+03  0.91034043271E+02 0.  0.
        -13    1    3    3    0    0  0.26679168820E+02 -0.22430483314E+02  0.22743159358E+02  0.41619311631E+02  0.10570000000E+00 0.  1.
         13    1    3    3    0    0 -0.26679168820E+02  0.22430483314E+02  0.14611272832E+03  0.15021266651E+03  0.10570000000E+00 0. -1.
<mgrwt>
<rscale>  0 0.91034043E+02</rscale>
<asrwt>0</asrwt>
<pdfrwt beam="1">  1        2 0.27745219E-01 0.91034043E+02</pdfrwt>
<pdfrwt beam="2">  1       -2 0.17673917E-02 0.91034043E+02</pdfrwt>
<totfact> 0.14968000E+05</totfact>
</mgrwt>
</event>
<event>
 5   1  0.1343823E+00  0.9106682E+02  0.7818608E-02  0.1300289E+00
          2   -1    0    0  501    0  0.00000000000E+00  0.00000000000E+00  0.23391406283E+02  0.23391406427E+02  0.26000000000E-02 0. -1.
         -2   -1    0    0    0  501 -0.00000000000E+00 -0.00000000000E+00 -0.88634748215E+02  0.88634748253E+02  0.26000000000E-02 0.  1.
         23    2    1    2    0    0  0.00000000000E+00  0.00000000000E+00 -0.65243341932E+02  0.11202615468E+03  0.91066819786E+02 0.  0.
        -13    1    3    3    0    0  0.16544368954E+02  0.70528998769E+01 -0.84080041968E+02  0.85982115411E+02  0.10570000000E+00 0.  1.
         13    1    3    3    0    0 -0.16544368954E+02 -0.70528998769E+01  0.18836700035E+02  0.26044039269E+02  0.10570000000E+00 0. -1.
<mgrwt>
<rscale>  0 0.91066820E+02</rscale>
<asrwt>0</asrwt>
<pdfrwt beam="1">  1        2 0.35986779E-02 0.91066820E+02</pdfrwt>
<pdfrwt beam="2">  1       -2 0.13636115E-01 0.91066820E+02</pdfrwt>
<totfact> 0.82912824E+04</totfact>
</mgrwt>
</event>
<event>
 5   1  0.1343823E+00  0.8744815E+02  0.7818608E-02  0.1309152E+00
          2   -1    0    0  501    0  0.00000000000E+00  0.00000000000E+00  0.45493854588E+02  0.45493854662E+02  0.26000000000E-02 0. -1.
         -2   -1    0    0    0  501 -0.00000000000E+00 -0.00000000000E+00 -0.42023145810E+02  0.42023145890E+02  0.26000000000E-02 0.  1.
         23    2    1    2    0    0  0.00000000000E+00  0.00000000000E+00  0.34707087780E+01  0.87517000552E+02  0.87448153589E+02 0.  0.
        -13    1    3    3    0    0  0.18920759880E+02  0.37657102142E+02  0.13394900968E+02  0.44220889188E+02  0.10570000000E+00 0. -1.
         13    1    3    3    0    0 -0.18920759880E+02 -0.37657102142E+02 -0.99241921899E+01  0.43296111364E+02  0.10570000000E+00 0.  1.
<mgrwt>
<rscale>  0 0.87448154E+02</rscale>
<asrwt>0</asrwt>
<pdfrwt beam="1">  1        2 0.69990546E-02 0.87448154E+02</pdfrwt>
<pdfrwt beam="2">  1       -2 0.64650993E-02 0.87448154E+02</pdfrwt>
<totfact> 0.11111088E+05</totfact>
</mgrwt>
</event>
<event>
 5   1  0.1343823E+00  0.9049854E+02  0.7818608E-02  0.1301649E+00
          2   -1    0    0  501    0  0.00000000000E+00  0.00000000000E+00  0.30986563354E+03  0.30986563355E+03  0.26000000000E-02 0. -1.
         -2   -1    0    0    0  501 -0.00000000000E+00 -0.00000000000E+00 -0.66076903621E+01  0.66076908736E+01  0.26000000000E-02 0.  1.
         23    2    1    2    0    0  0.00000000000E+00  0.00000000000E+00  0.30325794318E+03  0.31647332442E+03  0.90498535744E+02 0.  0.
        -13    1    3    3    0    0 -0.41517534487E+02 -0.11395250702E+02  0.10293048805E+03  0.11157174352E+03  0.10570000000E+00 0.  1.
         13    1    3    3    0    0  0.41517534487E+02  0.11395250702E+02  0.20032745513E+03  0.20490158091E+03  0.10570000000E+00 0. -1.
<mgrwt>
<rscale>  0 0.90498536E+02</rscale>
<asrwt>0</asrwt>
<pdfrwt beam="1">  1        2 0.47671639E-01 0.90498536E+02</pdfrwt>
<pdfrwt beam="2">  1       -2 0.10165677E-02 0.90498536E+02</pdfrwt>
<totfact> 0.18548972E+05</totfact>
</mgrwt>
</event>
<event>
 5   1  0.1343823E+00  0.9214996E+02  0.7818608E-02  0.1297727E+00
         -2   -1    0    0    0  501 -0.00000000000E+00  0.00000000000E+00  0.22852899787E+02  0.22852899935E+02  0.26000000000E-02 0.  1.
          2   -1    0    0  501    0  0.00000000000E+00 -0.00000000000E+00 -0.92894274830E+02  0.92894274866E+02  0.26000000000E-02 0. -1.
         23    2    1    2    0    0  0.00000000000E+00  0.00000000000E+00 -0.70041375043E+02  0.11574717480E+03  0.92149955271E+02 0.  0.
        -13    1    3    3    0    0  0.40804577622E+02  0.21302107022E+02 -0.37563756284E+02  0.59412458939E+02  0.10570000000E+00 0. -1.
         13    1    3    3    0    0 -0.40804577622E+02 -0.21302107022E+02 -0.32477618759E+02  0.56334715862E+02  0.10570000000E+00 0.  1.
<mgrwt>
<rscale>  0 0.92149955E+02</rscale>
<asrwt>0</asrwt>
<pdfrwt beam="2">  1        2 0.14291427E-01 0.92149955E+02</pdfrwt>
<pdfrwt beam="1">  1       -2 0.35158308E-02 0.92149955E+02</pdfrwt>
<totfact> 0.11650903E+05</totfact>
</mgrwt>
</event>
<event>
 5   1  0.1343823E+00  0.1069452E+03  0.7818608E-02  0.1266334E+00
          2   -1    0    0  501    0  0.00000000000E+00  0.00000000000E+00  0.35143942791E+03  0.35143942792E+03  0.26000000000E-02 0.  1.
         -2   -1    0    0    0  501 -0.00000000000E+00 -0.00000000000E+00 -0.81360244091E+01  0.81360248245E+01  0.26000000000E-02 0. -1.
         23    2    1    2    0    0  0.00000000000E+00  0.00000000000E+00  0.34330340350E+03  0.35957545274E+03  0.10694521663E+03 0.  0.
        -13    1    3    3    0    0 -0.28995629748E+01  0.52594836317E+02  0.20259241823E+03  0.20932826701E+03  0.10570000000E+00 0. -1.
         13    1    3    3    0    0  0.28995629748E+01 -0.52594836317E+02  0.14071098527E+03  0.15024718573E+03  0.10570000000E+00 0.  1.
<mgrwt>
<rscale>  0 0.10694522E+03</rscale>
<asrwt>0</asrwt>
<pdfrwt beam="1">  1        2 0.54067604E-01 0.10694522E+03</pdfrwt>
<pdfrwt beam="2">  1       -2 0.12516961E-02 0.10694522E+03</pdfrwt>
<totfact> 0.12413502E+05</totfact>
</mgrwt>
</event>
<event>
 5   1  0.1343823E+00  0.9113186E+02  0.7818608E-02  0.1300134E+00
         -2   -1    0    0    0  501 -0.00000000000E+00  0.00000000000E+00  0.16461784870E+02  0.16461785076E+02  0.26000000000E-02 0.  1.
          2   -1    0    0  501    0  0.00000000000E+00 -0.00000000000E+00 -0.12612567811E+03  0.12612567814E+03  0.26000000000E-02 0. -1.
         23    2    1    2    0    0  0.00000000000E+00  0.00000000000E+00 -0.10966389324E+03  0.14258746321E+03  0.91131856038E+02 0.  0.
        -13    1    3    3    0    0  0.38924549529E+02 -0.18016112032E+02 -0.30768099890E+02  0.52786248135E+02  0.10570000000E+00 0.  1.
         13    1    3    3    0    0 -0.38924549529E+02  0.18016112032E+02 -0.78895793349E+02  0.89801215078E+02  0.10570000000E+00 0. -1.
<mgrwt>
<rscale>  0 0.91131856E+02</rscale>
<asrwt>0</asrwt>
<pdfrwt beam="2">  1        2 0.19403950E-01 0.91131856E+02</pdfrwt>
<pdfrwt beam="1">  1       -2 0.25325824E-02 0.91131856E+02</pdfrwt>
<totfact> 0.13214740E+05</totfact>
</mgrwt>
</event>
<event>
 5   1  0.1343823E+00  0.9206630E+02  0.7818608E-02  0.1297924E+00
          2   -1    0    0  501    0  0.00000000000E+00  0.00000000000E+00  0.26352075951E+03  0.26352075952E+03  0.26000000000E-02 0.  1.
         -2   -1    0    0    0  501 -0.00000000000E+00 -0.00000000000E+00 -0.80413057933E+01  0.80413062137E+01  0.26000000000E-02 0. -1.
         23    2    1    2    0    0  0.00000000000E+00  0.00000000000E+00  0.25547945372E+03  0.27156206574E+03  0.92066303693E+02 0.  0.
        -13    1    3    3    0    0  0.24394152956E+02 -0.38918151595E+02  0.13675552134E+03  0.14426288854E+03  0.10570000000E+00 0. -1.
         13    1    3    3    0    0 -0.24394152956E+02  0.38918151595E+02  0.11872393238E+03  0.12729917719E+03  0.10570000000E+00 0.  1.
<mgrwt>
<rscale>  0 0.92066304E+02</rscale>
<asrwt>0</asrwt>
<pdfrwt beam="1">  1        2 0.40541655E-01 0.92066304E+02</pdfrwt>
<pdfrwt beam="2">  1       -2 0.12371240E-02 0.92066304E+02</pdfrwt>
<totfact> 0.16678467E+05</totfact>
</mgrwt>
</event>
<event>
 5   1  0.1343823E+00  0.8716383E+02  0.7818608E-02  0.1309869E+00
          2   -1    0    0  501    0  0.00000000000E+00  0.00000000000E+00  0.33069201224E+02  0.33069201326E+02  0.26000000000E-02 0. -1.
         -2   -1    0    0    0  501 -0.00000000000E+00 -0.00000000000E+00 -0.57436622822E+02  0.57436622880E+02  0.26000000000E-02 0.  1.
         23    2    1    2    0    0  0.00000000000E+00  0.00000000000E+00 -0.24367421598E+02  0.90505824207E+02  0.87163828392E+02 0.  0.
        -13    1    3    3    0    0 -0.63834541060E+01  0.92851743540E+01 -0.55897879017E+02  0.57022337730E+02  0.10570000000E+00 0.  1.
         13    1    3    3    0    0  0.63834541060E+01 -0.92851743540E+01  0.31530457419E+02  0.33483486477E+02  0.10570000000E+00 0. -1.
<mgrwt>
<rscale>  0 0.87163828E+02</rscale>
<asrwt>0</asrwt>
<pdfrwt beam="1">  1        2 0.50875694E-02 0.87163828E+02</pdfrwt>
<pdfrwt beam="2">  1       -2 0.88364035E-02 0.87163828E+02</pdfrwt>
<totfact> 0.10354828E+05</totfact>
</mgrwt>
</event>
<event>
 5   1  0.1343823E+00  0.9130011E+02  0.7818608E-02  0.1299734E+00
         -2   -1    0    0    0  501 -0.00000000000E+00  0.00000000000E+00  0.38870386318E+02  0.38870386405E+02  0.26000000000E-02 0. -1.
          2   -1    0    0  501    0  0.00000000000E+00 -0.00000000000E+00 -0.53612209831E+02  0.53612209894E+02  0.26000000000E-02 0.  1.
         23    2    1    2    0    0  0.00000000000E+00  0.00000000000E+00 -0.14741823514E+02  0.92482596299E+02  0.91300105464E+02 0.  0.
        -13    1    3    3    0    0 -0.13076533632E+02 -0.40079969609E+02 -0.25105276036E+02  0.49068174543E+02  0.10570000000E+00 0.  1.
         13    1    3    3    0    0  0.13076533632E+02  0.40079969609E+02  0.10363452522E+02  0.43414421756E+02  0.10570000000E+00 0. -1.
<mgrwt>
<rscale>  0 0.91300105E+02</rscale>
<asrwt>0</asrwt>
<pdfrwt beam="2">  1        2 0.82480323E-02 0.91300105E+02</pdfrwt>
<pdfrwt beam="1">  1       -2 0.59800595E-02 0.91300105E+02</pdfrwt>
<totfact> 0.10254960E+05</totfact>
</mgrwt>
</event>
<event>
 5   1  0.1343823E+00  0.9114596E+02  0.7818608E-02  0.1300100E+00
         -2   -1    0    0    0  501 -0.00000000000E+00  0.00000000000E+00  0.83564686538E+01  0.83564690583E+01  0.26000000000E-02 0.  1.
          2   -1    0    0  501    0  0.00000000000E+00 -0.00000000000E+00 -0.24853757890E+03  0.24853757891E+03  0.26000000000E-02 0. -1.
         23    2    1    2    0    0  0.00000000000E+00  0.00000000000E+00 -0.24018111024E+03  0.25689404797E+03  0.91145960767E+02 0.  0.
        -13    1    3    3    0    0 -0.42269218531E+02 -0.37865751428E+01 -0.16690299547E+03  0.17221395430E+03  0.10570000000E+00 0.  1.
         13    1    3    3    0    0  0.42269218531E+02  0.37865751428E+01 -0.73278114778E+02  0.84680093673E+02  0.10570000000E+00 0. -1.
<mgrwt>
<rscale>  0 0.91145961E+02</rscale>
<asrwt>0</asrwt>
<pdfrwt beam="2">  1        2 0.38236545E-01 0.91145961E+02</pdfrwt>
<pdfrwt beam="1">  1       -2 0.12856108E-02 0.91145961E+02</pdfrwt>
<totfact> 0.16764856E+05</totfact>
</mgrwt>
</event>
<event>
 5   1  0.1343823E+00  0.8617718E+02  0.7818608E-02  0.1312382E+00
          2   -1    0    0  501    0  0.00000000000E+00  0.00000000000E+00  0.68023341454E+02  0.68023341503E+02  0.26000000000E-02 0. -1.
         -2   -1    0    0    0  501 -0.00000000000E+00 -0.00000000000E+00 -0.27293962057E+02  0.27293962181E+02  0.26000000000E-02 0.  1.
         23    2    1    2    0    0  0.00000000000E+00  0.00000000000E+00  0.40729379396E+02  0.95317303685E+02  0.86177178160E+02 0.  0.
        -13    1    3    3    0    0 -0.18308996266E+02  0.60292528996E+01  0.62988194251E+02  0.65871807492E+02  0.10570000000E+00 0. -1.
         13    1    3    3    0    0  0.18308996266E+02 -0.60292528996E+01 -0.22258814854E+02  0.29445496192E+02  0.10570000000E+00 0.  1.
<mgrwt>
<rscale>  0 0.86177178E+02</rscale>
<asrwt>0</asrwt>
<pdfrwt beam="1">  1        2 0.10465129E-01 0.86177178E+02</pdfrwt>
<pdfrwt beam="2">  1       -2 0.41990711E-02 0.86177178E+02</pdfrwt>
<totfact> 0.12842121E+05</totfact>
</mgrwt>
</event>
<event>
 5   1  0.1343823E+00  0.9531054E+02  0.7818608E-02  0.1290478E+00
          2   -1    0    0  501    0  0.00000000000E+00  0.00000000000E+00  0.13534199411E+03  0.13534199413E+03  0.26000000000E-02 0. -1.
         -2   -1    0    0    0  501 -0.00000000000E+00 -0.00000000000E+00 -0.16779898421E+02  0.16779898623E+02  0.26000000000E-02 0.  1.
         23    2    1    2    0    0  0.00000000000E+00  0.00000000000E+00  0.11856209569E+03  0.15212189276E+03  0.95310543604E+02 0.  0.
        -13    1    3    3    0    0 -0.45939127954E+02 -0.58503728783E+01  0.41338016233E+02  0.62076348946E+02  0.10570000000E+00 0.  1.
         13    1    3    3    0    0  0.45939127954E+02  0.58503728783E+01  0.77224079456E+02  0.90045543811E+02  0.10570000000E+00 0. -1.
<mgrwt>
<rscale>  0 0.95310544E+02</rscale>
<asrwt>0</asrwt>
<pdfrwt beam="1">  1        2 0.20821846E-01 0.95310544E+02</pdfrwt>
<pdfrwt beam="2">  1       -2 0.25815228E-02 0.95310544E+02</pdfrwt>
<totfact> 0.11964810E+05</totfact>
</mgrwt>
</event>
<event>
 5   1  0.1343823E+00  0.9531288E+02  0.7818608E-02  0.1290473E+00
          2   -1    0    0  501    0  0.00000000000E+00  0.00000000000E+00  0.33387248583E+02  0.33387248684E+02  0.26000000000E-02 0. -1.
         -2   -1    0    0    0  501 -0.00000000000E+00 -0.00000000000E+00 -0.68024066217E+02  0.68024066267E+02  0.26000000000E-02 0.  1.
         23    2    1    2    0    0  0.00000000000E+00  0.00000000000E+00 -0.34636817634E+02  0.10141131495E+03  0.95312882992E+02 0.  0.
        -13    1    3    3    0    0  0.45476804564E+02  0.97245427919E+01 -0.62397542524E+01  0.46921766713E+02  0.10570000000E+00 0. -1.
         13    1    3    3    0    0 -0.45476804564E+02 -0.97245427919E+01 -0.28397063382E+02  0.54489548237E+02  0.10570000000E+00 0.  1.
<mgrwt>
<rscale>  0 0.95312883E+02</rscale>
<asrwt>0</asrwt>
<pdfrwt beam="1">  1        2 0.51364998E-02 0.95312883E+02</pdfrwt>
<pdfrwt beam="2">  1       -2 0.10465241E-01 0.95312883E+02</pdfrwt>
<totfact> 0.79814338E+04</totfact>
</mgrwt>
</event>
<event>
 5   1  0.1343823E+00  0.9910208E+02  0.7818608E-02  0.1282196E+00
          2   -1    0    0  501    0  0.00000000000E+00  0.00000000000E+00  0.97015042806E+01  0.97015046290E+01  0.26000000000E-02 0. -1.
         -2   -1    0    0    0  501 -0.00000000000E+00 -0.00000000000E+00 -0.25308504977E+03  0.25308504978E+03  0.26000000000E-02 0.  1.
         23    2    1    2    0    0  0.00000000000E+00  0.00000000000E+00 -0.24338354549E+03  0.26278655441E+03  0.99102083554E+02 0.  0.
        -13    1    3    3    0    0 -0.13941034964E+01  0.47933760580E+02 -0.15477992598E+03  0.16203834604E+03  0.10570000000E+00 0.  1.
         13    1    3    3    0    0  0.13941034964E+01 -0.47933760580E+02 -0.88603619507E+02  0.10074820837E+03  0.10570000000E+00 0. -1.
<mgrwt>
<rscale>  0 0.99102084E+02</rscale>
<asrwt>0</asrwt>
<pdfrwt beam="1">  1        2 0.14925393E-02 0.99102084E+02</pdfrwt>
<pdfrwt beam="2">  1       -2 0.38936157E-01 0.99102084E+02</pdfrwt>
<totfact> 0.45057211E+04</totfact>
</mgrwt>
</event>
<event>
 5   1  0.1343823E+00  0.9891332E+02  0.7818608E-02  0.1282598E+00
         -2   -1    0    0    0  501 -0.00000000000E+00  0.00000000000E+00  0.78341912392E+02  0.78341912435E+02  0.26000000000E-02 0. -1.
          2   -1    0    0  501    0  0.00000000000E+00 -0.00000000000E+00 -0.31221615012E+02  0.31221615120E+02  0.26000000000E-02 0.  1.
         23    2    1    2    0    0  0.00000000000E+00  0.00000000000E+00  0.47120297381E+02  0.10956352756E+03  0.98913316318E+02 0.  0.
        -13    1    3    3    0    0 -0.15316563536E+01  0.23421382404E+02  0.71779431671E+02  0.75519567719E+02  0.10570000000E+00 0. -1.
         13    1    3    3    0    0  0.15316563536E+01 -0.23421382404E+02 -0.24659134291E+02  0.34043959836E+02  0.10570000000E+00 0.  1.
<mgrwt>
<rscale>  0 0.98913316E+02</rscale>
<asrwt>0</asrwt>
<pdfrwt beam="2">  1        2 0.48033254E-02 0.98913316E+02</pdfrwt>
<pdfrwt beam="1">  1       -2 0.12052602E-01 0.98913316E+02</pdfrwt>
<totfact> 0.70088793E+04</totfact>
</mgrwt>
</event>
<event>
 5   1  0.1343823E+00  0.8356682E+02  0.7818608E-02  0.1319224E+00
         -2   -1    0    0    0  501 -0.00000000000E+00  0.00000000000E+00  0.57783247625E+01  0.57783253474E+01  0.26000000000E-02 0.  1.
          2   -1    0    0  501    0  0.00000000000E+00 -0.00000000000E+00 -0.30213831344E+03  0.30213831345E+03  0.26000000000E-02 0. -1.
         23    2    1    2    0    0  0.00000000000E+00  0.00000000000E+00 -0.29635998868E+03  0.30791663880E+03  0.83566820929E+02 0.  0.
        -13    1    3    3    0    0  0.25226966488E+02  0.26880151536E+02 -0.22065671713E+03  0.22371486400E+03  0.10570000000E+00 0. -1.
         13    1    3    3    0    0 -0.25226966488E+02 -0.26880151536E+02 -0.75703271548E+02  0.84201774805E+02  0.10570000000E+00 0.  1.
<mgrwt>
<rscale>  0 0.83566821E+02</rscale>
<asrwt>0</asrwt>
<pdfrwt beam="2">  1        2 0.46482805E-01 0.83566821E+02</pdfrwt>
<pdfrwt beam="1">  1       -2 0.88897332E-03 0.83566821E+02</pdfrwt>
<totfact> 0.22701087E+05</totfact>
</mgrwt>
</event>
<event>
 5   1  0.1343823E+00  0.9098715E+02  0.7818608E-02  0.1300479E+00
          2   -1    0    0  501    0  0.00000000000E+00  0.00000000000E+00  0.45897964340E+02  0.45897964413E+02  0.26000000000E-02 0. -1.
         -2   -1    0    0    0  501 -0.00000000000E+00 -0.00000000000E+00 -0.45092750668E+02  0.45092750743E+02  0.26000000000E-02 0.  1.
         23    2    1    2    0    0  0.00000000000E+00  0.00000000000E+00  0.80521367174E+00  0.90990715156E+02  0.90987152256E+02 0.  0.
        -13    1    3    3    0    0  0.22595883078E+02 -0.20608979382E+02  0.34084043464E+02  0.45793418245E+02  0.10570000000E+00 0. -1.
         13    1    3    3    0    0 -0.22595883078E+02  0.20608979382E+02 -0.33278829792E+02  0.45197296911E+02  0.10570000000E+00 0.  1.
<mgrwt>
<rscale>  0 0.90987152E+02</rscale>
<asrwt>0</asrwt>
<pdfrwt beam="1">  1        2 0.70612253E-02 0.90987152E+02</pdfrwt>
<pdfrwt beam="2">  1       -2 0.69373463E-02 0.90987152E+02</pdfrwt>
<totfact> 0.99440580E+04</totfact>
</mgrwt>
</event>
<event>
 5   1  0.1343823E+00  0.9192169E+02  0.7818608E-02  0.1298264E+00
         -2   -1    0    0    0  501 -0.00000000000E+00  0.00000000000E+00  0.25996462248E+02  0.25996462378E+02  0.26000000000E-02 0.  1.
          2   -1    0    0  501    0  0.00000000000E+00 -0.00000000000E+00 -0.81257183915E+02  0.81257183957E+02  0.26000000000E-02 0. -1.
         23    2    1    2    0    0  0.00000000000E+00  0.00000000000E+00 -0.55260721668E+02  0.10725364633E+03  0.91921691090E+02 0.  0.
        -13    1    3    3    0    0  0.52389292633E+01  0.12101290781E+02 -0.79002425759E+02  0.80095455967E+02  0.10570000000E+00 0. -1.
         13    1    3    3    0    0 -0.52389292633E+01 -0.12101290781E+02  0.23741704091E+02  0.27158190367E+02  0.10570000000E+00 0.  1.
<mgrwt>
<rscale>  0 0.91921691E+02</rscale>
<asrwt>0</asrwt>
<pdfrwt beam="2">  1        2 0.12501105E-01 0.91921691E+02</pdfrwt>
<pdfrwt beam="1">  1       -2 0.39994558E-02 0.91921691E+02</pdfrwt>
<totfact> 0.11278842E+05</totfact>
</mgrwt>
</event>
<event>
 5   1  0.1343823E+00  0.9432392E+02  0.7818608E-02  0.1292706E+00
          2   -1    0    0  501    0  0.00000000000E+00  0.00000000000E+00  0.26576746859E+03  0.26576746860E+03  0.26000000000E-02 0. -1.
         -2   -1    0    0    0  501 -0.00000000000E+00 -0.00000000000E+00 -0.83691596745E+01  0.83691600784E+01  0.26000000000E-02 0.  1.
         23    2    1    2    0    0  0.00000000000E+00  0.00000000000E+00  0.25739830891E+03  0.27413662868E+03  0.94323919299E+02 0.  0.
        -13    1    3    3    0    0  0.18923790240E+02  0.37134264239E+02  0.64550418312E+02  0.76836391732E+02  0.10570000000E+00 0.  1.
         13    1    3    3    0    0 -0.18923790240E+02 -0.37134264239E+02  0.19284789060E+03  0.19730023694E+03  0.10570000000E+00 0. -1.
<mgrwt>
<rscale>  0 0.94323919E+02</rscale>
<asrwt>0</asrwt>
<pdfrwt beam="1">  1        2 0.40887301E-01 0.94323919E+02</pdfrwt>
<pdfrwt beam="2">  1       -2 0.12875631E-02 0.94323919E+02</pdfrwt>
<totfact> 0.15678595E+05</totfact>
</mgrwt>
</event>
<event>
 5   1  0.1343823E+00  0.9062036E+02  0.7818608E-02  0.1301356E+00
          2   -1    0    0  501    0  0.00000000000E+00  0.00000000000E+00  0.92388281545E+02  0.92388281582E+02  0.26000000000E-02 0. -1.
         -2   -1    0    0    0  501 -0.00000000000E+00 -0.00000000000E+00 -0.22221566819E+02  0.22221566971E+02  0.26000000000E-02 0.  1.
         23    2    1    2    0    0  0.00000000000E+00  0.00000000000E+00  0.70166714726E+02  0.11460984855E+03  0.90620359356E+02 0.  0.
        -13    1    3    3    0    0 -0.41371208264E+02  0.26573499922E+01  0.11957110708E+02  0.43146518413E+02  0.10570000000E+00 0.  1.
         13    1    3    3    0    0  0.41371208264E+02 -0.26573499922E+01  0.58209604019E+02  0.71463330140E+02  0.10570000000E+00 0. -1.
<mgrwt>
<rscale>  0 0.90620359E+02</rscale>
<asrwt>0</asrwt>
<pdfrwt beam="1">  1        2 0.14213582E-01 0.90620359E+02</pdfrwt>
<pdfrwt beam="2">  1       -2 0.34187026E-02 0.90620359E+02</pdfrwt>
<totfact> 0.12182645E+05</totfact>
</mgrwt>
</event>
<event>
 5   1  0.1343823E+00  0.9147997E+02  0.7818608E-02  0.1299307E+00
         -2   -1    0    0    0  501 -0.00000000000E+00  0.00000000000E+00  0.12172228045E+03  0.12172228048E+03  0.26000000000E-02 0. -1.
          2   -1    0    0  501    0  0.00000000000E+00 -0.00000000000E+00 -0.17187865640E+02  0.17187865836E+02  0.26000000000E-02 0.  1.
         23    2    1    2    0    0  0.00000000000E+00  0.00000000000E+00  0.10453441481E+03  0.13891014631E+03  0.91479969771E+02 0.  0.
        -13    1    3    3    0    0  0.45631796205E+02  0.70058920339E-02  0.47495670624E+02  0.65864336134E+02  0.10570000000E+00 0.  1.
         13    1    3    3    0    0 -0.45631796205E+02 -0.70058920339E-02  0.57038744186E+02  0.73045810179E+02  0.10570000000E+00 0. -1.
<mgrwt>
<rscale>  0 0.91479970E+02</rscale>
<asrwt>0</asrwt>
<pdfrwt beam="2">  1        2 0.26442869E-02 0.91479970E+02</pdfrwt>
<pdfrwt beam="1">  1       -2 0.18726505E-01 0.91479970E+02</pdfrwt>
<totfact> 0.74445137E+04</totfact>
</mgrwt>
</event>
<event>
 5   1  0.1343823E+00  0.9100912E+02  0.7818608E-02  0.1300426E+00
         -2   -1    0    0    0  501 -0.00000000000E+00  0.00000000000E+00  0.78508447372E+01  0.78508451677E+01  0.26000000000E-02 0.  1.
          2   -1    0    0  501    0  0.00000000000E+00 -0.00000000000E+00 -0.26375060903E+03  0.26375060904E+03  0.26000000000E-02 0. -1.
         23    2    1    2    0    0  0.00000000000E+00  0.00000000000E+00 -0.25589976429E+03  0.27160145421E+03  0.91009123521E+02 0.  0.
        -13    1    3    3    0    0 -0.40407307605E+02 -0.20176931671E+02 -0.11138888506E+03  0.12019714625E+03  0.10570000000E+00 0.  1.
         13    1    3    3    0    0  0.40407307605E+02  0.20176931671E+02 -0.14451087923E+03  0.15140430795E+03  0.10570000000E+00 0. -1.
<mgrwt>
<rscale>  0 0.91009124E+02</rscale>
<asrwt>0</asrwt>
<pdfrwt beam="2">  1        2 0.40577010E-01 0.91009124E+02</pdfrwt>
<pdfrwt beam="1">  1       -2 0.12078225E-02 0.91009124E+02</pdfrwt>
<totfact> 0.17207974E+05</totfact>
</mgrwt>
</event>
<event>
 5   1  0.1343823E+00  0.8907919E+02  0.7818608E-02  0.1305097E+00
          2   -1    0    0  501    0  0.00000000000E+00  0.00000000000E+00  0.17651142187E+03  0.17651142189E+03  0.26000000000E-02 0. -1.
         -2   -1    0    0    0  501 -0.00000000000E+00 -0.00000000000E+00 -0.11238793711E+02  0.11238794012E+02  0.26000000000E-02 0.  1.
         23    2    1    2    0    0  0.00000000000E+00  0.00000000000E+00  0.16527262816E+03  0.18775021590E+03  0.89079189222E+02 0.  0.
        -13    1    3    3    0    0  0.16728936148E+02 -0.29101864858E+02  0.20935388392E+02  0.39561060431E+02  0.10570000000E+00 0.  1.
         13    1    3    3    0    0 -0.16728936148E+02  0.29101864858E+02  0.14433723977E+03  0.14818915547E+03  0.10570000000E+00 0. -1.
<mgrwt>
<rscale>  0 0.89079189E+02</rscale>
<asrwt>0</asrwt>
<pdfrwt beam="1">  1        2 0.27155601E-01 0.89079189E+02</pdfrwt>
<pdfrwt beam="2">  1       -2 0.17290453E-02 0.89079189E+02</pdfrwt>
<totfact> 0.15749432E+05</totfact>
</mgrwt>
</event>
<event>
 5   1  0.1343823E+00  0.9237486E+02  0.7818608E-02  0.1297200E+00
         -2   -1    0    0    0  501 -0.00000000000E+00  0.00000000000E+00  0.70743493724E+02  0.70743493772E+02  0.26000000000E-02 0.  1.
          2   -1    0    0  501    0  0.00000000000E+00 -0.00000000000E+00 -0.30155120567E+02  0.30155120680E+02  0.26000000000E-02 0. -1.
         23    2    1    2    0    0  0.00000000000E+00  0.00000000000E+00  0.40588373156E+02  0.10089861445E+03  0.92374857849E+02 0.  0.
        -13    1    3    3    0    0 -0.37340840729E+02 -0.77944608629E+01 -0.81505842596E+01  0.39006860970E+02  0.10570000000E+00 0. -1.
         13    1    3    3    0    0  0.37340840729E+02  0.77944608629E+01  0.48738957416E+02  0.61891753481E+02  0.10570000000E+00 0.  1.
<mgrwt>
<rscale>  0 0.92374858E+02</rscale>
<asrwt>0</asrwt>
<pdfrwt beam="2">  1        2 0.46392493E-02 0.92374858E+02</pdfrwt>
<pdfrwt beam="1">  1       -2 0.10883614E-01 0.92374858E+02</pdfrwt>
<totfact> 0.85214694E+04</totfact>
</mgrwt>
</event>
<event>
 5   1  0.1343823E+00  0.6791994E+02  0.7818608E-02  0.1367313E+00
          2   -1    0    0  501    0  0.00000000000E+00  0.00000000000E+00  0.73797805647E+02  0.73797805693E+02  0.26000000000E-02 0.  1.
         -2   -1    0    0    0  501 -0.00000000000E+00 -0.00000000000E+00 -0.15627558808E+02  0.15627559025E+02  0.26000000000E-02 0. -1.
         23    2    1    2    0    0  0.00000000000E+00  0.00000000000E+00  0.58170246839E+02  0.89425364718E+02  0.67919939912E+02 0.  0.
        -13    1    3    3    0    0  0.32903835427E+02 -0.31959309265E+01  0.39316951372E+02  0.51368377412E+02  0.10570000000E+00 0.  1.
         13    1    3    3    0    0 -0.32903835427E+02  0.31959309265E+01  0.18853295468E+02  0.38056987306E+02  0.10570000000E+00 0. -1.
<mgrwt>
<rscale>  0 0.67919940E+02</rscale>
<asrwt>0</asrwt>
<pdfrwt beam="1">  1        2 0.11353509E-01 0.67919940E+02</pdfrwt>
<pdfrwt beam="2">  1       -2 0.24042398E-02 0.67919940E+02</pdfrwt>
<totfact> 0.25039322E+05</totfact>
</mgrwt>
</event>
<event>
 5   1  0.1343823E+00  0.9146446E+02  0.7818608E-02  0.1299344E+00
         -2   -1    0    0    0  501 -0.00000000000E+00  0.00000000000E+00  0.15592597665E+02  0.15592597882E+02  0.26000000000E-02 0.  1.
          2   -1    0    0  501    0  0.00000000000E+00 -0.00000000000E+00 -0.13413010815E+03  0.13413010817E+03  0.26000000000E-02 0. -1.
         23    2    1    2    0    0  0.00000000000E+00  0.00000000000E+00 -0.11853751048E+03  0.14972270605E+03  0.91464459311E+02 0.  0.
        -13    1    3    3    0    0 -0.25590123058E+02 -0.36960437722E+02 -0.73013021023E+02  0.85742875892E+02  0.10570000000E+00 0. -1.
         13    1    3    3    0    0  0.25590123058E+02  0.36960437722E+02 -0.45524489458E+02  0.63979830163E+02  0.10570000000E+00 0.  1.
<mgrwt>
<rscale>  0 0.91464459E+02</rscale>
<asrwt>0</asrwt>
<pdfrwt beam="2">  1        2 0.20635401E-01 0.91464459E+02</pdfrwt>
<pdfrwt beam="1">  1       -2 0.23988613E-02 0.91464459E+02</pdfrwt>
<totfact> 0.13350954E+05</totfact>
</mgrwt>
</event>
<event>
 5   1  0.1343823E+00  0.8548087E+02  0.7818608E-02  0.1314180E+00
         -2   -1    0    0    0  501 -0.00000000000E+00  0.00000000000E+00  0.26028387030E+02  0.26028387159E+02  0.26000000000E-02 0.  1.
          2   -1    0    0  501    0  0.00000000000E+00 -0.00000000000E+00 -0.70182793501E+02  0.70182793549E+02  0.26000000000E-02 0. -1.
         23    2    1    2    0    0  0.00000000000E+00  0.00000000000E+00 -0.44154406471E+02  0.96211180708E+02  0.85480873197E+02 0.  0.
        -13    1    3    3    0    0  0.36884498780E+02  0.13249524445E+02 -0.41267966882E+02  0.56912849264E+02  0.10570000000E+00 0. -1.
         13    1    3    3    0    0 -0.36884498780E+02 -0.13249524445E+02 -0.28864395890E+01  0.39298331444E+02  0.10570000000E+00 0.  1.
<mgrwt>
<rscale>  0 0.85480873E+02</rscale>
<asrwt>0</asrwt>
<pdfrwt beam="2">  1        2 0.10797353E-01 0.85480873E+02</pdfrwt>
<pdfrwt beam="1">  1       -2 0.40043673E-02 0.85480873E+02</pdfrwt>
<totfact> 0.13244266E+05</totfact>
</mgrwt>
</event>
<event>
 5   1  0.1343823E+00  0.9065074E+02  0.7818608E-02  0.1301283E+00
         -2   -1    0    0    0  501 -0.00000000000E+00  0.00000000000E+00  0.27399185544E+02  0.27399185668E+02  0.26000000000E-02 0.  1.
          2   -1    0    0  501    0  0.00000000000E+00 -0.00000000000E+00 -0.74979940871E+02  0.74979940916E+02  0.26000000000E-02 0. -1.
         23    2    1    2    0    0  0.00000000000E+00  0.00000000000E+00 -0.47580755326E+02  0.10237912658E+03  0.90650743420E+02 0.  0.
        -13    1    3    3    0    0 -0.14118237646E+02 -0.11103674200E+02  0.23208138281E+02  0.29346977186E+02  0.10570000000E+00 0.  1.
         13    1    3    3    0    0  0.14118237646E+02  0.11103674200E+02 -0.70788893607E+02  0.73032149398E+02  0.10570000000E+00 0. -1.
<mgrwt>
<rscale>  0 0.90650743E+02</rscale>
<asrwt>0</asrwt>
<pdfrwt beam="2">  1        2 0.11535376E-01 0.90650743E+02</pdfrwt>
<pdfrwt beam="1">  1       -2 0.42152593E-02 0.90650743E+02</pdfrwt>
<totfact> 0.11459564E+05</totfact>
</mgrwt>
</event>
<event>
 5   1  0.1343823E+00  0.8825626E+02  0.7818608E-02  0.1307130E+00
          2   -1    0    0  501    0  0.00000000000E+00  0.00000000000E+00  0.12612839820E+03  0.12612839823E+03  0.26000000000E-02 0. -1.
         -2   -1    0    0    0  501 -0.00000000000E+00 -0.00000000000E+00 -0.15438963010E+02  0.15438963229E+02  0.26000000000E-02 0.  1.
         23    2    1    2    0    0  0.00000000000E+00  0.00000000000E+00  0.11068943519E+03  0.14156736145E+03  0.88256256248E+02 0.  0.
        -13    1    3    3    0    0  0.32560780265E+02 -0.27387087347E+02  0.36568191242E+02  0.56102591277E+02  0.10570000000E+00 0.  1.
         13    1    3    3    0    0 -0.32560780265E+02  0.27387087347E+02  0.74121243946E+02  0.85464770177E+02  0.10570000000E+00 0. -1.
<mgrwt>
<rscale>  0 0.88256256E+02</rscale>
<asrwt>0</asrwt>
<pdfrwt beam="1">  1        2 0.19404369E-01 0.88256256E+02</pdfrwt>
<pdfrwt beam="2">  1       -2 0.23752251E-02 0.88256256E+02</pdfrwt>
<totfact> 0.14419544E+05</totfact>
</mgrwt>
</event>
<event>
 5   1  0.1343823E+00  0.1003106E+03  0.7818608E-02  0.1279644E+00
          2   -1    0    0  501    0  0.00000000000E+00  0.00000000000E+00  0.14325391564E+03  0.14325391567E+03  0.26000000000E-02 0. -1.
         -2   -1    0    0    0  501 -0.00000000000E+00 -0.00000000000E+00 -0.17560112763E+02  0.17560112956E+02  0.26000000000E-02 0.  1.
         23    2    1    2    0    0  0.00000000000E+00  0.00000000000E+00  0.12569380288E+03  0.16081402862E+03  0.10031061619E+03 0.  0.
        -13    1    3    3    0    0 -0.18411641010E+02 -0.13470804952E+02 -0.87606077745E+01  0.24437891312E+02  0.10570000000E+00 0.  1.
         13    1    3    3    0    0  0.18411641010E+02  0.13470804952E+02  0.13445441066E+03  0.13637613731E+03  0.10570000000E+00 0. -1.
<mgrwt>
<rscale>  0 0.10031062E+03</rscale>
<asrwt>0</asrwt>
<pdfrwt beam="1">  1        2 0.22039064E-01 0.10031062E+03</pdfrwt>
<pdfrwt beam="2">  1       -2 0.27015559E-02 0.10031062E+03</pdfrwt>
<totfact> 0.10599775E+05</totfact>
</mgrwt>
</event>
<event>
 5   1  0.1343823E+00  0.9147764E+02  0.7818608E-02  0.1299312E+00
          2   -1    0    0  501    0  0.00000000000E+00  0.00000000000E+00  0.65768566144E+02  0.65768566196E+02  0.26000000000E-02 0.  1.
         -2   -1    0    0    0  501 -0.00000000000E+00 -0.00000000000E+00 -0.31809111136E+02  0.31809111242E+02  0.26000000000E-02 0. -1.
         23    2    1    2    0    0  0.00000000000E+00  0.00000000000E+00  0.33959455008E+02  0.97577677438E+02  0.91477639616E+02 0.  0.
        -13    1    3    3    0    0  0.27438160391E+01  0.28152227741E+02  0.55320310995E+02  0.62132313930E+02  0.10570000000E+00 0.  1.
         13    1    3    3    0    0 -0.27438160391E+01 -0.28152227741E+02 -0.21360855987E+02  0.35445363508E+02  0.10570000000E+00 0. -1.
<mgrwt>
<rscale>  0 0.91477640E+02</rscale>
<asrwt>0</asrwt>
<pdfrwt beam="1">  1        2 0.10118241E-01 0.91477640E+02</pdfrwt>
<pdfrwt beam="2">  1       -2 0.48937094E-02 0.91477640E+02</pdfrwt>
<totfact> 0.10773632E+05</totfact>
</mgrwt>
</event>
<event>
 5   1  0.1343823E+00  0.9085931E+02  0.7818608E-02  0.1300784E+00
         -2   -1    0    0    0  501 -0.00000000000E+00  0.00000000000E+00  0.48135016108E+02  0.48135016178E+02  0.26000000000E-02 0.  1.
          2   -1    0    0  501    0  0.00000000000E+00 -0.00000000000E+00 -0.42876341471E+02  0.42876341550E+02  0.26000000000E-02 0. -1.
         23    2    1    2    0    0  0.00000000000E+00  0.00000000000E+00  0.52586746371E+01  0.91011357728E+02  0.90859306494E+02 0.  0.
        -13    1    3    3    0    0  0.42708097952E+01 -0.42158871586E+02 -0.13775858953E+02  0.44557779704E+02  0.10570000000E+00 0. -1.
         13    1    3    3    0    0 -0.42708097952E+01  0.42158871586E+02  0.19034533590E+02  0.46453578024E+02  0.10570000000E+00 0.  1.
<mgrwt>
<rscale>  0 0.90859306E+02</rscale>
<asrwt>0</asrwt>
<pdfrwt beam="2">  1        2 0.65963603E-02 0.90859306E+02</pdfrwt>
<pdfrwt beam="1">  1       -2 0.74053871E-02 0.90859306E+02</pdfrwt>
<totfact> 0.98099273E+04</totfact>
</mgrwt>
</event>
<event>
 5   1  0.1343823E+00  0.9098915E+02  0.7818608E-02  0.1300474E+00
         -2   -1    0    0    0  501 -0.00000000000E+00  0.00000000000E+00  0.93470249016E+02  0.93470249052E+02  0.26000000000E-02 0.  1.
          2   -1    0    0  501    0  0.00000000000E+00 -0.00000000000E+00 -0.22143476836E+02  0.22143476989E+02  0.26000000000E-02 0. -1.
         23    2    1    2    0    0  0.00000000000E+00  0.00000000000E+00  0.71326772179E+02  0.11561372604E+03  0.90989148911E+02 0.  0.
        -13    1    3    3    0    0 -0.17722432506E+02  0.86061628584E+01  0.87768509840E+02  0.89952616110E+02  0.10570000000E+00 0.  1.
         13    1    3    3    0    0  0.17722432506E+02 -0.86061628584E+01 -0.16441737661E+02  0.25661109930E+02  0.10570000000E+00 0. -1.
<mgrwt>
<rscale>  0 0.90989149E+02</rscale>
<asrwt>0</asrwt>
<pdfrwt beam="2">  1        2 0.34066888E-02 0.90989149E+02</pdfrwt>
<pdfrwt beam="1">  1       -2 0.14380038E-01 0.90989149E+02</pdfrwt>
<totfact> 0.81826853E+04</totfact>
</mgrwt>
</event>
<event>
 5   1  0.1343823E+00  0.1050129E+03  0.7818608E-02  0.1270094E+00
         -2   -1    0    0    0  501 -0.00000000000E+00  0.00000000000E+00  0.27874622633E+02  0.27874622754E+02  0.26000000000E-02 0.  1.
          2   -1    0    0  501    0  0.00000000000E+00 -0.00000000000E+00 -0.98904574772E+02  0.98904574806E+02  0.26000000000E-02 0. -1.
         23    2    1    2    0    0  0.00000000000E+00  0.00000000000E+00 -0.71029952139E+02  0.12677919756E+03  0.10501290794E+03 0.  0.
        -13    1    3    3    0    0  0.34444214995E+02  0.39308749631E+02 -0.29438329441E+02  0.59985066116E+02  0.10570000000E+00 0.  1.
         13    1    3    3    0    0 -0.34444214995E+02 -0.39308749631E+02 -0.41591622698E+02  0.66794131444E+02  0.10570000000E+00 0. -1.
<mgrwt>
<rscale>  0 0.10501291E+03</rscale>
<asrwt>0</asrwt>
<pdfrwt beam="2">  1        2 0.15216088E-01 0.10501291E+03</pdfrwt>
<pdfrwt beam="1">  1       -2 0.42884036E-02 0.10501291E+03</pdfrwt>
<totfact> 0.82490574E+04</totfact>
</mgrwt>
</event>
<event>
 5   1  0.1343823E+00  0.6029011E+02  0.7818608E-02  0.1396618E+00
          2   -1    0    0  501    0  0.00000000000E+00  0.00000000000E+00  0.53070099901E+01  0.53070106270E+01  0.26000000000E-02 0. -1.
         -2   -1    0    0    0  501 -0.00000000000E+00 -0.00000000000E+00 -0.17123096242E+03  0.17123096244E+03  0.26000000000E-02 0.  1.
         23    2    1    2    0    0  0.00000000000E+00  0.00000000000E+00 -0.16592395243E+03  0.17653797307E+03  0.60290114817E+02 0.  0.
        -13    1    3    3    0    0 -0.19902919704E+02 -0.14942926598E+02 -0.13276586717E+03  0.13507851023E+03  0.10570000000E+00 0. -1.
         13    1    3    3    0    0  0.19902919704E+02  0.14942926598E+02 -0.33158085258E+02  0.41459462835E+02  0.10570000000E+00 0.  1.
<mgrwt>
<rscale>  0 0.60290115E+02</rscale>
<asrwt>0</asrwt>
<pdfrwt beam="1">  1        2 0.81646326E-03 0.60290115E+02</pdfrwt>
<pdfrwt beam="2">  1       -2 0.26343221E-01 0.60290115E+02</pdfrwt>
<totfact> 0.18851858E+05</totfact>
</mgrwt>
</event>
<event>
 5   1  0.1343823E+00  0.8024413E+02  0.7818608E-02  0.1328360E+00
          2   -1    0    0  501    0  0.00000000000E+00  0.00000000000E+00  0.13366581465E+03  0.13366581467E+03  0.26000000000E-02 0. -1.
         -2   -1    0    0    0  501 -0.00000000000E+00 -0.00000000000E+00 -0.12043318648E+02  0.12043318929E+02  0.26000000000E-02 0.  1.
         23    2    1    2    0    0  0.00000000000E+00  0.00000000000E+00  0.12162249600E+03  0.14570913360E+03  0.80244128020E+02 0.  0.
        -13    1    3    3    0    0  0.19102386121E+02  0.12156840952E+02  0.12095526720E+03  0.12305640078E+03  0.10570000000E+00 0. -1.
         13    1    3    3    0    0 -0.19102386121E+02 -0.12156840952E+02  0.66722879941E+00  0.22652732820E+02  0.10570000000E+00 0.  1.
<mgrwt>
<rscale>  0 0.80244128E+02</rscale>
<asrwt>0</asrwt>
<pdfrwt beam="1">  1        2 0.20563970E-01 0.80244128E+02</pdfrwt>
<pdfrwt beam="2">  1       -2 0.18528184E-02 0.80244128E+02</pdfrwt>
<totfact> 0.18988962E+05</totfact>
</mgrwt>
</event>
<event>
 5   1  0.1343823E+00  0.9018069E+02  0.7818608E-02  0.1302415E+00
         -2   -1    0    0    0  501 -0.00000000000E+00  0.00000000000E+00  0.23837005377E+02  0.23837005519E+02  0.26000000000E-02 0.  1.
          2   -1    0    0  501    0  0.00000000000E+00 -0.00000000000E+00 -0.85293397924E+02  0.85293397964E+02  0.26000000000E-02 0. -1.
         23    2    1    2    0    0  0.00000000000E+00  0.00000000000E+00 -0.61456392547E+02  0.10913040348E+03  0.90180689616E+02 0.  0.
        -13    1    3    3    0    0  0.49346491361E+01  0.23673810519E+02 -0.76782016956E+02  0.80500244514E+02  0.10570000000E+00 0. -1.
         13    1    3    3    0    0 -0.49346491361E+01 -0.23673810519E+02  0.15325624409E+02  0.28630158969E+02  0.10570000000E+00 0.  1.
<mgrwt>
<rscale>  0 0.90180690E+02</rscale>
<asrwt>0</asrwt>
<pdfrwt beam="2">  1        2 0.13122061E-01 0.90180690E+02</pdfrwt>
<pdfrwt beam="1">  1       -2 0.36672317E-02 0.90180690E+02</pdfrwt>
<totfact> 0.12061014E+05</totfact>
</mgrwt>
</event>
<event>
 5   1  0.1343823E+00  0.9160796E+02  0.7818608E-02  0.1299004E+00
          2   -1    0    0  501    0  0.00000000000E+00  0.00000000000E+00  0.10544835902E+03  0.10544835905E+03  0.26000000000E-02 0. -1.
         -2   -1    0    0    0  501 -0.00000000000E+00 -0.00000000000E+00 -0.19896038682E+02  0.19896038852E+02  0.26000000000E-02 0.  1.
         23    2    1    2    0    0  0.00000000000E+00  0.00000000000E+00  0.85552320340E+02  0.12534439791E+03  0.91607961285E+02 0.  0.
        -13    1    3    3    0    0 -0.27180677678E+02  0.12604990919E+02  0.90180701467E+02  0.95027601910E+02  0.10570000000E+00 0. -1.
         13    1    3    3    0    0  0.27180677678E+02 -0.12604990919E+02 -0.46283811272E+01  0.30316795996E+02  0.10570000000E+00 0.  1.
<mgrwt>
<rscale>  0 0.91607961E+02</rscale>
<asrwt>0</asrwt>
<pdfrwt beam="1">  1        2 0.16222824E-01 0.91607961E+02</pdfrwt>
<pdfrwt beam="2">  1       -2 0.30609291E-02 0.91607961E+02</pdfrwt>
<totfact> 0.12308153E+05</totfact>
</mgrwt>
</event>
<event>
 5   1  0.1343823E+00  0.9020870E+02  0.7818608E-02  0.1302347E+00
         -2   -1    0    0    0  501 -0.00000000000E+00  0.00000000000E+00  0.10744377283E+03  0.10744377286E+03  0.26000000000E-02 0.  1.
          2   -1    0    0  501    0  0.00000000000E+00 -0.00000000000E+00 -0.18934576405E+02  0.18934576584E+02  0.26000000000E-02 0. -1.
         23    2    1    2    0    0  0.00000000000E+00  0.00000000000E+00  0.88509196427E+02  0.12637834945E+03  0.90208698898E+02 0.  0.
        -13    1    3    3    0    0 -0.74067109869E+01 -0.16362705845E+02  0.10221747959E+03  0.10378353345E+03  0.10570000000E+00 0.  1.
         13    1    3    3    0    0  0.74067109869E+01  0.16362705845E+02 -0.13708283160E+02  0.22594815996E+02  0.10570000000E+00 0. -1.
<mgrwt>
<rscale>  0 0.90208699E+02</rscale>
<asrwt>0</asrwt>
<pdfrwt beam="2">  1        2 0.29130118E-02 0.90208699E+02</pdfrwt>
<pdfrwt beam="1">  1       -2 0.16529811E-01 0.90208699E+02</pdfrwt>
<totfact> 0.80198430E+04</totfact>
</mgrwt>
</event>
<event>
 5   1  0.1343823E+00  0.8014417E+02  0.7818608E-02  0.1328643E+00
         -2   -1    0    0    0  501 -0.00000000000E+00  0.00000000000E+00  0.98293379822E+01  0.98293383261E+01  0.26000000000E-02 0.  1.
          2   -1    0    0  501    0  0.00000000000E+00 -0.00000000000E+00 -0.16336521153E+03  0.16336521155E+03  0.26000000000E-02 0. -1.
         23    2    1    2    0    0  0.00000000000E+00  0.00000000000E+00 -0.15353587355E+03  0.17319454988E+03  0.80144167854E+02 0.  0.
        -13    1    3    3    0    0  0.38909630151E+02  0.34277020675E+01 -0.57432715598E+02  0.69456723601E+02  0.10570000000E+00 0. -1.
         13    1    3    3    0    0 -0.38909630151E+02 -0.34277020675E+01 -0.96103157952E+02  0.10373782628E+03  0.10570000000E+00 0.  1.
<mgrwt>
<rscale>  0 0.80144168E+02</rscale>
<asrwt>0</asrwt>
<pdfrwt beam="2">  1        2 0.25133107E-01 0.80144168E+02</pdfrwt>
<pdfrwt beam="1">  1       -2 0.15122060E-02 0.80144168E+02</pdfrwt>
<totfact> 0.20352151E+05</totfact>
</mgrwt>
</event>
<event>
 5   1  0.1343823E+00  0.8943925E+02  0.7818608E-02  0.1304215E+00
         -2   -1    0    0    0  501 -0.00000000000E+00  0.00000000000E+00  0.13101723413E+02  0.13101723671E+02  0.26000000000E-02 0.  1.
          2   -1    0    0  501    0  0.00000000000E+00 -0.00000000000E+00 -0.15263984428E+03  0.15263984430E+03  0.26000000000E-02 0. -1.
         23    2    1    2    0    0  0.00000000000E+00  0.00000000000E+00 -0.13953812087E+03  0.16574156797E+03  0.89439254128E+02 0.  0.
        -13    1    3    3    0    0 -0.20954028576E+02 -0.28238998405E+02 -0.12096753596E+03  0.12597487160E+03  0.10570000000E+00 0. -1.
         13    1    3    3    0    0  0.20954028576E+02  0.28238998405E+02 -0.18570584905E+02  0.39766696376E+02  0.10570000000E+00 0.  1.
<mgrwt>
<rscale>  0 0.89439254E+02</rscale>
<asrwt>0</asrwt>
<pdfrwt beam="2">  1        2 0.23483052E-01 0.89439254E+02</pdfrwt>
<pdfrwt beam="1">  1       -2 0.20156499E-02 0.89439254E+02</pdfrwt>
<totfact> 0.14816464E+05</totfact>
</mgrwt>
</event>
<event>
 5   1  0.1343823E+00  0.9163231E+02  0.7818608E-02  0.1298946E+00
         -2   -1    0    0    0  501 -0.00000000000E+00  0.00000000000E+00  0.11467399954E+02  0.11467400248E+02  0.26000000000E-02 0.  1.
          2   -1    0    0  501    0  0.00000000000E+00 -0.00000000000E+00 -0.18305107778E+03  0.18305107780E+03  0.26000000000E-02 0. -1.
         23    2    1    2    0    0  0.00000000000E+00  0.00000000000E+00 -0.17158367782E+03  0.19451847804E+03  0.91632307649E+02 0.  0.
        -13    1    3    3    0    0 -0.16264258738E+02  0.28175861159E+02 -0.15427373078E+03  0.15766673856E+03  0.10570000000E+00 0.  1.
         13    1    3    3    0    0  0.16264258738E+02 -0.28175861159E+02 -0.17309947041E+02  0.36851739489E+02  0.10570000000E+00 0. -1.
<mgrwt>
<rscale>  0 0.91632308E+02</rscale>
<asrwt>0</asrwt>
<pdfrwt beam="2">  1        2 0.28161702E-01 0.91632308E+02</pdfrwt>
<pdfrwt beam="1">  1       -2 0.17642155E-02 0.91632308E+02</pdfrwt>
<totfact> 0.14783600E+05</totfact>
</mgrwt>
</event>
<event>
 5   1  0.1343823E+00  0.9184987E+02  0.7818608E-02  0.1298433E+00
          2   -1    0    0  501    0  0.00000000000E+00  0.00000000000E+00  0.16982056255E+02  0.16982056454E+02  0.26000000000E-02 0. -1.
         -2   -1    0    0    0  501 -0.00000000000E+00 -0.00000000000E+00 -0.12419578648E+03  0.12419578651E+03  0.26000000000E-02 0.  1.
         23    2    1    2    0    0  0.00000000000E+00  0.00000000000E+00 -0.10721373022E+03  0.14117784296E+03  0.91849874220E+02 0.  0.
        -13    1    3    3    0    0  0.20702352583E+02  0.40735024870E+02 -0.60677131475E+02  0.75958245834E+02  0.10570000000E+00 0.  1.
         13    1    3    3    0    0 -0.20702352583E+02 -0.40735024870E+02 -0.46536598749E+02  0.65219597126E+02  0.10570000000E+00 0. -1.
<mgrwt>
<rscale>  0 0.91849874E+02</rscale>
<asrwt>0</asrwt>
<pdfrwt beam="1">  1        2 0.26126241E-02 0.91849874E+02</pdfrwt>
<pdfrwt beam="2">  1       -2 0.19107044E-01 0.91849874E+02</pdfrwt>
<totfact> 0.73207999E+04</totfact>
</mgrwt>
</event>
<event>
 5   1  0.1343823E+00  0.8345633E+02  0.7818608E-02  0.1319519E+00
          2   -1    0    0  501    0  0.00000000000E+00  0.00000000000E+00  0.18328172461E+03  0.18328172463E+03  0.26000000000E-02 0. -1.
         -2   -1    0    0    0  501 -0.00000000000E+00 -0.00000000000E+00 -0.95003456938E+01  0.95003460496E+01  0.26000000000E-02 0.  1.
         23    2    1    2    0    0  0.00000000000E+00  0.00000000000E+00  0.17378137892E+03  0.19278207068E+03  0.83456330599E+02 0.  0.
        -13    1    3    3    0    0 -0.25623640046E+02 -0.22677024503E+02  0.14206043878E+03  0.14612322816E+03  0.10570000000E+00 0. -1.
         13    1    3    3    0    0  0.25623640046E+02  0.22677024503E+02  0.31720940140E+02  0.46658842520E+02  0.10570000000E+00 0.  1.
<mgrwt>
<rscale>  0 0.83456331E+02</rscale>
<asrwt>0</asrwt>
<pdfrwt beam="1">  1        2 0.28197188E-01 0.83456331E+02</pdfrwt>
<pdfrwt beam="2">  1       -2 0.14615917E-02 0.83456331E+02</pdfrwt>
<totfact> 0.19006176E+05</totfact>
</mgrwt>
</event>
<event>
 5   1  0.1343823E+00  0.9130345E+02  0.7818608E-02  0.1299726E+00
         -2   -1    0    0    0  501 -0.00000000000E+00  0.00000000000E+00  0.11201413360E+02  0.11201413662E+02  0.26000000000E-02 0.  1.
          2   -1    0    0  501    0  0.00000000000E+00 -0.00000000000E+00 -0.18605509018E+03  0.18605509019E+03  0.26000000000E-02 0. -1.
         23    2    1    2    0    0  0.00000000000E+00  0.00000000000E+00 -0.17485367681E+03  0.19725650386E+03  0.91303450195E+02 0.  0.
        -13    1    3    3    0    0  0.28989493082E+01 -0.40762134892E+02 -0.43462177955E+02  0.59656748429E+02  0.10570000000E+00 0.  1.
         13    1    3    3    0    0 -0.28989493082E+01  0.40762134892E+02 -0.13139149886E+03  0.13759975543E+03  0.10570000000E+00 0. -1.
<mgrwt>
<rscale>  0 0.91303450E+02</rscale>
<asrwt>0</asrwt>
<pdfrwt beam="2">  1        2 0.28623858E-01 0.91303450E+02</pdfrwt>
<pdfrwt beam="1">  1       -2 0.17232945E-02 0.91303450E+02</pdfrwt>
<totfact> 0.15014870E+05</totfact>
</mgrwt>
</event>
<event>
 5   1  0.1343823E+00  0.9119496E+02  0.7818608E-02  0.1299983E+00
         -2   -1    0    0    0  501 -0.00000000000E+00  0.00000000000E+00  0.47147578033E+02  0.47147578104E+02  0.26000000000E-02 0.  1.
          2   -1    0    0  501    0  0.00000000000E+00 -0.00000000000E+00 -0.44098345063E+02  0.44098345140E+02  0.26000000000E-02 0. -1.
         23    2    1    2    0    0  0.00000000000E+00  0.00000000000E+00  0.30492329693E+01  0.91245923245E+02  0.91194959768E+02 0.  0.
        -13    1    3    3    0    0  0.44646140137E+02 -0.16722258303E+01 -0.75933698371E+01  0.45318259083E+02  0.10570000000E+00 0.  1.
         13    1    3    3    0    0 -0.44646140137E+02  0.16722258303E+01  0.10642602806E+02  0.45927664162E+02  0.10570000000E+00 0. -1.
<mgrwt>
<rscale>  0 0.91194960E+02</rscale>
<asrwt>0</asrwt>
<pdfrwt beam="2">  1        2 0.67843608E-02 0.91194960E+02</pdfrwt>
<pdfrwt beam="1">  1       -2 0.72534735E-02 0.91194960E+02</pdfrwt>
<totfact> 0.97771880E+04</totfact>
</mgrwt>
</event>
<event>
 5   1  0.1343823E+00  0.9040074E+02  0.7818608E-02  0.1301884E+00
         -2   -1    0    0    0  501 -0.00000000000E+00  0.00000000000E+00  0.12085062991E+03  0.12085062994E+03  0.26000000000E-02 0.  1.
          2   -1    0    0  501    0  0.00000000000E+00 -0.00000000000E+00 -0.16905772257E+02  0.16905772456E+02  0.26000000000E-02 0. -1.
         23    2    1    2    0    0  0.00000000000E+00  0.00000000000E+00  0.10394485766E+03  0.13775640240E+03  0.90400735441E+02 0.  0.
        -13    1    3    3    0    0  0.16509395521E+01  0.36764095314E+02  0.11981013277E+02  0.38702456735E+02  0.10570000000E+00 0. -1.
         13    1    3    3    0    0 -0.16509395521E+01 -0.36764095314E+02  0.91963844379E+02  0.99053945661E+02  0.10570000000E+00 0.  1.
<mgrwt>
<rscale>  0 0.90400735E+02</rscale>
<asrwt>0</asrwt>
<pdfrwt beam="2">  1        2 0.26008880E-02 0.90400735E+02</pdfrwt>
<pdfrwt beam="1">  1       -2 0.18592405E-01 0.90400735E+02</pdfrwt>
<totfact> 0.76875477E+04</totfact>
</mgrwt>
</event>
<event>
 5   1  0.1343823E+00  0.9156873E+02  0.7818608E-02  0.1299097E+00
          2   -1    0    0  501    0  0.00000000000E+00  0.00000000000E+00  0.21380067100E+02  0.21380067258E+02  0.26000000000E-02 0. -1.
         -2   -1    0    0    0  501 -0.00000000000E+00 -0.00000000000E+00 -0.98044971786E+02  0.98044971820E+02  0.26000000000E-02 0.  1.
         23    2    1    2    0    0  0.00000000000E+00  0.00000000000E+00 -0.76664904686E+02  0.11942503908E+03  0.91568730188E+02 0.  0.
        -13    1    3    3    0    0 -0.37717570748E+02  0.70672643322E+01 -0.70902142798E+02  0.80620632558E+02  0.10570000000E+00 0.  1.
         13    1    3    3    0    0  0.37717570748E+02 -0.70672643322E+01 -0.57627618877E+01  0.38804406519E+02  0.10570000000E+00 0. -1.
<mgrwt>
<rscale>  0 0.91568730E+02</rscale>
<asrwt>0</asrwt>
<pdfrwt beam="1">  1        2 0.32892411E-02 0.91568730E+02</pdfrwt>
<pdfrwt beam="2">  1       -2 0.15083842E-01 0.91568730E+02</pdfrwt>
<totfact> 0.79423814E+04</totfact>
</mgrwt>
</event>
<event>
 5   1  0.1343823E+00  0.8996167E+02  0.7818608E-02  0.1302945E+00
          2   -1    0    0  501    0  0.00000000000E+00  0.00000000000E+00  0.17385297352E+03  0.17385297354E+03  0.26000000000E-02 0. -1.
         -2   -1    0    0    0  501 -0.00000000000E+00 -0.00000000000E+00 -0.11637853157E+02  0.11637853447E+02  0.26000000000E-02 0.  1.
         23    2    1    2    0    0  0.00000000000E+00  0.00000000000E+00  0.16221512036E+03  0.18549082699E+03  0.89961667514E+02 0.  0.
        -13    1    3    3    0    0 -0.10599246876E+02 -0.42333906522E+02  0.58637664614E+02  0.73095078901E+02  0.10570000000E+00 0.  1.
         13    1    3    3    0    0  0.10599246876E+02  0.42333906522E+02  0.10357745575E+03  0.11239574809E+03  0.10570000000E+00 0. -1.
<mgrwt>
<rscale>  0 0.89961668E+02</rscale>
<asrwt>0</asrwt>
<pdfrwt beam="1">  1        2 0.26746610E-01 0.89961668E+02</pdfrwt>
<pdfrwt beam="2">  1       -2 0.17904391E-02 0.89961668E+02</pdfrwt>
<totfact> 0.15255386E+05</totfact>
</mgrwt>
</event>
<event>
 5   1  0.1343823E+00  0.9184661E+02  0.7818608E-02  0.1298440E+00
         -2   -1    0    0    0  501 -0.00000000000E+00  0.00000000000E+00  0.52505533900E+01  0.52505540338E+01  0.26000000000E-02 0. -1.
          2   -1    0    0  501    0  0.00000000000E+00 -0.00000000000E+00 -0.40166241031E+03  0.40166241032E+03  0.26000000000E-02 0.  1.
         23    2    1    2    0    0  0.00000000000E+00  0.00000000000E+00 -0.39641185692E+03  0.40691296436E+03  0.91846612628E+02 0.  0.
        -13    1    3    3    0    0  0.12342306204E+02  0.44018229267E+02 -0.17889351988E+03  0.18464246439E+03  0.10570000000E+00 0.  1.
         13    1    3    3    0    0 -0.12342306204E+02 -0.44018229267E+02 -0.21751833705E+03  0.22227049996E+03  0.10570000000E+00 0. -1.
<mgrwt>
<rscale>  0 0.91846613E+02</rscale>
<asrwt>0</asrwt>
<pdfrwt beam="2">  1        2 0.61794193E-01 0.91846613E+02</pdfrwt>
<pdfrwt beam="1">  1       -2 0.80777781E-03 0.91846613E+02</pdfrwt>
<totfact> 0.19607048E+05</totfact>
</mgrwt>
</event>
<event>
 5   1  0.1343823E+00  0.9096542E+02  0.7818608E-02  0.1300530E+00
          2   -1    0    0  501    0  0.00000000000E+00  0.00000000000E+00  0.13796874603E+02  0.13796874848E+02  0.26000000000E-02 0. -1.
         -2   -1    0    0    0  501 -0.00000000000E+00 -0.00000000000E+00 -0.14993807447E+03  0.14993807449E+03  0.26000000000E-02 0.  1.
         23    2    1    2    0    0  0.00000000000E+00  0.00000000000E+00 -0.13614119986E+03  0.16373494934E+03  0.90965418341E+02 0.  0.
        -13    1    3    3    0    0 -0.19466569625E+02 -0.36023180340E+02 -0.32430809919E+02  0.52233949298E+02  0.10570000000E+00 0.  1.
         13    1    3    3    0    0  0.19466569625E+02  0.36023180340E+02 -0.10371038994E+03  0.11150100004E+03  0.10570000000E+00 0. -1.
<mgrwt>
<rscale>  0 0.90965418E+02</rscale>
<asrwt>0</asrwt>
<pdfrwt beam="1">  1        2 0.21225962E-02 0.90965418E+02</pdfrwt>
<pdfrwt beam="2">  1       -2 0.23067395E-01 0.90965418E+02</pdfrwt>
<totfact> 0.70279061E+04</totfact>
</mgrwt>
</event>
<event>
 5   1  0.1343823E+00  0.9107037E+02  0.7818608E-02  0.1300280E+00
          2   -1    0    0  501    0  0.00000000000E+00  0.00000000000E+00  0.81253690970E+02  0.81253691011E+02  0.26000000000E-02 0. -1.
         -2   -1    0    0    0  501 -0.00000000000E+00 -0.00000000000E+00 -0.25518262340E+02  0.25518262472E+02  0.26000000000E-02 0.  1.
         23    2    1    2    0    0  0.00000000000E+00  0.00000000000E+00  0.55735428630E+02  0.10677195348E+03  0.91070368650E+02 0.  0.
        -13    1    3    3    0    0 -0.28202122150E+02  0.32546872162E+02  0.45209233330E+02  0.62438325826E+02  0.10570000000E+00 0. -1.
         13    1    3    3    0    0  0.28202122150E+02 -0.32546872162E+02  0.10526195300E+02  0.44333627657E+02  0.10570000000E+00 0.  1.
<mgrwt>
<rscale>  0 0.91070369E+02</rscale>
<asrwt>0</asrwt>
<pdfrwt beam="1">  1        2 0.12500568E-01 0.91070369E+02</pdfrwt>
<pdfrwt beam="2">  1       -2 0.39258865E-02 0.91070369E+02</pdfrwt>
<totfact> 0.11574406E+05</totfact>
</mgrwt>
</event>
<event>
 5   1  0.1343823E+00  0.9189674E+02  0.7818608E-02  0.1298322E+00
          2   -1    0    0  501    0  0.00000000000E+00  0.00000000000E+00  0.30400504514E+02  0.30400504626E+02  0.26000000000E-02 0. -1.
         -2   -1    0    0    0  501 -0.00000000000E+00 -0.00000000000E+00 -0.69447946379E+02  0.69447946428E+02  0.26000000000E-02 0.  1.
         23    2    1    2    0    0  0.00000000000E+00  0.00000000000E+00 -0.39047441865E+02  0.99848451054E+02  0.91896738036E+02 0.  0.
        -13    1    3    3    0    0  0.13781293998E+02 -0.88216573201E+01  0.27127423841E+02  0.31680498716E+02  0.10570000000E+00 0. -1.
         13    1    3    3    0    0 -0.13781293998E+02  0.88216573201E+01 -0.66174865707E+02  0.68167952338E+02  0.10570000000E+00 0.  1.
<mgrwt>
<rscale>  0 0.91896738E+02</rscale>
<asrwt>0</asrwt>
<pdfrwt beam="1">  1        2 0.46770007E-02 0.91896738E+02</pdfrwt>
<pdfrwt beam="2">  1       -2 0.10684299E-01 0.91896738E+02</pdfrwt>
<totfact> 0.86729911E+04</totfact>
</mgrwt>
</event>
<event>
 5   1  0.1343823E+00  0.9166634E+02  0.7818608E-02  0.1298866E+00
          2   -1    0    0  501    0  0.00000000000E+00  0.00000000000E+00  0.27306620593E+03  0.27306620594E+03  0.26000000000E-02 0. -1.
         -2   -1    0    0    0  501 -0.00000000000E+00 -0.00000000000E+00 -0.76929310524E+01  0.76929314918E+01  0.26000000000E-02 0.  1.
         23    2    1    2    0    0  0.00000000000E+00  0.00000000000E+00  0.26537327487E+03  0.28075913743E+03  0.91666341879E+02 0.  0.
        -13    1    3    3    0    0 -0.29914192350E+01 -0.36907635372E+02  0.21541423516E+03  0.21857361693E+03  0.10570000000E+00 0. -1.
         13    1    3    3    0    0  0.29914192350E+01  0.36907635372E+02  0.49959039719E+02  0.62185520501E+02  0.10570000000E+00 0.  1.
<mgrwt>
<rscale>  0 0.91666342E+02</rscale>
<asrwt>0</asrwt>
<pdfrwt beam="1">  1        2 0.42010192E-01 0.91666342E+02</pdfrwt>
<pdfrwt beam="2">  1       -2 0.11835277E-02 0.91666342E+02</pdfrwt>
<totfact> 0.17099850E+05</totfact>
</mgrwt>
</event>
<event>
 5   1  0.1343823E+00  0.8944772E+02  0.7818608E-02  0.1304195E+00
          2   -1    0    0  501    0  0.00000000000E+00  0.00000000000E+00  0.79456640754E+02  0.79456640797E+02  0.26000000000E-02 0. -1.
         -2   -1    0    0    0  501 -0.00000000000E+00 -0.00000000000E+00 -0.25173773072E+02  0.25173773206E+02  0.26000000000E-02 0.  1.
         23    2    1    2    0    0  0.00000000000E+00  0.00000000000E+00  0.54282867683E+02  0.10463041400E+03  0.89447715513E+02 0.  0.
        -13    1    3    3    0    0 -0.36263176733E+02 -0.18383405201E+02  0.48938924870E+02  0.63623872198E+02  0.10570000000E+00 0. -1.
         13    1    3    3    0    0  0.36263176733E+02  0.18383405201E+02  0.53439428129E+01  0.41006541805E+02  0.10570000000E+00 0.  1.
<mgrwt>
<rscale>  0 0.89447716E+02</rscale>
<asrwt>0</asrwt>
<pdfrwt beam="1">  1        2 0.12224099E-01 0.89447716E+02</pdfrwt>
<pdfrwt beam="2">  1       -2 0.38728882E-02 0.89447716E+02</pdfrwt>
<totfact> 0.12088449E+05</totfact>
</mgrwt>
</event>
<event>
 5   1  0.1343823E+00  0.9069974E+02  0.7818608E-02  0.1301166E+00
         -2   -1    0    0    0  501 -0.00000000000E+00  0.00000000000E+00  0.13816840712E+02  0.13816840957E+02  0.26000000000E-02 0.  1.
          2   -1    0    0  501    0  0.00000000000E+00 -0.00000000000E+00 -0.14884811189E+03  0.14884811191E+03  0.26000000000E-02 0. -1.
         23    2    1    2    0    0  0.00000000000E+00  0.00000000000E+00 -0.13503127118E+03  0.16266495287E+03  0.90699739228E+02 0.  0.
        -13    1    3    3    0    0 -0.26683058890E+02 -0.15413436027E+02 -0.12718749657E+03  0.13086722316E+03  0.10570000000E+00 0. -1.
         13    1    3    3    0    0  0.26683058890E+02  0.15413436027E+02 -0.78437746063E+01  0.31797729706E+02  0.10570000000E+00 0.  1.
<mgrwt>
<rscale>  0 0.90699739E+02</rscale>
<asrwt>0</asrwt>
<pdfrwt beam="2">  1        2 0.22899708E-01 0.90699739E+02</pdfrwt>
<pdfrwt beam="1">  1       -2 0.21256679E-02 0.90699739E+02</pdfrwt>
<totfact> 0.14144281E+05</totfact>
</mgrwt>
</event>
<event>
 5   1  0.1343823E+00  0.9147902E+02  0.7818608E-02  0.1299309E+00
          2   -1    0    0  501    0  0.00000000000E+00  0.00000000000E+00  0.31570788886E+02  0.31570788994E+02  0.26000000000E-02 0. -1.
         -2   -1    0    0    0  501 -0.00000000000E+00 -0.00000000000E+00 -0.66267045245E+02  0.66267045296E+02  0.26000000000E-02 0.  1.
         23    2    1    2    0    0  0.00000000000E+00  0.00000000000E+00 -0.34696256359E+02  0.97837834290E+02  0.91479022804E+02 0.  0.
        -13    1    3    3    0    0  0.32884935520E+02 -0.30673659551E+02 -0.84127894030E+01  0.45750175655E+02  0.10570000000E+00 0. -1.
         13    1    3    3    0    0 -0.32884935520E+02  0.30673659551E+02 -0.26283466956E+02  0.52087658635E+02  0.10570000000E+00 0.  1.
<mgrwt>
<rscale>  0 0.91479023E+02</rscale>
<asrwt>0</asrwt>
<pdfrwt beam="1">  1        2 0.48570445E-02 0.91479023E+02</pdfrwt>
<pdfrwt beam="2">  1       -2 0.10194930E-01 0.91479023E+02</pdfrwt>
<totfact> 0.88800849E+04</totfact>
</mgrwt>
</event>
<event>
 5   1  0.1343823E+00  0.9187801E+02  0.7818608E-02  0.1298367E+00
          2   -1    0    0  501    0  0.00000000000E+00  0.00000000000E+00  0.10306726273E+03  0.10306726277E+03  0.26000000000E-02 0. -1.
         -2   -1    0    0    0  501 -0.00000000000E+00 -0.00000000000E+00 -0.20475870731E+02  0.20475870896E+02  0.26000000000E-02 0.  1.
         23    2    1    2    0    0  0.00000000000E+00  0.00000000000E+00  0.82591392004E+02  0.12354313366E+03  0.91878005214E+02 0.  0.
        -13    1    3    3    0    0 -0.11750913096E+02 -0.29502810206E+02 -0.33391875944E+01  0.31932132952E+02  0.10570000000E+00 0.  1.
         13    1    3    3    0    0  0.11750913096E+02  0.29502810206E+02  0.85930579598E+02  0.91611000711E+02  0.10570000000E+00 0. -1.
<mgrwt>
<rscale>  0 0.91878005E+02</rscale>
<asrwt>0</asrwt>
<pdfrwt beam="1">  1        2 0.15856502E-01 0.91878005E+02</pdfrwt>
<pdfrwt beam="2">  1       -2 0.31501340E-02 0.91878005E+02</pdfrwt>
<totfact> 0.12123013E+05</totfact>
</mgrwt>
</event>
<event>
 5   1  0.1343823E+00  0.9743973E+02  0.7818608E-02  0.1285774E+00
          2   -1    0    0  501    0  0.00000000000E+00  0.00000000000E+00  0.20834325056E+02  0.20834325218E+02  0.26000000000E-02 0. -1.
         -2   -1    0    0    0  501 -0.00000000000E+00 -0.00000000000E+00 -0.11392858714E+03  0.11392858716E+03  0.26000000000E-02 0.  1.
         23    2    1    2    0    0  0.00000000000E+00  0.00000000000E+00 -0.93094262079E+02  0.13476291238E+03  0.97439729690E+02 0.  0.
        -13    1    3    3    0    0  0.27094409914E+02 -0.13514053351E+02 -0.99336420493E+02  0.10384831388E+03  0.10570000000E+00 0.  1.
         13    1    3    3    0    0 -0.27094409914E+02  0.13514053351E+02  0.62421584140E+01  0.30914598505E+02  0.10570000000E+00 0. -1.
<mgrwt>
<rscale>  0 0.97439730E+02</rscale>
<asrwt>0</asrwt>
<pdfrwt beam="1">  1        2 0.32052809E-02 0.97439730E+02</pdfrwt>
<pdfrwt beam="2">  1       -2 0.17527475E-01 0.97439730E+02</pdfrwt>
<totfact> 0.64923644E+04</totfact>
</mgrwt>
</event>
<event>
 5   1  0.1343823E+00  0.1022229E+03  0.7818608E-02  0.1275690E+00
          2   -1    0    0  501    0  0.00000000000E+00  0.00000000000E+00  0.64068806738E+02  0.64068806791E+02  0.26000000000E-02 0. -1.
         -2   -1    0    0    0  501 -0.00000000000E+00 -0.00000000000E+00 -0.40774580193E+02  0.40774580276E+02  0.26000000000E-02 0.  1.
         23    2    1    2    0    0  0.00000000000E+00  0.00000000000E+00  0.23294226545E+02  0.10484338707E+03  0.10222286839E+03 0.  0.
        -13    1    3    3    0    0 -0.69545745024E+01  0.49806240333E+02  0.21010206280E+02  0.54501996505E+02  0.10570000000E+00 0. -1.
         13    1    3    3    0    0  0.69545745024E+01 -0.49806240333E+02  0.22840202648E+01  0.50341390562E+02  0.10570000000E+00 0.  1.
<mgrwt>
<rscale>  0 0.10222287E+03</rscale>
<asrwt>0</asrwt>
<pdfrwt beam="1">  1        2 0.98567395E-02 0.10222287E+03</pdfrwt>
<pdfrwt beam="2">  1       -2 0.62730123E-02 0.10222287E+03</pdfrwt>
<totfact> 0.78013068E+04</totfact>
</mgrwt>
</event>
<event>
 5   1  0.1343823E+00  0.9095645E+02  0.7818608E-02  0.1300552E+00
         -2   -1    0    0    0  501 -0.00000000000E+00  0.00000000000E+00  0.67087145705E+01  0.67087150743E+01  0.26000000000E-02 0.  1.
          2   -1    0    0  501    0  0.00000000000E+00 -0.00000000000E+00 -0.30829587282E+03  0.30829587283E+03  0.26000000000E-02 0. -1.
         23    2    1    2    0    0  0.00000000000E+00  0.00000000000E+00 -0.30158715825E+03  0.31500458790E+03  0.90956453209E+02 0.  0.
        -13    1    3    3    0    0 -0.42365701551E+02 -0.85429605905E+01 -0.19982305233E+03  0.20444338644E+03  0.10570000000E+00 0. -1.
         13    1    3    3    0    0  0.42365701551E+02  0.85429605905E+01 -0.10176410592E+03  0.11056120146E+03  0.10570000000E+00 0.  1.
<mgrwt>
<rscale>  0 0.90956453E+02</rscale>
<asrwt>0</asrwt>
<pdfrwt beam="2">  1        2 0.47430123E-01 0.90956453E+02</pdfrwt>
<pdfrwt beam="1">  1       -2 0.10321102E-02 0.90956453E+02</pdfrwt>
<totfact> 0.18266798E+05</totfact>
</mgrwt>
</event>
<event>
 5   1  0.1343823E+00  0.9019728E+02  0.7818608E-02  0.1302375E+00
         -2   -1    0    0    0  501 -0.00000000000E+00  0.00000000000E+00  0.33414476266E+02  0.33414476367E+02  0.26000000000E-02 0.  1.
          2   -1    0    0  501    0  0.00000000000E+00 -0.00000000000E+00 -0.60868451177E+02  0.60868451233E+02  0.26000000000E-02 0. -1.
         23    2    1    2    0    0  0.00000000000E+00  0.00000000000E+00 -0.27453974912E+02  0.94282927600E+02  0.90197282100E+02 0.  0.
        -13    1    3    3    0    0  0.43076621287E+02 -0.12243529071E+02 -0.19295285059E+02  0.48762880387E+02  0.10570000000E+00 0. -1.
         13    1    3    3    0    0 -0.43076621287E+02  0.12243529071E+02 -0.81586898528E+01  0.45520047213E+02  0.10570000000E+00 0.  1.
<mgrwt>
<rscale>  0 0.90197282E+02</rscale>
<asrwt>0</asrwt>
<pdfrwt beam="2">  1        2 0.93643771E-02 0.90197282E+02</pdfrwt>
<pdfrwt beam="1">  1       -2 0.51406887E-02 0.90197282E+02</pdfrwt>
<totfact> 0.10976552E+05</totfact>
</mgrwt>
</event>
<event>
 5   1  0.1343823E+00  0.9152175E+02  0.7818608E-02  0.1299208E+00
          2   -1    0    0  501    0  0.00000000000E+00  0.00000000000E+00  0.17345519863E+03  0.17345519865E+03  0.26000000000E-02 0. -1.
         -2   -1    0    0    0  501 -0.00000000000E+00 -0.00000000000E+00 -0.12072615068E+02  0.12072615348E+02  0.26000000000E-02 0.  1.
         23    2    1    2    0    0  0.00000000000E+00  0.00000000000E+00  0.16138258356E+03  0.18552781400E+03  0.91521754188E+02 0.  0.
        -13    1    3    3    0    0 -0.13322831555E+02  0.43719620191E+02  0.85288786367E+02  0.96763067762E+02  0.10570000000E+00 0.  1.
         13    1    3    3    0    0  0.13322831555E+02 -0.43719620191E+02  0.76093797195E+02  0.88764746236E+02  0.10570000000E+00 0. -1.
<mgrwt>
<rscale>  0 0.91521754E+02</rscale>
<asrwt>0</asrwt>
<pdfrwt beam="1">  1        2 0.26685415E-01 0.91521754E+02</pdfrwt>
<pdfrwt beam="2">  1       -2 0.18573255E-02 0.91521754E+02</pdfrwt>
<totfact> 0.14551723E+05</totfact>
</mgrwt>
</event>
<event>
 5   1  0.1343823E+00  0.9013192E+02  0.7818608E-02  0.1302533E+00
         -2   -1    0    0    0  501 -0.00000000000E+00  0.00000000000E+00  0.12098758072E+02  0.12098758351E+02  0.26000000000E-02 0.  1.
          2   -1    0    0  501    0  0.00000000000E+00 -0.00000000000E+00 -0.16786357052E+03  0.16786357054E+03  0.26000000000E-02 0. -1.
         23    2    1    2    0    0  0.00000000000E+00  0.00000000000E+00 -0.15576481244E+03  0.17996232889E+03  0.90131920109E+02 0.  0.
        -13    1    3    3    0    0  0.32503011589E+02 -0.11311111604E+02 -0.13597588503E+03  0.14026346456E+03  0.10570000000E+00 0. -1.
         13    1    3    3    0    0 -0.32503011589E+02  0.11311111604E+02 -0.19788927412E+02  0.39698864325E+02  0.10570000000E+00 0.  1.
<mgrwt>
<rscale>  0 0.90131920E+02</rscale>
<asrwt>0</asrwt>
<pdfrwt beam="2">  1        2 0.25825163E-01 0.90131920E+02</pdfrwt>
<pdfrwt beam="1">  1       -2 0.18613475E-02 0.90131920E+02</pdfrwt>
<totfact> 0.14993172E+05</totfact>
</mgrwt>
</event>
<event>
 5   1  0.1343823E+00  0.9051646E+02  0.7818608E-02  0.1301606E+00
         -2   -1    0    0    0  501 -0.00000000000E+00  0.00000000000E+00  0.26016978327E+02  0.26016978457E+02  0.26000000000E-02 0.  1.
          2   -1    0    0  501    0  0.00000000000E+00 -0.00000000000E+00 -0.78729644992E+02  0.78729645035E+02  0.26000000000E-02 0. -1.
         23    2    1    2    0    0  0.00000000000E+00  0.00000000000E+00 -0.52712666665E+02  0.10474662349E+03  0.90516462071E+02 0.  0.
        -13    1    3    3    0    0  0.39344724449E+02 -0.19914961006E+02 -0.38139630938E+02  0.58303135717E+02  0.10570000000E+00 0. -1.
         13    1    3    3    0    0 -0.39344724449E+02  0.19914961006E+02 -0.14573035727E+02  0.46443487774E+02  0.10570000000E+00 0.  1.
<mgrwt>
<rscale>  0 0.90516462E+02</rscale>
<asrwt>0</asrwt>
<pdfrwt beam="2">  1        2 0.12112253E-01 0.90516462E+02</pdfrwt>
<pdfrwt beam="1">  1       -2 0.40026121E-02 0.90516462E+02</pdfrwt>
<totfact> 0.11666450E+05</totfact>
</mgrwt>
</event>
<event>
 5   1  0.1343823E+00  0.9181373E+02  0.7818608E-02  0.1298518E+00
         -2   -1    0    0    0  501 -0.00000000000E+00  0.00000000000E+00  0.20212722440E+02  0.20212722607E+02  0.26000000000E-02 0.  1.
          2   -1    0    0  501    0  0.00000000000E+00 -0.00000000000E+00 -0.10426306495E+03  0.10426306498E+03  0.26000000000E-02 0. -1.
         23    2    1    2    0    0  0.00000000000E+00  0.00000000000E+00 -0.84050342510E+02  0.12447578759E+03  0.91813733286E+02 0.  0.
        -13    1    3    3    0    0  0.17227760208E+02 -0.41532165950E+02 -0.54576792614E+02  0.70713181196E+02  0.10570000000E+00 0. -1.
         13    1    3    3    0    0 -0.17227760208E+02  0.41532165950E+02 -0.29473549896E+02  0.53762606394E+02  0.10570000000E+00 0.  1.
<mgrwt>
<rscale>  0 0.91813733E+02</rscale>
<asrwt>0</asrwt>
<pdfrwt beam="2">  1        2 0.16040471E-01 0.91813733E+02</pdfrwt>
<pdfrwt beam="1">  1       -2 0.31096497E-02 0.91813733E+02</pdfrwt>
<totfact> 0.12189688E+05</totfact>
</mgrwt>
</event>
<event>
 5   1  0.1343823E+00  0.8919440E+02  0.7818608E-02  0.1304814E+00
         -2   -1    0    0    0  501 -0.00000000000E+00  0.00000000000E+00  0.21414352128E+02  0.21414352286E+02  0.26000000000E-02 0.  1.
          2   -1    0    0  501    0  0.00000000000E+00 -0.00000000000E+00 -0.92877448421E+02  0.92877448457E+02  0.26000000000E-02 0. -1.
         23    2    1    2    0    0  0.00000000000E+00  0.00000000000E+00 -0.71463096293E+02  0.11429180074E+03  0.89194403330E+02 0.  0.
        -13    1    3    3    0    0 -0.21279224597E+01  0.43087446776E+02 -0.21243291932E+02  0.48086845897E+02  0.10570000000E+00 0.  1.
         13    1    3    3    0    0  0.21279224597E+01 -0.43087446776E+02 -0.50219804361E+02  0.66204954846E+02  0.10570000000E+00 0. -1.
<mgrwt>
<rscale>  0 0.89194403E+02</rscale>
<asrwt>0</asrwt>
<pdfrwt beam="2">  1        2 0.14288838E-01 0.89194403E+02</pdfrwt>
<pdfrwt beam="1">  1       -2 0.32945158E-02 0.89194403E+02</pdfrwt>
<totfact> 0.12746353E+05</totfact>
</mgrwt>
</event>
<event>
 5   1  0.1343823E+00  0.9090300E+02  0.7818608E-02  0.1300680E+00
         -2   -1    0    0    0  501 -0.00000000000E+00  0.00000000000E+00  0.66098190245E+02  0.66098190296E+02  0.26000000000E-02 0. -1.
          2   -1    0    0  501    0  0.00000000000E+00 -0.00000000000E+00 -0.31254088134E+02  0.31254088242E+02  0.26000000000E-02 0.  1.
         23    2    1    2    0    0  0.00000000000E+00  0.00000000000E+00  0.34844102111E+02  0.97352278538E+02  0.90902996015E+02 0.  0.
        -13    1    3    3    0    0 -0.19233257189E+02  0.41078858214E+02  0.20532727595E+02  0.49789505413E+02  0.10570000000E+00 0. -1.
         13    1    3    3    0    0  0.19233257189E+02 -0.41078858214E+02  0.14311374516E+02  0.47562773125E+02  0.10570000000E+00 0.  1.
<mgrwt>
<rscale>  0 0.90902996E+02</rscale>
<asrwt>0</asrwt>
<pdfrwt beam="2">  1        2 0.48083213E-02 0.90902996E+02</pdfrwt>
<pdfrwt beam="1">  1       -2 0.10168952E-01 0.90902996E+02</pdfrwt>
<totfact> 0.90233843E+04</totfact>
</mgrwt>
</event>
<event>
 5   1  0.1343823E+00  0.9023383E+02  0.7818608E-02  0.1302286E+00
         -2   -1    0    0    0  501 -0.00000000000E+00  0.00000000000E+00  0.89021296056E+01  0.89021299853E+01  0.26000000000E-02 0.  1.
          2   -1    0    0  501    0  0.00000000000E+00 -0.00000000000E+00 -0.22865720616E+03  0.22865720618E+03  0.26000000000E-02 0. -1.
         23    2    1    2    0    0  0.00000000000E+00  0.00000000000E+00 -0.21975507656E+03  0.23755933616E+03  0.90233832488E+02 0.  0.
        -13    1    3    3    0    0  0.31613421873E+01 -0.40465999821E+02 -0.16173812674E+03  0.16675348284E+03  0.10570000000E+00 0.  1.
         13    1    3    3    0    0 -0.31613421873E+01  0.40465999821E+02 -0.58016949817E+02  0.70805853321E+02  0.10570000000E+00 0. -1.
<mgrwt>
<rscale>  0 0.90233832E+02</rscale>
<asrwt>0</asrwt>
<pdfrwt beam="2">  1        2 0.35178027E-01 0.90233832E+02</pdfrwt>
<pdfrwt beam="1">  1       -2 0.13695586E-02 0.90233832E+02</pdfrwt>
<totfact> 0.16701444E+05</totfact>
</mgrwt>
</event>
<event>
 5   1  0.1343823E+00  0.8312354E+02  0.7818608E-02  0.1320414E+00
          2   -1    0    0  501    0  0.00000000000E+00  0.00000000000E+00  0.40421016097E+03  0.40421016097E+03  0.26000000000E-02 0. -1.
         -2   -1    0    0    0  501 -0.00000000000E+00 -0.00000000000E+00 -0.42734714779E+01  0.42734722688E+01  0.26000000000E-02 0.  1.
         23    2    1    2    0    0  0.00000000000E+00  0.00000000000E+00  0.39993668949E+03  0.40848363324E+03  0.83123540762E+02 0.  0.
        -13    1    3    3    0    0  0.29221329980E+02  0.29332507606E+02  0.21774615434E+03  0.22164765063E+03  0.10570000000E+00 0. -1.
         13    1    3    3    0    0 -0.29221329980E+02 -0.29332507606E+02  0.18219053515E+03  0.18683598262E+03  0.10570000000E+00 0.  1.
<mgrwt>
<rscale>  0 0.83123541E+02</rscale>
<asrwt>0</asrwt>
<pdfrwt beam="1">  1        2 0.62186201E-01 0.83123541E+02</pdfrwt>
<pdfrwt beam="2">  1       -2 0.65745698E-03 0.83123541E+02</pdfrwt>
<totfact> 0.25579048E+05</totfact>
</mgrwt>
</event>
<event>
 5   1  0.1343823E+00  0.9402898E+02  0.7818608E-02  0.1293378E+00
         -2   -1    0    0    0  501 -0.00000000000E+00  0.00000000000E+00  0.31334971899E+03  0.31334971900E+03  0.26000000000E-02 0.  1.
          2   -1    0    0  501    0  0.00000000000E+00 -0.00000000000E+00 -0.70539792307E+01  0.70539797098E+01  0.26000000000E-02 0. -1.
         23    2    1    2    0    0  0.00000000000E+00  0.00000000000E+00  0.30629573976E+03  0.32040369871E+03  0.94028984642E+02 0.  0.
        -13    1    3    3    0    0  0.45376717955E+02  0.11438687837E+02  0.13773436636E+03  0.14546703050E+03  0.10570000000E+00 0. -1.
         13    1    3    3    0    0 -0.45376717955E+02 -0.11438687837E+02  0.16856137340E+03  0.17493666821E+03  0.10570000000E+00 0.  1.
<mgrwt>
<rscale>  0 0.94028985E+02</rscale>
<asrwt>0</asrwt>
<pdfrwt beam="2">  1        2 0.10852280E-02 0.94028985E+02</pdfrwt>
<pdfrwt beam="1">  1       -2 0.48207631E-01 0.94028985E+02</pdfrwt>
<totfact> 0.45948998E+04</totfact>
</mgrwt>
</event>
<event>
 5   1  0.1343823E+00  0.8356956E+02  0.7818608E-02  0.1319216E+00
          2   -1    0    0  501    0  0.00000000000E+00  0.00000000000E+00  0.22448070109E+02  0.22448070260E+02  0.26000000000E-02 0. -1.
         -2   -1    0    0    0  501 -0.00000000000E+00 -0.00000000000E+00 -0.77778080379E+02  0.77778080423E+02  0.26000000000E-02 0.  1.
         23    2    1    2    0    0  0.00000000000E+00  0.00000000000E+00 -0.55330010270E+02  0.10022615068E+03  0.83569559316E+02 0.  0.
        -13    1    3    3    0    0  0.38231223565E+02  0.92361605532E+01 -0.44584412315E+02  0.59453461724E+02  0.10570000000E+00 0.  1.
         13    1    3    3    0    0 -0.38231223565E+02 -0.92361605532E+01 -0.10745597955E+02  0.40772688959E+02  0.10570000000E+00 0. -1.
<mgrwt>
<rscale>  0 0.83569559E+02</rscale>
<asrwt>0</asrwt>
<pdfrwt beam="1">  1        2 0.34535493E-02 0.83569559E+02</pdfrwt>
<pdfrwt beam="2">  1       -2 0.11965858E-01 0.83569559E+02</pdfrwt>
<totfact> 0.10618603E+05</totfact>
</mgrwt>
</event>
<event>
 5   1  0.1343823E+00  0.8997374E+02  0.7818608E-02  0.1302915E+00
          2   -1    0    0  501    0  0.00000000000E+00  0.00000000000E+00  0.19728579885E+02  0.19728580057E+02  0.26000000000E-02 0. -1.
         -2   -1    0    0    0  501 -0.00000000000E+00 -0.00000000000E+00 -0.10258307332E+03  0.10258307336E+03  0.26000000000E-02 0.  1.
         23    2    1    2    0    0  0.00000000000E+00  0.00000000000E+00 -0.82854493439E+02  0.12231165341E+03  0.89973737711E+02 0.  0.
        -13    1    3    3    0    0 -0.21079899775E+02 -0.38813827797E+02 -0.29817826712E+02  0.53291550597E+02  0.10570000000E+00 0.  1.
         13    1    3    3    0    0  0.21079899775E+02  0.38813827797E+02 -0.53036666727E+02  0.69020102816E+02  0.10570000000E+00 0. -1.
<mgrwt>
<rscale>  0 0.89973738E+02</rscale>
<asrwt>0</asrwt>
<pdfrwt beam="1">  1        2 0.30351662E-02 0.89973738E+02</pdfrwt>
<pdfrwt beam="2">  1       -2 0.15782011E-01 0.89973738E+02</pdfrwt>
<totfact> 0.81861281E+04</totfact>
</mgrwt>
</event>
<event>
 5   1  0.1343823E+00  0.9033819E+02  0.7818608E-02  0.1302035E+00
         -2   -1    0    0    0  501 -0.00000000000E+00  0.00000000000E+00  0.10518591422E+03  0.10518591425E+03  0.26000000000E-02 0.  1.
          2   -1    0    0  501    0  0.00000000000E+00 -0.00000000000E+00 -0.19396579818E+02  0.19396579993E+02  0.26000000000E-02 0. -1.
         23    2    1    2    0    0  0.00000000000E+00  0.00000000000E+00  0.85789334397E+02  0.12458249424E+03  0.90338186692E+02 0.  0.
        -13    1    3    3    0    0  0.32670195390E+02  0.16828342499E+02  0.66773652415E+01  0.37351481325E+02  0.10570000000E+00 0. -1.
         13    1    3    3    0    0 -0.32670195390E+02 -0.16828342499E+02  0.79111969155E+02  0.87231012915E+02  0.10570000000E+00 0.  1.
<mgrwt>
<rscale>  0 0.90338187E+02</rscale>
<asrwt>0</asrwt>
<pdfrwt beam="2">  1        2 0.29840892E-02 0.90338187E+02</pdfrwt>
<pdfrwt beam="1">  1       -2 0.16182448E-01 0.90338187E+02</pdfrwt>
<totfact> 0.80430968E+04</totfact>
</mgrwt>
</event>
<event>
 5   1  0.1343823E+00  0.9389849E+02  0.7818608E-02  0.1293676E+00
         -2   -1    0    0    0  501 -0.00000000000E+00  0.00000000000E+00  0.28198584201E+02  0.28198584321E+02  0.26000000000E-02 0.  1.
          2   -1    0    0  501    0  0.00000000000E+00 -0.00000000000E+00 -0.78168171380E+02  0.78168171423E+02  0.26000000000E-02 0. -1.
         23    2    1    2    0    0  0.00000000000E+00  0.00000000000E+00 -0.49969587179E+02  0.10636675574E+03  0.93898493516E+02 0.  0.
        -13    1    3    3    0    0 -0.45724502138E+02 -0.10630432375E+02 -0.24196380110E+02  0.52812992446E+02  0.10570000000E+00 0. -1.
         13    1    3    3    0    0  0.45724502138E+02  0.10630432375E+02 -0.25773207070E+02  0.53553763298E+02  0.10570000000E+00 0.  1.
<mgrwt>
<rscale>  0 0.93898494E+02</rscale>
<asrwt>0</asrwt>
<pdfrwt beam="2">  1        2 0.12025872E-01 0.93898494E+02</pdfrwt>
<pdfrwt beam="1">  1       -2 0.43382438E-02 0.93898494E+02</pdfrwt>
<totfact> 0.10510520E+05</totfact>
</mgrwt>
</event>
<event>
 5   1  0.1343823E+00  0.9114557E+02  0.7818608E-02  0.1300101E+00
          2   -1    0    0  501    0  0.00000000000E+00  0.00000000000E+00  0.91736701455E+02  0.91736701492E+02  0.26000000000E-02 0. -1.
         -2   -1    0    0    0  501 -0.00000000000E+00 -0.00000000000E+00 -0.22639560430E+02  0.22639560579E+02  0.26000000000E-02 0.  1.
         23    2    1    2    0    0  0.00000000000E+00  0.00000000000E+00  0.69097141025E+02  0.11437626207E+03  0.91145567240E+02 0.  0.
        -13    1    3    3    0    0  0.41589321967E+02  0.17456293476E+02  0.26370334641E+02  0.52247484199E+02  0.10570000000E+00 0.  1.
         13    1    3    3    0    0 -0.41589321967E+02 -0.17456293476E+02  0.42726806384E+02  0.62128777871E+02  0.10570000000E+00 0. -1.
<mgrwt>
<rscale>  0 0.91145567E+02</rscale>
<asrwt>0</asrwt>
<pdfrwt beam="1">  1        2 0.14113339E-01 0.91145567E+02</pdfrwt>
<pdfrwt beam="2">  1       -2 0.34830092E-02 0.91145567E+02</pdfrwt>
<totfact> 0.11964724E+05</totfact>
</mgrwt>
</event>
<event>
 5   1  0.1343823E+00  0.9097676E+02  0.7818608E-02  0.1300503E+00
         -2   -1    0    0    0  501 -0.00000000000E+00  0.00000000000E+00  0.20726856665E+03  0.20726856667E+03  0.26000000000E-02 0.  1.
          2   -1    0    0  501    0  0.00000000000E+00 -0.00000000000E+00 -0.99831484814E+01  0.99831488200E+01  0.26000000000E-02 0. -1.
         23    2    1    2    0    0  0.00000000000E+00  0.00000000000E+00  0.19728541817E+03  0.21725171549E+03  0.90976764395E+02 0.  0.
        -13    1    3    3    0    0  0.34646773901E+02  0.78193038590E+01  0.30778313774E+02  0.46998470463E+02  0.10570000000E+00 0. -1.
         13    1    3    3    0    0 -0.34646773901E+02 -0.78193038590E+01  0.16650710440E+03  0.17025324502E+03  0.10570000000E+00 0.  1.
<mgrwt>
<rscale>  0 0.90976764E+02</rscale>
<asrwt>0</asrwt>
<pdfrwt beam="2">  1        2 0.15358691E-02 0.90976764E+02</pdfrwt>
<pdfrwt beam="1">  1       -2 0.31887470E-01 0.90976764E+02</pdfrwt>
<totfact> 0.61698344E+04</totfact>
</mgrwt>
</event>
<event>
 5   1  0.1343823E+00  0.9039580E+02  0.7818608E-02  0.1301896E+00
          2   -1    0    0  501    0  0.00000000000E+00  0.00000000000E+00  0.20094637765E+03  0.20094637767E+03  0.26000000000E-02 0. -1.
         -2   -1    0    0    0  501 -0.00000000000E+00 -0.00000000000E+00 -0.10166144941E+02  0.10166145273E+02  0.26000000000E-02 0.  1.
         23    2    1    2    0    0  0.00000000000E+00  0.00000000000E+00  0.19078023271E+03  0.21111252294E+03  0.90395797189E+02 0.  0.
        -13    1    3    3    0    0 -0.18163788176E+02  0.24191238297E+02  0.16963680198E+02  0.34683091407E+02  0.10570000000E+00 0.  1.
         13    1    3    3    0    0  0.18163788176E+02 -0.24191238297E+02  0.17381655251E+03  0.17642943153E+03  0.10570000000E+00 0. -1.
<mgrwt>
<rscale>  0 0.90395797E+02</rscale>
<asrwt>0</asrwt>
<pdfrwt beam="1">  1        2 0.30914824E-01 0.90395797E+02</pdfrwt>
<pdfrwt beam="2">  1       -2 0.15640225E-02 0.90395797E+02</pdfrwt>
<totfact> 0.15857064E+05</totfact>
</mgrwt>
</event>
<event>
 5   1  0.1343823E+00  0.9548479E+02  0.7818608E-02  0.1290088E+00
         -2   -1    0    0    0  501 -0.00000000000E+00  0.00000000000E+00  0.43736894649E+03  0.43736894650E+03  0.26000000000E-02 0.  1.
          2   -1    0    0  501    0  0.00000000000E+00 -0.00000000000E+00 -0.52114726538E+01  0.52114733024E+01  0.26000000000E-02 0. -1.
         23    2    1    2    0    0  0.00000000000E+00  0.00000000000E+00  0.43215747384E+03  0.44258041980E+03  0.95484793543E+02 0.  0.
        -13    1    3    3    0    0 -0.42670597735E+01  0.47537717151E+02  0.22132873050E+03  0.22641656403E+03  0.10570000000E+00 0.  1.
         13    1    3    3    0    0  0.42670597735E+01 -0.47537717151E+02  0.21082874334E+03  0.21616385577E+03  0.10570000000E+00 0. -1.
<mgrwt>
<rscale>  0 0.95484794E+02</rscale>
<asrwt>0</asrwt>
<pdfrwt beam="2">  1        2 0.80176517E-03 0.95484794E+02</pdfrwt>
<pdfrwt beam="1">  1       -2 0.67287522E-01 0.95484794E+02</pdfrwt>
<totfact> 0.35594473E+04</totfact>
</mgrwt>
</event>
<event>
 5   1  0.1343823E+00  0.9517697E+02  0.7818608E-02  0.1290778E+00
          2   -1    0    0  501    0  0.00000000000E+00  0.00000000000E+00  0.73446492937E+02  0.73446492983E+02  0.26000000000E-02 0. -1.
         -2   -1    0    0    0  501 -0.00000000000E+00 -0.00000000000E+00 -0.30834199853E+02  0.30834199963E+02  0.26000000000E-02 0.  1.
         23    2    1    2    0    0  0.00000000000E+00  0.00000000000E+00  0.42612293083E+02  0.10428069295E+03  0.95176968850E+02 0.  0.
        -13    1    3    3    0    0  0.20393457369E+02 -0.28288473287E+02 -0.14171988469E+02  0.37642891149E+02  0.10570000000E+00 0.  1.
         13    1    3    3    0    0 -0.20393457369E+02  0.28288473287E+02  0.56784281552E+02  0.66637801797E+02  0.10570000000E+00 0. -1.
<mgrwt>
<rscale>  0 0.95176969E+02</rscale>
<asrwt>0</asrwt>
<pdfrwt beam="1">  1        2 0.11299460E-01 0.95176969E+02</pdfrwt>
<pdfrwt beam="2">  1       -2 0.47437231E-02 0.95176969E+02</pdfrwt>
<totfact> 0.99396493E+04</totfact>
</mgrwt>
</event>
<event>
 5   1  0.1343823E+00  0.9001359E+02  0.7818608E-02  0.1302819E+00
         -2   -1    0    0    0  501 -0.00000000000E+00  0.00000000000E+00  0.39241129803E+02  0.39241129889E+02  0.26000000000E-02 0.  1.
          2   -1    0    0  501    0  0.00000000000E+00 -0.00000000000E+00 -0.51619605976E+02  0.51619606042E+02  0.26000000000E-02 0. -1.
         23    2    1    2    0    0  0.00000000000E+00  0.00000000000E+00 -0.12378476173E+02  0.90860735931E+02  0.90013591538E+02 0.  0.
        -13    1    3    3    0    0 -0.35641004171E+02 -0.22246724655E+02  0.10099625328E+02  0.43211243218E+02  0.10570000000E+00 0.  1.
         13    1    3    3    0    0  0.35641004171E+02  0.22246724655E+02 -0.22478101501E+02  0.47649492713E+02  0.10570000000E+00 0. -1.
<mgrwt>
<rscale>  0 0.90013592E+02</rscale>
<asrwt>0</asrwt>
<pdfrwt beam="2">  1        2 0.79414779E-02 0.90013592E+02</pdfrwt>
<pdfrwt beam="1">  1       -2 0.60370969E-02 0.90013592E+02</pdfrwt>
<totfact> 0.10571077E+05</totfact>
</mgrwt>
</event>
<event>
 5   1  0.1343823E+00  0.8938456E+02  0.7818608E-02  0.1304349E+00
         -2   -1    0    0    0  501 -0.00000000000E+00  0.00000000000E+00  0.34182165281E+02  0.34182165380E+02  0.26000000000E-02 0.  1.
          2   -1    0    0  501    0  0.00000000000E+00 -0.00000000000E+00 -0.58433976994E+02  0.58433977052E+02  0.26000000000E-02 0. -1.
         23    2    1    2    0    0  0.00000000000E+00  0.00000000000E+00 -0.24251811713E+02  0.92616142432E+02  0.89384559448E+02 0.  0.
        -13    1    3    3    0    0  0.52633958980E+01  0.36780554328E+02 -0.37860847339E+02  0.53046842006E+02  0.10570000000E+00 0. -1.
         13    1    3    3    0    0 -0.52633958980E+01 -0.36780554328E+02  0.13609035626E+02  0.39569300426E+02  0.10570000000E+00 0.  1.
<mgrwt>
<rscale>  0 0.89384559E+02</rscale>
<asrwt>0</asrwt>
<pdfrwt beam="2">  1        2 0.89898426E-02 0.89384559E+02</pdfrwt>
<pdfrwt beam="1">  1       -2 0.52587947E-02 0.89384559E+02</pdfrwt>
<totfact> 0.11138023E+05</totfact>
</mgrwt>
</event>
<event>
 5   1  0.1343823E+00  0.8868828E+02  0.7818608E-02  0.1306060E+00
          2   -1    0    0  501    0  0.00000000000E+00  0.00000000000E+00  0.13962617802E+02  0.13962618044E+02  0.26000000000E-02 0.  1.
         -2   -1    0    0    0  501 -0.00000000000E+00 -0.00000000000E+00 -0.14083337411E+03  0.14083337413E+03  0.26000000000E-02 0. -1.
         23    2    1    2    0    0  0.00000000000E+00  0.00000000000E+00 -0.12687075630E+03  0.15479599217E+03  0.88688276497E+02 0.  0.
        -13    1    3    3    0    0  0.27905676897E+02 -0.33992030400E+02 -0.53530133662E+02  0.69279660191E+02  0.10570000000E+00 0.  1.
         13    1    3    3    0    0 -0.27905676897E+02  0.33992030400E+02 -0.73340622642E+02  0.85516331983E+02  0.10570000000E+00 0. -1.
<mgrwt>
<rscale>  0 0.88688276E+02</rscale>
<asrwt>0</asrwt>
<pdfrwt beam="1">  1        2 0.21480952E-02 0.88688276E+02</pdfrwt>
<pdfrwt beam="2">  1       -2 0.21666672E-01 0.88688276E+02</pdfrwt>
<totfact> 0.76618678E+04</totfact>
</mgrwt>
</event>
<event>
 5   1  0.1343823E+00  0.8872447E+02  0.7818608E-02  0.1305970E+00
          2   -1    0    0  501    0  0.00000000000E+00  0.00000000000E+00  0.79486291271E+01  0.79486295523E+01  0.26000000000E-02 0. -1.
         -2   -1    0    0    0  501 -0.00000000000E+00 -0.00000000000E+00 -0.24759084737E+03  0.24759084738E+03  0.26000000000E-02 0.  1.
         23    2    1    2    0    0  0.00000000000E+00  0.00000000000E+00 -0.23964221824E+03  0.25553947694E+03  0.88724469614E+02 0.  0.
        -13    1    3    3    0    0 -0.40403664894E+02 -0.11696612148E+02 -0.16042298716E+03  0.16584575019E+03  0.10570000000E+00 0.  1.
         13    1    3    3    0    0  0.40403664894E+02  0.11696612148E+02 -0.79219231080E+02  0.89693726748E+02  0.10570000000E+00 0. -1.
<mgrwt>
<rscale>  0 0.88724470E+02</rscale>
<asrwt>0</asrwt>
<pdfrwt beam="1">  1        2 0.12228662E-02 0.88724470E+02</pdfrwt>
<pdfrwt beam="2">  1       -2 0.38090894E-01 0.88724470E+02</pdfrwt>
<totfact> 0.60533823E+04</totfact>
</mgrwt>
</event>
<event>
 5   1  0.1343823E+00  0.9547944E+02  0.7818608E-02  0.1290100E+00
          2   -1    0    0  501    0  0.00000000000E+00  0.00000000000E+00  0.15105057400E+03  0.15105057402E+03  0.26000000000E-02 0. -1.
         -2   -1    0    0    0  501 -0.00000000000E+00 -0.00000000000E+00 -0.15088197408E+02  0.15088197632E+02  0.26000000000E-02 0.  1.
         23    2    1    2    0    0  0.00000000000E+00  0.00000000000E+00  0.13596237659E+03  0.16613877165E+03  0.95479440708E+02 0.  0.
        -13    1    3    3    0    0  0.37253803490E+02 -0.29557515967E+02  0.75276347422E+02  0.89039498417E+02  0.10570000000E+00 0.  1.
         13    1    3    3    0    0 -0.37253803490E+02  0.29557515967E+02  0.60686029169E+02  0.77099273235E+02  0.10570000000E+00 0. -1.
<mgrwt>
<rscale>  0 0.95479441E+02</rscale>
<asrwt>0</asrwt>
<pdfrwt beam="1">  1        2 0.23238550E-01 0.95479441E+02</pdfrwt>
<pdfrwt beam="2">  1       -2 0.23212612E-02 0.95479441E+02</pdfrwt>
<totfact> 0.12360184E+05</totfact>
</mgrwt>
</event>
<event>
 5   1  0.1343823E+00  0.8862070E+02  0.7818608E-02  0.1306227E+00
         -2   -1    0    0    0  501 -0.00000000000E+00  0.00000000000E+00  0.14367954613E+02  0.14367954848E+02  0.26000000000E-02 0.  1.
          2   -1    0    0  501    0  0.00000000000E+00 -0.00000000000E+00 -0.13665180440E+03  0.13665180442E+03  0.26000000000E-02 0. -1.
         23    2    1    2    0    0  0.00000000000E+00  0.00000000000E+00 -0.12228384979E+03  0.15101975927E+03  0.88620696071E+02 0.  0.
        -13    1    3    3    0    0  0.16813344581E+02 -0.29462770780E+02 -0.10972119834E+03  0.11484553085E+03  0.10570000000E+00 0. -1.
         13    1    3    3    0    0 -0.16813344581E+02  0.29462770780E+02 -0.12562651441E+02  0.36174228420E+02  0.10570000000E+00 0.  1.
<mgrwt>
<rscale>  0 0.88620696E+02</rscale>
<asrwt>0</asrwt>
<pdfrwt beam="2">  1        2 0.21023354E-01 0.88620696E+02</pdfrwt>
<pdfrwt beam="1">  1       -2 0.22104547E-02 0.88620696E+02</pdfrwt>
<totfact> 0.14637015E+05</totfact>
</mgrwt>
</event>
<event>
 5   1  0.1343823E+00  0.9124810E+02  0.7818608E-02  0.1299857E+00
          2   -1    0    0  501    0  0.00000000000E+00  0.00000000000E+00  0.37767883719E+03  0.37767883720E+03  0.26000000000E-02 0. -1.
         -2   -1    0    0    0  501 -0.00000000000E+00 -0.00000000000E+00 -0.55114392643E+01  0.55114398776E+01  0.26000000000E-02 0.  1.
         23    2    1    2    0    0  0.00000000000E+00  0.00000000000E+00  0.37216739792E+03  0.38319027707E+03  0.91248103362E+02 0.  0.
        -13    1    3    3    0    0 -0.53515040053E+01  0.42627925975E+02  0.12160301853E+03  0.12896931401E+03  0.10570000000E+00 0.  1.
         13    1    3    3    0    0  0.53515040053E+01 -0.42627925975E+02  0.25056437939E+03  0.25422096307E+03  0.10570000000E+00 0. -1.
<mgrwt>
<rscale>  0 0.91248103E+02</rscale>
<asrwt>0</asrwt>
<pdfrwt beam="1">  1        2 0.58104419E-01 0.91248103E+02</pdfrwt>
<pdfrwt beam="2">  1       -2 0.84791403E-03 0.91248103E+02</pdfrwt>
<totfact> 0.19513214E+05</totfact>
</mgrwt>
</event>
<event>
 5   1  0.1343823E+00  0.9100292E+02  0.7818608E-02  0.1300441E+00
         -2   -1    0    0    0  501 -0.00000000000E+00  0.00000000000E+00  0.20683858103E+03  0.20683858105E+03  0.26000000000E-02 0.  1.
          2   -1    0    0  501    0  0.00000000000E+00 -0.00000000000E+00 -0.10009654273E+02  0.10009654611E+02  0.26000000000E-02 0. -1.
         23    2    1    2    0    0  0.00000000000E+00  0.00000000000E+00  0.19682892676E+03  0.21684823566E+03  0.91002916984E+02 0.  0.
        -13    1    3    3    0    0  0.18826522493E+02 -0.38405939175E+02  0.13540023629E+03  0.14199538469E+03  0.10570000000E+00 0.  1.
         13    1    3    3    0    0 -0.18826522493E+02  0.38405939175E+02  0.61428690462E+02  0.74852850964E+02  0.10570000000E+00 0. -1.
<mgrwt>
<rscale>  0 0.91002917E+02</rscale>
<asrwt>0</asrwt>
<pdfrwt beam="2">  1        2 0.15399469E-02 0.91002917E+02</pdfrwt>
<pdfrwt beam="1">  1       -2 0.31821320E-01 0.91002917E+02</pdfrwt>
<totfact> 0.61709737E+04</totfact>
</mgrwt>
</event>
<event>
 5   1  0.1343823E+00  0.9191935E+02  0.7818608E-02  0.1298269E+00
          2   -1    0    0  501    0  0.00000000000E+00  0.00000000000E+00  0.16167066866E+03  0.16167066868E+03  0.26000000000E-02 0. -1.
         -2   -1    0    0    0  501 -0.00000000000E+00 -0.00000000000E+00 -0.13065399269E+02  0.13065399528E+02  0.26000000000E-02 0.  1.
         23    2    1    2    0    0  0.00000000000E+00  0.00000000000E+00  0.14860526939E+03  0.17473606821E+03  0.91919352924E+02 0.  0.
        -13    1    3    3    0    0  0.44227327521E+02 -0.93223545139E+01  0.58475646341E+02  0.73907883076E+02  0.10570000000E+00 0.  1.
         13    1    3    3    0    0 -0.44227327521E+02  0.93223545139E+01  0.90129623047E+02  0.10082818513E+03  0.10570000000E+00 0. -1.
<mgrwt>
<rscale>  0 0.91919353E+02</rscale>
<asrwt>0</asrwt>
<pdfrwt beam="1">  1        2 0.24872409E-01 0.91919353E+02</pdfrwt>
<pdfrwt beam="2">  1       -2 0.20100615E-02 0.91919353E+02</pdfrwt>
<totfact> 0.14032993E+05</totfact>
</mgrwt>
</event>
<event>
 5   1  0.1343823E+00  0.9357327E+02  0.7818608E-02  0.1294422E+00
         -2   -1    0    0    0  501 -0.00000000000E+00  0.00000000000E+00  0.43682115542E+02  0.43682115619E+02  0.26000000000E-02 0.  1.
          2   -1    0    0  501    0  0.00000000000E+00 -0.00000000000E+00 -0.50111797850E+02  0.50111797918E+02  0.26000000000E-02 0. -1.
         23    2    1    2    0    0  0.00000000000E+00  0.00000000000E+00 -0.64296823085E+01  0.93793913537E+02  0.93573272904E+02 0.  0.
        -13    1    3    3    0    0  0.36942596329E+02  0.25285405857E+02  0.10413946919E+02  0.45962687430E+02  0.10570000000E+00 0.  1.
         13    1    3    3    0    0 -0.36942596329E+02 -0.25285405857E+02 -0.16843629227E+02  0.47831226107E+02  0.10570000000E+00 0. -1.
<mgrwt>
<rscale>  0 0.93573273E+02</rscale>
<asrwt>0</asrwt>
<pdfrwt beam="2">  1        2 0.77095074E-02 0.93573273E+02</pdfrwt>
<pdfrwt beam="1">  1       -2 0.67203255E-02 0.93573273E+02</pdfrwt>
<totfact> 0.93899270E+04</totfact>
</mgrwt>
</event>
<event>
 5   1  0.1343823E+00  0.9203253E+02  0.7818608E-02  0.1298003E+00
          2   -1    0    0  501    0  0.00000000000E+00  0.00000000000E+00  0.18390926744E+03  0.18390926746E+03  0.26000000000E-02 0. -1.
         -2   -1    0    0    0  501 -0.00000000000E+00 -0.00000000000E+00 -0.11513810764E+02  0.11513811057E+02  0.26000000000E-02 0.  1.
         23    2    1    2    0    0  0.00000000000E+00  0.00000000000E+00  0.17239545668E+03  0.19542307852E+03  0.92032527587E+02 0.  0.
        -13    1    3    3    0    0  0.37233734488E+02 -0.26686008147E+02  0.76944093095E+02  0.89548303443E+02  0.10570000000E+00 0.  1.
         13    1    3    3    0    0 -0.37233734488E+02  0.26686008147E+02  0.95451363581E+02  0.10587477507E+03  0.10570000000E+00 0. -1.
<mgrwt>
<rscale>  0 0.92032528E+02</rscale>
<asrwt>0</asrwt>
<pdfrwt beam="1">  1        2 0.28293731E-01 0.92032528E+02</pdfrwt>
<pdfrwt beam="2">  1       -2 0.17713557E-02 0.92032528E+02</pdfrwt>
<totfact> 0.14634890E+05</totfact>
</mgrwt>
</event>
<event>
 5   1  0.1343823E+00  0.8989505E+02  0.7818608E-02  0.1303106E+00
          2   -1    0    0  501    0  0.00000000000E+00  0.00000000000E+00  0.79924086845E+02  0.79924086887E+02  0.26000000000E-02 0. -1.
         -2   -1    0    0    0  501 -0.00000000000E+00 -0.00000000000E+00 -0.25277483399E+02  0.25277483533E+02  0.26000000000E-02 0.  1.
         23    2    1    2    0    0  0.00000000000E+00  0.00000000000E+00  0.54646603445E+02  0.10520157042E+03  0.89895045196E+02 0.  0.
        -13    1    3    3    0    0 -0.24435897670E+02 -0.34850714984E+02  0.44224835415E+02  0.61380230285E+02  0.10570000000E+00 0.  1.
         13    1    3    3    0    0  0.24435897670E+02  0.34850714984E+02  0.10421768030E+02  0.43821340135E+02  0.10570000000E+00 0. -1.
<mgrwt>
<rscale>  0 0.89895045E+02</rscale>
<asrwt>0</asrwt>
<pdfrwt beam="1">  1        2 0.12296013E-01 0.89895045E+02</pdfrwt>
<pdfrwt beam="2">  1       -2 0.38888436E-02 0.89895045E+02</pdfrwt>
<totfact> 0.11942420E+05</totfact>
</mgrwt>
</event>
<event>
 5   1  0.1343823E+00  0.9196734E+02  0.7818608E-02  0.1298156E+00
          2   -1    0    0  501    0  0.00000000000E+00  0.00000000000E+00  0.23762654893E+02  0.23762655035E+02  0.26000000000E-02 0. -1.
         -2   -1    0    0    0  501 -0.00000000000E+00 -0.00000000000E+00 -0.88984067798E+02  0.88984067836E+02  0.26000000000E-02 0.  1.
         23    2    1    2    0    0  0.00000000000E+00  0.00000000000E+00 -0.65221412906E+02  0.11274672287E+03  0.91967335597E+02 0.  0.
        -13    1    3    3    0    0  0.25393031281E+02  0.21096621540E+02  0.66312150798E+01  0.33672803031E+02  0.10570000000E+00 0. -1.
         13    1    3    3    0    0 -0.25393031281E+02 -0.21096621540E+02 -0.71852627985E+02  0.79073919840E+02  0.10570000000E+00 0.  1.
<mgrwt>
<rscale>  0 0.91967336E+02</rscale>
<asrwt>0</asrwt>
<pdfrwt beam="1">  1        2 0.36557931E-02 0.91967336E+02</pdfrwt>
<pdfrwt beam="2">  1       -2 0.13689856E-01 0.91967336E+02</pdfrwt>
<totfact> 0.80827147E+04</totfact>
</mgrwt>
</event>
<event>
 5   1  0.1343823E+00  0.8953804E+02  0.7818608E-02  0.1303974E+00
          2   -1    0    0  501    0  0.00000000000E+00  0.00000000000E+00  0.32919206758E+03  0.32919206759E+03  0.26000000000E-02 0. -1.
         -2   -1    0    0    0  501 -0.00000000000E+00 -0.00000000000E+00 -0.60884372391E+01  0.60884377942E+01  0.26000000000E-02 0.  1.
         23    2    1    2    0    0  0.00000000000E+00  0.00000000000E+00  0.32310363034E+03  0.33528050539E+03  0.89538044157E+02 0.  0.
        -13    1    3    3    0    0  0.30016001247E+02 -0.26388824050E+02  0.23708838243E+03  0.24043344738E+03  0.10570000000E+00 0. -1.
         13    1    3    3    0    0 -0.30016001247E+02  0.26388824050E+02  0.86015247914E+02  0.94847058003E+02  0.10570000000E+00 0.  1.
<mgrwt>
<rscale>  0 0.89538044E+02</rscale>
<asrwt>0</asrwt>
<pdfrwt beam="1">  1        2 0.50644934E-01 0.89538044E+02</pdfrwt>
<pdfrwt beam="2">  1       -2 0.93668269E-03 0.89538044E+02</pdfrwt>
<totfact> 0.19514790E+05</totfact>
</mgrwt>
</event>
<event>
 5   1  0.1343823E+00  0.8266046E+02  0.7818608E-02  0.1321667E+00
          2   -1    0    0  501    0  0.00000000000E+00  0.00000000000E+00  0.30106256461E+02  0.30106256574E+02  0.26000000000E-02 0. -1.
         -2   -1    0    0    0  501 -0.00000000000E+00 -0.00000000000E+00 -0.56738640248E+02  0.56738640308E+02  0.26000000000E-02 0.  1.
         23    2    1    2    0    0  0.00000000000E+00  0.00000000000E+00 -0.26632383787E+02  0.86844896881E+02  0.82660463634E+02 0.  0.
        -13    1    3    3    0    0 -0.23873080787E+02  0.94669804724E+01  0.20705619847E+02  0.32989112920E+02  0.10570000000E+00 0. -1.
         13    1    3    3    0    0  0.23873080787E+02 -0.94669804724E+01 -0.47338003634E+02  0.53855783961E+02  0.10570000000E+00 0.  1.
<mgrwt>
<rscale>  0 0.82660464E+02</rscale>
<asrwt>0</asrwt>
<pdfrwt beam="1">  1        2 0.46317318E-02 0.82660464E+02</pdfrwt>
<pdfrwt beam="2">  1       -2 0.87290216E-02 0.82660464E+02</pdfrwt>
<totfact> 0.11801844E+05</totfact>
</mgrwt>
</event>
<event>
 5   1  0.1343823E+00  0.7957082E+02  0.7818608E-02  0.1330274E+00
          2   -1    0    0  501    0  0.00000000000E+00  0.00000000000E+00  0.21984877165E+02  0.21984877319E+02  0.26000000000E-02 0. -1.
         -2   -1    0    0    0  501 -0.00000000000E+00 -0.00000000000E+00 -0.71998530501E+02  0.71998530548E+02  0.26000000000E-02 0.  1.
         23    2    1    2    0    0  0.00000000000E+00  0.00000000000E+00 -0.50013653336E+02  0.93983407867E+02  0.79570820243E+02 0.  0.
        -13    1    3    3    0    0 -0.90608759342E+01  0.74536196912E+01  0.19894905820E+02  0.23097064083E+02  0.10570000000E+00 0. -1.
         13    1    3    3    0    0  0.90608759342E+01 -0.74536196912E+01 -0.69908559156E+02  0.70886343783E+02  0.10570000000E+00 0.  1.
<mgrwt>
<rscale>  0 0.79570820E+02</rscale>
<asrwt>0</asrwt>
<pdfrwt beam="1">  1        2 0.33822888E-02 0.79570820E+02</pdfrwt>
<pdfrwt beam="2">  1       -2 0.11076697E-01 0.79570820E+02</pdfrwt>
<totfact> 0.12215669E+05</totfact>
</mgrwt>
</event>
<event>
 5   1  0.1343823E+00  0.8153825E+02  0.7818608E-02  0.1324742E+00
         -2   -1    0    0    0  501 -0.00000000000E+00  0.00000000000E+00  0.66117870845E+02  0.66117870896E+02  0.26000000000E-02 0.  1.
          2   -1    0    0  501    0  0.00000000000E+00 -0.00000000000E+00 -0.25138760982E+02  0.25138761116E+02  0.26000000000E-02 0. -1.
         23    2    1    2    0    0  0.00000000000E+00  0.00000000000E+00  0.40979109863E+02  0.91256632012E+02  0.81538245266E+02 0.  0.
        -13    1    3    3    0    0 -0.41534948059E+01 -0.31041375991E+02 -0.87230043609E+01  0.32510314057E+02  0.10570000000E+00 0. -1.
         13    1    3    3    0    0  0.41534948059E+01  0.31041375991E+02  0.49702114224E+02  0.58746317956E+02  0.10570000000E+00 0.  1.
<mgrwt>
<rscale>  0 0.81538245E+02</rscale>
<asrwt>0</asrwt>
<pdfrwt beam="2">  1        2 0.38675017E-02 0.81538245E+02</pdfrwt>
<pdfrwt beam="1">  1       -2 0.10171980E-01 0.81538245E+02</pdfrwt>
<totfact> 0.11752654E+05</totfact>
</mgrwt>
</event>
<event>
 5   1  0.1343823E+00  0.8864040E+02  0.7818608E-02  0.1306178E+00
          2   -1    0    0  501    0  0.00000000000E+00  0.00000000000E+00  0.85363203554E+02  0.85363203594E+02  0.26000000000E-02 0.  1.
         -2   -1    0    0    0  501 -0.00000000000E+00 -0.00000000000E+00 -0.23010850539E+02  0.23010850686E+02  0.26000000000E-02 0. -1.
         23    2    1    2    0    0  0.00000000000E+00  0.00000000000E+00  0.62352353016E+02  0.10837405428E+03  0.88640395500E+02 0.  0.
        -13    1    3    3    0    0 -0.21039895974E+02  0.31497477261E+02  0.59309873537E+02  0.70373578621E+02  0.10570000000E+00 0.  1.
         13    1    3    3    0    0  0.21039895974E+02 -0.31497477261E+02  0.30424794784E+01  0.38000475659E+02  0.10570000000E+00 0. -1.
<mgrwt>
<rscale>  0 0.88640396E+02</rscale>
<asrwt>0</asrwt>
<pdfrwt beam="1">  1        2 0.13132801E-01 0.88640396E+02</pdfrwt>
<pdfrwt beam="2">  1       -2 0.35401309E-02 0.88640396E+02</pdfrwt>
<totfact> 0.12651418E+05</totfact>
</mgrwt>
</event>
<event>
 5   1  0.1343823E+00  0.9036356E+02  0.7818608E-02  0.1301974E+00
          2   -1    0    0  501    0  0.00000000000E+00  0.00000000000E+00  0.38367502121E+02  0.38367502209E+02  0.26000000000E-02 0. -1.
         -2   -1    0    0    0  501 -0.00000000000E+00 -0.00000000000E+00 -0.53206312475E+02  0.53206312538E+02  0.26000000000E-02 0.  1.
         23    2    1    2    0    0  0.00000000000E+00  0.00000000000E+00 -0.14838810354E+02  0.91573814747E+02  0.90363561542E+02 0.  0.
        -13    1    3    3    0    0  0.41085822608E+02 -0.82895290910E+01  0.96772620669E+01  0.43016528050E+02  0.10570000000E+00 0. -1.
         13    1    3    3    0    0 -0.41085822608E+02  0.82895290910E+01 -0.24516072421E+02  0.48557286697E+02  0.10570000000E+00 0.  1.
<mgrwt>
<rscale>  0 0.90363562E+02</rscale>
<asrwt>0</asrwt>
<pdfrwt beam="1">  1        2 0.59026926E-02 0.90363562E+02</pdfrwt>
<pdfrwt beam="2">  1       -2 0.81855865E-02 0.90363562E+02</pdfrwt>
<totfact> 0.96849644E+04</totfact>
</mgrwt>
</event>
<event>
 5   1  0.1343823E+00  0.8932928E+02  0.7818608E-02  0.1304484E+00
         -2   -1    0    0    0  501 -0.00000000000E+00  0.00000000000E+00  0.64237321855E+02  0.64237321908E+02  0.26000000000E-02 0.  1.
          2   -1    0    0  501    0  0.00000000000E+00 -0.00000000000E+00 -0.31055622150E+02  0.31055622259E+02  0.26000000000E-02 0. -1.
         23    2    1    2    0    0  0.00000000000E+00  0.00000000000E+00  0.33181699705E+02  0.95292944166E+02  0.89329278585E+02 0.  0.
        -13    1    3    3    0    0 -0.19986204374E+02  0.26937705864E+02  0.48052697696E+02  0.58601717474E+02  0.10570000000E+00 0.  1.
         13    1    3    3    0    0  0.19986204374E+02 -0.26937705864E+02 -0.14870997991E+02  0.36691226693E+02  0.10570000000E+00 0. -1.
<mgrwt>
<rscale>  0 0.89329279E+02</rscale>
<asrwt>0</asrwt>
<pdfrwt beam="2">  1        2 0.47777881E-02 0.89329279E+02</pdfrwt>
<pdfrwt beam="1">  1       -2 0.98826648E-02 0.89329279E+02</pdfrwt>
<totfact> 0.94839838E+04</totfact>
</mgrwt>
</event>
<event>
 5   1  0.1343823E+00  0.9207434E+02  0.7818608E-02  0.1297905E+00
         -2   -1    0    0    0  501 -0.00000000000E+00  0.00000000000E+00  0.17989800766E+02  0.17989800954E+02  0.26000000000E-02 0.  1.
          2   -1    0    0  501    0  0.00000000000E+00 -0.00000000000E+00 -0.11781237859E+03  0.11781237862E+03  0.26000000000E-02 0. -1.
         23    2    1    2    0    0  0.00000000000E+00  0.00000000000E+00 -0.99822577826E+02  0.13580217957E+03  0.92074344599E+02 0.  0.
        -13    1    3    3    0    0 -0.41032602322E+02  0.20820696721E+02 -0.47706694523E+02  0.66280583432E+02  0.10570000000E+00 0. -1.
         13    1    3    3    0    0  0.41032602322E+02 -0.20820696721E+02 -0.52115883303E+02  0.69521596143E+02  0.10570000000E+00 0.  1.
<mgrwt>
<rscale>  0 0.92074345E+02</rscale>
<asrwt>0</asrwt>
<pdfrwt beam="2">  1        2 0.18124981E-01 0.92074345E+02</pdfrwt>
<pdfrwt beam="1">  1       -2 0.27676617E-02 0.92074345E+02</pdfrwt>
<totfact> 0.12568420E+05</totfact>
</mgrwt>
</event>
<event>
 5   1  0.1343823E+00  0.9388013E+02  0.7818608E-02  0.1293718E+00
          2   -1    0    0  501    0  0.00000000000E+00  0.00000000000E+00  0.11305103068E+03  0.11305103071E+03  0.26000000000E-02 0. -1.
         -2   -1    0    0    0  501 -0.00000000000E+00 -0.00000000000E+00 -0.19490043774E+02  0.19490043947E+02  0.26000000000E-02 0.  1.
         23    2    1    2    0    0  0.00000000000E+00  0.00000000000E+00  0.93560986903E+02  0.13254107465E+03  0.93880126759E+02 0.  0.
        -13    1    3    3    0    0  0.23393821647E+02 -0.40326782558E+02  0.39068576125E+02  0.60826680788E+02  0.10570000000E+00 0.  1.
         13    1    3    3    0    0 -0.23393821647E+02  0.40326782558E+02  0.54492410778E+02  0.71714393867E+02  0.10570000000E+00 0. -1.
<mgrwt>
<rscale>  0 0.93880127E+02</rscale>
<asrwt>0</asrwt>
<pdfrwt beam="1">  1        2 0.17392466E-01 0.93880127E+02</pdfrwt>
<pdfrwt beam="2">  1       -2 0.29984683E-02 0.93880127E+02</pdfrwt>
<totfact> 0.11759601E+05</totfact>
</mgrwt>
</event>
<event>
 5   1  0.1343823E+00  0.9095792E+02  0.7818608E-02  0.1300548E+00
         -2   -1    0    0    0  501 -0.00000000000E+00  0.00000000000E+00  0.95019684792E+02  0.95019684827E+02  0.26000000000E-02 0.  1.
          2   -1    0    0  501    0  0.00000000000E+00 -0.00000000000E+00 -0.21767444235E+02  0.21767444391E+02  0.26000000000E-02 0. -1.
         23    2    1    2    0    0  0.00000000000E+00  0.00000000000E+00  0.73252240557E+02  0.11678712922E+03  0.90957917767E+02 0.  0.
        -13    1    3    3    0    0  0.13559394627E+02  0.16541847730E+02 -0.14906230057E+02  0.26070994917E+02  0.10570000000E+00 0. -1.
         13    1    3    3    0    0 -0.13559394627E+02 -0.16541847730E+02  0.88158470614E+02  0.90716134301E+02  0.10570000000E+00 0.  1.
<mgrwt>
<rscale>  0 0.90957918E+02</rscale>
<asrwt>0</asrwt>
<pdfrwt beam="2">  1        2 0.33488376E-02 0.90957918E+02</pdfrwt>
<pdfrwt beam="1">  1       -2 0.14618413E-01 0.90957918E+02</pdfrwt>
<totfact> 0.81504994E+04</totfact>
</mgrwt>
</event>
<event>
 5   1  0.1343823E+00  0.8815202E+02  0.7818608E-02  0.1307390E+00
         -2   -1    0    0    0  501 -0.00000000000E+00  0.00000000000E+00  0.11903035857E+02  0.11903036141E+02  0.26000000000E-02 0.  1.
          2   -1    0    0  501    0  0.00000000000E+00 -0.00000000000E+00 -0.16321000311E+03  0.16321000314E+03  0.26000000000E-02 0. -1.
         23    2    1    2    0    0  0.00000000000E+00  0.00000000000E+00 -0.15130696726E+03  0.17511303928E+03  0.88152017470E+02 0.  0.
        -13    1    3    3    0    0 -0.16553066874E+01 -0.42281079664E+02 -0.51141973662E+02  0.66377273071E+02  0.10570000000E+00 0.  1.
         13    1    3    3    0    0  0.16553066874E+01  0.42281079664E+02 -0.10016499360E+03  0.10873576621E+03  0.10570000000E+00 0. -1.
<mgrwt>
<rscale>  0 0.88152017E+02</rscale>
<asrwt>0</asrwt>
<pdfrwt beam="2">  1        2 0.25109230E-01 0.88152017E+02</pdfrwt>
<pdfrwt beam="1">  1       -2 0.18312364E-02 0.88152017E+02</pdfrwt>
<totfact> 0.15764452E+05</totfact>
</mgrwt>
</event>
<event>
 5   1  0.1343823E+00  0.9046448E+02  0.7818608E-02  0.1301731E+00
          2   -1    0    0  501    0  0.00000000000E+00  0.00000000000E+00  0.66603771605E+02  0.66603771656E+02  0.26000000000E-02 0. -1.
         -2   -1    0    0    0  501 -0.00000000000E+00 -0.00000000000E+00 -0.30718315177E+02  0.30718315287E+02  0.26000000000E-02 0.  1.
         23    2    1    2    0    0  0.00000000000E+00  0.00000000000E+00  0.35885456428E+02  0.97322086943E+02  0.90464482665E+02 0.  0.
        -13    1    3    3    0    0 -0.36757612059E+02 -0.16699475934E+02  0.39883598186E+02  0.56751274149E+02  0.10570000000E+00 0. -1.
         13    1    3    3    0    0  0.36757612059E+02  0.16699475934E+02 -0.39981417580E+01  0.40570812794E+02  0.10570000000E+00 0.  1.
<mgrwt>
<rscale>  0 0.90464483E+02</rscale>
<asrwt>0</asrwt>
<pdfrwt beam="1">  1        2 0.10246734E-01 0.90464483E+02</pdfrwt>
<pdfrwt beam="2">  1       -2 0.47258947E-02 0.90464483E+02</pdfrwt>
<totfact> 0.11153821E+05</totfact>
</mgrwt>
</event>
<event>
 5   1  0.1343823E+00  0.9144519E+02  0.7818608E-02  0.1299389E+00
          2   -1    0    0  501    0  0.00000000000E+00  0.00000000000E+00  0.33361553758E+02  0.33361553859E+02  0.26000000000E-02 0. -1.
         -2   -1    0    0    0  501 -0.00000000000E+00 -0.00000000000E+00 -0.62663618319E+02  0.62663618373E+02  0.26000000000E-02 0.  1.
         23    2    1    2    0    0  0.00000000000E+00  0.00000000000E+00 -0.29302064561E+02  0.96025172232E+02  0.91445189675E+02 0.  0.
        -13    1    3    3    0    0  0.96655766171E+01 -0.38666523608E+02  0.88769784490E+01  0.40833017745E+02  0.10570000000E+00 0.  1.
         13    1    3    3    0    0 -0.96655766171E+01  0.38666523608E+02 -0.38179043010E+02  0.55192154487E+02  0.10570000000E+00 0. -1.
<mgrwt>
<rscale>  0 0.91445190E+02</rscale>
<asrwt>0</asrwt>
<pdfrwt beam="1">  1        2 0.51325467E-02 0.91445190E+02</pdfrwt>
<pdfrwt beam="2">  1       -2 0.96405567E-02 0.91445190E+02</pdfrwt>
<totfact> 0.90204216E+04</totfact>
</mgrwt>
</event>
<event>
 5   1  0.1343823E+00  0.9478790E+02  0.7818608E-02  0.1291654E+00
          2   -1    0    0  501    0  0.00000000000E+00  0.00000000000E+00  0.29670984454E+02  0.29670984568E+02  0.26000000000E-02 0. -1.
         -2   -1    0    0    0  501 -0.00000000000E+00 -0.00000000000E+00 -0.75703139722E+02  0.75703139767E+02  0.26000000000E-02 0.  1.
         23    2    1    2    0    0  0.00000000000E+00  0.00000000000E+00 -0.46032155268E+02  0.10537412434E+03  0.94787904085E+02 0.  0.
        -13    1    3    3    0    0 -0.31633377952E+02  0.25761815967E+02  0.37990899121E+01  0.40972991339E+02  0.10570000000E+00 0. -1.
         13    1    3    3    0    0  0.31633377952E+02 -0.25761815967E+02 -0.49831245180E+02  0.64401132997E+02  0.10570000000E+00 0.  1.
<mgrwt>
<rscale>  0 0.94787904E+02</rscale>
<asrwt>0</asrwt>
<pdfrwt beam="1">  1        2 0.45647669E-02 0.94787904E+02</pdfrwt>
<pdfrwt beam="2">  1       -2 0.11646637E-01 0.94787904E+02</pdfrwt>
<totfact> 0.78540750E+04</totfact>
</mgrwt>
</event>
<event>
 5   1  0.1343823E+00  0.9107698E+02  0.7818608E-02  0.1300264E+00
         -2   -1    0    0    0  501 -0.00000000000E+00  0.00000000000E+00  0.17251491220E+02  0.17251491416E+02  0.26000000000E-02 0.  1.
          2   -1    0    0  501    0  0.00000000000E+00 -0.00000000000E+00 -0.12020722681E+03  0.12020722684E+03  0.26000000000E-02 0. -1.
         23    2    1    2    0    0  0.00000000000E+00  0.00000000000E+00 -0.10295573559E+03  0.13745871825E+03  0.91076976965E+02 0.  0.
        -13    1    3    3    0    0  0.14011708184E+02  0.27512276037E+02 -0.10199835977E+03  0.10656889728E+03  0.10570000000E+00 0. -1.
         13    1    3    3    0    0 -0.14011708184E+02 -0.27512276037E+02 -0.95737582080E+00  0.30889820976E+02  0.10570000000E+00 0.  1.
<mgrwt>
<rscale>  0 0.91076977E+02</rscale>
<asrwt>0</asrwt>
<pdfrwt beam="2">  1        2 0.18493419E-01 0.91076977E+02</pdfrwt>
<pdfrwt beam="1">  1       -2 0.26540757E-02 0.91076977E+02</pdfrwt>
<totfact> 0.13032610E+05</totfact>
</mgrwt>
</event>
<event>
 5   1  0.1343823E+00  0.9094781E+02  0.7818608E-02  0.1300573E+00
          2   -1    0    0  501    0  0.00000000000E+00  0.00000000000E+00  0.66459111945E+02  0.66459111995E+02  0.26000000000E-02 0. -1.
         -2   -1    0    0    0  501 -0.00000000000E+00 -0.00000000000E+00 -0.31115013966E+02  0.31115014075E+02  0.26000000000E-02 0.  1.
         23    2    1    2    0    0  0.00000000000E+00  0.00000000000E+00  0.35344097978E+02  0.97574126070E+02  0.90947813698E+02 0.  0.
        -13    1    3    3    0    0  0.24920769009E+02 -0.23824509034E+02  0.49483939216E+02  0.60310226094E+02  0.10570000000E+00 0. -1.
         13    1    3    3    0    0 -0.24920769009E+02  0.23824509034E+02 -0.14139841238E+02  0.37263899976E+02  0.10570000000E+00 0.  1.
<mgrwt>
<rscale>  0 0.90947814E+02</rscale>
<asrwt>0</asrwt>
<pdfrwt beam="1">  1        2 0.10224479E-01 0.90947814E+02</pdfrwt>
<pdfrwt beam="2">  1       -2 0.47869253E-02 0.90947814E+02</pdfrwt>
<totfact> 0.10982137E+05</totfact>
</mgrwt>
</event>
<event>
 5   1  0.1343823E+00  0.8315469E+02  0.7818608E-02  0.1320330E+00
         -2   -1    0    0    0  501 -0.00000000000E+00  0.00000000000E+00  0.18684393800E+02  0.18684393981E+02  0.26000000000E-02 0.  1.
          2   -1    0    0  501    0  0.00000000000E+00 -0.00000000000E+00 -0.92519750376E+02  0.92519750412E+02  0.26000000000E-02 0. -1.
         23    2    1    2    0    0  0.00000000000E+00  0.00000000000E+00 -0.73835356576E+02  0.11120414439E+03  0.83154686276E+02 0.  0.
        -13    1    3    3    0    0  0.73761437957E+01  0.39183453423E+02 -0.21155839064E+02  0.45136805586E+02  0.10570000000E+00 0.  1.
         13    1    3    3    0    0 -0.73761437957E+01 -0.39183453423E+02 -0.52679517511E+02  0.66067338808E+02  0.10570000000E+00 0. -1.
<mgrwt>
<rscale>  0 0.83154686E+02</rscale>
<asrwt>0</asrwt>
<pdfrwt beam="2">  1        2 0.14233807E-01 0.83154686E+02</pdfrwt>
<pdfrwt beam="1">  1       -2 0.28745222E-02 0.83154686E+02</pdfrwt>
<totfact> 0.15424820E+05</totfact>
</mgrwt>
</event>
<event>
 5   1  0.1343823E+00  0.8484003E+02  0.7818608E-02  0.1315851E+00
         -2   -1    0    0    0  501 -0.00000000000E+00  0.00000000000E+00  0.15842731106E+02  0.15842731320E+02  0.26000000000E-02 0.  1.
          2   -1    0    0  501    0  0.00000000000E+00 -0.00000000000E+00 -0.11358254115E+03  0.11358254118E+03  0.26000000000E-02 0. -1.
         23    2    1    2    0    0  0.00000000000E+00  0.00000000000E+00 -0.97739810048E+02  0.12942527250E+03  0.84840030024E+02 0.  0.
        -13    1    3    3    0    0 -0.12732831449E+02 -0.36610455239E+02 -0.75160089102E+02  0.84566545371E+02  0.10570000000E+00 0. -1.
         13    1    3    3    0    0  0.12732831449E+02  0.36610455239E+02 -0.22579720946E+02  0.44858727134E+02  0.10570000000E+00 0.  1.
<mgrwt>
<rscale>  0 0.84840030E+02</rscale>
<asrwt>0</asrwt>
<pdfrwt beam="2">  1        2 0.17474237E-01 0.84840030E+02</pdfrwt>
<pdfrwt beam="1">  1       -2 0.24373433E-02 0.84840030E+02</pdfrwt>
<totfact> 0.15527844E+05</totfact>
</mgrwt>
</event>
<event>
 5   1  0.1343823E+00  0.8814407E+02  0.7818608E-02  0.1307409E+00
         -2   -1    0    0    0  501 -0.00000000000E+00  0.00000000000E+00  0.47395692144E+01  0.47395699275E+01  0.26000000000E-02 0.  1.
          2   -1    0    0  501    0  0.00000000000E+00 -0.00000000000E+00 -0.40981446089E+03  0.40981446090E+03  0.26000000000E-02 0. -1.
         23    2    1    2    0    0  0.00000000000E+00  0.00000000000E+00 -0.40507489168E+03  0.41455403083E+03  0.88144067344E+02 0.  0.
        -13    1    3    3    0    0  0.25252149824E+02 -0.35001776900E+02 -0.24448185540E+03  0.24826232950E+03  0.10570000000E+00 0. -1.
         13    1    3    3    0    0 -0.25252149824E+02  0.35001776900E+02 -0.16059303628E+03  0.16629170133E+03  0.10570000000E+00 0.  1.
<mgrwt>
<rscale>  0 0.88144067E+02</rscale>
<asrwt>0</asrwt>
<pdfrwt beam="2">  1        2 0.63048351E-01 0.88144067E+02</pdfrwt>
<pdfrwt beam="1">  1       -2 0.72916487E-03 0.88144067E+02</pdfrwt>
<totfact> 0.22022536E+05</totfact>
</mgrwt>
</event>
<event>
 5   1  0.1343823E+00  0.9088199E+02  0.7818608E-02  0.1300730E+00
         -2   -1    0    0    0  501 -0.00000000000E+00  0.00000000000E+00  0.17013147503E+02  0.17013147702E+02  0.26000000000E-02 0.  1.
          2   -1    0    0  501    0  0.00000000000E+00 -0.00000000000E+00 -0.12136990298E+03  0.12136990301E+03  0.26000000000E-02 0. -1.
         23    2    1    2    0    0  0.00000000000E+00  0.00000000000E+00 -0.10435675548E+03  0.13838305071E+03  0.90881991122E+02 0.  0.
        -13    1    3    3    0    0 -0.31577873117E+01 -0.40785969510E+02 -0.82302804612E+02  0.91908812141E+02  0.10570000000E+00 0. -1.
         13    1    3    3    0    0  0.31577873117E+01  0.40785969510E+02 -0.22053950869E+02  0.46474238573E+02  0.10570000000E+00 0.  1.
<mgrwt>
<rscale>  0 0.90881991E+02</rscale>
<asrwt>0</asrwt>
<pdfrwt beam="2">  1        2 0.18672292E-01 0.90881991E+02</pdfrwt>
<pdfrwt beam="1">  1       -2 0.26174074E-02 0.90881991E+02</pdfrwt>
<totfact> 0.13149636E+05</totfact>
</mgrwt>
</event>
<event>
 5   1  0.1343823E+00  0.9216610E+02  0.7818608E-02  0.1297689E+00
          2   -1    0    0  501    0  0.00000000000E+00  0.00000000000E+00  0.23488619248E+02  0.23488619392E+02  0.26000000000E-02 0. -1.
         -2   -1    0    0    0  501 -0.00000000000E+00 -0.00000000000E+00 -0.90411764227E+02  0.90411764265E+02  0.26000000000E-02 0.  1.
         23    2    1    2    0    0  0.00000000000E+00  0.00000000000E+00 -0.66923144979E+02  0.11390038366E+03  0.92166100402E+02 0.  0.
        -13    1    3    3    0    0 -0.19744998256E+01 -0.46016791137E+02 -0.31631634480E+02  0.55874996094E+02  0.10570000000E+00 0. -1.
         13    1    3    3    0    0  0.19744998256E+01  0.46016791137E+02 -0.35291510499E+02  0.58025387563E+02  0.10570000000E+00 0.  1.
<mgrwt>
<rscale>  0 0.92166100E+02</rscale>
<asrwt>0</asrwt>
<pdfrwt beam="1">  1        2 0.36136338E-02 0.92166100E+02</pdfrwt>
<pdfrwt beam="2">  1       -2 0.13909502E-01 0.92166100E+02</pdfrwt>
<totfact> 0.80028495E+04</totfact>
</mgrwt>
</event>
<event>
 5   1  0.1343823E+00  0.9198271E+02  0.7818608E-02  0.1298120E+00
         -2   -1    0    0    0  501 -0.00000000000E+00  0.00000000000E+00  0.15115664315E+02  0.15115664538E+02  0.26000000000E-02 0.  1.
          2   -1    0    0  501    0  0.00000000000E+00 -0.00000000000E+00 -0.13993460502E+03  0.13993460504E+03  0.26000000000E-02 0. -1.
         23    2    1    2    0    0  0.00000000000E+00  0.00000000000E+00 -0.12481894070E+03  0.15505026958E+03  0.91982705649E+02 0.  0.
        -13    1    3    3    0    0  0.15608796735E+01 -0.45948072040E+02 -0.64495652169E+02  0.79204557891E+02  0.10570000000E+00 0. -1.
         13    1    3    3    0    0 -0.15608796735E+01  0.45948072040E+02 -0.60323288533E+02  0.75845711688E+02  0.10570000000E+00 0.  1.
<mgrwt>
<rscale>  0 0.91982706E+02</rscale>
<asrwt>0</asrwt>
<pdfrwt beam="2">  1        2 0.21528400E-01 0.91982706E+02</pdfrwt>
<pdfrwt beam="1">  1       -2 0.23254869E-02 0.91982706E+02</pdfrwt>
<totfact> 0.13333737E+05</totfact>
</mgrwt>
</event>
<event>
 5   1  0.1343823E+00  0.9117831E+02  0.7818608E-02  0.1300023E+00
         -2   -1    0    0    0  501 -0.00000000000E+00  0.00000000000E+00  0.39931229538E+02  0.39931229622E+02  0.26000000000E-02 0.  1.
          2   -1    0    0  501    0  0.00000000000E+00 -0.00000000000E+00 -0.52048762049E+02  0.52048762114E+02  0.26000000000E-02 0. -1.
         23    2    1    2    0    0  0.00000000000E+00  0.00000000000E+00 -0.12117532511E+02  0.91979991736E+02  0.91178310390E+02 0.  0.
        -13    1    3    3    0    0  0.15586700034E+02  0.63660444846E+01 -0.48797388945E+02  0.51620423096E+02  0.10570000000E+00 0. -1.
         13    1    3    3    0    0 -0.15586700034E+02 -0.63660444846E+01  0.36679856433E+02  0.40359568640E+02  0.10570000000E+00 0.  1.
<mgrwt>
<rscale>  0 0.91178310E+02</rscale>
<asrwt>0</asrwt>
<pdfrwt beam="2">  1        2 0.80075019E-02 0.91178310E+02</pdfrwt>
<pdfrwt beam="1">  1       -2 0.61432661E-02 0.91178310E+02</pdfrwt>
<totfact> 0.10214176E+05</totfact>
</mgrwt>
</event>
<event>
 5   1  0.1343823E+00  0.8953181E+02  0.7818608E-02  0.1303989E+00
         -2   -1    0    0    0  501 -0.00000000000E+00  0.00000000000E+00  0.37563980047E+02  0.37563980137E+02  0.26000000000E-02 0.  1.
          2   -1    0    0  501    0  0.00000000000E+00 -0.00000000000E+00 -0.53348609080E+02  0.53348609143E+02  0.26000000000E-02 0. -1.
         23    2    1    2    0    0  0.00000000000E+00  0.00000000000E+00 -0.15784629033E+02  0.90912589281E+02  0.89531806505E+02 0.  0.
        -13    1    3    3    0    0  0.24946556170E+02  0.30534519663E+02  0.13630981697E+02  0.41719328737E+02  0.10570000000E+00 0.  1.
         13    1    3    3    0    0 -0.24946556170E+02 -0.30534519663E+02 -0.29415610730E+02  0.49193260543E+02  0.10570000000E+00 0. -1.
<mgrwt>
<rscale>  0 0.89531807E+02</rscale>
<asrwt>0</asrwt>
<pdfrwt beam="2">  1        2 0.82074783E-02 0.89531807E+02</pdfrwt>
<pdfrwt beam="1">  1       -2 0.57790739E-02 0.89531807E+02</pdfrwt>
<totfact> 0.10825274E+05</totfact>
</mgrwt>
</event>
<event>
 5   1  0.1343823E+00  0.9224939E+02  0.7818608E-02  0.1297494E+00
         -2   -1    0    0    0  501 -0.00000000000E+00  0.00000000000E+00  0.26116691986E+02  0.26116692116E+02  0.26000000000E-02 0.  1.
          2   -1    0    0  501    0  0.00000000000E+00 -0.00000000000E+00 -0.81460831650E+02  0.81460831692E+02  0.26000000000E-02 0. -1.
         23    2    1    2    0    0  0.00000000000E+00  0.00000000000E+00 -0.55344139664E+02  0.10757752381E+03  0.92249389339E+02 0.  0.
        -13    1    3    3    0    0 -0.40176560759E+02  0.20691669188E+01 -0.13613041599E+01  0.40252972656E+02  0.10570000000E+00 0.  1.
         13    1    3    3    0    0  0.40176560759E+02 -0.20691669188E+01 -0.53982835504E+02  0.67324551151E+02  0.10570000000E+00 0. -1.
<mgrwt>
<rscale>  0 0.92249389E+02</rscale>
<asrwt>0</asrwt>
<pdfrwt beam="2">  1        2 0.12532436E-01 0.92249389E+02</pdfrwt>
<pdfrwt beam="1">  1       -2 0.40179527E-02 0.92249389E+02</pdfrwt>
<totfact> 0.11175720E+05</totfact>
</mgrwt>
</event>
<event>
 5   1  0.1343823E+00  0.9209046E+02  0.7818608E-02  0.1297867E+00
          2   -1    0    0  501    0  0.00000000000E+00  0.00000000000E+00  0.70604463021E+02  0.70604463069E+02  0.26000000000E-02 0. -1.
         -2   -1    0    0    0  501 -0.00000000000E+00 -0.00000000000E+00 -0.30028741332E+02  0.30028741444E+02  0.26000000000E-02 0.  1.
         23    2    1    2    0    0  0.00000000000E+00  0.00000000000E+00  0.40575721690E+02  0.10063320451E+03  0.92090459115E+02 0.  0.
        -13    1    3    3    0    0  0.27191311263E+01 -0.45899586837E+02  0.17614214472E+02  0.49238577050E+02  0.10570000000E+00 0. -1.
         13    1    3    3    0    0 -0.27191311263E+01  0.45899586837E+02  0.22961507217E+02  0.51394627463E+02  0.10570000000E+00 0.  1.
<mgrwt>
<rscale>  0 0.92090459E+02</rscale>
<asrwt>0</asrwt>
<pdfrwt beam="1">  1        2 0.10862225E-01 0.92090459E+02</pdfrwt>
<pdfrwt beam="2">  1       -2 0.46198065E-02 0.92090459E+02</pdfrwt>
<totfact> 0.10782924E+05</totfact>
</mgrwt>
</event>
<event>
 5   1  0.1343823E+00  0.8946287E+02  0.7818608E-02  0.1304158E+00
         -2   -1    0    0    0  501 -0.00000000000E+00  0.00000000000E+00  0.23395999532E+03  0.23395999533E+03  0.26000000000E-02 0.  1.
          2   -1    0    0  501    0  0.00000000000E+00 -0.00000000000E+00 -0.85523226719E+01  0.85523230671E+01  0.26000000000E-02 0. -1.
         23    2    1    2    0    0  0.00000000000E+00  0.00000000000E+00  0.22540767264E+03  0.24251231840E+03  0.89462873237E+02 0.  0.
        -13    1    3    3    0    0  0.31333583649E+02 -0.21676031226E+02  0.17623321279E+03  0.18030474275E+03  0.10570000000E+00 0.  1.
         13    1    3    3    0    0 -0.31333583649E+02  0.21676031226E+02  0.49174459853E+02  0.62207575650E+02  0.10570000000E+00 0. -1.
<mgrwt>
<rscale>  0 0.89462873E+02</rscale>
<asrwt>0</asrwt>
<pdfrwt beam="2">  1        2 0.13157418E-02 0.89462873E+02</pdfrwt>
<pdfrwt beam="1">  1       -2 0.35993849E-01 0.89462873E+02</pdfrwt>
<totfact> 0.60915625E+04</totfact>
</mgrwt>
</event>
<event>
 5   1  0.1343823E+00  0.8394086E+02  0.7818608E-02  0.1318226E+00
          2   -1    0    0  501    0  0.00000000000E+00  0.00000000000E+00  0.13962208997E+02  0.13962209240E+02  0.26000000000E-02 0. -1.
         -2   -1    0    0    0  501 -0.00000000000E+00 -0.00000000000E+00 -0.12616319687E+03  0.12616319690E+03  0.26000000000E-02 0.  1.
         23    2    1    2    0    0  0.00000000000E+00  0.00000000000E+00 -0.11220098787E+03  0.14012540613E+03  0.83940858735E+02 0.  0.
        -13    1    3    3    0    0  0.32919883414E+02  0.22495548560E+02 -0.77976893261E+02  0.87579538045E+02  0.10570000000E+00 0.  1.
         13    1    3    3    0    0 -0.32919883414E+02 -0.22495548560E+02 -0.34224094609E+02  0.52545868090E+02  0.10570000000E+00 0. -1.
<mgrwt>
<rscale>  0 0.83940859E+02</rscale>
<asrwt>0</asrwt>
<pdfrwt beam="1">  1        2 0.21480323E-02 0.83940859E+02</pdfrwt>
<pdfrwt beam="2">  1       -2 0.19409722E-01 0.83940859E+02</pdfrwt>
<totfact> 0.91321631E+04</totfact>
</mgrwt>
</event>
<event>
 5   1  0.1343823E+00  0.9073022E+02  0.7818608E-02  0.1301093E+00
          2   -1    0    0  501    0  0.00000000000E+00  0.00000000000E+00  0.78888280793E+02  0.78888280836E+02  0.26000000000E-02 0. -1.
         -2   -1    0    0    0  501 -0.00000000000E+00 -0.00000000000E+00 -0.26087437495E+02  0.26087437625E+02  0.26000000000E-02 0.  1.
         23    2    1    2    0    0  0.00000000000E+00  0.00000000000E+00  0.52800843298E+02  0.10497571846E+03  0.90730217752E+02 0.  0.
        -13    1    3    3    0    0  0.76234367834E+01  0.15877089973E+02 -0.21970089562E+02  0.28158387423E+02  0.10570000000E+00 0.  1.
         13    1    3    3    0    0 -0.76234367834E+01 -0.15877089973E+02  0.74770932860E+02  0.76817331037E+02  0.10570000000E+00 0. -1.
<mgrwt>
<rscale>  0 0.90730218E+02</rscale>
<asrwt>0</asrwt>
<pdfrwt beam="1">  1        2 0.12136659E-01 0.90730218E+02</pdfrwt>
<pdfrwt beam="2">  1       -2 0.40134519E-02 0.90730218E+02</pdfrwt>
<totfact> 0.11596948E+05</totfact>
</mgrwt>
</event>
<event>
 5   1  0.1343823E+00  0.9211714E+02  0.7818608E-02  0.1297804E+00
          2   -1    0    0  501    0  0.00000000000E+00  0.00000000000E+00  0.87144115526E+02  0.87144115565E+02  0.26000000000E-02 0. -1.
         -2   -1    0    0    0  501 -0.00000000000E+00 -0.00000000000E+00 -0.24343487071E+02  0.24343487210E+02  0.26000000000E-02 0.  1.
         23    2    1    2    0    0  0.00000000000E+00  0.00000000000E+00  0.62800628455E+02  0.11148760277E+03  0.92117135421E+02 0.  0.
        -13    1    3    3    0    0  0.41747037148E+02  0.16681817721E+02  0.19280432841E+02  0.48916708967E+02  0.10570000000E+00 0.  1.
         13    1    3    3    0    0 -0.41747037148E+02 -0.16681817721E+02  0.43520195614E+02  0.62570893808E+02  0.10570000000E+00 0. -1.
<mgrwt>
<rscale>  0 0.92117135E+02</rscale>
<asrwt>0</asrwt>
<pdfrwt beam="1">  1        2 0.13406787E-01 0.92117135E+02</pdfrwt>
<pdfrwt beam="2">  1       -2 0.37451518E-02 0.92117135E+02</pdfrwt>
<totfact> 0.11443231E+05</totfact>
</mgrwt>
</event>
<event>
 5   1  0.1343823E+00  0.9101697E+02  0.7818608E-02  0.1300407E+00
         -2   -1    0    0    0  501 -0.00000000000E+00  0.00000000000E+00  0.10683087768E+02  0.10683088084E+02  0.26000000000E-02 0.  1.
          2   -1    0    0  501    0  0.00000000000E+00 -0.00000000000E+00 -0.19385986564E+03  0.19385986566E+03  0.26000000000E-02 0. -1.
         23    2    1    2    0    0  0.00000000000E+00  0.00000000000E+00 -0.18317677787E+03  0.20454295374E+03  0.91016965308E+02 0.  0.
        -13    1    3    3    0    0 -0.42572892034E+02 -0.94677884104E+01 -0.62380271475E+02  0.76114384943E+02  0.10570000000E+00 0.  1.
         13    1    3    3    0    0  0.42572892034E+02  0.94677884104E+01 -0.12079650640E+03  0.12842856880E+03  0.10570000000E+00 0. -1.
<mgrwt>
<rscale>  0 0.91016965E+02</rscale>
<asrwt>0</asrwt>
<pdfrwt beam="2">  1        2 0.29824592E-01 0.91016965E+02</pdfrwt>
<pdfrwt beam="1">  1       -2 0.16435521E-02 0.91016965E+02</pdfrwt>
<totfact> 0.15367488E+05</totfact>
</mgrwt>
</event>
<event>
 5   1  0.1343823E+00  0.9127826E+02  0.7818608E-02  0.1299785E+00
          2   -1    0    0  501    0  0.00000000000E+00  0.00000000000E+00  0.20863243519E+02  0.20863243681E+02  0.26000000000E-02 0.  1.
         -2   -1    0    0    0  501 -0.00000000000E+00 -0.00000000000E+00 -0.99837302486E+02  0.99837302519E+02  0.26000000000E-02 0. -1.
         23    2    1    2    0    0  0.00000000000E+00  0.00000000000E+00 -0.78974058967E+02  0.12070054620E+03  0.91278255151E+02 0.  0.
        -13    1    3    3    0    0 -0.36373381655E+02 -0.18194245957E+02 -0.12102683875E+02  0.42432765741E+02  0.10570000000E+00 0.  1.
         13    1    3    3    0    0  0.36373381655E+02  0.18194245957E+02 -0.66871375092E+02  0.78267780460E+02  0.10570000000E+00 0. -1.
<mgrwt>
<rscale>  0 0.91278255E+02</rscale>
<asrwt>0</asrwt>
<pdfrwt beam="1">  1        2 0.32097298E-02 0.91278255E+02</pdfrwt>
<pdfrwt beam="2">  1       -2 0.15359585E-01 0.91278255E+02</pdfrwt>
<totfact> 0.79624249E+04</totfact>
</mgrwt>
</event>
<event>
 5   1  0.1343823E+00  0.9156101E+02  0.7818608E-02  0.1299115E+00
          2   -1    0    0  501    0  0.00000000000E+00  0.00000000000E+00  0.48297896878E+02  0.48297896948E+02  0.26000000000E-02 0. -1.
         -2   -1    0    0    0  501 -0.00000000000E+00 -0.00000000000E+00 -0.43394322637E+02  0.43394322714E+02  0.26000000000E-02 0.  1.
         23    2    1    2    0    0  0.00000000000E+00  0.00000000000E+00  0.49035742415E+01  0.91692219663E+02  0.91561007565E+02 0.  0.
        -13    1    3    3    0    0  0.40282830624E+02  0.13232761135E+02  0.19740099536E+02  0.46770665085E+02  0.10570000000E+00 0.  1.
         13    1    3    3    0    0 -0.40282830624E+02 -0.13232761135E+02 -0.14836525294E+02  0.44921554577E+02  0.10570000000E+00 0. -1.
<mgrwt>
<rscale>  0 0.91561008E+02</rscale>
<asrwt>0</asrwt>
<pdfrwt beam="1">  1        2 0.74304456E-02 0.91561008E+02</pdfrwt>
<pdfrwt beam="2">  1       -2 0.66760497E-02 0.91561008E+02</pdfrwt>
<totfact> 0.98968930E+04</totfact>
</mgrwt>
</event>
<event>
 5   1  0.1343823E+00  0.9042374E+02  0.7818608E-02  0.1301829E+00
         -2   -1    0    0    0  501 -0.00000000000E+00  0.00000000000E+00  0.68959215558E+02  0.68959215607E+02  0.26000000000E-02 0.  1.
          2   -1    0    0  501    0  0.00000000000E+00 -0.00000000000E+00 -0.29642349254E+02  0.29642349368E+02  0.26000000000E-02 0. -1.
         23    2    1    2    0    0  0.00000000000E+00  0.00000000000E+00  0.39316866304E+02  0.98601564976E+02  0.90423739359E+02 0.  0.
        -13    1    3    3    0    0 -0.39204066712E+02  0.12634495840E+02 -0.66919266406E+00  0.41195246367E+02  0.10570000000E+00 0. -1.
         13    1    3    3    0    0  0.39204066712E+02 -0.12634495840E+02  0.39986058968E+02  0.57406318609E+02  0.10570000000E+00 0.  1.
<mgrwt>
<rscale>  0 0.90423739E+02</rscale>
<asrwt>0</asrwt>
<pdfrwt beam="2">  1        2 0.45603614E-02 0.90423739E+02</pdfrwt>
<pdfrwt beam="1">  1       -2 0.10609110E-01 0.90423739E+02</pdfrwt>
<totfact> 0.90379218E+04</totfact>
</mgrwt>
</event>
<event>
 5   1  0.1343823E+00  0.9167748E+02  0.7818608E-02  0.1298840E+00
         -2   -1    0    0    0  501 -0.00000000000E+00  0.00000000000E+00  0.32607703737E+03  0.32607703738E+03  0.26000000000E-02 0.  1.
          2   -1    0    0  501    0  0.00000000000E+00 -0.00000000000E+00 -0.64438457682E+01  0.64438462927E+01  0.26000000000E-02 0. -1.
         23    2    1    2    0    0  0.00000000000E+00  0.00000000000E+00  0.31963319160E+03  0.33252088367E+03  0.91677483087E+02 0.  0.
        -13    1    3    3    0    0  0.41087131396E+02 -0.15187636498E+02  0.11083602115E+03  0.11917823386E+03  0.10570000000E+00 0. -1.
         13    1    3    3    0    0 -0.41087131396E+02  0.15187636498E+02  0.20879717045E+03  0.21334264982E+03  0.10570000000E+00 0.  1.
<mgrwt>
<rscale>  0 0.91677483E+02</rscale>
<asrwt>0</asrwt>
<pdfrwt beam="2">  1        2 0.99136059E-03 0.91677483E+02</pdfrwt>
<pdfrwt beam="1">  1       -2 0.50165715E-01 0.91677483E+02</pdfrwt>
<totfact> 0.47920858E+04</totfact>
</mgrwt>
</event>
<event>
 5   1  0.1343823E+00  0.9010159E+02  0.7818608E-02  0.1302606E+00
         -2   -1    0    0    0  501 -0.00000000000E+00  0.00000000000E+00  0.11589804194E+02  0.11589804486E+02  0.26000000000E-02 0. -1.
          2   -1    0    0  501    0  0.00000000000E+00 -0.00000000000E+00 -0.17511718702E+03  0.17511718704E+03  0.26000000000E-02 0.  1.
         23    2    1    2    0    0  0.00000000000E+00  0.00000000000E+00 -0.16352738283E+03  0.18670699153E+03  0.90101585728E+02 0.  0.
        -13    1    3    3    0    0 -0.13629273470E+02 -0.42938504057E+02 -0.82387205902E+02  0.93899601143E+02  0.10570000000E+00 0.  1.
         13    1    3    3    0    0  0.13629273470E+02  0.42938504057E+02 -0.81140176929E+02  0.92807390387E+02  0.10570000000E+00 0. -1.
<mgrwt>
<rscale>  0 0.90101586E+02</rscale>
<asrwt>0</asrwt>
<pdfrwt beam="2">  1        2 0.26941104E-01 0.90101586E+02</pdfrwt>
<pdfrwt beam="1">  1       -2 0.17830469E-02 0.90101586E+02</pdfrwt>
<totfact> 0.15230253E+05</totfact>
</mgrwt>
</event>
<event>
 5   1  0.1343823E+00  0.8804341E+02  0.7818608E-02  0.1307660E+00
         -2   -1    0    0    0  501 -0.00000000000E+00  0.00000000000E+00  0.43557141638E+02  0.43557141716E+02  0.26000000000E-02 0. -1.
          2   -1    0    0  501    0  0.00000000000E+00 -0.00000000000E+00 -0.44491224124E+02  0.44491224200E+02  0.26000000000E-02 0.  1.
         23    2    1    2    0    0  0.00000000000E+00  0.00000000000E+00 -0.93408248544E+00  0.88048365916E+02  0.88043411056E+02 0.  0.
        -13    1    3    3    0    0  0.16270320478E+02  0.15872582766E+02 -0.38168462234E+02  0.44424147644E+02  0.10570000000E+00 0.  1.
         13    1    3    3    0    0 -0.16270320478E+02 -0.15872582766E+02  0.37234379748E+02  0.43624218272E+02  0.10570000000E+00 0. -1.
<mgrwt>
<rscale>  0 0.88043411E+02</rscale>
<asrwt>0</asrwt>
<pdfrwt beam="2">  1        2 0.68448037E-02 0.88043411E+02</pdfrwt>
<pdfrwt beam="1">  1       -2 0.67010987E-02 0.88043411E+02</pdfrwt>
<totfact> 0.10837445E+05</totfact>
</mgrwt>
</event>
<event>
 5   1  0.1343823E+00  0.9520972E+02  0.7818608E-02  0.1290704E+00
         -2   -1    0    0    0  501 -0.00000000000E+00  0.00000000000E+00  0.35361416014E+02  0.35361416109E+02  0.26000000000E-02 0.  1.
          2   -1    0    0  501    0  0.00000000000E+00 -0.00000000000E+00 -0.64087441250E+02  0.64087441303E+02  0.26000000000E-02 0. -1.
         23    2    1    2    0    0  0.00000000000E+00  0.00000000000E+00 -0.28726025237E+02  0.99448857412E+02  0.95209719644E+02 0.  0.
        -13    1    3    3    0    0 -0.92127525094E+01 -0.23077278838E+02  0.28050020018E+02  0.37473329221E+02  0.10570000000E+00 0.  1.
         13    1    3    3    0    0  0.92127525094E+01  0.23077278838E+02 -0.56776045255E+02  0.61975528192E+02  0.10570000000E+00 0. -1.
<mgrwt>
<rscale>  0 0.95209720E+02</rscale>
<asrwt>0</asrwt>
<pdfrwt beam="2">  1        2 0.98596063E-02 0.95209720E+02</pdfrwt>
<pdfrwt beam="1">  1       -2 0.54402179E-02 0.95209720E+02</pdfrwt>
<totfact> 0.95552454E+04</totfact>
</mgrwt>
</event>
<event>
 5   1  0.1343823E+00  0.8549642E+02  0.7818608E-02  0.1314139E+00
          2   -1    0    0  501    0  0.00000000000E+00  0.00000000000E+00  0.24184892211E+02  0.24184892350E+02  0.26000000000E-02 0. -1.
         -2   -1    0    0    0  501 -0.00000000000E+00 -0.00000000000E+00 -0.75559960877E+02  0.75559960922E+02  0.26000000000E-02 0.  1.
         23    2    1    2    0    0  0.00000000000E+00  0.00000000000E+00 -0.51375068667E+02  0.99744853272E+02  0.85496421409E+02 0.  0.
        -13    1    3    3    0    0 -0.33445713541E+02 -0.23714517777E+02 -0.11571282958E+02  0.42601641629E+02  0.10570000000E+00 0. -1.
         13    1    3    3    0    0  0.33445713541E+02  0.23714517777E+02 -0.39803785709E+02  0.57143211644E+02  0.10570000000E+00 0.  1.
<mgrwt>
<rscale>  0 0.85496421E+02</rscale>
<asrwt>0</asrwt>
<pdfrwt beam="1">  1        2 0.37207527E-02 0.85496421E+02</pdfrwt>
<pdfrwt beam="2">  1       -2 0.11624609E-01 0.85496421E+02</pdfrwt>
<totfact> 0.10116773E+05</totfact>
</mgrwt>
</event>
<event>
 5   1  0.1343823E+00  0.9239492E+02  0.7818608E-02  0.1297154E+00
         -2   -1    0    0    0  501 -0.00000000000E+00  0.00000000000E+00  0.21221020982E+02  0.21221021141E+02  0.26000000000E-02 0.  1.
          2   -1    0    0  501    0  0.00000000000E+00 -0.00000000000E+00 -0.10057034716E+03  0.10057034720E+03  0.26000000000E-02 0. -1.
         23    2    1    2    0    0  0.00000000000E+00  0.00000000000E+00 -0.79349326181E+02  0.12179136834E+03  0.92394923216E+02 0.  0.
        -13    1    3    3    0    0 -0.40085315739E+02 -0.22664561064E+02 -0.44549973247E+02  0.64072038792E+02  0.10570000000E+00 0.  1.
         13    1    3    3    0    0  0.40085315739E+02  0.22664561064E+02 -0.34799352934E+02  0.57719329546E+02  0.10570000000E+00 0. -1.
<mgrwt>
<rscale>  0 0.92394923E+02</rscale>
<asrwt>0</asrwt>
<pdfrwt beam="2">  1        2 0.15472361E-01 0.92394923E+02</pdfrwt>
<pdfrwt beam="1">  1       -2 0.32647725E-02 0.92394923E+02</pdfrwt>
<totfact> 0.11847305E+05</totfact>
</mgrwt>
</event>
<event>
 5   1  0.1343823E+00  0.8882659E+02  0.7818608E-02  0.1305718E+00
         -2   -1    0    0    0  501 -0.00000000000E+00  0.00000000000E+00  0.17398655166E+02  0.17398655360E+02  0.26000000000E-02 0. -1.
          2   -1    0    0  501    0  0.00000000000E+00 -0.00000000000E+00 -0.11337316562E+03  0.11337316565E+03  0.26000000000E-02 0.  1.
         23    2    1    2    0    0  0.00000000000E+00  0.00000000000E+00 -0.95974510458E+02  0.13077182101E+03  0.88826586750E+02 0.  0.
        -13    1    3    3    0    0  0.17034931962E+02 -0.99922148441E+01 -0.10655284673E+03  0.10836767776E+03  0.10570000000E+00 0.  1.
         13    1    3    3    0    0 -0.17034931962E+02  0.99922148441E+01  0.10578336267E+02  0.22404143258E+02  0.10570000000E+00 0. -1.
<mgrwt>
<rscale>  0 0.88826587E+02</rscale>
<asrwt>0</asrwt>
<pdfrwt beam="2">  1        2 0.17442025E-01 0.88826587E+02</pdfrwt>
<pdfrwt beam="1">  1       -2 0.26767163E-02 0.88826587E+02</pdfrwt>
<totfact> 0.13697475E+05</totfact>
</mgrwt>
</event>
<event>
 4   1  0.1343823E+00  0.1963239E+03  0.7818608E-02  0.1152878E+00
          2   -1    0    0  501    0  0.00000000000E+00  0.00000000000E+00  0.55110708019E+03  0.55110708019E+03  0.26000000000E-02 0. -1.
         -2   -1    0    0    0  501 -0.00000000000E+00 -0.00000000000E+00 -0.17484378956E+02  0.17484379149E+02  0.26000000000E-02 0.  1.
        -13    1    1    2    0    0 -0.52716831620E+02  0.81972228696E+02  0.23288221308E+03  0.25245325697E+03  0.10570000000E+00 0.  1.
         13    1    1    2    0    0  0.52716831620E+02 -0.81972228696E+02  0.30074048815E+03  0.31613820237E+03  0.10570000000E+00 0. -1.
<mgrwt>
<rscale>  0 0.19632387E+03</rscale>
<asrwt>0</asrwt>
<pdfrwt beam="1">  1        2 0.84785693E-01 0.19632387E+03</pdfrwt>
<pdfrwt beam="2">  1       -2 0.26899049E-02 0.19632387E+03</pdfrwt>
<totfact> 0.26889273E+04</totfact>
</mgrwt>
</event>
<event>
 5   1  0.1343823E+00  0.1157087E+03  0.7818608E-02  0.1250349E+00
         -2   -1    0    0    0  501 -0.00000000000E+00  0.00000000000E+00  0.26228577883E+02  0.26228578012E+02  0.26000000000E-02 0.  1.
          2   -1    0    0  501    0  0.00000000000E+00 -0.00000000000E+00 -0.12761359281E+03  0.12761359284E+03  0.26000000000E-02 0. -1.
         23    2    1    2    0    0  0.00000000000E+00  0.00000000000E+00 -0.10138501493E+03  0.15384217085E+03  0.11570865257E+03 0.  0.
        -13    1    3    3    0    0  0.18118999389E+02  0.54296110260E+02 -0.39509437866E+02  0.69551222715E+02  0.10570000000E+00 0.  1.
         13    1    3    3    0    0 -0.18118999389E+02 -0.54296110260E+02 -0.61875577063E+02  0.84290948136E+02  0.10570000000E+00 0. -1.
<mgrwt>
<rscale>  0 0.11570865E+03</rscale>
<asrwt>0</asrwt>
<pdfrwt beam="2">  1        2 0.19632860E-01 0.11570865E+03</pdfrwt>
<pdfrwt beam="1">  1       -2 0.40351659E-02 0.11570865E+03</pdfrwt>
<totfact> 0.68363909E+04</totfact>
</mgrwt>
</event>
<event>
 5   1  0.1343823E+00  0.8975400E+02  0.7818608E-02  0.1303449E+00
         -2   -1    0    0    0  501 -0.00000000000E+00  0.00000000000E+00  0.62622883218E+02  0.62622883272E+02  0.26000000000E-02 0.  1.
          2   -1    0    0  501    0  0.00000000000E+00 -0.00000000000E+00 -0.32159890275E+02  0.32159890380E+02  0.26000000000E-02 0. -1.
         23    2    1    2    0    0  0.00000000000E+00  0.00000000000E+00  0.30462992944E+02  0.94782773652E+02  0.89753998474E+02 0.  0.
        -13    1    3    3    0    0 -0.13810422080E+02 -0.35371198818E+02 -0.10026893843E+02  0.39273390947E+02  0.10570000000E+00 0. -1.
         13    1    3    3    0    0  0.13810422080E+02  0.35371198818E+02  0.40489886787E+02  0.55509382705E+02  0.10570000000E+00 0.  1.
<mgrwt>
<rscale>  0 0.89753998E+02</rscale>
<asrwt>0</asrwt>
<pdfrwt beam="2">  1        2 0.49476755E-02 0.89753998E+02</pdfrwt>
<pdfrwt beam="1">  1       -2 0.96342897E-02 0.89753998E+02</pdfrwt>
<totfact> 0.94380609E+04</totfact>
</mgrwt>
</event>
<event>
 5   1  0.1343823E+00  0.8770907E+02  0.7818608E-02  0.1308496E+00
          2   -1    0    0  501    0  0.00000000000E+00  0.00000000000E+00  0.61916735558E+02  0.61916735613E+02  0.26000000000E-02 0. -1.
         -2   -1    0    0    0  501 -0.00000000000E+00 -0.00000000000E+00 -0.31061395608E+02  0.31061395717E+02  0.26000000000E-02 0.  1.
         23    2    1    2    0    0  0.00000000000E+00  0.00000000000E+00  0.30855339950E+02  0.92978131330E+02  0.87709069669E+02 0.  0.
        -13    1    3    3    0    0  0.23022677789E+02  0.28968683263E+02 -0.95230824074E+01  0.38209011681E+02  0.10570000000E+00 0.  1.
         13    1    3    3    0    0 -0.23022677789E+02 -0.28968683263E+02  0.40378422357E+02  0.54769119649E+02  0.10570000000E+00 0. -1.
<mgrwt>
<rscale>  0 0.87709070E+02</rscale>
<asrwt>0</asrwt>
<pdfrwt beam="1">  1        2 0.95256516E-02 0.87709070E+02</pdfrwt>
<pdfrwt beam="2">  1       -2 0.47786763E-02 0.87709070E+02</pdfrwt>
<totfact> 0.11925636E+05</totfact>
</mgrwt>
</event>
<event>
 5   1  0.1343823E+00  0.9133809E+02  0.7818608E-02  0.1299643E+00
         -2   -1    0    0    0  501 -0.00000000000E+00  0.00000000000E+00  0.48487696617E+01  0.48487703588E+01  0.26000000000E-02 0.  1.
          2   -1    0    0  501    0  0.00000000000E+00 -0.00000000000E+00 -0.43014239079E+03  0.43014239080E+03  0.26000000000E-02 0. -1.
         23    2    1    2    0    0  0.00000000000E+00  0.00000000000E+00 -0.42529362113E+03  0.43499116116E+03  0.91338086865E+02 0.  0.
        -13    1    3    3    0    0 -0.24919058979E+01 -0.45215802676E+02 -0.24081042816E+03  0.24503132838E+03  0.10570000000E+00 0.  1.
         13    1    3    3    0    0  0.24919058979E+01  0.45215802676E+02 -0.18448319297E+03  0.18995983278E+03  0.10570000000E+00 0. -1.
<mgrwt>
<rscale>  0 0.91338087E+02</rscale>
<asrwt>0</asrwt>
<pdfrwt beam="2">  1        2 0.66175722E-01 0.91338087E+02</pdfrwt>
<pdfrwt beam="1">  1       -2 0.74596496E-03 0.91338087E+02</pdfrwt>
<totfact> 0.20385895E+05</totfact>
</mgrwt>
</event>
<event>
 5   1  0.1343823E+00  0.9113778E+02  0.7818608E-02  0.1300120E+00
         -2   -1    0    0    0  501 -0.00000000000E+00  0.00000000000E+00  0.31634080529E+02  0.31634080635E+02  0.26000000000E-02 0.  1.
          2   -1    0    0  501    0  0.00000000000E+00 -0.00000000000E+00 -0.65641979002E+02  0.65641979053E+02  0.26000000000E-02 0. -1.
         23    2    1    2    0    0  0.00000000000E+00  0.00000000000E+00 -0.34007898473E+02  0.97276059689E+02  0.91137778281E+02 0.  0.
        -13    1    3    3    0    0 -0.24380737901E+02  0.33547252760E+02 -0.37161753361E+02  0.55685237125E+02  0.10570000000E+00 0. -1.
         13    1    3    3    0    0  0.24380737901E+02 -0.33547252760E+02  0.31538548882E+01  0.41590822563E+02  0.10570000000E+00 0.  1.
<mgrwt>
<rscale>  0 0.91137778E+02</rscale>
<asrwt>0</asrwt>
<pdfrwt beam="2">  1        2 0.10098766E-01 0.91137778E+02</pdfrwt>
<pdfrwt beam="1">  1       -2 0.48667816E-02 0.91137778E+02</pdfrwt>
<totfact> 0.10881185E+05</totfact>
</mgrwt>
</event>
<event>
 5   1  0.1343823E+00  0.9204410E+02  0.7818608E-02  0.1297976E+00
         -2   -1    0    0    0  501 -0.00000000000E+00  0.00000000000E+00  0.10623198026E+02  0.10623198344E+02  0.26000000000E-02 0.  1.
          2   -1    0    0  501    0  0.00000000000E+00 -0.00000000000E+00 -0.19937772647E+03  0.19937772648E+03  0.26000000000E-02 0. -1.
         23    2    1    2    0    0  0.00000000000E+00  0.00000000000E+00 -0.18875452844E+03  0.21000092483E+03  0.92044100416E+02 0.  0.
        -13    1    3    3    0    0  0.41101594746E+02  0.13745895116E+02 -0.12970240611E+03  0.13675165830E+03  0.10570000000E+00 0.  1.
         13    1    3    3    0    0 -0.41101594746E+02 -0.13745895116E+02 -0.59052122330E+02  0.73249266532E+02  0.10570000000E+00 0. -1.
<mgrwt>
<rscale>  0 0.92044100E+02</rscale>
<asrwt>0</asrwt>
<pdfrwt beam="2">  1        2 0.30673494E-01 0.92044100E+02</pdfrwt>
<pdfrwt beam="1">  1       -2 0.16343383E-02 0.92044100E+02</pdfrwt>
<totfact> 0.15061167E+05</totfact>
</mgrwt>
</event>
<event>
 5   1  0.1343823E+00  0.9865993E+02  0.7818608E-02  0.1283139E+00
         -2   -1    0    0    0  501 -0.00000000000E+00  0.00000000000E+00  0.27409928985E+02  0.27409929108E+02  0.26000000000E-02 0.  1.
          2   -1    0    0  501    0  0.00000000000E+00 -0.00000000000E+00 -0.88779704861E+02  0.88779704899E+02  0.26000000000E-02 0. -1.
         23    2    1    2    0    0  0.00000000000E+00  0.00000000000E+00 -0.61369775876E+02  0.11618963401E+03  0.98659929351E+02 0.  0.
        -13    1    3    3    0    0 -0.50341854450E+00  0.25256035576E+02 -0.80584449454E+02  0.84451083057E+02  0.10570000000E+00 0. -1.
         13    1    3    3    0    0  0.50341854450E+00 -0.25256035576E+02  0.19214673577E+02  0.31738550950E+02  0.10570000000E+00 0.  1.
<mgrwt>
<rscale>  0 0.98659929E+02</rscale>
<asrwt>0</asrwt>
<pdfrwt beam="2">  1        2 0.13658416E-01 0.98659929E+02</pdfrwt>
<pdfrwt beam="1">  1       -2 0.42169122E-02 0.98659929E+02</pdfrwt>
<totfact> 0.95029486E+04</totfact>
</mgrwt>
</event>
<event>
 5   1  0.1343823E+00  0.9048034E+02  0.7818608E-02  0.1301693E+00
         -2   -1    0    0    0  501 -0.00000000000E+00  0.00000000000E+00  0.26032743706E+02  0.26032743836E+02  0.26000000000E-02 0. -1.
          2   -1    0    0  501    0  0.00000000000E+00 -0.00000000000E+00 -0.78619178363E+02  0.78619178406E+02  0.26000000000E-02 0.  1.
         23    2    1    2    0    0  0.00000000000E+00  0.00000000000E+00 -0.52586434657E+02  0.10465192224E+03  0.90480338853E+02 0.  0.
        -13    1    3    3    0    0  0.35385184210E+02 -0.28173582909E+02 -0.25258879451E+02  0.51806217765E+02  0.10570000000E+00 0. -1.
         13    1    3    3    0    0 -0.35385184210E+02  0.28173582909E+02 -0.27327555206E+02  0.52845704476E+02  0.10570000000E+00 0.  1.
<mgrwt>
<rscale>  0 0.90480339E+02</rscale>
<asrwt>0</asrwt>
<pdfrwt beam="2">  1        2 0.12095258E-01 0.90480339E+02</pdfrwt>
<pdfrwt beam="1">  1       -2 0.40050376E-02 0.90480339E+02</pdfrwt>
<totfact> 0.11674727E+05</totfact>
</mgrwt>
</event>
<event>
 5   1  0.1343823E+00  0.1059819E+03  0.7818608E-02  0.1268197E+00
          2   -1    0    0  501    0  0.00000000000E+00  0.00000000000E+00  0.42579739573E+03  0.42579739574E+03  0.26000000000E-02 0.  1.
         -2   -1    0    0    0  501 -0.00000000000E+00 -0.00000000000E+00 -0.65947827670E+01  0.65947832795E+01  0.26000000000E-02 0. -1.
         23    2    1    2    0    0  0.00000000000E+00  0.00000000000E+00  0.41920261296E+03  0.43239217902E+03  0.10598191242E+03 0.  0.
        -13    1    3    3    0    0 -0.46931526714E+02  0.20473242107E+02  0.15391321608E+03  0.16220669252E+03  0.10570000000E+00 0. -1.
         13    1    3    3    0    0  0.46931526714E+02 -0.20473242107E+02  0.26528939688E+03  0.27018548650E+03  0.10570000000E+00 0.  1.
<mgrwt>
<rscale>  0 0.10598191E+03</rscale>
<asrwt>0</asrwt>
<pdfrwt beam="1">  1        2 0.65507284E-01 0.10598191E+03</pdfrwt>
<pdfrwt beam="2">  1       -2 0.10145821E-02 0.10598191E+03</pdfrwt>
<totfact> 0.13648243E+05</totfact>
</mgrwt>
</event>
<event>
 5   1  0.1343823E+00  0.9301782E+02  0.7818608E-02  0.1295704E+00
          2   -1    0    0  501    0  0.00000000000E+00  0.00000000000E+00  0.16146631678E+02  0.16146631887E+02  0.26000000000E-02 0. -1.
         -2   -1    0    0    0  501 -0.00000000000E+00 -0.00000000000E+00 -0.13396469232E+03  0.13396469235E+03  0.26000000000E-02 0.  1.
         23    2    1    2    0    0  0.00000000000E+00  0.00000000000E+00 -0.11781806064E+03  0.15011132423E+03  0.93017816839E+02 0.  0.
        -13    1    3    3    0    0  0.35173143746E+02  0.86649946218E+01 -0.11836229153E+02  0.38109574464E+02  0.10570000000E+00 0. -1.
         13    1    3    3    0    0 -0.35173143746E+02 -0.86649946218E+01 -0.10598183149E+03  0.11200174977E+03  0.10570000000E+00 0.  1.
<mgrwt>
<rscale>  0 0.93017817E+02</rscale>
<asrwt>0</asrwt>
<pdfrwt beam="1">  1        2 0.24840973E-02 0.93017817E+02</pdfrwt>
<pdfrwt beam="2">  1       -2 0.20609952E-01 0.93017817E+02</pdfrwt>
<totfact> 0.69125235E+04</totfact>
</mgrwt>
</event>
<event>
 5   1  0.1343823E+00  0.9148322E+02  0.7818608E-02  0.1299299E+00
         -2   -1    0    0    0  501 -0.00000000000E+00  0.00000000000E+00  0.18954871864E+02  0.18954872042E+02  0.26000000000E-02 0.  1.
          2   -1    0    0  501    0  0.00000000000E+00 -0.00000000000E+00 -0.11038296654E+03  0.11038296657E+03  0.26000000000E-02 0. -1.
         23    2    1    2    0    0  0.00000000000E+00  0.00000000000E+00 -0.91428094679E+02  0.12933783862E+03  0.91483222512E+02 0.  0.
        -13    1    3    3    0    0  0.34996116812E+02  0.28653703644E+02 -0.55356959587E+02  0.71485432583E+02  0.10570000000E+00 0.  1.
         13    1    3    3    0    0 -0.34996116812E+02 -0.28653703644E+02 -0.36071135092E+02  0.57852406032E+02  0.10570000000E+00 0. -1.
<mgrwt>
<rscale>  0 0.91483223E+02</rscale>
<asrwt>0</asrwt>
<pdfrwt beam="2">  1        2 0.16981994E-01 0.91483223E+02</pdfrwt>
<pdfrwt beam="1">  1       -2 0.29161342E-02 0.91483223E+02</pdfrwt>
<totfact> 0.12531591E+05</totfact>
</mgrwt>
</event>
<event>
 5   1  0.1343823E+00  0.9164764E+02  0.7818608E-02  0.1298910E+00
         -2   -1    0    0    0  501 -0.00000000000E+00  0.00000000000E+00  0.12611463144E+02  0.12611463412E+02  0.26000000000E-02 0.  1.
          2   -1    0    0  501    0  0.00000000000E+00 -0.00000000000E+00 -0.16650111247E+03  0.16650111249E+03  0.26000000000E-02 0. -1.
         23    2    1    2    0    0  0.00000000000E+00  0.00000000000E+00 -0.15388964933E+03  0.17911257591E+03  0.91647644143E+02 0.  0.
        -13    1    3    3    0    0 -0.23370624752E+02  0.18212528381E+02 -0.14526166888E+03  0.14825264216E+03  0.10570000000E+00 0. -1.
         13    1    3    3    0    0  0.23370624752E+02 -0.18212528381E+02 -0.86279804515E+01  0.30859933741E+02  0.10570000000E+00 0.  1.
<mgrwt>
<rscale>  0 0.91647644E+02</rscale>
<asrwt>0</asrwt>
<pdfrwt beam="2">  1        2 0.25615554E-01 0.91647644E+02</pdfrwt>
<pdfrwt beam="1">  1       -2 0.19402252E-02 0.91647644E+02</pdfrwt>
<totfact> 0.14291546E+05</totfact>
</mgrwt>
</event>
<event>
 5   1  0.1343823E+00  0.8252144E+02  0.7818608E-02  0.1322044E+00
         -2   -1    0    0    0  501 -0.00000000000E+00  0.00000000000E+00  0.93060473159E+02  0.93060473196E+02  0.26000000000E-02 0.  1.
          2   -1    0    0  501    0  0.00000000000E+00 -0.00000000000E+00 -0.18293986896E+02  0.18293987081E+02  0.26000000000E-02 0. -1.
         23    2    1    2    0    0  0.00000000000E+00  0.00000000000E+00  0.74766486263E+02  0.11135446028E+03  0.82521441791E+02 0.  0.
        -13    1    3    3    0    0  0.27092055824E+02  0.13764448384E+02 -0.27920374509E+00  0.30389614267E+02  0.10570000000E+00 0. -1.
         13    1    3    3    0    0 -0.27092055824E+02 -0.13764448384E+02  0.75045690008E+02  0.80964846010E+02  0.10570000000E+00 0.  1.
<mgrwt>
<rscale>  0 0.82521442E+02</rscale>
<asrwt>0</asrwt>
<pdfrwt beam="2">  1        2 0.28144596E-02 0.82521442E+02</pdfrwt>
<pdfrwt beam="1">  1       -2 0.14316996E-01 0.82521442E+02</pdfrwt>
<totfact> 0.10438589E+05</totfact>
</mgrwt>
</event>
<event>
 5   1  0.1343823E+00  0.9120200E+02  0.7818608E-02  0.1299967E+00
         -2   -1    0    0    0  501 -0.00000000000E+00  0.00000000000E+00  0.44503968985E+01  0.44503976579E+01  0.26000000000E-02 0.  1.
          2   -1    0    0  501    0  0.00000000000E+00 -0.00000000000E+00 -0.46725072441E+03  0.46725072442E+03  0.26000000000E-02 0. -1.
         23    2    1    2    0    0  0.00000000000E+00  0.00000000000E+00 -0.46280032751E+03  0.47170112208E+03  0.91202003389E+02 0.  0.
        -13    1    3    3    0    0 -0.15142454630E+02  0.42981643252E+02 -0.22286300334E+03  0.22747449312E+03  0.10570000000E+00 0.  1.
         13    1    3    3    0    0  0.15142454630E+02 -0.42981643252E+02 -0.23993732417E+03  0.24422662896E+03  0.10570000000E+00 0. -1.
<mgrwt>
<rscale>  0 0.91202003E+02</rscale>
<asrwt>0</asrwt>
<pdfrwt beam="2">  1        2 0.71884688E-01 0.91202003E+02</pdfrwt>
<pdfrwt beam="1">  1       -2 0.68467688E-03 0.91202003E+02</pdfrwt>
<totfact> 0.21056313E+05</totfact>
</mgrwt>
</event>
<event>
 5   1  0.1343823E+00  0.9433831E+02  0.7818608E-02  0.1292673E+00
          2   -1    0    0  501    0  0.00000000000E+00  0.00000000000E+00  0.53136764135E+02  0.53136764198E+02  0.26000000000E-02 0. -1.
         -2   -1    0    0    0  501 -0.00000000000E+00 -0.00000000000E+00 -0.41871750265E+02  0.41871750345E+02  0.26000000000E-02 0.  1.
         23    2    1    2    0    0  0.00000000000E+00  0.00000000000E+00  0.11265013870E+02  0.95008514544E+02  0.94338312993E+02 0.  0.
        -13    1    3    3    0    0  0.88290248538E+00 -0.31326664414E+02  0.41136019997E+02  0.51713854370E+02  0.10570000000E+00 0. -1.
         13    1    3    3    0    0 -0.88290248538E+00  0.31326664414E+02 -0.29871006127E+02  0.43294660174E+02  0.10570000000E+00 0.  1.
<mgrwt>
<rscale>  0 0.94338313E+02</rscale>
<asrwt>0</asrwt>
<pdfrwt beam="1">  1        2 0.81748868E-02 0.94338313E+02</pdfrwt>
<pdfrwt beam="2">  1       -2 0.64418078E-02 0.94338313E+02</pdfrwt>
<totfact> 0.93185409E+04</totfact>
</mgrwt>
</event>
<event>
 5   1  0.1343823E+00  0.9280632E+02  0.7818608E-02  0.1296195E+00
         -2   -1    0    0    0  501 -0.00000000000E+00  0.00000000000E+00  0.43909935859E+03  0.43909935860E+03  0.26000000000E-02 0.  1.
          2   -1    0    0  501    0  0.00000000000E+00 -0.00000000000E+00 -0.49037943122E+01  0.49037950015E+01  0.26000000000E-02 0. -1.
         23    2    1    2    0    0  0.00000000000E+00  0.00000000000E+00  0.43419556428E+03  0.44400315360E+03  0.92806316420E+02 0.  0.
        -13    1    3    3    0    0 -0.13842611300E+02  0.43124435867E+02  0.26539372643E+03  0.26923071158E+03  0.10570000000E+00 0.  1.
         13    1    3    3    0    0  0.13842611300E+02 -0.43124435867E+02  0.16880183785E+03  0.17477244203E+03  0.10570000000E+00 0. -1.
<mgrwt>
<rscale>  0 0.92806316E+02</rscale>
<asrwt>0</asrwt>
<pdfrwt beam="2">  1        2 0.75442980E-03 0.92806316E+02</pdfrwt>
<pdfrwt beam="1">  1       -2 0.67553761E-01 0.92806316E+02</pdfrwt>
<totfact> 0.38211864E+04</totfact>
</mgrwt>
</event>
<event>
 5   1  0.1343823E+00  0.9112897E+02  0.7818608E-02  0.1300141E+00
          2   -1    0    0  501    0  0.00000000000E+00  0.00000000000E+00  0.13181444045E+02  0.13181444302E+02  0.26000000000E-02 0.  1.
         -2   -1    0    0    0  501 -0.00000000000E+00 -0.00000000000E+00 -0.15750339245E+03  0.15750339247E+03  0.26000000000E-02 0. -1.
         23    2    1    2    0    0  0.00000000000E+00  0.00000000000E+00 -0.14432194840E+03  0.17068483677E+03  0.91128967473E+02 0.  0.
        -13    1    3    3    0    0  0.35245460434E+01 -0.32886423130E+02 -0.13086017818E+03  0.13497531870E+03  0.10570000000E+00 0. -1.
         13    1    3    3    0    0 -0.35245460434E+01  0.32886423130E+02 -0.13461770220E+02  0.35709518073E+02  0.10570000000E+00 0.  1.
<mgrwt>
<rscale>  0 0.91128967E+02</rscale>
<asrwt>0</asrwt>
<pdfrwt beam="1">  1        2 0.20279146E-02 0.91128967E+02</pdfrwt>
<pdfrwt beam="2">  1       -2 0.24231290E-01 0.91128967E+02</pdfrwt>
<totfact> 0.68700901E+04</totfact>
</mgrwt>
</event>
<event>
 5   1  0.1343823E+00  0.9138525E+02  0.7818608E-02  0.1299531E+00
          2   -1    0    0  501    0  0.00000000000E+00  0.00000000000E+00  0.18432880197E+03  0.18432880198E+03  0.26000000000E-02 0. -1.
         -2   -1    0    0    0  501 -0.00000000000E+00 -0.00000000000E+00 -0.11326584721E+02  0.11326585020E+02  0.26000000000E-02 0.  1.
         23    2    1    2    0    0  0.00000000000E+00  0.00000000000E+00  0.17300221724E+03  0.19565538700E+03  0.91385246579E+02 0.  0.
        -13    1    3    3    0    0  0.33545632249E+02 -0.23959392389E+02  0.44304337780E+02  0.60516505560E+02  0.10570000000E+00 0.  1.
         13    1    3    3    0    0 -0.33545632249E+02  0.23959392389E+02  0.12869787946E+03  0.13513888144E+03  0.10570000000E+00 0. -1.
<mgrwt>
<rscale>  0 0.91385247E+02</rscale>
<asrwt>0</asrwt>
<pdfrwt beam="1">  1        2 0.28358275E-01 0.91385247E+02</pdfrwt>
<pdfrwt beam="2">  1       -2 0.17425516E-02 0.91385247E+02</pdfrwt>
<totfact> 0.14928824E+05</totfact>
</mgrwt>
</event>
<event>
 5   1  0.1343823E+00  0.9282109E+02  0.7818608E-02  0.1296160E+00
         -2   -1    0    0    0  501 -0.00000000000E+00  0.00000000000E+00  0.10189315641E+02  0.10189315973E+02  0.26000000000E-02 0. -1.
          2   -1    0    0  501    0  0.00000000000E+00 -0.00000000000E+00 -0.21139187474E+03  0.21139187475E+03  0.26000000000E-02 0.  1.
         23    2    1    2    0    0  0.00000000000E+00  0.00000000000E+00 -0.20120255910E+03  0.22158119073E+03  0.92821087567E+02 0.  0.
        -13    1    3    3    0    0 -0.30215197859E+02  0.27338298128E+02 -0.15363693651E+03  0.15894860854E+03  0.10570000000E+00 0.  1.
         13    1    3    3    0    0  0.30215197859E+02 -0.27338298128E+02 -0.47565622589E+02  0.62632582183E+02  0.10570000000E+00 0. -1.
<mgrwt>
<rscale>  0 0.92821088E+02</rscale>
<asrwt>0</asrwt>
<pdfrwt beam="2">  1        2 0.32521824E-01 0.92821088E+02</pdfrwt>
<pdfrwt beam="1">  1       -2 0.15675872E-02 0.92821088E+02</pdfrwt>
<totfact> 0.15040429E+05</totfact>
</mgrwt>
</event>
<event>
 5   1  0.1343823E+00  0.8933451E+02  0.7818608E-02  0.1304471E+00
          2   -1    0    0  501    0  0.00000000000E+00  0.00000000000E+00  0.51349532080E+02  0.51349532146E+02  0.26000000000E-02 0. -1.
         -2   -1    0    0    0  501 -0.00000000000E+00 -0.00000000000E+00 -0.38854561201E+02  0.38854561288E+02  0.26000000000E-02 0.  1.
         23    2    1    2    0    0  0.00000000000E+00  0.00000000000E+00  0.12494970879E+02  0.90204093434E+02  0.89334507190E+02 0.  0.
        -13    1    3    3    0    0  0.28119825024E+02 -0.34676543744E+02  0.48320105176E+01  0.44905976702E+02  0.10570000000E+00 0. -1.
         13    1    3    3    0    0 -0.28119825024E+02  0.34676543744E+02  0.76629603616E+01  0.45298116732E+02  0.10570000000E+00 0.  1.
<mgrwt>
<rscale>  0 0.89334507E+02</rscale>
<asrwt>0</asrwt>
<pdfrwt beam="1">  1        2 0.78999280E-02 0.89334507E+02</pdfrwt>
<pdfrwt beam="2">  1       -2 0.59776248E-02 0.89334507E+02</pdfrwt>
<totfact> 0.10785783E+05</totfact>
</mgrwt>
</event>
<event>
 5   1  0.1343823E+00  0.9256856E+02  0.7818608E-02  0.1296748E+00
         -2   -1    0    0    0  501 -0.00000000000E+00  0.00000000000E+00  0.10960529249E+03  0.10960529252E+03  0.26000000000E-02 0.  1.
          2   -1    0    0  501    0  0.00000000000E+00 -0.00000000000E+00 -0.19544991938E+02  0.19544992111E+02  0.26000000000E-02 0. -1.
         23    2    1    2    0    0  0.00000000000E+00  0.00000000000E+00  0.90060300550E+02  0.12915028463E+03  0.92568559914E+02 0.  0.
        -13    1    3    3    0    0 -0.37995110890E+01 -0.18131558775E+02  0.10420695457E+03  0.10584087236E+03  0.10570000000E+00 0.  1.
         13    1    3    3    0    0  0.37995110890E+01  0.18131558775E+02 -0.14146654018E+02  0.23309412273E+02  0.10570000000E+00 0. -1.
<mgrwt>
<rscale>  0 0.92568560E+02</rscale>
<asrwt>0</asrwt>
<pdfrwt beam="2">  1        2 0.30069219E-02 0.92568560E+02</pdfrwt>
<pdfrwt beam="1">  1       -2 0.16862353E-01 0.92568560E+02</pdfrwt>
<totfact> 0.74725128E+04</totfact>
</mgrwt>
</event>
<event>
 5   1  0.1343823E+00  0.9009837E+02  0.7818608E-02  0.1302614E+00
         -2   -1    0    0    0  501 -0.00000000000E+00  0.00000000000E+00  0.37357963964E+03  0.37357963965E+03  0.26000000000E-02 0. -1.
          2   -1    0    0  501    0  0.00000000000E+00 -0.00000000000E+00 -0.54323864049E+01  0.54323870271E+01  0.26000000000E-02 0.  1.
         23    2    1    2    0    0  0.00000000000E+00  0.00000000000E+00  0.36814725324E+03  0.37901202668E+03  0.90098370134E+02 0.  0.
        -13    1    3    3    0    0  0.20665928607E+02  0.39750642455E+02  0.20390461927E+03  0.20876852998E+03  0.10570000000E+00 0.  1.
         13    1    3    3    0    0 -0.20665928607E+02 -0.39750642455E+02  0.16424263397E+03  0.17024349670E+03  0.10570000000E+00 0. -1.
<mgrwt>
<rscale>  0 0.90098370E+02</rscale>
<asrwt>0</asrwt>
<pdfrwt beam="2">  1        2 0.83575189E-03 0.90098370E+02</pdfrwt>
<pdfrwt beam="1">  1       -2 0.57473785E-01 0.90098370E+02</pdfrwt>
<totfact> 0.46060621E+04</totfact>
</mgrwt>
</event>
<event>
 5   1  0.1343823E+00  0.9360523E+02  0.7818608E-02  0.1294349E+00
         -2   -1    0    0    0  501 -0.00000000000E+00  0.00000000000E+00  0.26206547144E+02  0.26206547273E+02  0.26000000000E-02 0.  1.
          2   -1    0    0  501    0  0.00000000000E+00 -0.00000000000E+00 -0.83585392730E+02  0.83585392770E+02  0.26000000000E-02 0. -1.
         23    2    1    2    0    0  0.00000000000E+00  0.00000000000E+00 -0.57378845586E+02  0.10979194004E+03  0.93605225162E+02 0.  0.
        -13    1    3    3    0    0  0.37722030621E+02  0.24726651124E+02 -0.43344630931E+02  0.62554992391E+02  0.10570000000E+00 0.  1.
         13    1    3    3    0    0 -0.37722030621E+02 -0.24726651124E+02 -0.14034214655E+02  0.47236947652E+02  0.10570000000E+00 0. -1.
<mgrwt>
<rscale>  0 0.93605225E+02</rscale>
<asrwt>0</asrwt>
<pdfrwt beam="2">  1        2 0.12859291E-01 0.93605225E+02</pdfrwt>
<pdfrwt beam="1">  1       -2 0.40317765E-02 0.93605225E+02</pdfrwt>
<totfact> 0.10811173E+05</totfact>
</mgrwt>
</event>
<event>
 5   1  0.1343823E+00  0.9652023E+02  0.7818608E-02  0.1287788E+00
         -2   -1    0    0    0  501 -0.00000000000E+00  0.00000000000E+00  0.60415942674E+01  0.60415948268E+01  0.26000000000E-02 0. -1.
          2   -1    0    0  501    0  0.00000000000E+00 -0.00000000000E+00 -0.38550062396E+03  0.38550062397E+03  0.26000000000E-02 0.  1.
         23    2    1    2    0    0  0.00000000000E+00  0.00000000000E+00 -0.37945902969E+03  0.39154221880E+03  0.96520225260E+02 0.  0.
        -13    1    3    3    0    0  0.27765573828E+02 -0.35336270235E+02 -0.11836961015E+03  0.12661340713E+03  0.10570000000E+00 0. -1.
         13    1    3    3    0    0 -0.27765573828E+02  0.35336270235E+02 -0.26108941954E+03  0.26492881167E+03  0.10570000000E+00 0.  1.
<mgrwt>
<rscale>  0 0.96520225E+02</rscale>
<asrwt>0</asrwt>
<pdfrwt beam="2">  1        2 0.59307769E-01 0.96520225E+02</pdfrwt>
<pdfrwt beam="1">  1       -2 0.92947639E-03 0.96520225E+02</pdfrwt>
<totfact> 0.16924741E+05</totfact>
</mgrwt>
</event>
<event>
 5   1  0.1343823E+00  0.9226604E+02  0.7818608E-02  0.1297455E+00
         -2   -1    0    0    0  501 -0.00000000000E+00  0.00000000000E+00  0.54822972304E+02  0.54822972366E+02  0.26000000000E-02 0.  1.
          2   -1    0    0  501    0  0.00000000000E+00 -0.00000000000E+00 -0.38820509465E+02  0.38820509552E+02  0.26000000000E-02 0. -1.
         23    2    1    2    0    0  0.00000000000E+00  0.00000000000E+00  0.16002462840E+02  0.93643481918E+02  0.92266044072E+02 0.  0.
        -13    1    3    3    0    0  0.10730929556E+02 -0.30658026807E+02 -0.25247214459E+02  0.41140010541E+02  0.10570000000E+00 0. -1.
         13    1    3    3    0    0 -0.10730929556E+02  0.30658026807E+02  0.41249677299E+02  0.52503471377E+02  0.10570000000E+00 0.  1.
<mgrwt>
<rscale>  0 0.92266044E+02</rscale>
<asrwt>0</asrwt>
<pdfrwt beam="2">  1        2 0.59723861E-02 0.92266044E+02</pdfrwt>
<pdfrwt beam="1">  1       -2 0.84343034E-02 0.92266044E+02</pdfrwt>
<totfact> 0.91437234E+04</totfact>
</mgrwt>
</event>
<event>
 5   1  0.1343823E+00  0.9585649E+02  0.7818608E-02  0.1289259E+00
         -2   -1    0    0    0  501 -0.00000000000E+00  0.00000000000E+00  0.30836184584E+02  0.30836184694E+02  0.26000000000E-02 0.  1.
          2   -1    0    0  501    0  0.00000000000E+00 -0.00000000000E+00 -0.74494185496E+02  0.74494185541E+02  0.26000000000E-02 0. -1.
         23    2    1    2    0    0  0.00000000000E+00  0.00000000000E+00 -0.43658000912E+02  0.10533037024E+03  0.95856485698E+02 0.  0.
        -13    1    3    3    0    0  0.22521769987E+02  0.30995682459E+02 -0.53469751540E+02  0.65779844609E+02  0.10570000000E+00 0. -1.
         13    1    3    3    0    0 -0.22521769987E+02 -0.30995682459E+02  0.98117506286E+01  0.39550525627E+02  0.10570000000E+00 0.  1.
<mgrwt>
<rscale>  0 0.95856486E+02</rscale>
<asrwt>0</asrwt>
<pdfrwt beam="2">  1        2 0.11460644E-01 0.95856486E+02</pdfrwt>
<pdfrwt beam="1">  1       -2 0.47440284E-02 0.95856486E+02</pdfrwt>
<totfact> 0.97823752E+04</totfact>
</mgrwt>
</event>
<event>
 5   1  0.1343823E+00  0.9648426E+02  0.7818608E-02  0.1287868E+00
         -2   -1    0    0    0  501 -0.00000000000E+00  0.00000000000E+00  0.13375251367E+02  0.13375251620E+02  0.26000000000E-02 0.  1.
          2   -1    0    0  501    0  0.00000000000E+00 -0.00000000000E+00 -0.17400069502E+03  0.17400069504E+03  0.26000000000E-02 0. -1.
         23    2    1    2    0    0  0.00000000000E+00  0.00000000000E+00 -0.16062544366E+03  0.18737594666E+03  0.96484259018E+02 0.  0.
        -13    1    3    3    0    0  0.20563386661E+02 -0.29535895848E+02 -0.17923161594E+02  0.40205384074E+02  0.10570000000E+00 0.  1.
         13    1    3    3    0    0 -0.20563386661E+02  0.29535895848E+02 -0.14270228206E+03  0.14717056259E+03  0.10570000000E+00 0. -1.
<mgrwt>
<rscale>  0 0.96484259E+02</rscale>
<asrwt>0</asrwt>
<pdfrwt beam="2">  1        2 0.26769336E-01 0.96484259E+02</pdfrwt>
<pdfrwt beam="1">  1       -2 0.20577311E-02 0.96484259E+02</pdfrwt>
<totfact> 0.12622603E+05</totfact>
</mgrwt>
</event>
<event>
 5   1  0.1343823E+00  0.1106874E+03  0.7818608E-02  0.1259302E+00
         -2   -1    0    0    0  501 -0.00000000000E+00  0.00000000000E+00  0.81826370773E+01  0.81826374903E+01  0.26000000000E-02 0.  1.
          2   -1    0    0  501    0  0.00000000000E+00 -0.00000000000E+00 -0.37432011694E+03  0.37432011695E+03  0.26000000000E-02 0. -1.
         23    2    1    2    0    0  0.00000000000E+00  0.00000000000E+00 -0.36613747986E+03  0.38250275444E+03  0.11068741118E+03 0.  0.
        -13    1    3    3    0    0 -0.89066990084E+01  0.54347416683E+02 -0.16415888226E+03  0.17315057258E+03  0.10570000000E+00 0.  1.
         13    1    3    3    0    0  0.89066990084E+01 -0.54347416683E+02 -0.20197859760E+03  0.20935218186E+03  0.10570000000E+00 0. -1.
<mgrwt>
<rscale>  0 0.11068741E+03</rscale>
<asrwt>0</asrwt>
<pdfrwt beam="2">  1        2 0.57587697E-01 0.11068741E+03</pdfrwt>
<pdfrwt beam="1">  1       -2 0.12588676E-02 0.11068741E+03</pdfrwt>
<totfact> 0.11577461E+05</totfact>
</mgrwt>
</event>
<event>
 5   1  0.1343823E+00  0.9265624E+02  0.7818608E-02  0.1296544E+00
         -2   -1    0    0    0  501 -0.00000000000E+00  0.00000000000E+00  0.99830628474E+01  0.99830631860E+01  0.26000000000E-02 0.  1.
          2   -1    0    0  501    0  0.00000000000E+00 -0.00000000000E+00 -0.21499359014E+03  0.21499359016E+03  0.26000000000E-02 0. -1.
         23    2    1    2    0    0  0.00000000000E+00  0.00000000000E+00 -0.20501052730E+03  0.22497665335E+03  0.92656236963E+02 0.  0.
        -13    1    3    3    0    0 -0.35648615505E+02  0.24215238979E+02 -0.61222080958E+02  0.74868925166E+02  0.10570000000E+00 0. -1.
         13    1    3    3    0    0  0.35648615505E+02 -0.24215238979E+02 -0.14378844634E+03  0.15010772818E+03  0.10570000000E+00 0.  1.
<mgrwt>
<rscale>  0 0.92656237E+02</rscale>
<asrwt>0</asrwt>
<pdfrwt beam="2">  1        2 0.33075934E-01 0.92656237E+02</pdfrwt>
<pdfrwt beam="1">  1       -2 0.15358560E-02 0.92656237E+02</pdfrwt>
<totfact> 0.15206389E+05</totfact>
</mgrwt>
</event>
<event>
 5   1  0.1343823E+00  0.1011125E+03  0.7818608E-02  0.1277974E+00
         -2   -1    0    0    0  501 -0.00000000000E+00  0.00000000000E+00  0.29522241230E+02  0.29522241345E+02  0.26000000000E-02 0.  1.
          2   -1    0    0  501    0  0.00000000000E+00 -0.00000000000E+00 -0.86576572739E+02  0.86576572778E+02  0.26000000000E-02 0. -1.
         23    2    1    2    0    0  0.00000000000E+00  0.00000000000E+00 -0.57054331508E+02  0.11609881412E+03  0.10111250119E+03 0.  0.
        -13    1    3    3    0    0  0.16412632021E+02 -0.30826751713E+02  0.13445682899E+02  0.37422729351E+02  0.10570000000E+00 0.  1.
         13    1    3    3    0    0 -0.16412632021E+02  0.30826751713E+02 -0.70500014407E+02  0.78676084771E+02  0.10570000000E+00 0. -1.
<mgrwt>
<rscale>  0 0.10111250E+03</rscale>
<asrwt>0</asrwt>
<pdfrwt beam="2">  1        2 0.13319473E-01 0.10111250E+03</pdfrwt>
<pdfrwt beam="1">  1       -2 0.45418833E-02 0.10111250E+03</pdfrwt>
<totfact> 0.88015633E+04</totfact>
</mgrwt>
</event>
<event>
 5   1  0.1343823E+00  0.6883057E+02  0.7818608E-02  0.1364116E+00
          2   -1    0    0  501    0  0.00000000000E+00  0.00000000000E+00  0.21749042237E+03  0.21749042238E+03  0.26000000000E-02 0.  1.
         -2   -1    0    0    0  501 -0.00000000000E+00 -0.00000000000E+00 -0.54458110696E+01  0.54458116902E+01  0.26000000000E-02 0. -1.
         23    2    1    2    0    0  0.00000000000E+00  0.00000000000E+00  0.21204461130E+03  0.22293623407E+03  0.68830569388E+02 0.  0.
        -13    1    3    3    0    0 -0.12403972084E+01 -0.33699193581E+02  0.12828059518E+03  0.13263897054E+03  0.10570000000E+00 0.  1.
         13    1    3    3    0    0  0.12403972084E+01  0.33699193581E+02  0.83764016119E+02  0.90297263536E+02  0.10570000000E+00 0. -1.
<mgrwt>
<rscale>  0 0.68830569E+02</rscale>
<asrwt>0</asrwt>
<pdfrwt beam="1">  1        2 0.33460062E-01 0.68830569E+02</pdfrwt>
<pdfrwt beam="2">  1       -2 0.83781721E-03 0.68830569E+02</pdfrwt>
<totfact> 0.33515532E+05</totfact>
</mgrwt>
</event>
<event>
 5   1  0.1343823E+00  0.9177626E+02  0.7818608E-02  0.1298606E+00
         -2   -1    0    0    0  501 -0.00000000000E+00  0.00000000000E+00  0.63516448514E+01  0.63516453835E+01  0.26000000000E-02 0.  1.
          2   -1    0    0  501    0  0.00000000000E+00 -0.00000000000E+00 -0.33152361170E+03  0.33152361172E+03  0.26000000000E-02 0. -1.
         23    2    1    2    0    0  0.00000000000E+00  0.00000000000E+00 -0.32517196685E+03  0.33787525710E+03  0.91776256908E+02 0.  0.
        -13    1    3    3    0    0 -0.38779623510E+02  0.15492026396E+02 -0.23261670219E+03  0.23633536213E+03  0.10570000000E+00 0. -1.
         13    1    3    3    0    0  0.38779623510E+02 -0.15492026396E+02 -0.92555264661E+02  0.10153989497E+03  0.10570000000E+00 0.  1.
<mgrwt>
<rscale>  0 0.91776257E+02</rscale>
<asrwt>0</asrwt>
<pdfrwt beam="2">  1        2 0.51003619E-01 0.91776257E+02</pdfrwt>
<pdfrwt beam="1">  1       -2 0.97717643E-03 0.91776257E+02</pdfrwt>
<totfact> 0.18321460E+05</totfact>
</mgrwt>
</event>
<event>
 5   1  0.1343823E+00  0.9051149E+02  0.7818608E-02  0.1301618E+00
          2   -1    0    0  501    0  0.00000000000E+00  0.00000000000E+00  0.29958445498E+03  0.29958445499E+03  0.26000000000E-02 0. -1.
         -2   -1    0    0    0  501 -0.00000000000E+00 -0.00000000000E+00 -0.68364113721E+01  0.68364118665E+01  0.26000000000E-02 0.  1.
         23    2    1    2    0    0  0.00000000000E+00  0.00000000000E+00  0.29274804361E+03  0.30642086686E+03  0.90511494351E+02 0.  0.
        -13    1    3    3    0    0  0.28528356876E+02 -0.33220702119E+02  0.10768672610E+03  0.11624940579E+03  0.10570000000E+00 0.  1.
         13    1    3    3    0    0 -0.28528356876E+02  0.33220702119E+02  0.18506131751E+03  0.19017146107E+03  0.10570000000E+00 0. -1.
<mgrwt>
<rscale>  0 0.90511494E+02</rscale>
<asrwt>0</asrwt>
<pdfrwt beam="1">  1        2 0.46089905E-01 0.90511494E+02</pdfrwt>
<pdfrwt beam="2">  1       -2 0.10517559E-02 0.90511494E+02</pdfrwt>
<totfact> 0.18310831E+05</totfact>
</mgrwt>
</event>
<event>
 5   1  0.1343823E+00  0.9138090E+02  0.7818608E-02  0.1299542E+00
          2   -1    0    0  501    0  0.00000000000E+00  0.00000000000E+00  0.81192347327E+02  0.81192347368E+02  0.26000000000E-02 0.  1.
         -2   -1    0    0    0  501 -0.00000000000E+00 -0.00000000000E+00 -0.25711993482E+02  0.25711993613E+02  0.26000000000E-02 0. -1.
         23    2    1    2    0    0  0.00000000000E+00  0.00000000000E+00  0.55480353845E+02  0.10690434098E+03  0.91380897664E+02 0.  0.
        -13    1    3    3    0    0  0.48057186455E+01  0.13686211833E+02 -0.22946641690E+02  0.27147133613E+02  0.10570000000E+00 0. -1.
         13    1    3    3    0    0 -0.48057186455E+01 -0.13686211833E+02  0.78426995535E+02  0.79757207368E+02  0.10570000000E+00 0.  1.
<mgrwt>
<rscale>  0 0.91380898E+02</rscale>
<asrwt>0</asrwt>
<pdfrwt beam="1">  1        2 0.12491130E-01 0.91380898E+02</pdfrwt>
<pdfrwt beam="2">  1       -2 0.39556914E-02 0.91380898E+02</pdfrwt>
<totfact> 0.11462897E+05</totfact>
</mgrwt>
</event>
<event>
 5   1  0.1343823E+00  0.8837389E+02  0.7818608E-02  0.1306838E+00
         -2   -1    0    0    0  501 -0.00000000000E+00  0.00000000000E+00  0.29444744544E+02  0.29444744658E+02  0.26000000000E-02 0.  1.
          2   -1    0    0  501    0  0.00000000000E+00 -0.00000000000E+00 -0.66310174283E+02  0.66310174334E+02  0.26000000000E-02 0. -1.
         23    2    1    2    0    0  0.00000000000E+00  0.00000000000E+00 -0.36865429739E+02  0.95754918992E+02  0.88373890948E+02 0.  0.
        -13    1    3    3    0    0  0.14713811187E+02  0.54399850000E+01  0.26325799951E+02  0.30645531354E+02  0.10570000000E+00 0.  1.
         13    1    3    3    0    0 -0.14713811187E+02 -0.54399850000E+01 -0.63191229690E+02  0.65109387638E+02  0.10570000000E+00 0. -1.
<mgrwt>
<rscale>  0 0.88373891E+02</rscale>
<asrwt>0</asrwt>
<pdfrwt beam="2">  1        2 0.10201565E-01 0.88373891E+02</pdfrwt>
<pdfrwt beam="1">  1       -2 0.45299607E-02 0.88373891E+02</pdfrwt>
<totfact> 0.11892313E+05</totfact>
</mgrwt>
</event>
<event>
 5   1  0.1343823E+00  0.9214920E+02  0.7818608E-02  0.1297729E+00
          2   -1    0    0  501    0  0.00000000000E+00  0.00000000000E+00  0.50133761018E+02  0.50133761086E+02  0.26000000000E-02 0. -1.
         -2   -1    0    0    0  501 -0.00000000000E+00 -0.00000000000E+00 -0.42344092734E+02  0.42344092814E+02  0.26000000000E-02 0.  1.
         23    2    1    2    0    0  0.00000000000E+00  0.00000000000E+00  0.77896682840E+01  0.92477853900E+02  0.92149197121E+02 0.  0.
        -13    1    3    3    0    0  0.57668715304E+01  0.22528662941E+02 -0.36022144530E+02  0.42876608193E+02  0.10570000000E+00 0.  1.
         13    1    3    3    0    0 -0.57668715304E+01 -0.22528662941E+02  0.43811812814E+02  0.49601245707E+02  0.10570000000E+00 0. -1.
<mgrwt>
<rscale>  0 0.92149197E+02</rscale>
<asrwt>0</asrwt>
<pdfrwt beam="1">  1        2 0.77128863E-02 0.92149197E+02</pdfrwt>
<pdfrwt beam="2">  1       -2 0.65144758E-02 0.92149197E+02</pdfrwt>
<totfact> 0.98127734E+04</totfact>
</mgrwt>
</event>
<event>
 5   1  0.1343823E+00  0.9207173E+02  0.7818608E-02  0.1297911E+00
         -2   -1    0    0    0  501 -0.00000000000E+00  0.00000000000E+00  0.12830295302E+02  0.12830295566E+02  0.26000000000E-02 0.  1.
          2   -1    0    0  501    0  0.00000000000E+00 -0.00000000000E+00 -0.16517944232E+03  0.16517944234E+03  0.26000000000E-02 0. -1.
         23    2    1    2    0    0  0.00000000000E+00  0.00000000000E+00 -0.15234914702E+03  0.17800973791E+03  0.92071733950E+02 0.  0.
        -13    1    3    3    0    0 -0.54158345535E+01 -0.44345025193E+02 -0.97658373123E+02  0.10739172006E+03  0.10570000000E+00 0.  1.
         13    1    3    3    0    0  0.54158345535E+01  0.44345025193E+02 -0.54690773897E+02  0.70618017851E+02  0.10570000000E+00 0. -1.
<mgrwt>
<rscale>  0 0.92071734E+02</rscale>
<asrwt>0</asrwt>
<pdfrwt beam="2">  1        2 0.25412220E-01 0.92071734E+02</pdfrwt>
<pdfrwt beam="1">  1       -2 0.19738917E-02 0.92071734E+02</pdfrwt>
<totfact> 0.14074684E+05</totfact>
</mgrwt>
</event>
<event>
 5   1  0.1343823E+00  0.8190029E+02  0.7818608E-02  0.1323744E+00
         -2   -1    0    0    0  501 -0.00000000000E+00  0.00000000000E+00  0.16654708953E+02  0.16654709156E+02  0.26000000000E-02 0.  1.
          2   -1    0    0  501    0  0.00000000000E+00 -0.00000000000E+00 -0.10068708872E+03  0.10068708875E+03  0.26000000000E-02 0. -1.
         23    2    1    2    0    0  0.00000000000E+00  0.00000000000E+00 -0.84032379765E+02  0.11734179791E+03  0.81900285024E+02 0.  0.
        -13    1    3    3    0    0  0.30094402829E+02  0.16129043953E+02 -0.96260064453E+01  0.35475207019E+02  0.10570000000E+00 0.  1.
         13    1    3    3    0    0 -0.30094402829E+02 -0.16129043953E+02 -0.74406373320E+02  0.81866590888E+02  0.10570000000E+00 0. -1.
<mgrwt>
<rscale>  0 0.81900285E+02</rscale>
<asrwt>0</asrwt>
<pdfrwt beam="2">  1        2 0.15490321E-01 0.81900285E+02</pdfrwt>
<pdfrwt beam="1">  1       -2 0.25622630E-02 0.81900285E+02</pdfrwt>
<totfact> 0.16475532E+05</totfact>
</mgrwt>
</event>
<event>
 5   1  0.1343823E+00  0.9139284E+02  0.7818608E-02  0.1299513E+00
         -2   -1    0    0    0  501 -0.00000000000E+00  0.00000000000E+00  0.10456124068E+02  0.10456124392E+02  0.26000000000E-02 0.  1.
          2   -1    0    0  501    0  0.00000000000E+00 -0.00000000000E+00 -0.19970715016E+03  0.19970715018E+03  0.26000000000E-02 0. -1.
         23    2    1    2    0    0  0.00000000000E+00  0.00000000000E+00 -0.18925102609E+03  0.21016327457E+03  0.91392839439E+02 0.  0.
        -13    1    3    3    0    0 -0.22411884234E+02 -0.23403666158E+02 -0.20533738720E+02  0.38362347984E+02  0.10570000000E+00 0.  1.
         13    1    3    3    0    0  0.22411884234E+02  0.23403666158E+02 -0.16871728737E+03  0.17180092659E+03  0.10570000000E+00 0. -1.
<mgrwt>
<rscale>  0 0.91392839E+02</rscale>
<asrwt>0</asrwt>
<pdfrwt beam="2">  1        2 0.30724174E-01 0.91392839E+02</pdfrwt>
<pdfrwt beam="1">  1       -2 0.16086346E-02 0.91392839E+02</pdfrwt>
<totfact> 0.15361498E+05</totfact>
</mgrwt>
</event>
<event>
 5   1  0.1343823E+00  0.9552047E+02  0.7818608E-02  0.1290008E+00
         -2   -1    0    0    0  501 -0.00000000000E+00  0.00000000000E+00  0.33380670537E+02  0.33380670638E+02  0.26000000000E-02 0.  1.
          2   -1    0    0  501    0  0.00000000000E+00 -0.00000000000E+00 -0.68334162560E+02  0.68334162610E+02  0.26000000000E-02 0. -1.
         23    2    1    2    0    0  0.00000000000E+00  0.00000000000E+00 -0.34953492023E+02  0.10171483325E+03  0.95520472665E+02 0.  0.
        -13    1    3    3    0    0 -0.10892931381E+02  0.44934126348E+02 -0.47297782050E+01  0.46477022700E+02  0.10570000000E+00 0.  1.
         13    1    3    3    0    0  0.10892931381E+02 -0.44934126348E+02 -0.30223713818E+02  0.55237810548E+02  0.10570000000E+00 0. -1.
<mgrwt>
<rscale>  0 0.95520473E+02</rscale>
<asrwt>0</asrwt>
<pdfrwt beam="2">  1        2 0.10512948E-01 0.95520473E+02</pdfrwt>
<pdfrwt beam="1">  1       -2 0.51354878E-02 0.95520473E+02</pdfrwt>
<totfact> 0.96394369E+04</totfact>
</mgrwt>
</event>
<event>
 5   1  0.1343823E+00  0.9228340E+02  0.7818608E-02  0.1297414E+00
         -2   -1    0    0    0  501 -0.00000000000E+00  0.00000000000E+00  0.47946882735E+02  0.47946882805E+02  0.26000000000E-02 0.  1.
          2   -1    0    0  501    0  0.00000000000E+00 -0.00000000000E+00 -0.44404476876E+02  0.44404476952E+02  0.26000000000E-02 0. -1.
         23    2    1    2    0    0  0.00000000000E+00  0.00000000000E+00  0.35424058591E+01  0.92351359757E+02  0.92283395092E+02 0.  0.
        -13    1    3    3    0    0  0.28413252049E+02  0.16142306902E+02 -0.30828210102E+02  0.44925234275E+02  0.10570000000E+00 0. -1.
         13    1    3    3    0    0 -0.28413252049E+02 -0.16142306902E+02  0.34370615961E+02  0.47426125481E+02  0.10570000000E+00 0.  1.
<mgrwt>
<rscale>  0 0.92283395E+02</rscale>
<asrwt>0</asrwt>
<pdfrwt beam="2">  1        2 0.68314580E-02 0.92283395E+02</pdfrwt>
<pdfrwt beam="1">  1       -2 0.73764435E-02 0.92283395E+02</pdfrwt>
<totfact> 0.94655544E+04</totfact>
</mgrwt>
</event>
<event>
 5   1  0.1343823E+00  0.9191474E+02  0.7818608E-02  0.1298280E+00
         -2   -1    0    0    0  501 -0.00000000000E+00  0.00000000000E+00  0.11128862305E+02  0.11128862608E+02  0.26000000000E-02 0.  1.
          2   -1    0    0  501    0  0.00000000000E+00 -0.00000000000E+00 -0.18978398114E+03  0.18978398115E+03  0.26000000000E-02 0. -1.
         23    2    1    2    0    0  0.00000000000E+00  0.00000000000E+00 -0.17865511883E+03  0.20091284376E+03  0.91914739318E+02 0.  0.
        -13    1    3    3    0    0  0.61699738478E+01  0.45239351512E+02 -0.10076969116E+03  0.11063096010E+03  0.10570000000E+00 0.  1.
         13    1    3    3    0    0 -0.61699738478E+01 -0.45239351512E+02 -0.77885427669E+02  0.90281883665E+02  0.10570000000E+00 0. -1.
<mgrwt>
<rscale>  0 0.91914739E+02</rscale>
<asrwt>0</asrwt>
<pdfrwt beam="2">  1        2 0.29197533E-01 0.91914739E+02</pdfrwt>
<pdfrwt beam="1">  1       -2 0.17121328E-02 0.91914739E+02</pdfrwt>
<totfact> 0.14851952E+05</totfact>
</mgrwt>
</event>
<event>
 5   1  0.1343823E+00  0.9361951E+02  0.7818608E-02  0.1294316E+00
         -2   -1    0    0    0  501 -0.00000000000E+00  0.00000000000E+00  0.10387220063E+03  0.10387220066E+03  0.26000000000E-02 0.  1.
          2   -1    0    0  501    0  0.00000000000E+00 -0.00000000000E+00 -0.21094700522E+02  0.21094700683E+02  0.26000000000E-02 0. -1.
         23    2    1    2    0    0  0.00000000000E+00  0.00000000000E+00  0.82777500109E+02  0.12496690135E+03  0.93619506022E+02 0.  0.
        -13    1    3    3    0    0 -0.45400076841E+02  0.14733789861E+01  0.26298346707E+02  0.52487636972E+02  0.10570000000E+00 0.  1.
         13    1    3    3    0    0  0.45400076841E+02 -0.14733789861E+01  0.56479153402E+02  0.72479264375E+02  0.10570000000E+00 0. -1.
<mgrwt>
<rscale>  0 0.93619506E+02</rscale>
<asrwt>0</asrwt>
<pdfrwt beam="2">  1        2 0.32453386E-02 0.93619506E+02</pdfrwt>
<pdfrwt beam="1">  1       -2 0.15980338E-01 0.93619506E+02</pdfrwt>
<totfact> 0.73863580E+04</totfact>
</mgrwt>
</event>
<event>
 5   1  0.1343823E+00  0.9026918E+02  0.7818608E-02  0.1302201E+00
         -2   -1    0    0    0  501 -0.00000000000E+00  0.00000000000E+00  0.57972927316E+02  0.57972927375E+02  0.26000000000E-02 0.  1.
          2   -1    0    0  501    0  0.00000000000E+00 -0.00000000000E+00 -0.35139351472E+02  0.35139351569E+02  0.26000000000E-02 0. -1.
         23    2    1    2    0    0  0.00000000000E+00  0.00000000000E+00  0.22833575844E+02  0.93112278943E+02  0.90269176933E+02 0.  0.
        -13    1    3    3    0    0  0.25323593488E+02  0.10535040848E+01 -0.27105481727E+02  0.37109467392E+02  0.10570000000E+00 0. -1.
         13    1    3    3    0    0 -0.25323593488E+02 -0.10535040848E+01  0.49939057571E+02  0.56002811551E+02  0.10570000000E+00 0.  1.
<mgrwt>
<rscale>  0 0.90269177E+02</rscale>
<asrwt>0</asrwt>
<pdfrwt beam="2">  1        2 0.54060541E-02 0.90269177E+02</pdfrwt>
<pdfrwt beam="1">  1       -2 0.89189119E-02 0.90269177E+02</pdfrwt>
<totfact> 0.94969403E+04</totfact>
</mgrwt>
</event>
<event>
 5   1  0.1343823E+00  0.9186772E+02  0.7818608E-02  0.1298391E+00
         -2   -1    0    0    0  501 -0.00000000000E+00  0.00000000000E+00  0.27959131076E+02  0.27959131197E+02  0.26000000000E-02 0.  1.
          2   -1    0    0  501    0  0.00000000000E+00 -0.00000000000E+00 -0.75464421060E+02  0.75464421105E+02  0.26000000000E-02 0. -1.
         23    2    1    2    0    0  0.00000000000E+00  0.00000000000E+00 -0.47505289984E+02  0.10342355230E+03  0.91867723355E+02 0.  0.
        -13    1    3    3    0    0 -0.37038297763E+02  0.26220838423E+02 -0.15749204418E+02  0.48035575161E+02  0.10570000000E+00 0. -1.
         13    1    3    3    0    0  0.37038297763E+02 -0.26220838423E+02 -0.31756085566E+02  0.55387977141E+02  0.10570000000E+00 0.  1.
<mgrwt>
<rscale>  0 0.91867723E+02</rscale>
<asrwt>0</asrwt>
<pdfrwt beam="2">  1        2 0.11609911E-01 0.91867723E+02</pdfrwt>
<pdfrwt beam="1">  1       -2 0.43014048E-02 0.91867723E+02</pdfrwt>
<totfact> 0.11061233E+05</totfact>
</mgrwt>
</event>
<event>
 5   1  0.1343823E+00  0.8915395E+02  0.7818608E-02  0.1304914E+00
          2   -1    0    0  501    0  0.00000000000E+00  0.00000000000E+00  0.14925598427E+02  0.14925598654E+02  0.26000000000E-02 0.  1.
         -2   -1    0    0    0  501 -0.00000000000E+00 -0.00000000000E+00 -0.13313412676E+03  0.13313412679E+03  0.26000000000E-02 0. -1.
         23    2    1    2    0    0  0.00000000000E+00  0.00000000000E+00 -0.11820852834E+03  0.14805972544E+03  0.89153946221E+02 0.  0.
        -13    1    3    3    0    0  0.44410727292E+02 -0.35468036030E+01 -0.61569101814E+02  0.75997749869E+02  0.10570000000E+00 0.  1.
         13    1    3    3    0    0 -0.44410727292E+02  0.35468036030E+01 -0.56639426523E+02  0.72061975575E+02  0.10570000000E+00 0. -1.
<mgrwt>
<rscale>  0 0.89153946E+02</rscale>
<asrwt>0</asrwt>
<pdfrwt beam="1">  1        2 0.22962460E-02 0.89153946E+02</pdfrwt>
<pdfrwt beam="2">  1       -2 0.20482173E-01 0.89153946E+02</pdfrwt>
<totfact> 0.77091274E+04</totfact>
</mgrwt>
</event>
<event>
 5   1  0.1343823E+00  0.8722770E+02  0.7818608E-02  0.1309708E+00
         -2   -1    0    0    0  501 -0.00000000000E+00  0.00000000000E+00  0.14053025006E+03  0.14053025008E+03  0.26000000000E-02 0.  1.
          2   -1    0    0  501    0  0.00000000000E+00 -0.00000000000E+00 -0.13535647651E+02  0.13535647901E+02  0.26000000000E-02 0. -1.
         23    2    1    2    0    0  0.00000000000E+00  0.00000000000E+00  0.12699460241E+03  0.15406589798E+03  0.87227701338E+02 0.  0.
        -13    1    3    3    0    0 -0.15210867999E+02  0.27798092865E+02  0.11642742535E+03  0.12066259162E+03  0.10570000000E+00 0.  1.
         13    1    3    3    0    0  0.15210867999E+02 -0.27798092865E+02  0.10567177061E+02  0.33403306359E+02  0.10570000000E+00 0. -1.
<mgrwt>
<rscale>  0 0.87227701E+02</rscale>
<asrwt>0</asrwt>
<pdfrwt beam="2">  1        2 0.20824073E-02 0.87227701E+02</pdfrwt>
<pdfrwt beam="1">  1       -2 0.21620039E-01 0.87227701E+02</pdfrwt>
<totfact> 0.79956854E+04</totfact>
</mgrwt>
</event>
<event>
 5   1  0.1343823E+00  0.9221352E+02  0.7818608E-02  0.1297578E+00
         -2   -1    0    0    0  501 -0.00000000000E+00  0.00000000000E+00  0.91547863635E+01  0.91547867328E+01  0.26000000000E-02 0.  1.
          2   -1    0    0  501    0  0.00000000000E+00 -0.00000000000E+00 -0.23221003363E+03  0.23221003365E+03  0.26000000000E-02 0. -1.
         23    2    1    2    0    0  0.00000000000E+00  0.00000000000E+00 -0.22305524727E+03  0.24136482038E+03  0.92213519522E+02 0.  0.
        -13    1    3    3    0    0 -0.32208738900E+02 -0.15413670718E+02 -0.35178718085E+02  0.50125218055E+02  0.10570000000E+00 0.  1.
         13    1    3    3    0    0  0.32208738900E+02  0.15413670718E+02 -0.18787652918E+03  0.19123960232E+03  0.10570000000E+00 0. -1.
<mgrwt>
<rscale>  0 0.92213520E+02</rscale>
<asrwt>0</asrwt>
<pdfrwt beam="2">  1        2 0.35724616E-01 0.92213520E+02</pdfrwt>
<pdfrwt beam="1">  1       -2 0.14084289E-02 0.92213520E+02</pdfrwt>
<totfact> 0.15846166E+05</totfact>
</mgrwt>
</event>
<event>
 5   1  0.1343823E+00  0.9495606E+02  0.7818608E-02  0.1291275E+00
         -2   -1    0    0    0  501 -0.00000000000E+00  0.00000000000E+00  0.85620394723E+02  0.85620394763E+02  0.26000000000E-02 0.  1.
          2   -1    0    0  501    0  0.00000000000E+00 -0.00000000000E+00 -0.26327408667E+02  0.26327408795E+02  0.26000000000E-02 0. -1.
         23    2    1    2    0    0  0.00000000000E+00  0.00000000000E+00  0.59292986057E+02  0.11194780356E+03  0.94956055762E+02 0.  0.
        -13    1    3    3    0    0 -0.20607575920E+02  0.42183864214E+02  0.21309990655E+02  0.51558485815E+02  0.10570000000E+00 0. -1.
         13    1    3    3    0    0  0.20607575920E+02 -0.42183864214E+02  0.37982995402E+02  0.60389317743E+02  0.10570000000E+00 0.  1.
<mgrwt>
<rscale>  0 0.94956056E+02</rscale>
<asrwt>0</asrwt>
<pdfrwt beam="2">  1        2 0.40503706E-02 0.94956056E+02</pdfrwt>
<pdfrwt beam="1">  1       -2 0.13172368E-01 0.94956056E+02</pdfrwt>
<totfact> 0.75521580E+04</totfact>
</mgrwt>
</event>
<event>
 5   1  0.1343823E+00  0.8799183E+02  0.7818608E-02  0.1307789E+00
         -2   -1    0    0    0  501 -0.00000000000E+00  0.00000000000E+00  0.61269429299E+02  0.61269429354E+02  0.26000000000E-02 0. -1.
          2   -1    0    0  501    0  0.00000000000E+00 -0.00000000000E+00 -0.31592271227E+02  0.31592271334E+02  0.26000000000E-02 0.  1.
         23    2    1    2    0    0  0.00000000000E+00  0.00000000000E+00  0.29677158072E+02  0.92861700688E+02  0.87991827709E+02 0.  0.
        -13    1    3    3    0    0 -0.37994090558E+02  0.19623412731E+02  0.25755149478E+02  0.49919616802E+02  0.10570000000E+00 0.  1.
         13    1    3    3    0    0  0.37994090558E+02 -0.19623412731E+02  0.39220085939E+01  0.42942083886E+02  0.10570000000E+00 0. -1.
<mgrwt>
<rscale>  0 0.87991828E+02</rscale>
<asrwt>0</asrwt>
<pdfrwt beam="2">  1        2 0.48603495E-02 0.87991828E+02</pdfrwt>
<pdfrwt beam="1">  1       -2 0.94260660E-02 0.87991828E+02</pdfrwt>
<totfact> 0.99570245E+04</totfact>
</mgrwt>
</event>
<event>
 5   1  0.1343823E+00  0.9663757E+02  0.7818608E-02  0.1287530E+00
          2   -1    0    0  501    0  0.00000000000E+00  0.00000000000E+00  0.61089062188E+02  0.61089062243E+02  0.26000000000E-02 0. -1.
         -2   -1    0    0    0  501 -0.00000000000E+00 -0.00000000000E+00 -0.38218048545E+02  0.38218048633E+02  0.26000000000E-02 0.  1.
         23    2    1    2    0    0  0.00000000000E+00  0.00000000000E+00  0.22871013643E+02  0.99307110877E+02  0.96637565189E+02 0.  0.
        -13    1    3    3    0    0 -0.19862542249E+01 -0.35835514741E+02  0.44679816331E+02  0.57309916092E+02  0.10570000000E+00 0.  1.
         13    1    3    3    0    0  0.19862542249E+01  0.35835514741E+02 -0.21808802688E+02  0.41997194785E+02  0.10570000000E+00 0. -1.
<mgrwt>
<rscale>  0 0.96637565E+02</rscale>
<asrwt>0</asrwt>
<pdfrwt beam="1">  1        2 0.93983173E-02 0.96637565E+02</pdfrwt>
<pdfrwt beam="2">  1       -2 0.58796998E-02 0.96637565E+02</pdfrwt>
<totfact> 0.90380253E+04</totfact>
</mgrwt>
</event>
<event>
 5   1  0.1343823E+00  0.9071053E+02  0.7818608E-02  0.1301140E+00
         -2   -1    0    0    0  501 -0.00000000000E+00  0.00000000000E+00  0.14778359929E+03  0.14778359932E+03  0.26000000000E-02 0.  1.
          2   -1    0    0  501    0  0.00000000000E+00 -0.00000000000E+00 -0.13919676957E+02  0.13919677199E+02  0.26000000000E-02 0. -1.
         23    2    1    2    0    0  0.00000000000E+00  0.00000000000E+00  0.13386392234E+03  0.16170327652E+03  0.90710528234E+02 0.  0.
        -13    1    3    3    0    0  0.16862512777E+02  0.24406527877E+02  0.57728017748E+01  0.30221835698E+02  0.10570000000E+00 0. -1.
         13    1    3    3    0    0 -0.16862512777E+02 -0.24406527877E+02  0.12809112056E+03  0.13148144082E+03  0.10570000000E+00 0.  1.
<mgrwt>
<rscale>  0 0.90710528E+02</rscale>
<asrwt>0</asrwt>
<pdfrwt beam="2">  1        2 0.21414887E-02 0.90710528E+02</pdfrwt>
<pdfrwt beam="1">  1       -2 0.22735940E-01 0.90710528E+02</pdfrwt>
<totfact> 0.71151409E+04</totfact>
</mgrwt>
</event>
<event>
 5   1  0.1343823E+00  0.9168085E+02  0.7818608E-02  0.1298832E+00
         -2   -1    0    0    0  501 -0.00000000000E+00  0.00000000000E+00  0.24481464839E+03  0.24481464840E+03  0.26000000000E-02 0.  1.
          2   -1    0    0  501    0  0.00000000000E+00 -0.00000000000E+00 -0.85834093827E+01  0.85834097765E+01  0.26000000000E-02 0. -1.
         23    2    1    2    0    0  0.00000000000E+00  0.00000000000E+00  0.23623123900E+03  0.25339805818E+03  0.91680846454E+02 0.  0.
        -13    1    3    3    0    0  0.27735050111E+02 -0.21680710630E+02  0.19926592206E+03  0.20235168664E+03  0.10570000000E+00 0.  1.
         13    1    3    3    0    0 -0.27735050111E+02  0.21680710630E+02  0.36965316943E+02  0.51046371538E+02  0.10570000000E+00 0. -1.
<mgrwt>
<rscale>  0 0.91680846E+02</rscale>
<asrwt>0</asrwt>
<pdfrwt beam="2">  1        2 0.13205246E-02 0.91680846E+02</pdfrwt>
<pdfrwt beam="1">  1       -2 0.37663791E-01 0.91680846E+02</pdfrwt>
<totfact> 0.55965851E+04</totfact>
</mgrwt>
</event>
<event>
 5   1  0.1343823E+00  0.8940200E+02  0.7818608E-02  0.1304306E+00
         -2   -1    0    0    0  501 -0.00000000000E+00  0.00000000000E+00  0.12356814944E+02  0.12356815218E+02  0.26000000000E-02 0.  1.
          2   -1    0    0  501    0  0.00000000000E+00 -0.00000000000E+00 -0.16170667597E+03  0.16170667599E+03  0.26000000000E-02 0. -1.
         23    2    1    2    0    0  0.00000000000E+00  0.00000000000E+00 -0.14934986102E+03  0.17406349121E+03  0.89402002120E+02 0.  0.
        -13    1    3    3    0    0  0.27658327363E+02 -0.34082275538E+02 -0.58202121902E+02  0.72897755417E+02  0.10570000000E+00 0. -1.
         13    1    3    3    0    0 -0.27658327363E+02  0.34082275538E+02 -0.91147739121E+02  0.10116573579E+03  0.10570000000E+00 0.  1.
<mgrwt>
<rscale>  0 0.89402002E+02</rscale>
<asrwt>0</asrwt>
<pdfrwt beam="2">  1        2 0.24877949E-01 0.89402002E+02</pdfrwt>
<pdfrwt beam="1">  1       -2 0.19010486E-02 0.89402002E+02</pdfrwt>
<totfact> 0.15128897E+05</totfact>
</mgrwt>
</event>
<event>
 5   1  0.1343823E+00  0.8973501E+02  0.7818608E-02  0.1303495E+00
         -2   -1    0    0    0  501 -0.00000000000E+00  0.00000000000E+00  0.46793537332E+02  0.46793537404E+02  0.26000000000E-02 0.  1.
          2   -1    0    0  501    0  0.00000000000E+00 -0.00000000000E+00 -0.43020745921E+02  0.43020746000E+02  0.26000000000E-02 0. -1.
         23    2    1    2    0    0  0.00000000000E+00  0.00000000000E+00  0.37727914106E+01  0.89814283404E+02  0.89735007374E+02 0.  0.
        -13    1    3    3    0    0  0.41006045247E+02 -0.42543217802E+01  0.19607593627E+02  0.45651548725E+02  0.10570000000E+00 0.  1.
         13    1    3    3    0    0 -0.41006045247E+02  0.42543217802E+01 -0.15834802216E+02  0.44162734679E+02  0.10570000000E+00 0. -1.
<mgrwt>
<rscale>  0 0.89735007E+02</rscale>
<asrwt>0</asrwt>
<pdfrwt beam="2">  1        2 0.66185763E-02 0.89735007E+02</pdfrwt>
<pdfrwt beam="1">  1       -2 0.71990058E-02 0.89735007E+02</pdfrwt>
<totfact> 0.10176001E+05</totfact>
</mgrwt>
</event>
<event>
 5   1  0.1343823E+00  0.9552858E+02  0.7818608E-02  0.1289990E+00
          2   -1    0    0  501    0  0.00000000000E+00  0.00000000000E+00  0.64822296833E+01  0.64822302048E+01  0.26000000000E-02 0. -1.
         -2   -1    0    0    0  501 -0.00000000000E+00 -0.00000000000E+00 -0.35195103179E+03  0.35195103180E+03  0.26000000000E-02 0.  1.
         23    2    1    2    0    0  0.00000000000E+00  0.00000000000E+00 -0.34546880211E+03  0.35843326201E+03  0.95528582540E+02 0.  0.
        -13    1    3    3    0    0  0.11903739478E+02 -0.46247108760E+02 -0.17633772267E+03  0.18268962120E+03  0.10570000000E+00 0.  1.
         13    1    3    3    0    0 -0.11903739478E+02  0.46247108760E+02 -0.16913107944E+03  0.17574364081E+03  0.10570000000E+00 0. -1.
<mgrwt>
<rscale>  0 0.95528583E+02</rscale>
<asrwt>0</asrwt>
<pdfrwt beam="1">  1        2 0.99726642E-03 0.95528583E+02</pdfrwt>
<pdfrwt beam="2">  1       -2 0.54146298E-01 0.95528583E+02</pdfrwt>
<totfact> 0.41125877E+04</totfact>
</mgrwt>
</event>
<event>
 5   1  0.1343823E+00  0.9172281E+02  0.7818608E-02  0.1298732E+00
         -2   -1    0    0    0  501 -0.00000000000E+00  0.00000000000E+00  0.17334565832E+03  0.17334565834E+03  0.26000000000E-02 0.  1.
          2   -1    0    0  501    0  0.00000000000E+00 -0.00000000000E+00 -0.12133378498E+02  0.12133378776E+02  0.26000000000E-02 0. -1.
         23    2    1    2    0    0  0.00000000000E+00  0.00000000000E+00  0.16121227982E+03  0.18547903712E+03  0.91722810924E+02 0.  0.
        -13    1    3    3    0    0  0.45277023244E+02  0.51886383036E+00  0.95324876173E+02  0.10553256011E+03  0.10570000000E+00 0.  1.
         13    1    3    3    0    0 -0.45277023244E+02 -0.51886383036E+00  0.65887403649E+02  0.79946477006E+02  0.10570000000E+00 0. -1.
<mgrwt>
<rscale>  0 0.91722811E+02</rscale>
<asrwt>0</asrwt>
<pdfrwt beam="2">  1        2 0.18666737E-02 0.91722811E+02</pdfrwt>
<pdfrwt beam="1">  1       -2 0.26668562E-01 0.91722811E+02</pdfrwt>
<totfact> 0.65127043E+04</totfact>
</mgrwt>
</event>
<event>
 5   1  0.1343823E+00  0.9416278E+02  0.7818608E-02  0.1293073E+00
          2   -1    0    0  501    0  0.00000000000E+00  0.00000000000E+00  0.48117589301E+02  0.48117589371E+02  0.26000000000E-02 0. -1.
         -2   -1    0    0    0  501 -0.00000000000E+00 -0.00000000000E+00 -0.46067508981E+02  0.46067509055E+02  0.26000000000E-02 0.  1.
         23    2    1    2    0    0  0.00000000000E+00  0.00000000000E+00  0.20500803197E+01  0.94185098426E+02  0.94162784242E+02 0.  0.
        -13    1    3    3    0    0  0.27724698402E+02 -0.38029257556E+02  0.23531273033E+01  0.47121457027E+02  0.10570000000E+00 0.  1.
         13    1    3    3    0    0 -0.27724698402E+02  0.38029257556E+02 -0.30304698356E+00  0.47063641399E+02  0.10570000000E+00 0. -1.
<mgrwt>
<rscale>  0 0.94162784E+02</rscale>
<asrwt>0</asrwt>
<pdfrwt beam="1">  1        2 0.74027061E-02 0.94162784E+02</pdfrwt>
<pdfrwt beam="2">  1       -2 0.70873091E-02 0.94162784E+02</pdfrwt>
<totfact> 0.91226525E+04</totfact>
</mgrwt>
</event>
<event>
 5   1  0.1343823E+00  0.9154826E+02  0.7818608E-02  0.1299145E+00
          2   -1    0    0  501    0  0.00000000000E+00  0.00000000000E+00  0.18161793392E+02  0.18161793578E+02  0.26000000000E-02 0. -1.
         -2   -1    0    0    0  501 -0.00000000000E+00 -0.00000000000E+00 -0.11536697643E+03  0.11536697646E+03  0.26000000000E-02 0.  1.
         23    2    1    2    0    0  0.00000000000E+00  0.00000000000E+00 -0.97205183035E+02  0.13352877003E+03  0.91548264964E+02 0.  0.
        -13    1    3    3    0    0 -0.39700513229E+02  0.22754717165E+02 -0.46906561080E+02  0.65529722637E+02  0.10570000000E+00 0.  1.
         13    1    3    3    0    0  0.39700513229E+02 -0.22754717165E+02 -0.50298621955E+02  0.67999047398E+02  0.10570000000E+00 0. -1.
<mgrwt>
<rscale>  0 0.91548265E+02</rscale>
<asrwt>0</asrwt>
<pdfrwt beam="1">  1        2 0.27941222E-02 0.91548265E+02</pdfrwt>
<pdfrwt beam="2">  1       -2 0.17748765E-01 0.91548265E+02</pdfrwt>
<totfact> 0.75599336E+04</totfact>
</mgrwt>
</event>
<event>
 5   1  0.1343823E+00  0.9025523E+02  0.7818608E-02  0.1302235E+00
          2   -1    0    0  501    0  0.00000000000E+00  0.00000000000E+00  0.29465035082E+03  0.29465035083E+03  0.26000000000E-02 0.  1.
         -2   -1    0    0    0  501 -0.00000000000E+00 -0.00000000000E+00 -0.69115868991E+01  0.69115873881E+01  0.26000000000E-02 0. -1.
         23    2    1    2    0    0  0.00000000000E+00  0.00000000000E+00  0.28773876392E+03  0.30156193822E+03  0.90255228768E+02 0.  0.
        -13    1    3    3    0    0  0.30508997868E+02 -0.33045934343E+02  0.13152149568E+03  0.13899909254E+03  0.10570000000E+00 0.  1.
         13    1    3    3    0    0 -0.30508997868E+02  0.33045934343E+02  0.15621726824E+03  0.16256284568E+03  0.10570000000E+00 0. -1.
<mgrwt>
<rscale>  0 0.90255229E+02</rscale>
<asrwt>0</asrwt>
<pdfrwt beam="1">  1        2 0.45330824E-01 0.90255229E+02</pdfrwt>
<pdfrwt beam="2">  1       -2 0.10633211E-02 0.90255229E+02</pdfrwt>
<totfact> 0.18336017E+05</totfact>
</mgrwt>
</event>
<event>
 5   1  0.1343823E+00  0.9056020E+02  0.7818608E-02  0.1301501E+00
          2   -1    0    0  501    0  0.00000000000E+00  0.00000000000E+00  0.55397481068E+02  0.55397481129E+02  0.26000000000E-02 0.  1.
         -2   -1    0    0    0  501 -0.00000000000E+00 -0.00000000000E+00 -0.37010478039E+02  0.37010478130E+02  0.26000000000E-02 0. -1.
         23    2    1    2    0    0  0.00000000000E+00  0.00000000000E+00  0.18387003029E+02  0.92407959260E+02  0.90560195749E+02 0.  0.
        -13    1    3    3    0    0 -0.24179328315E+02 -0.84100340631E+01  0.47304008963E+02  0.53787071189E+02  0.10570000000E+00 0.  1.
         13    1    3    3    0    0  0.24179328315E+02  0.84100340631E+01 -0.28917005934E+02  0.38620888070E+02  0.10570000000E+00 0. -1.
<mgrwt>
<rscale>  0 0.90560196E+02</rscale>
<asrwt>0</asrwt>
<pdfrwt beam="1">  1        2 0.85226893E-02 0.90560196E+02</pdfrwt>
<pdfrwt beam="2">  1       -2 0.56939198E-02 0.90560196E+02</pdfrwt>
<totfact> 0.10585185E+05</totfact>
</mgrwt>
</event>
<event>
 5   1  0.1343823E+00  0.9001416E+02  0.7818608E-02  0.1302817E+00
          2   -1    0    0  501    0  0.00000000000E+00  0.00000000000E+00  0.31781315232E+02  0.31781315339E+02  0.26000000000E-02 0. -1.
         -2   -1    0    0    0  501 -0.00000000000E+00 -0.00000000000E+00 -0.63736735012E+02  0.63736735065E+02  0.26000000000E-02 0.  1.
         23    2    1    2    0    0  0.00000000000E+00  0.00000000000E+00 -0.31955419780E+02  0.95518050404E+02  0.90014160551E+02 0.  0.
        -13    1    3    3    0    0  0.18067726836E+02  0.20781292406E+02  0.21798464088E+02  0.35121063141E+02  0.10570000000E+00 0. -1.
         13    1    3    3    0    0 -0.18067726836E+02 -0.20781292406E+02 -0.53753883867E+02  0.60396987263E+02  0.10570000000E+00 0.  1.
<mgrwt>
<rscale>  0 0.90014161E+02</rscale>
<asrwt>0</asrwt>
<pdfrwt beam="1">  1        2 0.48894331E-02 0.90014161E+02</pdfrwt>
<pdfrwt beam="2">  1       -2 0.98056515E-02 0.90014161E+02</pdfrwt>
<totfact> 0.93293184E+04</totfact>
</mgrwt>
</event>
<event>
 5   1  0.1343823E+00  0.9113435E+02  0.7818608E-02  0.1300128E+00
          2   -1    0    0  501    0  0.00000000000E+00  0.00000000000E+00  0.63218836448E+02  0.63218836501E+02  0.26000000000E-02 0. -1.
         -2   -1    0    0    0  501 -0.00000000000E+00 -0.00000000000E+00 -0.32844124226E+02  0.32844124329E+02  0.26000000000E-02 0.  1.
         23    2    1    2    0    0  0.00000000000E+00  0.00000000000E+00  0.30374712221E+02  0.96062960831E+02  0.91134347537E+02 0.  0.
        -13    1    3    3    0    0 -0.14932939365E+02  0.34265419936E+02 -0.12284432476E+02  0.39345014109E+02  0.10570000000E+00 0.  1.
         13    1    3    3    0    0  0.14932939365E+02 -0.34265419936E+02  0.42659144697E+02  0.56717946721E+02  0.10570000000E+00 0. -1.
<mgrwt>
<rscale>  0 0.91134348E+02</rscale>
<asrwt>0</asrwt>
<pdfrwt beam="1">  1        2 0.97259747E-02 0.91134348E+02</pdfrwt>
<pdfrwt beam="2">  1       -2 0.50529423E-02 0.91134348E+02</pdfrwt>
<totfact> 0.10771574E+05</totfact>
</mgrwt>
</event>
<event>
 5   1  0.1343823E+00  0.9322212E+02  0.7818608E-02  0.1295231E+00
          2   -1    0    0  501    0  0.00000000000E+00  0.00000000000E+00  0.13751265635E+03  0.13751265638E+03  0.26000000000E-02 0. -1.
         -2   -1    0    0    0  501 -0.00000000000E+00 -0.00000000000E+00 -0.15799206264E+02  0.15799206478E+02  0.26000000000E-02 0.  1.
         23    2    1    2    0    0  0.00000000000E+00  0.00000000000E+00  0.12171345009E+03  0.15331186286E+03  0.93222118404E+02 0.  0.
        -13    1    3    3    0    0 -0.15292026817E+02 -0.28824379338E+02  0.61167157274E+01  0.33198137179E+02  0.10570000000E+00 0.  1.
         13    1    3    3    0    0  0.15292026817E+02  0.28824379338E+02  0.11559673436E+03  0.12011372568E+03  0.10570000000E+00 0. -1.
<mgrwt>
<rscale>  0 0.93222118E+02</rscale>
<asrwt>0</asrwt>
<pdfrwt beam="1">  1        2 0.21155793E-01 0.93222118E+02</pdfrwt>
<pdfrwt beam="2">  1       -2 0.24306472E-02 0.93222118E+02</pdfrwt>
<totfact> 0.12780589E+05</totfact>
</mgrwt>
</event>
<event>
 5   1  0.1343823E+00  0.9046285E+02  0.7818608E-02  0.1301735E+00
         -2   -1    0    0    0  501 -0.00000000000E+00  0.00000000000E+00  0.17423199632E+03  0.17423199634E+03  0.26000000000E-02 0.  1.
          2   -1    0    0  501    0  0.00000000000E+00 -0.00000000000E+00 -0.11742284245E+02  0.11742284533E+02  0.26000000000E-02 0. -1.
         23    2    1    2    0    0  0.00000000000E+00  0.00000000000E+00  0.16248971208E+03  0.18597428088E+03  0.90462846606E+02 0.  0.
        -13    1    3    3    0    0  0.41869919389E+02 -0.12702938726E+02  0.10481196073E+03  0.11357822453E+03  0.10570000000E+00 0.  1.
         13    1    3    3    0    0 -0.41869919389E+02  0.12702938726E+02  0.57677751347E+02  0.72396056348E+02  0.10570000000E+00 0. -1.
<mgrwt>
<rscale>  0 0.90462847E+02</rscale>
<asrwt>0</asrwt>
<pdfrwt beam="2">  1        2 0.18065056E-02 0.90462847E+02</pdfrwt>
<pdfrwt beam="1">  1       -2 0.26804918E-01 0.90462847E+02</pdfrwt>
<totfact> 0.67322976E+04</totfact>
</mgrwt>
</event>
<event>
 5   1  0.1343823E+00  0.8996415E+02  0.7818608E-02  0.1302939E+00
          2   -1    0    0  501    0  0.00000000000E+00  0.00000000000E+00  0.21212586849E+03  0.21212586851E+03  0.26000000000E-02 0. -1.
         -2   -1    0    0    0  501 -0.00000000000E+00 -0.00000000000E+00 -0.95386157273E+01  0.95386160817E+01  0.26000000000E-02 0.  1.
         23    2    1    2    0    0  0.00000000000E+00  0.00000000000E+00  0.20258725276E+03  0.22166448459E+03  0.89964152558E+02 0.  0.
        -13    1    3    3    0    0  0.43943017784E+02  0.15164952475E+01  0.12467977767E+03  0.13220569844E+03  0.10570000000E+00 0. -1.
         13    1    3    3    0    0 -0.43943017784E+02 -0.15164952475E+01  0.77907475096E+02  0.89458786143E+02  0.10570000000E+00 0.  1.
<mgrwt>
<rscale>  0 0.89964153E+02</rscale>
<asrwt>0</asrwt>
<pdfrwt beam="1">  1        2 0.32634751E-01 0.89964153E+02</pdfrwt>
<pdfrwt beam="2">  1       -2 0.14674793E-02 0.89964153E+02</pdfrwt>
<totfact> 0.16380546E+05</totfact>
</mgrwt>
</event>
<event>
 5   1  0.1343823E+00  0.9093581E+02  0.7818608E-02  0.1300601E+00
          2   -1    0    0  501    0  0.00000000000E+00  0.00000000000E+00  0.26110122431E+02  0.26110122561E+02  0.26000000000E-02 0.  1.
         -2   -1    0    0    0  501 -0.00000000000E+00 -0.00000000000E+00 -0.79177345149E+02  0.79177345191E+02  0.26000000000E-02 0. -1.
         23    2    1    2    0    0  0.00000000000E+00  0.00000000000E+00 -0.53067222718E+02  0.10528746775E+03  0.90935805592E+02 0.  0.
        -13    1    3    3    0    0  0.86123470550E+00  0.30563274404E+02  0.12429522219E+02  0.33005448983E+02  0.10570000000E+00 0.  1.
         13    1    3    3    0    0 -0.86123470550E+00 -0.30563274404E+02 -0.65496744936E+02  0.72282018769E+02  0.10570000000E+00 0. -1.
<mgrwt>
<rscale>  0 0.90935806E+02</rscale>
<asrwt>0</asrwt>
<pdfrwt beam="1">  1        2 0.40169419E-02 0.90935806E+02</pdfrwt>
<pdfrwt beam="2">  1       -2 0.12181130E-01 0.90935806E+02</pdfrwt>
<totfact> 0.85878099E+04</totfact>
</mgrwt>
</event>
<event>
 5   1  0.1343823E+00  0.9125493E+02  0.7818608E-02  0.1299841E+00
         -2   -1    0    0    0  501 -0.00000000000E+00  0.00000000000E+00  0.94376692928E+01  0.94376696510E+01  0.26000000000E-02 0.  1.
          2   -1    0    0  501    0  0.00000000000E+00 -0.00000000000E+00 -0.22059106028E+03  0.22059106029E+03  0.26000000000E-02 0. -1.
         23    2    1    2    0    0  0.00000000000E+00  0.00000000000E+00 -0.21115339099E+03  0.23002872994E+03  0.91254929046E+02 0.  0.
        -13    1    3    3    0    0 -0.20922232253E+02  0.25970429556E+02 -0.18407016921E+03  0.18706694357E+03  0.10570000000E+00 0. -1.
         13    1    3    3    0    0  0.20922232253E+02 -0.25970429556E+02 -0.27083221780E+02  0.42961786372E+02  0.10570000000E+00 0.  1.
<mgrwt>
<rscale>  0 0.91254929E+02</rscale>
<asrwt>0</asrwt>
<pdfrwt beam="2">  1        2 0.33937082E-01 0.91254929E+02</pdfrwt>
<pdfrwt beam="1">  1       -2 0.14519493E-02 0.91254929E+02</pdfrwt>
<totfact> 0.15992920E+05</totfact>
</mgrwt>
</event>
<event>
 5   1  0.1343823E+00  0.8266487E+02  0.7818608E-02  0.1321655E+00
          2   -1    0    0  501    0  0.00000000000E+00  0.00000000000E+00  0.14737753663E+02  0.14737753893E+02  0.26000000000E-02 0. -1.
         -2   -1    0    0    0  501 -0.00000000000E+00 -0.00000000000E+00 -0.11591795820E+03  0.11591795823E+03  0.26000000000E-02 0.  1.
         23    2    1    2    0    0  0.00000000000E+00  0.00000000000E+00 -0.10118020454E+03  0.13065571213E+03  0.82664873557E+02 0.  0.
        -13    1    3    3    0    0 -0.37729974669E+02  0.97289575227E+01 -0.28794849832E+02  0.48449542334E+02  0.10570000000E+00 0. -1.
         13    1    3    3    0    0  0.37729974669E+02 -0.97289575227E+01 -0.72385354710E+02  0.82206169793E+02  0.10570000000E+00 0.  1.
<mgrwt>
<rscale>  0 0.82664874E+02</rscale>
<asrwt>0</asrwt>
<pdfrwt beam="1">  1        2 0.22673468E-02 0.82664874E+02</pdfrwt>
<pdfrwt beam="2">  1       -2 0.17833531E-01 0.82664874E+02</pdfrwt>
<totfact> 0.97472593E+04</totfact>
</mgrwt>
</event>
<event>
 5   1  0.1343823E+00  0.9080422E+02  0.7818608E-02  0.1300916E+00
          2   -1    0    0  501    0  0.00000000000E+00  0.00000000000E+00  0.20621404847E+03  0.20621404849E+03  0.26000000000E-02 0. -1.
         -2   -1    0    0    0  501 -0.00000000000E+00 -0.00000000000E+00 -0.99961747637E+01  0.99961751019E+01  0.26000000000E-02 0.  1.
         23    2    1    2    0    0  0.00000000000E+00  0.00000000000E+00  0.19621787371E+03  0.21621022359E+03  0.90804222492E+02 0.  0.
        -13    1    3    3    0    0 -0.20996777965E+02 -0.35901711874E+02  0.14146402456E+03  0.14745127676E+03  0.10570000000E+00 0. -1.
         13    1    3    3    0    0  0.20996777965E+02  0.35901711874E+02  0.54753849146E+02  0.68758946830E+02  0.10570000000E+00 0.  1.
<mgrwt>
<rscale>  0 0.90804222E+02</rscale>
<asrwt>0</asrwt>
<pdfrwt beam="1">  1        2 0.31725237E-01 0.90804222E+02</pdfrwt>
<pdfrwt beam="2">  1       -2 0.15378731E-02 0.90804222E+02</pdfrwt>
<totfact> 0.15813641E+05</totfact>
</mgrwt>
</event>
<event>
 5   1  0.1343823E+00  0.9129860E+02  0.7818608E-02  0.1299737E+00
         -2   -1    0    0    0  501 -0.00000000000E+00  0.00000000000E+00  0.97710069494E+02  0.97710069529E+02  0.26000000000E-02 0.  1.
          2   -1    0    0  501    0  0.00000000000E+00 -0.00000000000E+00 -0.21326956656E+02  0.21326956814E+02  0.26000000000E-02 0. -1.
         23    2    1    2    0    0  0.00000000000E+00  0.00000000000E+00  0.76383112838E+02  0.11903702634E+03  0.91298596450E+02 0.  0.
        -13    1    3    3    0    0 -0.44046690738E+02  0.11826440118E+02  0.35626106767E+02  0.57872327642E+02  0.10570000000E+00 0.  1.
         13    1    3    3    0    0  0.44046690738E+02 -0.11826440118E+02  0.40757006072E+02  0.61164698701E+02  0.10570000000E+00 0. -1.
<mgrwt>
<rscale>  0 0.91298596E+02</rscale>
<asrwt>0</asrwt>
<pdfrwt beam="2">  1        2 0.32810702E-02 0.91298596E+02</pdfrwt>
<pdfrwt beam="1">  1       -2 0.15032318E-01 0.91298596E+02</pdfrwt>
<totfact> 0.80090943E+04</totfact>
</mgrwt>
</event>
<event>
 5   1  0.1343823E+00  0.9356660E+02  0.7818608E-02  0.1294437E+00
         -2   -1    0    0    0  501 -0.00000000000E+00  0.00000000000E+00  0.10763366851E+03  0.10763366854E+03  0.26000000000E-02 0.  1.
          2   -1    0    0  501    0  0.00000000000E+00 -0.00000000000E+00 -0.20334504189E+02  0.20334504355E+02  0.26000000000E-02 0. -1.
         23    2    1    2    0    0  0.00000000000E+00  0.00000000000E+00  0.87299164317E+02  0.12796817289E+03  0.93566602926E+02 0.  0.
        -13    1    3    3    0    0 -0.86359843791E+01 -0.35069130257E+02  0.84318880234E+02  0.91728451745E+02  0.10570000000E+00 0.  1.
         13    1    3    3    0    0  0.86359843791E+01  0.35069130257E+02  0.29802840830E+01  0.36239721148E+02  0.10570000000E+00 0. -1.
<mgrwt>
<rscale>  0 0.93566603E+02</rscale>
<asrwt>0</asrwt>
<pdfrwt beam="2">  1        2 0.31283853E-02 0.93566603E+02</pdfrwt>
<pdfrwt beam="1">  1       -2 0.16559026E-01 0.93566603E+02</pdfrwt>
<totfact> 0.73160570E+04</totfact>
</mgrwt>
</event>
<event>
 5   1  0.1343823E+00  0.9314679E+02  0.7818608E-02  0.1295405E+00
          2   -1    0    0  501    0  0.00000000000E+00  0.00000000000E+00  0.75779091657E+02  0.75779091701E+02  0.26000000000E-02 0. -1.
         -2   -1    0    0    0  501 -0.00000000000E+00 -0.00000000000E+00 -0.28623742763E+02  0.28623742881E+02  0.26000000000E-02 0.  1.
         23    2    1    2    0    0  0.00000000000E+00  0.00000000000E+00  0.47155348894E+02  0.10440283458E+03  0.93146792428E+02 0.  0.
        -13    1    3    3    0    0  0.27863605448E+02 -0.58450610616E+01  0.64889860236E+02  0.70860781687E+02  0.10570000000E+00 0. -1.
         13    1    3    3    0    0 -0.27863605448E+02  0.58450610616E+01 -0.17734511342E+02  0.33542052895E+02  0.10570000000E+00 0.  1.
<mgrwt>
<rscale>  0 0.93146792E+02</rscale>
<asrwt>0</asrwt>
<pdfrwt beam="1">  1        2 0.11658322E-01 0.93146792E+02</pdfrwt>
<pdfrwt beam="2">  1       -2 0.44036527E-02 0.93146792E+02</pdfrwt>
<totfact> 0.10654331E+05</totfact>
</mgrwt>
</event>
<event>
 5   1  0.1343823E+00  0.9077132E+02  0.7818608E-02  0.1300995E+00
          2   -1    0    0  501    0  0.00000000000E+00  0.00000000000E+00  0.20527068864E+03  0.20527068865E+03  0.26000000000E-02 0. -1.
         -2   -1    0    0    0  501 -0.00000000000E+00 -0.00000000000E+00 -0.10034838390E+02  0.10034838726E+02  0.26000000000E-02 0.  1.
         23    2    1    2    0    0  0.00000000000E+00  0.00000000000E+00  0.19523585025E+03  0.21530552738E+03  0.90771322004E+02 0.  0.
        -13    1    3    3    0    0  0.32393748950E+02  0.29021652765E+02  0.12838354468E+03  0.13555056997E+03  0.10570000000E+00 0. -1.
         13    1    3    3    0    0 -0.32393748950E+02 -0.29021652765E+02  0.66852305563E+02  0.79754957412E+02  0.10570000000E+00 0.  1.
<mgrwt>
<rscale>  0 0.90771322E+02</rscale>
<asrwt>0</asrwt>
<pdfrwt beam="1">  1        2 0.31580105E-01 0.90771322E+02</pdfrwt>
<pdfrwt beam="2">  1       -2 0.15438214E-02 0.90771322E+02</pdfrwt>
<totfact> 0.15802735E+05</totfact>
</mgrwt>
</event>
<event>
 5   1  0.1343823E+00  0.9460587E+02  0.7818608E-02  0.1292066E+00
         -2   -1    0    0    0  501 -0.00000000000E+00  0.00000000000E+00  0.88580568830E+02  0.88580568868E+02  0.26000000000E-02 0.  1.
          2   -1    0    0  501    0  0.00000000000E+00 -0.00000000000E+00 -0.25260251503E+02  0.25260251637E+02  0.26000000000E-02 0. -1.
         23    2    1    2    0    0  0.00000000000E+00  0.00000000000E+00  0.63320317327E+02  0.11384082050E+03  0.94605865710E+02 0.  0.
        -13    1    3    3    0    0  0.41072713628E+02  0.23349269757E+02  0.34456435087E+02  0.58475749626E+02  0.10570000000E+00 0.  1.
         13    1    3    3    0    0 -0.41072713628E+02 -0.23349269757E+02  0.28863882240E+02  0.55365070878E+02  0.10570000000E+00 0. -1.
<mgrwt>
<rscale>  0 0.94605866E+02</rscale>
<asrwt>0</asrwt>
<pdfrwt beam="2">  1        2 0.38861926E-02 0.94605866E+02</pdfrwt>
<pdfrwt beam="1">  1       -2 0.13627780E-01 0.94605866E+02</pdfrwt>
<totfact> 0.75466509E+04</totfact>
</mgrwt>
</event>
<event>
 5   1  0.1343823E+00  0.9364939E+02  0.7818608E-02  0.1294247E+00
         -2   -1    0    0    0  501 -0.00000000000E+00  0.00000000000E+00  0.92011998114E+02  0.92011998151E+02  0.26000000000E-02 0.  1.
          2   -1    0    0  501    0  0.00000000000E+00 -0.00000000000E+00 -0.23828979000E+02  0.23828979142E+02  0.26000000000E-02 0. -1.
         23    2    1    2    0    0  0.00000000000E+00  0.00000000000E+00  0.68183019114E+02  0.11584097729E+03  0.93649388277E+02 0.  0.
        -13    1    3    3    0    0 -0.34742178957E+02  0.12519451078E+02  0.69702024154E+02  0.78880536241E+02  0.10570000000E+00 0.  1.
         13    1    3    3    0    0  0.34742178957E+02 -0.12519451078E+02 -0.15190050397E+01  0.36960441052E+02  0.10570000000E+00 0. -1.
<mgrwt>
<rscale>  0 0.93649388E+02</rscale>
<asrwt>0</asrwt>
<pdfrwt beam="2">  1        2 0.36659967E-02 0.93649388E+02</pdfrwt>
<pdfrwt beam="1">  1       -2 0.14155692E-01 0.93649388E+02</pdfrwt>
<totfact> 0.76533768E+04</totfact>
</mgrwt>
</event>
<event>
 5   1  0.1343823E+00  0.9751774E+02  0.7818608E-02  0.1285604E+00
         -2   -1    0    0    0  501 -0.00000000000E+00  0.00000000000E+00  0.20552626638E+02  0.20552626802E+02  0.26000000000E-02 0. -1.
          2   -1    0    0  501    0  0.00000000000E+00 -0.00000000000E+00 -0.11567510958E+03  0.11567510961E+03  0.26000000000E-02 0.  1.
         23    2    1    2    0    0  0.00000000000E+00  0.00000000000E+00 -0.95122482941E+02  0.13622773641E+03  0.97517738934E+02 0.  0.
        -13    1    3    3    0    0 -0.95804747700E+01 -0.38454215193E+02 -0.78793051508E+01  0.40405529140E+02  0.10570000000E+00 0. -1.
         13    1    3    3    0    0  0.95804747700E+01  0.38454215193E+02 -0.87243177791E+02  0.95822207271E+02  0.10570000000E+00 0.  1.
<mgrwt>
<rscale>  0 0.97517739E+02</rscale>
<asrwt>0</asrwt>
<pdfrwt beam="2">  1        2 0.17796170E-01 0.97517739E+02</pdfrwt>
<pdfrwt beam="1">  1       -2 0.31619426E-02 0.97517739E+02</pdfrwt>
<totfact> 0.10666724E+05</totfact>
</mgrwt>
</event>
<event>
 5   1  0.1343823E+00  0.9398263E+02  0.7818608E-02  0.1293484E+00
         -2   -1    0    0    0  501 -0.00000000000E+00  0.00000000000E+00  0.16492107918E+02  0.16492108123E+02  0.26000000000E-02 0. -1.
          2   -1    0    0  501    0  0.00000000000E+00 -0.00000000000E+00 -0.13389336442E+03  0.13389336445E+03  0.26000000000E-02 0.  1.
         23    2    1    2    0    0  0.00000000000E+00  0.00000000000E+00 -0.11740125650E+03  0.15038547257E+03  0.93982633136E+02 0.  0.
        -13    1    3    3    0    0  0.35545715021E+02  0.20368305126E+02 -0.21869323681E+02  0.46439683470E+02  0.10570000000E+00 0. -1.
         13    1    3    3    0    0 -0.35545715021E+02 -0.20368305126E+02 -0.95531932823E+02  0.10394578910E+03  0.10570000000E+00 0.  1.
<mgrwt>
<rscale>  0 0.93982633E+02</rscale>
<asrwt>0</asrwt>
<pdfrwt beam="2">  1        2 0.20598978E-01 0.93982633E+02</pdfrwt>
<pdfrwt beam="1">  1       -2 0.25372475E-02 0.93982633E+02</pdfrwt>
<totfact> 0.12388869E+05</totfact>
</mgrwt>
</event>
<event>
 5   1  0.1343823E+00  0.9434931E+02  0.7818608E-02  0.1292648E+00
          2   -1    0    0  501    0  0.00000000000E+00  0.00000000000E+00  0.13691576092E+02  0.13691576339E+02  0.26000000000E-02 0.  1.
         -2   -1    0    0    0  501 -0.00000000000E+00 -0.00000000000E+00 -0.16254139517E+03  0.16254139519E+03  0.26000000000E-02 0. -1.
         23    2    1    2    0    0  0.00000000000E+00  0.00000000000E+00 -0.14884981908E+03  0.17623297153E+03  0.94349306382E+02 0.  0.
        -13    1    3    3    0    0  0.35881307112E+02 -0.49105669196E+01 -0.13089091504E+03  0.13580877984E+03  0.10570000000E+00 0. -1.
         13    1    3    3    0    0 -0.35881307112E+02  0.49105669196E+01 -0.17958904037E+02  0.40424191695E+02  0.10570000000E+00 0.  1.
<mgrwt>
<rscale>  0 0.94349306E+02</rscale>
<asrwt>0</asrwt>
<pdfrwt beam="1">  1        2 0.21063965E-02 0.94349306E+02</pdfrwt>
<pdfrwt beam="2">  1       -2 0.25006367E-01 0.94349306E+02</pdfrwt>
<totfact> 0.62154383E+04</totfact>
</mgrwt>
</event>
<event>
 5   1  0.1343823E+00  0.9419666E+02  0.7818608E-02  0.1292996E+00
         -2   -1    0    0    0  501 -0.00000000000E+00  0.00000000000E+00  0.16375000685E+03  0.16375000687E+03  0.26000000000E-02 0.  1.
          2   -1    0    0  501    0  0.00000000000E+00 -0.00000000000E+00 -0.13546579660E+02  0.13546579909E+02  0.26000000000E-02 0. -1.
         23    2    1    2    0    0  0.00000000000E+00  0.00000000000E+00  0.15020342719E+03  0.17729658678E+03  0.94196656756E+02 0.  0.
        -13    1    3    3    0    0 -0.29479435979E+02 -0.32301814745E+02  0.42187651559E+02  0.60763916086E+02  0.10570000000E+00 0. -1.
         13    1    3    3    0    0  0.29479435979E+02  0.32301814745E+02  0.10801577563E+03  0.11653267069E+03  0.10570000000E+00 0.  1.
<mgrwt>
<rscale>  0 0.94196657E+02</rscale>
<asrwt>0</asrwt>
<pdfrwt beam="2">  1        2 0.20840893E-02 0.94196657E+02</pdfrwt>
<pdfrwt beam="1">  1       -2 0.25192307E-01 0.94196657E+02</pdfrwt>
<totfact> 0.62233141E+04</totfact>
</mgrwt>
</event>
<event>
 5   1  0.1343823E+00  0.9100154E+02  0.7818608E-02  0.1300444E+00
         -2   -1    0    0    0  501 -0.00000000000E+00  0.00000000000E+00  0.14996457575E+02  0.14996457800E+02  0.26000000000E-02 0. -1.
          2   -1    0    0  501    0  0.00000000000E+00 -0.00000000000E+00 -0.13805393715E+03  0.13805393717E+03  0.26000000000E-02 0.  1.
         23    2    1    2    0    0  0.00000000000E+00  0.00000000000E+00 -0.12305747958E+03  0.15305039497E+03  0.91001539121E+02 0.  0.
        -13    1    3    3    0    0 -0.17327495228E+02  0.40923790839E+02 -0.77948061181E+02  0.89726864215E+02  0.10570000000E+00 0.  1.
         13    1    3    3    0    0  0.17327495228E+02 -0.40923790839E+02 -0.45109418395E+02  0.63323530760E+02  0.10570000000E+00 0. -1.
<mgrwt>
<rscale>  0 0.91001539E+02</rscale>
<asrwt>0</asrwt>
<pdfrwt beam="2">  1        2 0.21239066E-01 0.91001539E+02</pdfrwt>
<pdfrwt beam="1">  1       -2 0.23071474E-02 0.91001539E+02</pdfrwt>
<totfact> 0.13667074E+05</totfact>
</mgrwt>
</event>
<event>
 5   1  0.1343823E+00  0.9232700E+02  0.7818608E-02  0.1297312E+00
         -2   -1    0    0    0  501 -0.00000000000E+00  0.00000000000E+00  0.11049752057E+03  0.11049752060E+03  0.26000000000E-02 0.  1.
          2   -1    0    0  501    0  0.00000000000E+00 -0.00000000000E+00 -0.19286122734E+02  0.19286122909E+02  0.26000000000E-02 0. -1.
         23    2    1    2    0    0  0.00000000000E+00  0.00000000000E+00  0.91211397837E+02  0.12978364351E+03  0.92327000533E+02 0.  0.
        -13    1    3    3    0    0 -0.74685574781E+01  0.17572448613E+02 -0.13475118208E+02  0.23370072406E+02  0.10570000000E+00 0. -1.
         13    1    3    3    0    0  0.74685574781E+01 -0.17572448613E+02  0.10468651605E+03  0.10641357110E+03  0.10570000000E+00 0.  1.
<mgrwt>
<rscale>  0 0.92327001E+02</rscale>
<asrwt>0</asrwt>
<pdfrwt beam="2">  1        2 0.29670959E-02 0.92327001E+02</pdfrwt>
<pdfrwt beam="1">  1       -2 0.16999618E-01 0.92327001E+02</pdfrwt>
<totfact> 0.75025119E+04</totfact>
</mgrwt>
</event>
<event>
 5   1  0.1343823E+00  0.9284911E+02  0.7818608E-02  0.1296095E+00
         -2   -1    0    0    0  501 -0.00000000000E+00  0.00000000000E+00  0.87896375656E+01  0.87896379501E+01  0.26000000000E-02 0. -1.
          2   -1    0    0  501    0  0.00000000000E+00 -0.00000000000E+00 -0.24520231077E+03  0.24520231078E+03  0.26000000000E-02 0.  1.
         23    2    1    2    0    0  0.00000000000E+00  0.00000000000E+00 -0.23641267320E+03  0.25399194873E+03  0.92849113997E+02 0.  0.
        -13    1    3    3    0    0 -0.10462279764E+02 -0.42822947232E+02 -0.15803295724E+03  0.16406611732E+03  0.10570000000E+00 0.  1.
         13    1    3    3    0    0  0.10462279764E+02  0.42822947232E+02 -0.78379715968E+02  0.89925831412E+02  0.10570000000E+00 0. -1.
<mgrwt>
<rscale>  0 0.92849114E+02</rscale>
<asrwt>0</asrwt>
<pdfrwt beam="2">  1        2 0.37723427E-01 0.92849114E+02</pdfrwt>
<pdfrwt beam="1">  1       -2 0.13522522E-02 0.92849114E+02</pdfrwt>
<totfact> 0.15872732E+05</totfact>
</mgrwt>
</event>
<event>
 5   1  0.1343823E+00  0.9101788E+02  0.7818608E-02  0.1300405E+00
          2   -1    0    0  501    0  0.00000000000E+00  0.00000000000E+00  0.22108309747E+02  0.22108309900E+02  0.26000000000E-02 0. -1.
         -2   -1    0    0    0  501 -0.00000000000E+00 -0.00000000000E+00 -0.93678069326E+02  0.93678069362E+02  0.26000000000E-02 0.  1.
         23    2    1    2    0    0  0.00000000000E+00  0.00000000000E+00 -0.71569759579E+02  0.11578637926E+03  0.91017883607E+02 0.  0.
        -13    1    3    3    0    0 -0.22488879948E+02  0.30770623306E+02 -0.41482193981E+01  0.38337969124E+02  0.10570000000E+00 0. -1.
         13    1    3    3    0    0  0.22488879948E+02 -0.30770623306E+02 -0.67421540181E+02  0.77448410138E+02  0.10570000000E+00 0.  1.
<mgrwt>
<rscale>  0 0.91017884E+02</rscale>
<asrwt>0</asrwt>
<pdfrwt beam="1">  1        2 0.34012785E-02 0.91017884E+02</pdfrwt>
<pdfrwt beam="2">  1       -2 0.14412010E-01 0.91017884E+02</pdfrwt>
<totfact> 0.81710105E+04</totfact>
</mgrwt>
</event>
<event>
 5   1  0.1343823E+00  0.9174712E+02  0.7818608E-02  0.1298675E+00
         -2   -1    0    0    0  501 -0.00000000000E+00  0.00000000000E+00  0.15505806451E+02  0.15505806669E+02  0.26000000000E-02 0.  1.
          2   -1    0    0  501    0  0.00000000000E+00 -0.00000000000E+00 -0.13571582486E+03  0.13571582489E+03  0.26000000000E-02 0. -1.
         23    2    1    2    0    0  0.00000000000E+00  0.00000000000E+00 -0.12021001841E+03  0.15122163156E+03  0.91747116163E+02 0.  0.
        -13    1    3    3    0    0  0.18443844194E+01 -0.28043381399E+02 -0.34532936928E+00  0.28106287891E+02  0.10570000000E+00 0.  1.
         13    1    3    3    0    0 -0.18443844194E+01  0.28043381399E+02 -0.11986468904E+03  0.12311534367E+03  0.10570000000E+00 0. -1.
<mgrwt>
<rscale>  0 0.91747116E+02</rscale>
<asrwt>0</asrwt>
<pdfrwt beam="2">  1        2 0.20879357E-01 0.91747116E+02</pdfrwt>
<pdfrwt beam="1">  1       -2 0.23855088E-02 0.91747116E+02</pdfrwt>
<totfact> 0.13290792E+05</totfact>
</mgrwt>
</event>
<event>
 5   1  0.1343823E+00  0.9196184E+02  0.7818608E-02  0.1298169E+00
         -2   -1    0    0    0  501 -0.00000000000E+00  0.00000000000E+00  0.11813674693E+03  0.11813674696E+03  0.26000000000E-02 0.  1.
          2   -1    0    0  501    0  0.00000000000E+00 -0.00000000000E+00 -0.17896590900E+02  0.17896591089E+02  0.26000000000E-02 0. -1.
         23    2    1    2    0    0  0.00000000000E+00  0.00000000000E+00  0.10024015603E+03  0.13603333805E+03  0.91961840888E+02 0.  0.
        -13    1    3    3    0    0 -0.42131550565E+02 -0.10467589284E+02  0.27706057910E+02  0.51500240736E+02  0.10570000000E+00 0. -1.
         13    1    3    3    0    0  0.42131550565E+02  0.10467589284E+02  0.72534098123E+02  0.84533097314E+02  0.10570000000E+00 0.  1.
<mgrwt>
<rscale>  0 0.91961841E+02</rscale>
<asrwt>0</asrwt>
<pdfrwt beam="2">  1        2 0.27533217E-02 0.91961841E+02</pdfrwt>
<pdfrwt beam="1">  1       -2 0.18174884E-01 0.91961841E+02</pdfrwt>
<totfact> 0.74184114E+04</totfact>
</mgrwt>
</event>
<event>
 5   1  0.1343823E+00  0.9087082E+02  0.7818608E-02  0.1300756E+00
          2   -1    0    0  501    0  0.00000000000E+00  0.00000000000E+00  0.32947496570E+03  0.32947496571E+03  0.26000000000E-02 0. -1.
         -2   -1    0    0    0  501 -0.00000000000E+00 -0.00000000000E+00 -0.62656551547E+01  0.62656556941E+01  0.26000000000E-02 0.  1.
         23    2    1    2    0    0  0.00000000000E+00  0.00000000000E+00  0.32320931054E+03  0.33574062140E+03  0.90870822808E+02 0.  0.
        -13    1    3    3    0    0  0.41665333144E+02  0.14909673723E+02  0.12355333442E+03  0.13123923184E+03  0.10570000000E+00 0.  1.
         13    1    3    3    0    0 -0.41665333144E+02 -0.14909673723E+02  0.19965597613E+03  0.20450138956E+03  0.10570000000E+00 0. -1.
<mgrwt>
<rscale>  0 0.90870823E+02</rscale>
<asrwt>0</asrwt>
<pdfrwt beam="1">  1        2 0.50688449E-01 0.90870823E+02</pdfrwt>
<pdfrwt beam="2">  1       -2 0.96394712E-03 0.90870823E+02</pdfrwt>
<totfact> 0.18768996E+05</totfact>
</mgrwt>
</event>
<event>
 5   1  0.1343823E+00  0.9085008E+02  0.7818608E-02  0.1300806E+00
         -2   -1    0    0    0  501 -0.00000000000E+00  0.00000000000E+00  0.56636308024E+01  0.56636313992E+01  0.26000000000E-02 0.  1.
          2   -1    0    0  501    0  0.00000000000E+00 -0.00000000000E+00 -0.36433062642E+03  0.36433062643E+03  0.26000000000E-02 0. -1.
         23    2    1    2    0    0  0.00000000000E+00  0.00000000000E+00 -0.35866699562E+03  0.36999425783E+03  0.90850080246E+02 0.  0.
        -13    1    3    3    0    0  0.11779248776E+02  0.40641120513E+02 -0.11204691136E+03  0.11977050094E+03  0.10570000000E+00 0.  1.
         13    1    3    3    0    0 -0.11779248776E+02 -0.40641120513E+02 -0.24662008426E+03  0.25022375688E+03  0.10570000000E+00 0. -1.
<mgrwt>
<rscale>  0 0.90850080E+02</rscale>
<asrwt>0</asrwt>
<pdfrwt beam="2">  1        2 0.56050847E-01 0.90850080E+02</pdfrwt>
<pdfrwt beam="1">  1       -2 0.87132815E-03 0.90850080E+02</pdfrwt>
<totfact> 0.19485150E+05</totfact>
</mgrwt>
</event>
<event>
 5   1  0.1343823E+00  0.9245466E+02  0.7818608E-02  0.1297014E+00
         -2   -1    0    0    0  501 -0.00000000000E+00  0.00000000000E+00  0.39815360651E+02  0.39815360736E+02  0.26000000000E-02 0.  1.
          2   -1    0    0  501    0  0.00000000000E+00 -0.00000000000E+00 -0.53671896694E+02  0.53671896757E+02  0.26000000000E-02 0. -1.
         23    2    1    2    0    0  0.00000000000E+00  0.00000000000E+00 -0.13856536044E+02  0.93487257493E+02  0.92454657657E+02 0.  0.
        -13    1    3    3    0    0 -0.24561462802E+02 -0.31774067500E+02 -0.30077140911E+02  0.50174718717E+02  0.10570000000E+00 0. -1.
         13    1    3    3    0    0  0.24561462802E+02  0.31774067500E+02  0.16220604867E+02  0.43312538776E+02  0.10570000000E+00 0.  1.
<mgrwt>
<rscale>  0 0.92454658E+02</rscale>
<asrwt>0</asrwt>
<pdfrwt beam="2">  1        2 0.82572149E-02 0.92454658E+02</pdfrwt>
<pdfrwt beam="1">  1       -2 0.61254401E-02 0.92454658E+02</pdfrwt>
<totfact> 0.98976031E+04</totfact>
</mgrwt>
</event>
<event>
 5   1  0.1343823E+00  0.8666290E+02  0.7818608E-02  0.1311140E+00
          2   -1    0    0  501    0  0.00000000000E+00  0.00000000000E+00  0.11156312013E+03  0.11156312016E+03  0.26000000000E-02 0.  1.
         -2   -1    0    0    0  501 -0.00000000000E+00 -0.00000000000E+00 -0.16830065541E+02  0.16830065742E+02  0.26000000000E-02 0. -1.
         23    2    1    2    0    0  0.00000000000E+00  0.00000000000E+00  0.94733054592E+02  0.12839318591E+03  0.86662901837E+02 0.  0.
        -13    1    3    3    0    0 -0.14532738786E+02 -0.40720315383E+02  0.51624172321E+02  0.67338034734E+02  0.10570000000E+00 0.  1.
         13    1    3    3    0    0  0.14532738786E+02  0.40720315383E+02  0.43108882271E+02  0.61055151172E+02  0.10570000000E+00 0. -1.
<mgrwt>
<rscale>  0 0.86662902E+02</rscale>
<asrwt>0</asrwt>
<pdfrwt beam="1">  1        2 0.17163557E-01 0.86662902E+02</pdfrwt>
<pdfrwt beam="2">  1       -2 0.25892409E-02 0.86662902E+02</pdfrwt>
<totfact> 0.14575966E+05</totfact>
</mgrwt>
</event>
<event>
 5   1  0.1343823E+00  0.9241992E+02  0.7818608E-02  0.1297095E+00
          2   -1    0    0  501    0  0.00000000000E+00  0.00000000000E+00  0.97531260130E+02  0.97531260165E+02  0.26000000000E-02 0. -1.
         -2   -1    0    0    0  501 -0.00000000000E+00 -0.00000000000E+00 -0.21894111217E+02  0.21894111371E+02  0.26000000000E-02 0.  1.
         23    2    1    2    0    0  0.00000000000E+00  0.00000000000E+00  0.75637148914E+02  0.11942537154E+03  0.92419917067E+02 0.  0.
        -13    1    3    3    0    0  0.10673050108E+02 -0.44839347392E+02  0.33558606997E+02  0.57014667843E+02  0.10570000000E+00 0. -1.
         13    1    3    3    0    0 -0.10673050108E+02  0.44839347392E+02  0.42078541917E+02  0.62410703693E+02  0.10570000000E+00 0.  1.
<mgrwt>
<rscale>  0 0.92419917E+02</rscale>
<asrwt>0</asrwt>
<pdfrwt beam="1">  1        2 0.15004809E-01 0.92419917E+02</pdfrwt>
<pdfrwt beam="2">  1       -2 0.33683248E-02 0.92419917E+02</pdfrwt>
<totfact> 0.11728119E+05</totfact>
</mgrwt>
</event>
<event>
 5   1  0.1343823E+00  0.9018714E+02  0.7818608E-02  0.1302399E+00
         -2   -1    0    0    0  501 -0.00000000000E+00  0.00000000000E+00  0.21506597830E+02  0.21506597987E+02  0.26000000000E-02 0.  1.
          2   -1    0    0  501    0  0.00000000000E+00 -0.00000000000E+00 -0.94549127820E+02  0.94549127855E+02  0.26000000000E-02 0. -1.
         23    2    1    2    0    0  0.00000000000E+00  0.00000000000E+00 -0.73042529990E+02  0.11605572584E+03  0.90187140511E+02 0.  0.
        -13    1    3    3    0    0  0.15729728132E+02  0.19322750477E+02 -0.84886748409E+02  0.88467871349E+02  0.10570000000E+00 0. -1.
         13    1    3    3    0    0 -0.15729728132E+02 -0.19322750477E+02  0.11844218419E+02  0.27587854494E+02  0.10570000000E+00 0.  1.
<mgrwt>
<rscale>  0 0.90187141E+02</rscale>
<asrwt>0</asrwt>
<pdfrwt beam="2">  1        2 0.14546020E-01 0.90187141E+02</pdfrwt>
<pdfrwt beam="1">  1       -2 0.33087074E-02 0.90187141E+02</pdfrwt>
<totfact> 0.12429810E+05</totfact>
</mgrwt>
</event>
<event>
 5   1  0.1343823E+00  0.8877662E+02  0.7818608E-02  0.1305842E+00
          2   -1    0    0  501    0  0.00000000000E+00  0.00000000000E+00  0.37251516089E+03  0.37251516090E+03  0.26000000000E-02 0. -1.
         -2   -1    0    0    0  501 -0.00000000000E+00 -0.00000000000E+00 -0.52892397880E+01  0.52892404270E+01  0.26000000000E-02 0.  1.
         23    2    1    2    0    0  0.00000000000E+00  0.00000000000E+00  0.36722592110E+03  0.37780440133E+03  0.88776621540E+02 0.  0.
        -13    1    3    3    0    0 -0.38962552018E+02  0.20093928150E+02  0.15398645004E+03  0.16010522908E+03  0.10570000000E+00 0.  1.
         13    1    3    3    0    0  0.38962552018E+02 -0.20093928150E+02  0.21323947106E+03  0.21769917225E+03  0.10570000000E+00 0. -1.
<mgrwt>
<rscale>  0 0.88776622E+02</rscale>
<asrwt>0</asrwt>
<pdfrwt beam="1">  1        2 0.57310030E-01 0.88776622E+02</pdfrwt>
<pdfrwt beam="2">  1       -2 0.81372917E-03 0.88776622E+02</pdfrwt>
<totfact> 0.20883004E+05</totfact>
</mgrwt>
</event>
<event>
 5   1  0.1343823E+00  0.9287903E+02  0.7818608E-02  0.1296026E+00
          2   -1    0    0  501    0  0.00000000000E+00  0.00000000000E+00  0.37781548339E+02  0.37781548429E+02  0.26000000000E-02 0. -1.
         -2   -1    0    0    0  501 -0.00000000000E+00 -0.00000000000E+00 -0.57081531471E+02  0.57081531530E+02  0.26000000000E-02 0.  1.
         23    2    1    2    0    0  0.00000000000E+00  0.00000000000E+00 -0.19299983131E+02  0.94863079959E+02  0.92879032028E+02 0.  0.
        -13    1    3    3    0    0 -0.30176402871E+02  0.25417908633E+02 -0.34666724505E+02  0.52521217902E+02  0.10570000000E+00 0.  1.
         13    1    3    3    0    0  0.30176402871E+02 -0.25417908633E+02  0.15366741374E+02  0.42341862057E+02  0.10570000000E+00 0. -1.
<mgrwt>
<rscale>  0 0.92879032E+02</rscale>
<asrwt>0</asrwt>
<pdfrwt beam="1">  1        2 0.58125459E-02 0.92879032E+02</pdfrwt>
<pdfrwt beam="2">  1       -2 0.87817741E-02 0.92879032E+02</pdfrwt>
<totfact> 0.89050292E+04</totfact>
</mgrwt>
</event>
<event>
 5   1  0.1343823E+00  0.9302988E+02  0.7818608E-02  0.1295676E+00
         -2   -1    0    0    0  501 -0.00000000000E+00  0.00000000000E+00  0.80084590758E+01  0.80084594979E+01  0.26000000000E-02 0.  1.
          2   -1    0    0  501    0  0.00000000000E+00 -0.00000000000E+00 -0.27016924765E+03  0.27016924767E+03  0.26000000000E-02 0. -1.
         23    2    1    2    0    0  0.00000000000E+00  0.00000000000E+00 -0.26216078858E+03  0.27817770716E+03  0.93029875284E+02 0.  0.
        -13    1    3    3    0    0 -0.33959568690E+02 -0.25351641329E+02 -0.73744166554E+02  0.85053931696E+02  0.10570000000E+00 0. -1.
         13    1    3    3    0    0  0.33959568690E+02  0.25351641329E+02 -0.18841662202E+03  0.19312377547E+03  0.10570000000E+00 0.  1.
<mgrwt>
<rscale>  0 0.93029875E+02</rscale>
<asrwt>0</asrwt>
<pdfrwt beam="2">  1        2 0.41564493E-01 0.93029875E+02</pdfrwt>
<pdfrwt beam="1">  1       -2 0.12320709E-02 0.93029875E+02</pdfrwt>
<totfact> 0.16371233E+05</totfact>
</mgrwt>
</event>
<event>
 5   1  0.1343823E+00  0.9191417E+02  0.7818608E-02  0.1298281E+00
         -2   -1    0    0    0  501 -0.00000000000E+00  0.00000000000E+00  0.44269767640E+02  0.44269767716E+02  0.26000000000E-02 0.  1.
          2   -1    0    0  501    0  0.00000000000E+00 -0.00000000000E+00 -0.47708709599E+02  0.47708709670E+02  0.26000000000E-02 0. -1.
         23    2    1    2    0    0  0.00000000000E+00  0.00000000000E+00 -0.34389419595E+01  0.91978477386E+02  0.91914166375E+02 0.  0.
        -13    1    3    3    0    0 -0.75419482944E+00 -0.40402503382E+02  0.20184453833E+02  0.45170282691E+02  0.10570000000E+00 0.  1.
         13    1    3    3    0    0  0.75419482944E+00  0.40402503382E+02 -0.23623395793E+02  0.46808194695E+02  0.10570000000E+00 0. -1.
<mgrwt>
<rscale>  0 0.91914166E+02</rscale>
<asrwt>0</asrwt>
<pdfrwt beam="2">  1        2 0.73398015E-02 0.91914166E+02</pdfrwt>
<pdfrwt beam="1">  1       -2 0.68107334E-02 0.91914166E+02</pdfrwt>
<totfact> 0.97569094E+04</totfact>
</mgrwt>
</event>
<event>
 5   1  0.1343823E+00  0.9069037E+02  0.7818608E-02  0.1301188E+00
          2   -1    0    0  501    0  0.00000000000E+00  0.00000000000E+00  0.11754396719E+03  0.11754396722E+03  0.26000000000E-02 0.  1.
         -2   -1    0    0    0  501 -0.00000000000E+00 -0.00000000000E+00 -0.17492909151E+02  0.17492909344E+02  0.26000000000E-02 0. -1.
         23    2    1    2    0    0  0.00000000000E+00  0.00000000000E+00  0.10005105804E+03  0.13503687656E+03  0.90690373341E+02 0.  0.
        -13    1    3    3    0    0  0.38154753448E+02 -0.88172199785E+01  0.15985094582E+02  0.42297316701E+02  0.10570000000E+00 0. -1.
         13    1    3    3    0    0 -0.38154753448E+02  0.88172199785E+01  0.84065963454E+02  0.92739559858E+02  0.10570000000E+00 0.  1.
<mgrwt>
<rscale>  0 0.90690373E+02</rscale>
<asrwt>0</asrwt>
<pdfrwt beam="1">  1        2 0.18083688E-01 0.90690373E+02</pdfrwt>
<pdfrwt beam="2">  1       -2 0.26912168E-02 0.90690373E+02</pdfrwt>
<totfact> 0.13091017E+05</totfact>
</mgrwt>
</event>
<event>
 5   1  0.1343823E+00  0.9235410E+02  0.7818608E-02  0.1297249E+00
          2   -1    0    0  501    0  0.00000000000E+00  0.00000000000E+00  0.90026557311E+02  0.90026557349E+02  0.26000000000E-02 0.  1.
         -2   -1    0    0    0  501 -0.00000000000E+00 -0.00000000000E+00 -0.23685454618E+02  0.23685454761E+02  0.26000000000E-02 0. -1.
         23    2    1    2    0    0  0.00000000000E+00  0.00000000000E+00  0.66341102694E+02  0.11371201211E+03  0.92354100025E+02 0.  0.
        -13    1    3    3    0    0  0.24356624065E+02 -0.32378103628E+02  0.58953510802E+01  0.40943290869E+02  0.10570000000E+00 0. -1.
         13    1    3    3    0    0 -0.24356624065E+02  0.32378103628E+02  0.60445751613E+02  0.72768721240E+02  0.10570000000E+00 0.  1.
<mgrwt>
<rscale>  0 0.92354100E+02</rscale>
<asrwt>0</asrwt>
<pdfrwt beam="1">  1        2 0.13850240E-01 0.92354100E+02</pdfrwt>
<pdfrwt beam="2">  1       -2 0.36439161E-02 0.92354100E+02</pdfrwt>
<totfact> 0.11471854E+05</totfact>
</mgrwt>
</event>
<event>
 5   1  0.1343823E+00  0.9400050E+02  0.7818608E-02  0.1293443E+00
          2   -1    0    0  501    0  0.00000000000E+00  0.00000000000E+00  0.18316466298E+02  0.18316466483E+02  0.26000000000E-02 0. -1.
         -2   -1    0    0    0  501 -0.00000000000E+00 -0.00000000000E+00 -0.12060316006E+03  0.12060316009E+03  0.26000000000E-02 0.  1.
         23    2    1    2    0    0  0.00000000000E+00  0.00000000000E+00 -0.10228669376E+03  0.13891962657E+03  0.94000504923E+02 0.  0.
        -13    1    3    3    0    0 -0.10309466488E+01 -0.46870771119E+02 -0.46223930947E+02  0.65837641217E+02  0.10570000000E+00 0.  1.
         13    1    3    3    0    0  0.10309466488E+01  0.46870771119E+02 -0.56062762813E+02  0.73081985352E+02  0.10570000000E+00 0. -1.
<mgrwt>
<rscale>  0 0.94000505E+02</rscale>
<asrwt>0</asrwt>
<pdfrwt beam="1">  1        2 0.28179180E-02 0.94000505E+02</pdfrwt>
<pdfrwt beam="2">  1       -2 0.18554332E-01 0.94000505E+02</pdfrwt>
<totfact> 0.69740980E+04</totfact>
</mgrwt>
</event>
<event>
 5   1  0.1343823E+00  0.1067910E+03  0.7818608E-02  0.1266631E+00
         -2   -1    0    0    0  501 -0.00000000000E+00  0.00000000000E+00  0.81635934724E+01  0.81635938864E+01  0.26000000000E-02 0.  1.
          2   -1    0    0  501    0  0.00000000000E+00 -0.00000000000E+00 -0.34924322866E+03  0.34924322867E+03  0.26000000000E-02 0. -1.
         23    2    1    2    0    0  0.00000000000E+00  0.00000000000E+00 -0.34107963518E+03  0.35740682255E+03  0.10679100744E+03 0.  0.
        -13    1    3    3    0    0 -0.41553111675E+02  0.23950429593E+02 -0.91994734939E+02  0.10374645342E+03  0.10570000000E+00 0.  1.
         13    1    3    3    0    0  0.41553111675E+02 -0.23950429593E+02 -0.24908490024E+03  0.25366036914E+03  0.10570000000E+00 0. -1.
<mgrwt>
<rscale>  0 0.10679101E+03</rscale>
<asrwt>0</asrwt>
<pdfrwt beam="2">  1        2 0.53729716E-01 0.10679101E+03</pdfrwt>
<pdfrwt beam="1">  1       -2 0.12559378E-02 0.10679101E+03</pdfrwt>
<totfact> 0.12432897E+05</totfact>
</mgrwt>
</event>
<event>
 5   1  0.1343823E+00  0.1113344E+03  0.7818608E-02  0.1258119E+00
         -2   -1    0    0    0  501 -0.00000000000E+00  0.00000000000E+00  0.20621878001E+02  0.20621878165E+02  0.26000000000E-02 0.  1.
          2   -1    0    0  501    0  0.00000000000E+00 -0.00000000000E+00 -0.15026940919E+03  0.15026940921E+03  0.26000000000E-02 0. -1.
         23    2    1    2    0    0  0.00000000000E+00  0.00000000000E+00 -0.12964753119E+03  0.17089128737E+03  0.11133440509E+03 0.  0.
        -13    1    3    3    0    0  0.29353545492E+02  0.19160375865E+02  0.15536155994E+01  0.35088110951E+02  0.10570000000E+00 0.  1.
         13    1    3    3    0    0 -0.29353545492E+02 -0.19160375865E+02 -0.13120114679E+03  0.13580317642E+03  0.10570000000E+00 0. -1.
<mgrwt>
<rscale>  0 0.11133441E+03</rscale>
<asrwt>0</asrwt>
<pdfrwt beam="2">  1        2 0.23118370E-01 0.11133441E+03</pdfrwt>
<pdfrwt beam="1">  1       -2 0.31725967E-02 0.11133441E+03</pdfrwt>
<totfact> 0.80746143E+04</totfact>
</mgrwt>
</event>
<event>
 5   1  0.1343823E+00  0.1037251E+03  0.7818608E-02  0.1272652E+00
          2   -1    0    0  501    0  0.00000000000E+00  0.00000000000E+00  0.23007661294E+02  0.23007661441E+02  0.26000000000E-02 0. -1.
         -2   -1    0    0    0  501 -0.00000000000E+00 -0.00000000000E+00 -0.11690558044E+03  0.11690558047E+03  0.26000000000E-02 0.  1.
         23    2    1    2    0    0  0.00000000000E+00  0.00000000000E+00 -0.93897919143E+02  0.13991324191E+03  0.10372509842E+03 0.  0.
        -13    1    3    3    0    0  0.29851913040E+02 -0.32551240441E+00 -0.10415298397E+03  0.10834711770E+03  0.10570000000E+00 0.  1.
         13    1    3    3    0    0 -0.29851913040E+02  0.32551240441E+00  0.10255064829E+02  0.31566124210E+02  0.10570000000E+00 0. -1.
<mgrwt>
<rscale>  0 0.10372510E+03</rscale>
<asrwt>0</asrwt>
<pdfrwt beam="1">  1        2 0.35396403E-02 0.10372510E+03</pdfrwt>
<pdfrwt beam="2">  1       -2 0.17985474E-01 0.10372510E+03</pdfrwt>
<totfact> 0.55055380E+04</totfact>
</mgrwt>
</event>
<event>
 5   1  0.1343823E+00  0.8947111E+02  0.7818608E-02  0.1304138E+00
          2   -1    0    0  501    0  0.00000000000E+00  0.00000000000E+00  0.20867972427E+03  0.20867972429E+03  0.26000000000E-02 0. -1.
         -2   -1    0    0    0  501 -0.00000000000E+00 -0.00000000000E+00 -0.95901503213E+01  0.95901506737E+01  0.26000000000E-02 0.  1.
         23    2    1    2    0    0  0.00000000000E+00  0.00000000000E+00  0.19908957395E+03  0.21826987496E+03  0.89471111874E+02 0.  0.
        -13    1    3    3    0    0  0.72659429381E+00 -0.37126884625E+02  0.38686504627E+02  0.53624530897E+02  0.10570000000E+00 0.  1.
         13    1    3    3    0    0 -0.72659429381E+00  0.37126884625E+02  0.16040306932E+03  0.16464534406E+03  0.10570000000E+00 0. -1.
<mgrwt>
<rscale>  0 0.89471112E+02</rscale>
<asrwt>0</asrwt>
<pdfrwt beam="1">  1        2 0.32104573E-01 0.89471112E+02</pdfrwt>
<pdfrwt beam="2">  1       -2 0.14754077E-02 0.89471112E+02</pdfrwt>
<totfact> 0.16525164E+05</totfact>
</mgrwt>
</event>
<event>
 5   1  0.1343823E+00  0.9115838E+02  0.7818608E-02  0.1300071E+00
         -2   -1    0    0    0  501 -0.00000000000E+00  0.00000000000E+00  0.60237424437E+02  0.60237424493E+02  0.26000000000E-02 0.  1.
          2   -1    0    0  501    0  0.00000000000E+00 -0.00000000000E+00 -0.34487906908E+02  0.34487907006E+02  0.26000000000E-02 0. -1.
         23    2    1    2    0    0  0.00000000000E+00  0.00000000000E+00  0.25749517529E+02  0.94725331499E+02  0.91158382909E+02 0.  0.
        -13    1    3    3    0    0 -0.62087109420E+01 -0.20451135073E+02 -0.28957830029E+02  0.35991167108E+02  0.10570000000E+00 0. -1.
         13    1    3    3    0    0  0.62087109420E+01  0.20451135073E+02  0.54707347558E+02  0.58734164390E+02  0.10570000000E+00 0.  1.
<mgrwt>
<rscale>  0 0.91158383E+02</rscale>
<asrwt>0</asrwt>
<pdfrwt beam="2">  1        2 0.53058319E-02 0.91158383E+02</pdfrwt>
<pdfrwt beam="1">  1       -2 0.92672959E-02 0.91158383E+02</pdfrwt>
<totfact> 0.91837891E+04</totfact>
</mgrwt>
</event>
<event>
 5   1  0.1343823E+00  0.9024491E+02  0.7818608E-02  0.1302260E+00
          2   -1    0    0  501    0  0.00000000000E+00  0.00000000000E+00  0.11317213203E+03  0.11317213206E+03  0.26000000000E-02 0.  1.
         -2   -1    0    0    0  501 -0.00000000000E+00 -0.00000000000E+00 -0.17990610583E+02  0.17990610771E+02  0.26000000000E-02 0. -1.
         23    2    1    2    0    0  0.00000000000E+00  0.00000000000E+00  0.95181521446E+02  0.13116274283E+03  0.90244906127E+02 0.  0.
        -13    1    3    3    0    0  0.78415138903E+01  0.29315421242E+02  0.96125505422E+02  0.10080182155E+03  0.10570000000E+00 0.  1.
         13    1    3    3    0    0 -0.78415138903E+01 -0.29315421242E+02 -0.94398397664E+00  0.30360921279E+02  0.10570000000E+00 0. -1.
<mgrwt>
<rscale>  0 0.90244906E+02</rscale>
<asrwt>0</asrwt>
<pdfrwt beam="1">  1        2 0.17411098E-01 0.90244906E+02</pdfrwt>
<pdfrwt beam="2">  1       -2 0.27677862E-02 0.90244906E+02</pdfrwt>
<totfact> 0.13110390E+05</totfact>
</mgrwt>
</event>
<event>
 5   1  0.1343823E+00  0.9665021E+02  0.7818608E-02  0.1287502E+00
         -2   -1    0    0    0  501 -0.00000000000E+00  0.00000000000E+00  0.60810175655E+01  0.60810181214E+01  0.26000000000E-02 0.  1.
          2   -1    0    0  501    0  0.00000000000E+00 -0.00000000000E+00 -0.38403371662E+03  0.38403371663E+03  0.26000000000E-02 0. -1.
         23    2    1    2    0    0  0.00000000000E+00  0.00000000000E+00 -0.37795269906E+03  0.39011473475E+03  0.96650212347E+02 0.  0.
        -13    1    3    3    0    0  0.36877228918E+02 -0.30112887160E+02 -0.15554792437E+03  0.16267109127E+03  0.10570000000E+00 0. -1.
         13    1    3    3    0    0 -0.36877228918E+02  0.30112887160E+02 -0.22240477469E+03  0.22744364349E+03  0.10570000000E+00 0.  1.
<mgrwt>
<rscale>  0 0.96650212E+02</rscale>
<asrwt>0</asrwt>
<pdfrwt beam="2">  1        2 0.59082091E-01 0.96650212E+02</pdfrwt>
<pdfrwt beam="1">  1       -2 0.93554151E-03 0.96650212E+02</pdfrwt>
<totfact> 0.16840581E+05</totfact>
</mgrwt>
</event>
<event>
 5   1  0.1343823E+00  0.9023336E+02  0.7818608E-02  0.1302288E+00
         -2   -1    0    0    0  501 -0.00000000000E+00  0.00000000000E+00  0.11328902704E+02  0.11328903002E+02  0.26000000000E-02 0.  1.
          2   -1    0    0  501    0  0.00000000000E+00 -0.00000000000E+00 -0.17967448725E+03  0.17967448727E+03  0.26000000000E-02 0. -1.
         23    2    1    2    0    0  0.00000000000E+00  0.00000000000E+00 -0.16834558455E+03  0.19100339027E+03  0.90233360011E+02 0.  0.
        -13    1    3    3    0    0 -0.33932953280E+02  0.27896713560E+02 -0.10594897868E+03  0.11469467818E+03  0.10570000000E+00 0.  1.
         13    1    3    3    0    0  0.33932953280E+02 -0.27896713560E+02 -0.62396605865E+02  0.76308712096E+02  0.10570000000E+00 0. -1.
<mgrwt>
<rscale>  0 0.90233360E+02</rscale>
<asrwt>0</asrwt>
<pdfrwt beam="2">  1        2 0.27642227E-01 0.90233360E+02</pdfrwt>
<pdfrwt beam="1">  1       -2 0.17429083E-02 0.90233360E+02</pdfrwt>
<totfact> 0.15308507E+05</totfact>
</mgrwt>
</event>
<event>
 5   1  0.1343823E+00  0.8232576E+02  0.7818608E-02  0.1322578E+00
         -2   -1    0    0    0  501 -0.00000000000E+00  0.00000000000E+00  0.37844063846E+02  0.37844063935E+02  0.26000000000E-02 0.  1.
          2   -1    0    0  501    0  0.00000000000E+00 -0.00000000000E+00 -0.44772743748E+02  0.44772743823E+02  0.26000000000E-02 0. -1.
         23    2    1    2    0    0  0.00000000000E+00  0.00000000000E+00 -0.69286799018E+01  0.82616807758E+02  0.82325757324E+02 0.  0.
        -13    1    3    3    0    0  0.32915513539E+01  0.36049947305E+02 -0.23127958865E+02  0.42957498354E+02  0.10570000000E+00 0. -1.
         13    1    3    3    0    0 -0.32915513539E+01 -0.36049947305E+02  0.16199278964E+02  0.39659309405E+02  0.10570000000E+00 0.  1.
<mgrwt>
<rscale>  0 0.82325757E+02</rscale>
<asrwt>0</asrwt>
<pdfrwt beam="2">  1        2 0.68881144E-02 0.82325757E+02</pdfrwt>
<pdfrwt beam="1">  1       -2 0.58221637E-02 0.82325757E+02</pdfrwt>
<totfact> 0.13128302E+05</totfact>
</mgrwt>
</event>
<event>
 5   1  0.1343823E+00  0.8583276E+02  0.7818608E-02  0.1313269E+00
         -2   -1    0    0    0  501 -0.00000000000E+00  0.00000000000E+00  0.21030749297E+03  0.21030749299E+03  0.26000000000E-02 0.  1.
          2   -1    0    0  501    0  0.00000000000E+00 -0.00000000000E+00 -0.87577270570E+01  0.87577274430E+01  0.26000000000E-02 0. -1.
         23    2    1    2    0    0  0.00000000000E+00  0.00000000000E+00  0.20154976592E+03  0.21906522043E+03  0.85832759842E+02 0.  0.
        -13    1    3    3    0    0 -0.57928810540E+00  0.37480205169E+02  0.15411003196E+03  0.15860332429E+03  0.10570000000E+00 0.  1.
         13    1    3    3    0    0  0.57928810540E+00 -0.37480205169E+02  0.47439733956E+02  0.60461896138E+02  0.10570000000E+00 0. -1.
<mgrwt>
<rscale>  0 0.85832760E+02</rscale>
<asrwt>0</asrwt>
<pdfrwt beam="2">  1        2 0.13473427E-02 0.85832760E+02</pdfrwt>
<pdfrwt beam="1">  1       -2 0.32354998E-01 0.85832760E+02</pdfrwt>
<totfact> 0.71117931E+04</totfact>
</mgrwt>
</event>
<event>
 5   1  0.1343823E+00  0.8855987E+02  0.7818608E-02  0.1306377E+00
          2   -1    0    0  501    0  0.00000000000E+00  0.00000000000E+00  0.86945971146E+02  0.86945971185E+02  0.26000000000E-02 0. -1.
         -2   -1    0    0    0  501 -0.00000000000E+00 -0.00000000000E+00 -0.22550930310E+02  0.22550930460E+02  0.26000000000E-02 0.  1.
         23    2    1    2    0    0  0.00000000000E+00  0.00000000000E+00  0.64395040836E+02  0.10949690165E+03  0.88559867805E+02 0.  0.
        -13    1    3    3    0    0  0.39745519503E+02  0.14590325107E+02  0.16166126363E+02  0.45320400719E+02  0.10570000000E+00 0.  1.
         13    1    3    3    0    0 -0.39745519503E+02 -0.14590325107E+02  0.48228914473E+02  0.64176500926E+02  0.10570000000E+00 0. -1.
<mgrwt>
<rscale>  0 0.88559868E+02</rscale>
<asrwt>0</asrwt>
<pdfrwt beam="1">  1        2 0.13376304E-01 0.88559868E+02</pdfrwt>
<pdfrwt beam="2">  1       -2 0.34693738E-02 0.88559868E+02</pdfrwt>
<totfact> 0.12750617E+05</totfact>
</mgrwt>
</event>
<event>
 5   1  0.1343823E+00  0.9467115E+02  0.7818608E-02  0.1291918E+00
         -2   -1    0    0    0  501 -0.00000000000E+00  0.00000000000E+00  0.10769115099E+03  0.10769115103E+03  0.26000000000E-02 0.  1.
          2   -1    0    0  501    0  0.00000000000E+00 -0.00000000000E+00 -0.20806320208E+02  0.20806320370E+02  0.26000000000E-02 0. -1.
         23    2    1    2    0    0  0.00000000000E+00  0.00000000000E+00  0.86884830786E+02  0.12849747140E+03  0.94671148374E+02 0.  0.
        -13    1    3    3    0    0  0.10734092188E+02  0.26298418778E+02  0.94837777133E+02  0.99000215703E+02  0.10570000000E+00 0.  1.
         13    1    3    3    0    0 -0.10734092188E+02 -0.26298418778E+02 -0.79529463467E+01  0.29497255692E+02  0.10570000000E+00 0. -1.
<mgrwt>
<rscale>  0 0.94671148E+02</rscale>
<asrwt>0</asrwt>
<pdfrwt beam="2">  1        2 0.32009723E-02 0.94671148E+02</pdfrwt>
<pdfrwt beam="1">  1       -2 0.16567870E-01 0.94671148E+02</pdfrwt>
<totfact> 0.71035038E+04</totfact>
</mgrwt>
</event>
<event>
 5   1  0.1343823E+00  0.8639989E+02  0.7818608E-02  0.1311812E+00
          2   -1    0    0  501    0  0.00000000000E+00  0.00000000000E+00  0.88191882474E+01  0.88191886307E+01  0.26000000000E-02 0. -1.
         -2   -1    0    0    0  501 -0.00000000000E+00 -0.00000000000E+00 -0.21161077300E+03  0.21161077301E+03  0.26000000000E-02 0.  1.
         23    2    1    2    0    0  0.00000000000E+00  0.00000000000E+00 -0.20279158475E+03  0.22042996165E+03  0.86399890886E+02 0.  0.
        -13    1    3    3    0    0  0.91601215975E+01  0.31464375514E+02 -0.29582502275E+02  0.44148050552E+02  0.10570000000E+00 0. -1.
         13    1    3    3    0    0 -0.91601215975E+01 -0.31464375514E+02 -0.17320908248E+03  0.17628191109E+03  0.10570000000E+00 0.  1.
<mgrwt>
<rscale>  0 0.86399891E+02</rscale>
<asrwt>0</asrwt>
<pdfrwt beam="1">  1        2 0.13567984E-02 0.86399891E+02</pdfrwt>
<pdfrwt beam="2">  1       -2 0.32555500E-01 0.86399891E+02</pdfrwt>
<totfact> 0.69741663E+04</totfact>
</mgrwt>
</event>
<event>
 5   1  0.1343823E+00  0.9192281E+02  0.7818608E-02  0.1298261E+00
          2   -1    0    0  501    0  0.00000000000E+00  0.00000000000E+00  0.48850037171E+02  0.48850037240E+02  0.26000000000E-02 0. -1.
         -2   -1    0    0    0  501 -0.00000000000E+00 -0.00000000000E+00 -0.43243585226E+02  0.43243585304E+02  0.26000000000E-02 0.  1.
         23    2    1    2    0    0  0.00000000000E+00  0.00000000000E+00  0.56064519452E+01  0.92093622545E+02  0.91922810064E+02 0.  0.
        -13    1    3    3    0    0 -0.26188864792E+02 -0.61632603354E+01  0.40136355844E+02  0.48319567982E+02  0.10570000000E+00 0. -1.
         13    1    3    3    0    0  0.26188864792E+02  0.61632603354E+01 -0.34529903899E+02  0.43774054562E+02  0.10570000000E+00 0.  1.
<mgrwt>
<rscale>  0 0.91922810E+02</rscale>
<asrwt>0</asrwt>
<pdfrwt beam="1">  1        2 0.75153903E-02 0.91922810E+02</pdfrwt>
<pdfrwt beam="2">  1       -2 0.66528593E-02 0.91922810E+02</pdfrwt>
<totfact> 0.98149228E+04</totfact>
</mgrwt>
</event>
<event>
 5   1  0.1343823E+00  0.8966313E+02  0.7818608E-02  0.1303670E+00
         -2   -1    0    0    0  501 -0.00000000000E+00  0.00000000000E+00  0.42293415500E+02  0.42293415580E+02  0.26000000000E-02 0. -1.
          2   -1    0    0  501    0  0.00000000000E+00 -0.00000000000E+00 -0.47522039093E+02  0.47522039164E+02  0.26000000000E-02 0.  1.
         23    2    1    2    0    0  0.00000000000E+00  0.00000000000E+00 -0.52286235927E+01  0.89815454744E+02  0.89663132927E+02 0.  0.
        -13    1    3    3    0    0 -0.11554953220E+02  0.26336928966E+02 -0.37063248541E+02  0.46913178705E+02  0.10570000000E+00 0.  1.
         13    1    3    3    0    0  0.11554953220E+02 -0.26336928966E+02  0.31834624948E+02  0.42902276040E+02  0.10570000000E+00 0. -1.
<mgrwt>
<rscale>  0 0.89663133E+02</rscale>
<asrwt>0</asrwt>
<pdfrwt beam="2">  1        2 0.73110830E-02 0.89663133E+02</pdfrwt>
<pdfrwt beam="1">  1       -2 0.65066793E-02 0.89663133E+02</pdfrwt>
<totfact> 0.10462851E+05</totfact>
</mgrwt>
</event>
<event>
 5   1  0.1343823E+00  0.8884379E+02  0.7818608E-02  0.1305676E+00
         -2   -1    0    0    0  501 -0.00000000000E+00  0.00000000000E+00  0.70186810598E+02  0.70186810646E+02  0.26000000000E-02 0.  1.
          2   -1    0    0  501    0  0.00000000000E+00 -0.00000000000E+00 -0.28115037858E+02  0.28115037978E+02  0.26000000000E-02 0. -1.
         23    2    1    2    0    0  0.00000000000E+00  0.00000000000E+00  0.42071772740E+02  0.98301848624E+02  0.88843792026E+02 0.  0.
        -13    1    3    3    0    0 -0.20056976719E+02 -0.30547805307E+02 -0.69083005511E+01  0.37191215538E+02  0.10570000000E+00 0. -1.
         13    1    3    3    0    0  0.20056976719E+02  0.30547805307E+02  0.48980073291E+02  0.61110633087E+02  0.10570000000E+00 0.  1.
<mgrwt>
<rscale>  0 0.88843792E+02</rscale>
<asrwt>0</asrwt>
<pdfrwt beam="2">  1        2 0.43253905E-02 0.88843792E+02</pdfrwt>
<pdfrwt beam="1">  1       -2 0.10797971E-01 0.88843792E+02</pdfrwt>
<totfact> 0.93902550E+04</totfact>
</mgrwt>
</event>
<event>
 5   1  0.1343823E+00  0.9537024E+02  0.7818608E-02  0.1290344E+00
          2   -1    0    0  501    0  0.00000000000E+00  0.00000000000E+00  0.13031051469E+02  0.13031051729E+02  0.26000000000E-02 0. -1.
         -2   -1    0    0    0  501 -0.00000000000E+00 -0.00000000000E+00 -0.17449634703E+03  0.17449634705E+03  0.26000000000E-02 0.  1.
         23    2    1    2    0    0  0.00000000000E+00  0.00000000000E+00 -0.16146529556E+03  0.18752739878E+03  0.95370244950E+02 0.  0.
        -13    1    3    3    0    0 -0.30826558849E+02  0.20765490386E+02 -0.21993706331E+02  0.43188153608E+02  0.10570000000E+00 0. -1.
         13    1    3    3    0    0  0.30826558849E+02 -0.20765490386E+02 -0.13947158923E+03  0.14433924517E+03  0.10570000000E+00 0.  1.
<mgrwt>
<rscale>  0 0.95370245E+02</rscale>
<asrwt>0</asrwt>
<pdfrwt beam="1">  1        2 0.20047773E-02 0.95370245E+02</pdfrwt>
<pdfrwt beam="2">  1       -2 0.26845590E-01 0.95370245E+02</pdfrwt>
<totfact> 0.58814854E+04</totfact>
</mgrwt>
</event>
<event>
 5   1  0.1343823E+00  0.9158478E+02  0.7818608E-02  0.1299059E+00
         -2   -1    0    0    0  501 -0.00000000000E+00  0.00000000000E+00  0.21763503428E+02  0.21763503583E+02  0.26000000000E-02 0.  1.
          2   -1    0    0  501    0  0.00000000000E+00 -0.00000000000E+00 -0.96351361176E+02  0.96351361211E+02  0.26000000000E-02 0. -1.
         23    2    1    2    0    0  0.00000000000E+00  0.00000000000E+00 -0.74587857748E+02  0.11811486479E+03  0.91584784555E+02 0.  0.
        -13    1    3    3    0    0  0.28136996393E+02 -0.35091330940E+02 -0.26211705213E+02  0.52059165723E+02  0.10570000000E+00 0.  1.
         13    1    3    3    0    0 -0.28136996393E+02  0.35091330940E+02 -0.48376152535E+02  0.66055699071E+02  0.10570000000E+00 0. -1.
<mgrwt>
<rscale>  0 0.91584785E+02</rscale>
<asrwt>0</asrwt>
<pdfrwt beam="2">  1        2 0.14823286E-01 0.91584785E+02</pdfrwt>
<pdfrwt beam="1">  1       -2 0.33482314E-02 0.91584785E+02</pdfrwt>
<totfact> 0.11981691E+05</totfact>
</mgrwt>
</event>
<event>
 5   1  0.1343823E+00  0.1017966E+03  0.7818608E-02  0.1276563E+00
         -2   -1    0    0    0  501 -0.00000000000E+00  0.00000000000E+00  0.20737342077E+02  0.20737342240E+02  0.26000000000E-02 0.  1.
          2   -1    0    0  501    0  0.00000000000E+00 -0.00000000000E+00 -0.12492611696E+03  0.12492611699E+03  0.26000000000E-02 0. -1.
         23    2    1    2    0    0  0.00000000000E+00  0.00000000000E+00 -0.10418877488E+03  0.14566345923E+03  0.10179657432E+03 0.  0.
        -13    1    3    3    0    0  0.36929481941E+02  0.24151003252E+02 -0.15793746332E+02  0.46866952004E+02  0.10570000000E+00 0.  1.
         13    1    3    3    0    0 -0.36929481941E+02 -0.24151003252E+02 -0.88395028551E+02  0.98796507223E+02  0.10570000000E+00 0. -1.
<mgrwt>
<rscale>  0 0.10179657E+03</rscale>
<asrwt>0</asrwt>
<pdfrwt beam="2">  1        2 0.19219402E-01 0.10179657E+03</pdfrwt>
<pdfrwt beam="1">  1       -2 0.31903604E-02 0.10179657E+03</pdfrwt>
<totfact> 0.97140696E+04</totfact>
</mgrwt>
</event>
<event>
 5   1  0.1343823E+00  0.8801075E+02  0.7818608E-02  0.1307742E+00
         -2   -1    0    0    0  501 -0.00000000000E+00  0.00000000000E+00  0.11733046512E+03  0.11733046514E+03  0.26000000000E-02 0. -1.
          2   -1    0    0  501    0  0.00000000000E+00 -0.00000000000E+00 -0.16504434037E+02  0.16504434241E+02  0.26000000000E-02 0.  1.
         23    2    1    2    0    0  0.00000000000E+00  0.00000000000E+00  0.10082603108E+03  0.13383489939E+03  0.88010747926E+02 0.  0.
        -13    1    3    3    0    0 -0.22431104880E+02 -0.21299507272E+02  0.98008586457E+02  0.10277410991E+03  0.10570000000E+00 0. -1.
         13    1    3    3    0    0  0.22431104880E+02  0.21299507272E+02  0.28174446220E+01  0.31060789475E+02  0.10570000000E+00 0.  1.
<mgrwt>
<rscale>  0 0.88010748E+02</rscale>
<asrwt>0</asrwt>
<pdfrwt beam="2">  1        2 0.25391436E-02 0.88010748E+02</pdfrwt>
<pdfrwt beam="1">  1       -2 0.18050842E-01 0.88010748E+02</pdfrwt>
<totfact> 0.82996668E+04</totfact>
</mgrwt>
</event>
<event>
 5   1  0.1343823E+00  0.8897285E+02  0.7818608E-02  0.1305358E+00
          2   -1    0    0  501    0  0.00000000000E+00  0.00000000000E+00  0.46595901621E+03  0.46595901622E+03  0.26000000000E-02 0.  1.
         -2   -1    0    0    0  501 -0.00000000000E+00 -0.00000000000E+00 -0.42472440289E+01  0.42472448248E+01  0.26000000000E-02 0. -1.
         23    2    1    2    0    0  0.00000000000E+00  0.00000000000E+00  0.46171177218E+03  0.47020626104E+03  0.88972846153E+02 0.  0.
        -13    1    3    3    0    0  0.44143321349E+02 -0.47490759787E+01  0.24565729749E+03  0.24963714773E+03  0.10570000000E+00 0. -1.
         13    1    3    3    0    0 -0.44143321349E+02  0.47490759787E+01  0.21605447469E+03  0.22056911331E+03  0.10570000000E+00 0.  1.
<mgrwt>
<rscale>  0 0.88972846E+02</rscale>
<asrwt>0</asrwt>
<pdfrwt beam="1">  1        2 0.71685996E-01 0.88972846E+02</pdfrwt>
<pdfrwt beam="2">  1       -2 0.65342228E-03 0.88972846E+02</pdfrwt>
<totfact> 0.22459481E+05</totfact>
</mgrwt>
</event>
<event>
 5   1  0.1343823E+00  0.9195335E+02  0.7818608E-02  0.1298189E+00
         -2   -1    0    0    0  501 -0.00000000000E+00  0.00000000000E+00  0.66145885440E+02  0.66145885491E+02  0.26000000000E-02 0.  1.
          2   -1    0    0  501    0  0.00000000000E+00 -0.00000000000E+00 -0.31957459421E+02  0.31957459527E+02  0.26000000000E-02 0. -1.
         23    2    1    2    0    0  0.00000000000E+00  0.00000000000E+00  0.34188426019E+02  0.98103345018E+02  0.91953345943E+02 0.  0.
        -13    1    3    3    0    0 -0.17542055401E+02  0.36296478939E+02 -0.64905148615E+01  0.40832536619E+02  0.10570000000E+00 0. -1.
         13    1    3    3    0    0  0.17542055401E+02 -0.36296478939E+02  0.40678940880E+02  0.57270808399E+02  0.10570000000E+00 0.  1.
<mgrwt>
<rscale>  0 0.91953346E+02</rscale>
<asrwt>0</asrwt>
<pdfrwt beam="2">  1        2 0.49165323E-02 0.91953346E+02</pdfrwt>
<pdfrwt beam="1">  1       -2 0.10176290E-01 0.91953346E+02</pdfrwt>
<totfact> 0.87735646E+04</totfact>
</mgrwt>
</event>
<event>
 5   1  0.1343823E+00  0.8968185E+02  0.7818608E-02  0.1303624E+00
          2   -1    0    0  501    0  0.00000000000E+00  0.00000000000E+00  0.16528877001E+02  0.16528877205E+02  0.26000000000E-02 0.  1.
         -2   -1    0    0    0  501 -0.00000000000E+00 -0.00000000000E+00 -0.12164822545E+03  0.12164822548E+03  0.26000000000E-02 0. -1.
         23    2    1    2    0    0  0.00000000000E+00  0.00000000000E+00 -0.10511934845E+03  0.13817710268E+03  0.89681850379E+02 0.  0.
        -13    1    3    3    0    0 -0.34759176406E+02 -0.24273701195E+02 -0.30058190587E+02  0.51970365671E+02  0.10570000000E+00 0.  1.
         13    1    3    3    0    0  0.34759176406E+02  0.24273701195E+02 -0.75061157863E+02  0.86206737012E+02  0.10570000000E+00 0. -1.
<mgrwt>
<rscale>  0 0.89681850E+02</rscale>
<asrwt>0</asrwt>
<pdfrwt beam="1">  1        2 0.25429042E-02 0.89681850E+02</pdfrwt>
<pdfrwt beam="2">  1       -2 0.18715111E-01 0.89681850E+02</pdfrwt>
<totfact> 0.78263723E+04</totfact>
</mgrwt>
</event>
<event>
 5   1  0.1343823E+00  0.9148860E+02  0.7818608E-02  0.1299286E+00
          2   -1    0    0  501    0  0.00000000000E+00  0.00000000000E+00  0.30124267177E+02  0.30124267290E+02  0.26000000000E-02 0. -1.
         -2   -1    0    0    0  501 -0.00000000000E+00 -0.00000000000E+00 -0.69463631711E+02  0.69463631760E+02  0.26000000000E-02 0.  1.
         23    2    1    2    0    0  0.00000000000E+00  0.00000000000E+00 -0.39339364534E+02  0.99587899049E+02  0.91488600575E+02 0.  0.
        -13    1    3    3    0    0 -0.11602145041E+02 -0.16942466144E+02 -0.64164690801E+02  0.67370435999E+02  0.10570000000E+00 0.  1.
         13    1    3    3    0    0  0.11602145041E+02  0.16942466144E+02  0.24825326267E+02  0.32217463050E+02  0.10570000000E+00 0. -1.
<mgrwt>
<rscale>  0 0.91488601E+02</rscale>
<asrwt>0</asrwt>
<pdfrwt beam="1">  1        2 0.46345027E-02 0.91488601E+02</pdfrwt>
<pdfrwt beam="2">  1       -2 0.10686713E-01 0.91488601E+02</pdfrwt>
<totfact> 0.87670157E+04</totfact>
</mgrwt>
</event>
<event>
 5   1  0.1343823E+00  0.9491098E+02  0.7818608E-02  0.1291377E+00
         -2   -1    0    0    0  501 -0.00000000000E+00  0.00000000000E+00  0.79927947200E+02  0.79927947242E+02  0.26000000000E-02 0. -1.
          2   -1    0    0  501    0  0.00000000000E+00 -0.00000000000E+00 -0.28175673436E+02  0.28175673556E+02  0.26000000000E-02 0.  1.
         23    2    1    2    0    0  0.00000000000E+00  0.00000000000E+00  0.51752273764E+02  0.10810362080E+03  0.94910984559E+02 0.  0.
        -13    1    3    3    0    0 -0.12497565111E+02  0.17325334026E+02 -0.22389202196E+02  0.30945821693E+02  0.10570000000E+00 0.  1.
         13    1    3    3    0    0  0.12497565111E+02 -0.17325334026E+02  0.74141475959E+02  0.77157799105E+02  0.10570000000E+00 0. -1.
<mgrwt>
<rscale>  0 0.94910985E+02</rscale>
<asrwt>0</asrwt>
<pdfrwt beam="2">  1        2 0.43347190E-02 0.94910985E+02</pdfrwt>
<pdfrwt beam="1">  1       -2 0.12296607E-01 0.94910985E+02</pdfrwt>
<totfact> 0.77108271E+04</totfact>
</mgrwt>
</event>
<event>
 5   1  0.1343823E+00  0.9024473E+02  0.7818608E-02  0.1302260E+00
          2   -1    0    0  501    0  0.00000000000E+00  0.00000000000E+00  0.13270755551E+03  0.13270755553E+03  0.26000000000E-02 0. -1.
         -2   -1    0    0    0  501 -0.00000000000E+00 -0.00000000000E+00 -0.15342215421E+02  0.15342215641E+02  0.26000000000E-02 0.  1.
         23    2    1    2    0    0  0.00000000000E+00  0.00000000000E+00  0.11736534009E+03  0.14804977117E+03  0.90244732206E+02 0.  0.
        -13    1    3    3    0    0 -0.28042983233E+02  0.54476798219E-01  0.69011609666E+00  0.28051725598E+02  0.10570000000E+00 0.  1.
         13    1    3    3    0    0  0.28042983233E+02 -0.54476798219E-01  0.11667522399E+03  0.11999804557E+03  0.10570000000E+00 0. -1.
<mgrwt>
<rscale>  0 0.90244732E+02</rscale>
<asrwt>0</asrwt>
<pdfrwt beam="1">  1        2 0.20416547E-01 0.90244732E+02</pdfrwt>
<pdfrwt beam="2">  1       -2 0.23603409E-02 0.90244732E+02</pdfrwt>
<totfact> 0.13799258E+05</totfact>
</mgrwt>
</event>
<event>
 5   1  0.1343823E+00  0.9066224E+02  0.7818608E-02  0.1301256E+00
         -2   -1    0    0    0  501 -0.00000000000E+00  0.00000000000E+00  0.14898696450E+03  0.14898696453E+03  0.26000000000E-02 0.  1.
          2   -1    0    0  501    0  0.00000000000E+00 -0.00000000000E+00 -0.13792551823E+02  0.13792552068E+02  0.26000000000E-02 0. -1.
         23    2    1    2    0    0  0.00000000000E+00  0.00000000000E+00  0.13519441268E+03  0.16277951659E+03  0.90662240225E+02 0.  0.
        -13    1    3    3    0    0  0.28284862449E+02  0.21836429211E+02  0.17516181377E+02  0.39795613665E+02  0.10570000000E+00 0. -1.
         13    1    3    3    0    0 -0.28284862449E+02 -0.21836429211E+02  0.11767823130E+03  0.12298390293E+03  0.10570000000E+00 0.  1.
<mgrwt>
<rscale>  0 0.90662240E+02</rscale>
<asrwt>0</asrwt>
<pdfrwt beam="2">  1        2 0.21219311E-02 0.90662240E+02</pdfrwt>
<pdfrwt beam="1">  1       -2 0.22921071E-01 0.90662240E+02</pdfrwt>
<totfact> 0.71038744E+04</totfact>
</mgrwt>
</event>
<event>
 5   1  0.1343823E+00  0.8521625E+02  0.7818608E-02  0.1314868E+00
         -2   -1    0    0    0  501 -0.00000000000E+00  0.00000000000E+00  0.97280920130E+02  0.97280920165E+02  0.26000000000E-02 0.  1.
          2   -1    0    0  501    0  0.00000000000E+00 -0.00000000000E+00 -0.18661958495E+02  0.18661958677E+02  0.26000000000E-02 0. -1.
         23    2    1    2    0    0  0.00000000000E+00  0.00000000000E+00  0.78618961635E+02  0.11594287884E+03  0.85216254468E+02 0.  0.
        -13    1    3    3    0    0 -0.32674625299E+02  0.16730141736E+02  0.98785507880E+01  0.38014809208E+02  0.10570000000E+00 0. -1.
         13    1    3    3    0    0  0.32674625299E+02 -0.16730141736E+02  0.68740410847E+02  0.77928069634E+02  0.10570000000E+00 0.  1.
<mgrwt>
<rscale>  0 0.85216254E+02</rscale>
<asrwt>0</asrwt>
<pdfrwt beam="2">  1        2 0.28710705E-02 0.85216254E+02</pdfrwt>
<pdfrwt beam="1">  1       -2 0.14966296E-01 0.85216254E+02</pdfrwt>
<totfact> 0.95177497E+04</totfact>
</mgrwt>
</event>
<event>
 5   1  0.1343823E+00  0.9172155E+02  0.7818608E-02  0.1298735E+00
          2   -1    0    0  501    0  0.00000000000E+00  0.00000000000E+00  0.47318859449E+03  0.47318859450E+03  0.26000000000E-02 0. -1.
         -2   -1    0    0    0  501 -0.00000000000E+00 -0.00000000000E+00 -0.44447612951E+01  0.44447620555E+01  0.26000000000E-02 0.  1.
         23    2    1    2    0    0  0.00000000000E+00  0.00000000000E+00  0.46874383320E+03  0.47763335655E+03  0.91721546725E+02 0.  0.
        -13    1    3    3    0    0  0.14361182885E+02  0.43280289698E+02  0.20898213423E+03  0.21389944051E+03  0.10570000000E+00 0.  1.
         13    1    3    3    0    0 -0.14361182885E+02 -0.43280289698E+02  0.25976169896E+03  0.26373391604E+03  0.10570000000E+00 0. -1.
<mgrwt>
<rscale>  0 0.91721547E+02</rscale>
<asrwt>0</asrwt>
<pdfrwt beam="1">  1        2 0.72798263E-01 0.91721547E+02</pdfrwt>
<pdfrwt beam="2">  1       -2 0.68380932E-03 0.91721547E+02</pdfrwt>
<totfact> 0.20829815E+05</totfact>
</mgrwt>
</event>
<event>
 5   1  0.1343823E+00  0.8762338E+02  0.7818608E-02  0.1308711E+00
          2   -1    0    0  501    0  0.00000000000E+00  0.00000000000E+00  0.20937226590E+02  0.20937226751E+02  0.26000000000E-02 0. -1.
         -2   -1    0    0    0  501 -0.00000000000E+00 -0.00000000000E+00 -0.91677090390E+02  0.91677090427E+02  0.26000000000E-02 0.  1.
         23    2    1    2    0    0  0.00000000000E+00  0.00000000000E+00 -0.70739863801E+02  0.11261431718E+03  0.87623376464E+02 0.  0.
        -13    1    3    3    0    0  0.45754540731E+01  0.30015197274E+02 -0.75963119069E+02  0.81806194622E+02  0.10570000000E+00 0.  1.
         13    1    3    3    0    0 -0.45754540731E+01 -0.30015197274E+02  0.52232552684E+01  0.30808122556E+02  0.10570000000E+00 0. -1.
<mgrwt>
<rscale>  0 0.87623376E+02</rscale>
<asrwt>0</asrwt>
<pdfrwt beam="1">  1        2 0.32211118E-02 0.87623376E+02</pdfrwt>
<pdfrwt beam="2">  1       -2 0.14104168E-01 0.87623376E+02</pdfrwt>
<totfact> 0.90335454E+04</totfact>
</mgrwt>
</event>
<event>
 5   1  0.1343823E+00  0.8633248E+02  0.7818608E-02  0.1311984E+00
          2   -1    0    0  501    0  0.00000000000E+00  0.00000000000E+00  0.43338122978E+02  0.43338123056E+02  0.26000000000E-02 0. -1.
         -2   -1    0    0    0  501 -0.00000000000E+00 -0.00000000000E+00 -0.42995040835E+02  0.42995040914E+02  0.26000000000E-02 0.  1.
         23    2    1    2    0    0  0.00000000000E+00  0.00000000000E+00  0.34308214323E+00  0.86333163970E+02  0.86332482274E+02 0.  0.
        -13    1    3    3    0    0  0.21017177081E+02 -0.18424837645E+02 -0.32724262855E+02  0.43035856289E+02  0.10570000000E+00 0.  1.
         13    1    3    3    0    0 -0.21017177081E+02  0.18424837645E+02  0.33067344998E+02  0.43297307680E+02  0.10570000000E+00 0. -1.
<mgrwt>
<rscale>  0 0.86332482E+02</rscale>
<asrwt>0</asrwt>
<pdfrwt beam="1">  1        2 0.66674035E-02 0.86332482E+02</pdfrwt>
<pdfrwt beam="2">  1       -2 0.66146217E-02 0.86332482E+02</pdfrwt>
<totfact> 0.11385468E+05</totfact>
</mgrwt>
</event>
<event>
 5   1  0.1343823E+00  0.9264828E+02  0.7818608E-02  0.1296562E+00
          2   -1    0    0  501    0  0.00000000000E+00  0.00000000000E+00  0.26462056883E+02  0.26462057010E+02  0.26000000000E-02 0. -1.
         -2   -1    0    0    0  501 -0.00000000000E+00 -0.00000000000E+00 -0.81094442374E+02  0.81094442416E+02  0.26000000000E-02 0.  1.
         23    2    1    2    0    0  0.00000000000E+00  0.00000000000E+00 -0.54632385491E+02  0.10755649943E+03  0.92648275884E+02 0.  0.
        -13    1    3    3    0    0 -0.43006550739E+02 -0.17212851857E+02 -0.27011449312E+02  0.53623457944E+02  0.10570000000E+00 0.  1.
         13    1    3    3    0    0  0.43006550739E+02  0.17212851857E+02 -0.27620936180E+02  0.53933041481E+02  0.10570000000E+00 0. -1.
<mgrwt>
<rscale>  0 0.92648276E+02</rscale>
<asrwt>0</asrwt>
<pdfrwt beam="1">  1        2 0.40710857E-02 0.92648276E+02</pdfrwt>
<pdfrwt beam="2">  1       -2 0.12476068E-01 0.92648276E+02</pdfrwt>
<totfact> 0.81485287E+04</totfact>
</mgrwt>
</event>
<event>
 5   1  0.1343823E+00  0.8124506E+02  0.7818608E-02  0.1325555E+00
         -2   -1    0    0    0  501 -0.00000000000E+00  0.00000000000E+00  0.53925265306E+01  0.53925271574E+01  0.26000000000E-02 0. -1.
          2   -1    0    0  501    0  0.00000000000E+00 -0.00000000000E+00 -0.30601420917E+03  0.30601420918E+03  0.26000000000E-02 0.  1.
         23    2    1    2    0    0  0.00000000000E+00  0.00000000000E+00 -0.30062168264E+03  0.31140673634E+03  0.81245057474E+02 0.  0.
        -13    1    3    3    0    0 -0.35845819516E+02 -0.18435755450E+02 -0.13100153363E+03  0.13706280619E+03  0.10570000000E+00 0.  1.
         13    1    3    3    0    0  0.35845819516E+02  0.18435755450E+02 -0.16962014901E+03  0.17434393015E+03  0.10570000000E+00 0. -1.
<mgrwt>
<rscale>  0 0.81245057E+02</rscale>
<asrwt>0</asrwt>
<pdfrwt beam="2">  1        2 0.47079096E-01 0.81245057E+02</pdfrwt>
<pdfrwt beam="1">  1       -2 0.82961975E-03 0.81245057E+02</pdfrwt>
<totfact> 0.24566961E+05</totfact>
</mgrwt>
</event>
<event>
 5   1  0.1343823E+00  0.9174136E+02  0.7818608E-02  0.1298689E+00
         -2   -1    0    0    0  501 -0.00000000000E+00  0.00000000000E+00  0.12006981856E+03  0.12006981859E+03  0.26000000000E-02 0.  1.
          2   -1    0    0  501    0  0.00000000000E+00 -0.00000000000E+00 -0.17524132140E+02  0.17524132333E+02  0.26000000000E-02 0. -1.
         23    2    1    2    0    0  0.00000000000E+00  0.00000000000E+00  0.10254568642E+03  0.13759395092E+03  0.91741362138E+02 0.  0.
        -13    1    3    3    0    0  0.32731753286E+02  0.20112147221E+02  0.13680649922E+02  0.40780356715E+02  0.10570000000E+00 0. -1.
         13    1    3    3    0    0 -0.32731753286E+02 -0.20112147221E+02  0.88865036501E+02  0.96813594209E+02  0.10570000000E+00 0.  1.
<mgrwt>
<rscale>  0 0.91741362E+02</rscale>
<asrwt>0</asrwt>
<pdfrwt beam="2">  1        2 0.26960205E-02 0.91741362E+02</pdfrwt>
<pdfrwt beam="1">  1       -2 0.18472279E-01 0.91741362E+02</pdfrwt>
<totfact> 0.74242380E+04</totfact>
</mgrwt>
</event>
<event>
 5   1  0.1343823E+00  0.9517477E+02  0.7818608E-02  0.1290783E+00
          2   -1    0    0  501    0  0.00000000000E+00  0.00000000000E+00  0.23133190292E+03  0.23133190294E+03  0.26000000000E-02 0. -1.
         -2   -1    0    0    0  501 -0.00000000000E+00 -0.00000000000E+00 -0.97892221324E+01  0.97892224777E+01  0.26000000000E-02 0.  1.
         23    2    1    2    0    0  0.00000000000E+00  0.00000000000E+00  0.22154268079E+03  0.24112112542E+03  0.95174774545E+02 0.  0.
        -13    1    3    3    0    0 -0.43900489851E+02  0.12456687415E+02  0.14496137968E+03  0.15197445457E+03  0.10570000000E+00 0.  1.
         13    1    3    3    0    0  0.43900489851E+02 -0.12456687415E+02  0.76581301109E+02  0.89146670844E+02  0.10570000000E+00 0. -1.
<mgrwt>
<rscale>  0 0.95174775E+02</rscale>
<asrwt>0</asrwt>
<pdfrwt beam="1">  1        2 0.35589520E-01 0.95174775E+02</pdfrwt>
<pdfrwt beam="2">  1       -2 0.15060343E-02 0.95174775E+02</pdfrwt>
<totfact> 0.14532754E+05</totfact>
</mgrwt>
</event>
<event>
 5   1  0.1343823E+00  0.8973852E+02  0.7818608E-02  0.1303486E+00
         -2   -1    0    0    0  501 -0.00000000000E+00  0.00000000000E+00  0.83681928874E+01  0.83681932913E+01  0.26000000000E-02 0.  1.
          2   -1    0    0  501    0  0.00000000000E+00 -0.00000000000E+00 -0.24058365476E+03  0.24058365478E+03  0.26000000000E-02 0. -1.
         23    2    1    2    0    0  0.00000000000E+00  0.00000000000E+00 -0.23221546187E+03  0.24895184807E+03  0.89738519725E+02 0.  0.
        -13    1    3    3    0    0  0.22854877780E+02 -0.38377825560E+02 -0.12788951563E+03  0.13546564994E+03  0.10570000000E+00 0. -1.
         13    1    3    3    0    0 -0.22854877780E+02  0.38377825560E+02 -0.10432594625E+03  0.11348619813E+03  0.10570000000E+00 0.  1.
<mgrwt>
<rscale>  0 0.89738520E+02</rscale>
<asrwt>0</asrwt>
<pdfrwt beam="2">  1        2 0.37012865E-01 0.89738520E+02</pdfrwt>
<pdfrwt beam="1">  1       -2 0.12874145E-02 0.89738520E+02</pdfrwt>
<totfact> 0.17268988E+05</totfact>
</mgrwt>
</event>
<event>
 5   1  0.1343823E+00  0.8842513E+02  0.7818608E-02  0.1306711E+00
          2   -1    0    0  501    0  0.00000000000E+00  0.00000000000E+00  0.36367418423E+03  0.36367418424E+03  0.26000000000E-02 0. -1.
         -2   -1    0    0    0  501 -0.00000000000E+00 -0.00000000000E+00 -0.53750057016E+01  0.53750063304E+01  0.26000000000E-02 0.  1.
         23    2    1    2    0    0  0.00000000000E+00  0.00000000000E+00  0.35829917853E+03  0.36904919057E+03  0.88425130625E+02 0.  0.
        -13    1    3    3    0    0  0.23717083170E+02  0.36883987312E+02  0.20268916369E+03  0.20737848684E+03  0.10570000000E+00 0.  1.
         13    1    3    3    0    0 -0.23717083170E+02 -0.36883987312E+02  0.15561001484E+03  0.16167070373E+03  0.10570000000E+00 0. -1.
<mgrwt>
<rscale>  0 0.88425131E+02</rscale>
<asrwt>0</asrwt>
<pdfrwt beam="1">  1        2 0.55949860E-01 0.88425131E+02</pdfrwt>
<pdfrwt beam="2">  1       -2 0.82692421E-03 0.88425131E+02</pdfrwt>
<totfact> 0.20921134E+05</totfact>
</mgrwt>
</event>
<event>
 5   1  0.1343823E+00  0.8915696E+02  0.7818608E-02  0.1304906E+00
          2   -1    0    0  501    0  0.00000000000E+00  0.00000000000E+00  0.10283423427E+03  0.10283423431E+03  0.26000000000E-02 0. -1.
         -2   -1    0    0    0  501 -0.00000000000E+00 -0.00000000000E+00 -0.19324701088E+02  0.19324701263E+02  0.26000000000E-02 0.  1.
         23    2    1    2    0    0  0.00000000000E+00  0.00000000000E+00  0.83509533187E+02  0.12215893557E+03  0.89156959385E+02 0.  0.
        -13    1    3    3    0    0  0.16107122319E+01  0.19251130175E+02  0.96800757550E+02  0.98709666404E+02  0.10570000000E+00 0. -1.
         13    1    3    3    0    0 -0.16107122319E+01 -0.19251130175E+02 -0.13291224363E+02  0.23449269167E+02  0.10570000000E+00 0.  1.
<mgrwt>
<rscale>  0 0.89156959E+02</rscale>
<asrwt>0</asrwt>
<pdfrwt beam="1">  1        2 0.15820651E-01 0.89156959E+02</pdfrwt>
<pdfrwt beam="2">  1       -2 0.29730310E-02 0.89156959E+02</pdfrwt>
<totfact> 0.13157150E+05</totfact>
</mgrwt>
</event>
<event>
 5   1  0.1343823E+00  0.9004951E+02  0.7818608E-02  0.1302732E+00
          2   -1    0    0  501    0  0.00000000000E+00  0.00000000000E+00  0.72126597868E+01  0.72126602555E+01  0.26000000000E-02 0. -1.
         -2   -1    0    0    0  501 -0.00000000000E+00 -0.00000000000E+00 -0.28106531105E+03  0.28106531107E+03  0.26000000000E-02 0.  1.
         23    2    1    2    0    0  0.00000000000E+00  0.00000000000E+00 -0.27385265127E+03  0.28827797132E+03  0.90049509400E+02 0.  0.
        -13    1    3    3    0    0  0.68260669067E+01  0.38551843760E+02 -0.65746083355E+02  0.76520575637E+02  0.10570000000E+00 0. -1.
         13    1    3    3    0    0 -0.68260669067E+01 -0.38551843760E+02 -0.20810656791E+03  0.21175739568E+03  0.10570000000E+00 0.  1.
<mgrwt>
<rscale>  0 0.90049509E+02</rscale>
<asrwt>0</asrwt>
<pdfrwt beam="1">  1        2 0.11096402E-02 0.90049509E+02</pdfrwt>
<pdfrwt beam="2">  1       -2 0.43240809E-01 0.90049509E+02</pdfrwt>
<totfact> 0.54582747E+04</totfact>
</mgrwt>
</event>
<event>
 5   1  0.1343823E+00  0.9572098E+02  0.7818608E-02  0.1289560E+00
          2   -1    0    0  501    0  0.00000000000E+00  0.00000000000E+00  0.22652833311E+02  0.22652833460E+02  0.26000000000E-02 0. -1.
         -2   -1    0    0    0  501 -0.00000000000E+00 -0.00000000000E+00 -0.10111876411E+03  0.10111876415E+03  0.26000000000E-02 0.  1.
         23    2    1    2    0    0  0.00000000000E+00  0.00000000000E+00 -0.78465930802E+02  0.12377159761E+03  0.95720980342E+02 0.  0.
        -13    1    3    3    0    0  0.26211256279E+02 -0.36318847511E+02 -0.61043955337E+02  0.75713039141E+02  0.10570000000E+00 0. -1.
         13    1    3    3    0    0 -0.26211256279E+02  0.36318847511E+02 -0.17421975465E+02  0.48058558466E+02  0.10570000000E+00 0.  1.
<mgrwt>
<rscale>  0 0.95720980E+02</rscale>
<asrwt>0</asrwt>
<pdfrwt beam="1">  1        2 0.34850514E-02 0.95720980E+02</pdfrwt>
<pdfrwt beam="2">  1       -2 0.15556733E-01 0.95720980E+02</pdfrwt>
<totfact> 0.70467056E+04</totfact>
</mgrwt>
</event>
<event>
 5   1  0.1343823E+00  0.9058051E+02  0.7818608E-02  0.1301452E+00
          2   -1    0    0  501    0  0.00000000000E+00  0.00000000000E+00  0.23765381632E+03  0.23765381634E+03  0.26000000000E-02 0. -1.
         -2   -1    0    0    0  501 -0.00000000000E+00 -0.00000000000E+00 -0.86310721253E+01  0.86310725170E+01  0.26000000000E-02 0.  1.
         23    2    1    2    0    0  0.00000000000E+00  0.00000000000E+00  0.22902274420E+03  0.24628488885E+03  0.90580511801E+02 0.  0.
        -13    1    3    3    0    0 -0.42071939319E+02  0.13819325492E+02  0.88692080768E+02  0.99132831083E+02  0.10570000000E+00 0.  1.
         13    1    3    3    0    0  0.42071939319E+02 -0.13819325492E+02  0.14033066343E+03  0.14715205777E+03  0.10570000000E+00 0. -1.
<mgrwt>
<rscale>  0 0.90580512E+02</rscale>
<asrwt>0</asrwt>
<pdfrwt beam="1">  1        2 0.36562119E-01 0.90580512E+02</pdfrwt>
<pdfrwt beam="2">  1       -2 0.13278575E-02 0.90580512E+02</pdfrwt>
<totfact> 0.16767047E+05</totfact>
</mgrwt>
</event>
<event>
 5   1  0.1343823E+00  0.9503116E+02  0.7818608E-02  0.1291106E+00
         -2   -1    0    0    0  501 -0.00000000000E+00  0.00000000000E+00  0.58711295416E+02  0.58711295473E+02  0.26000000000E-02 0.  1.
          2   -1    0    0  501    0  0.00000000000E+00 -0.00000000000E+00 -0.38454789485E+02  0.38454789573E+02  0.26000000000E-02 0. -1.
         23    2    1    2    0    0  0.00000000000E+00  0.00000000000E+00  0.20256505931E+02  0.97166085046E+02  0.95031163576E+02 0.  0.
        -13    1    3    3    0    0  0.30061378650E+02 -0.18053255446E+01 -0.27450290982E+02  0.40748930467E+02  0.10570000000E+00 0. -1.
         13    1    3    3    0    0 -0.30061378650E+02  0.18053255446E+01  0.47706796913E+02  0.56417154579E+02  0.10570000000E+00 0.  1.
<mgrwt>
<rscale>  0 0.95031164E+02</rscale>
<asrwt>0</asrwt>
<pdfrwt beam="2">  1        2 0.59161215E-02 0.95031164E+02</pdfrwt>
<pdfrwt beam="1">  1       -2 0.90325070E-02 0.95031164E+02</pdfrwt>
<totfact> 0.83662797E+04</totfact>
</mgrwt>
</event>
<event>
 4   1  0.1343823E+00  0.1349186E+03  0.7818608E-02  0.1220335E+00
          2   -1    0    0  501    0  0.00000000000E+00  0.00000000000E+00  0.42868590713E+03  0.42868590714E+03  0.26000000000E-02 0. -1.
         -2   -1    0    0    0  501 -0.00000000000E+00 -0.00000000000E+00 -0.10615603821E+02  0.10615604139E+02  0.26000000000E-02 0.  1.
        -13    1    1    2    0    0 -0.63974013577E+02  0.19677527461E+02  0.18162449977E+03  0.19356484595E+03  0.10570000000E+00 0.  1.
         13    1    1    2    0    0  0.63974013577E+02 -0.19677527461E+02  0.23644580354E+03  0.24573666532E+03  0.10570000000E+00 0. -1.
<mgrwt>
<rscale>  0 0.13491864E+03</rscale>
<asrwt>0</asrwt>
<pdfrwt beam="1">  1        2 0.65951698E-01 0.13491864E+03</pdfrwt>
<pdfrwt beam="2">  1       -2 0.16331694E-02 0.13491864E+03</pdfrwt>
<totfact> 0.70762392E+04</totfact>
</mgrwt>
</event>
<event>
 5   1  0.1343823E+00  0.9290778E+02  0.7818608E-02  0.1295959E+00
         -2   -1    0    0    0  501 -0.00000000000E+00  0.00000000000E+00  0.40907365209E+02  0.40907365291E+02  0.26000000000E-02 0.  1.
          2   -1    0    0  501    0  0.00000000000E+00 -0.00000000000E+00 -0.52752451052E+02  0.52752451116E+02  0.26000000000E-02 0. -1.
         23    2    1    2    0    0  0.00000000000E+00  0.00000000000E+00 -0.11845085843E+02  0.93659816407E+02  0.92907777666E+02 0.  0.
        -13    1    3    3    0    0  0.37697268799E+02 -0.25144520358E+02 -0.16233808775E+02  0.48133966164E+02  0.10570000000E+00 0. -1.
         13    1    3    3    0    0 -0.37697268799E+02  0.25144520358E+02  0.43887229313E+01  0.45525850243E+02  0.10570000000E+00 0.  1.
<mgrwt>
<rscale>  0 0.92907778E+02</rscale>
<asrwt>0</asrwt>
<pdfrwt beam="2">  1        2 0.81157617E-02 0.92907778E+02</pdfrwt>
<pdfrwt beam="1">  1       -2 0.62934408E-02 0.92907778E+02</pdfrwt>
<totfact> 0.97157218E+04</totfact>
</mgrwt>
</event>
<event>
 5   1  0.1343823E+00  0.9603566E+02  0.7818608E-02  0.1288860E+00
         -2   -1    0    0    0  501 -0.00000000000E+00  0.00000000000E+00  0.11414823367E+02  0.11414823663E+02  0.26000000000E-02 0.  1.
          2   -1    0    0  501    0  0.00000000000E+00 -0.00000000000E+00 -0.20199276816E+03  0.20199276818E+03  0.26000000000E-02 0. -1.
         23    2    1    2    0    0  0.00000000000E+00  0.00000000000E+00 -0.19057794479E+03  0.21340759184E+03  0.96035655948E+02 0.  0.
        -13    1    3    3    0    0  0.46284607278E+02 -0.12144839955E+02 -0.86417356117E+02  0.98781236169E+02  0.10570000000E+00 0.  1.
         13    1    3    3    0    0 -0.46284607278E+02  0.12144839955E+02 -0.10416058868E+03  0.11462635567E+03  0.10570000000E+00 0. -1.
<mgrwt>
<rscale>  0 0.96035656E+02</rscale>
<asrwt>0</asrwt>
<pdfrwt beam="2">  1        2 0.31075808E-01 0.96035656E+02</pdfrwt>
<pdfrwt beam="1">  1       -2 0.17561268E-02 0.96035656E+02</pdfrwt>
<totfact> 0.13491785E+05</totfact>
</mgrwt>
</event>
<event>
 5   1  0.1343823E+00  0.8899104E+02  0.7818608E-02  0.1305314E+00
          2   -1    0    0  501    0  0.00000000000E+00  0.00000000000E+00  0.78221516095E+02  0.78221516139E+02  0.26000000000E-02 0. -1.
         -2   -1    0    0    0  501 -0.00000000000E+00 -0.00000000000E+00 -0.25310828947E+02  0.25310829080E+02  0.26000000000E-02 0.  1.
         23    2    1    2    0    0  0.00000000000E+00  0.00000000000E+00  0.52910687149E+02  0.10353234522E+03  0.88991042762E+02 0.  0.
        -13    1    3    3    0    0  0.26195569216E+02  0.31757569855E+02  0.68117875916E+01  0.41727241849E+02  0.10570000000E+00 0.  1.
         13    1    3    3    0    0 -0.26195569216E+02 -0.31757569855E+02  0.46098899557E+02  0.61805103370E+02  0.10570000000E+00 0. -1.
<mgrwt>
<rscale>  0 0.88991043E+02</rscale>
<asrwt>0</asrwt>
<pdfrwt beam="1">  1        2 0.12034079E-01 0.88991043E+02</pdfrwt>
<pdfrwt beam="2">  1       -2 0.38939737E-02 0.88991043E+02</pdfrwt>
<totfact> 0.12206915E+05</totfact>
</mgrwt>
</event>
<event>
 5   1  0.1343823E+00  0.9100641E+02  0.7818608E-02  0.1300433E+00
          2   -1    0    0  501    0  0.00000000000E+00  0.00000000000E+00  0.46530299069E+02  0.46530299141E+02  0.26000000000E-02 0. -1.
         -2   -1    0    0    0  501 -0.00000000000E+00 -0.00000000000E+00 -0.44498785167E+02  0.44498785243E+02  0.26000000000E-02 0.  1.
         23    2    1    2    0    0  0.00000000000E+00  0.00000000000E+00  0.20315139013E+01  0.91029084385E+02  0.91006412715E+02 0.  0.
        -13    1    3    3    0    0  0.13765184259E+02 -0.16090491696E+02  0.41301669128E+02  0.46413610783E+02  0.10570000000E+00 0. -1.
         13    1    3    3    0    0 -0.13765184259E+02  0.16090491696E+02 -0.39270155226E+02  0.44615473602E+02  0.10570000000E+00 0.  1.
<mgrwt>
<rscale>  0 0.91006413E+02</rscale>
<asrwt>0</asrwt>
<pdfrwt beam="1">  1        2 0.71585076E-02 0.91006413E+02</pdfrwt>
<pdfrwt beam="2">  1       -2 0.68459669E-02 0.91006413E+02</pdfrwt>
<totfact> 0.99733700E+04</totfact>
</mgrwt>
</event>
<event>
 5   1  0.1343823E+00  0.9136156E+02  0.7818608E-02  0.1299588E+00
         -2   -1    0    0    0  501 -0.00000000000E+00  0.00000000000E+00  0.14850667311E+02  0.14850667539E+02  0.26000000000E-02 0. -1.
          2   -1    0    0  501    0  0.00000000000E+00 -0.00000000000E+00 -0.14051446222E+03  0.14051446225E+03  0.26000000000E-02 0.  1.
         23    2    1    2    0    0  0.00000000000E+00  0.00000000000E+00 -0.12566379491E+03  0.15536512979E+03  0.91361557571E+02 0.  0.
        -13    1    3    3    0    0 -0.45218195679E+02 -0.60410172857E+00 -0.51854146635E+02  0.68803443628E+02  0.10570000000E+00 0. -1.
         13    1    3    3    0    0  0.45218195679E+02  0.60410172857E+00 -0.73809648278E+02  0.86561686160E+02  0.10570000000E+00 0.  1.
<mgrwt>
<rscale>  0 0.91361558E+02</rscale>
<asrwt>0</asrwt>
<pdfrwt beam="2">  1        2 0.21617609E-01 0.91361558E+02</pdfrwt>
<pdfrwt beam="1">  1       -2 0.22847182E-02 0.91361558E+02</pdfrwt>
<totfact> 0.13600970E+05</totfact>
</mgrwt>
</event>
<event>
 5   1  0.1343823E+00  0.9021876E+02  0.7818608E-02  0.1302323E+00
         -2   -1    0    0    0  501 -0.00000000000E+00  0.00000000000E+00  0.23165248000E+03  0.23165248001E+03  0.26000000000E-02 0.  1.
          2   -1    0    0  501    0  0.00000000000E+00 -0.00000000000E+00 -0.87840896729E+01  0.87840900577E+01  0.26000000000E-02 0. -1.
         23    2    1    2    0    0  0.00000000000E+00  0.00000000000E+00  0.22286839033E+03  0.24043657007E+03  0.90218760915E+02 0.  0.
        -13    1    3    3    0    0 -0.28888631608E+02  0.17457477980E+02  0.19118652182E+03  0.19414328181E+03  0.10570000000E+00 0.  1.
         13    1    3    3    0    0  0.28888631608E+02 -0.17457477980E+02  0.31681868507E+02  0.46293288263E+02  0.10570000000E+00 0. -1.
<mgrwt>
<rscale>  0 0.90218761E+02</rscale>
<asrwt>0</asrwt>
<pdfrwt beam="2">  1        2 0.13513984E-02 0.90218761E+02</pdfrwt>
<pdfrwt beam="1">  1       -2 0.35638845E-01 0.90218761E+02</pdfrwt>
<totfact> 0.59899861E+04</totfact>
</mgrwt>
</event>
<event>
 5   1  0.1343823E+00  0.9144819E+02  0.7818608E-02  0.1299382E+00
         -2   -1    0    0    0  501 -0.00000000000E+00  0.00000000000E+00  0.24867260044E+03  0.24867260045E+03  0.26000000000E-02 0.  1.
          2   -1    0    0  501    0  0.00000000000E+00 -0.00000000000E+00 -0.84074105890E+01  0.84074109910E+01  0.26000000000E-02 0. -1.
         23    2    1    2    0    0  0.00000000000E+00  0.00000000000E+00  0.24026518985E+03  0.25708001145E+03  0.91448186588E+02 0.  0.
        -13    1    3    3    0    0  0.32075384842E+02  0.13026840337E+02  0.36164790324E+02  0.50064279817E+02  0.10570000000E+00 0. -1.
         13    1    3    3    0    0 -0.32075384842E+02 -0.13026840337E+02  0.20410039953E+03  0.20701573163E+03  0.10570000000E+00 0.  1.
<mgrwt>
<rscale>  0 0.91448187E+02</rscale>
<asrwt>0</asrwt>
<pdfrwt beam="2">  1        2 0.12934479E-02 0.91448187E+02</pdfrwt>
<pdfrwt beam="1">  1       -2 0.38257322E-01 0.91448187E+02</pdfrwt>
<totfact> 0.55897920E+04</totfact>
</mgrwt>
</event>
<event>
 5   1  0.1343823E+00  0.8898925E+02  0.7818608E-02  0.1305318E+00
         -2   -1    0    0    0  501 -0.00000000000E+00  0.00000000000E+00  0.57601688643E+01  0.57601694511E+01  0.26000000000E-02 0. -1.
          2   -1    0    0  501    0  0.00000000000E+00 -0.00000000000E+00 -0.34370024409E+03  0.34370024410E+03  0.26000000000E-02 0.  1.
         23    2    1    2    0    0  0.00000000000E+00  0.00000000000E+00 -0.33794007523E+03  0.34946041355E+03  0.88989247641E+02 0.  0.
        -13    1    3    3    0    0 -0.19210387008E+02 -0.39349411181E+02 -0.13796286786E+03  0.14474522172E+03  0.10570000000E+00 0.  1.
         13    1    3    3    0    0  0.19210387008E+02  0.39349411181E+02 -0.19997720737E+03  0.20471519183E+03  0.10570000000E+00 0. -1.
<mgrwt>
<rscale>  0 0.88989248E+02</rscale>
<asrwt>0</asrwt>
<pdfrwt beam="2">  1        2 0.52876945E-01 0.88989248E+02</pdfrwt>
<pdfrwt beam="1">  1       -2 0.88618014E-03 0.88989248E+02</pdfrwt>
<totfact> 0.20152567E+05</totfact>
</mgrwt>
</event>
<event>
 5   1  0.1343823E+00  0.9116278E+02  0.7818608E-02  0.1300060E+00
         -2   -1    0    0    0  501 -0.00000000000E+00  0.00000000000E+00  0.16800428674E+02  0.16800428876E+02  0.26000000000E-02 0.  1.
          2   -1    0    0  501    0  0.00000000000E+00 -0.00000000000E+00 -0.12366727408E+03  0.12366727411E+03  0.26000000000E-02 0. -1.
         23    2    1    2    0    0  0.00000000000E+00  0.00000000000E+00 -0.10686684541E+03  0.14046770299E+03  0.91162782618E+02 0.  0.
        -13    1    3    3    0    0 -0.98803834845E+01 -0.44495496830E+02 -0.52778164575E+02  0.69735335694E+02  0.10570000000E+00 0. -1.
         13    1    3    3    0    0  0.98803834845E+01  0.44495496830E+02 -0.54088680835E+02  0.70732367293E+02  0.10570000000E+00 0.  1.
<mgrwt>
<rscale>  0 0.91162783E+02</rscale>
<asrwt>0</asrwt>
<pdfrwt beam="2">  1        2 0.19025734E-01 0.91162783E+02</pdfrwt>
<pdfrwt beam="1">  1       -2 0.25846814E-02 0.91162783E+02</pdfrwt>
<totfact> 0.13118419E+05</totfact>
</mgrwt>
</event>
<event>
 5   1  0.1343823E+00  0.9268059E+02  0.7818608E-02  0.1296487E+00
          2   -1    0    0  501    0  0.00000000000E+00  0.00000000000E+00  0.70994516658E+02  0.70994516706E+02  0.26000000000E-02 0. -1.
         -2   -1    0    0    0  501 -0.00000000000E+00 -0.00000000000E+00 -0.30247727350E+02  0.30247727462E+02  0.26000000000E-02 0.  1.
         23    2    1    2    0    0  0.00000000000E+00  0.00000000000E+00  0.40746789308E+02  0.10124224417E+03  0.92680586776E+02 0.  0.
        -13    1    3    3    0    0  0.37103147894E+02  0.10651407538E+02 -0.76331765824E+01  0.39349366239E+02  0.10570000000E+00 0.  1.
         13    1    3    3    0    0 -0.37103147894E+02 -0.10651407538E+02  0.48379965891E+02  0.61892877929E+02  0.10570000000E+00 0. -1.
<mgrwt>
<rscale>  0 0.92680587E+02</rscale>
<asrwt>0</asrwt>
<pdfrwt beam="1">  1        2 0.10922233E-01 0.92680587E+02</pdfrwt>
<pdfrwt beam="2">  1       -2 0.46534966E-02 0.92680587E+02</pdfrwt>
<totfact> 0.10607784E+05</totfact>
</mgrwt>
</event>
<event>
 5   1  0.1343823E+00  0.9531253E+02  0.7818608E-02  0.1290474E+00
         -2   -1    0    0    0  501 -0.00000000000E+00  0.00000000000E+00  0.14748191001E+02  0.14748191230E+02  0.26000000000E-02 0.  1.
          2   -1    0    0  501    0  0.00000000000E+00 -0.00000000000E+00 -0.15399309110E+03  0.15399309112E+03  0.26000000000E-02 0. -1.
         23    2    1    2    0    0  0.00000000000E+00  0.00000000000E+00 -0.13924490010E+03  0.16874128235E+03  0.95312528905E+02 0.  0.
        -13    1    3    3    0    0 -0.23324425556E+02  0.38460390162E+02 -0.97495871597E+02  0.10737172156E+03  0.10570000000E+00 0. -1.
         13    1    3    3    0    0  0.23324425556E+02 -0.38460390162E+02 -0.41749028499E+02  0.61369560794E+02  0.10570000000E+00 0.  1.
<mgrwt>
<rscale>  0 0.95312529E+02</rscale>
<asrwt>0</asrwt>
<pdfrwt beam="2">  1        2 0.23691244E-01 0.95312529E+02</pdfrwt>
<pdfrwt beam="1">  1       -2 0.22689526E-02 0.95312529E+02</pdfrwt>
<totfact> 0.12502389E+05</totfact>
</mgrwt>
</event>
<event>
 5   1  0.1343823E+00  0.9385885E+02  0.7818608E-02  0.1293767E+00
          2   -1    0    0  501    0  0.00000000000E+00  0.00000000000E+00  0.34515029938E+02  0.34515030036E+02  0.26000000000E-02 0. -1.
         -2   -1    0    0    0  501 -0.00000000000E+00 -0.00000000000E+00 -0.63809034371E+02  0.63809034424E+02  0.26000000000E-02 0.  1.
         23    2    1    2    0    0  0.00000000000E+00  0.00000000000E+00 -0.29294004433E+02  0.98324064459E+02  0.93858845913E+02 0.  0.
        -13    1    3    3    0    0 -0.84250057678E+01 -0.42166652049E+02  0.50449409587E+01  0.43295148331E+02  0.10570000000E+00 0. -1.
         13    1    3    3    0    0  0.84250057678E+01  0.42166652049E+02 -0.34338945392E+02  0.55028916129E+02  0.10570000000E+00 0.  1.
<mgrwt>
<rscale>  0 0.93858846E+02</rscale>
<asrwt>0</asrwt>
<pdfrwt beam="1">  1        2 0.53100046E-02 0.93858846E+02</pdfrwt>
<pdfrwt beam="2">  1       -2 0.98167745E-02 0.93858846E+02</pdfrwt>
<totfact> 0.84291541E+04</totfact>
</mgrwt>
</event>
<event>
 5   1  0.1343823E+00  0.9197796E+02  0.7818608E-02  0.1298131E+00
         -2   -1    0    0    0  501 -0.00000000000E+00  0.00000000000E+00  0.20148215452E+02  0.20148215620E+02  0.26000000000E-02 0.  1.
          2   -1    0    0  501    0  0.00000000000E+00 -0.00000000000E+00 -0.10497138367E+03  0.10497138370E+03  0.26000000000E-02 0. -1.
         23    2    1    2    0    0  0.00000000000E+00  0.00000000000E+00 -0.84823168213E+02  0.12511959932E+03  0.91977955336E+02 0.  0.
        -13    1    3    3    0    0 -0.27698642553E+02  0.24919422723E+02 -0.79084362543E+02  0.87421622036E+02  0.10570000000E+00 0. -1.
         13    1    3    3    0    0  0.27698642553E+02 -0.24919422723E+02 -0.57388056703E+01  0.37697977282E+02  0.10570000000E+00 0.  1.
<mgrwt>
<rscale>  0 0.91977955E+02</rscale>
<asrwt>0</asrwt>
<pdfrwt beam="2">  1        2 0.16149443E-01 0.91977955E+02</pdfrwt>
<pdfrwt beam="1">  1       -2 0.30997255E-02 0.91977955E+02</pdfrwt>
<totfact> 0.12155271E+05</totfact>
</mgrwt>
</event>
<event>
 5   1  0.1343823E+00  0.9261074E+02  0.7818608E-02  0.1296650E+00
         -2   -1    0    0    0  501 -0.00000000000E+00  0.00000000000E+00  0.25106623749E+02  0.25106623883E+02  0.26000000000E-02 0.  1.
          2   -1    0    0  501    0  0.00000000000E+00 -0.00000000000E+00 -0.85403242550E+02  0.85403242590E+02  0.26000000000E-02 0. -1.
         23    2    1    2    0    0  0.00000000000E+00  0.00000000000E+00 -0.60296618801E+02  0.11050986647E+03  0.92610735603E+02 0.  0.
        -13    1    3    3    0    0 -0.16309943217E+02 -0.29896958756E+02  0.72895370375E+01  0.34828019084E+02  0.10570000000E+00 0.  1.
         13    1    3    3    0    0  0.16309943217E+02  0.29896958756E+02 -0.67586155839E+02  0.75681847389E+02  0.10570000000E+00 0. -1.
<mgrwt>
<rscale>  0 0.92610736E+02</rscale>
<asrwt>0</asrwt>
<pdfrwt beam="2">  1        2 0.13138960E-01 0.92610736E+02</pdfrwt>
<pdfrwt beam="1">  1       -2 0.38625576E-02 0.92610736E+02</pdfrwt>
<totfact> 0.11207945E+05</totfact>
</mgrwt>
</event>
<event>
 5   1  0.1343823E+00  0.8931456E+02  0.7818608E-02  0.1304520E+00
         -2   -1    0    0    0  501 -0.00000000000E+00  0.00000000000E+00  0.30056182094E+02  0.30056182206E+02  0.26000000000E-02 0. -1.
          2   -1    0    0  501    0  0.00000000000E+00 -0.00000000000E+00 -0.66351498966E+02  0.66351499017E+02  0.26000000000E-02 0.  1.
         23    2    1    2    0    0  0.00000000000E+00  0.00000000000E+00 -0.36295316872E+02  0.96407681223E+02  0.89314561925E+02 0.  0.
        -13    1    3    3    0    0  0.26098163425E+02  0.35758204078E+02 -0.11807675772E+02  0.45816980178E+02  0.10570000000E+00 0.  1.
         13    1    3    3    0    0 -0.26098163425E+02 -0.35758204078E+02 -0.24487641100E+02  0.50590701044E+02  0.10570000000E+00 0. -1.
<mgrwt>
<rscale>  0 0.89314562E+02</rscale>
<asrwt>0</asrwt>
<pdfrwt beam="2">  1        2 0.10207923E-01 0.89314562E+02</pdfrwt>
<pdfrwt beam="1">  1       -2 0.46240281E-02 0.89314562E+02</pdfrwt>
<totfact> 0.11548022E+05</totfact>
</mgrwt>
</event>
<event>
 5   1  0.1343823E+00  0.9076409E+02  0.7818608E-02  0.1301012E+00
         -2   -1    0    0    0  501 -0.00000000000E+00  0.00000000000E+00  0.42483728540E+03  0.42483728541E+03  0.26000000000E-02 0.  1.
          2   -1    0    0  501    0  0.00000000000E+00 -0.00000000000E+00 -0.48478083605E+01  0.48478090577E+01  0.26000000000E-02 0. -1.
         23    2    1    2    0    0  0.00000000000E+00  0.00000000000E+00  0.41998947704E+03  0.42968509447E+03  0.90764087513E+02 0.  0.
        -13    1    3    3    0    0  0.29031368859E+02 -0.34084568949E+02  0.17490480340E+03  0.18054439799E+03  0.10570000000E+00 0. -1.
         13    1    3    3    0    0 -0.29031368859E+02  0.34084568949E+02  0.24508467364E+03  0.24914069648E+03  0.10570000000E+00 0.  1.
<mgrwt>
<rscale>  0 0.90764088E+02</rscale>
<asrwt>0</asrwt>
<pdfrwt beam="2">  1        2 0.74581660E-03 0.90764088E+02</pdfrwt>
<pdfrwt beam="1">  1       -2 0.65359594E-01 0.90764088E+02</pdfrwt>
<totfact> 0.41438607E+04</totfact>
</mgrwt>
</event>
<event>
 5   1  0.1343823E+00  0.9327405E+02  0.7818608E-02  0.1295111E+00
          2   -1    0    0  501    0  0.00000000000E+00  0.00000000000E+00  0.11816441500E+02  0.11816441786E+02  0.26000000000E-02 0. -1.
         -2   -1    0    0    0  501 -0.00000000000E+00 -0.00000000000E+00 -0.18406657693E+03  0.18406657695E+03  0.26000000000E-02 0.  1.
         23    2    1    2    0    0  0.00000000000E+00  0.00000000000E+00 -0.17225013543E+03  0.19588301873E+03  0.93274047157E+02 0.  0.
        -13    1    3    3    0    0 -0.64327433033E+01  0.36434460659E+02 -0.14575222171E+03  0.15037476988E+03  0.10570000000E+00 0.  1.
         13    1    3    3    0    0  0.64327433033E+01 -0.36434460659E+02 -0.26497913715E+02  0.45508248853E+02  0.10570000000E+00 0. -1.
<mgrwt>
<rscale>  0 0.93274047E+02</rscale>
<asrwt>0</asrwt>
<pdfrwt beam="1">  1        2 0.18179142E-02 0.93274047E+02</pdfrwt>
<pdfrwt beam="2">  1       -2 0.28317933E-01 0.93274047E+02</pdfrwt>
<totfact> 0.60904490E+04</totfact>
</mgrwt>
</event>
<event>
 5   1  0.1343823E+00  0.9042018E+02  0.7818608E-02  0.1301837E+00
          2   -1    0    0  501    0  0.00000000000E+00  0.00000000000E+00  0.12252660470E+03  0.12252660472E+03  0.26000000000E-02 0. -1.
         -2   -1    0    0    0  501 -0.00000000000E+00 -0.00000000000E+00 -0.16681701228E+02  0.16681701430E+02  0.26000000000E-02 0.  1.
         23    2    1    2    0    0  0.00000000000E+00  0.00000000000E+00  0.10584490347E+03  0.13920830615E+03  0.90420179783E+02 0.  0.
        -13    1    3    3    0    0 -0.36782157672E+01  0.43884665272E+02  0.68664365144E+02  0.81573275835E+02  0.10570000000E+00 0.  1.
         13    1    3    3    0    0  0.36782157672E+01 -0.43884665272E+02  0.37180538325E+02  0.57635030319E+02  0.10570000000E+00 0. -1.
<mgrwt>
<rscale>  0 0.90420180E+02</rscale>
<asrwt>0</asrwt>
<pdfrwt beam="1">  1        2 0.18850248E-01 0.90420180E+02</pdfrwt>
<pdfrwt beam="2">  1       -2 0.25664155E-02 0.90420180E+02</pdfrwt>
<totfact> 0.13374380E+05</totfact>
</mgrwt>
</event>
<event>
 5   1  0.1343823E+00  0.9644877E+02  0.7818608E-02  0.1287946E+00
          2   -1    0    0  501    0  0.00000000000E+00  0.00000000000E+00  0.95143668893E+01  0.95143672446E+01  0.26000000000E-02 0.  1.
         -2   -1    0    0    0  501 -0.00000000000E+00 -0.00000000000E+00 -0.24442940418E+03  0.24442940420E+03  0.26000000000E-02 0. -1.
         23    2    1    2    0    0  0.00000000000E+00  0.00000000000E+00 -0.23491503729E+03  0.25394377144E+03  0.96448765193E+02 0.  0.
        -13    1    3    3    0    0  0.17308504248E+02  0.44873998306E+02 -0.12669904696E+03  0.13552091985E+03  0.10570000000E+00 0. -1.
         13    1    3    3    0    0 -0.17308504248E+02 -0.44873998306E+02 -0.10821599033E+03  0.11842285159E+03  0.10570000000E+00 0.  1.
<mgrwt>
<rscale>  0 0.96448765E+02</rscale>
<asrwt>0</asrwt>
<pdfrwt beam="1">  1        2 0.14637490E-02 0.96448765E+02</pdfrwt>
<pdfrwt beam="2">  1       -2 0.37604519E-01 0.96448765E+02</pdfrwt>
<totfact> 0.49166961E+04</totfact>
</mgrwt>
</event>
<event>
 5   1  0.1343823E+00  0.9052377E+02  0.7818608E-02  0.1301588E+00
          2   -1    0    0  501    0  0.00000000000E+00  0.00000000000E+00  0.47577573069E+02  0.47577573140E+02  0.26000000000E-02 0.  1.
         -2   -1    0    0    0  501 -0.00000000000E+00 -0.00000000000E+00 -0.43058906866E+02  0.43058906944E+02  0.26000000000E-02 0. -1.
         23    2    1    2    0    0  0.00000000000E+00  0.00000000000E+00  0.45186662037E+01  0.90636480084E+02  0.90523771341E+02 0.  0.
        -13    1    3    3    0    0 -0.15651225923E+02 -0.29941146562E+02 -0.27897829302E+02  0.43814759871E+02  0.10570000000E+00 0. -1.
         13    1    3    3    0    0  0.15651225923E+02  0.29941146562E+02  0.32416495506E+02  0.46821720213E+02  0.10570000000E+00 0.  1.
<mgrwt>
<rscale>  0 0.90523771E+02</rscale>
<asrwt>0</asrwt>
<pdfrwt beam="1">  1        2 0.73196266E-02 0.90523771E+02</pdfrwt>
<pdfrwt beam="2">  1       -2 0.66244472E-02 0.90523771E+02</pdfrwt>
<totfact> 0.10184704E+05</totfact>
</mgrwt>
</event>
<event>
 5   1  0.1343823E+00  0.9193326E+02  0.7818608E-02  0.1298236E+00
          2   -1    0    0  501    0  0.00000000000E+00  0.00000000000E+00  0.56294494652E+02  0.56294494712E+02  0.26000000000E-02 0.  1.
         -2   -1    0    0    0  501 -0.00000000000E+00 -0.00000000000E+00 -0.37533527277E+02  0.37533527367E+02  0.26000000000E-02 0. -1.
         23    2    1    2    0    0  0.00000000000E+00  0.00000000000E+00  0.18760967375E+02  0.93828022080E+02  0.91933257478E+02 0.  0.
        -13    1    3    3    0    0  0.35043000291E+01  0.25207908547E+02  0.48447344726E+02  0.54725452538E+02  0.10570000000E+00 0.  1.
         13    1    3    3    0    0 -0.35043000291E+01 -0.25207908547E+02 -0.29686377351E+02  0.39102569542E+02  0.10570000000E+00 0. -1.
<mgrwt>
<rscale>  0 0.91933257E+02</rscale>
<asrwt>0</asrwt>
<pdfrwt beam="1">  1        2 0.86606915E-02 0.91933257E+02</pdfrwt>
<pdfrwt beam="2">  1       -2 0.57743888E-02 0.91933257E+02</pdfrwt>
<totfact> 0.10186602E+05</totfact>
</mgrwt>
</event>
<event>
 5   1  0.1343823E+00  0.8837647E+02  0.7818608E-02  0.1306832E+00
         -2   -1    0    0    0  501 -0.00000000000E+00  0.00000000000E+00  0.12554300576E+02  0.12554300845E+02  0.26000000000E-02 0.  1.
          2   -1    0    0  501    0  0.00000000000E+00 -0.00000000000E+00 -0.15553235376E+03  0.15553235378E+03  0.26000000000E-02 0. -1.
         23    2    1    2    0    0  0.00000000000E+00  0.00000000000E+00 -0.14297805319E+03  0.16808665463E+03  0.88376466162E+02 0.  0.
        -13    1    3    3    0    0  0.37303236511E+02 -0.22294723690E+02 -0.56273203513E+02  0.71100427318E+02  0.10570000000E+00 0.  1.
         13    1    3    3    0    0 -0.37303236511E+02  0.22294723690E+02 -0.86704849675E+02  0.96986227312E+02  0.10570000000E+00 0. -1.
<mgrwt>
<rscale>  0 0.88376466E+02</rscale>
<asrwt>0</asrwt>
<pdfrwt beam="2">  1        2 0.23928053E-01 0.88376466E+02</pdfrwt>
<pdfrwt beam="1">  1       -2 0.19314310E-02 0.88376466E+02</pdfrwt>
<totfact> 0.15400667E+05</totfact>
</mgrwt>
</event>
<event>
 5   1  0.1343823E+00  0.9533646E+02  0.7818608E-02  0.1290420E+00
          2   -1    0    0  501    0  0.00000000000E+00  0.00000000000E+00  0.29314993322E+03  0.29314993323E+03  0.26000000000E-02 0.  1.
         -2   -1    0    0    0  501 -0.00000000000E+00 -0.00000000000E+00 -0.77511872414E+01  0.77511876775E+01  0.26000000000E-02 0. -1.
         23    2    1    2    0    0  0.00000000000E+00  0.00000000000E+00  0.28539874598E+03  0.30090112091E+03  0.95336458704E+02 0.  0.
        -13    1    3    3    0    0  0.19287198730E+02 -0.34372295517E+02  0.22731844826E+03  0.23071007526E+03  0.10570000000E+00 0.  1.
         13    1    3    3    0    0 -0.19287198730E+02  0.34372295517E+02  0.58080297717E+02  0.70191045649E+02  0.10570000000E+00 0. -1.
<mgrwt>
<rscale>  0 0.95336459E+02</rscale>
<asrwt>0</asrwt>
<pdfrwt beam="1">  1        2 0.45099990E-01 0.95336459E+02</pdfrwt>
<pdfrwt beam="2">  1       -2 0.11924904E-02 0.95336459E+02</pdfrwt>
<totfact> 0.15806607E+05</totfact>
</mgrwt>
</event>
<event>
 5   1  0.1343823E+00  0.9260891E+02  0.7818608E-02  0.1296654E+00
         -2   -1    0    0    0  501 -0.00000000000E+00  0.00000000000E+00  0.11810055442E+02  0.11810055728E+02  0.26000000000E-02 0.  1.
          2   -1    0    0  501    0  0.00000000000E+00 -0.00000000000E+00 -0.18154890963E+03  0.18154890965E+03  0.26000000000E-02 0. -1.
         23    2    1    2    0    0  0.00000000000E+00  0.00000000000E+00 -0.16973885419E+03  0.19335896538E+03  0.92608913559E+02 0.  0.
        -13    1    3    3    0    0 -0.94999567026E+01 -0.44780395839E+02 -0.99418798438E+02  0.10945154948E+03  0.10570000000E+00 0.  1.
         13    1    3    3    0    0  0.94999567026E+01  0.44780395839E+02 -0.70320055750E+02  0.83907415894E+02  0.10570000000E+00 0. -1.
<mgrwt>
<rscale>  0 0.92608914E+02</rscale>
<asrwt>0</asrwt>
<pdfrwt beam="2">  1        2 0.27930599E-01 0.92608914E+02</pdfrwt>
<pdfrwt beam="1">  1       -2 0.18169318E-02 0.92608914E+02</pdfrwt>
<totfact> 0.14323616E+05</totfact>
</mgrwt>
</event>
<event>
 5   1  0.1343823E+00  0.9654899E+02  0.7818608E-02  0.1287725E+00
         -2   -1    0    0    0  501 -0.00000000000E+00  0.00000000000E+00  0.10602420637E+03  0.10602420640E+03  0.26000000000E-02 0.  1.
          2   -1    0    0  501    0  0.00000000000E+00 -0.00000000000E+00 -0.21980138373E+02  0.21980138527E+02  0.26000000000E-02 0. -1.
         23    2    1    2    0    0  0.00000000000E+00  0.00000000000E+00  0.84044067993E+02  0.12800434492E+03  0.96548987332E+02 0.  0.
        -13    1    3    3    0    0 -0.17656597106E+02 -0.44013193500E+02  0.53990899202E+02  0.71860594156E+02  0.10570000000E+00 0.  1.
         13    1    3    3    0    0  0.17656597106E+02  0.44013193500E+02  0.30053168792E+02  0.56143750768E+02  0.10570000000E+00 0. -1.
<mgrwt>
<rscale>  0 0.96548987E+02</rscale>
<asrwt>0</asrwt>
<pdfrwt beam="2">  1        2 0.33815598E-02 0.96548987E+02</pdfrwt>
<pdfrwt beam="1">  1       -2 0.16311416E-01 0.96548987E+02</pdfrwt>
<totfact> 0.67967364E+04</totfact>
</mgrwt>
</event>
<event>
 5   1  0.1343823E+00  0.9235004E+02  0.7818608E-02  0.1297259E+00
          2   -1    0    0  501    0  0.00000000000E+00  0.00000000000E+00  0.13091881391E+02  0.13091881650E+02  0.26000000000E-02 0. -1.
         -2   -1    0    0    0  501 -0.00000000000E+00 -0.00000000000E+00 -0.16285911573E+03  0.16285911575E+03  0.26000000000E-02 0.  1.
         23    2    1    2    0    0  0.00000000000E+00  0.00000000000E+00 -0.14976723434E+03  0.17595099740E+03  0.92350035217E+02 0.  0.
        -13    1    3    3    0    0 -0.21855953513E+02  0.22060214329E+02 -0.97753445734E+01  0.32556171369E+02  0.10570000000E+00 0. -1.
         13    1    3    3    0    0  0.21855953513E+02 -0.22060214329E+02 -0.13999188976E+03  0.14339482603E+03  0.10570000000E+00 0.  1.
<mgrwt>
<rscale>  0 0.92350035E+02</rscale>
<asrwt>0</asrwt>
<pdfrwt beam="1">  1        2 0.20141357E-02 0.92350035E+02</pdfrwt>
<pdfrwt beam="2">  1       -2 0.25055247E-01 0.92350035E+02</pdfrwt>
<totfact> 0.65582287E+04</totfact>
</mgrwt>
</event>
<event>
 5   1  0.1343823E+00  0.1111666E+03  0.7818608E-02  0.1258425E+00
          2   -1    0    0  501    0  0.00000000000E+00  0.00000000000E+00  0.71740047661E+02  0.71740047708E+02  0.26000000000E-02 0. -1.
         -2   -1    0    0    0  501 -0.00000000000E+00 -0.00000000000E+00 -0.43065252434E+02  0.43065252512E+02  0.26000000000E-02 0.  1.
         23    2    1    2    0    0  0.00000000000E+00  0.00000000000E+00  0.28674795228E+02  0.11480530022E+03  0.11116660055E+03 0.  0.
        -13    1    3    3    0    0 -0.25267474289E+02  0.11710828289E+02 -0.35340158197E+02  0.44994740915E+02  0.10570000000E+00 0.  1.
         13    1    3    3    0    0  0.25267474289E+02 -0.11710828289E+02  0.64014953424E+02  0.69810559306E+02  0.10570000000E+00 0. -1.
<mgrwt>
<rscale>  0 0.11116660E+03</rscale>
<asrwt>0</asrwt>
<pdfrwt beam="1">  1        2 0.11036930E-01 0.11116660E+03</pdfrwt>
<pdfrwt beam="2">  1       -2 0.66254235E-02 0.11116660E+03</pdfrwt>
<totfact> 0.63372410E+04</totfact>
</mgrwt>
</event>
<event>
 5   1  0.1343823E+00  0.9109541E+02  0.7818608E-02  0.1300220E+00
          2   -1    0    0  501    0  0.00000000000E+00  0.00000000000E+00  0.17601806302E+02  0.17601806494E+02  0.26000000000E-02 0. -1.
         -2   -1    0    0    0  501 -0.00000000000E+00 -0.00000000000E+00 -0.11786251759E+03  0.11786251762E+03  0.26000000000E-02 0.  1.
         23    2    1    2    0    0  0.00000000000E+00  0.00000000000E+00 -0.10026071129E+03  0.13546432411E+03  0.91095405369E+02 0.  0.
        -13    1    3    3    0    0 -0.38405370212E+02 -0.22935046775E+02 -0.62887320281E+02  0.77173927309E+02  0.10570000000E+00 0.  1.
         13    1    3    3    0    0  0.38405370212E+02  0.22935046775E+02 -0.37373391009E+02  0.58290396805E+02  0.10570000000E+00 0. -1.
<mgrwt>
<rscale>  0 0.91095405E+02</rscale>
<asrwt>0</asrwt>
<pdfrwt beam="1">  1        2 0.27079703E-02 0.91095405E+02</pdfrwt>
<pdfrwt beam="2">  1       -2 0.18132694E-01 0.91095405E+02</pdfrwt>
<totfact> 0.76024738E+04</totfact>
</mgrwt>
</event>
<event>
 4   1  0.1343823E+00  0.1340924E+03  0.7818608E-02  0.1221507E+00
          2   -1    0    0  501    0  0.00000000000E+00  0.00000000000E+00  0.36987536118E+03  0.36987536119E+03  0.26000000000E-02 0. -1.
         -2   -1    0    0    0  501 -0.00000000000E+00 -0.00000000000E+00 -0.12153268542E+02  0.12153268820E+02  0.26000000000E-02 0.  1.
        -13    1    1    2    0    0  0.25558843324E+02  0.50849918528E+02  0.77883778619E+02  0.96461716918E+02  0.10570000000E+00 0.  1.
         13    1    1    2    0    0 -0.25558843324E+02 -0.50849918528E+02  0.27983831402E+03  0.28556691309E+03  0.10570000000E+00 0. -1.
<mgrwt>
<rscale>  0 0.13409243E+03</rscale>
<asrwt>0</asrwt>
<pdfrwt beam="1">  1        2 0.56903898E-01 0.13409243E+03</pdfrwt>
<pdfrwt beam="2">  1       -2 0.18697338E-02 0.13409243E+03</pdfrwt>
<totfact> 0.68072347E+04</totfact>
</mgrwt>
</event>
<event>
 5   1  0.1343823E+00  0.8903588E+02  0.7818608E-02  0.1305203E+00
         -2   -1    0    0    0  501 -0.00000000000E+00  0.00000000000E+00  0.26132748831E+02  0.26132748961E+02  0.26000000000E-02 0.  1.
          2   -1    0    0  501    0  0.00000000000E+00 -0.00000000000E+00 -0.75837675797E+02  0.75837675841E+02  0.26000000000E-02 0. -1.
         23    2    1    2    0    0  0.00000000000E+00  0.00000000000E+00 -0.49704926966E+02  0.10197042480E+03  0.89035879114E+02 0.  0.
        -13    1    3    3    0    0 -0.24567131517E+02  0.35616521629E+02 -0.12854107530E+02  0.45136679285E+02  0.10570000000E+00 0.  1.
         13    1    3    3    0    0  0.24567131517E+02 -0.35616521629E+02 -0.36850819435E+02  0.56833745517E+02  0.10570000000E+00 0. -1.
<mgrwt>
<rscale>  0 0.89035879E+02</rscale>
<asrwt>0</asrwt>
<pdfrwt beam="2">  1        2 0.11667335E-01 0.89035879E+02</pdfrwt>
<pdfrwt beam="1">  1       -2 0.40204229E-02 0.89035879E+02</pdfrwt>
<totfact> 0.12084642E+05</totfact>
</mgrwt>
</event>
<event>
 5   1  0.1343823E+00  0.8573941E+02  0.7818608E-02  0.1313510E+00
         -2   -1    0    0    0  501 -0.00000000000E+00  0.00000000000E+00  0.17026014943E+03  0.17026014945E+03  0.26000000000E-02 0.  1.
          2   -1    0    0  501    0  0.00000000000E+00 -0.00000000000E+00 -0.10794138414E+02  0.10794138727E+02  0.26000000000E-02 0. -1.
         23    2    1    2    0    0  0.00000000000E+00  0.00000000000E+00  0.15946601101E+03  0.18105428817E+03  0.85739410994E+02 0.  0.
        -13    1    3    3    0    0 -0.33499427742E+02  0.22995995573E+02  0.50873733386E+02  0.65108950172E+02  0.10570000000E+00 0. -1.
         13    1    3    3    0    0  0.33499427742E+02 -0.22995995573E+02  0.10859227763E+03  0.11594533800E+03  0.10570000000E+00 0.  1.
<mgrwt>
<rscale>  0 0.85739411E+02</rscale>
<asrwt>0</asrwt>
<pdfrwt beam="2">  1        2 0.16606365E-02 0.85739411E+02</pdfrwt>
<pdfrwt beam="1">  1       -2 0.26193872E-01 0.85739411E+02</pdfrwt>
<totfact> 0.77842785E+04</totfact>
</mgrwt>
</event>
<event>
 5   1  0.1343823E+00  0.8955633E+02  0.7818608E-02  0.1303930E+00
          2   -1    0    0  501    0  0.00000000000E+00  0.00000000000E+00  0.15713908763E+02  0.15713908978E+02  0.26000000000E-02 0.  1.
         -2   -1    0    0    0  501 -0.00000000000E+00 -0.00000000000E+00 -0.12759931493E+03  0.12759931496E+03  0.26000000000E-02 0. -1.
         23    2    1    2    0    0  0.00000000000E+00  0.00000000000E+00 -0.11188540617E+03  0.14331322394E+03  0.89556328876E+02 0.  0.
        -13    1    3    3    0    0 -0.23240264913E+02 -0.33756169511E+02 -0.84813233888E+02  0.94195990935E+02  0.10570000000E+00 0. -1.
         13    1    3    3    0    0  0.23240264913E+02  0.33756169511E+02 -0.27072172283E+02  0.49117233003E+02  0.10570000000E+00 0.  1.
<mgrwt>
<rscale>  0 0.89556329E+02</rscale>
<asrwt>0</asrwt>
<pdfrwt beam="1">  1        2 0.24175245E-02 0.89556329E+02</pdfrwt>
<pdfrwt beam="2">  1       -2 0.19630663E-01 0.89556329E+02</pdfrwt>
<totfact> 0.77317307E+04</totfact>
</mgrwt>
</event>
<event>
 5   1  0.1343823E+00  0.9173756E+02  0.7818608E-02  0.1298698E+00
         -2   -1    0    0    0  501 -0.00000000000E+00  0.00000000000E+00  0.11997038986E+02  0.11997039267E+02  0.26000000000E-02 0. -1.
          2   -1    0    0  501    0  0.00000000000E+00 -0.00000000000E+00 -0.17537200168E+03  0.17537200170E+03  0.26000000000E-02 0.  1.
         23    2    1    2    0    0  0.00000000000E+00  0.00000000000E+00 -0.16337496270E+03  0.18736904097E+03  0.91737555437E+02 0.  0.
        -13    1    3    3    0    0 -0.26540924268E+02 -0.30032454981E+02 -0.36128353596E+02  0.53959597101E+02  0.10570000000E+00 0. -1.
         13    1    3    3    0    0  0.26540924268E+02  0.30032454981E+02 -0.12724660910E+03  0.13340944387E+03  0.10570000000E+00 0.  1.
<mgrwt>
<rscale>  0 0.91737555E+02</rscale>
<asrwt>0</asrwt>
<pdfrwt beam="2">  1        2 0.26980306E-01 0.91737555E+02</pdfrwt>
<pdfrwt beam="1">  1       -2 0.18456985E-02 0.91737555E+02</pdfrwt>
<totfact> 0.14515308E+05</totfact>
</mgrwt>
</event>
<event>
 5   1  0.1343823E+00  0.9231867E+02  0.7818608E-02  0.1297332E+00
         -2   -1    0    0    0  501 -0.00000000000E+00  0.00000000000E+00  0.14015554548E+02  0.14015554790E+02  0.26000000000E-02 0.  1.
          2   -1    0    0  501    0  0.00000000000E+00 -0.00000000000E+00 -0.15202283311E+03  0.15202283313E+03  0.26000000000E-02 0. -1.
         23    2    1    2    0    0  0.00000000000E+00  0.00000000000E+00 -0.13800727856E+03  0.16603838792E+03  0.92318672692E+02 0.  0.
        -13    1    3    3    0    0 -0.28094922019E+02 -0.27475376714E+02 -0.25448915608E+02  0.46817512182E+02  0.10570000000E+00 0.  1.
         13    1    3    3    0    0  0.28094922019E+02  0.27475376714E+02 -0.11255836295E+03  0.11922087574E+03  0.10570000000E+00 0. -1.
<mgrwt>
<rscale>  0 0.92318673E+02</rscale>
<asrwt>0</asrwt>
<pdfrwt beam="2">  1        2 0.23388127E-01 0.92318673E+02</pdfrwt>
<pdfrwt beam="1">  1       -2 0.21562393E-02 0.92318673E+02</pdfrwt>
<totfact> 0.13577845E+05</totfact>
</mgrwt>
</event>
<event>
 5   1  0.1343823E+00  0.9167620E+02  0.7818608E-02  0.1298843E+00
         -2   -1    0    0    0  501 -0.00000000000E+00  0.00000000000E+00  0.81412601576E+02  0.81412601617E+02  0.26000000000E-02 0.  1.
          2   -1    0    0  501    0  0.00000000000E+00 -0.00000000000E+00 -0.25808430154E+02  0.25808430285E+02  0.26000000000E-02 0. -1.
         23    2    1    2    0    0  0.00000000000E+00  0.00000000000E+00  0.55604171422E+02  0.10722103190E+03  0.91676200851E+02 0.  0.
        -13    1    3    3    0    0  0.42179795472E+02  0.14628111825E+02  0.15647441726E+02  0.47307191913E+02  0.10570000000E+00 0. -1.
         13    1    3    3    0    0 -0.42179795472E+02 -0.14628111825E+02  0.39956729696E+02  0.59913839988E+02  0.10570000000E+00 0.  1.
<mgrwt>
<rscale>  0 0.91676201E+02</rscale>
<asrwt>0</asrwt>
<pdfrwt beam="2">  1        2 0.39705278E-02 0.91676201E+02</pdfrwt>
<pdfrwt beam="1">  1       -2 0.12525015E-01 0.91676201E+02</pdfrwt>
<totfact> 0.83536495E+04</totfact>
</mgrwt>
</event>
<event>
 5   1  0.1343823E+00  0.9309599E+02  0.7818608E-02  0.1295523E+00
          2   -1    0    0  501    0  0.00000000000E+00  0.00000000000E+00  0.25790231971E+03  0.25790231972E+03  0.26000000000E-02 0.  1.
         -2   -1    0    0    0  501 -0.00000000000E+00 -0.00000000000E+00 -0.84013034459E+01  0.84013038482E+01  0.26000000000E-02 0. -1.
         23    2    1    2    0    0  0.00000000000E+00  0.00000000000E+00  0.24950101626E+03  0.26630362357E+03  0.93095987079E+02 0.  0.
        -13    1    3    3    0    0  0.42736256711E+02 -0.10942390353E+02  0.82266043343E+02  0.93347933047E+02  0.10570000000E+00 0. -1.
         13    1    3    3    0    0 -0.42736256711E+02  0.10942390353E+02  0.16723497292E+03  0.17295569052E+03  0.10570000000E+00 0.  1.
<mgrwt>
<rscale>  0 0.93095987E+02</rscale>
<asrwt>0</asrwt>
<pdfrwt beam="1">  1        2 0.39677281E-01 0.93095987E+02</pdfrwt>
<pdfrwt beam="2">  1       -2 0.12925082E-02 0.93095987E+02</pdfrwt>
<totfact> 0.16058452E+05</totfact>
</mgrwt>
</event>
<event>
 5   1  0.1343823E+00  0.9128531E+02  0.7818608E-02  0.1299769E+00
         -2   -1    0    0    0  501 -0.00000000000E+00  0.00000000000E+00  0.22826351181E+02  0.22826351329E+02  0.26000000000E-02 0.  1.
          2   -1    0    0  501    0  0.00000000000E+00 -0.00000000000E+00 -0.91265211169E+02  0.91265211206E+02  0.26000000000E-02 0. -1.
         23    2    1    2    0    0  0.00000000000E+00  0.00000000000E+00 -0.68438859988E+02  0.11409156254E+03  0.91285305966E+02 0.  0.
        -13    1    3    3    0    0  0.36097301618E+02 -0.16020215556E+02 -0.62817939044E+02  0.74200856658E+02  0.10570000000E+00 0.  1.
         13    1    3    3    0    0 -0.36097301618E+02  0.16020215556E+02 -0.56209209438E+01  0.39890705877E+02  0.10570000000E+00 0. -1.
<mgrwt>
<rscale>  0 0.91285306E+02</rscale>
<asrwt>0</asrwt>
<pdfrwt beam="2">  1        2 0.14040802E-01 0.91285306E+02</pdfrwt>
<pdfrwt beam="1">  1       -2 0.35117464E-02 0.91285306E+02</pdfrwt>
<totfact> 0.11895910E+05</totfact>
</mgrwt>
</event>
<event>
 5   1  0.1343823E+00  0.8843866E+02  0.7818608E-02  0.1306677E+00
         -2   -1    0    0    0  501 -0.00000000000E+00  0.00000000000E+00  0.44425602922E+01  0.44425610530E+01  0.26000000000E-02 0.  1.
          2   -1    0    0  501    0  0.00000000000E+00 -0.00000000000E+00 -0.44014009421E+03  0.44014009422E+03  0.26000000000E-02 0. -1.
         23    2    1    2    0    0  0.00000000000E+00  0.00000000000E+00 -0.43569753392E+03  0.44458265527E+03  0.88438658434E+02 0.  0.
        -13    1    3    3    0    0 -0.40892928770E+02 -0.16200297880E+02 -0.24069634109E+03  0.24468228596E+03  0.10570000000E+00 0.  1.
         13    1    3    3    0    0  0.40892928770E+02  0.16200297880E+02 -0.19500119283E+03  0.19990036931E+03  0.10570000000E+00 0. -1.
<mgrwt>
<rscale>  0 0.88438658E+02</rscale>
<asrwt>0</asrwt>
<pdfrwt beam="2">  1        2 0.67713827E-01 0.88438658E+02</pdfrwt>
<pdfrwt beam="1">  1       -2 0.68347122E-03 0.88438658E+02</pdfrwt>
<totfact> 0.22380553E+05</totfact>
</mgrwt>
</event>
<event>
 5   1  0.1343823E+00  0.9064484E+02  0.7818608E-02  0.1301298E+00
         -2   -1    0    0    0  501 -0.00000000000E+00  0.00000000000E+00  0.17062444024E+02  0.17062444222E+02  0.26000000000E-02 0.  1.
          2   -1    0    0  501    0  0.00000000000E+00 -0.00000000000E+00 -0.12038848016E+03  0.12038848019E+03  0.26000000000E-02 0. -1.
         23    2    1    2    0    0  0.00000000000E+00  0.00000000000E+00 -0.10332603613E+03  0.13745092441E+03  0.90644839220E+02 0.  0.
        -13    1    3    3    0    0 -0.22943204901E+02  0.29172774250E+02 -0.12217944830E+02  0.39073402168E+02  0.10570000000E+00 0.  1.
         13    1    3    3    0    0  0.22943204901E+02 -0.29172774250E+02 -0.91108091303E+02  0.98377522239E+02  0.10570000000E+00 0. -1.
<mgrwt>
<rscale>  0 0.90644839E+02</rscale>
<asrwt>0</asrwt>
<pdfrwt beam="2">  1        2 0.18521304E-01 0.90644839E+02</pdfrwt>
<pdfrwt beam="1">  1       -2 0.26249915E-02 0.90644839E+02</pdfrwt>
<totfact> 0.13209324E+05</totfact>
</mgrwt>
</event>
<event>
 5   1  0.1343823E+00  0.9096013E+02  0.7818608E-02  0.1300543E+00
          2   -1    0    0  501    0  0.00000000000E+00  0.00000000000E+00  0.12637531773E+02  0.12637532040E+02  0.26000000000E-02 0. -1.
         -2   -1    0    0    0  501 -0.00000000000E+00 -0.00000000000E+00 -0.16367406983E+03  0.16367406985E+03  0.26000000000E-02 0.  1.
         23    2    1    2    0    0  0.00000000000E+00  0.00000000000E+00 -0.15103653806E+03  0.17631160189E+03  0.90960129358E+02 0.  0.
        -13    1    3    3    0    0 -0.32371486470E+02 -0.12068122096E+02 -0.13285094078E+03  0.13726957546E+03  0.10570000000E+00 0.  1.
         13    1    3    3    0    0  0.32371486470E+02  0.12068122096E+02 -0.18185597274E+02  0.39042026432E+02  0.10570000000E+00 0. -1.
<mgrwt>
<rscale>  0 0.90960129E+02</rscale>
<asrwt>0</asrwt>
<pdfrwt beam="1">  1        2 0.19442358E-02 0.90960129E+02</pdfrwt>
<pdfrwt beam="2">  1       -2 0.25180625E-01 0.90960129E+02</pdfrwt>
<totfact> 0.68028573E+04</totfact>
</mgrwt>
</event>
<event>
 5   1  0.1343823E+00  0.9281352E+02  0.7818608E-02  0.1296178E+00
         -2   -1    0    0    0  501 -0.00000000000E+00  0.00000000000E+00  0.59685713483E+01  0.59685719146E+01  0.26000000000E-02 0. -1.
          2   -1    0    0  501    0  0.00000000000E+00 -0.00000000000E+00 -0.36082122534E+03  0.36082122534E+03  0.26000000000E-02 0.  1.
         23    2    1    2    0    0  0.00000000000E+00  0.00000000000E+00 -0.35485265399E+03  0.36678979726E+03  0.92813519122E+02 0.  0.
        -13    1    3    3    0    0 -0.36808590371E+02 -0.27951269679E+02 -0.19392538575E+03  0.19935699690E+03  0.10570000000E+00 0.  1.
         13    1    3    3    0    0  0.36808590371E+02  0.27951269679E+02 -0.16092726824E+03  0.16743280036E+03  0.10570000000E+00 0. -1.
<mgrwt>
<rscale>  0 0.92813519E+02</rscale>
<asrwt>0</asrwt>
<pdfrwt beam="2">  1        2 0.55510941E-01 0.92813519E+02</pdfrwt>
<pdfrwt beam="1">  1       -2 0.91824207E-03 0.92813519E+02</pdfrwt>
<totfact> 0.18342249E+05</totfact>
</mgrwt>
</event>
<event>
 5   1  0.1343823E+00  0.8902284E+02  0.7818608E-02  0.1305235E+00
          2   -1    0    0  501    0  0.00000000000E+00  0.00000000000E+00  0.43639877365E+02  0.43639877442E+02  0.26000000000E-02 0. -1.
         -2   -1    0    0    0  501 -0.00000000000E+00 -0.00000000000E+00 -0.45400368194E+02  0.45400368268E+02  0.26000000000E-02 0.  1.
         23    2    1    2    0    0  0.00000000000E+00  0.00000000000E+00 -0.17604908290E+01  0.89040245711E+02  0.89022839925E+02 0.  0.
        -13    1    3    3    0    0  0.33599257568E+02  0.18470689045E+02 -0.23493931161E+02  0.44967237371E+02  0.10570000000E+00 0.  1.
         13    1    3    3    0    0 -0.33599257568E+02 -0.18470689045E+02  0.21733440332E+02  0.44073008339E+02  0.10570000000E+00 0. -1.
<mgrwt>
<rscale>  0 0.89022840E+02</rscale>
<asrwt>0</asrwt>
<pdfrwt beam="1">  1        2 0.67138273E-02 0.89022840E+02</pdfrwt>
<pdfrwt beam="2">  1       -2 0.69846720E-02 0.89022840E+02</pdfrwt>
<totfact> 0.10449013E+05</totfact>
</mgrwt>
</event>
<event>
 5   1  0.1343823E+00  0.9333917E+02  0.7818608E-02  0.1294961E+00
         -2   -1    0    0    0  501 -0.00000000000E+00  0.00000000000E+00  0.23763180233E+02  0.23763180375E+02  0.26000000000E-02 0.  1.
          2   -1    0    0  501    0  0.00000000000E+00 -0.00000000000E+00 -0.91656509708E+02  0.91656509745E+02  0.26000000000E-02 0. -1.
         23    2    1    2    0    0  0.00000000000E+00  0.00000000000E+00 -0.67893329475E+02  0.11541969012E+03  0.93339170128E+02 0.  0.
        -13    1    3    3    0    0 -0.35216246003E+02 -0.60880366159E+01 -0.71059825748E+02  0.79540921419E+02  0.10570000000E+00 0. -1.
         13    1    3    3    0    0  0.35216246003E+02  0.60880366159E+01  0.31664962737E+01  0.35878768701E+02  0.10570000000E+00 0.  1.
<mgrwt>
<rscale>  0 0.93339170E+02</rscale>
<asrwt>0</asrwt>
<pdfrwt beam="2">  1        2 0.14101001E-01 0.93339170E+02</pdfrwt>
<pdfrwt beam="1">  1       -2 0.36558739E-02 0.93339170E+02</pdfrwt>
<totfact> 0.11199008E+05</totfact>
</mgrwt>
</event>
<event>
 5   1  0.1343823E+00  0.9171439E+02  0.7818608E-02  0.1298752E+00
         -2   -1    0    0    0  501 -0.00000000000E+00  0.00000000000E+00  0.10083080135E+03  0.10083080138E+03  0.26000000000E-02 0.  1.
          2   -1    0    0  501    0  0.00000000000E+00 -0.00000000000E+00 -0.20855553998E+02  0.20855554160E+02  0.26000000000E-02 0. -1.
         23    2    1    2    0    0  0.00000000000E+00  0.00000000000E+00  0.79975247350E+02  0.12168635554E+03  0.91714387838E+02 0.  0.
        -13    1    3    3    0    0  0.23708198325E+02  0.17755741842E+02 -0.64602333792E+01  0.30316510749E+02  0.10570000000E+00 0. -1.
         13    1    3    3    0    0 -0.23708198325E+02 -0.17755741842E+02  0.86435480729E+02  0.91369844793E+02  0.10570000000E+00 0.  1.
<mgrwt>
<rscale>  0 0.91714388E+02</rscale>
<asrwt>0</asrwt>
<pdfrwt beam="2">  1        2 0.32085468E-02 0.91714388E+02</pdfrwt>
<pdfrwt beam="1">  1       -2 0.15512431E-01 0.91714388E+02</pdfrwt>
<totfact> 0.78451529E+04</totfact>
</mgrwt>
</event>
<event>
 5   1  0.1343823E+00  0.9240918E+02  0.7818608E-02  0.1297120E+00
          2   -1    0    0  501    0  0.00000000000E+00  0.00000000000E+00  0.56009652275E+02  0.56009652335E+02  0.26000000000E-02 0. -1.
         -2   -1    0    0    0  501 -0.00000000000E+00 -0.00000000000E+00 -0.38116001014E+02  0.38116001102E+02  0.26000000000E-02 0.  1.
         23    2    1    2    0    0  0.00000000000E+00  0.00000000000E+00  0.17893651261E+02  0.94125653438E+02  0.92409176382E+02 0.  0.
        -13    1    3    3    0    0 -0.14370099130E+01 -0.29429345055E+02 -0.27305013024E+02  0.40171211789E+02  0.10570000000E+00 0.  1.
         13    1    3    3    0    0  0.14370099130E+01  0.29429345055E+02  0.45198664286E+02  0.53954441648E+02  0.10570000000E+00 0. -1.
<mgrwt>
<rscale>  0 0.92409176E+02</rscale>
<asrwt>0</asrwt>
<pdfrwt beam="1">  1        2 0.86168695E-02 0.92409176E+02</pdfrwt>
<pdfrwt beam="2">  1       -2 0.58640002E-02 0.92409176E+02</pdfrwt>
<totfact> 0.10024743E+05</totfact>
</mgrwt>
</event>
<event>
 5   1  0.1343823E+00  0.8965766E+02  0.7818608E-02  0.1303683E+00
         -2   -1    0    0    0  501 -0.00000000000E+00  0.00000000000E+00  0.10989291660E+03  0.10989291663E+03  0.26000000000E-02 0. -1.
          2   -1    0    0  501    0  0.00000000000E+00 -0.00000000000E+00 -0.18287109257E+02  0.18287109442E+02  0.26000000000E-02 0.  1.
         23    2    1    2    0    0  0.00000000000E+00  0.00000000000E+00  0.91605807341E+02  0.12818002607E+03  0.89657655249E+02 0.  0.
        -13    1    3    3    0    0 -0.34011804125E+02 -0.14668177816E+02  0.97013707353E+01  0.38289502830E+02  0.10570000000E+00 0.  1.
         13    1    3    3    0    0  0.34011804125E+02  0.14668177816E+02  0.81904436606E+02  0.89890523241E+02  0.10570000000E+00 0. -1.
<mgrwt>
<rscale>  0 0.89657655E+02</rscale>
<asrwt>0</asrwt>
<pdfrwt beam="2">  1        2 0.28134015E-02 0.89657655E+02</pdfrwt>
<pdfrwt beam="1">  1       -2 0.16906602E-01 0.89657655E+02</pdfrwt>
<totfact> 0.80872163E+04</totfact>
</mgrwt>
</event>
<event>
 5   1  0.1343823E+00  0.8942018E+02  0.7818608E-02  0.1304262E+00
         -2   -1    0    0    0  501 -0.00000000000E+00  0.00000000000E+00  0.26404740785E+02  0.26404740913E+02  0.26000000000E-02 0.  1.
          2   -1    0    0  501    0  0.00000000000E+00 -0.00000000000E+00 -0.75705808174E+02  0.75705808219E+02  0.26000000000E-02 0. -1.
         23    2    1    2    0    0  0.00000000000E+00  0.00000000000E+00 -0.49301067389E+02  0.10211054913E+03  0.89420182277E+02 0.  0.
        -13    1    3    3    0    0 -0.18759319261E+02 -0.39428580283E+02 -0.35630544987E+02  0.56356649216E+02  0.10570000000E+00 0.  1.
         13    1    3    3    0    0  0.18759319261E+02  0.39428580283E+02 -0.13670522402E+02  0.45753899916E+02  0.10570000000E+00 0. -1.
<mgrwt>
<rscale>  0 0.89420182E+02</rscale>
<asrwt>0</asrwt>
<pdfrwt beam="2">  1        2 0.11647047E-01 0.89420182E+02</pdfrwt>
<pdfrwt beam="1">  1       -2 0.40622679E-02 0.89420182E+02</pdfrwt>
<totfact> 0.11935312E+05</totfact>
</mgrwt>
</event>
<event>
 5   1  0.1343823E+00  0.9110003E+02  0.7818608E-02  0.1300209E+00
          2   -1    0    0  501    0  0.00000000000E+00  0.00000000000E+00  0.70314476509E+02  0.70314476557E+02  0.26000000000E-02 0. -1.
         -2   -1    0    0    0  501 -0.00000000000E+00 -0.00000000000E+00 -0.29507491448E+02  0.29507491563E+02  0.26000000000E-02 0.  1.
         23    2    1    2    0    0  0.00000000000E+00  0.00000000000E+00  0.40806985061E+02  0.99821968120E+02  0.91100029032E+02 0.  0.
        -13    1    3    3    0    0  0.27779375192E+02 -0.35988392245E+02  0.17316967597E+02  0.48649219949E+02  0.10570000000E+00 0. -1.
         13    1    3    3    0    0 -0.27779375192E+02  0.35988392245E+02  0.23490017464E+02  0.51172748171E+02  0.10570000000E+00 0.  1.
<mgrwt>
<rscale>  0 0.91100029E+02</rscale>
<asrwt>0</asrwt>
<pdfrwt beam="1">  1        2 0.10817612E-01 0.91100029E+02</pdfrwt>
<pdfrwt beam="2">  1       -2 0.45396141E-02 0.91100029E+02</pdfrwt>
<totfact> 0.11101866E+05</totfact>
</mgrwt>
</event>
<event>
 5   1  0.1343823E+00  0.8894893E+02  0.7818608E-02  0.1305417E+00
         -2   -1    0    0    0  501 -0.00000000000E+00  0.00000000000E+00  0.10965818937E+03  0.10965818940E+03  0.26000000000E-02 0.  1.
          2   -1    0    0  501    0  0.00000000000E+00 -0.00000000000E+00 -0.18037667064E+02  0.18037667251E+02  0.26000000000E-02 0. -1.
         23    2    1    2    0    0  0.00000000000E+00  0.00000000000E+00  0.91620522310E+02  0.12769585666E+03  0.88948927473E+02 0.  0.
        -13    1    3    3    0    0 -0.20410630494E+02  0.37835707416E+02  0.62168149153E+02  0.75584552221E+02  0.10570000000E+00 0.  1.
         13    1    3    3    0    0  0.20410630494E+02 -0.37835707416E+02  0.29452373157E+02  0.52111304435E+02  0.10570000000E+00 0. -1.
<mgrwt>
<rscale>  0 0.88948927E+02</rscale>
<asrwt>0</asrwt>
<pdfrwt beam="2">  1        2 0.27750258E-02 0.88948927E+02</pdfrwt>
<pdfrwt beam="1">  1       -2 0.16870490E-01 0.88948927E+02</pdfrwt>
<totfact> 0.82545496E+04</totfact>
</mgrwt>
</event>
<event>
 5   1  0.1343823E+00  0.9108149E+02  0.7818608E-02  0.1300254E+00
          2   -1    0    0  501    0  0.00000000000E+00  0.00000000000E+00  0.97152085628E+02  0.97152085662E+02  0.26000000000E-02 0. -1.
         -2   -1    0    0    0  501 -0.00000000000E+00 -0.00000000000E+00 -0.21347552400E+02  0.21347552558E+02  0.26000000000E-02 0.  1.
         23    2    1    2    0    0  0.00000000000E+00  0.00000000000E+00  0.75804533228E+02  0.11849963822E+03  0.91081485498E+02 0.  0.
        -13    1    3    3    0    0  0.26323061048E+02 -0.26287742272E+00  0.86250420441E+02  0.90178261495E+02  0.10570000000E+00 0. -1.
         13    1    3    3    0    0 -0.26323061048E+02  0.26287742272E+00 -0.10445887213E+02  0.28321376726E+02  0.10570000000E+00 0.  1.
<mgrwt>
<rscale>  0 0.91081485E+02</rscale>
<asrwt>0</asrwt>
<pdfrwt beam="1">  1        2 0.14946475E-01 0.91081485E+02</pdfrwt>
<pdfrwt beam="2">  1       -2 0.32842389E-02 0.91081485E+02</pdfrwt>
<totfact> 0.12195745E+05</totfact>
</mgrwt>
</event>
<event>
 5   1  0.1343823E+00  0.9157583E+02  0.7818608E-02  0.1299080E+00
         -2   -1    0    0    0  501 -0.00000000000E+00  0.00000000000E+00  0.90290204381E+01  0.90290208125E+01  0.26000000000E-02 0.  1.
          2   -1    0    0  501    0  0.00000000000E+00 -0.00000000000E+00 -0.23219939067E+03  0.23219939068E+03  0.26000000000E-02 0. -1.
         23    2    1    2    0    0  0.00000000000E+00  0.00000000000E+00 -0.22317037023E+03  0.24122841150E+03  0.91575828492E+02 0.  0.
        -13    1    3    3    0    0  0.27661988554E+02 -0.36421436127E+02 -0.10580476780E+03  0.11526650286E+03  0.10570000000E+00 0.  1.
         13    1    3    3    0    0 -0.27661988554E+02  0.36421436127E+02 -0.11736560244E+03  0.12596190864E+03  0.10570000000E+00 0. -1.
<mgrwt>
<rscale>  0 0.91575828E+02</rscale>
<asrwt>0</asrwt>
<pdfrwt beam="2">  1        2 0.35722979E-01 0.91575828E+02</pdfrwt>
<pdfrwt beam="1">  1       -2 0.13890803E-02 0.91575828E+02</pdfrwt>
<totfact> 0.16144148E+05</totfact>
</mgrwt>
</event>
<event>
 5   1  0.1343823E+00  0.9232095E+02  0.7818608E-02  0.1297327E+00
          2   -1    0    0  501    0  0.00000000000E+00  0.00000000000E+00  0.14595124740E+03  0.14595124742E+03  0.26000000000E-02 0. -1.
         -2   -1    0    0    0  501 -0.00000000000E+00 -0.00000000000E+00 -0.14599322473E+02  0.14599322704E+02  0.26000000000E-02 0.  1.
         23    2    1    2    0    0  0.00000000000E+00  0.00000000000E+00  0.13135192493E+03  0.16055057013E+03  0.92320947711E+02 0.  0.
        -13    1    3    3    0    0  0.34071477259E+02 -0.21272140939E+02  0.26118499266E+02  0.47911968433E+02  0.10570000000E+00 0.  1.
         13    1    3    3    0    0 -0.34071477259E+02  0.21272140939E+02  0.10523342566E+03  0.11263860170E+03  0.10570000000E+00 0. -1.
<mgrwt>
<rscale>  0 0.92320948E+02</rscale>
<asrwt>0</asrwt>
<pdfrwt beam="1">  1        2 0.22454038E-01 0.92320948E+02</pdfrwt>
<pdfrwt beam="2">  1       -2 0.22460497E-02 0.92320948E+02</pdfrwt>
<totfact> 0.13389742E+05</totfact>
</mgrwt>
</event>
<event>
 5   1  0.1343823E+00  0.1017478E+03  0.7818608E-02  0.1276663E+00
         -2   -1    0    0    0  501 -0.00000000000E+00  0.00000000000E+00  0.44718132796E+02  0.44718132872E+02  0.26000000000E-02 0.  1.
          2   -1    0    0  501    0  0.00000000000E+00 -0.00000000000E+00 -0.57877070600E+02  0.57877070658E+02  0.26000000000E-02 0. -1.
         23    2    1    2    0    0  0.00000000000E+00  0.00000000000E+00 -0.13158937804E+02  0.10259520353E+03  0.10174781641E+03 0.  0.
        -13    1    3    3    0    0  0.21700603577E+02  0.45809451215E+02 -0.22166166324E+01  0.50738019059E+02  0.10570000000E+00 0.  1.
         13    1    3    3    0    0 -0.21700603577E+02 -0.45809451215E+02 -0.10942321171E+02  0.51857184471E+02  0.10570000000E+00 0. -1.
<mgrwt>
<rscale>  0 0.10174782E+03</rscale>
<asrwt>0</asrwt>
<pdfrwt beam="2">  1        2 0.89041647E-02 0.10174782E+03</pdfrwt>
<pdfrwt beam="1">  1       -2 0.68797127E-02 0.10174782E+03</pdfrwt>
<totfact> 0.76780750E+04</totfact>
</mgrwt>
</event>
<event>
 5   1  0.1343823E+00  0.9000448E+02  0.7818608E-02  0.1302841E+00
          2   -1    0    0  501    0  0.00000000000E+00  0.00000000000E+00  0.11946145032E+02  0.11946145315E+02  0.26000000000E-02 0. -1.
         -2   -1    0    0    0  501 -0.00000000000E+00 -0.00000000000E+00 -0.16952761407E+03  0.16952761409E+03  0.26000000000E-02 0.  1.
         23    2    1    2    0    0  0.00000000000E+00  0.00000000000E+00 -0.15758146904E+03  0.18147375940E+03  0.90004477491E+02 0.  0.
        -13    1    3    3    0    0  0.34464138549E+02 -0.27199319580E+02 -0.98711130324E+02  0.10803461600E+03  0.10570000000E+00 0.  1.
         13    1    3    3    0    0 -0.34464138549E+02  0.27199319580E+02 -0.58870338712E+02  0.73439143405E+02  0.10570000000E+00 0. -1.
<mgrwt>
<rscale>  0 0.90004477E+02</rscale>
<asrwt>0</asrwt>
<pdfrwt beam="1">  1        2 0.18378686E-02 0.90004477E+02</pdfrwt>
<pdfrwt beam="2">  1       -2 0.26081170E-01 0.90004477E+02</pdfrwt>
<totfact> 0.68934800E+04</totfact>
</mgrwt>
</event>
<event>
 5   1  0.1343823E+00  0.9211828E+02  0.7818608E-02  0.1297802E+00
          2   -1    0    0  501    0  0.00000000000E+00  0.00000000000E+00  0.63970986838E+02  0.63970986890E+02  0.26000000000E-02 0. -1.
         -2   -1    0    0    0  501 -0.00000000000E+00 -0.00000000000E+00 -0.33162605217E+02  0.33162605319E+02  0.26000000000E-02 0.  1.
         23    2    1    2    0    0  0.00000000000E+00  0.00000000000E+00  0.30808381621E+02  0.97133592209E+02  0.92118284598E+02 0.  0.
        -13    1    3    3    0    0  0.14717938433E+01 -0.17387062191E+02 -0.29542318602E+02  0.34310871012E+02  0.10570000000E+00 0.  1.
         13    1    3    3    0    0 -0.14717938433E+01  0.17387062191E+02  0.60350700222E+02  0.62822721197E+02  0.10570000000E+00 0. -1.
<mgrwt>
<rscale>  0 0.92118285E+02</rscale>
<asrwt>0</asrwt>
<pdfrwt beam="1">  1        2 0.98416902E-02 0.92118285E+02</pdfrwt>
<pdfrwt beam="2">  1       -2 0.51019394E-02 0.92118285E+02</pdfrwt>
<totfact> 0.10484311E+05</totfact>
</mgrwt>
</event>
<event>
 5   1  0.1343823E+00  0.8560709E+02  0.7818608E-02  0.1313853E+00
          2   -1    0    0  501    0  0.00000000000E+00  0.00000000000E+00  0.26294775467E+02  0.26294775596E+02  0.26000000000E-02 0. -1.
         -2   -1    0    0    0  501 -0.00000000000E+00 -0.00000000000E+00 -0.69677086637E+02  0.69677086685E+02  0.26000000000E-02 0.  1.
         23    2    1    2    0    0  0.00000000000E+00  0.00000000000E+00 -0.43382311169E+02  0.95971862281E+02  0.85607087483E+02 0.  0.
        -13    1    3    3    0    0  0.28903882204E+02 -0.20723638443E+02 -0.48391278191E+02  0.60055229367E+02  0.10570000000E+00 0.  1.
         13    1    3    3    0    0 -0.28903882204E+02  0.20723638443E+02  0.50089670220E+01  0.35916632914E+02  0.10570000000E+00 0. -1.
<mgrwt>
<rscale>  0 0.85607087E+02</rscale>
<asrwt>0</asrwt>
<pdfrwt beam="1">  1        2 0.40453501E-02 0.85607087E+02</pdfrwt>
<pdfrwt beam="2">  1       -2 0.10719552E-01 0.85607087E+02</pdfrwt>
<totfact> 0.10299298E+05</totfact>
</mgrwt>
</event>
<event>
 5   1  0.1343823E+00  0.9394549E+02  0.7818608E-02  0.1293569E+00
          2   -1    0    0  501    0  0.00000000000E+00  0.00000000000E+00  0.76346709992E+02  0.76346710036E+02  0.26000000000E-02 0. -1.
         -2   -1    0    0    0  501 -0.00000000000E+00 -0.00000000000E+00 -0.28900243788E+02  0.28900243905E+02  0.26000000000E-02 0.  1.
         23    2    1    2    0    0  0.00000000000E+00  0.00000000000E+00  0.47446466203E+02  0.10524695394E+03  0.93945485036E+02 0.  0.
        -13    1    3    3    0    0  0.20218187072E+02 -0.23974673612E+02 -0.15453055376E+02  0.34962382016E+02  0.10570000000E+00 0.  1.
         13    1    3    3    0    0 -0.20218187072E+02  0.23974673612E+02  0.62899521580E+02  0.70284571925E+02  0.10570000000E+00 0. -1.
<mgrwt>
<rscale>  0 0.93945485E+02</rscale>
<asrwt>0</asrwt>
<pdfrwt beam="1">  1        2 0.11745648E-01 0.93945485E+02</pdfrwt>
<pdfrwt beam="2">  1       -2 0.44461914E-02 0.93945485E+02</pdfrwt>
<totfact> 0.10424847E+05</totfact>
</mgrwt>
</event>
<event>
 5   1  0.1343823E+00  0.9117222E+02  0.7818608E-02  0.1300038E+00
          2   -1    0    0  501    0  0.00000000000E+00  0.00000000000E+00  0.30995866393E+03  0.30995866394E+03  0.26000000000E-02 0. -1.
         -2   -1    0    0    0  501 -0.00000000000E+00 -0.00000000000E+00 -0.67044213740E+01  0.67044218781E+01  0.26000000000E-02 0.  1.
         23    2    1    2    0    0  0.00000000000E+00  0.00000000000E+00  0.30325424255E+03  0.31666308582E+03  0.91172223249E+02 0.  0.
        -13    1    3    3    0    0 -0.20389953568E+02  0.38734616108E+02  0.19582903471E+03  0.20066176193E+03  0.10570000000E+00 0. -1.
         13    1    3    3    0    0  0.20389953568E+02 -0.38734616108E+02  0.10742520784E+03  0.11600132389E+03  0.10570000000E+00 0.  1.
<mgrwt>
<rscale>  0 0.91172223E+02</rscale>
<asrwt>0</asrwt>
<pdfrwt beam="1">  1        2 0.47685956E-01 0.91172223E+02</pdfrwt>
<pdfrwt beam="2">  1       -2 0.10314493E-02 0.91172223E+02</pdfrwt>
<totfact> 0.18188054E+05</totfact>
</mgrwt>
</event>
<event>
 5   1  0.1343823E+00  0.9555461E+02  0.7818608E-02  0.1289932E+00
         -2   -1    0    0    0  501 -0.00000000000E+00  0.00000000000E+00  0.81313866888E+02  0.81313866929E+02  0.26000000000E-02 0.  1.
          2   -1    0    0  501    0  0.00000000000E+00 -0.00000000000E+00 -0.28072342476E+02  0.28072342597E+02  0.26000000000E-02 0. -1.
         23    2    1    2    0    0  0.00000000000E+00  0.00000000000E+00  0.53241524411E+02  0.10938620953E+03  0.95554606968E+02 0.  0.
        -13    1    3    3    0    0 -0.38502882900E+02  0.11131057370E+02 -0.31490779572E+01  0.40203237360E+02  0.10570000000E+00 0.  1.
         13    1    3    3    0    0  0.38502882900E+02 -0.11131057370E+02  0.56390602368E+02  0.69182972166E+02  0.10570000000E+00 0. -1.
<mgrwt>
<rscale>  0 0.95554607E+02</rscale>
<asrwt>0</asrwt>
<pdfrwt beam="2">  1        2 0.43188220E-02 0.95554607E+02</pdfrwt>
<pdfrwt beam="1">  1       -2 0.12509826E-01 0.95554607E+02</pdfrwt>
<totfact> 0.75470659E+04</totfact>
</mgrwt>
</event>
<event>
 5   1  0.1343823E+00  0.9033774E+02  0.7818608E-02  0.1302036E+00
         -2   -1    0    0    0  501 -0.00000000000E+00  0.00000000000E+00  0.22535011839E+02  0.22535011989E+02  0.26000000000E-02 0.  1.
          2   -1    0    0  501    0  0.00000000000E+00 -0.00000000000E+00 -0.90535861485E+02  0.90535861522E+02  0.26000000000E-02 0. -1.
         23    2    1    2    0    0  0.00000000000E+00  0.00000000000E+00 -0.68000849646E+02  0.11307087351E+03  0.90337737872E+02 0.  0.
        -13    1    3    3    0    0  0.39763304606E+01  0.20889808771E+02  0.15877635009E+02  0.26538759963E+02  0.10570000000E+00 0.  1.
         13    1    3    3    0    0 -0.39763304606E+01 -0.20889808771E+02 -0.83878484655E+02  0.86532113547E+02  0.10570000000E+00 0. -1.
<mgrwt>
<rscale>  0 0.90337738E+02</rscale>
<asrwt>0</asrwt>
<pdfrwt beam="2">  1        2 0.13928594E-01 0.90337738E+02</pdfrwt>
<pdfrwt beam="1">  1       -2 0.34669250E-02 0.90337738E+02</pdfrwt>
<totfact> 0.12214535E+05</totfact>
</mgrwt>
</event>
<event>
 5   1  0.1343823E+00  0.9195418E+02  0.7818608E-02  0.1298187E+00
         -2   -1    0    0    0  501 -0.00000000000E+00  0.00000000000E+00  0.60170653313E+02  0.60170653370E+02  0.26000000000E-02 0.  1.
          2   -1    0    0  501    0  0.00000000000E+00 -0.00000000000E+00 -0.35131622307E+02  0.35131622403E+02  0.26000000000E-02 0. -1.
         23    2    1    2    0    0  0.00000000000E+00  0.00000000000E+00  0.25039031007E+02  0.95302275773E+02  0.91954177141E+02 0.  0.
        -13    1    3    3    0    0  0.36559769379E+02 -0.59931117521E+00  0.41407412855E+02  0.55240935209E+02  0.10570000000E+00 0.  1.
         13    1    3    3    0    0 -0.36559769379E+02  0.59931117521E+00 -0.16368381848E+02  0.40061340564E+02  0.10570000000E+00 0. -1.
<mgrwt>
<rscale>  0 0.91954177E+02</rscale>
<asrwt>0</asrwt>
<pdfrwt beam="2">  1        2 0.54048650E-02 0.91954177E+02</pdfrwt>
<pdfrwt beam="1">  1       -2 0.92570235E-02 0.91954177E+02</pdfrwt>
<totfact> 0.89960033E+04</totfact>
</mgrwt>
</event>
<event>
 5   1  0.1343823E+00  0.1092279E+03  0.7818608E-02  0.1262006E+00
          2   -1    0    0  501    0  0.00000000000E+00  0.00000000000E+00  0.26867440664E+02  0.26867440790E+02  0.26000000000E-02 0. -1.
         -2   -1    0    0    0  501 -0.00000000000E+00 -0.00000000000E+00 -0.11101471398E+03  0.11101471401E+03  0.26000000000E-02 0.  1.
         23    2    1    2    0    0  0.00000000000E+00  0.00000000000E+00 -0.84147273316E+02  0.13788215480E+03  0.10922785819E+03 0.  0.
        -13    1    3    3    0    0  0.32911093841E+02  0.26925484934E+02 -0.85335983386E+02  0.95343395522E+02  0.10570000000E+00 0.  1.
         13    1    3    3    0    0 -0.32911093841E+02 -0.26925484934E+02  0.11887100705E+01  0.42538759278E+02  0.10570000000E+00 0. -1.
<mgrwt>
<rscale>  0 0.10922786E+03</rscale>
<asrwt>0</asrwt>
<pdfrwt beam="1">  1        2 0.41334525E-02 0.10922786E+03</pdfrwt>
<pdfrwt beam="2">  1       -2 0.17079187E-01 0.10922786E+03</pdfrwt>
<totfact> 0.49244991E+04</totfact>
</mgrwt>
</event>
<event>
 5   1  0.1343823E+00  0.9061105E+02  0.7818608E-02  0.1301379E+00
         -2   -1    0    0    0  501 -0.00000000000E+00  0.00000000000E+00  0.10598609025E+03  0.10598609028E+03  0.26000000000E-02 0.  1.
          2   -1    0    0  501    0  0.00000000000E+00 -0.00000000000E+00 -0.19366603897E+02  0.19366604072E+02  0.26000000000E-02 0. -1.
         23    2    1    2    0    0  0.00000000000E+00  0.00000000000E+00  0.86619486355E+02  0.12535269436E+03  0.90611051014E+02 0.  0.
        -13    1    3    3    0    0 -0.24987387242E+02 -0.17357473992E+02 -0.31311537372E+01  0.30585400451E+02  0.10570000000E+00 0. -1.
         13    1    3    3    0    0  0.24987387242E+02  0.17357473992E+02  0.89750640092E+02  0.94767293904E+02  0.10570000000E+00 0.  1.
<mgrwt>
<rscale>  0 0.90611051E+02</rscale>
<asrwt>0</asrwt>
<pdfrwt beam="2">  1        2 0.29794775E-02 0.90611051E+02</pdfrwt>
<pdfrwt beam="1">  1       -2 0.16305553E-01 0.90611051E+02</pdfrwt>
<totfact> 0.79644791E+04</totfact>
</mgrwt>
</event>
<event>
 5   1  0.1343823E+00  0.9892585E+02  0.7818608E-02  0.1282571E+00
          2   -1    0    0  501    0  0.00000000000E+00  0.00000000000E+00  0.25319545257E+03  0.25319545259E+03  0.26000000000E-02 0. -1.
         -2   -1    0    0    0  501 -0.00000000000E+00 -0.00000000000E+00 -0.96628156581E+01  0.96628160079E+01  0.26000000000E-02 0.  1.
         23    2    1    2    0    0  0.00000000000E+00  0.00000000000E+00  0.24353263692E+03  0.26285826859E+03  0.98925851655E+02 0.  0.
        -13    1    3    3    0    0  0.18727527162E+02  0.45707700894E+02  0.11491131702E+03  0.12507812017E+03  0.10570000000E+00 0.  1.
         13    1    3    3    0    0 -0.18727527162E+02 -0.45707700894E+02  0.12862131990E+03  0.13778014842E+03  0.10570000000E+00 0. -1.
<mgrwt>
<rscale>  0 0.98925852E+02</rscale>
<asrwt>0</asrwt>
<pdfrwt beam="1">  1        2 0.38953147E-01 0.98925852E+02</pdfrwt>
<pdfrwt beam="2">  1       -2 0.14865871E-02 0.98925852E+02</pdfrwt>
<totfact> 0.13540877E+05</totfact>
</mgrwt>
</event>
<event>
 5   1  0.1343823E+00  0.9058496E+02  0.7818608E-02  0.1301441E+00
         -2   -1    0    0    0  501 -0.00000000000E+00  0.00000000000E+00  0.21801747635E+02  0.21801747790E+02  0.26000000000E-02 0.  1.
          2   -1    0    0  501    0  0.00000000000E+00 -0.00000000000E+00 -0.94093771828E+02  0.94093771864E+02  0.26000000000E-02 0. -1.
         23    2    1    2    0    0  0.00000000000E+00  0.00000000000E+00 -0.72292024193E+02  0.11589551965E+03  0.90584958541E+02 0.  0.
        -13    1    3    3    0    0  0.25298276547E+02 -0.30290548040E+02 -0.77131788595E+01  0.40212241885E+02  0.10570000000E+00 0.  1.
         13    1    3    3    0    0 -0.25298276547E+02  0.30290548040E+02 -0.64578845334E+02  0.75683277769E+02  0.10570000000E+00 0. -1.
<mgrwt>
<rscale>  0 0.90584959E+02</rscale>
<asrwt>0</asrwt>
<pdfrwt beam="2">  1        2 0.14475965E-01 0.90584959E+02</pdfrwt>
<pdfrwt beam="1">  1       -2 0.33541151E-02 0.90584959E+02</pdfrwt>
<totfact> 0.12262405E+05</totfact>
</mgrwt>
</event>
<event>
 5   1  0.1343823E+00  0.9095758E+02  0.7818608E-02  0.1300549E+00
          2   -1    0    0  501    0  0.00000000000E+00  0.00000000000E+00  0.26127040620E+03  0.26127040621E+03  0.26000000000E-02 0. -1.
         -2   -1    0    0    0  501 -0.00000000000E+00 -0.00000000000E+00 -0.79163963919E+01  0.79163968188E+01  0.26000000000E-02 0.  1.
         23    2    1    2    0    0  0.00000000000E+00  0.00000000000E+00  0.25335400981E+03  0.26918680303E+03  0.90957576049E+02 0.  0.
        -13    1    3    3    0    0  0.30729909812E+02 -0.20465242851E+02  0.20526520182E+03  0.20855926681E+03  0.10570000000E+00 0. -1.
         13    1    3    3    0    0 -0.30729909812E+02  0.20465242851E+02  0.48088807988E+02  0.60627536221E+02  0.10570000000E+00 0.  1.
<mgrwt>
<rscale>  0 0.90957576E+02</rscale>
<asrwt>0</asrwt>
<pdfrwt beam="1">  1        2 0.40195446E-01 0.90957576E+02</pdfrwt>
<pdfrwt beam="2">  1       -2 0.12179072E-02 0.90957576E+02</pdfrwt>
<totfact> 0.17173456E+05</totfact>
</mgrwt>
</event>
<event>
 5   1  0.1343823E+00  0.8940954E+02  0.7818608E-02  0.1304288E+00
          2   -1    0    0  501    0  0.00000000000E+00  0.00000000000E+00  0.22743338406E+02  0.22743338554E+02  0.26000000000E-02 0.  1.
         -2   -1    0    0    0  501 -0.00000000000E+00 -0.00000000000E+00 -0.87872616851E+02  0.87872616889E+02  0.26000000000E-02 0. -1.
         23    2    1    2    0    0  0.00000000000E+00  0.00000000000E+00 -0.65129278445E+02  0.11061595544E+03  0.89409544725E+02 0.  0.
        -13    1    3    3    0    0  0.38136956219E+02 -0.21484908842E+02 -0.43800327780E+02  0.61923409335E+02  0.10570000000E+00 0.  1.
         13    1    3    3    0    0 -0.38136956219E+02  0.21484908842E+02 -0.21328950664E+02  0.48692546108E+02  0.10570000000E+00 0. -1.
<mgrwt>
<rscale>  0 0.89409545E+02</rscale>
<asrwt>0</asrwt>
<pdfrwt beam="1">  1        2 0.34989752E-02 0.89409545E+02</pdfrwt>
<pdfrwt beam="2">  1       -2 0.13518864E-01 0.89409545E+02</pdfrwt>
<totfact> 0.86973013E+04</totfact>
</mgrwt>
</event>
<event>
 5   1  0.1343823E+00  0.9083843E+02  0.7818608E-02  0.1300834E+00
         -2   -1    0    0    0  501 -0.00000000000E+00  0.00000000000E+00  0.11049777977E+02  0.11049778282E+02  0.26000000000E-02 0. -1.
          2   -1    0    0  501    0  0.00000000000E+00 -0.00000000000E+00 -0.18669199027E+03  0.18669199029E+03  0.26000000000E-02 0.  1.
         23    2    1    2    0    0  0.00000000000E+00  0.00000000000E+00 -0.17564221229E+03  0.19774176857E+03  0.90838429632E+02 0.  0.
        -13    1    3    3    0    0  0.95652163250E+01  0.27042269976E+02 -0.11162665269E+02  0.30779766035E+02  0.10570000000E+00 0. -1.
         13    1    3    3    0    0 -0.95652163250E+01 -0.27042269976E+02 -0.16447954702E+03  0.16696200254E+03  0.10570000000E+00 0.  1.
<mgrwt>
<rscale>  0 0.90838430E+02</rscale>
<asrwt>0</asrwt>
<pdfrwt beam="2">  1        2 0.28721842E-01 0.90838430E+02</pdfrwt>
<pdfrwt beam="1">  1       -2 0.16999660E-02 0.90838430E+02</pdfrwt>
<totfact> 0.15241691E+05</totfact>
</mgrwt>
</event>
<event>
 5   1  0.1343823E+00  0.9205749E+02  0.7818608E-02  0.1297944E+00
          2   -1    0    0  501    0  0.00000000000E+00  0.00000000000E+00  0.27996960692E+03  0.27996960693E+03  0.26000000000E-02 0. -1.
         -2   -1    0    0    0  501 -0.00000000000E+00 -0.00000000000E+00 -0.75674112655E+01  0.75674117121E+01  0.26000000000E-02 0.  1.
         23    2    1    2    0    0  0.00000000000E+00  0.00000000000E+00  0.27240219565E+03  0.28753701864E+03  0.92057486894E+02 0.  0.
        -13    1    3    3    0    0 -0.40035921173E+00 -0.45268030023E+02  0.16219887092E+03  0.16839786141E+03  0.10570000000E+00 0.  1.
         13    1    3    3    0    0  0.40035921173E+00  0.45268030023E+02  0.11020332473E+03  0.11913915723E+03  0.10570000000E+00 0. -1.
<mgrwt>
<rscale>  0 0.92057487E+02</rscale>
<asrwt>0</asrwt>
<pdfrwt beam="1">  1        2 0.43072249E-01 0.92057487E+02</pdfrwt>
<pdfrwt beam="2">  1       -2 0.11642171E-02 0.92057487E+02</pdfrwt>
<totfact> 0.17064526E+05</totfact>
</mgrwt>
</event>
<event>
 5   1  0.1343823E+00  0.9215089E+02  0.7818608E-02  0.1297725E+00
          2   -1    0    0  501    0  0.00000000000E+00  0.00000000000E+00  0.16177728223E+02  0.16177728432E+02  0.26000000000E-02 0. -1.
         -2   -1    0    0    0  501 -0.00000000000E+00 -0.00000000000E+00 -0.13122649603E+03  0.13122649606E+03  0.26000000000E-02 0.  1.
         23    2    1    2    0    0  0.00000000000E+00  0.00000000000E+00 -0.11504876781E+03  0.14740422449E+03  0.92150889432E+02 0.  0.
        -13    1    3    3    0    0 -0.28268881522E+02  0.78408242186E+01 -0.69193410313E+00  0.29344473623E+02  0.10570000000E+00 0. -1.
         13    1    3    3    0    0  0.28268881522E+02 -0.78408242186E+01 -0.11435683371E+03  0.11805975087E+03  0.10570000000E+00 0.  1.
<mgrwt>
<rscale>  0 0.92150889E+02</rscale>
<asrwt>0</asrwt>
<pdfrwt beam="1">  1        2 0.24888814E-02 0.92150889E+02</pdfrwt>
<pdfrwt beam="2">  1       -2 0.20188691E-01 0.92150889E+02</pdfrwt>
<totfact> 0.71279370E+04</totfact>
</mgrwt>
</event>
<event>
 5   1  0.1343823E+00  0.9154965E+02  0.7818608E-02  0.1299142E+00
         -2   -1    0    0    0  501 -0.00000000000E+00  0.00000000000E+00  0.11758011632E+02  0.11758011920E+02  0.26000000000E-02 0.  1.
          2   -1    0    0  501    0  0.00000000000E+00 -0.00000000000E+00 -0.17820482699E+03  0.17820482701E+03  0.26000000000E-02 0. -1.
         23    2    1    2    0    0  0.00000000000E+00  0.00000000000E+00 -0.16644681536E+03  0.18996283893E+03  0.91549646811E+02 0.  0.
        -13    1    3    3    0    0  0.67796048665E+01  0.26186004227E+02 -0.15984725990E+03  0.16211979376E+03  0.10570000000E+00 0. -1.
         13    1    3    3    0    0 -0.67796048665E+01 -0.26186004227E+02 -0.65995554596E+01  0.27843045168E+02  0.10570000000E+00 0.  1.
<mgrwt>
<rscale>  0 0.91549647E+02</rscale>
<asrwt>0</asrwt>
<pdfrwt beam="2">  1        2 0.27416125E-01 0.91549647E+02</pdfrwt>
<pdfrwt beam="1">  1       -2 0.18089250E-02 0.91549647E+02</pdfrwt>
<totfact> 0.14678966E+05</totfact>
</mgrwt>
</event>
<event>
 5   1  0.1343823E+00  0.8947353E+02  0.7818608E-02  0.1304132E+00
         -2   -1    0    0    0  501 -0.00000000000E+00  0.00000000000E+00  0.28672394530E+02  0.28672394648E+02  0.26000000000E-02 0.  1.
          2   -1    0    0  501    0  0.00000000000E+00 -0.00000000000E+00 -0.69801570593E+02  0.69801570642E+02  0.26000000000E-02 0. -1.
         23    2    1    2    0    0  0.00000000000E+00  0.00000000000E+00 -0.41129176063E+02  0.98473965290E+02  0.89473530814E+02 0.  0.
        -13    1    3    3    0    0  0.33455916532E+02  0.13981107443E+02  0.82742589618E+01  0.37191991748E+02  0.10570000000E+00 0.  1.
         13    1    3    3    0    0 -0.33455916532E+02 -0.13981107443E+02 -0.49403435025E+02  0.61281973541E+02  0.10570000000E+00 0. -1.
<mgrwt>
<rscale>  0 0.89473531E+02</rscale>
<asrwt>0</asrwt>
<pdfrwt beam="2">  1        2 0.10738703E-01 0.89473531E+02</pdfrwt>
<pdfrwt beam="1">  1       -2 0.44111377E-02 0.89473531E+02</pdfrwt>
<totfact> 0.11650692E+05</totfact>
</mgrwt>
</event>
<event>
 5   1  0.1343823E+00  0.7441902E+02  0.7818608E-02  0.1345680E+00
         -2   -1    0    0    0  501 -0.00000000000E+00  0.00000000000E+00  0.42425025230E+02  0.42425025310E+02  0.26000000000E-02 0.  1.
          2   -1    0    0  501    0  0.00000000000E+00 -0.00000000000E+00 -0.32635160589E+02  0.32635160692E+02  0.26000000000E-02 0. -1.
         23    2    1    2    0    0  0.00000000000E+00  0.00000000000E+00  0.97898646419E+01  0.75060186002E+02  0.74419016877E+02 0.  0.
        -13    1    3    3    0    0  0.21727515941E+02  0.28836988742E+02 -0.41758527204E+01  0.36347018958E+02  0.10570000000E+00 0. -1.
         13    1    3    3    0    0 -0.21727515941E+02 -0.28836988742E+02  0.13965717362E+02  0.38713167044E+02  0.10570000000E+00 0.  1.
<mgrwt>
<rscale>  0 0.74419017E+02</rscale>
<asrwt>0</asrwt>
<pdfrwt beam="2">  1        2 0.50207939E-02 0.74419017E+02</pdfrwt>
<pdfrwt beam="1">  1       -2 0.65269270E-02 0.74419017E+02</pdfrwt>
<totfact> 0.16224638E+05</totfact>
</mgrwt>
</event>
<event>
 5   1  0.1343823E+00  0.9000723E+02  0.7818608E-02  0.1302834E+00
         -2   -1    0    0    0  501 -0.00000000000E+00  0.00000000000E+00  0.74723561812E+02  0.74723561857E+02  0.26000000000E-02 0.  1.
          2   -1    0    0  501    0  0.00000000000E+00 -0.00000000000E+00 -0.27104242192E+02  0.27104242317E+02  0.26000000000E-02 0. -1.
         23    2    1    2    0    0  0.00000000000E+00  0.00000000000E+00  0.47619319619E+02  0.10182780417E+03  0.90007233609E+02 0.  0.
        -13    1    3    3    0    0 -0.45239665193E+01 -0.44233830289E+02  0.31665381261E+02  0.54587595276E+02  0.10570000000E+00 0. -1.
         13    1    3    3    0    0  0.45239665193E+01  0.44233830289E+02  0.15953938358E+02  0.47240208898E+02  0.10570000000E+00 0.  1.
<mgrwt>
<rscale>  0 0.90007234E+02</rscale>
<asrwt>0</asrwt>
<pdfrwt beam="2">  1        2 0.41698835E-02 0.90007234E+02</pdfrwt>
<pdfrwt beam="1">  1       -2 0.11495932E-01 0.90007234E+02</pdfrwt>
<totfact> 0.89462461E+04</totfact>
</mgrwt>
</event>
<event>
 5   1  0.1343823E+00  0.9421978E+02  0.7818608E-02  0.1292943E+00
         -2   -1    0    0    0  501 -0.00000000000E+00  0.00000000000E+00  0.25335460805E+02  0.25335460938E+02  0.26000000000E-02 0.  1.
          2   -1    0    0  501    0  0.00000000000E+00 -0.00000000000E+00 -0.87598237932E+02  0.87598237971E+02  0.26000000000E-02 0. -1.
         23    2    1    2    0    0  0.00000000000E+00  0.00000000000E+00 -0.62262777127E+02  0.11293369891E+03  0.94219779949E+02 0.  0.
        -13    1    3    3    0    0 -0.10761696629E+02 -0.16365212484E+02  0.20223510451E+02  0.28153789113E+02  0.10570000000E+00 0.  1.
         13    1    3    3    0    0  0.10761696629E+02  0.16365212484E+02 -0.82486287579E+02  0.84779909796E+02  0.10570000000E+00 0. -1.
<mgrwt>
<rscale>  0 0.94219780E+02</rscale>
<asrwt>0</asrwt>
<pdfrwt beam="2">  1        2 0.13476652E-01 0.94219780E+02</pdfrwt>
<pdfrwt beam="1">  1       -2 0.38977633E-02 0.94219780E+02</pdfrwt>
<totfact> 0.10763873E+05</totfact>
</mgrwt>
</event>
<event>
 5   1  0.1343823E+00  0.9400456E+02  0.7818608E-02  0.1293434E+00
          2   -1    0    0  501    0  0.00000000000E+00  0.00000000000E+00  0.12105677964E+02  0.12105678243E+02  0.26000000000E-02 0. -1.
         -2   -1    0    0    0  501 -0.00000000000E+00 -0.00000000000E+00 -0.18249407153E+03  0.18249407155E+03  0.26000000000E-02 0.  1.
         23    2    1    2    0    0  0.00000000000E+00  0.00000000000E+00 -0.17038839356E+03  0.19459974979E+03  0.94004563491E+02 0.  0.
        -13    1    3    3    0    0 -0.35423083583E+02 -0.14457349931E+02 -0.14171211294E+03  0.14678604819E+03  0.10570000000E+00 0.  1.
         13    1    3    3    0    0  0.35423083583E+02  0.14457349931E+02 -0.28676280624E+02  0.47813701597E+02  0.10570000000E+00 0. -1.
<mgrwt>
<rscale>  0 0.94004563E+02</rscale>
<asrwt>0</asrwt>
<pdfrwt beam="1">  1        2 0.18624122E-02 0.94004563E+02</pdfrwt>
<pdfrwt beam="2">  1       -2 0.28076009E-01 0.94004563E+02</pdfrwt>
<totfact> 0.59916068E+04</totfact>
</mgrwt>
</event>
<event>
 5   1  0.1343823E+00  0.9122755E+02  0.7818608E-02  0.1299906E+00
          2   -1    0    0  501    0  0.00000000000E+00  0.00000000000E+00  0.14243217022E+03  0.14243217024E+03  0.26000000000E-02 0. -1.
         -2   -1    0    0    0  501 -0.00000000000E+00 -0.00000000000E+00 -0.14607770640E+02  0.14607770872E+02  0.26000000000E-02 0.  1.
         23    2    1    2    0    0  0.00000000000E+00  0.00000000000E+00  0.12782439958E+03  0.15703994111E+03  0.91227550540E+02 0.  0.
        -13    1    3    3    0    0 -0.39935550145E+02 -0.15001878614E+02  0.91706470741E+02  0.10114342527E+03  0.10570000000E+00 0. -1.
         13    1    3    3    0    0  0.39935550145E+02  0.15001878614E+02  0.36117928838E+02  0.55896515843E+02  0.10570000000E+00 0.  1.
<mgrwt>
<rscale>  0 0.91227551E+02</rscale>
<asrwt>0</asrwt>
<pdfrwt beam="1">  1        2 0.21912641E-01 0.91227551E+02</pdfrwt>
<pdfrwt beam="2">  1       -2 0.22473494E-02 0.91227551E+02</pdfrwt>
<totfact> 0.13717655E+05</totfact>
</mgrwt>
</event>
<event>
 5   1  0.1343823E+00  0.9090674E+02  0.7818608E-02  0.1300671E+00
         -2   -1    0    0    0  501 -0.00000000000E+00  0.00000000000E+00  0.47731775662E+01  0.47731782743E+01  0.26000000000E-02 0. -1.
          2   -1    0    0  501    0  0.00000000000E+00 -0.00000000000E+00 -0.43283713702E+03  0.43283713703E+03  0.26000000000E-02 0.  1.
         23    2    1    2    0    0  0.00000000000E+00  0.00000000000E+00 -0.42806395946E+03  0.43761031530E+03  0.90906736140E+02 0.  0.
        -13    1    3    3    0    0  0.28446841139E+02  0.34684278232E+02 -0.24933273463E+03  0.25333583572E+03  0.10570000000E+00 0.  1.
         13    1    3    3    0    0 -0.28446841139E+02 -0.34684278232E+02 -0.17873122482E+03  0.18427447959E+03  0.10570000000E+00 0. -1.
<mgrwt>
<rscale>  0 0.90906736E+02</rscale>
<asrwt>0</asrwt>
<pdfrwt beam="2">  1        2 0.66590298E-01 0.90906736E+02</pdfrwt>
<pdfrwt beam="1">  1       -2 0.73433541E-03 0.90906736E+02</pdfrwt>
<totfact> 0.20688454E+05</totfact>
</mgrwt>
</event>
<event>
 5   1  0.1343823E+00  0.9432834E+02  0.7818608E-02  0.1292696E+00
         -2   -1    0    0    0  501 -0.00000000000E+00  0.00000000000E+00  0.96506601054E+01  0.96506604556E+01  0.26000000000E-02 0.  1.
          2   -1    0    0  501    0  0.00000000000E+00 -0.00000000000E+00 -0.23049813041E+03  0.23049813042E+03  0.26000000000E-02 0. -1.
         23    2    1    2    0    0  0.00000000000E+00  0.00000000000E+00 -0.22084747030E+03  0.24014879088E+03  0.94328344739E+02 0.  0.
        -13    1    3    3    0    0  0.34630346654E+02  0.25957901344E+02 -0.62701226144E+02  0.76187456212E+02  0.10570000000E+00 0.  1.
         13    1    3    3    0    0 -0.34630346654E+02 -0.25957901344E+02 -0.15814624416E+03  0.16396133467E+03  0.10570000000E+00 0. -1.
<mgrwt>
<rscale>  0 0.94328345E+02</rscale>
<asrwt>0</asrwt>
<pdfrwt beam="2">  1        2 0.35461247E-01 0.94328345E+02</pdfrwt>
<pdfrwt beam="1">  1       -2 0.14847171E-02 0.94328345E+02</pdfrwt>
<totfact> 0.14867197E+05</totfact>
</mgrwt>
</event>
<event>
 5   1  0.1343823E+00  0.8796531E+02  0.7818608E-02  0.1307855E+00
          2   -1    0    0  501    0  0.00000000000E+00  0.00000000000E+00  0.17816035347E+03  0.17816035349E+03  0.26000000000E-02 0. -1.
         -2   -1    0    0    0  501 -0.00000000000E+00 -0.00000000000E+00 -0.10858049795E+02  0.10858050106E+02  0.26000000000E-02 0.  1.
         23    2    1    2    0    0  0.00000000000E+00  0.00000000000E+00  0.16730230368E+03  0.18901840360E+03  0.87965311816E+02 0.  0.
        -13    1    3    3    0    0  0.25982987790E+01  0.34835922306E+02  0.26227142800E+02  0.43682568965E+02  0.10570000000E+00 0.  1.
         13    1    3    3    0    0 -0.25982987790E+01 -0.34835922306E+02  0.14107516088E+03  0.14533583463E+03  0.10570000000E+00 0. -1.
<mgrwt>
<rscale>  0 0.87965312E+02</rscale>
<asrwt>0</asrwt>
<pdfrwt beam="1">  1        2 0.27409284E-01 0.87965312E+02</pdfrwt>
<pdfrwt beam="2">  1       -2 0.16704693E-02 0.87965312E+02</pdfrwt>
<totfact> 0.16344856E+05</totfact>
</mgrwt>
</event>
<event>
 5   1  0.1343823E+00  0.1160739E+03  0.7818608E-02  0.1249718E+00
         -2   -1    0    0    0  501 -0.00000000000E+00  0.00000000000E+00  0.15912434220E+02  0.15912434433E+02  0.26000000000E-02 0.  1.
          2   -1    0    0  501    0  0.00000000000E+00 -0.00000000000E+00 -0.21167650982E+03  0.21167650983E+03  0.26000000000E-02 0. -1.
         23    2    1    2    0    0  0.00000000000E+00  0.00000000000E+00 -0.19576407560E+03  0.22758894427E+03  0.11607391722E+03 0.  0.
        -13    1    3    3    0    0 -0.10309892972E+02  0.52062459949E+02 -0.14392708105E+03  0.15340081311E+03  0.10570000000E+00 0.  1.
         13    1    3    3    0    0  0.10309892972E+02 -0.52062459949E+02 -0.51836994545E+02  0.74188131159E+02  0.10570000000E+00 0. -1.
<mgrwt>
<rscale>  0 0.11607392E+03</rscale>
<asrwt>0</asrwt>
<pdfrwt beam="2">  1        2 0.32565615E-01 0.11607392E+03</pdfrwt>
<pdfrwt beam="1">  1       -2 0.24480670E-02 0.11607392E+03</pdfrwt>
<totfact> 0.81689341E+04</totfact>
</mgrwt>
</event>
<event>
 5   1  0.1343823E+00  0.9151882E+02  0.7818608E-02  0.1299215E+00
          2   -1    0    0  501    0  0.00000000000E+00  0.00000000000E+00  0.17776129330E+02  0.17776129521E+02  0.26000000000E-02 0. -1.
         -2   -1    0    0    0  501 -0.00000000000E+00 -0.00000000000E+00 -0.11779412283E+03  0.11779412286E+03  0.26000000000E-02 0.  1.
         23    2    1    2    0    0  0.00000000000E+00  0.00000000000E+00 -0.10001799350E+03  0.13557025238E+03  0.91518819412E+02 0.  0.
        -13    1    3    3    0    0 -0.86962152207E+01  0.17978541460E+02 -0.11099730274E+03  0.11277971671E+03  0.10570000000E+00 0.  1.
         13    1    3    3    0    0  0.86962152207E+01 -0.17978541460E+02  0.10979309243E+02  0.22790535671E+02  0.10570000000E+00 0. -1.
<mgrwt>
<rscale>  0 0.91518819E+02</rscale>
<asrwt>0</asrwt>
<pdfrwt beam="1">  1        2 0.27347892E-02 0.91518819E+02</pdfrwt>
<pdfrwt beam="2">  1       -2 0.18122172E-01 0.91518819E+02</pdfrwt>
<totfact> 0.75158923E+04</totfact>
</mgrwt>
</event>
<event>
 5   1  0.1343823E+00  0.8253819E+02  0.7818608E-02  0.1321999E+00
          2   -1    0    0  501    0  0.00000000000E+00  0.00000000000E+00  0.47136018490E+03  0.47136018491E+03  0.26000000000E-02 0.  1.
         -2   -1    0    0    0  501 -0.00000000000E+00 -0.00000000000E+00 -0.36132409988E+01  0.36132419342E+01  0.26000000000E-02 0. -1.
         23    2    1    2    0    0  0.00000000000E+00  0.00000000000E+00  0.46774694390E+03  0.47497342684E+03  0.82538189201E+02 0.  0.
        -13    1    3    3    0    0 -0.37985006556E+02  0.16116422881E+02  0.22969519942E+03  0.23337201121E+03  0.10570000000E+00 0.  1.
         13    1    3    3    0    0  0.37985006556E+02 -0.16116422881E+02  0.23805174449E+03  0.24160141563E+03  0.10570000000E+00 0. -1.
<mgrwt>
<rscale>  0 0.82538189E+02</rscale>
<asrwt>0</asrwt>
<pdfrwt beam="1">  1        2 0.72516951E-01 0.82538189E+02</pdfrwt>
<pdfrwt beam="2">  1       -2 0.55588330E-03 0.82538189E+02</pdfrwt>
<totfact> 0.27469529E+05</totfact>
</mgrwt>
</event>
<event>
 5   1  0.1343823E+00  0.8720698E+02  0.7818608E-02  0.1309760E+00
          2   -1    0    0  501    0  0.00000000000E+00  0.00000000000E+00  0.15383697028E+03  0.15383697030E+03  0.26000000000E-02 0.  1.
         -2   -1    0    0    0  501 -0.00000000000E+00 -0.00000000000E+00 -0.12358956452E+02  0.12358956726E+02  0.26000000000E-02 0. -1.
         23    2    1    2    0    0  0.00000000000E+00  0.00000000000E+00  0.14147801382E+03  0.16619592702E+03  0.87206982311E+02 0.  0.
        -13    1    3    3    0    0  0.40098479337E+02 -0.69536969802E+01  0.40908392793E+02  0.57703983573E+02  0.10570000000E+00 0.  1.
         13    1    3    3    0    0 -0.40098479337E+02  0.69536969802E+01  0.10056962103E+03  0.10849194345E+03  0.10570000000E+00 0. -1.
<mgrwt>
<rscale>  0 0.87206982E+02</rscale>
<asrwt>0</asrwt>
<pdfrwt beam="1">  1        2 0.23667226E-01 0.87206982E+02</pdfrwt>
<pdfrwt beam="2">  1       -2 0.19013779E-02 0.87206982E+02</pdfrwt>
<totfact> 0.15904629E+05</totfact>
</mgrwt>
</event>
<event>
 5   1  0.1343823E+00  0.9149149E+02  0.7818608E-02  0.1299280E+00
         -2   -1    0    0    0  501 -0.00000000000E+00  0.00000000000E+00  0.11366279969E+02  0.11366280267E+02  0.26000000000E-02 0.  1.
          2   -1    0    0  501    0  0.00000000000E+00 -0.00000000000E+00 -0.18411238748E+03  0.18411238750E+03  0.26000000000E-02 0. -1.
         23    2    1    2    0    0  0.00000000000E+00  0.00000000000E+00 -0.17274610751E+03  0.19547866776E+03  0.91491485348E+02 0.  0.
        -13    1    3    3    0    0  0.20422873951E+02  0.40562862735E+02 -0.98118827569E+02  0.10811917087E+03  0.10570000000E+00 0. -1.
         13    1    3    3    0    0 -0.20422873951E+02 -0.40562862735E+02 -0.74627279941E+02  0.87359496894E+02  0.10570000000E+00 0.  1.
<mgrwt>
<rscale>  0 0.91491485E+02</rscale>
<asrwt>0</asrwt>
<pdfrwt beam="2">  1        2 0.28324981E-01 0.91491485E+02</pdfrwt>
<pdfrwt beam="1">  1       -2 0.17486586E-02 0.91491485E+02</pdfrwt>
<totfact> 0.14875807E+05</totfact>
</mgrwt>
</event>
<event>
 5   1  0.1343823E+00  0.9146077E+02  0.7818608E-02  0.1299352E+00
          2   -1    0    0  501    0  0.00000000000E+00  0.00000000000E+00  0.18851979580E+03  0.18851979581E+03  0.26000000000E-02 0. -1.
         -2   -1    0    0    0  501 -0.00000000000E+00 -0.00000000000E+00 -0.11093096226E+02  0.11093096531E+02  0.26000000000E-02 0.  1.
         23    2    1    2    0    0  0.00000000000E+00  0.00000000000E+00  0.17742669957E+03  0.19961289234E+03  0.91460773395E+02 0.  0.
        -13    1    3    3    0    0 -0.40998510354E+01 -0.28880693272E+02  0.11848723229E+02  0.31485022424E+02  0.10570000000E+00 0.  1.
         13    1    3    3    0    0  0.40998510354E+01  0.28880693272E+02  0.16557797634E+03  0.16812786992E+03  0.10570000000E+00 0. -1.
<mgrwt>
<rscale>  0 0.91460773E+02</rscale>
<asrwt>0</asrwt>
<pdfrwt beam="1">  1        2 0.29003043E-01 0.91460773E+02</pdfrwt>
<pdfrwt beam="2">  1       -2 0.17066303E-02 0.91460773E+02</pdfrwt>
<totfact> 0.15015796E+05</totfact>
</mgrwt>
</event>
<event>
 5   1  0.1343823E+00  0.9185970E+02  0.7818608E-02  0.1298410E+00
          2   -1    0    0  501    0  0.00000000000E+00  0.00000000000E+00  0.34186486296E+02  0.34186486395E+02  0.26000000000E-02 0. -1.
         -2   -1    0    0    0  501 -0.00000000000E+00 -0.00000000000E+00 -0.61707160828E+02  0.61707160883E+02  0.26000000000E-02 0.  1.
         23    2    1    2    0    0  0.00000000000E+00  0.00000000000E+00 -0.27520674532E+02  0.95893647278E+02  0.91859697700E+02 0.  0.
        -13    1    3    3    0    0 -0.68238814922E+01 -0.45253526655E+02 -0.17815888303E+02  0.49110732858E+02  0.10570000000E+00 0.  1.
         13    1    3    3    0    0  0.68238814922E+01  0.45253526655E+02 -0.97047862295E+01  0.46782914420E+02  0.10570000000E+00 0. -1.
<mgrwt>
<rscale>  0 0.91859698E+02</rscale>
<asrwt>0</asrwt>
<pdfrwt beam="1">  1        2 0.52594594E-02 0.91859698E+02</pdfrwt>
<pdfrwt beam="2">  1       -2 0.94934094E-02 0.91859698E+02</pdfrwt>
<totfact> 0.89586252E+04</totfact>
</mgrwt>
</event>
<event>
 5   1  0.1343823E+00  0.8963055E+02  0.7818608E-02  0.1303749E+00
          2   -1    0    0  501    0  0.00000000000E+00  0.00000000000E+00  0.66950968406E+02  0.66950968456E+02  0.26000000000E-02 0. -1.
         -2   -1    0    0    0  501 -0.00000000000E+00 -0.00000000000E+00 -0.29998201658E+02  0.29998201770E+02  0.26000000000E-02 0.  1.
         23    2    1    2    0    0  0.00000000000E+00  0.00000000000E+00  0.36952766748E+02  0.96949170227E+02  0.89630545225E+02 0.  0.
        -13    1    3    3    0    0  0.24714174335E+02  0.13171906376E+02 -0.19367693713E+02  0.34050084624E+02  0.10570000000E+00 0.  1.
         13    1    3    3    0    0 -0.24714174335E+02 -0.13171906376E+02  0.56320460461E+02  0.62899085603E+02  0.10570000000E+00 0. -1.
<mgrwt>
<rscale>  0 0.89630545E+02</rscale>
<asrwt>0</asrwt>
<pdfrwt beam="1">  1        2 0.10300149E-01 0.89630545E+02</pdfrwt>
<pdfrwt beam="2">  1       -2 0.46151080E-02 0.89630545E+02</pdfrwt>
<totfact> 0.11462606E+05</totfact>
</mgrwt>
</event>
<event>
 5   1  0.1343823E+00  0.9253354E+02  0.7818608E-02  0.1296830E+00
          2   -1    0    0  501    0  0.00000000000E+00  0.00000000000E+00  0.39223879807E+02  0.39223879893E+02  0.26000000000E-02 0. -1.
         -2   -1    0    0    0  501 -0.00000000000E+00 -0.00000000000E+00 -0.54574256582E+02  0.54574256644E+02  0.26000000000E-02 0.  1.
         23    2    1    2    0    0  0.00000000000E+00  0.00000000000E+00 -0.15350376776E+02  0.93798136537E+02  0.92533541761E+02 0.  0.
        -13    1    3    3    0    0  0.10922593165E+02  0.71047010464E+01 -0.52675844598E+02  0.54263575214E+02  0.10570000000E+00 0.  1.
         13    1    3    3    0    0 -0.10922593165E+02 -0.71047010464E+01  0.37325467822E+02  0.39534561324E+02  0.10570000000E+00 0. -1.
<mgrwt>
<rscale>  0 0.92533542E+02</rscale>
<asrwt>0</asrwt>
<pdfrwt beam="1">  1        2 0.60344430E-02 0.92533542E+02</pdfrwt>
<pdfrwt beam="2">  1       -2 0.83960395E-02 0.92533542E+02</pdfrwt>
<totfact> 0.90915178E+04</totfact>
</mgrwt>
</event>
<event>
 5   1  0.1343823E+00  0.9086049E+02  0.7818608E-02  0.1300781E+00
          2   -1    0    0  501    0  0.00000000000E+00  0.00000000000E+00  0.25682232818E+03  0.25682232820E+03  0.26000000000E-02 0. -1.
         -2   -1    0    0    0  501 -0.00000000000E+00 -0.00000000000E+00 -0.80363229947E+01  0.80363234153E+01  0.26000000000E-02 0.  1.
         23    2    1    2    0    0  0.00000000000E+00  0.00000000000E+00  0.24878600519E+03  0.26485865161E+03  0.90860491721E+02 0.  0.
        -13    1    3    3    0    0 -0.40869795430E+02  0.49600518083E+01  0.68401121336E+02  0.79835248261E+02  0.10570000000E+00 0.  1.
         13    1    3    3    0    0  0.40869795430E+02 -0.49600518083E+01  0.18038488385E+03  0.18502340335E+03  0.10570000000E+00 0. -1.
<mgrwt>
<rscale>  0 0.90860492E+02</rscale>
<asrwt>0</asrwt>
<pdfrwt beam="1">  1        2 0.39511128E-01 0.90860492E+02</pdfrwt>
<pdfrwt beam="2">  1       -2 0.12363574E-02 0.90860492E+02</pdfrwt>
<totfact> 0.17112726E+05</totfact>
</mgrwt>
</event>
<event>
 5   1  0.1343823E+00  0.8640307E+02  0.7818608E-02  0.1311804E+00
          2   -1    0    0  501    0  0.00000000000E+00  0.00000000000E+00  0.26037656444E+03  0.26037656445E+03  0.26000000000E-02 0. -1.
         -2   -1    0    0    0  501 -0.00000000000E+00 -0.00000000000E+00 -0.71679748335E+01  0.71679753050E+01  0.26000000000E-02 0.  1.
         23    2    1    2    0    0  0.00000000000E+00  0.00000000000E+00  0.25320858961E+03  0.26754453976E+03  0.86403072305E+02 0.  0.
        -13    1    3    3    0    0  0.34638948775E+01  0.36500520863E+02  0.19735541814E+03  0.20073230640E+03  0.10570000000E+00 0. -1.
         13    1    3    3    0    0 -0.34638948775E+01 -0.36500520863E+02  0.55853171470E+02  0.66812233361E+02  0.10570000000E+00 0.  1.
<mgrwt>
<rscale>  0 0.86403072E+02</rscale>
<asrwt>0</asrwt>
<pdfrwt beam="1">  1        2 0.40057929E-01 0.86403072E+02</pdfrwt>
<pdfrwt beam="2">  1       -2 0.11027655E-02 0.86403072E+02</pdfrwt>
<totfact> 0.19668573E+05</totfact>
</mgrwt>
</event>
<event>
 5   1  0.1343823E+00  0.9091486E+02  0.7818608E-02  0.1300651E+00
         -2   -1    0    0    0  501 -0.00000000000E+00  0.00000000000E+00  0.52921484807E+02  0.52921484871E+02  0.26000000000E-02 0.  1.
          2   -1    0    0  501    0  0.00000000000E+00 -0.00000000000E+00 -0.39046104623E+02  0.39046104710E+02  0.26000000000E-02 0. -1.
         23    2    1    2    0    0  0.00000000000E+00  0.00000000000E+00  0.13875380184E+02  0.91967589580E+02  0.90914857740E+02 0.  0.
        -13    1    3    3    0    0 -0.70373816774E+01  0.44587689610E+02  0.12364496003E+02  0.46802550566E+02  0.10570000000E+00 0.  1.
         13    1    3    3    0    0  0.70373816774E+01 -0.44587689610E+02  0.15108841805E+01  0.45165039014E+02  0.10570000000E+00 0. -1.
<mgrwt>
<rscale>  0 0.90914858E+02</rscale>
<asrwt>0</asrwt>
<pdfrwt beam="2">  1        2 0.60070930E-02 0.90914858E+02</pdfrwt>
<pdfrwt beam="1">  1       -2 0.81417669E-02 0.90914858E+02</pdfrwt>
<totfact> 0.95588899E+04</totfact>
</mgrwt>
</event>
<event>
 4   1  0.1343823E+00  0.4530138E+02  0.7818608E-02  0.1472469E+00
         -2   -1    0    0    0  501 -0.00000000000E+00  0.00000000000E+00  0.54588888707E+02  0.54588888769E+02  0.26000000000E-02 0.  1.
          2   -1    0    0  501    0  0.00000000000E+00 -0.00000000000E+00 -0.93985028521E+01  0.93985032117E+01  0.26000000000E-02 0. -1.
        -13    1    1    2    0    0  0.21688447713E+02  0.46751872144E+01  0.16153821310E+02  0.27444548732E+02  0.10570000000E+00 0. -1.
         13    1    1    2    0    0 -0.21688447713E+02 -0.46751872144E+01  0.29036564545E+02  0.36542843249E+02  0.10570000000E+00 0.  1.
<mgrwt>
<rscale>  0 0.45301384E+02</rscale>
<asrwt>0</asrwt>
<pdfrwt beam="2">  1        2 0.14459235E-02 0.45301384E+02</pdfrwt>
<pdfrwt beam="1">  1       -2 0.83982907E-02 0.45301384E+02</pdfrwt>
<totfact> 0.50866234E+05</totfact>
</mgrwt>
</event>
<event>
 5   1  0.1343823E+00  0.9056631E+02  0.7818608E-02  0.1301486E+00
         -2   -1    0    0    0  501 -0.00000000000E+00  0.00000000000E+00  0.20302806527E+02  0.20302806693E+02  0.26000000000E-02 0.  1.
          2   -1    0    0  501    0  0.00000000000E+00 -0.00000000000E+00 -0.10099904884E+03  0.10099904887E+03  0.26000000000E-02 0. -1.
         23    2    1    2    0    0  0.00000000000E+00  0.00000000000E+00 -0.80696242311E+02  0.12130185556E+03  0.90566310736E+02 0.  0.
        -13    1    3    3    0    0  0.34911347853E+02 -0.15750002891E+02 -0.72706832628E+02  0.82177609379E+02  0.10570000000E+00 0. -1.
         13    1    3    3    0    0 -0.34911347853E+02  0.15750002891E+02 -0.79894096829E+01  0.39124246185E+02  0.10570000000E+00 0.  1.
<mgrwt>
<rscale>  0 0.90566311E+02</rscale>
<asrwt>0</asrwt>
<pdfrwt beam="2">  1        2 0.15538315E-01 0.90566311E+02</pdfrwt>
<pdfrwt beam="1">  1       -2 0.31235088E-02 0.90566311E+02</pdfrwt>
<totfact> 0.12534252E+05</totfact>
</mgrwt>
</event>
<event>
 5   1  0.1343823E+00  0.9211529E+02  0.7818608E-02  0.1297809E+00
          2   -1    0    0  501    0  0.00000000000E+00  0.00000000000E+00  0.12005209518E+03  0.12005209521E+03  0.26000000000E-02 0.  1.
         -2   -1    0    0    0  501 -0.00000000000E+00 -0.00000000000E+00 -0.17669882751E+02  0.17669882942E+02  0.26000000000E-02 0. -1.
         23    2    1    2    0    0  0.00000000000E+00  0.00000000000E+00  0.10238221243E+03  0.13772197815E+03  0.92115285612E+02 0.  0.
        -13    1    3    3    0    0  0.31377245276E+02  0.17374337085E+02  0.94391507947E+02  0.10097607170E+03  0.10570000000E+00 0.  1.
         13    1    3    3    0    0 -0.31377245276E+02 -0.17374337085E+02  0.79907044794E+01  0.36745906450E+02  0.10570000000E+00 0. -1.
<mgrwt>
<rscale>  0 0.92115286E+02</rscale>
<asrwt>0</asrwt>
<pdfrwt beam="1">  1        2 0.18469554E-01 0.92115286E+02</pdfrwt>
<pdfrwt beam="2">  1       -2 0.27184435E-02 0.92115286E+02</pdfrwt>
<totfact> 0.12629088E+05</totfact>
</mgrwt>
</event>
<event>
 5   1  0.1343823E+00  0.8930505E+02  0.7818608E-02  0.1304543E+00
         -2   -1    0    0    0  501 -0.00000000000E+00  0.00000000000E+00  0.16152402938E+02  0.16152403147E+02  0.26000000000E-02 0.  1.
          2   -1    0    0  501    0  0.00000000000E+00 -0.00000000000E+00 -0.12343970656E+03  0.12343970659E+03  0.26000000000E-02 0. -1.
         23    2    1    2    0    0  0.00000000000E+00  0.00000000000E+00 -0.10728730362E+03  0.13959210973E+03  0.89305047907E+02 0.  0.
        -13    1    3    3    0    0  0.99320955416E+01 -0.32144871958E+02 -0.99533080467E+02  0.10506562042E+03  0.10570000000E+00 0. -1.
         13    1    3    3    0    0 -0.99320955416E+01  0.32144871958E+02 -0.77542231554E+01  0.34526489313E+02  0.10570000000E+00 0.  1.
<mgrwt>
<rscale>  0 0.89305048E+02</rscale>
<asrwt>0</asrwt>
<pdfrwt beam="2">  1        2 0.18990723E-01 0.89305048E+02</pdfrwt>
<pdfrwt beam="1">  1       -2 0.24849852E-02 0.89305048E+02</pdfrwt>
<totfact> 0.13867281E+05</totfact>
</mgrwt>
</event>
<event>
 5   1  0.1343823E+00  0.8827514E+02  0.7818608E-02  0.1307083E+00
          2   -1    0    0  501    0  0.00000000000E+00  0.00000000000E+00  0.62749563018E+02  0.62749563072E+02  0.26000000000E-02 0. -1.
         -2   -1    0    0    0  501 -0.00000000000E+00 -0.00000000000E+00 -0.31046037635E+02  0.31046037744E+02  0.26000000000E-02 0.  1.
         23    2    1    2    0    0  0.00000000000E+00  0.00000000000E+00  0.31703525383E+02  0.93795600816E+02  0.88275144920E+02 0.  0.
        -13    1    3    3    0    0  0.13351928513E+02 -0.29636900537E+02  0.47576885103E+02  0.57621098888E+02  0.10570000000E+00 0. -1.
         13    1    3    3    0    0 -0.13351928513E+02  0.29636900537E+02 -0.15873359720E+02  0.36174501928E+02  0.10570000000E+00 0.  1.
<mgrwt>
<rscale>  0 0.88275145E+02</rscale>
<asrwt>0</asrwt>
<pdfrwt beam="1">  1        2 0.96537788E-02 0.88275145E+02</pdfrwt>
<pdfrwt beam="2">  1       -2 0.47763135E-02 0.88275145E+02</pdfrwt>
<totfact> 0.11754656E+05</totfact>
</mgrwt>
</event>
<event>
 5   1  0.1343823E+00  0.8937028E+02  0.7818608E-02  0.1304384E+00
         -2   -1    0    0    0  501 -0.00000000000E+00  0.00000000000E+00  0.58610012972E+02  0.58610013030E+02  0.26000000000E-02 0.  1.
          2   -1    0    0  501    0  0.00000000000E+00 -0.00000000000E+00 -0.34068613888E+02  0.34068613987E+02  0.26000000000E-02 0. -1.
         23    2    1    2    0    0  0.00000000000E+00  0.00000000000E+00  0.24541399084E+02  0.92678627017E+02  0.89370283858E+02 0.  0.
        -13    1    3    3    0    0  0.36735925369E+02  0.10278283964E+02 -0.11862645573E+02  0.39948778034E+02  0.10570000000E+00 0. -1.
         13    1    3    3    0    0 -0.36735925369E+02 -0.10278283964E+02  0.36404044657E+02  0.52729848983E+02  0.10570000000E+00 0.  1.
<mgrwt>
<rscale>  0 0.89370284E+02</rscale>
<asrwt>0</asrwt>
<pdfrwt beam="2">  1        2 0.52413252E-02 0.89370284E+02</pdfrwt>
<pdfrwt beam="1">  1       -2 0.90169252E-02 0.89370284E+02</pdfrwt>
<totfact> 0.97006429E+04</totfact>
</mgrwt>
</event>
<event>
 5   1  0.1343823E+00  0.9079902E+02  0.7818608E-02  0.1300928E+00
          2   -1    0    0  501    0  0.00000000000E+00  0.00000000000E+00  0.15306438801E+03  0.15306438803E+03  0.26000000000E-02 0. -1.
         -2   -1    0    0    0  501 -0.00000000000E+00 -0.00000000000E+00 -0.13465676194E+02  0.13465676445E+02  0.26000000000E-02 0.  1.
         23    2    1    2    0    0  0.00000000000E+00  0.00000000000E+00  0.13959871181E+03  0.16653006447E+03  0.90799020005E+02 0.  0.
        -13    1    3    3    0    0  0.23441066923E+02 -0.58690287010E+01 -0.69064168920E+00  0.24174723883E+02  0.10570000000E+00 0.  1.
         13    1    3    3    0    0 -0.23441066923E+02  0.58690287010E+01  0.14028935350E+03  0.14235534059E+03  0.10570000000E+00 0. -1.
<mgrwt>
<rscale>  0 0.90799020E+02</rscale>
<asrwt>0</asrwt>
<pdfrwt beam="1">  1        2 0.23548368E-01 0.90799020E+02</pdfrwt>
<pdfrwt beam="2">  1       -2 0.20716425E-02 0.90799020E+02</pdfrwt>
<totfact> 0.14237091E+05</totfact>
</mgrwt>
</event>
<event>
 5   1  0.1343823E+00  0.9144180E+02  0.7818608E-02  0.1299397E+00
          2   -1    0    0  501    0  0.00000000000E+00  0.00000000000E+00  0.33191429396E+03  0.33191429397E+03  0.26000000000E-02 0.  1.
         -2   -1    0    0    0  501 -0.00000000000E+00 -0.00000000000E+00 -0.62980128657E+01  0.62980134024E+01  0.26000000000E-02 0. -1.
         23    2    1    2    0    0  0.00000000000E+00  0.00000000000E+00  0.32561628110E+03  0.33821230737E+03  0.91441797580E+02 0.  0.
        -13    1    3    3    0    0 -0.84542189170E+01 -0.44876124887E+02  0.17111903610E+03  0.17710752692E+03  0.10570000000E+00 0.  1.
         13    1    3    3    0    0  0.84542189170E+01  0.44876124887E+02  0.15449724500E+03  0.16110478046E+03  0.10570000000E+00 0. -1.
<mgrwt>
<rscale>  0 0.91441798E+02</rscale>
<asrwt>0</asrwt>
<pdfrwt beam="1">  1        2 0.51063750E-01 0.91441798E+02</pdfrwt>
<pdfrwt beam="2">  1       -2 0.96892486E-03 0.91441798E+02</pdfrwt>
<totfact> 0.18508728E+05</totfact>
</mgrwt>
</event>
<event>
 5   1  0.1343823E+00  0.9167110E+02  0.7818608E-02  0.1298855E+00
         -2   -1    0    0    0  501 -0.00000000000E+00  0.00000000000E+00  0.17646209516E+03  0.17646209518E+03  0.26000000000E-02 0.  1.
          2   -1    0    0  501    0  0.00000000000E+00 -0.00000000000E+00 -0.11905659026E+02  0.11905659310E+02  0.26000000000E-02 0. -1.
         23    2    1    2    0    0  0.00000000000E+00  0.00000000000E+00  0.16455643614E+03  0.18836775449E+03  0.91671098270E+02 0.  0.
        -13    1    3    3    0    0  0.32660697103E+02 -0.25940250520E+02  0.12133435369E+03  0.12830297849E+03  0.10570000000E+00 0.  1.
         13    1    3    3    0    0 -0.32660697103E+02  0.25940250520E+02  0.43222082451E+02  0.60064776002E+02  0.10570000000E+00 0. -1.
<mgrwt>
<rscale>  0 0.91671098E+02</rscale>
<asrwt>0</asrwt>
<pdfrwt beam="2">  1        2 0.18316399E-02 0.91671098E+02</pdfrwt>
<pdfrwt beam="1">  1       -2 0.27148014E-01 0.91671098E+02</pdfrwt>
<totfact> 0.64759283E+04</totfact>
</mgrwt>
</event>
<event>
 5   1  0.1343823E+00  0.9586990E+02  0.7818608E-02  0.1289229E+00
         -2   -1    0    0    0  501 -0.00000000000E+00  0.00000000000E+00  0.22350798629E+02  0.22350798780E+02  0.26000000000E-02 0.  1.
          2   -1    0    0  501    0  0.00000000000E+00 -0.00000000000E+00 -0.10280435792E+03  0.10280435795E+03  0.26000000000E-02 0. -1.
         23    2    1    2    0    0  0.00000000000E+00  0.00000000000E+00 -0.80453559288E+02  0.12515515673E+03  0.95869901711E+02 0.  0.
        -13    1    3    3    0    0  0.39551136178E+02  0.14838515097E+02 -0.10650653880E+02  0.43565140925E+02  0.10570000000E+00 0.  1.
         13    1    3    3    0    0 -0.39551136178E+02 -0.14838515097E+02 -0.69802905408E+02  0.81590015805E+02  0.10570000000E+00 0. -1.
<mgrwt>
<rscale>  0 0.95869902E+02</rscale>
<asrwt>0</asrwt>
<pdfrwt beam="2">  1        2 0.15816055E-01 0.95869902E+02</pdfrwt>
<pdfrwt beam="1">  1       -2 0.34385845E-02 0.95869902E+02</pdfrwt>
<totfact> 0.10770082E+05</totfact>
</mgrwt>
</event>
<event>
 5   1  0.1343823E+00  0.9123824E+02  0.7818608E-02  0.1299881E+00
         -2   -1    0    0    0  501 -0.00000000000E+00  0.00000000000E+00  0.24801986630E+03  0.24801986631E+03  0.26000000000E-02 0.  1.
          2   -1    0    0  501    0  0.00000000000E+00 -0.00000000000E+00 -0.83908765198E+01  0.83908769226E+01  0.26000000000E-02 0. -1.
         23    2    1    2    0    0  0.00000000000E+00  0.00000000000E+00  0.23962898978E+03  0.25641074324E+03  0.91238240359E+02 0.  0.
        -13    1    3    3    0    0 -0.31232685948E+02 -0.22785549714E+02  0.18787070789E+03  0.19180739298E+03  0.10570000000E+00 0.  1.
         13    1    3    3    0    0  0.31232685948E+02  0.22785549714E+02  0.51758281892E+02  0.64603350255E+02  0.10570000000E+00 0. -1.
<mgrwt>
<rscale>  0 0.91238240E+02</rscale>
<asrwt>0</asrwt>
<pdfrwt beam="2">  1        2 0.12909042E-02 0.91238240E+02</pdfrwt>
<pdfrwt beam="1">  1       -2 0.38156901E-01 0.91238240E+02</pdfrwt>
<totfact> 0.56302393E+04</totfact>
</mgrwt>
</event>
<event>
 5   1  0.1343823E+00  0.9174219E+02  0.7818608E-02  0.1298687E+00
         -2   -1    0    0    0  501 -0.00000000000E+00  0.00000000000E+00  0.62452660815E+01  0.62452666227E+01  0.26000000000E-02 0.  1.
          2   -1    0    0  501    0  0.00000000000E+00 -0.00000000000E+00 -0.33692033836E+03  0.33692033837E+03  0.26000000000E-02 0. -1.
         23    2    1    2    0    0  0.00000000000E+00  0.00000000000E+00 -0.33067507228E+03  0.34316560499E+03  0.91742187807E+02 0.  0.
        -13    1    3    3    0    0  0.37970109196E+02 -0.22200461978E+02 -0.21404457490E+03  0.21851700374E+03  0.10570000000E+00 0. -1.
         13    1    3    3    0    0 -0.37970109196E+02  0.22200461978E+02 -0.11663049738E+03  0.12464860126E+03  0.10570000000E+00 0.  1.
<mgrwt>
<rscale>  0 0.91742188E+02</rscale>
<asrwt>0</asrwt>
<pdfrwt beam="2">  1        2 0.51833884E-01 0.91742188E+02</pdfrwt>
<pdfrwt beam="1">  1       -2 0.96081047E-03 0.91742188E+02</pdfrwt>
<totfact> 0.18449188E+05</totfact>
</mgrwt>
</event>
<event>
 5   1  0.1343823E+00  0.9218156E+02  0.7818608E-02  0.1297653E+00
         -2   -1    0    0    0  501 -0.00000000000E+00  0.00000000000E+00  0.95756254514E+02  0.95756254550E+02  0.26000000000E-02 0.  1.
          2   -1    0    0  501    0  0.00000000000E+00 -0.00000000000E+00 -0.22185078233E+02  0.22185078385E+02  0.26000000000E-02 0. -1.
         23    2    1    2    0    0  0.00000000000E+00  0.00000000000E+00  0.73571176281E+02  0.11794133293E+03  0.92181560168E+02 0.  0.
        -13    1    3    3    0    0 -0.34093019460E+02  0.42706123398E+01  0.76091385438E+02  0.83489413796E+02  0.10570000000E+00 0.  1.
         13    1    3    3    0    0  0.34093019460E+02 -0.42706123398E+01 -0.25202091569E+01  0.34451919139E+02  0.10570000000E+00 0. -1.
<mgrwt>
<rscale>  0 0.92181560E+02</rscale>
<asrwt>0</asrwt>
<pdfrwt beam="2">  1        2 0.34130890E-02 0.92181560E+02</pdfrwt>
<pdfrwt beam="1">  1       -2 0.14731732E-01 0.92181560E+02</pdfrwt>
<totfact> 0.78665169E+04</totfact>
</mgrwt>
</event>
<event>
 5   1  0.1343823E+00  0.9095662E+02  0.7818608E-02  0.1300551E+00
         -2   -1    0    0    0  501 -0.00000000000E+00  0.00000000000E+00  0.32329762021E+03  0.32329762022E+03  0.26000000000E-02 0. -1.
          2   -1    0    0  501    0  0.00000000000E+00 -0.00000000000E+00 -0.63974385265E+01  0.63974390548E+01  0.26000000000E-02 0.  1.
         23    2    1    2    0    0  0.00000000000E+00  0.00000000000E+00  0.31690018168E+03  0.32969505928E+03  0.90956621306E+02 0.  0.
        -13    1    3    3    0    0  0.31309784392E+02  0.26210163613E+02  0.85865397113E+02  0.95079718495E+02  0.10570000000E+00 0.  1.
         13    1    3    3    0    0 -0.31309784392E+02 -0.26210163613E+02  0.23103478457E+03  0.23461534078E+03  0.10570000000E+00 0. -1.
<mgrwt>
<rscale>  0 0.90956621E+02</rscale>
<asrwt>0</asrwt>
<pdfrwt beam="2">  1        2 0.98422148E-03 0.90956621E+02</pdfrwt>
<pdfrwt beam="1">  1       -2 0.49738089E-01 0.90956621E+02</pdfrwt>
<totfact> 0.49155412E+04</totfact>
</mgrwt>
</event>
<event>
 5   1  0.1343823E+00  0.6975036E+02  0.7818608E-02  0.1360944E+00
         -2   -1    0    0    0  501 -0.00000000000E+00  0.00000000000E+00  0.20187177810E+02  0.20187177977E+02  0.26000000000E-02 0.  1.
          2   -1    0    0  501    0  0.00000000000E+00 -0.00000000000E+00 -0.60250033510E+02  0.60250033566E+02  0.26000000000E-02 0. -1.
         23    2    1    2    0    0  0.00000000000E+00  0.00000000000E+00 -0.40062855701E+02  0.80437211543E+02  0.69750359096E+02 0.  0.
        -13    1    3    3    0    0 -0.96549077728E+01  0.32852582195E+02 -0.27659893273E+02  0.44018067533E+02  0.10570000000E+00 0. -1.
         13    1    3    3    0    0  0.96549077728E+01 -0.32852582195E+02 -0.12402962428E+02  0.36419144010E+02  0.10570000000E+00 0.  1.
<mgrwt>
<rscale>  0 0.69750359E+02</rscale>
<asrwt>0</asrwt>
<pdfrwt beam="2">  1        2 0.92692359E-02 0.69750359E+02</pdfrwt>
<pdfrwt beam="1">  1       -2 0.31057197E-02 0.69750359E+02</pdfrwt>
<totfact> 0.22207845E+05</totfact>
</mgrwt>
</event>
<event>
 5   1  0.1343823E+00  0.9148170E+02  0.7818608E-02  0.1299303E+00
          2   -1    0    0  501    0  0.00000000000E+00  0.00000000000E+00  0.18491355957E+03  0.18491355958E+03  0.26000000000E-02 0. -1.
         -2   -1    0    0    0  501 -0.00000000000E+00 -0.00000000000E+00 -0.11314613563E+02  0.11314613862E+02  0.26000000000E-02 0.  1.
         23    2    1    2    0    0  0.00000000000E+00  0.00000000000E+00  0.17359894600E+03  0.19622817345E+03  0.91481703093E+02 0.  0.
        -13    1    3    3    0    0 -0.13270157952E+01  0.40431579052E+02  0.41007847315E+02  0.57603196695E+02  0.10570000000E+00 0. -1.
         13    1    3    3    0    0  0.13270157952E+01 -0.40431579052E+02  0.13259109869E+03  0.13862497675E+03  0.10570000000E+00 0.  1.
<mgrwt>
<rscale>  0 0.91481703E+02</rscale>
<asrwt>0</asrwt>
<pdfrwt beam="1">  1        2 0.28448237E-01 0.91481703E+02</pdfrwt>
<pdfrwt beam="2">  1       -2 0.17407100E-02 0.91481703E+02</pdfrwt>
<totfact> 0.14903188E+05</totfact>
</mgrwt>
</event>
<event>
 5   1  0.1343823E+00  0.8612533E+02  0.7818608E-02  0.1312516E+00
          2   -1    0    0  501    0  0.00000000000E+00  0.00000000000E+00  0.10576953066E+02  0.10576953386E+02  0.26000000000E-02 0. -1.
         -2   -1    0    0    0  501 -0.00000000000E+00 -0.00000000000E+00 -0.17532394048E+03  0.17532394050E+03  0.26000000000E-02 0.  1.
         23    2    1    2    0    0  0.00000000000E+00  0.00000000000E+00 -0.16474698742E+03  0.18590089389E+03  0.86125330104E+02 0.  0.
        -13    1    3    3    0    0  0.15418101375E+02 -0.25693306899E+02 -0.15616438603E+02  0.33789764672E+02  0.10570000000E+00 0. -1.
         13    1    3    3    0    0 -0.15418101375E+02  0.25693306899E+02 -0.14913054881E+03  0.15211112922E+03  0.10570000000E+00 0.  1.
<mgrwt>
<rscale>  0 0.86125330E+02</rscale>
<asrwt>0</asrwt>
<pdfrwt beam="1">  1        2 0.16272237E-02 0.86125330E+02</pdfrwt>
<pdfrwt beam="2">  1       -2 0.26972912E-01 0.86125330E+02</pdfrwt>
<totfact> 0.76084300E+04</totfact>
</mgrwt>
</event>
<event>
 5   1  0.1343823E+00  0.9139781E+02  0.7818608E-02  0.1299502E+00
          2   -1    0    0  501    0  0.00000000000E+00  0.00000000000E+00  0.31250943021E+03  0.31250943022E+03  0.26000000000E-02 0. -1.
         -2   -1    0    0    0  501 -0.00000000000E+00 -0.00000000000E+00 -0.66826458081E+01  0.66826463139E+01  0.26000000000E-02 0.  1.
         23    2    1    2    0    0  0.00000000000E+00  0.00000000000E+00  0.30582678440E+03  0.31919207654E+03  0.91397809957E+02 0.  0.
        -13    1    3    3    0    0  0.10241189957E+02 -0.40425997791E+02  0.21817766280E+03  0.22212754666E+03  0.10570000000E+00 0. -1.
         13    1    3    3    0    0 -0.10241189957E+02  0.40425997791E+02  0.87649121603E+02  0.97064529872E+02  0.10570000000E+00 0.  1.
<mgrwt>
<rscale>  0 0.91397810E+02</rscale>
<asrwt>0</asrwt>
<pdfrwt beam="1">  1        2 0.48078363E-01 0.91397810E+02</pdfrwt>
<pdfrwt beam="2">  1       -2 0.10280996E-02 0.91397810E+02</pdfrwt>
<totfact> 0.18123604E+05</totfact>
</mgrwt>
</event>
<event>
 5   1  0.1343823E+00  0.9208136E+02  0.7818608E-02  0.1297888E+00
         -2   -1    0    0    0  501 -0.00000000000E+00  0.00000000000E+00  0.27361924429E+02  0.27361924553E+02  0.26000000000E-02 0.  1.
          2   -1    0    0  501    0  0.00000000000E+00 -0.00000000000E+00 -0.77470579745E+02  0.77470579789E+02  0.26000000000E-02 0. -1.
         23    2    1    2    0    0  0.00000000000E+00  0.00000000000E+00 -0.50108655316E+02  0.10483250434E+03  0.92081358749E+02 0.  0.
        -13    1    3    3    0    0 -0.24676618805E+02 -0.37828220444E+02 -0.35225917238E+02  0.57278147625E+02  0.10570000000E+00 0. -1.
         13    1    3    3    0    0  0.24676618805E+02  0.37828220444E+02 -0.14882738078E+02  0.47554356717E+02  0.10570000000E+00 0.  1.
<mgrwt>
<rscale>  0 0.92081359E+02</rscale>
<asrwt>0</asrwt>
<pdfrwt beam="2">  1        2 0.11918551E-01 0.92081359E+02</pdfrwt>
<pdfrwt beam="1">  1       -2 0.42095269E-02 0.92081359E+02</pdfrwt>
<totfact> 0.11071952E+05</totfact>
</mgrwt>
</event>
<event>
 5   1  0.1343823E+00  0.9153096E+02  0.7818608E-02  0.1299186E+00
          2   -1    0    0  501    0  0.00000000000E+00  0.00000000000E+00  0.28513645967E+03  0.28513645968E+03  0.26000000000E-02 0. -1.
         -2   -1    0    0    0  501 -0.00000000000E+00 -0.00000000000E+00 -0.73455324019E+01  0.73455328621E+01  0.26000000000E-02 0.  1.
         23    2    1    2    0    0  0.00000000000E+00  0.00000000000E+00  0.27779092727E+03  0.29248199254E+03  0.91530960281E+02 0.  0.
        -13    1    3    3    0    0 -0.46652654256E+01 -0.42926834515E+02  0.90435201643E+02  0.10021484267E+03  0.10570000000E+00 0.  1.
         13    1    3    3    0    0  0.46652654256E+01  0.42926834515E+02  0.18735572562E+03  0.19226714987E+03  0.10570000000E+00 0. -1.
<mgrwt>
<rscale>  0 0.91530960E+02</rscale>
<asrwt>0</asrwt>
<pdfrwt beam="1">  1        2 0.43867152E-01 0.91530960E+02</pdfrwt>
<pdfrwt beam="2">  1       -2 0.11300818E-02 0.91530960E+02</pdfrwt>
<totfact> 0.17447153E+05</totfact>
</mgrwt>
</event>
<event>
 5   1  0.1343823E+00  0.9131421E+02  0.7818608E-02  0.1299700E+00
          2   -1    0    0  501    0  0.00000000000E+00  0.00000000000E+00  0.57986634617E+02  0.57986634676E+02  0.26000000000E-02 0. -1.
         -2   -1    0    0    0  501 -0.00000000000E+00 -0.00000000000E+00 -0.35949168025E+02  0.35949168119E+02  0.26000000000E-02 0.  1.
         23    2    1    2    0    0  0.00000000000E+00  0.00000000000E+00  0.22037466593E+02  0.93935802795E+02  0.91314210903E+02 0.  0.
        -13    1    3    3    0    0  0.18563736550E+01  0.45601430455E+02  0.12329489743E+02  0.47275406635E+02  0.10570000000E+00 0.  1.
         13    1    3    3    0    0 -0.18563736550E+01 -0.45601430455E+02  0.97079768498E+01  0.46660396159E+02  0.10570000000E+00 0. -1.
<mgrwt>
<rscale>  0 0.91314211E+02</rscale>
<asrwt>0</asrwt>
<pdfrwt beam="1">  1        2 0.89210207E-02 0.91314211E+02</pdfrwt>
<pdfrwt beam="2">  1       -2 0.55306413E-02 0.91314211E+02</pdfrwt>
<totfact> 0.10465856E+05</totfact>
</mgrwt>
</event>
<event>
 5   1  0.1343823E+00  0.9060047E+02  0.7818608E-02  0.1301404E+00
         -2   -1    0    0    0  501 -0.00000000000E+00  0.00000000000E+00  0.21949008726E+02  0.21949008880E+02  0.26000000000E-02 0.  1.
          2   -1    0    0  501    0  0.00000000000E+00 -0.00000000000E+00 -0.93494478119E+02  0.93494478155E+02  0.26000000000E-02 0. -1.
         23    2    1    2    0    0  0.00000000000E+00  0.00000000000E+00 -0.71545469393E+02  0.11544348704E+03  0.90600466380E+02 0.  0.
        -13    1    3    3    0    0 -0.41861378275E+02 -0.87362665583E+01 -0.16727640519E+02  0.45918650615E+02  0.10570000000E+00 0.  1.
         13    1    3    3    0    0  0.41861378275E+02  0.87362665583E+01 -0.54817828874E+02  0.69524836421E+02  0.10570000000E+00 0. -1.
<mgrwt>
<rscale>  0 0.90600466E+02</rscale>
<asrwt>0</asrwt>
<pdfrwt beam="2">  1        2 0.14383766E-01 0.90600466E+02</pdfrwt>
<pdfrwt beam="1">  1       -2 0.33767706E-02 0.90600466E+02</pdfrwt>
<totfact> 0.12233278E+05</totfact>
</mgrwt>
</event>
<event>
 5   1  0.1343823E+00  0.9181647E+02  0.7818608E-02  0.1298512E+00
          2   -1    0    0  501    0  0.00000000000E+00  0.00000000000E+00  0.29870260117E+02  0.29870260230E+02  0.26000000000E-02 0. -1.
         -2   -1    0    0    0  501 -0.00000000000E+00 -0.00000000000E+00 -0.70557340706E+02  0.70557340754E+02  0.26000000000E-02 0.  1.
         23    2    1    2    0    0  0.00000000000E+00  0.00000000000E+00 -0.40687080589E+02  0.10042760098E+03  0.91816471902E+02 0.  0.
        -13    1    3    3    0    0  0.39582070777E+02  0.13500322892E+02  0.36793001297E+00  0.41822787929E+02  0.10570000000E+00 0.  1.
         13    1    3    3    0    0 -0.39582070777E+02 -0.13500322892E+02 -0.41055010602E+02  0.58604813055E+02  0.10570000000E+00 0. -1.
<mgrwt>
<rscale>  0 0.91816472E+02</rscale>
<asrwt>0</asrwt>
<pdfrwt beam="1">  1        2 0.45954247E-02 0.91816472E+02</pdfrwt>
<pdfrwt beam="2">  1       -2 0.10854975E-01 0.91816472E+02</pdfrwt>
<totfact> 0.86545315E+04</totfact>
</mgrwt>
</event>
<event>
 5   1  0.1343823E+00  0.9038202E+02  0.7818608E-02  0.1301929E+00
          2   -1    0    0  501    0  0.00000000000E+00  0.00000000000E+00  0.11928219858E+03  0.11928219861E+03  0.26000000000E-02 0. -1.
         -2   -1    0    0    0  501 -0.00000000000E+00 -0.00000000000E+00 -0.17120974759E+02  0.17120974957E+02  0.26000000000E-02 0.  1.
         23    2    1    2    0    0  0.00000000000E+00  0.00000000000E+00  0.10216122382E+03  0.13640317357E+03  0.90382023137E+02 0.  0.
        -13    1    3    3    0    0  0.30650488018E+02  0.20434447899E+02  0.11575778876E+02  0.38613843447E+02  0.10570000000E+00 0.  1.
         13    1    3    3    0    0 -0.30650488018E+02 -0.20434447899E+02  0.90585444949E+02  0.97789330122E+02  0.10570000000E+00 0. -1.
<mgrwt>
<rscale>  0 0.90382023E+02</rscale>
<asrwt>0</asrwt>
<pdfrwt beam="1">  1        2 0.18351107E-01 0.90382023E+02</pdfrwt>
<pdfrwt beam="2">  1       -2 0.26339962E-02 0.90382023E+02</pdfrwt>
<totfact> 0.13275202E+05</totfact>
</mgrwt>
</event>
<event>
 5   1  0.1343823E+00  0.9522958E+02  0.7818608E-02  0.1290660E+00
         -2   -1    0    0    0  501 -0.00000000000E+00  0.00000000000E+00  0.40536979550E+02  0.40536979633E+02  0.26000000000E-02 0.  1.
          2   -1    0    0  501    0  0.00000000000E+00 -0.00000000000E+00 -0.55928392971E+02  0.55928393032E+02  0.26000000000E-02 0. -1.
         23    2    1    2    0    0  0.00000000000E+00  0.00000000000E+00 -0.15391413421E+02  0.96465372665E+02  0.95229577949E+02 0.  0.
        -13    1    3    3    0    0  0.46464648290E+02 -0.10150876680E+02 -0.53962001495E+01  0.47865791403E+02  0.10570000000E+00 0.  1.
         13    1    3    3    0    0 -0.46464648290E+02  0.10150876680E+02 -0.99952132717E+01  0.48599581262E+02  0.10570000000E+00 0. -1.
<mgrwt>
<rscale>  0 0.95229578E+02</rscale>
<asrwt>0</asrwt>
<pdfrwt beam="2">  1        2 0.86043681E-02 0.95229578E+02</pdfrwt>
<pdfrwt beam="1">  1       -2 0.62364584E-02 0.95229578E+02</pdfrwt>
<totfact> 0.91980680E+04</totfact>
</mgrwt>
</event>
<event>
 5   1  0.1343823E+00  0.9002425E+02  0.7818608E-02  0.1302793E+00
         -2   -1    0    0    0  501 -0.00000000000E+00  0.00000000000E+00  0.11257541116E+02  0.11257541416E+02  0.26000000000E-02 0.  1.
          2   -1    0    0  501    0  0.00000000000E+00 -0.00000000000E+00 -0.17997636963E+03  0.17997636965E+03  0.26000000000E-02 0. -1.
         23    2    1    2    0    0  0.00000000000E+00  0.00000000000E+00 -0.16871882852E+03  0.19123391107E+03  0.90024250323E+02 0.  0.
        -13    1    3    3    0    0  0.32460189813E+02 -0.27516686595E+02 -0.53193832819E+02  0.68120679579E+02  0.10570000000E+00 0.  1.
         13    1    3    3    0    0 -0.32460189813E+02  0.27516686595E+02 -0.11552499570E+03  0.12311323149E+03  0.10570000000E+00 0. -1.
<mgrwt>
<rscale>  0 0.90024250E+02</rscale>
<asrwt>0</asrwt>
<pdfrwt beam="2">  1        2 0.27688670E-01 0.90024250E+02</pdfrwt>
<pdfrwt beam="1">  1       -2 0.17319296E-02 0.90024250E+02</pdfrwt>
<totfact> 0.15413647E+05</totfact>
</mgrwt>
</event>
<event>
 5   1  0.1343823E+00  0.9433261E+02  0.7818608E-02  0.1292686E+00
          2   -1    0    0  501    0  0.00000000000E+00  0.00000000000E+00  0.82199171436E+02  0.82199171477E+02  0.26000000000E-02 0. -1.
         -2   -1    0    0    0  501 -0.00000000000E+00 -0.00000000000E+00 -0.27064264540E+02  0.27064264665E+02  0.26000000000E-02 0.  1.
         23    2    1    2    0    0  0.00000000000E+00  0.00000000000E+00  0.55134906896E+02  0.10926343614E+03  0.94332605811E+02 0.  0.
        -13    1    3    3    0    0 -0.10141204093E+02 -0.14529794688E+02 -0.23062571159E+02  0.29083540278E+02  0.10570000000E+00 0.  1.
         13    1    3    3    0    0  0.10141204093E+02  0.14529794688E+02  0.78197478055E+02  0.80179895864E+02  0.10570000000E+00 0. -1.
<mgrwt>
<rscale>  0 0.94332606E+02</rscale>
<asrwt>0</asrwt>
<pdfrwt beam="1">  1        2 0.12646026E-01 0.94332606E+02</pdfrwt>
<pdfrwt beam="2">  1       -2 0.41637331E-02 0.94332606E+02</pdfrwt>
<totfact> 0.10528527E+05</totfact>
</mgrwt>
</event>
<event>
 5   1  0.1343823E+00  0.9065648E+02  0.7818608E-02  0.1301270E+00
         -2   -1    0    0    0  501 -0.00000000000E+00  0.00000000000E+00  0.80688894245E+02  0.80688894287E+02  0.26000000000E-02 0.  1.
          2   -1    0    0  501    0  0.00000000000E+00 -0.00000000000E+00 -0.25463844610E+02  0.25463844743E+02  0.26000000000E-02 0. -1.
         23    2    1    2    0    0  0.00000000000E+00  0.00000000000E+00  0.55225049635E+02  0.10615273903E+03  0.90656482925E+02 0.  0.
        -13    1    3    3    0    0 -0.34966813740E+02 -0.17974282007E+02  0.54027021783E+02  0.66818284414E+02  0.10570000000E+00 0.  1.
         13    1    3    3    0    0  0.34966813740E+02  0.17974282007E+02  0.11980278526E+01  0.39334454617E+02  0.10570000000E+00 0. -1.
<mgrwt>
<rscale>  0 0.90656483E+02</rscale>
<asrwt>0</asrwt>
<pdfrwt beam="2">  1        2 0.39175145E-02 0.90656483E+02</pdfrwt>
<pdfrwt beam="1">  1       -2 0.12413676E-01 0.90656483E+02</pdfrwt>
<totfact> 0.86079346E+04</totfact>
</mgrwt>
</event>
<event>
 5   1  0.1343823E+00  0.9179260E+02  0.7818608E-02  0.1298568E+00
          2   -1    0    0  501    0  0.00000000000E+00  0.00000000000E+00  0.15597245653E+02  0.15597245870E+02  0.26000000000E-02 0. -1.
         -2   -1    0    0    0  501 -0.00000000000E+00 -0.00000000000E+00 -0.13505399766E+03  0.13505399769E+03  0.26000000000E-02 0.  1.
         23    2    1    2    0    0  0.00000000000E+00  0.00000000000E+00 -0.11945675201E+03  0.15065124356E+03  0.91792600926E+02 0.  0.
        -13    1    3    3    0    0  0.23801976467E+02  0.35713045016E+02 -0.86420356725E+02  0.96490646682E+02  0.10570000000E+00 0.  1.
         13    1    3    3    0    0 -0.23801976467E+02 -0.35713045016E+02 -0.33036395285E+02  0.54160596876E+02  0.10570000000E+00 0. -1.
<mgrwt>
<rscale>  0 0.91792601E+02</rscale>
<asrwt>0</asrwt>
<pdfrwt beam="1">  1        2 0.23995764E-02 0.91792601E+02</pdfrwt>
<pdfrwt beam="2">  1       -2 0.20777537E-01 0.91792601E+02</pdfrwt>
<totfact> 0.71278360E+04</totfact>
</mgrwt>
</event>
<event>
 5   1  0.1343823E+00  0.9114078E+02  0.7818608E-02  0.1300112E+00
          2   -1    0    0  501    0  0.00000000000E+00  0.00000000000E+00  0.14512709081E+02  0.14512709314E+02  0.26000000000E-02 0. -1.
         -2   -1    0    0    0  501 -0.00000000000E+00 -0.00000000000E+00 -0.14309253238E+03  0.14309253240E+03  0.26000000000E-02 0.  1.
         23    2    1    2    0    0  0.00000000000E+00  0.00000000000E+00 -0.12857982329E+03  0.15760524171E+03  0.91140777136E+02 0.  0.
        -13    1    3    3    0    0 -0.24697607548E+02 -0.28737713394E+02 -0.20514892050E+02  0.43089441375E+02  0.10570000000E+00 0. -1.
         13    1    3    3    0    0  0.24697607548E+02  0.28737713394E+02 -0.10806493124E+03  0.11451580034E+03  0.10570000000E+00 0.  1.
<mgrwt>
<rscale>  0 0.91140777E+02</rscale>
<asrwt>0</asrwt>
<pdfrwt beam="1">  1        2 0.22327246E-02 0.91140777E+02</pdfrwt>
<pdfrwt beam="2">  1       -2 0.22014235E-01 0.91140777E+02</pdfrwt>
<totfact> 0.71121312E+04</totfact>
</mgrwt>
</event>
<event>
 5   1  0.1343823E+00  0.9296783E+02  0.7818608E-02  0.1295820E+00
         -2   -1    0    0    0  501 -0.00000000000E+00  0.00000000000E+00  0.27506664312E+02  0.27506664435E+02  0.26000000000E-02 0. -1.
          2   -1    0    0  501    0  0.00000000000E+00 -0.00000000000E+00 -0.78553856321E+02  0.78553856364E+02  0.26000000000E-02 0.  1.
         23    2    1    2    0    0  0.00000000000E+00  0.00000000000E+00 -0.51047192010E+02  0.10606052080E+03  0.92967834546E+02 0.  0.
        -13    1    3    3    0    0  0.27709079311E+02 -0.27616420924E+02  0.31174613870E+01  0.39245248361E+02  0.10570000000E+00 0. -1.
         13    1    3    3    0    0 -0.27709079311E+02  0.27616420924E+02 -0.54164653397E+02  0.66815272438E+02  0.10570000000E+00 0.  1.
<mgrwt>
<rscale>  0 0.92967835E+02</rscale>
<asrwt>0</asrwt>
<pdfrwt beam="2">  1        2 0.12085209E-01 0.92967835E+02</pdfrwt>
<pdfrwt beam="1">  1       -2 0.42317946E-02 0.92967835E+02</pdfrwt>
<totfact> 0.10822657E+05</totfact>
</mgrwt>
</event>
<event>
 5   1  0.1343823E+00  0.9196535E+02  0.7818608E-02  0.1298161E+00
         -2   -1    0    0    0  501 -0.00000000000E+00  0.00000000000E+00  0.99192307588E+02  0.99192307622E+02  0.26000000000E-02 0.  1.
          2   -1    0    0  501    0  0.00000000000E+00 -0.00000000000E+00 -0.21316232269E+02  0.21316232427E+02  0.26000000000E-02 0. -1.
         23    2    1    2    0    0  0.00000000000E+00  0.00000000000E+00  0.77876075319E+02  0.12050854005E+03  0.91965347375E+02 0.  0.
        -13    1    3    3    0    0  0.52166548917E+01  0.36356740361E+02  0.75189794415E+02  0.83681195107E+02  0.10570000000E+00 0.  1.
         13    1    3    3    0    0 -0.52166548917E+01 -0.36356740361E+02  0.26862809044E+01  0.36827344942E+02  0.10570000000E+00 0. -1.
<mgrwt>
<rscale>  0 0.91965347E+02</rscale>
<asrwt>0</asrwt>
<pdfrwt beam="2">  1        2 0.32794203E-02 0.91965347E+02</pdfrwt>
<pdfrwt beam="1">  1       -2 0.15260355E-01 0.91965347E+02</pdfrwt>
<totfact> 0.78302493E+04</totfact>
</mgrwt>
</event>
<event>
 5   1  0.1343823E+00  0.8906051E+02  0.7818608E-02  0.1305143E+00
         -2   -1    0    0    0  501 -0.00000000000E+00  0.00000000000E+00  0.64423668842E+01  0.64423674089E+01  0.26000000000E-02 0.  1.
          2   -1    0    0  501    0  0.00000000000E+00 -0.00000000000E+00 -0.30779734196E+03  0.30779734197E+03  0.26000000000E-02 0. -1.
         23    2    1    2    0    0  0.00000000000E+00  0.00000000000E+00 -0.30135497508E+03  0.31423970938E+03  0.89060507231E+02 0.  0.
        -13    1    3    3    0    0 -0.32004468010E+02  0.23147926401E+02 -0.78124787096E+02  0.87542024197E+02  0.10570000000E+00 0.  1.
         13    1    3    3    0    0  0.32004468010E+02 -0.23147926401E+02 -0.22323018798E+03  0.22669768519E+03  0.10570000000E+00 0. -1.
<mgrwt>
<rscale>  0 0.89060507E+02</rscale>
<asrwt>0</asrwt>
<pdfrwt beam="2">  1        2 0.47353426E-01 0.89060507E+02</pdfrwt>
<pdfrwt beam="1">  1       -2 0.99113365E-03 0.89060507E+02</pdfrwt>
<totfact> 0.19308512E+05</totfact>
</mgrwt>
</event>
<event>
 5   1  0.1343823E+00  0.8960804E+02  0.7818608E-02  0.1303804E+00
         -2   -1    0    0    0  501 -0.00000000000E+00  0.00000000000E+00  0.22076683352E+02  0.22076683505E+02  0.26000000000E-02 0.  1.
          2   -1    0    0  501    0  0.00000000000E+00 -0.00000000000E+00 -0.90928529745E+02  0.90928529782E+02  0.26000000000E-02 0. -1.
         23    2    1    2    0    0  0.00000000000E+00  0.00000000000E+00 -0.68851846393E+02  0.11300521329E+03  0.89608043602E+02 0.  0.
        -13    1    3    3    0    0  0.92801641309E+01 -0.43831755845E+02 -0.34158609545E+02  0.56339737711E+02  0.10570000000E+00 0. -1.
         13    1    3    3    0    0 -0.92801641309E+01  0.43831755845E+02 -0.34693236848E+02  0.56665475576E+02  0.10570000000E+00 0.  1.
<mgrwt>
<rscale>  0 0.89608044E+02</rscale>
<asrwt>0</asrwt>
<pdfrwt beam="2">  1        2 0.13989004E-01 0.89608044E+02</pdfrwt>
<pdfrwt beam="1">  1       -2 0.33964129E-02 0.89608044E+02</pdfrwt>
<totfact> 0.12506554E+05</totfact>
</mgrwt>
</event>
<event>
 5   1  0.1343823E+00  0.8808666E+02  0.7818608E-02  0.1307552E+00
         -2   -1    0    0    0  501 -0.00000000000E+00  0.00000000000E+00  0.32731500409E+02  0.32731500512E+02  0.26000000000E-02 0. -1.
          2   -1    0    0  501    0  0.00000000000E+00 -0.00000000000E+00 -0.59264468180E+02  0.59264468237E+02  0.26000000000E-02 0.  1.
         23    2    1    2    0    0  0.00000000000E+00  0.00000000000E+00 -0.26532967771E+02  0.91995968750E+02  0.88086661234E+02 0.  0.
        -13    1    3    3    0    0 -0.12575775830E+02 -0.86376759000E+00 -0.57340166261E+02  0.58709471736E+02  0.10570000000E+00 0.  1.
         13    1    3    3    0    0  0.12575775830E+02  0.86376759000E+00  0.30807198490E+02  0.33286497014E+02  0.10570000000E+00 0. -1.
<mgrwt>
<rscale>  0 0.88086661E+02</rscale>
<asrwt>0</asrwt>
<pdfrwt beam="2">  1        2 0.91176105E-02 0.88086661E+02</pdfrwt>
<pdfrwt beam="1">  1       -2 0.50356155E-02 0.88086661E+02</pdfrwt>
<totfact> 0.11648109E+05</totfact>
</mgrwt>
</event>
<event>
 5   1  0.1343823E+00  0.9040292E+02  0.7818608E-02  0.1301879E+00
          2   -1    0    0  501    0  0.00000000000E+00  0.00000000000E+00  0.17386041673E+02  0.17386041867E+02  0.26000000000E-02 0. -1.
         -2   -1    0    0    0  501 -0.00000000000E+00 -0.00000000000E+00 -0.11751794609E+03  0.11751794612E+03  0.26000000000E-02 0.  1.
         23    2    1    2    0    0  0.00000000000E+00  0.00000000000E+00 -0.10013190442E+03  0.13490398799E+03  0.90402918607E+02 0.  0.
        -13    1    3    3    0    0  0.31493424567E+02  0.23982023474E+01 -0.18134723469E+01  0.31636798509E+02  0.10570000000E+00 0. -1.
         13    1    3    3    0    0 -0.31493424567E+02 -0.23982023474E+01 -0.98318432072E+02  0.10326718948E+03  0.10570000000E+00 0.  1.
<mgrwt>
<rscale>  0 0.90402919E+02</rscale>
<asrwt>0</asrwt>
<pdfrwt beam="1">  1        2 0.26747757E-02 0.90402919E+02</pdfrwt>
<pdfrwt beam="2">  1       -2 0.18079684E-01 0.90402919E+02</pdfrwt>
<totfact> 0.77564713E+04</totfact>
</mgrwt>
</event>
<event>
 5   1  0.1343823E+00  0.9140221E+02  0.7818608E-02  0.1299491E+00
         -2   -1    0    0    0  501 -0.00000000000E+00  0.00000000000E+00  0.11300896934E+03  0.11300896937E+03  0.26000000000E-02 0.  1.
          2   -1    0    0  501    0  0.00000000000E+00 -0.00000000000E+00 -0.18481637866E+02  0.18481638049E+02  0.26000000000E-02 0. -1.
         23    2    1    2    0    0  0.00000000000E+00  0.00000000000E+00  0.94527331475E+02  0.13149060742E+03  0.91402206997E+02 0.  0.
        -13    1    3    3    0    0 -0.25535041221E+02 -0.16048502205E+02 -0.21324211139E+01  0.30234932536E+02  0.10570000000E+00 0. -1.
         13    1    3    3    0    0  0.25535041221E+02  0.16048502205E+02  0.96659752589E+02  0.10125567488E+03  0.10570000000E+00 0.  1.
<mgrwt>
<rscale>  0 0.91402207E+02</rscale>
<asrwt>0</asrwt>
<pdfrwt beam="2">  1        2 0.28433290E-02 0.91402207E+02</pdfrwt>
<pdfrwt beam="1">  1       -2 0.17385995E-01 0.91402207E+02</pdfrwt>
<totfact> 0.76399885E+04</totfact>
</mgrwt>
</event>
<event>
 5   1  0.1343823E+00  0.9157130E+02  0.7818608E-02  0.1299091E+00
          2   -1    0    0  501    0  0.00000000000E+00  0.00000000000E+00  0.45395348798E+02  0.45395348873E+02  0.26000000000E-02 0. -1.
         -2   -1    0    0    0  501 -0.00000000000E+00 -0.00000000000E+00 -0.46179302940E+02  0.46179303013E+02  0.26000000000E-02 0.  1.
         23    2    1    2    0    0  0.00000000000E+00  0.00000000000E+00 -0.78395414171E+00  0.91574651886E+02  0.91571296179E+02 0.  0.
        -13    1    3    3    0    0 -0.25233092701E+02 -0.25022448393E+02  0.28479178017E+02  0.45540165171E+02  0.10570000000E+00 0. -1.
         13    1    3    3    0    0  0.25233092701E+02  0.25022448393E+02 -0.29263132159E+02  0.46034486714E+02  0.10570000000E+00 0.  1.
<mgrwt>
<rscale>  0 0.91571296E+02</rscale>
<asrwt>0</asrwt>
<pdfrwt beam="1">  1        2 0.69838998E-02 0.91571296E+02</pdfrwt>
<pdfrwt beam="2">  1       -2 0.71045082E-02 0.91571296E+02</pdfrwt>
<totfact> 0.97350356E+04</totfact>
</mgrwt>
</event>
<event>
 5   1  0.1343823E+00  0.9162546E+02  0.7818608E-02  0.1298962E+00
         -2   -1    0    0    0  501 -0.00000000000E+00  0.00000000000E+00  0.86509989555E+02  0.86509989595E+02  0.26000000000E-02 0.  1.
          2   -1    0    0  501    0  0.00000000000E+00 -0.00000000000E+00 -0.24260855263E+02  0.24260855403E+02  0.26000000000E-02 0. -1.
         23    2    1    2    0    0  0.00000000000E+00  0.00000000000E+00  0.62249134292E+02  0.11077084500E+03  0.91625462516E+02 0.  0.
        -13    1    3    3    0    0 -0.33471928357E+02 -0.17546540590E+02  0.62430234120E+02  0.72978054094E+02  0.10570000000E+00 0. -1.
         13    1    3    3    0    0  0.33471928357E+02  0.17546540590E+02 -0.18109982808E+00  0.37792790903E+02  0.10570000000E+00 0.  1.
<mgrwt>
<rscale>  0 0.91625463E+02</rscale>
<asrwt>0</asrwt>
<pdfrwt beam="2">  1        2 0.37324393E-02 0.91625463E+02</pdfrwt>
<pdfrwt beam="1">  1       -2 0.13309229E-01 0.91625463E+02</pdfrwt>
<totfact> 0.82234500E+04</totfact>
</mgrwt>
</event>
<event>
 5   1  0.1343823E+00  0.8935112E+02  0.7818608E-02  0.1304431E+00
          2   -1    0    0  501    0  0.00000000000E+00  0.00000000000E+00  0.34491303823E+03  0.34491303824E+03  0.26000000000E-02 0. -1.
         -2   -1    0    0    0  501 -0.00000000000E+00 -0.00000000000E+00 -0.57866918274E+01  0.57866924115E+01  0.26000000000E-02 0.  1.
         23    2    1    2    0    0  0.00000000000E+00  0.00000000000E+00  0.33912634640E+03  0.35069973065E+03  0.89351117813E+02 0.  0.
        -13    1    3    3    0    0  0.27460358282E+02 -0.35232603207E+02  0.16682472697E+03  0.17270179011E+03  0.10570000000E+00 0. -1.
         13    1    3    3    0    0 -0.27460358282E+02  0.35232603207E+02  0.17230161943E+03  0.17799794054E+03  0.10570000000E+00 0.  1.
<mgrwt>
<rscale>  0 0.89351118E+02</rscale>
<asrwt>0</asrwt>
<pdfrwt beam="1">  1        2 0.53063558E-01 0.89351118E+02</pdfrwt>
<pdfrwt beam="2">  1       -2 0.89026010E-03 0.89351118E+02</pdfrwt>
<totfact> 0.19962444E+05</totfact>
</mgrwt>
</event>
<event>
 5   1  0.1343823E+00  0.8960866E+02  0.7818608E-02  0.1303802E+00
         -2   -1    0    0    0  501 -0.00000000000E+00  0.00000000000E+00  0.25153788942E+02  0.25153789076E+02  0.26000000000E-02 0. -1.
          2   -1    0    0  501    0  0.00000000000E+00 -0.00000000000E+00 -0.79806182543E+02  0.79806182585E+02  0.26000000000E-02 0.  1.
         23    2    1    2    0    0  0.00000000000E+00  0.00000000000E+00 -0.54652393601E+02  0.10495997166E+03  0.89608657644E+02 0.  0.
        -13    1    3    3    0    0 -0.19374810815E+02  0.33866762339E+02 -0.53123751855E+02  0.65912707948E+02  0.10570000000E+00 0.  1.
         13    1    3    3    0    0  0.19374810815E+02 -0.33866762339E+02 -0.15286417460E+01  0.39047263713E+02  0.10570000000E+00 0. -1.
<mgrwt>
<rscale>  0 0.89608658E+02</rscale>
<asrwt>0</asrwt>
<pdfrwt beam="2">  1        2 0.12277874E-01 0.89608658E+02</pdfrwt>
<pdfrwt beam="1">  1       -2 0.38698137E-02 0.89608658E+02</pdfrwt>
<totfact> 0.12043392E+05</totfact>
</mgrwt>
</event>
<event>
 5   1  0.1343823E+00  0.7513678E+02  0.7818608E-02  0.1343448E+00
          2   -1    0    0  501    0  0.00000000000E+00  0.00000000000E+00  0.12100989395E+03  0.12100989398E+03  0.26000000000E-02 0.  1.
         -2   -1    0    0    0  501 -0.00000000000E+00 -0.00000000000E+00 -0.11663377614E+02  0.11663377904E+02  0.26000000000E-02 0. -1.
         23    2    1    2    0    0  0.00000000000E+00  0.00000000000E+00  0.10934651634E+03  0.13267327189E+03  0.75136784846E+02 0.  0.
        -13    1    3    3    0    0  0.29887800087E+01  0.23612275534E+02  0.10599881089E+03  0.10863807548E+03  0.10570000000E+00 0.  1.
         13    1    3    3    0    0 -0.29887800087E+01 -0.23612275534E+02  0.33477054492E+01  0.24035196403E+02  0.10570000000E+00 0. -1.
<mgrwt>
<rscale>  0 0.75136785E+02</rscale>
<asrwt>0</asrwt>
<pdfrwt beam="1">  1        2 0.18616907E-01 0.75136785E+02</pdfrwt>
<pdfrwt beam="2">  1       -2 0.17943658E-02 0.75136785E+02</pdfrwt>
<totfact> 0.21941705E+05</totfact>
</mgrwt>
</event>
<event>
 5   1  0.1343823E+00  0.9107593E+02  0.7818608E-02  0.1300267E+00
         -2   -1    0    0    0  501 -0.00000000000E+00  0.00000000000E+00  0.26201487369E+03  0.26201487371E+03  0.26000000000E-02 0.  1.
          2   -1    0    0  501    0  0.00000000000E+00 -0.00000000000E+00 -0.79144596090E+01  0.79144600360E+01  0.26000000000E-02 0. -1.
         23    2    1    2    0    0  0.00000000000E+00  0.00000000000E+00  0.25410041408E+03  0.26992933374E+03  0.91075928635E+02 0.  0.
        -13    1    3    3    0    0 -0.23802847255E+02 -0.37747453442E+02  0.15392916507E+03  0.16026741656E+03  0.10570000000E+00 0.  1.
         13    1    3    3    0    0  0.23802847255E+02  0.37747453442E+02  0.10017124901E+03  0.10966191718E+03  0.10570000000E+00 0. -1.
<mgrwt>
<rscale>  0 0.91075929E+02</rscale>
<asrwt>0</asrwt>
<pdfrwt beam="2">  1        2 0.12176093E-02 0.91075929E+02</pdfrwt>
<pdfrwt beam="1">  1       -2 0.40309977E-01 0.91075929E+02</pdfrwt>
<totfact> 0.55012577E+04</totfact>
</mgrwt>
</event>
<event>
 5   1  0.1343823E+00  0.9068400E+02  0.7818608E-02  0.1301204E+00
          2   -1    0    0  501    0  0.00000000000E+00  0.00000000000E+00  0.25937352914E+02  0.25937353045E+02  0.26000000000E-02 0. -1.
         -2   -1    0    0    0  501 -0.00000000000E+00 -0.00000000000E+00 -0.79263943113E+02  0.79263943155E+02  0.26000000000E-02 0.  1.
         23    2    1    2    0    0  0.00000000000E+00  0.00000000000E+00 -0.53326590198E+02  0.10520129620E+03  0.90683998037E+02 0.  0.
        -13    1    3    3    0    0 -0.13634816314E+02  0.41851093136E+02 -0.14036803521E+02  0.46200273139E+02  0.10570000000E+00 0.  1.
         13    1    3    3    0    0  0.13634816314E+02 -0.41851093136E+02 -0.39289786677E+02  0.59001023061E+02  0.10570000000E+00 0. -1.
<mgrwt>
<rscale>  0 0.90683998E+02</rscale>
<asrwt>0</asrwt>
<pdfrwt beam="1">  1        2 0.39903620E-02 0.90683998E+02</pdfrwt>
<pdfrwt beam="2">  1       -2 0.12194453E-01 0.90683998E+02</pdfrwt>
<totfact> 0.86438235E+04</totfact>
</mgrwt>
</event>
<event>
 5   1  0.1343823E+00  0.9417666E+02  0.7818608E-02  0.1293041E+00
         -2   -1    0    0    0  501 -0.00000000000E+00  0.00000000000E+00  0.55684921234E+02  0.55684921295E+02  0.26000000000E-02 0.  1.
          2   -1    0    0  501    0  0.00000000000E+00 -0.00000000000E+00 -0.39818875301E+02  0.39818875386E+02  0.26000000000E-02 0. -1.
         23    2    1    2    0    0  0.00000000000E+00  0.00000000000E+00  0.15866045933E+02  0.95503796681E+02  0.94176662539E+02 0.  0.
        -13    1    3    3    0    0 -0.24022524576E+02  0.15745669735E+02  0.45772271237E+02  0.54038132731E+02  0.10570000000E+00 0.  1.
         13    1    3    3    0    0  0.24022524576E+02 -0.15745669735E+02 -0.29906225304E+02  0.41465663950E+02  0.10570000000E+00 0. -1.
<mgrwt>
<rscale>  0 0.94176663E+02</rscale>
<asrwt>0</asrwt>
<pdfrwt beam="2">  1        2 0.61259809E-02 0.94176663E+02</pdfrwt>
<pdfrwt beam="1">  1       -2 0.85669109E-02 0.94176663E+02</pdfrwt>
<totfact> 0.86709621E+04</totfact>
</mgrwt>
</event>
<event>
 5   1  0.1343823E+00  0.9028280E+02  0.7818608E-02  0.1302168E+00
          2   -1    0    0  501    0  0.00000000000E+00  0.00000000000E+00  0.24819495578E+02  0.24819495714E+02  0.26000000000E-02 0.  1.
         -2   -1    0    0    0  501 -0.00000000000E+00 -0.00000000000E+00 -0.82102632113E+02  0.82102632155E+02  0.26000000000E-02 0. -1.
         23    2    1    2    0    0  0.00000000000E+00  0.00000000000E+00 -0.57283136535E+02  0.10692212787E+03  0.90282798454E+02 0.  0.
        -13    1    3    3    0    0  0.31645231393E+02 -0.58153158898E+01 -0.66139209083E+02  0.73550287011E+02  0.10570000000E+00 0. -1.
         13    1    3    3    0    0 -0.31645231393E+02  0.58153158898E+01  0.88560725471E+01  0.33371840858E+02  0.10570000000E+00 0.  1.
<mgrwt>
<rscale>  0 0.90282798E+02</rscale>
<asrwt>0</asrwt>
<pdfrwt beam="1">  1        2 0.38183840E-02 0.90282798E+02</pdfrwt>
<pdfrwt beam="2">  1       -2 0.12631174E-01 0.90282798E+02</pdfrwt>
<totfact> 0.86541160E+04</totfact>
</mgrwt>
</event>
<event>
 5   1  0.1343823E+00  0.9918274E+02  0.7818608E-02  0.1282024E+00
         -2   -1    0    0    0  501 -0.00000000000E+00  0.00000000000E+00  0.11873916307E+03  0.11873916310E+03  0.26000000000E-02 0.  1.
          2   -1    0    0  501    0  0.00000000000E+00 -0.00000000000E+00 -0.20711817985E+02  0.20711818148E+02  0.26000000000E-02 0. -1.
         23    2    1    2    0    0  0.00000000000E+00  0.00000000000E+00  0.98027345087E+02  0.13945098125E+03  0.99182739357E+02 0.  0.
        -13    1    3    3    0    0  0.69459674826E+01 -0.26018143592E+02  0.10756312789E+03  0.11088294690E+03  0.10570000000E+00 0.  1.
         13    1    3    3    0    0 -0.69459674826E+01  0.26018143592E+02 -0.95357828015E+01  0.28568034346E+02  0.10570000000E+00 0. -1.
<mgrwt>
<rscale>  0 0.99182739E+02</rscale>
<asrwt>0</asrwt>
<pdfrwt beam="2">  1        2 0.31864336E-02 0.99182739E+02</pdfrwt>
<pdfrwt beam="1">  1       -2 0.18267563E-01 0.99182739E+02</pdfrwt>
<totfact> 0.61268303E+04</totfact>
</mgrwt>
</event>
<event>
 5   1  0.1343823E+00  0.1064396E+03  0.7818608E-02  0.1267309E+00
         -2   -1    0    0    0  501 -0.00000000000E+00  0.00000000000E+00  0.55970150287E+02  0.55970150348E+02  0.26000000000E-02 0.  1.
          2   -1    0    0  501    0  0.00000000000E+00 -0.00000000000E+00 -0.50604614379E+02  0.50604614446E+02  0.26000000000E-02 0. -1.
         23    2    1    2    0    0  0.00000000000E+00  0.00000000000E+00  0.53655359083E+01  0.10657476479E+03  0.10643961441E+03 0.  0.
        -13    1    3    3    0    0 -0.25736880782E+02 -0.44038130023E+01  0.49115739605E+02  0.55625063152E+02  0.10570000000E+00 0.  1.
         13    1    3    3    0    0  0.25736880782E+02  0.44038130023E+01 -0.43750203696E+02  0.50949701641E+02  0.10570000000E+00 0. -1.
<mgrwt>
<rscale>  0 0.10643961E+03</rscale>
<asrwt>0</asrwt>
<pdfrwt beam="2">  1        2 0.77853253E-02 0.10643961E+03</pdfrwt>
<pdfrwt beam="1">  1       -2 0.86107924E-02 0.10643961E+03</pdfrwt>
<totfact> 0.64760513E+04</totfact>
</mgrwt>
</event>
<event>
 5   1  0.1343823E+00  0.9312709E+02  0.7818608E-02  0.1295451E+00
         -2   -1    0    0    0  501 -0.00000000000E+00  0.00000000000E+00  0.11940777738E+03  0.11940777741E+03  0.26000000000E-02 0.  1.
          2   -1    0    0  501    0  0.00000000000E+00 -0.00000000000E+00 -0.18157641448E+02  0.18157641634E+02  0.26000000000E-02 0. -1.
         23    2    1    2    0    0  0.00000000000E+00  0.00000000000E+00  0.10125013593E+03  0.13756541904E+03  0.93127087842E+02 0.  0.
        -13    1    3    3    0    0 -0.14362805846E+02 -0.32906208486E+02  0.94421475283E+02  0.10101749807E+03  0.10570000000E+00 0.  1.
         13    1    3    3    0    0  0.14362805846E+02  0.32906208486E+02  0.68286606462E+01  0.36547920972E+02  0.10570000000E+00 0. -1.
<mgrwt>
<rscale>  0 0.93127088E+02</rscale>
<asrwt>0</asrwt>
<pdfrwt beam="2">  1        2 0.27934834E-02 0.93127088E+02</pdfrwt>
<pdfrwt beam="1">  1       -2 0.18370427E-01 0.93127088E+02</pdfrwt>
<totfact> 0.71627499E+04</totfact>
</mgrwt>
</event>
<event>
 5   1  0.1343823E+00  0.9011135E+02  0.7818608E-02  0.1302582E+00
          2   -1    0    0  501    0  0.00000000000E+00  0.00000000000E+00  0.12318096581E+03  0.12318096584E+03  0.26000000000E-02 0. -1.
         -2   -1    0    0    0  501 -0.00000000000E+00 -0.00000000000E+00 -0.16479931978E+02  0.16479932183E+02  0.26000000000E-02 0.  1.
         23    2    1    2    0    0  0.00000000000E+00  0.00000000000E+00  0.10670103384E+03  0.13966089802E+03  0.90111352310E+02 0.  0.
        -13    1    3    3    0    0 -0.32211155848E+02 -0.27813167019E+02  0.76279795304E+02  0.87348435388E+02  0.10570000000E+00 0.  1.
         13    1    3    3    0    0  0.32211155848E+02  0.27813167019E+02  0.30421238531E+02  0.52312462635E+02  0.10570000000E+00 0. -1.
<mgrwt>
<rscale>  0 0.90111352E+02</rscale>
<asrwt>0</asrwt>
<pdfrwt beam="1">  1        2 0.18950918E-01 0.90111352E+02</pdfrwt>
<pdfrwt beam="2">  1       -2 0.25353741E-02 0.90111352E+02</pdfrwt>
<totfact> 0.13522865E+05</totfact>
</mgrwt>
</event>
<event>
 5   1  0.1343823E+00  0.9167431E+02  0.7818608E-02  0.1298847E+00
          2   -1    0    0  501    0  0.00000000000E+00  0.00000000000E+00  0.10061331787E+03  0.10061331791E+03  0.26000000000E-02 0. -1.
         -2   -1    0    0    0  501 -0.00000000000E+00 -0.00000000000E+00 -0.20882370230E+02  0.20882370392E+02  0.26000000000E-02 0.  1.
         23    2    1    2    0    0  0.00000000000E+00  0.00000000000E+00  0.79730947642E+02  0.12149568830E+03  0.91674305358E+02 0.  0.
        -13    1    3    3    0    0  0.11662526420E+02  0.28701544579E+02 -0.49060390948E+01  0.31366759090E+02  0.10570000000E+00 0.  1.
         13    1    3    3    0    0 -0.11662526420E+02 -0.28701544579E+02  0.84636986737E+02  0.90128929207E+02  0.10570000000E+00 0. -1.
<mgrwt>
<rscale>  0 0.91674305E+02</rscale>
<asrwt>0</asrwt>
<pdfrwt beam="1">  1        2 0.15478972E-01 0.91674305E+02</pdfrwt>
<pdfrwt beam="2">  1       -2 0.32126724E-02 0.91674305E+02</pdfrwt>
<totfact> 0.12107567E+05</totfact>
</mgrwt>
</event>
<event>
 5   1  0.1343823E+00  0.9017223E+02  0.7818608E-02  0.1302435E+00
          2   -1    0    0  501    0  0.00000000000E+00  0.00000000000E+00  0.35911395568E+03  0.35911395569E+03  0.26000000000E-02 0. -1.
         -2   -1    0    0    0  501 -0.00000000000E+00 -0.00000000000E+00 -0.56604812617E+01  0.56604818588E+01  0.26000000000E-02 0.  1.
         23    2    1    2    0    0  0.00000000000E+00  0.00000000000E+00  0.35345347442E+03  0.36477443755E+03  0.90172233588E+02 0.  0.
        -13    1    3    3    0    0 -0.52148127187E+01 -0.41484013531E+02  0.24497494048E+03  0.24851730380E+03  0.10570000000E+00 0. -1.
         13    1    3    3    0    0  0.52148127187E+01  0.41484013531E+02  0.10847853394E+03  0.11625713375E+03  0.10570000000E+00 0.  1.
<mgrwt>
<rscale>  0 0.90172234E+02</rscale>
<asrwt>0</asrwt>
<pdfrwt beam="1">  1        2 0.55248300E-01 0.90172234E+02</pdfrwt>
<pdfrwt beam="2">  1       -2 0.87084333E-03 0.90172234E+02</pdfrwt>
<totfact> 0.19772585E+05</totfact>
</mgrwt>
</event>
<event>
 5   1  0.1343823E+00  0.8771861E+02  0.7818608E-02  0.1308472E+00
         -2   -1    0    0    0  501 -0.00000000000E+00  0.00000000000E+00  0.27311272685E+03  0.27311272686E+03  0.26000000000E-02 0.  1.
          2   -1    0    0  501    0  0.00000000000E+00 -0.00000000000E+00 -0.70433864561E+01  0.70433869360E+01  0.26000000000E-02 0. -1.
         23    2    1    2    0    0  0.00000000000E+00  0.00000000000E+00  0.26606934039E+03  0.28015611379E+03  0.87718608065E+02 0.  0.
        -13    1    3    3    0    0  0.29332279662E+02  0.26297946695E+02  0.71462722863E+02  0.81602062241E+02  0.10570000000E+00 0. -1.
         13    1    3    3    0    0 -0.29332279662E+02 -0.26297946695E+02  0.19460661753E+03  0.19855405155E+03  0.10570000000E+00 0.  1.
<mgrwt>
<rscale>  0 0.87718608E+02</rscale>
<asrwt>0</asrwt>
<pdfrwt beam="2">  1        2 0.10835982E-02 0.87718608E+02</pdfrwt>
<pdfrwt beam="1">  1       -2 0.42017333E-01 0.87718608E+02</pdfrwt>
<totfact> 0.59283312E+04</totfact>
</mgrwt>
</event>
<event>
 5   1  0.1343823E+00  0.9588955E+02  0.7818608E-02  0.1289185E+00
         -2   -1    0    0    0  501 -0.00000000000E+00  0.00000000000E+00  0.11004647437E+02  0.11004647744E+02  0.26000000000E-02 0. -1.
          2   -1    0    0  501    0  0.00000000000E+00 -0.00000000000E+00 -0.20888460989E+03  0.20888460991E+03  0.26000000000E-02 0.  1.
         23    2    1    2    0    0  0.00000000000E+00  0.00000000000E+00 -0.19787996246E+03  0.21988925765E+03  0.95889551515E+02 0.  0.
        -13    1    3    3    0    0  0.28512147872E+02  0.32928291796E+02 -0.52992450075E+02  0.68596107137E+02  0.10570000000E+00 0. -1.
         13    1    3    3    0    0 -0.28512147872E+02 -0.32928291796E+02 -0.14488751238E+03  0.15129315052E+03  0.10570000000E+00 0.  1.
<mgrwt>
<rscale>  0 0.95889552E+02</rscale>
<asrwt>0</asrwt>
<pdfrwt beam="2">  1        2 0.32136091E-01 0.95889552E+02</pdfrwt>
<pdfrwt beam="1">  1       -2 0.16930229E-02 0.95889552E+02</pdfrwt>
<totfact> 0.13715173E+05</totfact>
</mgrwt>
</event>
<event>
 5   1  0.1343823E+00  0.9231179E+02  0.7818608E-02  0.1297348E+00
          2   -1    0    0  501    0  0.00000000000E+00  0.00000000000E+00  0.86521267536E+02  0.86521267575E+02  0.26000000000E-02 0. -1.
         -2   -1    0    0    0  501 -0.00000000000E+00 -0.00000000000E+00 -0.24622460198E+02  0.24622460335E+02  0.26000000000E-02 0.  1.
         23    2    1    2    0    0  0.00000000000E+00  0.00000000000E+00  0.61898807338E+02  0.11114372791E+03  0.92311786376E+02 0.  0.
        -13    1    3    3    0    0  0.15827962185E+02  0.33793803421E+02 -0.17545308227E+01  0.37358199735E+02  0.10570000000E+00 0.  1.
         13    1    3    3    0    0 -0.15827962185E+02 -0.33793803421E+02  0.63653338161E+02  0.73785528175E+02  0.10570000000E+00 0. -1.
<mgrwt>
<rscale>  0 0.92311786E+02</rscale>
<asrwt>0</asrwt>
<pdfrwt beam="1">  1        2 0.13310964E-01 0.92311786E+02</pdfrwt>
<pdfrwt beam="2">  1       -2 0.37880708E-02 0.92311786E+02</pdfrwt>
<totfact> 0.11352382E+05</totfact>
</mgrwt>
</event>
<event>
 5   1  0.1343823E+00  0.1047089E+03  0.7818608E-02  0.1270694E+00
         -2   -1    0    0    0  501 -0.00000000000E+00  0.00000000000E+00  0.19863033162E+02  0.19863033333E+02  0.26000000000E-02 0. -1.
          2   -1    0    0  501    0  0.00000000000E+00 -0.00000000000E+00 -0.13799435943E+03  0.13799435946E+03  0.26000000000E-02 0.  1.
         23    2    1    2    0    0  0.00000000000E+00  0.00000000000E+00 -0.11813132627E+03  0.15785739279E+03  0.10470886406E+03 0.  0.
        -13    1    3    3    0    0 -0.39646904187E+02 -0.15380211083E+02 -0.13027609668E+02  0.44476484694E+02  0.10570000000E+00 0. -1.
         13    1    3    3    0    0  0.39646904187E+02  0.15380211083E+02 -0.10510371660E+03  0.11338090810E+03  0.10570000000E+00 0.  1.
<mgrwt>
<rscale>  0 0.10470886E+03</rscale>
<asrwt>0</asrwt>
<pdfrwt beam="2">  1        2 0.21229901E-01 0.10470886E+03</pdfrwt>
<pdfrwt beam="1">  1       -2 0.30558514E-02 0.10470886E+03</pdfrwt>
<totfact> 0.92933909E+04</totfact>
</mgrwt>
</event>
<event>
 5   1  0.1343823E+00  0.7435627E+02  0.7818608E-02  0.1345876E+00
          2   -1    0    0  501    0  0.00000000000E+00  0.00000000000E+00  0.12777397946E+03  0.12777397949E+03  0.26000000000E-02 0. -1.
         -2   -1    0    0    0  501 -0.00000000000E+00 -0.00000000000E+00 -0.10817646027E+02  0.10817646339E+02  0.26000000000E-02 0.  1.
         23    2    1    2    0    0  0.00000000000E+00  0.00000000000E+00  0.11695633343E+03  0.13859162582E+03  0.74356269532E+02 0.  0.
        -13    1    3    3    0    0  0.22142523839E+02  0.65215485690E+01  0.11279951724E+03  0.11513715395E+03  0.10570000000E+00 0. -1.
         13    1    3    3    0    0 -0.22142523839E+02 -0.65215485690E+01  0.41568161961E+01  0.23454471878E+02  0.10570000000E+00 0.  1.
<mgrwt>
<rscale>  0 0.74356270E+02</rscale>
<asrwt>0</asrwt>
<pdfrwt beam="1">  1        2 0.19657535E-01 0.74356270E+02</pdfrwt>
<pdfrwt beam="2">  1       -2 0.16642533E-02 0.74356270E+02</pdfrwt>
<totfact> 0.22939381E+05</totfact>
</mgrwt>
</event>
<event>
 5   1  0.1343823E+00  0.8909192E+02  0.7818608E-02  0.1305066E+00
          2   -1    0    0  501    0  0.00000000000E+00  0.00000000000E+00  0.29962897349E+02  0.29962897461E+02  0.26000000000E-02 0. -1.
         -2   -1    0    0    0  501 -0.00000000000E+00 -0.00000000000E+00 -0.66226655771E+02  0.66226655822E+02  0.26000000000E-02 0.  1.
         23    2    1    2    0    0  0.00000000000E+00  0.00000000000E+00 -0.36263758422E+02  0.96189553283E+02  0.89091918747E+02 0.  0.
        -13    1    3    3    0    0  0.16099123318E+02  0.26177912075E+02  0.16684081475E+02  0.34969052023E+02  0.10570000000E+00 0. -1.
         13    1    3    3    0    0 -0.16099123318E+02 -0.26177912075E+02 -0.52947839898E+02  0.61220501260E+02  0.10570000000E+00 0.  1.
<mgrwt>
<rscale>  0 0.89091919E+02</rscale>
<asrwt>0</asrwt>
<pdfrwt beam="1">  1        2 0.46096765E-02 0.89091919E+02</pdfrwt>
<pdfrwt beam="2">  1       -2 0.10188716E-01 0.89091919E+02</pdfrwt>
<totfact> 0.94698250E+04</totfact>
</mgrwt>
</event>
<event>
 5   1  0.1343823E+00  0.9000919E+02  0.7818608E-02  0.1302829E+00
         -2   -1    0    0    0  501 -0.00000000000E+00  0.00000000000E+00  0.34239492047E+02  0.34239492145E+02  0.26000000000E-02 0.  1.
          2   -1    0    0  501    0  0.00000000000E+00 -0.00000000000E+00 -0.59154315538E+02  0.59154315595E+02  0.26000000000E-02 0. -1.
         23    2    1    2    0    0  0.00000000000E+00  0.00000000000E+00 -0.24914823491E+02  0.93393807740E+02  0.90009193389E+02 0.  0.
        -13    1    3    3    0    0  0.18934442419E+02 -0.31481144050E+01  0.29779260220E+02  0.35429355707E+02  0.10570000000E+00 0.  1.
         13    1    3    3    0    0 -0.18934442419E+02  0.31481144050E+01 -0.54694083712E+02  0.57964452034E+02  0.10570000000E+00 0. -1.
<mgrwt>
<rscale>  0 0.90009193E+02</rscale>
<asrwt>0</asrwt>
<pdfrwt beam="2">  1        2 0.91006640E-02 0.90009193E+02</pdfrwt>
<pdfrwt beam="1">  1       -2 0.52676142E-02 0.90009193E+02</pdfrwt>
<totfact> 0.10957450E+05</totfact>
</mgrwt>
</event>
<event>
 5   1  0.1343823E+00  0.9483153E+02  0.7818608E-02  0.1291556E+00
         -2   -1    0    0    0  501 -0.00000000000E+00  0.00000000000E+00  0.82250880054E+02  0.82250880096E+02  0.26000000000E-02 0. -1.
          2   -1    0    0  501    0  0.00000000000E+00 -0.00000000000E+00 -0.27334111929E+02  0.27334112053E+02  0.26000000000E-02 0.  1.
         23    2    1    2    0    0  0.00000000000E+00  0.00000000000E+00  0.54916768126E+02  0.10958499215E+03  0.94831530003E+02 0.  0.
        -13    1    3    3    0    0  0.44755552195E+01 -0.32842582944E+02  0.66638660691E+02  0.74427065777E+02  0.10570000000E+00 0. -1.
         13    1    3    3    0    0 -0.44755552195E+01  0.32842582944E+02 -0.11721892566E+02  0.35157926371E+02  0.10570000000E+00 0.  1.
<mgrwt>
<rscale>  0 0.94831530E+02</rscale>
<asrwt>0</asrwt>
<pdfrwt beam="2">  1        2 0.42052480E-02 0.94831530E+02</pdfrwt>
<pdfrwt beam="1">  1       -2 0.12653981E-01 0.94831530E+02</pdfrwt>
<totfact> 0.76642387E+04</totfact>
</mgrwt>
</event>
<event>
 5   1  0.1343823E+00  0.9205642E+02  0.7818608E-02  0.1297947E+00
          2   -1    0    0  501    0  0.00000000000E+00  0.00000000000E+00  0.95361937735E+02  0.95361937771E+02  0.26000000000E-02 0. -1.
         -2   -1    0    0    0  501 -0.00000000000E+00 -0.00000000000E+00 -0.22216371506E+02  0.22216371658E+02  0.26000000000E-02 0.  1.
         23    2    1    2    0    0  0.00000000000E+00  0.00000000000E+00  0.73145566229E+02  0.11757830943E+03  0.92056422856E+02 0.  0.
        -13    1    3    3    0    0  0.35790041273E+02 -0.11157380875E+02  0.70681856006E+02  0.80008437950E+02  0.10570000000E+00 0. -1.
         13    1    3    3    0    0 -0.35790041273E+02  0.11157380875E+02  0.24637102232E+01  0.37569871478E+02  0.10570000000E+00 0.  1.
<mgrwt>
<rscale>  0 0.92056423E+02</rscale>
<asrwt>0</asrwt>
<pdfrwt beam="1">  1        2 0.14671067E-01 0.92056423E+02</pdfrwt>
<pdfrwt beam="2">  1       -2 0.34179034E-02 0.92056423E+02</pdfrwt>
<totfact> 0.11776109E+05</totfact>
</mgrwt>
</event>
<event>
 5   1  0.1343823E+00  0.8917153E+02  0.7818608E-02  0.1304870E+00
         -2   -1    0    0    0  501 -0.00000000000E+00  0.00000000000E+00  0.61634430733E+01  0.61634436217E+01  0.26000000000E-02 0.  1.
          2   -1    0    0  501    0  0.00000000000E+00 -0.00000000000E+00 -0.32252922071E+03  0.32252922072E+03  0.26000000000E-02 0. -1.
         23    2    1    2    0    0  0.00000000000E+00  0.00000000000E+00 -0.31636577763E+03  0.32869266434E+03  0.89171533196E+02 0.  0.
        -13    1    3    3    0    0 -0.52707733498E+01  0.44156248570E+02 -0.17002663994E+03  0.17574590977E+03  0.10570000000E+00 0.  1.
         13    1    3    3    0    0  0.52707733498E+01 -0.44156248570E+02 -0.14633913769E+03  0.15294675457E+03  0.10570000000E+00 0. -1.
<mgrwt>
<rscale>  0 0.89171533E+02</rscale>
<asrwt>0</asrwt>
<pdfrwt beam="2">  1        2 0.49619867E-01 0.89171533E+02</pdfrwt>
<pdfrwt beam="1">  1       -2 0.94822230E-03 0.89171533E+02</pdfrwt>
<totfact> 0.19580406E+05</totfact>
</mgrwt>
</event>
<event>
 5   1  0.1343823E+00  0.9139904E+02  0.7818608E-02  0.1299499E+00
         -2   -1    0    0    0  501 -0.00000000000E+00  0.00000000000E+00  0.14269767384E+02  0.14269767621E+02  0.26000000000E-02 0.  1.
          2   -1    0    0  501    0  0.00000000000E+00 -0.00000000000E+00 -0.14635459862E+03  0.14635459864E+03  0.26000000000E-02 0. -1.
         23    2    1    2    0    0  0.00000000000E+00  0.00000000000E+00 -0.13208483124E+03  0.16062436627E+03  0.91399039356E+02 0.  0.
        -13    1    3    3    0    0  0.45410468472E+02  0.85842428051E+00 -0.74932026807E+02  0.87622299405E+02  0.10570000000E+00 0. -1.
         13    1    3    3    0    0 -0.45410468472E+02 -0.85842428051E+00 -0.57152804430E+02  0.73002066860E+02  0.10570000000E+00 0.  1.
<mgrwt>
<rscale>  0 0.91399039E+02</rscale>
<asrwt>0</asrwt>
<pdfrwt beam="2">  1        2 0.22516091E-01 0.91399039E+02</pdfrwt>
<pdfrwt beam="1">  1       -2 0.21953490E-02 0.91399039E+02</pdfrwt>
<totfact> 0.13773334E+05</totfact>
</mgrwt>
</event>
<event>
 5   1  0.1343823E+00  0.9290495E+02  0.7818608E-02  0.1295966E+00
          2   -1    0    0  501    0  0.00000000000E+00  0.00000000000E+00  0.47665408764E+02  0.47665408834E+02  0.26000000000E-02 0.  1.
         -2   -1    0    0    0  501 -0.00000000000E+00 -0.00000000000E+00 -0.45270410543E+02  0.45270410618E+02  0.26000000000E-02 0. -1.
         23    2    1    2    0    0  0.00000000000E+00  0.00000000000E+00  0.23949982201E+01  0.92935819452E+02  0.92904954232E+02 0.  0.
        -13    1    3    3    0    0  0.27866635570E+02 -0.37033416284E+02  0.43287399988E+01  0.46548603224E+02  0.10570000000E+00 0. -1.
         13    1    3    3    0    0 -0.27866635570E+02  0.37033416284E+02 -0.19337417787E+01  0.46387216228E+02  0.10570000000E+00 0.  1.
<mgrwt>
<rscale>  0 0.92904954E+02</rscale>
<asrwt>0</asrwt>
<pdfrwt beam="1">  1        2 0.73331398E-02 0.92904954E+02</pdfrwt>
<pdfrwt beam="2">  1       -2 0.69646785E-02 0.92904954E+02</pdfrwt>
<totfact> 0.94588447E+04</totfact>
</mgrwt>
</event>
<event>
 5   1  0.1343823E+00  0.9413353E+02  0.7818608E-02  0.1293140E+00
         -2   -1    0    0    0  501 -0.00000000000E+00  0.00000000000E+00  0.26223735112E+03  0.26223735113E+03  0.26000000000E-02 0.  1.
          2   -1    0    0  501    0  0.00000000000E+00 -0.00000000000E+00 -0.84476160859E+01  0.84476164860E+01  0.26000000000E-02 0. -1.
         23    2    1    2    0    0  0.00000000000E+00  0.00000000000E+00  0.25378973503E+03  0.27068496761E+03  0.94133533271E+02 0.  0.
        -13    1    3    3    0    0  0.28941386310E+02 -0.34465425603E+02  0.16651061180E+03  0.17248554843E+03  0.10570000000E+00 0.  1.
         13    1    3    3    0    0 -0.28941386310E+02  0.34465425603E+02  0.87279123232E+02  0.98199419184E+02  0.10570000000E+00 0. -1.
<mgrwt>
<rscale>  0 0.94133533E+02</rscale>
<asrwt>0</asrwt>
<pdfrwt beam="2">  1        2 0.12996332E-02 0.94133533E+02</pdfrwt>
<pdfrwt beam="1">  1       -2 0.40344209E-01 0.94133533E+02</pdfrwt>
<totfact> 0.50510498E+04</totfact>
</mgrwt>
</event>
<event>
 5   1  0.1343823E+00  0.9099053E+02  0.7818608E-02  0.1300471E+00
         -2   -1    0    0    0  501 -0.00000000000E+00  0.00000000000E+00  0.72592869591E+02  0.72592869638E+02  0.26000000000E-02 0.  1.
          2   -1    0    0  501    0  0.00000000000E+00 -0.00000000000E+00 -0.28512703191E+02  0.28512703310E+02  0.26000000000E-02 0. -1.
         23    2    1    2    0    0  0.00000000000E+00  0.00000000000E+00  0.44080166400E+02  0.10110557295E+03  0.90990525942E+02 0.  0.
        -13    1    3    3    0    0 -0.15098298978E+02  0.42910142464E+02  0.22878127777E+02  0.50918158464E+02  0.10570000000E+00 0. -1.
         13    1    3    3    0    0  0.15098298978E+02 -0.42910142464E+02  0.21202038623E+02  0.50187414484E+02  0.10570000000E+00 0.  1.
<mgrwt>
<rscale>  0 0.90990526E+02</rscale>
<asrwt>0</asrwt>
<pdfrwt beam="2">  1        2 0.43865698E-02 0.90990526E+02</pdfrwt>
<pdfrwt beam="1">  1       -2 0.11168134E-01 0.90990526E+02</pdfrwt>
<totfact> 0.87801118E+04</totfact>
</mgrwt>
</event>
<event>
 5   1  0.1343823E+00  0.9078123E+02  0.7818608E-02  0.1300971E+00
         -2   -1    0    0    0  501 -0.00000000000E+00  0.00000000000E+00  0.22276988725E+02  0.22276988876E+02  0.26000000000E-02 0.  1.
          2   -1    0    0  501    0  0.00000000000E+00 -0.00000000000E+00 -0.92485934872E+02  0.92485934908E+02  0.26000000000E-02 0. -1.
         23    2    1    2    0    0  0.00000000000E+00  0.00000000000E+00 -0.70208946147E+02  0.11476292378E+03  0.90781234606E+02 0.  0.
        -13    1    3    3    0    0  0.37104299139E+02 -0.72992943195E+01 -0.33667967713E+01  0.37965184118E+02  0.10570000000E+00 0.  1.
         13    1    3    3    0    0 -0.37104299139E+02  0.72992943195E+01 -0.66842149376E+02  0.76797739666E+02  0.10570000000E+00 0. -1.
<mgrwt>
<rscale>  0 0.90781235E+02</rscale>
<asrwt>0</asrwt>
<pdfrwt beam="2">  1        2 0.14228605E-01 0.90781235E+02</pdfrwt>
<pdfrwt beam="1">  1       -2 0.34272291E-02 0.90781235E+02</pdfrwt>
<totfact> 0.12127026E+05</totfact>
</mgrwt>
</event>
<event>
 5   1  0.1343823E+00  0.9307676E+02  0.7818608E-02  0.1295567E+00
         -2   -1    0    0    0  501 -0.00000000000E+00  0.00000000000E+00  0.59629783181E+01  0.59629788849E+01  0.26000000000E-02 0.  1.
          2   -1    0    0  501    0  0.00000000000E+00 -0.00000000000E+00 -0.36321127065E+03  0.36321127066E+03  0.26000000000E-02 0. -1.
         23    2    1    2    0    0  0.00000000000E+00  0.00000000000E+00 -0.35724829233E+03  0.36917424954E+03  0.93076764836E+02 0.  0.
        -13    1    3    3    0    0  0.31404050786E+02 -0.29479925351E+02 -0.24851840852E+03  0.25222349405E+03  0.10570000000E+00 0. -1.
         13    1    3    3    0    0 -0.31404050786E+02  0.29479925351E+02 -0.10872988380E+03  0.11695075549E+03  0.10570000000E+00 0.  1.
<mgrwt>
<rscale>  0 0.93076765E+02</rscale>
<asrwt>0</asrwt>
<pdfrwt beam="2">  1        2 0.55878640E-01 0.93076765E+02</pdfrwt>
<pdfrwt beam="1">  1       -2 0.91738161E-03 0.93076765E+02</pdfrwt>
<totfact> 0.18248157E+05</totfact>
</mgrwt>
</event>
<event>
 5   1  0.1343823E+00  0.8950218E+02  0.7818608E-02  0.1304062E+00
          2   -1    0    0  501    0  0.00000000000E+00  0.00000000000E+00  0.46853520766E+02  0.46853520838E+02  0.26000000000E-02 0. -1.
         -2   -1    0    0    0  501 -0.00000000000E+00 -0.00000000000E+00 -0.42742996652E+02  0.42742996731E+02  0.26000000000E-02 0.  1.
         23    2    1    2    0    0  0.00000000000E+00  0.00000000000E+00  0.41105241146E+01  0.89596517569E+02  0.89502176242E+02 0.  0.
        -13    1    3    3    0    0  0.22528386907E+02 -0.25330440096E+02 -0.27190071283E+02  0.43456536459E+02  0.10570000000E+00 0.  1.
         13    1    3    3    0    0 -0.22528386907E+02  0.25330440096E+02  0.31300595398E+02  0.46139981110E+02  0.10570000000E+00 0. -1.
<mgrwt>
<rscale>  0 0.89502176E+02</rscale>
<asrwt>0</asrwt>
<pdfrwt beam="1">  1        2 0.72082340E-02 0.89502176E+02</pdfrwt>
<pdfrwt beam="2">  1       -2 0.65758457E-02 0.89502176E+02</pdfrwt>
<totfact> 0.10478375E+05</totfact>
</mgrwt>
</event>
<event>
 5   1  0.1343823E+00  0.9242546E+02  0.7818608E-02  0.1297082E+00
          2   -1    0    0  501    0  0.00000000000E+00  0.00000000000E+00  0.19825953454E+03  0.19825953455E+03  0.26000000000E-02 0. -1.
         -2   -1    0    0    0  501 -0.00000000000E+00 -0.00000000000E+00 -0.10771822617E+02  0.10771822931E+02  0.26000000000E-02 0.  1.
         23    2    1    2    0    0  0.00000000000E+00  0.00000000000E+00  0.18748771192E+03  0.20903135748E+03  0.92425463435E+02 0.  0.
        -13    1    3    3    0    0 -0.37055649509E+01 -0.35933420833E+02  0.15892655754E+03  0.16298037860E+03  0.10570000000E+00 0. -1.
         13    1    3    3    0    0  0.37055649509E+01  0.35933420833E+02  0.28561154381E+02  0.46050978887E+02  0.10570000000E+00 0.  1.
<mgrwt>
<rscale>  0 0.92425463E+02</rscale>
<asrwt>0</asrwt>
<pdfrwt beam="1">  1        2 0.30501466E-01 0.92425463E+02</pdfrwt>
<pdfrwt beam="2">  1       -2 0.16572036E-02 0.92425463E+02</pdfrwt>
<totfact> 0.14863757E+05</totfact>
</mgrwt>
</event>
<event>
 5   1  0.1343823E+00  0.1027116E+03  0.7818608E-02  0.1274695E+00
         -2   -1    0    0    0  501 -0.00000000000E+00  0.00000000000E+00  0.15168568730E+02  0.15168568953E+02  0.26000000000E-02 0.  1.
          2   -1    0    0  501    0  0.00000000000E+00 -0.00000000000E+00 -0.17387396275E+03  0.17387396277E+03  0.26000000000E-02 0. -1.
         23    2    1    2    0    0  0.00000000000E+00  0.00000000000E+00 -0.15870539402E+03  0.18904253172E+03  0.10271161915E+03 0.  0.
        -13    1    3    3    0    0 -0.35970695099E+02  0.10692379670E+01 -0.11919043881E+02  0.37909219924E+02  0.10570000000E+00 0.  1.
         13    1    3    3    0    0  0.35970695099E+02 -0.10692379670E+01 -0.14678635014E+03  0.15113331180E+03  0.10570000000E+00 0. -1.
<mgrwt>
<rscale>  0 0.10271162E+03</rscale>
<asrwt>0</asrwt>
<pdfrwt beam="2">  1        2 0.26749839E-01 0.10271162E+03</pdfrwt>
<pdfrwt beam="1">  1       -2 0.23336261E-02 0.10271162E+03</pdfrwt>
<totfact> 0.10636073E+05</totfact>
</mgrwt>
</event>
<event>
 5   1  0.1343823E+00  0.8016776E+02  0.7818608E-02  0.1328576E+00
          2   -1    0    0  501    0  0.00000000000E+00  0.00000000000E+00  0.81661959693E+01  0.81661963832E+01  0.26000000000E-02 0. -1.
         -2   -1    0    0    0  501 -0.00000000000E+00 -0.00000000000E+00 -0.19675223054E+03  0.19675223056E+03  0.26000000000E-02 0.  1.
         23    2    1    2    0    0  0.00000000000E+00  0.00000000000E+00 -0.18858603457E+03  0.20491842694E+03  0.80167757014E+02 0.  0.
        -13    1    3    3    0    0  0.35318590001E+02 -0.50807221428E+00 -0.14272763175E+03  0.14703349609E+03  0.10570000000E+00 0. -1.
         13    1    3    3    0    0 -0.35318590001E+02  0.50807221428E+00 -0.45858402824E+02  0.57884930846E+02  0.10570000000E+00 0.  1.
<mgrwt>
<rscale>  0 0.80167757E+02</rscale>
<asrwt>0</asrwt>
<pdfrwt beam="1">  1        2 0.12563380E-02 0.80167757E+02</pdfrwt>
<pdfrwt beam="2">  1       -2 0.30269570E-01 0.80167757E+02</pdfrwt>
<totfact> 0.87088544E+04</totfact>
</mgrwt>
</event>
<event>
 5   1  0.1343823E+00  0.9136712E+02  0.7818608E-02  0.1299574E+00
         -2   -1    0    0    0  501 -0.00000000000E+00  0.00000000000E+00  0.23300831140E+02  0.23300831285E+02  0.26000000000E-02 0. -1.
          2   -1    0    0  501    0  0.00000000000E+00 -0.00000000000E+00 -0.89567089585E+02  0.89567089623E+02  0.26000000000E-02 0.  1.
         23    2    1    2    0    0  0.00000000000E+00  0.00000000000E+00 -0.66266258445E+02  0.11286792091E+03  0.91367119698E+02 0.  0.
        -13    1    3    3    0    0  0.15050317815E+02  0.86999821860E+01 -0.85321326195E+02  0.87074345433E+02  0.10570000000E+00 0.  1.
         13    1    3    3    0    0 -0.15050317815E+02 -0.86999821860E+01  0.19055067750E+02  0.25793575476E+02  0.10570000000E+00 0. -1.
<mgrwt>
<rscale>  0 0.91367120E+02</rscale>
<asrwt>0</asrwt>
<pdfrwt beam="2">  1        2 0.13779552E-01 0.91367120E+02</pdfrwt>
<pdfrwt beam="1">  1       -2 0.35847433E-02 0.91367120E+02</pdfrwt>
<totfact> 0.11800606E+05</totfact>
</mgrwt>
</event>
<event>
 5   1  0.1343823E+00  0.9066302E+02  0.7818608E-02  0.1301254E+00
         -2   -1    0    0    0  501 -0.00000000000E+00  0.00000000000E+00  0.15493436011E+02  0.15493436230E+02  0.26000000000E-02 0. -1.
          2   -1    0    0  501    0  0.00000000000E+00 -0.00000000000E+00 -0.13263332607E+03  0.13263332609E+03  0.26000000000E-02 0.  1.
         23    2    1    2    0    0  0.00000000000E+00  0.00000000000E+00 -0.11713989006E+03  0.14812676232E+03  0.90663023740E+02 0.  0.
        -13    1    3    3    0    0  0.21180931167E+02 -0.31010604828E+02 -0.10005233353E+03  0.10686800304E+03  0.10570000000E+00 0.  1.
         13    1    3    3    0    0 -0.21180931167E+02  0.31010604828E+02 -0.17087556528E+02  0.41258759282E+02  0.10570000000E+00 0. -1.
<mgrwt>
<rscale>  0 0.90663024E+02</rscale>
<asrwt>0</asrwt>
<pdfrwt beam="2">  1        2 0.20405126E-01 0.90663024E+02</pdfrwt>
<pdfrwt beam="1">  1       -2 0.23836056E-02 0.90663024E+02</pdfrwt>
<totfact> 0.13624304E+05</totfact>
</mgrwt>
</event>
<event>
 5   1  0.1343823E+00  0.8916238E+02  0.7818608E-02  0.1304893E+00
         -2   -1    0    0    0  501 -0.00000000000E+00  0.00000000000E+00  0.32806476110E+03  0.32806476111E+03  0.26000000000E-02 0.  1.
          2   -1    0    0  501    0  0.00000000000E+00 -0.00000000000E+00 -0.60582019334E+01  0.60582024913E+01  0.26000000000E-02 0. -1.
         23    2    1    2    0    0  0.00000000000E+00  0.00000000000E+00  0.32200655917E+03  0.33412296360E+03  0.89162383659E+02 0.  0.
        -13    1    3    3    0    0 -0.25414228617E+02  0.30453452078E+02  0.84739736306E+02  0.93563506996E+02  0.10570000000E+00 0. -1.
         13    1    3    3    0    0  0.25414228617E+02 -0.30453452078E+02  0.23726682286E+03  0.24055945661E+03  0.10570000000E+00 0.  1.
<mgrwt>
<rscale>  0 0.89162384E+02</rscale>
<asrwt>0</asrwt>
<pdfrwt beam="2">  1        2 0.93203145E-03 0.89162384E+02</pdfrwt>
<pdfrwt beam="1">  1       -2 0.50471483E-01 0.89162384E+02</pdfrwt>
<totfact> 0.51295792E+04</totfact>
</mgrwt>
</event>
<event>
 5   1  0.1343823E+00  0.9397990E+02  0.7818608E-02  0.1293490E+00
         -2   -1    0    0    0  501 -0.00000000000E+00  0.00000000000E+00  0.83462799884E+01  0.83462803934E+01  0.26000000000E-02 0.  1.
          2   -1    0    0  501    0  0.00000000000E+00 -0.00000000000E+00 -0.26455564329E+03  0.26455564330E+03  0.26000000000E-02 0. -1.
         23    2    1    2    0    0  0.00000000000E+00  0.00000000000E+00 -0.25620936330E+03  0.27290192369E+03  0.93979902711E+02 0.  0.
        -13    1    3    3    0    0  0.28826570902E+02  0.23001307620E+02 -0.43543145372E+02  0.57061791276E+02  0.10570000000E+00 0.  1.
         13    1    3    3    0    0 -0.28826570902E+02 -0.23001307620E+02 -0.21266621793E+03  0.21584013242E+03  0.10570000000E+00 0. -1.
<mgrwt>
<rscale>  0 0.93979903E+02</rscale>
<asrwt>0</asrwt>
<pdfrwt beam="2">  1        2 0.40700862E-01 0.93979903E+02</pdfrwt>
<pdfrwt beam="1">  1       -2 0.12840433E-02 0.93979903E+02</pdfrwt>
<totfact> 0.15806120E+05</totfact>
</mgrwt>
</event>
<event>
 5   1  0.1343823E+00  0.9207552E+02  0.7818608E-02  0.1297902E+00
          2   -1    0    0  501    0  0.00000000000E+00  0.00000000000E+00  0.40433869920E+03  0.40433869921E+03  0.26000000000E-02 0.  1.
         -2   -1    0    0    0  501 -0.00000000000E+00 -0.00000000000E+00 -0.52418311627E+01  0.52418318075E+01  0.26000000000E-02 0. -1.
         23    2    1    2    0    0  0.00000000000E+00  0.00000000000E+00  0.39909686804E+03  0.40958053102E+03  0.92075519603E+02 0.  0.
        -13    1    3    3    0    0  0.40170874591E+01  0.45860150445E+02  0.19769415230E+03  0.20298344617E+03  0.10570000000E+00 0.  1.
         13    1    3    3    0    0 -0.40170874591E+01 -0.45860150445E+02  0.20140271574E+03  0.20659708485E+03  0.10570000000E+00 0. -1.
<mgrwt>
<rscale>  0 0.92075520E+02</rscale>
<asrwt>0</asrwt>
<pdfrwt beam="1">  1        2 0.62205974E-01 0.92075520E+02</pdfrwt>
<pdfrwt beam="2">  1       -2 0.80643535E-03 0.92075520E+02</pdfrwt>
<totfact> 0.19523982E+05</totfact>
</mgrwt>
</event>
<event>
 5   1  0.1343823E+00  0.9084680E+02  0.7818608E-02  0.1300814E+00
         -2   -1    0    0    0  501 -0.00000000000E+00  0.00000000000E+00  0.43278941136E+02  0.43278941215E+02  0.26000000000E-02 0.  1.
          2   -1    0    0  501    0  0.00000000000E+00 -0.00000000000E+00 -0.47674120058E+02  0.47674120129E+02  0.26000000000E-02 0. -1.
         23    2    1    2    0    0  0.00000000000E+00  0.00000000000E+00 -0.43951789219E+01  0.90953061344E+02  0.90846803852E+02 0.  0.
        -13    1    3    3    0    0 -0.11727442876E+02  0.97459176622E+01 -0.45034998124E+02  0.47546588269E+02  0.10570000000E+00 0. -1.
         13    1    3    3    0    0  0.11727442876E+02 -0.97459176622E+01  0.40639819203E+02  0.43406473075E+02  0.10570000000E+00 0.  1.
<mgrwt>
<rscale>  0 0.90846804E+02</rscale>
<asrwt>0</asrwt>
<pdfrwt beam="2">  1        2 0.73344800E-02 0.90846804E+02</pdfrwt>
<pdfrwt beam="1">  1       -2 0.66582987E-02 0.90846804E+02</pdfrwt>
<totfact> 0.10086939E+05</totfact>
</mgrwt>
</event>
<event>
 5   1  0.1343823E+00  0.9050599E+02  0.7818608E-02  0.1301631E+00
          2   -1    0    0  501    0  0.00000000000E+00  0.00000000000E+00  0.92888602412E+01  0.92888606051E+01  0.26000000000E-02 0. -1.
         -2   -1    0    0    0  501 -0.00000000000E+00 -0.00000000000E+00 -0.22046121615E+03  0.22046121617E+03  0.26000000000E-02 0.  1.
         23    2    1    2    0    0  0.00000000000E+00  0.00000000000E+00 -0.21117235591E+03  0.22975007677E+03  0.90505988067E+02 0.  0.
        -13    1    3    3    0    0 -0.26128716177E+02  0.36695341285E+02 -0.11652370125E+03  0.12492814737E+03  0.10570000000E+00 0. -1.
         13    1    3    3    0    0  0.26128716177E+02 -0.36695341285E+02 -0.94648654666E+02  0.10482192940E+03  0.10570000000E+00 0.  1.
<mgrwt>
<rscale>  0 0.90505988E+02</rscale>
<asrwt>0</asrwt>
<pdfrwt beam="1">  1        2 0.14290556E-02 0.90505988E+02</pdfrwt>
<pdfrwt beam="2">  1       -2 0.33917106E-01 0.90505988E+02</pdfrwt>
<totfact> 0.60805193E+04</totfact>
</mgrwt>
</event>
<event>
 5   1  0.1343823E+00  0.9110610E+02  0.7818608E-02  0.1300195E+00
         -2   -1    0    0    0  501 -0.00000000000E+00  0.00000000000E+00  0.80157389569E+02  0.80157389611E+02  0.26000000000E-02 0.  1.
          2   -1    0    0  501    0  0.00000000000E+00 -0.00000000000E+00 -0.25887576198E+02  0.25887576329E+02  0.26000000000E-02 0. -1.
         23    2    1    2    0    0  0.00000000000E+00  0.00000000000E+00  0.54269813371E+02  0.10604496594E+03  0.91106103845E+02 0.  0.
        -13    1    3    3    0    0 -0.24910668784E+02  0.32468093728E+02  0.50424556213E+02  0.64941247073E+02  0.10570000000E+00 0.  1.
         13    1    3    3    0    0  0.24910668784E+02 -0.32468093728E+02  0.38452571578E+01  0.41103718867E+02  0.10570000000E+00 0. -1.
<mgrwt>
<rscale>  0 0.91106104E+02</rscale>
<asrwt>0</asrwt>
<pdfrwt beam="2">  1        2 0.39827041E-02 0.91106104E+02</pdfrwt>
<pdfrwt beam="1">  1       -2 0.12331906E-01 0.91106104E+02</pdfrwt>
<totfact> 0.85195024E+04</totfact>
</mgrwt>
</event>
<event>
 5   1  0.1343823E+00  0.8636740E+02  0.7818608E-02  0.1311895E+00
         -2   -1    0    0    0  501 -0.00000000000E+00  0.00000000000E+00  0.13028297201E+03  0.13028297204E+03  0.26000000000E-02 0.  1.
          2   -1    0    0  501    0  0.00000000000E+00 -0.00000000000E+00 -0.14313704618E+02  0.14313704854E+02  0.26000000000E-02 0. -1.
         23    2    1    2    0    0  0.00000000000E+00  0.00000000000E+00  0.11596926739E+03  0.14459667689E+03  0.86367401190E+02 0.  0.
        -13    1    3    3    0    0  0.20495569605E+02 -0.11377499837E+02  0.11870322503E+03  0.12099579613E+03  0.10570000000E+00 0.  1.
         13    1    3    3    0    0 -0.20495569605E+02  0.11377499837E+02 -0.27339576353E+01  0.23600880763E+02  0.10570000000E+00 0. -1.
<mgrwt>
<rscale>  0 0.86367401E+02</rscale>
<asrwt>0</asrwt>
<pdfrwt beam="2">  1        2 0.22021084E-02 0.86367401E+02</pdfrwt>
<pdfrwt beam="1">  1       -2 0.20043534E-01 0.86367401E+02</pdfrwt>
<totfact> 0.84114934E+04</totfact>
</mgrwt>
</event>
<event>
 5   1  0.1343823E+00  0.9018622E+02  0.7818608E-02  0.1302401E+00
         -2   -1    0    0    0  501 -0.00000000000E+00  0.00000000000E+00  0.15908259449E+02  0.15908259661E+02  0.26000000000E-02 0.  1.
          2   -1    0    0  501    0  0.00000000000E+00 -0.00000000000E+00 -0.12781967276E+03  0.12781967279E+03  0.26000000000E-02 0. -1.
         23    2    1    2    0    0  0.00000000000E+00  0.00000000000E+00 -0.11191141331E+03  0.14372793245E+03  0.90186219217E+02 0.  0.
        -13    1    3    3    0    0 -0.19704353155E+02 -0.38640378887E+02 -0.36305117818E+02  0.56563355328E+02  0.10570000000E+00 0.  1.
         13    1    3    3    0    0  0.19704353155E+02  0.38640378887E+02 -0.75606295497E+02  0.87164577123E+02  0.10570000000E+00 0. -1.
<mgrwt>
<rscale>  0 0.90186219E+02</rscale>
<asrwt>0</asrwt>
<pdfrwt beam="2">  1        2 0.19664564E-01 0.90186219E+02</pdfrwt>
<pdfrwt beam="1">  1       -2 0.24474246E-02 0.90186219E+02</pdfrwt>
<totfact> 0.13654863E+05</totfact>
</mgrwt>
</event>
<event>
 5   1  0.1343823E+00  0.9788598E+02  0.7818608E-02  0.1284805E+00
          2   -1    0    0  501    0  0.00000000000E+00  0.00000000000E+00  0.51379846842E+02  0.51379846908E+02  0.26000000000E-02 0. -1.
         -2   -1    0    0    0  501 -0.00000000000E+00 -0.00000000000E+00 -0.46621709721E+02  0.46621709793E+02  0.26000000000E-02 0.  1.
         23    2    1    2    0    0  0.00000000000E+00  0.00000000000E+00  0.47581371213E+01  0.98001556701E+02  0.97885980850E+02 0.  0.
        -13    1    3    3    0    0 -0.33483514556E+02 -0.10308907917E+02 -0.31837090845E+02  0.47339527410E+02  0.10570000000E+00 0.  1.
         13    1    3    3    0    0  0.33483514556E+02  0.10308907917E+02  0.36595227966E+02  0.50662029291E+02  0.10570000000E+00 0. -1.
<mgrwt>
<rscale>  0 0.97885981E+02</rscale>
<asrwt>0</asrwt>
<pdfrwt beam="1">  1        2 0.79045918E-02 0.97885981E+02</pdfrwt>
<pdfrwt beam="2">  1       -2 0.71725707E-02 0.97885981E+02</pdfrwt>
<totfact> 0.83035608E+04</totfact>
</mgrwt>
</event>
<event>
 5   1  0.1343823E+00  0.9118775E+02  0.7818608E-02  0.1300001E+00
         -2   -1    0    0    0  501 -0.00000000000E+00  0.00000000000E+00  0.16777619785E+03  0.16777619787E+03  0.26000000000E-02 0.  1.
          2   -1    0    0  501    0  0.00000000000E+00 -0.00000000000E+00 -0.12390324143E+02  0.12390324416E+02  0.26000000000E-02 0. -1.
         23    2    1    2    0    0  0.00000000000E+00  0.00000000000E+00  0.15538587371E+03  0.18016652228E+03  0.91187751398E+02 0.  0.
        -13    1    3    3    0    0  0.33147067562E+02  0.55801317063E+01  0.13855594161E+03  0.14257498408E+03  0.10570000000E+00 0.  1.
         13    1    3    3    0    0 -0.33147067562E+02 -0.55801317063E+01  0.16829932099E+02  0.37591538207E+02  0.10570000000E+00 0. -1.
<mgrwt>
<rscale>  0 0.91187751E+02</rscale>
<asrwt>0</asrwt>
<pdfrwt beam="2">  1        2 0.19062039E-02 0.91187751E+02</pdfrwt>
<pdfrwt beam="1">  1       -2 0.25811721E-01 0.91187751E+02</pdfrwt>
<totfact> 0.66956139E+04</totfact>
</mgrwt>
</event>
<event>
 5   1  0.1343823E+00  0.8594301E+02  0.7818608E-02  0.1312985E+00
          2   -1    0    0  501    0  0.00000000000E+00  0.00000000000E+00  0.56348708866E+02  0.56348708926E+02  0.26000000000E-02 0. -1.
         -2   -1    0    0    0  501 -0.00000000000E+00 -0.00000000000E+00 -0.32770054868E+02  0.32770054971E+02  0.26000000000E-02 0.  1.
         23    2    1    2    0    0  0.00000000000E+00  0.00000000000E+00  0.23578653998E+02  0.89118763897E+02  0.85943011084E+02 0.  0.
        -13    1    3    3    0    0 -0.22081423678E+02 -0.74692213986E+01 -0.25643924757E+02  0.34655455406E+02  0.10570000000E+00 0.  1.
         13    1    3    3    0    0  0.22081423678E+02  0.74692213986E+01  0.49222578755E+02  0.54463308490E+02  0.10570000000E+00 0. -1.
<mgrwt>
<rscale>  0 0.85943011E+02</rscale>
<asrwt>0</asrwt>
<pdfrwt beam="1">  1        2 0.86690321E-02 0.85943011E+02</pdfrwt>
<pdfrwt beam="2">  1       -2 0.50415469E-02 0.85943011E+02</pdfrwt>
<totfact> 0.12318162E+05</totfact>
</mgrwt>
</event>
<event>
 5   1  0.1343823E+00  0.9156848E+02  0.7818608E-02  0.1299097E+00
          2   -1    0    0  501    0  0.00000000000E+00  0.00000000000E+00  0.89845210369E+02  0.89845210406E+02  0.26000000000E-02 0. -1.
         -2   -1    0    0    0  501 -0.00000000000E+00 -0.00000000000E+00 -0.23331201706E+02  0.23331201851E+02  0.26000000000E-02 0.  1.
         23    2    1    2    0    0  0.00000000000E+00  0.00000000000E+00  0.66514008663E+02  0.11317641226E+03  0.91568482258E+02 0.  0.
        -13    1    3    3    0    0 -0.21933360551E+02  0.30799130911E+02  0.13475988538E+01  0.37834983350E+02  0.10570000000E+00 0.  1.
         13    1    3    3    0    0  0.21933360551E+02 -0.30799130911E+02  0.65166409809E+02  0.75341428907E+02  0.10570000000E+00 0. -1.
<mgrwt>
<rscale>  0 0.91568482E+02</rscale>
<asrwt>0</asrwt>
<pdfrwt beam="1">  1        2 0.13822340E-01 0.91568482E+02</pdfrwt>
<pdfrwt beam="2">  1       -2 0.35894156E-02 0.91568482E+02</pdfrwt>
<totfact> 0.11739647E+05</totfact>
</mgrwt>
</event>
<event>
 5   1  0.1343823E+00  0.9285565E+02  0.7818608E-02  0.1296080E+00
          2   -1    0    0  501    0  0.00000000000E+00  0.00000000000E+00  0.17606096095E+02  0.17606096287E+02  0.26000000000E-02 0. -1.
         -2   -1    0    0    0  501 -0.00000000000E+00 -0.00000000000E+00 -0.12243161616E+03  0.12243161618E+03  0.26000000000E-02 0.  1.
         23    2    1    2    0    0  0.00000000000E+00  0.00000000000E+00 -0.10482552006E+03  0.14003771247E+03  0.92855647422E+02 0.  0.
        -13    1    3    3    0    0  0.14562305836E+02 -0.31625382762E+02 -0.98732167678E+02  0.10469134488E+03  0.10570000000E+00 0.  1.
         13    1    3    3    0    0 -0.14562305836E+02  0.31625382762E+02 -0.60933523832E+01  0.35346367591E+02  0.10570000000E+00 0. -1.
<mgrwt>
<rscale>  0 0.92855647E+02</rscale>
<asrwt>0</asrwt>
<pdfrwt beam="1">  1        2 0.27086303E-02 0.92855647E+02</pdfrwt>
<pdfrwt beam="2">  1       -2 0.18835633E-01 0.92855647E+02</pdfrwt>
<totfact> 0.71567256E+04</totfact>
</mgrwt>
</event>
<event>
 5   1  0.1343823E+00  0.8969129E+02  0.7818608E-02  0.1303601E+00
          2   -1    0    0  501    0  0.00000000000E+00  0.00000000000E+00  0.14903540968E+03  0.14903540970E+03  0.26000000000E-02 0.  1.
         -2   -1    0    0    0  501 -0.00000000000E+00 -0.00000000000E+00 -0.13494322240E+02  0.13494322491E+02  0.26000000000E-02 0. -1.
         23    2    1    2    0    0  0.00000000000E+00  0.00000000000E+00  0.13554108744E+03  0.16252973219E+03  0.89691289780E+02 0.  0.
        -13    1    3    3    0    0  0.76153334857E+01  0.24273354717E+02  0.84701187882E+00  0.25454226661E+02  0.10570000000E+00 0. -1.
         13    1    3    3    0    0 -0.76153334857E+01 -0.24273354717E+02  0.13469407556E+03  0.13707550553E+03  0.10570000000E+00 0.  1.
<mgrwt>
<rscale>  0 0.89691290E+02</rscale>
<asrwt>0</asrwt>
<pdfrwt beam="1">  1        2 0.22928523E-01 0.89691290E+02</pdfrwt>
<pdfrwt beam="2">  1       -2 0.20760497E-02 0.89691290E+02</pdfrwt>
<totfact> 0.14585404E+05</totfact>
</mgrwt>
</event>
<event>
 5   1  0.1343823E+00  0.9256224E+02  0.7818608E-02  0.1296763E+00
          2   -1    0    0  501    0  0.00000000000E+00  0.00000000000E+00  0.17743349772E+03  0.17743349774E+03  0.26000000000E-02 0. -1.
         -2   -1    0    0    0  501 -0.00000000000E+00 -0.00000000000E+00 -0.12071801620E+02  0.12071801900E+02  0.26000000000E-02 0.  1.
         23    2    1    2    0    0  0.00000000000E+00  0.00000000000E+00  0.16536169610E+03  0.18950529964E+03  0.92562238813E+02 0.  0.
        -13    1    3    3    0    0  0.37705669945E+02 -0.11495483267E+02  0.13232875827E+03  0.13807525166E+03  0.10570000000E+00 0. -1.
         13    1    3    3    0    0 -0.37705669945E+02  0.11495483267E+02  0.33032937830E+02  0.51430047985E+02  0.10570000000E+00 0.  1.
<mgrwt>
<rscale>  0 0.92562239E+02</rscale>
<asrwt>0</asrwt>
<pdfrwt beam="1">  1        2 0.27297459E-01 0.92562239E+02</pdfrwt>
<pdfrwt beam="2">  1       -2 0.18572004E-02 0.92562239E+02</pdfrwt>
<totfact> 0.14226569E+05</totfact>
</mgrwt>
</event>
<event>
 5   1  0.1343823E+00  0.9339572E+02  0.7818608E-02  0.1294831E+00
          2   -1    0    0  501    0  0.00000000000E+00  0.00000000000E+00  0.50639803282E+02  0.50639803348E+02  0.26000000000E-02 0. -1.
         -2   -1    0    0    0  501 -0.00000000000E+00 -0.00000000000E+00 -0.43062765037E+02  0.43062765116E+02  0.26000000000E-02 0.  1.
         23    2    1    2    0    0  0.00000000000E+00  0.00000000000E+00  0.75770382443E+01  0.93702568464E+02  0.93395716327E+02 0.  0.
        -13    1    3    3    0    0  0.10625888324E+02 -0.31690430877E+02  0.36506794289E+02  0.49496970752E+02  0.10570000000E+00 0. -1.
         13    1    3    3    0    0 -0.10625888324E+02  0.31690430877E+02 -0.28929756044E+02  0.44205597713E+02  0.10570000000E+00 0.  1.
<mgrwt>
<rscale>  0 0.93395716E+02</rscale>
<asrwt>0</asrwt>
<pdfrwt beam="1">  1        2 0.77907390E-02 0.93395716E+02</pdfrwt>
<pdfrwt beam="2">  1       -2 0.66250408E-02 0.93395716E+02</pdfrwt>
<totfact> 0.94675960E+04</totfact>
</mgrwt>
</event>
<event>
 5   1  0.1343823E+00  0.9192949E+02  0.7818608E-02  0.1298245E+00
         -2   -1    0    0    0  501 -0.00000000000E+00  0.00000000000E+00  0.21637175688E+02  0.21637175845E+02  0.26000000000E-02 0.  1.
          2   -1    0    0  501    0  0.00000000000E+00 -0.00000000000E+00 -0.97644804003E+02  0.97644804037E+02  0.26000000000E-02 0. -1.
         23    2    1    2    0    0  0.00000000000E+00  0.00000000000E+00 -0.76007628314E+02  0.11928197988E+03  0.91929490168E+02 0.  0.
        -13    1    3    3    0    0 -0.42814816431E+02 -0.16247699402E+02 -0.32870682792E+02  0.56370109115E+02  0.10570000000E+00 0. -1.
         13    1    3    3    0    0  0.42814816431E+02  0.16247699402E+02 -0.43136945522E+02  0.62911870767E+02  0.10570000000E+00 0.  1.
<mgrwt>
<rscale>  0 0.91929490E+02</rscale>
<asrwt>0</asrwt>
<pdfrwt beam="2">  1        2 0.15022277E-01 0.91929490E+02</pdfrwt>
<pdfrwt beam="1">  1       -2 0.33287963E-02 0.91929490E+02</pdfrwt>
<totfact> 0.11905985E+05</totfact>
</mgrwt>
</event>
<event>
 5   1  0.1343823E+00  0.9290956E+02  0.7818608E-02  0.1295955E+00
         -2   -1    0    0    0  501 -0.00000000000E+00  0.00000000000E+00  0.11349420116E+02  0.11349420413E+02  0.26000000000E-02 0.  1.
          2   -1    0    0  501    0  0.00000000000E+00 -0.00000000000E+00 -0.19014599352E+03  0.19014599354E+03  0.26000000000E-02 0. -1.
         23    2    1    2    0    0  0.00000000000E+00  0.00000000000E+00 -0.17879657341E+03  0.20149541396E+03  0.92909564537E+02 0.  0.
        -13    1    3    3    0    0 -0.36152815307E+02  0.26529176023E+02 -0.11571168384E+03  0.12409685002E+03  0.10570000000E+00 0. -1.
         13    1    3    3    0    0  0.36152815307E+02 -0.26529176023E+02 -0.63084889570E+02  0.77398563938E+02  0.10570000000E+00 0.  1.
<mgrwt>
<rscale>  0 0.92909565E+02</rscale>
<asrwt>0</asrwt>
<pdfrwt beam="2">  1        2 0.29253227E-01 0.92909565E+02</pdfrwt>
<pdfrwt beam="1">  1       -2 0.17460648E-02 0.92909565E+02</pdfrwt>
<totfact> 0.14436008E+05</totfact>
</mgrwt>
</event>
<event>
 5   1  0.1343823E+00  0.8207995E+02  0.7818608E-02  0.1323250E+00
          2   -1    0    0  501    0  0.00000000000E+00  0.00000000000E+00  0.12318009602E+03  0.12318009605E+03  0.26000000000E-02 0. -1.
         -2   -1    0    0    0  501 -0.00000000000E+00 -0.00000000000E+00 -0.13673309381E+02  0.13673309628E+02  0.26000000000E-02 0.  1.
         23    2    1    2    0    0  0.00000000000E+00  0.00000000000E+00  0.10950678664E+03  0.13685340568E+03  0.82079950811E+02 0.  0.
        -13    1    3    3    0    0 -0.28916229522E+00 -0.20258200795E+02  0.11426031104E+03  0.11604269976E+03  0.10570000000E+00 0. -1.
         13    1    3    3    0    0  0.28916229522E+00  0.20258200795E+02 -0.47535244015E+01  0.20810705923E+02  0.10570000000E+00 0.  1.
<mgrwt>
<rscale>  0 0.82079951E+02</rscale>
<asrwt>0</asrwt>
<pdfrwt beam="1">  1        2 0.18950785E-01 0.82079951E+02</pdfrwt>
<pdfrwt beam="2">  1       -2 0.21035860E-02 0.82079951E+02</pdfrwt>
<totfact> 0.17412976E+05</totfact>
</mgrwt>
</event>
<event>
 5   1  0.1343823E+00  0.8934836E+02  0.7818608E-02  0.1304437E+00
          2   -1    0    0  501    0  0.00000000000E+00  0.00000000000E+00  0.10780743858E+02  0.10780744172E+02  0.26000000000E-02 0. -1.
         -2   -1    0    0    0  501 -0.00000000000E+00 -0.00000000000E+00 -0.18512473939E+03  0.18512473941E+03  0.26000000000E-02 0.  1.
         23    2    1    2    0    0  0.00000000000E+00  0.00000000000E+00 -0.17434399553E+03  0.19590548358E+03  0.89348361590E+02 0.  0.
        -13    1    3    3    0    0  0.32452623500E+02  0.24732091184E+02 -0.47285774257E+02  0.62456422615E+02  0.10570000000E+00 0.  1.
         13    1    3    3    0    0 -0.32452623500E+02 -0.24732091184E+02 -0.12705822128E+03  0.13344906097E+03  0.10570000000E+00 0. -1.
<mgrwt>
<rscale>  0 0.89348362E+02</rscale>
<asrwt>0</asrwt>
<pdfrwt beam="1">  1        2 0.16585761E-02 0.89348362E+02</pdfrwt>
<pdfrwt beam="2">  1       -2 0.28480727E-01 0.89348362E+02</pdfrwt>
<totfact> 0.67797026E+04</totfact>
</mgrwt>
</event>
<event>
 5   1  0.1343823E+00  0.9512819E+02  0.7818608E-02  0.1290888E+00
         -2   -1    0    0    0  501 -0.00000000000E+00  0.00000000000E+00  0.13136016725E+02  0.13136016982E+02  0.26000000000E-02 0.  1.
          2   -1    0    0  501    0  0.00000000000E+00 -0.00000000000E+00 -0.17222444235E+03  0.17222444237E+03  0.26000000000E-02 0. -1.
         23    2    1    2    0    0  0.00000000000E+00  0.00000000000E+00 -0.15908842562E+03  0.18536045935E+03  0.95128191000E+02 0.  0.
        -13    1    3    3    0    0 -0.65075917704E+01  0.42580621251E+02 -0.40240117676E+02  0.58946893895E+02  0.10570000000E+00 0.  1.
         13    1    3    3    0    0  0.65075917704E+01 -0.42580621251E+02 -0.11884830794E+03  0.12641356545E+03  0.10570000000E+00 0. -1.
<mgrwt>
<rscale>  0 0.95128191E+02</rscale>
<asrwt>0</asrwt>
<pdfrwt beam="2">  1        2 0.26496066E-01 0.95128191E+02</pdfrwt>
<pdfrwt beam="1">  1       -2 0.20209258E-02 0.95128191E+02</pdfrwt>
<totfact> 0.13070595E+05</totfact>
</mgrwt>
</event>
<event>
 5   1  0.1343823E+00  0.9092673E+02  0.7818608E-02  0.1300623E+00
          2   -1    0    0  501    0  0.00000000000E+00  0.00000000000E+00  0.22388067571E+03  0.22388067573E+03  0.26000000000E-02 0. -1.
         -2   -1    0    0    0  501 -0.00000000000E+00 -0.00000000000E+00 -0.92322277474E+01  0.92322281135E+01  0.26000000000E-02 0.  1.
         23    2    1    2    0    0  0.00000000000E+00  0.00000000000E+00  0.21464844797E+03  0.23311290384E+03  0.90926727223E+02 0.  0.
        -13    1    3    3    0    0 -0.16857839787E+02  0.29302859354E+02  0.29390524259E+02  0.44795741063E+02  0.10570000000E+00 0. -1.
         13    1    3    3    0    0  0.16857839787E+02 -0.29302859354E+02  0.18525792371E+03  0.18831716278E+03  0.10570000000E+00 0.  1.
<mgrwt>
<rscale>  0 0.90926727E+02</rscale>
<asrwt>0</asrwt>
<pdfrwt beam="1">  1        2 0.34443178E-01 0.90926727E+02</pdfrwt>
<pdfrwt beam="2">  1       -2 0.14203429E-02 0.90926727E+02</pdfrwt>
<totfact> 0.16236297E+05</totfact>
</mgrwt>
</event>
<event>
 5   1  0.1343823E+00  0.9315207E+02  0.7818608E-02  0.1295393E+00
         -2   -1    0    0    0  501 -0.00000000000E+00  0.00000000000E+00  0.58509536563E+02  0.58509536621E+02  0.26000000000E-02 0.  1.
          2   -1    0    0  501    0  0.00000000000E+00 -0.00000000000E+00 -0.37076465415E+02  0.37076465506E+02  0.26000000000E-02 0. -1.
         23    2    1    2    0    0  0.00000000000E+00  0.00000000000E+00  0.21433071148E+02  0.95586002127E+02  0.93152065269E+02 0.  0.
        -13    1    3    3    0    0 -0.26914399302E+02  0.19298453730E+02 -0.22888205120E+02  0.40257872675E+02  0.10570000000E+00 0. -1.
         13    1    3    3    0    0  0.26914399302E+02 -0.19298453730E+02  0.44321276268E+02  0.55328129452E+02  0.10570000000E+00 0.  1.
<mgrwt>
<rscale>  0 0.93152065E+02</rscale>
<asrwt>0</asrwt>
<pdfrwt beam="2">  1        2 0.57040717E-02 0.93152065E+02</pdfrwt>
<pdfrwt beam="1">  1       -2 0.90014671E-02 0.93152065E+02</pdfrwt>
<totfact> 0.87849823E+04</totfact>
</mgrwt>
</event>
<event>
 5   1  0.1343823E+00  0.8971868E+02  0.7818608E-02  0.1303534E+00
         -2   -1    0    0    0  501 -0.00000000000E+00  0.00000000000E+00  0.46544455349E+02  0.46544455422E+02  0.26000000000E-02 0.  1.
          2   -1    0    0  501    0  0.00000000000E+00 -0.00000000000E+00 -0.43235237945E+02  0.43235238023E+02  0.26000000000E-02 0. -1.
         23    2    1    2    0    0  0.00000000000E+00  0.00000000000E+00  0.33092174042E+01  0.89779693445E+02  0.89718684984E+02 0.  0.
        -13    1    3    3    0    0  0.41575034887E+02  0.15420829527E+02 -0.51370475869E+01  0.44639510969E+02  0.10570000000E+00 0. -1.
         13    1    3    3    0    0 -0.41575034887E+02 -0.15420829527E+02  0.84462649911E+01  0.45140182476E+02  0.10570000000E+00 0.  1.
<mgrwt>
<rscale>  0 0.89718685E+02</rscale>
<asrwt>0</asrwt>
<pdfrwt beam="2">  1        2 0.66515751E-02 0.89718685E+02</pdfrwt>
<pdfrwt beam="1">  1       -2 0.71606854E-02 0.89718685E+02</pdfrwt>
<totfact> 0.10194269E+05</totfact>
</mgrwt>
</event>
<event>
 5   1  0.1343823E+00  0.1109391E+03  0.7818608E-02  0.1258841E+00
          2   -1    0    0  501    0  0.00000000000E+00  0.00000000000E+00  0.57316980697E+01  0.57316986594E+01  0.26000000000E-02 0. -1.
         -2   -1    0    0    0  501 -0.00000000000E+00 -0.00000000000E+00 -0.53681650211E+03  0.53681650212E+03  0.26000000000E-02 0.  1.
         23    2    1    2    0    0  0.00000000000E+00  0.00000000000E+00 -0.53108480405E+03  0.54254820078E+03  0.11093908726E+03 0.  0.
        -13    1    3    3    0    0 -0.30086609256E+02 -0.45104320981E+02 -0.20824720014E+03  0.21518947782E+03  0.10570000000E+00 0.  1.
         13    1    3    3    0    0  0.30086609256E+02  0.45104320981E+02 -0.32283760391E+03  0.32735872296E+03  0.10570000000E+00 0. -1.
<mgrwt>
<rscale>  0 0.11093909E+03</rscale>
<asrwt>0</asrwt>
<pdfrwt beam="1">  1        2 0.88180017E-03 0.11093909E+03</pdfrwt>
<pdfrwt beam="2">  1       -2 0.82587115E-01 0.11093909E+03</pdfrwt>
<totfact> 0.20572416E+04</totfact>
</mgrwt>
</event>
<event>
 5   1  0.1343823E+00  0.9006913E+02  0.7818608E-02  0.1302684E+00
         -2   -1    0    0    0  501 -0.00000000000E+00  0.00000000000E+00  0.88487419605E+01  0.88487423425E+01  0.26000000000E-02 0.  1.
          2   -1    0    0  501    0  0.00000000000E+00 -0.00000000000E+00 -0.22919778813E+03  0.22919778815E+03  0.26000000000E-02 0. -1.
         23    2    1    2    0    0  0.00000000000E+00  0.00000000000E+00 -0.22034904617E+03  0.23804653049E+03  0.90069131945E+02 0.  0.
        -13    1    3    3    0    0 -0.28277618290E+02  0.32324001018E+02 -0.14598953116E+03  0.15217561933E+03  0.10570000000E+00 0. -1.
         13    1    3    3    0    0  0.28277618290E+02 -0.32324001018E+02 -0.74359515010E+02  0.85870911157E+02  0.10570000000E+00 0.  1.
<mgrwt>
<rscale>  0 0.90069132E+02</rscale>
<asrwt>0</asrwt>
<pdfrwt beam="2">  1        2 0.35261194E-01 0.90069132E+02</pdfrwt>
<pdfrwt beam="1">  1       -2 0.13613451E-02 0.90069132E+02</pdfrwt>
<totfact> 0.16797896E+05</totfact>
</mgrwt>
</event>
<event>
 5   1  0.1343823E+00  0.8671443E+02  0.7818608E-02  0.1311009E+00
          2   -1    0    0  501    0  0.00000000000E+00  0.00000000000E+00  0.20411428239E+03  0.20411428240E+03  0.26000000000E-02 0. -1.
         -2   -1    0    0    0  501 -0.00000000000E+00 -0.00000000000E+00 -0.92097812718E+01  0.92097816388E+01  0.26000000000E-02 0.  1.
         23    2    1    2    0    0  0.00000000000E+00  0.00000000000E+00  0.19490450112E+03  0.21332406404E+03  0.86714426393E+02 0.  0.
        -13    1    3    3    0    0  0.38628323322E+02  0.16562322217E+02  0.71257481026E+02  0.82729061729E+02  0.10570000000E+00 0. -1.
         13    1    3    3    0    0 -0.38628323322E+02 -0.16562322217E+02  0.12364702009E+03  0.13059500231E+03  0.10570000000E+00 0.  1.
<mgrwt>
<rscale>  0 0.86714426E+02</rscale>
<asrwt>0</asrwt>
<pdfrwt beam="1">  1        2 0.31402191E-01 0.86714426E+02</pdfrwt>
<pdfrwt beam="2">  1       -2 0.14168897E-02 0.86714426E+02</pdfrwt>
<totfact> 0.17826634E+05</totfact>
</mgrwt>
</event>
<event>
 5   1  0.1343823E+00  0.8958990E+02  0.7818608E-02  0.1303848E+00
          2   -1    0    0  501    0  0.00000000000E+00  0.00000000000E+00  0.26174838367E+03  0.26174838369E+03  0.26000000000E-02 0.  1.
         -2   -1    0    0    0  501 -0.00000000000E+00 -0.00000000000E+00 -0.76660929888E+01  0.76660934297E+01  0.26000000000E-02 0. -1.
         23    2    1    2    0    0  0.00000000000E+00  0.00000000000E+00  0.25408229068E+03  0.26941447712E+03  0.89589899209E+02 0.  0.
        -13    1    3    3    0    0 -0.35977644814E+01 -0.43130977269E+02  0.16176759552E+03  0.16745743113E+03  0.10570000000E+00 0.  1.
         13    1    3    3    0    0  0.35977644814E+01  0.43130977269E+02  0.92314695166E+02  0.10195704598E+03  0.10570000000E+00 0. -1.
<mgrwt>
<rscale>  0 0.89589899E+02</rscale>
<asrwt>0</asrwt>
<pdfrwt beam="1">  1        2 0.40268977E-01 0.89589899E+02</pdfrwt>
<pdfrwt beam="2">  1       -2 0.11793991E-02 0.89589899E+02</pdfrwt>
<totfact> 0.17894737E+05</totfact>
</mgrwt>
</event>
<event>
 5   1  0.1343823E+00  0.9317228E+02  0.7818608E-02  0.1295346E+00
          2   -1    0    0  501    0  0.00000000000E+00  0.00000000000E+00  0.18570815178E+02  0.18570815360E+02  0.26000000000E-02 0. -1.
         -2   -1    0    0    0  501 -0.00000000000E+00 -0.00000000000E+00 -0.11686447398E+03  0.11686447401E+03  0.26000000000E-02 0.  1.
         23    2    1    2    0    0  0.00000000000E+00  0.00000000000E+00 -0.98293658806E+02  0.13543528937E+03  0.93172282605E+02 0.  0.
        -13    1    3    3    0    0  0.18324338951E+02 -0.25570691273E+02 -0.99092677150E+02  0.10396639595E+03  0.10570000000E+00 0.  1.
         13    1    3    3    0    0 -0.18324338951E+02  0.25570691273E+02  0.79901834451E+00  0.31468893419E+02  0.10570000000E+00 0. -1.
<mgrwt>
<rscale>  0 0.93172283E+02</rscale>
<asrwt>0</asrwt>
<pdfrwt beam="1">  1        2 0.28570486E-02 0.93172283E+02</pdfrwt>
<pdfrwt beam="2">  1       -2 0.17979149E-01 0.93172283E+02</pdfrwt>
<totfact> 0.72040108E+04</totfact>
</mgrwt>
</event>
<event>
 5   1  0.1343823E+00  0.9882674E+02  0.7818608E-02  0.1282783E+00
         -2   -1    0    0    0  501 -0.00000000000E+00  0.00000000000E+00  0.68373743878E+02  0.68373743927E+02  0.26000000000E-02 0.  1.
          2   -1    0    0  501    0  0.00000000000E+00 -0.00000000000E+00 -0.35710803312E+02  0.35710803407E+02  0.26000000000E-02 0. -1.
         23    2    1    2    0    0  0.00000000000E+00  0.00000000000E+00  0.32662940566E+02  0.10408454733E+03  0.98826743887E+02 0.  0.
        -13    1    3    3    0    0 -0.25825594967E+02  0.14861602405E+02 -0.25184494949E+02  0.39014081302E+02  0.10570000000E+00 0. -1.
         13    1    3    3    0    0  0.25825594967E+02 -0.14861602405E+02  0.57847435515E+02  0.65070466032E+02  0.10570000000E+00 0.  1.
<mgrwt>
<rscale>  0 0.98826744E+02</rscale>
<asrwt>0</asrwt>
<pdfrwt beam="2">  1        2 0.54939698E-02 0.98826744E+02</pdfrwt>
<pdfrwt beam="1">  1       -2 0.10519037E-01 0.98826744E+02</pdfrwt>
<totfact> 0.73009687E+04</totfact>
</mgrwt>
</event>
<event>
 5   1  0.1343823E+00  0.8988879E+02  0.7818608E-02  0.1303121E+00
         -2   -1    0    0    0  501 -0.00000000000E+00  0.00000000000E+00  0.19228977285E+03  0.19228977286E+03  0.26000000000E-02 0.  1.
          2   -1    0    0  501    0  0.00000000000E+00 -0.00000000000E+00 -0.10504971225E+02  0.10504971546E+02  0.26000000000E-02 0. -1.
         23    2    1    2    0    0  0.00000000000E+00  0.00000000000E+00  0.18178480162E+03  0.20279474441E+03  0.89888788288E+02 0.  0.
        -13    1    3    3    0    0 -0.22345166173E+02 -0.38268103841E+02  0.10781033968E+03  0.11656257863E+03  0.10570000000E+00 0. -1.
         13    1    3    3    0    0  0.22345166173E+02  0.38268103841E+02  0.73974461945E+02  0.86232165782E+02  0.10570000000E+00 0.  1.
<mgrwt>
<rscale>  0 0.89888788E+02</rscale>
<asrwt>0</asrwt>
<pdfrwt beam="2">  1        2 0.16161495E-02 0.89888788E+02</pdfrwt>
<pdfrwt beam="1">  1       -2 0.29583041E-01 0.89888788E+02</pdfrwt>
<totfact> 0.65716373E+04</totfact>
</mgrwt>
</event>
<event>
 5   1  0.1343823E+00  0.9158809E+02  0.7818608E-02  0.1299051E+00
          2   -1    0    0  501    0  0.00000000000E+00  0.00000000000E+00  0.39119045977E+02  0.39119046064E+02  0.26000000000E-02 0. -1.
         -2   -1    0    0    0  501 -0.00000000000E+00 -0.00000000000E+00 -0.53608019120E+02  0.53608019183E+02  0.26000000000E-02 0.  1.
         23    2    1    2    0    0  0.00000000000E+00  0.00000000000E+00 -0.14488973142E+02  0.92727065247E+02  0.91588090310E+02 0.  0.
        -13    1    3    3    0    0 -0.37681964514E+02 -0.23036096151E+02  0.50093847211E+01  0.44448816445E+02  0.10570000000E+00 0. -1.
         13    1    3    3    0    0  0.37681964514E+02  0.23036096151E+02 -0.19498357864E+02  0.48278248802E+02  0.10570000000E+00 0.  1.
<mgrwt>
<rscale>  0 0.91588090E+02</rscale>
<asrwt>0</asrwt>
<pdfrwt beam="1">  1        2 0.60183148E-02 0.91588090E+02</pdfrwt>
<pdfrwt beam="2">  1       -2 0.82473876E-02 0.91588090E+02</pdfrwt>
<totfact> 0.93607871E+04</totfact>
</mgrwt>
</event>
<event>
 5   1  0.1343823E+00  0.9056561E+02  0.7818608E-02  0.1301488E+00
         -2   -1    0    0    0  501 -0.00000000000E+00  0.00000000000E+00  0.85411140285E+02  0.85411140325E+02  0.26000000000E-02 0.  1.
          2   -1    0    0  501    0  0.00000000000E+00 -0.00000000000E+00 -0.24007785788E+02  0.24007785929E+02  0.26000000000E-02 0. -1.
         23    2    1    2    0    0  0.00000000000E+00  0.00000000000E+00  0.61403354497E+02  0.10941892625E+03  0.90565608699E+02 0.  0.
        -13    1    3    3    0    0 -0.65930098732E+00  0.39228208837E+02  0.58019058693E+02  0.70039341734E+02  0.10570000000E+00 0.  1.
         13    1    3    3    0    0  0.65930098732E+00 -0.39228208837E+02  0.33842958045E+01  0.39379584520E+02  0.10570000000E+00 0. -1.
<mgrwt>
<rscale>  0 0.90565609E+02</rscale>
<asrwt>0</asrwt>
<pdfrwt beam="2">  1        2 0.36935056E-02 0.90565609E+02</pdfrwt>
<pdfrwt beam="1">  1       -2 0.13140175E-01 0.90565609E+02</pdfrwt>
<totfact> 0.84936331E+04</totfact>
</mgrwt>
</event>
<event>
 5   1  0.1343823E+00  0.9099785E+02  0.7818608E-02  0.1300453E+00
          2   -1    0    0  501    0  0.00000000000E+00  0.00000000000E+00  0.12157097678E+03  0.12157097681E+03  0.26000000000E-02 0. -1.
         -2   -1    0    0    0  501 -0.00000000000E+00 -0.00000000000E+00 -0.17028341958E+02  0.17028342156E+02  0.26000000000E-02 0.  1.
         23    2    1    2    0    0  0.00000000000E+00  0.00000000000E+00  0.10454263482E+03  0.13859931896E+03  0.90997850094E+02 0.  0.
        -13    1    3    3    0    0  0.40964499010E+02  0.19783047360E+02  0.51013610437E+02  0.68350996805E+02  0.10570000000E+00 0.  1.
         13    1    3    3    0    0 -0.40964499010E+02 -0.19783047360E+02  0.53529024384E+02  0.70248322158E+02  0.10570000000E+00 0. -1.
<mgrwt>
<rscale>  0 0.90997850E+02</rscale>
<asrwt>0</asrwt>
<pdfrwt beam="1">  1        2 0.18703227E-01 0.90997850E+02</pdfrwt>
<pdfrwt beam="2">  1       -2 0.26197449E-02 0.90997850E+02</pdfrwt>
<totfact> 0.13110959E+05</totfact>
</mgrwt>
</event>
<event>
 5   1  0.1343823E+00  0.9210620E+02  0.7818608E-02  0.1297830E+00
         -2   -1    0    0    0  501 -0.00000000000E+00  0.00000000000E+00  0.20064171056E+02  0.20064171225E+02  0.26000000000E-02 0.  1.
          2   -1    0    0  501    0  0.00000000000E+00 -0.00000000000E+00 -0.10570522974E+03  0.10570522977E+03  0.26000000000E-02 0. -1.
         23    2    1    2    0    0  0.00000000000E+00  0.00000000000E+00 -0.85641058679E+02  0.12576940099E+03  0.92106195742E+02 0.  0.
        -13    1    3    3    0    0 -0.10824383072E+02  0.35224929644E+02 -0.80536375729E+02  0.88566821809E+02  0.10570000000E+00 0. -1.
         13    1    3    3    0    0  0.10824383072E+02 -0.35224929644E+02 -0.51046829504E+01  0.37202579183E+02  0.10570000000E+00 0.  1.
<mgrwt>
<rscale>  0 0.92106196E+02</rscale>
<asrwt>0</asrwt>
<pdfrwt beam="2">  1        2 0.16262343E-01 0.92106196E+02</pdfrwt>
<pdfrwt beam="1">  1       -2 0.30867956E-02 0.92106196E+02</pdfrwt>
<totfact> 0.12134902E+05</totfact>
</mgrwt>
</event>
<event>
 5   1  0.1343823E+00  0.9084574E+02  0.7818608E-02  0.1300816E+00
          2   -1    0    0  501    0  0.00000000000E+00  0.00000000000E+00  0.99277709688E+02  0.99277709723E+02  0.26000000000E-02 0. -1.
         -2   -1    0    0    0  501 -0.00000000000E+00 -0.00000000000E+00 -0.20782478878E+02  0.20782479040E+02  0.26000000000E-02 0.  1.
         23    2    1    2    0    0  0.00000000000E+00  0.00000000000E+00  0.78495230811E+02  0.12006018876E+03  0.90845735539E+02 0.  0.
        -13    1    3    3    0    0 -0.33226723693E+02 -0.19823048565E+02  0.70696220836E+02  0.80591161021E+02  0.10570000000E+00 0. -1.
         13    1    3    3    0    0  0.33226723693E+02  0.19823048565E+02  0.77990099749E+01  0.39469027741E+02  0.10570000000E+00 0.  1.
<mgrwt>
<rscale>  0 0.90845736E+02</rscale>
<asrwt>0</asrwt>
<pdfrwt beam="1">  1        2 0.15273494E-01 0.90845736E+02</pdfrwt>
<pdfrwt beam="2">  1       -2 0.31973045E-02 0.90845736E+02</pdfrwt>
<totfact> 0.12363796E+05</totfact>
</mgrwt>
</event>
<event>
 5   1  0.1343823E+00  0.8970205E+02  0.7818608E-02  0.1303575E+00
         -2   -1    0    0    0  501 -0.00000000000E+00  0.00000000000E+00  0.12922229948E+03  0.12922229951E+03  0.26000000000E-02 0.  1.
          2   -1    0    0  501    0  0.00000000000E+00 -0.00000000000E+00 -0.15567082941E+02  0.15567083158E+02  0.26000000000E-02 0. -1.
         23    2    1    2    0    0  0.00000000000E+00  0.00000000000E+00  0.11365521654E+03  0.14478938267E+03  0.89702046162E+02 0.  0.
        -13    1    3    3    0    0 -0.24151867062E+02  0.31507122194E+02  0.90515524495E+02  0.98838670462E+02  0.10570000000E+00 0.  1.
         13    1    3    3    0    0  0.24151867062E+02 -0.31507122194E+02  0.23139692046E+02  0.45950712203E+02  0.10570000000E+00 0. -1.
<mgrwt>
<rscale>  0 0.89702046E+02</rscale>
<asrwt>0</asrwt>
<pdfrwt beam="2">  1        2 0.23949358E-02 0.89702046E+02</pdfrwt>
<pdfrwt beam="1">  1       -2 0.19880354E-01 0.89702046E+02</pdfrwt>
<totfact> 0.76678037E+04</totfact>
</mgrwt>
</event>
<event>
 5   1  0.1343823E+00  0.8864751E+02  0.7818608E-02  0.1306160E+00
          2   -1    0    0  501    0  0.00000000000E+00  0.00000000000E+00  0.18416083614E+03  0.18416083616E+03  0.26000000000E-02 0. -1.
         -2   -1    0    0    0  501 -0.00000000000E+00 -0.00000000000E+00 -0.10667822648E+02  0.10667822965E+02  0.26000000000E-02 0.  1.
         23    2    1    2    0    0  0.00000000000E+00  0.00000000000E+00  0.17349301349E+03  0.19482865912E+03  0.88647508059E+02 0.  0.
        -13    1    3    3    0    0 -0.20174598815E+02 -0.31160906696E+02  0.13997513711E+03  0.14481390377E+03  0.10570000000E+00 0. -1.
         13    1    3    3    0    0  0.20174598815E+02  0.31160906696E+02  0.33517876382E+02  0.50014755354E+02  0.10570000000E+00 0.  1.
<mgrwt>
<rscale>  0 0.88647508E+02</rscale>
<asrwt>0</asrwt>
<pdfrwt beam="1">  1        2 0.28332436E-01 0.88647508E+02</pdfrwt>
<pdfrwt beam="2">  1       -2 0.16412035E-02 0.88647508E+02</pdfrwt>
<totfact> 0.16197518E+05</totfact>
</mgrwt>
</event>
<event>
 5   1  0.1343823E+00  0.9305909E+02  0.7818608E-02  0.1295608E+00
          2   -1    0    0  501    0  0.00000000000E+00  0.00000000000E+00  0.38530684679E+02  0.38530684767E+02  0.26000000000E-02 0.  1.
         -2   -1    0    0    0  501 -0.00000000000E+00 -0.00000000000E+00 -0.56188943492E+02  0.56188943552E+02  0.26000000000E-02 0. -1.
         23    2    1    2    0    0  0.00000000000E+00  0.00000000000E+00 -0.17658258813E+02  0.94719628319E+02  0.93059088135E+02 0.  0.
        -13    1    3    3    0    0  0.15899835892E+02 -0.17296464913E+02  0.32049880742E+02  0.39738879048E+02  0.10570000000E+00 0.  1.
         13    1    3    3    0    0 -0.15899835892E+02  0.17296464913E+02 -0.49708139555E+02  0.54980749271E+02  0.10570000000E+00 0. -1.
<mgrwt>
<rscale>  0 0.93059088E+02</rscale>
<asrwt>0</asrwt>
<pdfrwt beam="1">  1        2 0.59277977E-02 0.93059088E+02</pdfrwt>
<pdfrwt beam="2">  1       -2 0.86444528E-02 0.93059088E+02</pdfrwt>
<totfact> 0.89007308E+04</totfact>
</mgrwt>
</event>
<event>
 5   1  0.1343823E+00  0.7302561E+02  0.7818608E-02  0.1350096E+00
         -2   -1    0    0    0  501 -0.00000000000E+00  0.00000000000E+00  0.94888159065E+01  0.94888162627E+01  0.26000000000E-02 0. -1.
          2   -1    0    0  501    0  0.00000000000E+00 -0.00000000000E+00 -0.14050066453E+03  0.14050066455E+03  0.26000000000E-02 0.  1.
         23    2    1    2    0    0  0.00000000000E+00  0.00000000000E+00 -0.13101184862E+03  0.14998948081E+03  0.73025611095E+02 0.  0.
        -13    1    3    3    0    0 -0.31174509616E+02  0.57930290760E+01 -0.10269082269E+03  0.10747476668E+03  0.10570000000E+00 0.  1.
         13    1    3    3    0    0  0.31174509616E+02 -0.57930290760E+01 -0.28321025933E+02  0.42514714136E+02  0.10570000000E+00 0. -1.
<mgrwt>
<rscale>  0 0.73025611E+02</rscale>
<asrwt>0</asrwt>
<pdfrwt beam="2">  1        2 0.21615485E-01 0.73025611E+02</pdfrwt>
<pdfrwt beam="1">  1       -2 0.14598180E-02 0.73025611E+02</pdfrwt>
<totfact> 0.24790581E+05</totfact>
</mgrwt>
</event>
<event>
 5   1  0.1343823E+00  0.9296371E+02  0.7818608E-02  0.1295829E+00
          2   -1    0    0  501    0  0.00000000000E+00  0.00000000000E+00  0.42585166003E+03  0.42585166004E+03  0.26000000000E-02 0. -1.
         -2   -1    0    0    0  501 -0.00000000000E+00 -0.00000000000E+00 -0.50735098198E+01  0.50735104860E+01  0.26000000000E-02 0.  1.
         23    2    1    2    0    0  0.00000000000E+00  0.00000000000E+00  0.42077815021E+03  0.43092517053E+03  0.92963707418E+02 0.  0.
        -13    1    3    3    0    0  0.38950508005E+02 -0.21863173764E+02  0.15077198615E+03  0.15724930340E+03  0.10570000000E+00 0. -1.
         13    1    3    3    0    0 -0.38950508005E+02  0.21863173764E+02  0.27000616407E+03  0.27367586713E+03  0.10570000000E+00 0.  1.
<mgrwt>
<rscale>  0 0.92963707E+02</rscale>
<asrwt>0</asrwt>
<pdfrwt beam="1">  1        2 0.65515660E-01 0.92963707E+02</pdfrwt>
<pdfrwt beam="2">  1       -2 0.78053979E-03 0.92963707E+02</pdfrwt>
<totfact> 0.19384430E+05</totfact>
</mgrwt>
</event>
<event>
 5   1  0.1343823E+00  0.9129936E+02  0.7818608E-02  0.1299735E+00
         -2   -1    0    0    0  501 -0.00000000000E+00  0.00000000000E+00  0.19023143405E+02  0.19023143583E+02  0.26000000000E-02 0.  1.
          2   -1    0    0  501    0  0.00000000000E+00 -0.00000000000E+00 -0.10954516726E+03  0.10954516729E+03  0.26000000000E-02 0. -1.
         23    2    1    2    0    0  0.00000000000E+00  0.00000000000E+00 -0.90522023854E+02  0.12856831087E+03  0.91299363404E+02 0.  0.
        -13    1    3    3    0    0 -0.16002176001E+02 -0.31012997538E+02 -0.38203395501E+01  0.35106720437E+02  0.10570000000E+00 0.  1.
         13    1    3    3    0    0  0.16002176001E+02  0.31012997538E+02 -0.86701684304E+02  0.93461590435E+02  0.10570000000E+00 0. -1.
<mgrwt>
<rscale>  0 0.91299363E+02</rscale>
<asrwt>0</asrwt>
<pdfrwt beam="2">  1        2 0.16853102E-01 0.91299363E+02</pdfrwt>
<pdfrwt beam="1">  1       -2 0.29266375E-02 0.91299363E+02</pdfrwt>
<totfact> 0.12571012E+05</totfact>
</mgrwt>
</event>
<event>
 5   1  0.1343823E+00  0.8291112E+02  0.7818608E-02  0.1320987E+00
         -2   -1    0    0    0  501 -0.00000000000E+00  0.00000000000E+00  0.46050969231E+01  0.46050976570E+01  0.26000000000E-02 0.  1.
          2   -1    0    0  501    0  0.00000000000E+00 -0.00000000000E+00 -0.37318721587E+03  0.37318721588E+03  0.26000000000E-02 0. -1.
         23    2    1    2    0    0  0.00000000000E+00  0.00000000000E+00 -0.36858211894E+03  0.37779231353E+03  0.82911119637E+02 0.  0.
        -13    1    3    3    0    0 -0.33237169403E+02 -0.24393905018E+02 -0.16454452656E+03  0.16963102436E+03  0.10570000000E+00 0. -1.
         13    1    3    3    0    0  0.33237169403E+02  0.24393905018E+02 -0.20403759239E+03  0.20816128918E+03  0.10570000000E+00 0.  1.
<mgrwt>
<rscale>  0 0.82911120E+02</rscale>
<asrwt>0</asrwt>
<pdfrwt beam="2">  1        2 0.57413394E-01 0.82911120E+02</pdfrwt>
<pdfrwt beam="1">  1       -2 0.70847680E-03 0.82911120E+02</pdfrwt>
<totfact> 0.25028623E+05</totfact>
</mgrwt>
</event>
<event>
 5   1  0.1343823E+00  0.1117127E+03  0.7818608E-02  0.1257431E+00
          2   -1    0    0  501    0  0.00000000000E+00  0.00000000000E+00  0.61574365749E+02  0.61574365803E+02  0.26000000000E-02 0. -1.
         -2   -1    0    0    0  501 -0.00000000000E+00 -0.00000000000E+00 -0.50669362496E+02  0.50669362563E+02  0.26000000000E-02 0.  1.
         23    2    1    2    0    0  0.00000000000E+00  0.00000000000E+00  0.10905003252E+02  0.11224372837E+03  0.11171273634E+03 0.  0.
        -13    1    3    3    0    0  0.54498105809E+02  0.67848969803E+01  0.15691342344E+02  0.57116615453E+02  0.10570000000E+00 0.  1.
         13    1    3    3    0    0 -0.54498105809E+02 -0.67848969803E+01 -0.47863390919E+01  0.55127112913E+02  0.10570000000E+00 0. -1.
<mgrwt>
<rscale>  0 0.11171274E+03</rscale>
<asrwt>0</asrwt>
<pdfrwt beam="1">  1        2 0.94729794E-02 0.11171274E+03</pdfrwt>
<pdfrwt beam="2">  1       -2 0.77952865E-02 0.11171274E+03</pdfrwt>
<totfact> 0.59592700E+04</totfact>
</mgrwt>
</event>
<event>
 5   1  0.1343823E+00  0.9250488E+02  0.7818608E-02  0.1296897E+00
          2   -1    0    0  501    0  0.00000000000E+00  0.00000000000E+00  0.90512171034E+01  0.90512174768E+01  0.26000000000E-02 0. -1.
         -2   -1    0    0    0  501 -0.00000000000E+00 -0.00000000000E+00 -0.23635366723E+03  0.23635366724E+03  0.26000000000E-02 0.  1.
         23    2    1    2    0    0  0.00000000000E+00  0.00000000000E+00 -0.22730245012E+03  0.24540488472E+03  0.92504884257E+02 0.  0.
        -13    1    3    3    0    0 -0.33970927478E+02  0.35938246311E+01 -0.19637438401E+03  0.19932347920E+03  0.10570000000E+00 0.  1.
         13    1    3    3    0    0  0.33970927478E+02 -0.35938246311E+01 -0.30928066111E+02  0.46081405524E+02  0.10570000000E+00 0. -1.
<mgrwt>
<rscale>  0 0.92504884E+02</rscale>
<asrwt>0</asrwt>
<pdfrwt beam="1">  1        2 0.13924952E-02 0.92504884E+02</pdfrwt>
<pdfrwt beam="2">  1       -2 0.36362098E-01 0.92504884E+02</pdfrwt>
<totfact> 0.55640379E+04</totfact>
</mgrwt>
</event>
<event>
 5   1  0.1343823E+00  0.9122241E+02  0.7818608E-02  0.1299918E+00
         -2   -1    0    0    0  501 -0.00000000000E+00  0.00000000000E+00  0.16592961237E+03  0.16592961239E+03  0.26000000000E-02 0.  1.
          2   -1    0    0  501    0  0.00000000000E+00 -0.00000000000E+00 -0.12537738819E+02  0.12537739089E+02  0.26000000000E-02 0. -1.
         23    2    1    2    0    0  0.00000000000E+00  0.00000000000E+00  0.15339187355E+03  0.17846735148E+03  0.91222413213E+02 0.  0.
        -13    1    3    3    0    0  0.26125699929E+02  0.38118827531E+01  0.14945943681E+03  0.15177357171E+03  0.10570000000E+00 0.  1.
         13    1    3    3    0    0 -0.26125699929E+02 -0.38118827531E+01  0.39324367407E+01  0.26693779765E+02  0.10570000000E+00 0. -1.
<mgrwt>
<rscale>  0 0.91222413E+02</rscale>
<asrwt>0</asrwt>
<pdfrwt beam="2">  1        2 0.19288829E-02 0.91222413E+02</pdfrwt>
<pdfrwt beam="1">  1       -2 0.25527633E-01 0.91222413E+02</pdfrwt>
<totfact> 0.67178622E+04</totfact>
</mgrwt>
</event>
<event>
 5   1  0.1343823E+00  0.9040299E+02  0.7818608E-02  0.1301879E+00
         -2   -1    0    0    0  501 -0.00000000000E+00  0.00000000000E+00  0.41997507646E+02  0.41997507727E+02  0.26000000000E-02 0.  1.
          2   -1    0    0  501    0  0.00000000000E+00 -0.00000000000E+00 -0.48649913894E+02  0.48649913963E+02  0.26000000000E-02 0. -1.
         23    2    1    2    0    0  0.00000000000E+00  0.00000000000E+00 -0.66524062471E+01  0.90647421690E+02  0.90402989719E+02 0.  0.
        -13    1    3    3    0    0  0.10760285507E+02 -0.33061178689E+02 -0.32289223696E+02  0.47449240456E+02  0.10570000000E+00 0. -1.
         13    1    3    3    0    0 -0.10760285507E+02  0.33061178689E+02  0.25636817449E+02  0.43198181234E+02  0.10570000000E+00 0.  1.
<mgrwt>
<rscale>  0 0.90402990E+02</rscale>
<asrwt>0</asrwt>
<pdfrwt beam="2">  1        2 0.74846021E-02 0.90402990E+02</pdfrwt>
<pdfrwt beam="1">  1       -2 0.64611551E-02 0.90402990E+02</pdfrwt>
<totfact> 0.10282771E+05</totfact>
</mgrwt>
</event>
<event>
 5   1  0.1343823E+00  0.8968300E+02  0.7818608E-02  0.1303621E+00
         -2   -1    0    0    0  501 -0.00000000000E+00  0.00000000000E+00  0.14554813036E+02  0.14554813269E+02  0.26000000000E-02 0.  1.
          2   -1    0    0  501    0  0.00000000000E+00 -0.00000000000E+00 -0.13815088585E+03  0.13815088587E+03  0.26000000000E-02 0. -1.
         23    2    1    2    0    0  0.00000000000E+00  0.00000000000E+00 -0.12359607281E+03  0.15270569914E+03  0.89683004721E+02 0.  0.
        -13    1    3    3    0    0  0.11291566931E+02  0.19840535092E+02  0.39193588935E+01  0.23162876832E+02  0.10570000000E+00 0.  1.
         13    1    3    3    0    0 -0.11291566931E+02 -0.19840535092E+02 -0.12751543171E+03  0.12954282231E+03  0.10570000000E+00 0. -1.
<mgrwt>
<rscale>  0 0.89683005E+02</rscale>
<asrwt>0</asrwt>
<pdfrwt beam="2">  1        2 0.21253982E-01 0.89683005E+02</pdfrwt>
<pdfrwt beam="1">  1       -2 0.22392021E-02 0.89683005E+02</pdfrwt>
<totfact> 0.14222936E+05</totfact>
</mgrwt>
</event>
<event>
 5   1  0.1343823E+00  0.9161478E+02  0.7818608E-02  0.1298988E+00
         -2   -1    0    0    0  501 -0.00000000000E+00  0.00000000000E+00  0.96753328807E+01  0.96753332300E+01  0.26000000000E-02 0. -1.
          2   -1    0    0  501    0  0.00000000000E+00 -0.00000000000E+00 -0.21687284259E+03  0.21687284261E+03  0.26000000000E-02 0.  1.
         23    2    1    2    0    0  0.00000000000E+00  0.00000000000E+00 -0.20719750971E+03  0.22654817584E+03  0.91614780165E+02 0.  0.
        -13    1    3    3    0    0  0.33724534334E+02  0.14160396654E+02 -0.17179003803E+03  0.17564079648E+03  0.10570000000E+00 0.  1.
         13    1    3    3    0    0 -0.33724534334E+02 -0.14160396654E+02 -0.35407471675E+02  0.50907379351E+02  0.10570000000E+00 0. -1.
<mgrwt>
<rscale>  0 0.91614780E+02</rscale>
<asrwt>0</asrwt>
<pdfrwt beam="2">  1        2 0.33365049E-01 0.91614780E+02</pdfrwt>
<pdfrwt beam="1">  1       -2 0.14885129E-02 0.91614780E+02</pdfrwt>
<totfact> 0.15726350E+05</totfact>
</mgrwt>
</event>
<event>
 5   1  0.1343823E+00  0.9335698E+02  0.7818608E-02  0.1294920E+00
         -2   -1    0    0    0  501 -0.00000000000E+00  0.00000000000E+00  0.11650041581E+02  0.11650041871E+02  0.26000000000E-02 0.  1.
          2   -1    0    0  501    0  0.00000000000E+00 -0.00000000000E+00 -0.18702778956E+03  0.18702778957E+03  0.26000000000E-02 0. -1.
         23    2    1    2    0    0  0.00000000000E+00  0.00000000000E+00 -0.17537774798E+03  0.19867783145E+03  0.93356982722E+02 0.  0.
        -13    1    3    3    0    0  0.13236529621E+02  0.41057045261E+02 -0.49739463478E+02  0.65840049223E+02  0.10570000000E+00 0.  1.
         13    1    3    3    0    0 -0.13236529621E+02 -0.41057045261E+02 -0.12563828450E+03  0.13283778222E+03  0.10570000000E+00 0. -1.
<mgrwt>
<rscale>  0 0.93356983E+02</rscale>
<asrwt>0</asrwt>
<pdfrwt beam="2">  1        2 0.28773504E-01 0.93356983E+02</pdfrwt>
<pdfrwt beam="1">  1       -2 0.17923143E-02 0.93356983E+02</pdfrwt>
<totfact> 0.14165112E+05</totfact>
</mgrwt>
</event>
<event>
 5   1  0.1343823E+00  0.9244560E+02  0.7818608E-02  0.1297035E+00
         -2   -1    0    0    0  501 -0.00000000000E+00  0.00000000000E+00  0.44959556479E+01  0.44959563997E+01  0.26000000000E-02 0.  1.
          2   -1    0    0  501    0  0.00000000000E+00 -0.00000000000E+00 -0.47521533110E+03  0.47521533111E+03  0.26000000000E-02 0. -1.
         23    2    1    2    0    0  0.00000000000E+00  0.00000000000E+00 -0.47071937545E+03  0.47971128751E+03  0.92445599870E+02 0.  0.
        -13    1    3    3    0    0  0.17101515565E+02 -0.42938954084E+02 -0.23829715529E+03  0.24273805017E+03  0.10570000000E+00 0.  1.
         13    1    3    3    0    0 -0.17101515565E+02  0.42938954084E+02 -0.23242222017E+03  0.23697323733E+03  0.10570000000E+00 0. -1.
<mgrwt>
<rscale>  0 0.92445600E+02</rscale>
<asrwt>0</asrwt>
<pdfrwt beam="2">  1        2 0.73110011E-01 0.92445600E+02</pdfrwt>
<pdfrwt beam="1">  1       -2 0.69168592E-03 0.92445600E+02</pdfrwt>
<totfact> 0.20429096E+05</totfact>
</mgrwt>
</event>
<event>
 5   1  0.1343823E+00  0.9172252E+02  0.7818608E-02  0.1298733E+00
         -2   -1    0    0    0  501 -0.00000000000E+00  0.00000000000E+00  0.55060664383E+02  0.55060664444E+02  0.26000000000E-02 0.  1.
          2   -1    0    0  501    0  0.00000000000E+00 -0.00000000000E+00 -0.38198867853E+02  0.38198867942E+02  0.26000000000E-02 0. -1.
         23    2    1    2    0    0  0.00000000000E+00  0.00000000000E+00  0.16861796529E+02  0.93259532386E+02  0.91722517403E+02 0.  0.
        -13    1    3    3    0    0  0.38360321111E+02 -0.21733269788E+02  0.21267619347E+02  0.48950710481E+02  0.10570000000E+00 0.  1.
         13    1    3    3    0    0 -0.38360321111E+02  0.21733269788E+02 -0.44058228176E+01  0.44308821905E+02  0.10570000000E+00 0. -1.
<mgrwt>
<rscale>  0 0.91722517E+02</rscale>
<asrwt>0</asrwt>
<pdfrwt beam="2">  1        2 0.58767489E-02 0.91722517E+02</pdfrwt>
<pdfrwt beam="1">  1       -2 0.84708714E-02 0.91722517E+02</pdfrwt>
<totfact> 0.92633529E+04</totfact>
</mgrwt>
</event>
<event>
 5   1  0.1343823E+00  0.8874955E+02  0.7818608E-02  0.1305908E+00
         -2   -1    0    0    0  501 -0.00000000000E+00  0.00000000000E+00  0.12899198628E+03  0.12899198631E+03  0.26000000000E-02 0.  1.
          2   -1    0    0  501    0  0.00000000000E+00 -0.00000000000E+00 -0.15265447719E+02  0.15265447940E+02  0.26000000000E-02 0. -1.
         23    2    1    2    0    0  0.00000000000E+00  0.00000000000E+00  0.11372653856E+03  0.14425743425E+03  0.88749545139E+02 0.  0.
        -13    1    3    3    0    0 -0.20648017833E+02 -0.34048370358E+02  0.25032891948E+02  0.47034976520E+02  0.10570000000E+00 0. -1.
         13    1    3    3    0    0  0.20648017833E+02  0.34048370358E+02  0.88693646612E+02  0.97222457726E+02  0.10570000000E+00 0.  1.
<mgrwt>
<rscale>  0 0.88749545E+02</rscale>
<asrwt>0</asrwt>
<pdfrwt beam="2">  1        2 0.23485304E-02 0.88749545E+02</pdfrwt>
<pdfrwt beam="1">  1       -2 0.19844921E-01 0.88749545E+02</pdfrwt>
<totfact> 0.78811461E+04</totfact>
</mgrwt>
</event>
<event>
 5   1  0.1343823E+00  0.9161531E+02  0.7818608E-02  0.1298986E+00
         -2   -1    0    0    0  501 -0.00000000000E+00  0.00000000000E+00  0.84590561934E+01  0.84590565930E+01  0.26000000000E-02 0. -1.
          2   -1    0    0  501    0  0.00000000000E+00 -0.00000000000E+00 -0.24805854205E+03  0.24805854206E+03  0.26000000000E-02 0.  1.
         23    2    1    2    0    0  0.00000000000E+00  0.00000000000E+00 -0.23959948585E+03  0.25651759865E+03  0.91615308752E+02 0.  0.
        -13    1    3    3    0    0 -0.28226520658E+02 -0.23841494687E+02 -0.43985039494E+02  0.57444305280E+02  0.10570000000E+00 0. -1.
         13    1    3    3    0    0  0.28226520658E+02  0.23841494687E+02 -0.19561444636E+03  0.19907329337E+03  0.10570000000E+00 0.  1.
<mgrwt>
<rscale>  0 0.91615309E+02</rscale>
<asrwt>0</asrwt>
<pdfrwt beam="2">  1        2 0.38162847E-01 0.91615309E+02</pdfrwt>
<pdfrwt beam="1">  1       -2 0.13013935E-02 0.91615309E+02</pdfrwt>
<totfact> 0.16523776E+05</totfact>
</mgrwt>
</event>
<event>
 5   1  0.1343823E+00  0.8735530E+02  0.7818608E-02  0.1309386E+00
          2   -1    0    0  501    0  0.00000000000E+00  0.00000000000E+00  0.18944082967E+03  0.18944082969E+03  0.26000000000E-02 0. -1.
         -2   -1    0    0    0  501 -0.00000000000E+00 -0.00000000000E+00 -0.10070357931E+02  0.10070358267E+02  0.26000000000E-02 0.  1.
         23    2    1    2    0    0  0.00000000000E+00  0.00000000000E+00  0.17937047174E+03  0.19951118795E+03  0.87355297420E+02 0.  0.
        -13    1    3    3    0    0  0.38883238991E+02  0.39810023786E+00  0.44255557064E+02  0.58912055318E+02  0.10570000000E+00 0.  1.
         13    1    3    3    0    0 -0.38883238991E+02 -0.39810023786E+00  0.13511491467E+03  0.14059913264E+03  0.10570000000E+00 0. -1.
<mgrwt>
<rscale>  0 0.87355297E+02</rscale>
<asrwt>0</asrwt>
<pdfrwt beam="1">  1        2 0.29144745E-01 0.87355297E+02</pdfrwt>
<pdfrwt beam="2">  1       -2 0.15492857E-02 0.87355297E+02</pdfrwt>
<totfact> 0.17018573E+05</totfact>
</mgrwt>
</event>
<event>
 5   1  0.1343823E+00  0.9206797E+02  0.7818608E-02  0.1297920E+00
          2   -1    0    0  501    0  0.00000000000E+00  0.00000000000E+00  0.40351957901E+03  0.40351957901E+03  0.26000000000E-02 0. -1.
         -2   -1    0    0    0  501 -0.00000000000E+00 -0.00000000000E+00 -0.52516109593E+01  0.52516116029E+01  0.26000000000E-02 0.  1.
         23    2    1    2    0    0  0.00000000000E+00  0.00000000000E+00  0.39826796805E+03  0.40877119062E+03  0.92067974381E+02 0.  0.
        -13    1    3    3    0    0  0.27906556162E+02 -0.35654546633E+02  0.16222835704E+03  0.16842824458E+03  0.10570000000E+00 0.  1.
         13    1    3    3    0    0 -0.27906556162E+02  0.35654546633E+02  0.23603961101E+03  0.24034294604E+03  0.10570000000E+00 0. -1.
<mgrwt>
<rscale>  0 0.92067974E+02</rscale>
<asrwt>0</asrwt>
<pdfrwt beam="1">  1        2 0.62079928E-01 0.92067974E+02</pdfrwt>
<pdfrwt beam="2">  1       -2 0.80794029E-03 0.92067974E+02</pdfrwt>
<totfact> 0.19514105E+05</totfact>
</mgrwt>
</event>
<event>
 5   1  0.1343823E+00  0.8879158E+02  0.7818608E-02  0.1305805E+00
         -2   -1    0    0    0  501 -0.00000000000E+00  0.00000000000E+00  0.61810714940E+02  0.61810714995E+02  0.26000000000E-02 0. -1.
          2   -1    0    0  501    0  0.00000000000E+00 -0.00000000000E+00 -0.31887450976E+02  0.31887451082E+02  0.26000000000E-02 0.  1.
         23    2    1    2    0    0  0.00000000000E+00  0.00000000000E+00  0.29923263965E+02  0.93698166077E+02  0.88791579555E+02 0.  0.
        -13    1    3    3    0    0 -0.98530299819E+01  0.35852785218E+02 -0.10637290354E+02  0.38673861021E+02  0.10570000000E+00 0.  1.
         13    1    3    3    0    0  0.98530299819E+01 -0.35852785218E+02  0.40560554319E+02  0.55024305056E+02  0.10570000000E+00 0. -1.
<mgrwt>
<rscale>  0 0.88791580E+02</rscale>
<asrwt>0</asrwt>
<pdfrwt beam="2">  1        2 0.49057618E-02 0.88791580E+02</pdfrwt>
<pdfrwt beam="1">  1       -2 0.95093406E-02 0.88791580E+02</pdfrwt>
<totfact> 0.97198337E+04</totfact>
</mgrwt>
</event>
<event>
 5   1  0.1343823E+00  0.8999730E+02  0.7818608E-02  0.1302858E+00
         -2   -1    0    0    0  501 -0.00000000000E+00  0.00000000000E+00  0.31308494683E+02  0.31308494791E+02  0.26000000000E-02 0.  1.
          2   -1    0    0  501    0  0.00000000000E+00 -0.00000000000E+00 -0.64675050533E+02  0.64675050585E+02  0.26000000000E-02 0. -1.
         23    2    1    2    0    0  0.00000000000E+00  0.00000000000E+00 -0.33366555850E+02  0.95983545376E+02  0.89997299591E+02 0.  0.
        -13    1    3    3    0    0 -0.73629485683E+01  0.44075292831E+02 -0.22329052668E+02  0.49954401361E+02  0.10570000000E+00 0. -1.
         13    1    3    3    0    0  0.73629485683E+01 -0.44075292831E+02 -0.11037503182E+02  0.46029144015E+02  0.10570000000E+00 0.  1.
<mgrwt>
<rscale>  0 0.89997300E+02</rscale>
<asrwt>0</asrwt>
<pdfrwt beam="2">  1        2 0.99500077E-02 0.89997300E+02</pdfrwt>
<pdfrwt beam="1">  1       -2 0.48166915E-02 0.89997300E+02</pdfrwt>
<totfact> 0.11226696E+05</totfact>
</mgrwt>
</event>
<event>
 5   1  0.1343823E+00  0.8874207E+02  0.7818608E-02  0.1305927E+00
         -2   -1    0    0    0  501 -0.00000000000E+00  0.00000000000E+00  0.33344274078E+02  0.33344274179E+02  0.26000000000E-02 0. -1.
          2   -1    0    0  501    0  0.00000000000E+00 -0.00000000000E+00 -0.59044282253E+02  0.59044282311E+02  0.26000000000E-02 0.  1.
         23    2    1    2    0    0  0.00000000000E+00  0.00000000000E+00 -0.25700008175E+02  0.92388556490E+02  0.88742069787E+02 0.  0.
        -13    1    3    3    0    0  0.42625927726E+02  0.11730131446E+02 -0.16774773906E+02  0.47286043505E+02  0.10570000000E+00 0. -1.
         13    1    3    3    0    0 -0.42625927726E+02 -0.11730131446E+02 -0.89252342693E+01  0.45102512985E+02  0.10570000000E+00 0.  1.
<mgrwt>
<rscale>  0 0.88742070E+02</rscale>
<asrwt>0</asrwt>
<pdfrwt beam="2">  1        2 0.90837358E-02 0.88742070E+02</pdfrwt>
<pdfrwt beam="1">  1       -2 0.51298883E-02 0.88742070E+02</pdfrwt>
<totfact> 0.11397249E+05</totfact>
</mgrwt>
</event>
<event>
 5   1  0.1343823E+00  0.9034469E+02  0.7818608E-02  0.1302019E+00
         -2   -1    0    0    0  501 -0.00000000000E+00  0.00000000000E+00  0.14756891565E+02  0.14756891794E+02  0.26000000000E-02 0. -1.
          2   -1    0    0  501    0  0.00000000000E+00 -0.00000000000E+00 -0.13827713723E+03  0.13827713726E+03  0.26000000000E-02 0.  1.
         23    2    1    2    0    0  0.00000000000E+00  0.00000000000E+00 -0.12352024567E+03  0.15303402905E+03  0.90344689704E+02 0.  0.
        -13    1    3    3    0    0 -0.43275504475E+02  0.10220410575E+02 -0.75237308101E+02  0.87395021498E+02  0.10570000000E+00 0.  1.
         13    1    3    3    0    0  0.43275504475E+02 -0.10220410575E+02 -0.48282937567E+02  0.65639007553E+02  0.10570000000E+00 0. -1.
<mgrwt>
<rscale>  0 0.90344690E+02</rscale>
<asrwt>0</asrwt>
<pdfrwt beam="2">  1        2 0.21273405E-01 0.90344690E+02</pdfrwt>
<pdfrwt beam="1">  1       -2 0.22702911E-02 0.90344690E+02</pdfrwt>
<totfact> 0.13946207E+05</totfact>
</mgrwt>
</event>
<event>
 5   1  0.1343823E+00  0.9660561E+02  0.7818608E-02  0.1287600E+00
         -2   -1    0    0    0  501 -0.00000000000E+00  0.00000000000E+00  0.11770814524E+03  0.11770814527E+03  0.26000000000E-02 0. -1.
          2   -1    0    0  501    0  0.00000000000E+00 -0.00000000000E+00 -0.19821574428E+02  0.19821574598E+02  0.26000000000E-02 0.  1.
         23    2    1    2    0    0  0.00000000000E+00  0.00000000000E+00  0.97886570811E+02  0.13752971987E+03  0.96605605951E+02 0.  0.
        -13    1    3    3    0    0  0.41348944311E+02  0.13050960912E+02  0.79246238044E+02  0.90332940797E+02  0.10570000000E+00 0. -1.
         13    1    3    3    0    0 -0.41348944311E+02 -0.13050960912E+02  0.18640332767E+02  0.47196779069E+02  0.10570000000E+00 0.  1.
<mgrwt>
<rscale>  0 0.96605606E+02</rscale>
<asrwt>0</asrwt>
<pdfrwt beam="2">  1        2 0.30494730E-02 0.96605606E+02</pdfrwt>
<pdfrwt beam="1">  1       -2 0.18108946E-01 0.96605606E+02</pdfrwt>
<totfact> 0.65636787E+04</totfact>
</mgrwt>
</event>
<event>
 5   1  0.1343823E+00  0.9663649E+02  0.7818608E-02  0.1287532E+00
          2   -1    0    0  501    0  0.00000000000E+00  0.00000000000E+00  0.15264646135E+02  0.15264646357E+02  0.26000000000E-02 0. -1.
         -2   -1    0    0    0  501 -0.00000000000E+00 -0.00000000000E+00 -0.15294509342E+03  0.15294509345E+03  0.26000000000E-02 0.  1.
         23    2    1    2    0    0  0.00000000000E+00  0.00000000000E+00 -0.13768044729E+03  0.16820973980E+03  0.96636488963E+02 0.  0.
        -13    1    3    3    0    0  0.24620317347E+02  0.88240236096E+01  0.18783195574E+01  0.26221416357E+02  0.10570000000E+00 0. -1.
         13    1    3    3    0    0 -0.24620317347E+02 -0.88240236096E+01 -0.13955876685E+03  0.14198832345E+03  0.10570000000E+00 0.  1.
<mgrwt>
<rscale>  0 0.96636489E+02</rscale>
<asrwt>0</asrwt>
<pdfrwt beam="1">  1        2 0.23484072E-02 0.96636489E+02</pdfrwt>
<pdfrwt beam="2">  1       -2 0.23530013E-01 0.96636489E+02</pdfrwt>
<totfact> 0.59850354E+04</totfact>
</mgrwt>
</event>
<event>
 5   1  0.1343823E+00  0.9152628E+02  0.7818608E-02  0.1299197E+00
         -2   -1    0    0    0  501 -0.00000000000E+00  0.00000000000E+00  0.59062068443E+01  0.59062074166E+01  0.26000000000E-02 0.  1.
          2   -1    0    0  501    0  0.00000000000E+00 -0.00000000000E+00 -0.35458710409E+03  0.35458710410E+03  0.26000000000E-02 0. -1.
         23    2    1    2    0    0  0.00000000000E+00  0.00000000000E+00 -0.34868089725E+03  0.36049331152E+03  0.91526277887E+02 0.  0.
        -13    1    3    3    0    0 -0.74127149028E+01 -0.41470875480E+02 -0.10394125023E+03  0.11215425328E+03  0.10570000000E+00 0.  1.
         13    1    3    3    0    0  0.74127149028E+01  0.41470875480E+02 -0.24473964701E+03  0.24833905824E+03  0.10570000000E+00 0. -1.
<mgrwt>
<rscale>  0 0.91526278E+02</rscale>
<asrwt>0</asrwt>
<pdfrwt beam="2">  1        2 0.54551846E-01 0.91526278E+02</pdfrwt>
<pdfrwt beam="1">  1       -2 0.90864753E-03 0.91526278E+02</pdfrwt>
<totfact> 0.18916824E+05</totfact>
</mgrwt>
</event>
<event>
 5   1  0.1343823E+00  0.9056503E+02  0.7818608E-02  0.1301489E+00
          2   -1    0    0  501    0  0.00000000000E+00  0.00000000000E+00  0.50913419758E+02  0.50913419824E+02  0.26000000000E-02 0.  1.
         -2   -1    0    0    0  501 -0.00000000000E+00 -0.00000000000E+00 -0.40274376110E+02  0.40274376194E+02  0.26000000000E-02 0. -1.
         23    2    1    2    0    0  0.00000000000E+00  0.00000000000E+00  0.10639043647E+02  0.91187796018E+02  0.90565031292E+02 0.  0.
        -13    1    3    3    0    0  0.21203107473E+02  0.28293308213E+02 -0.23166576674E+02  0.42270373826E+02  0.10570000000E+00 0. -1.
         13    1    3    3    0    0 -0.21203107473E+02 -0.28293308213E+02  0.33805620321E+02  0.48917422192E+02  0.10570000000E+00 0.  1.
<mgrwt>
<rscale>  0 0.90565031E+02</rscale>
<asrwt>0</asrwt>
<pdfrwt beam="1">  1        2 0.78328338E-02 0.90565031E+02</pdfrwt>
<pdfrwt beam="2">  1       -2 0.61960579E-02 0.90565031E+02</pdfrwt>
<totfact> 0.10352169E+05</totfact>
</mgrwt>
</event>
<event>
 5   1  0.1343823E+00  0.9088783E+02  0.7818608E-02  0.1300716E+00
          2   -1    0    0  501    0  0.00000000000E+00  0.00000000000E+00  0.23782896932E+03  0.23782896934E+03  0.26000000000E-02 0. -1.
         -2   -1    0    0    0  501 -0.00000000000E+00 -0.00000000000E+00 -0.86833389342E+01  0.86833393235E+01  0.26000000000E-02 0.  1.
         23    2    1    2    0    0  0.00000000000E+00  0.00000000000E+00  0.22914563039E+03  0.24651230866E+03  0.90887834141E+02 0.  0.
        -13    1    3    3    0    0  0.42223526212E+02  0.50173711450E+01  0.71080132709E+02  0.82827511236E+02  0.10570000000E+00 0.  1.
         13    1    3    3    0    0 -0.42223526212E+02 -0.50173711450E+01  0.15806549768E+03  0.16368479742E+03  0.10570000000E+00 0. -1.
<mgrwt>
<rscale>  0 0.90887834E+02</rscale>
<asrwt>0</asrwt>
<pdfrwt beam="1">  1        2 0.36589078E-01 0.90887834E+02</pdfrwt>
<pdfrwt beam="2">  1       -2 0.13358981E-02 0.90887834E+02</pdfrwt>
<totfact> 0.16620191E+05</totfact>
</mgrwt>
</event>
<event>
 5   1  0.1343823E+00  0.9224989E+02  0.7818608E-02  0.1297493E+00
         -2   -1    0    0    0  501 -0.00000000000E+00  0.00000000000E+00  0.77778171031E+02  0.77778171074E+02  0.26000000000E-02 0.  1.
          2   -1    0    0  501    0  0.00000000000E+00 -0.00000000000E+00 -0.27353569094E+02  0.27353569218E+02  0.26000000000E-02 0. -1.
         23    2    1    2    0    0  0.00000000000E+00  0.00000000000E+00  0.50424601936E+02  0.10513174029E+03  0.92249890712E+02 0.  0.
        -13    1    3    3    0    0  0.43495723366E+02  0.45865924286E+01  0.41906565826E+02  0.60572982534E+02  0.10570000000E+00 0.  1.
         13    1    3    3    0    0 -0.43495723366E+02 -0.45865924286E+01  0.85180361101E+01  0.44558757758E+02  0.10570000000E+00 0. -1.
<mgrwt>
<rscale>  0 0.92249891E+02</rscale>
<asrwt>0</asrwt>
<pdfrwt beam="2">  1        2 0.42082415E-02 0.92249891E+02</pdfrwt>
<pdfrwt beam="1">  1       -2 0.11965872E-01 0.92249891E+02</pdfrwt>
<totfact> 0.83313365E+04</totfact>
</mgrwt>
</event>
<event>
 5   1  0.1343823E+00  0.9206066E+02  0.7818608E-02  0.1297937E+00
          2   -1    0    0  501    0  0.00000000000E+00  0.00000000000E+00  0.15521617545E+03  0.15521617547E+03  0.26000000000E-02 0. -1.
         -2   -1    0    0    0  501 -0.00000000000E+00 -0.00000000000E+00 -0.13650583039E+02  0.13650583287E+02  0.26000000000E-02 0.  1.
         23    2    1    2    0    0  0.00000000000E+00  0.00000000000E+00  0.14156559241E+03  0.16886675875E+03  0.92060660756E+02 0.  0.
        -13    1    3    3    0    0 -0.44815430418E+02  0.92114612375E+01  0.61518893466E+02  0.76667197989E+02  0.10570000000E+00 0.  1.
         13    1    3    3    0    0  0.44815430418E+02 -0.92114612375E+01  0.80046698940E+02  0.92199560766E+02  0.10570000000E+00 0. -1.
<mgrwt>
<rscale>  0 0.92060661E+02</rscale>
<asrwt>0</asrwt>
<pdfrwt beam="1">  1        2 0.23879412E-01 0.92060661E+02</pdfrwt>
<pdfrwt beam="2">  1       -2 0.21000897E-02 0.92060661E+02</pdfrwt>
<totfact> 0.13779429E+05</totfact>
</mgrwt>
</event>
<event>
 5   1  0.1343823E+00  0.9301926E+02  0.7818608E-02  0.1295701E+00
         -2   -1    0    0    0  501 -0.00000000000E+00  0.00000000000E+00  0.18450341924E+02  0.18450342107E+02  0.26000000000E-02 0.  1.
          2   -1    0    0  501    0  0.00000000000E+00 -0.00000000000E+00 -0.11724149086E+03  0.11724149089E+03  0.26000000000E-02 0. -1.
         23    2    1    2    0    0  0.00000000000E+00  0.00000000000E+00 -0.98791148936E+02  0.13569183299E+03  0.93019258401E+02 0.  0.
        -13    1    3    3    0    0 -0.28089833514E+02  0.25231066547E+02 -0.97806710855E+01  0.39004078829E+02  0.10570000000E+00 0.  1.
         13    1    3    3    0    0  0.28089833514E+02 -0.25231066547E+02 -0.89010477850E+02  0.96687754165E+02  0.10570000000E+00 0. -1.
<mgrwt>
<rscale>  0 0.93019258E+02</rscale>
<asrwt>0</asrwt>
<pdfrwt beam="2">  1        2 0.18037152E-01 0.93019258E+02</pdfrwt>
<pdfrwt beam="1">  1       -2 0.28385142E-02 0.93019258E+02</pdfrwt>
<totfact> 0.12202215E+05</totfact>
</mgrwt>
</event>
<event>
 5   1  0.1343823E+00  0.9367051E+02  0.7818608E-02  0.1294199E+00
          2   -1    0    0  501    0  0.00000000000E+00  0.00000000000E+00  0.27157800577E+03  0.27157800578E+03  0.26000000000E-02 0. -1.
         -2   -1    0    0    0  501 -0.00000000000E+00 -0.00000000000E+00 -0.80770205962E+01  0.80770210147E+01  0.26000000000E-02 0.  1.
         23    2    1    2    0    0  0.00000000000E+00  0.00000000000E+00  0.26350098517E+03  0.27965502680E+03  0.93670512037E+02 0.  0.
        -13    1    3    3    0    0 -0.43988495216E+02 -0.77814128922E+01  0.89741381985E+02  0.10024502437E+03  0.10570000000E+00 0.  1.
         13    1    3    3    0    0  0.43988495216E+02  0.77814128922E+01  0.17375960319E+03  0.17941000243E+03  0.10570000000E+00 0. -1.
<mgrwt>
<rscale>  0 0.93670512E+02</rscale>
<asrwt>0</asrwt>
<pdfrwt beam="1">  1        2 0.41781225E-01 0.93670512E+02</pdfrwt>
<pdfrwt beam="2">  1       -2 0.12426188E-02 0.93670512E+02</pdfrwt>
<totfact> 0.16103972E+05</totfact>
</mgrwt>
</event>
<event>
 5   1  0.1343823E+00  0.8953751E+02  0.7818608E-02  0.1303976E+00
          2   -1    0    0  501    0  0.00000000000E+00  0.00000000000E+00  0.17346680147E+02  0.17346680342E+02  0.26000000000E-02 0. -1.
         -2   -1    0    0    0  501 -0.00000000000E+00 -0.00000000000E+00 -0.11554034841E+03  0.11554034844E+03  0.26000000000E-02 0.  1.
         23    2    1    2    0    0  0.00000000000E+00  0.00000000000E+00 -0.98193668263E+02  0.13288702878E+03  0.89537511310E+02 0.  0.
        -13    1    3    3    0    0 -0.27096084259E+02 -0.23495220823E+02 -0.93280833065E+01  0.37057354120E+02  0.10570000000E+00 0. -1.
         13    1    3    3    0    0  0.27096084259E+02  0.23495220823E+02 -0.88865584956E+02  0.95829674662E+02  0.10570000000E+00 0.  1.
<mgrwt>
<rscale>  0 0.89537511E+02</rscale>
<asrwt>0</asrwt>
<pdfrwt beam="1">  1        2 0.26687201E-02 0.89537511E+02</pdfrwt>
<pdfrwt beam="2">  1       -2 0.17775438E-01 0.89537511E+02</pdfrwt>
<totfact> 0.79884740E+04</totfact>
</mgrwt>
</event>
<event>
 5   1  0.1343823E+00  0.9132955E+02  0.7818608E-02  0.1299664E+00
          2   -1    0    0  501    0  0.00000000000E+00  0.00000000000E+00  0.11868713322E+03  0.11868713325E+03  0.26000000000E-02 0. -1.
         -2   -1    0    0    0  501 -0.00000000000E+00 -0.00000000000E+00 -0.17569483947E+02  0.17569484139E+02  0.26000000000E-02 0.  1.
         23    2    1    2    0    0  0.00000000000E+00  0.00000000000E+00  0.10111764927E+03  0.13625661739E+03  0.91329550461E+02 0.  0.
        -13    1    3    3    0    0 -0.20595266252E+02 -0.83469165453E+01 -0.89579387247E+01  0.23960213824E+02  0.10570000000E+00 0.  1.
         13    1    3    3    0    0  0.20595266252E+02  0.83469165453E+01  0.11007558800E+03  0.11229640356E+03  0.10570000000E+00 0. -1.
<mgrwt>
<rscale>  0 0.91329550E+02</rscale>
<asrwt>0</asrwt>
<pdfrwt beam="1">  1        2 0.18259559E-01 0.91329550E+02</pdfrwt>
<pdfrwt beam="2">  1       -2 0.27029976E-02 0.91329550E+02</pdfrwt>
<totfact> 0.12881660E+05</totfact>
</mgrwt>
</event>
<event>
 5   1  0.1343823E+00  0.9119029E+02  0.7818608E-02  0.1299995E+00
          2   -1    0    0  501    0  0.00000000000E+00  0.00000000000E+00  0.11895927894E+02  0.11895928178E+02  0.26000000000E-02 0. -1.
         -2   -1    0    0    0  501 -0.00000000000E+00 -0.00000000000E+00 -0.17475874293E+03  0.17475874295E+03  0.26000000000E-02 0.  1.
         23    2    1    2    0    0  0.00000000000E+00  0.00000000000E+00 -0.16286281504E+03  0.18665467113E+03  0.91190294068E+02 0.  0.
        -13    1    3    3    0    0 -0.36600083133E+02  0.17981666016E+02 -0.12317951954E+03  0.12975404273E+03  0.10570000000E+00 0.  1.
         13    1    3    3    0    0  0.36600083133E+02 -0.17981666016E+02 -0.39683295492E+02  0.56900628394E+02  0.10570000000E+00 0. -1.
<mgrwt>
<rscale>  0 0.91190294E+02</rscale>
<asrwt>0</asrwt>
<pdfrwt beam="1">  1        2 0.18301429E-02 0.91190294E+02</pdfrwt>
<pdfrwt beam="2">  1       -2 0.26885959E-01 0.91190294E+02</pdfrwt>
<totfact> 0.65887028E+04</totfact>
</mgrwt>
</event>
<event>
 5   1  0.1343823E+00  0.1209188E+03  0.7818608E-02  0.1241589E+00
         -2   -1    0    0    0  501 -0.00000000000E+00  0.00000000000E+00  0.14645417372E+02  0.14645417603E+02  0.26000000000E-02 0. -1.
          2   -1    0    0  501    0  0.00000000000E+00 -0.00000000000E+00 -0.24958913254E+03  0.24958913255E+03  0.26000000000E-02 0.  1.
         23    2    1    2    0    0  0.00000000000E+00  0.00000000000E+00 -0.23494371516E+03  0.26423455015E+03  0.12091876694E+03 0.  0.
        -13    1    3    3    0    0 -0.35229523332E+02  0.43234043658E+02 -0.66456172894E+02  0.86756763041E+02  0.10570000000E+00 0. -1.
         13    1    3    3    0    0  0.35229523332E+02 -0.43234043658E+02 -0.16848754227E+03  0.17747778711E+03  0.10570000000E+00 0.  1.
<mgrwt>
<rscale>  0 0.12091877E+03</rscale>
<asrwt>0</asrwt>
<pdfrwt beam="2">  1        2 0.38398325E-01 0.12091877E+03</pdfrwt>
<pdfrwt beam="1">  1       -2 0.22531413E-02 0.12091877E+03</pdfrwt>
<totfact> 0.77738114E+04</totfact>
</mgrwt>
</event>
<event>
 5   1  0.1343823E+00  0.1143727E+03  0.7818608E-02  0.1252680E+00
          2   -1    0    0  501    0  0.00000000000E+00  0.00000000000E+00  0.32666754677E+03  0.32666754678E+03  0.26000000000E-02 0. -1.
         -2   -1    0    0    0  501 -0.00000000000E+00 -0.00000000000E+00 -0.10011024487E+02  0.10011024825E+02  0.26000000000E-02 0.  1.
         23    2    1    2    0    0  0.00000000000E+00  0.00000000000E+00  0.31665652228E+03  0.33667857161E+03  0.11437266926E+03 0.  0.
        -13    1    3    3    0    0  0.29122333203E+01  0.49283170928E+02  0.73370386650E+02  0.88433799247E+02  0.10570000000E+00 0.  1.
         13    1    3    3    0    0 -0.29122333203E+01 -0.49283170928E+02  0.24328613563E+03  0.24824477236E+03  0.10570000000E+00 0. -1.
<mgrwt>
<rscale>  0 0.11437267E+03</rscale>
<asrwt>0</asrwt>
<pdfrwt beam="1">  1        2 0.50256544E-01 0.11437267E+03</pdfrwt>
<pdfrwt beam="2">  1       -2 0.15401577E-02 0.11437267E+03</pdfrwt>
<totfact> 0.10058948E+05</totfact>
</mgrwt>
</event>
<event>
 5   1  0.1343823E+00  0.9258767E+02  0.7818608E-02  0.1296704E+00
         -2   -1    0    0    0  501 -0.00000000000E+00  0.00000000000E+00  0.11252915356E+02  0.11252915656E+02  0.26000000000E-02 0.  1.
          2   -1    0    0  501    0  0.00000000000E+00 -0.00000000000E+00 -0.19045011003E+03  0.19045011005E+03  0.26000000000E-02 0. -1.
         23    2    1    2    0    0  0.00000000000E+00  0.00000000000E+00 -0.17919719468E+03  0.20170302571E+03  0.92587666560E+02 0.  0.
        -13    1    3    3    0    0 -0.40036210616E+02  0.22985350689E+02 -0.82088800659E+02  0.94179652117E+02  0.10570000000E+00 0. -1.
         13    1    3    3    0    0  0.40036210616E+02 -0.22985350689E+02 -0.97108394020E+02  0.10752337359E+03  0.10570000000E+00 0.  1.
<mgrwt>
<rscale>  0 0.92587667E+02</rscale>
<asrwt>0</asrwt>
<pdfrwt beam="2">  1        2 0.29300015E-01 0.92587667E+02</pdfrwt>
<pdfrwt beam="1">  1       -2 0.17312179E-02 0.92587667E+02</pdfrwt>
<totfact> 0.14580473E+05</totfact>
</mgrwt>
</event>
<event>
 5   1  0.1343823E+00  0.8276950E+02  0.7818608E-02  0.1321371E+00
          2   -1    0    0  501    0  0.00000000000E+00  0.00000000000E+00  0.25241357296E+02  0.25241357429E+02  0.26000000000E-02 0.  1.
         -2   -1    0    0    0  501 -0.00000000000E+00 -0.00000000000E+00 -0.67852834317E+02  0.67852834367E+02  0.26000000000E-02 0. -1.
         23    2    1    2    0    0  0.00000000000E+00  0.00000000000E+00 -0.42611477022E+02  0.93094191797E+02  0.82769502670E+02 0.  0.
        -13    1    3    3    0    0 -0.39576202583E+02  0.92717318045E+01 -0.30050234096E+02  0.50549664324E+02  0.10570000000E+00 0.  1.
         13    1    3    3    0    0  0.39576202583E+02 -0.92717318045E+01 -0.12561242926E+02  0.42544527473E+02  0.10570000000E+00 0. -1.
<mgrwt>
<rscale>  0 0.82769503E+02</rscale>
<asrwt>0</asrwt>
<pdfrwt beam="1">  1        2 0.38832858E-02 0.82769503E+02</pdfrwt>
<pdfrwt beam="2">  1       -2 0.10438897E-01 0.82769503E+02</pdfrwt>
<totfact> 0.11257987E+05</totfact>
</mgrwt>
</event>
<event>
 5   1  0.1343823E+00  0.9251672E+02  0.7818608E-02  0.1296869E+00
         -2   -1    0    0    0  501 -0.00000000000E+00  0.00000000000E+00  0.84366888377E+01  0.84366892383E+01  0.26000000000E-02 0. -1.
          2   -1    0    0  501    0  0.00000000000E+00 -0.00000000000E+00 -0.25363457239E+03  0.25363457241E+03  0.26000000000E-02 0.  1.
         23    2    1    2    0    0  0.00000000000E+00  0.00000000000E+00 -0.24519788355E+03  0.26207126164E+03  0.92516723245E+02 0.  0.
        -13    1    3    3    0    0  0.13498900334E+01 -0.46165400212E+02 -0.12996310280E+03  0.13792565259E+03  0.10570000000E+00 0. -1.
         13    1    3    3    0    0 -0.13498900334E+01  0.46165400212E+02 -0.11523478075E+03  0.12414560905E+03  0.10570000000E+00 0.  1.
<mgrwt>
<rscale>  0 0.92516723E+02</rscale>
<asrwt>0</asrwt>
<pdfrwt beam="2">  1        2 0.39020698E-01 0.92516723E+02</pdfrwt>
<pdfrwt beam="1">  1       -2 0.12979524E-02 0.92516723E+02</pdfrwt>
<totfact> 0.16228601E+05</totfact>
</mgrwt>
</event>
<event>
 5   1  0.1343823E+00  0.8947995E+02  0.7818608E-02  0.1304116E+00
         -2   -1    0    0    0  501 -0.00000000000E+00  0.00000000000E+00  0.38499482842E+02  0.38499482930E+02  0.26000000000E-02 0.  1.
          2   -1    0    0  501    0  0.00000000000E+00 -0.00000000000E+00 -0.51992004307E+02  0.51992004372E+02  0.26000000000E-02 0. -1.
         23    2    1    2    0    0  0.00000000000E+00  0.00000000000E+00 -0.13492521464E+02  0.90491487302E+02  0.89479948249E+02 0.  0.
        -13    1    3    3    0    0 -0.16685384319E+01 -0.44683148250E+02 -0.82754236454E+01  0.45473745909E+02  0.10570000000E+00 0. -1.
         13    1    3    3    0    0  0.16685384319E+01  0.44683148250E+02 -0.52170978188E+01  0.45017741393E+02  0.10570000000E+00 0.  1.
<mgrwt>
<rscale>  0 0.89479948E+02</rscale>
<asrwt>0</asrwt>
<pdfrwt beam="2">  1        2 0.79987699E-02 0.89479948E+02</pdfrwt>
<pdfrwt beam="1">  1       -2 0.59229974E-02 0.89479948E+02</pdfrwt>
<totfact> 0.10770790E+05</totfact>
</mgrwt>
</event>
<event>
 5   1  0.1343823E+00  0.9478234E+02  0.7818608E-02  0.1291667E+00
         -2   -1    0    0    0  501 -0.00000000000E+00  0.00000000000E+00  0.71733781637E+02  0.71733781684E+02  0.26000000000E-02 0.  1.
          2   -1    0    0  501    0  0.00000000000E+00 -0.00000000000E+00 -0.31309141898E+02  0.31309142006E+02  0.26000000000E-02 0. -1.
         23    2    1    2    0    0  0.00000000000E+00  0.00000000000E+00  0.40424639739E+02  0.10304292369E+03  0.94782343421E+02 0.  0.
        -13    1    3    3    0    0  0.36510343074E+02 -0.14333907579E+02 -0.87036228284E+01  0.40177484748E+02  0.10570000000E+00 0. -1.
         13    1    3    3    0    0 -0.36510343074E+02  0.14333907579E+02  0.49128262568E+02  0.62865438941E+02  0.10570000000E+00 0.  1.
<mgrwt>
<rscale>  0 0.94782343E+02</rscale>
<asrwt>0</asrwt>
<pdfrwt beam="2">  1        2 0.48167911E-02 0.94782343E+02</pdfrwt>
<pdfrwt beam="1">  1       -2 0.11035966E-01 0.94782343E+02</pdfrwt>
<totfact> 0.79732716E+04</totfact>
</mgrwt>
</event>
<event>
 5   1  0.1343823E+00  0.9174677E+02  0.7818608E-02  0.1298676E+00
         -2   -1    0    0    0  501 -0.00000000000E+00  0.00000000000E+00  0.18623102775E+02  0.18623102956E+02  0.26000000000E-02 0.  1.
          2   -1    0    0  501    0  0.00000000000E+00 -0.00000000000E+00 -0.11299768342E+03  0.11299768345E+03  0.26000000000E-02 0. -1.
         23    2    1    2    0    0  0.00000000000E+00  0.00000000000E+00 -0.94374580649E+02  0.13162078641E+03  0.91746770747E+02 0.  0.
        -13    1    3    3    0    0  0.16929803906E+02  0.30108204026E+02 -0.90493350662E+02  0.96861653385E+02  0.10570000000E+00 0. -1.
         13    1    3    3    0    0 -0.16929803906E+02 -0.30108204026E+02 -0.38812299868E+01  0.34759133025E+02  0.10570000000E+00 0.  1.
<mgrwt>
<rscale>  0 0.91746771E+02</rscale>
<asrwt>0</asrwt>
<pdfrwt beam="2">  1        2 0.17384259E-01 0.91746771E+02</pdfrwt>
<pdfrwt beam="1">  1       -2 0.28650928E-02 0.91746771E+02</pdfrwt>
<totfact> 0.12524852E+05</totfact>
</mgrwt>
</event>
<event>
 5   1  0.1343823E+00  0.9215886E+02  0.7818608E-02  0.1297706E+00
         -2   -1    0    0    0  501 -0.00000000000E+00  0.00000000000E+00  0.27150970373E+02  0.27150970497E+02  0.26000000000E-02 0.  1.
          2   -1    0    0  501    0  0.00000000000E+00 -0.00000000000E+00 -0.78203973143E+02  0.78203973186E+02  0.26000000000E-02 0. -1.
         23    2    1    2    0    0  0.00000000000E+00  0.00000000000E+00 -0.51053002770E+02  0.10535494368E+03  0.92158857776E+02 0.  0.
        -13    1    3    3    0    0 -0.39631642103E+02  0.22547872496E+02 -0.33129262046E+02  0.56361625119E+02  0.10570000000E+00 0.  1.
         13    1    3    3    0    0  0.39631642103E+02 -0.22547872496E+02 -0.17923740724E+02  0.48993318564E+02  0.10570000000E+00 0. -1.
<mgrwt>
<rscale>  0 0.92158858E+02</rscale>
<asrwt>0</asrwt>
<pdfrwt beam="2">  1        2 0.12031380E-01 0.92158858E+02</pdfrwt>
<pdfrwt beam="1">  1       -2 0.41770724E-02 0.92158858E+02</pdfrwt>
<totfact> 0.11075736E+05</totfact>
</mgrwt>
</event>
<event>
 5   1  0.1343823E+00  0.9261823E+02  0.7818608E-02  0.1296632E+00
          2   -1    0    0  501    0  0.00000000000E+00  0.00000000000E+00  0.84799531701E+01  0.84799535686E+01  0.26000000000E-02 0. -1.
         -2   -1    0    0    0  501 -0.00000000000E+00 -0.00000000000E+00 -0.25289454036E+03  0.25289454037E+03  0.26000000000E-02 0.  1.
         23    2    1    2    0    0  0.00000000000E+00  0.00000000000E+00 -0.24441458719E+03  0.26137449394E+03  0.92618225270E+02 0.  0.
        -13    1    3    3    0    0  0.37573425293E+02  0.18377391860E+02 -0.66117628704E+02  0.78237093617E+02  0.10570000000E+00 0.  1.
         13    1    3    3    0    0 -0.37573425293E+02 -0.18377391860E+02 -0.17829695848E+03  0.18313740032E+03  0.10570000000E+00 0. -1.
<mgrwt>
<rscale>  0 0.92618225E+02</rscale>
<asrwt>0</asrwt>
<pdfrwt beam="1">  1        2 0.13046084E-02 0.92618225E+02</pdfrwt>
<pdfrwt beam="2">  1       -2 0.38906847E-01 0.92618225E+02</pdfrwt>
<totfact> 0.53647338E+04</totfact>
</mgrwt>
</event>
<event>
 5   1  0.1343823E+00  0.9242043E+02  0.7818608E-02  0.1297094E+00
          2   -1    0    0  501    0  0.00000000000E+00  0.00000000000E+00  0.17309604435E+03  0.17309604437E+03  0.26000000000E-02 0. -1.
         -2   -1    0    0    0  501 -0.00000000000E+00 -0.00000000000E+00 -0.12336411444E+02  0.12336411718E+02  0.26000000000E-02 0.  1.
         23    2    1    2    0    0  0.00000000000E+00  0.00000000000E+00  0.16075963291E+03  0.18543245609E+03  0.92420431716E+02 0.  0.
        -13    1    3    3    0    0  0.44117326728E+02 -0.68031287385E+01  0.10435205290E+03  0.11349882464E+03  0.10570000000E+00 0. -1.
         13    1    3    3    0    0 -0.44117326728E+02  0.68031287385E+01  0.56407580008E+02  0.71933631447E+02  0.10570000000E+00 0.  1.
<mgrwt>
<rscale>  0 0.92420432E+02</rscale>
<asrwt>0</asrwt>
<pdfrwt beam="1">  1        2 0.26630159E-01 0.92420432E+02</pdfrwt>
<pdfrwt beam="2">  1       -2 0.18979096E-02 0.92420432E+02</pdfrwt>
<totfact> 0.14161453E+05</totfact>
</mgrwt>
</event>
<event>
 5   1  0.1343823E+00  0.9975688E+02  0.7818608E-02  0.1280808E+00
          2   -1    0    0  501    0  0.00000000000E+00  0.00000000000E+00  0.79742815359E+02  0.79742815401E+02  0.26000000000E-02 0. -1.
         -2   -1    0    0    0  501 -0.00000000000E+00 -0.00000000000E+00 -0.31198529802E+02  0.31198529910E+02  0.26000000000E-02 0.  1.
         23    2    1    2    0    0  0.00000000000E+00  0.00000000000E+00  0.48544285557E+02  0.11094134531E+03  0.99756876651E+02 0.  0.
        -13    1    3    3    0    0  0.20644811469E+02 -0.28158027048E+02 -0.15341166987E+02  0.38137190574E+02  0.10570000000E+00 0.  1.
         13    1    3    3    0    0 -0.20644811469E+02  0.28158027048E+02  0.63885452544E+02  0.72804154738E+02  0.10570000000E+00 0. -1.
<mgrwt>
<rscale>  0 0.99756877E+02</rscale>
<asrwt>0</asrwt>
<pdfrwt beam="1">  1        2 0.12268125E-01 0.99756877E+02</pdfrwt>
<pdfrwt beam="2">  1       -2 0.47997739E-02 0.99756877E+02</pdfrwt>
<totfact> 0.89185668E+04</totfact>
</mgrwt>
</event>
<event>
 5   1  0.1343823E+00  0.9036520E+02  0.7818608E-02  0.1301970E+00
          2   -1    0    0  501    0  0.00000000000E+00  0.00000000000E+00  0.16162549238E+03  0.16162549240E+03  0.26000000000E-02 0. -1.
         -2   -1    0    0    0  501 -0.00000000000E+00 -0.00000000000E+00 -0.12630848975E+02  0.12630849243E+02  0.26000000000E-02 0.  1.
         23    2    1    2    0    0  0.00000000000E+00  0.00000000000E+00  0.14899464340E+03  0.17425634164E+03  0.90365197059E+02 0.  0.
        -13    1    3    3    0    0 -0.30667691413E+02  0.40992170312E+01  0.13799109104E+03  0.14141733718E+03  0.10570000000E+00 0. -1.
         13    1    3    3    0    0  0.30667691413E+02 -0.40992170312E+01  0.11003552366E+02  0.32839004462E+02  0.10570000000E+00 0.  1.
<mgrwt>
<rscale>  0 0.90365197E+02</rscale>
<asrwt>0</asrwt>
<pdfrwt beam="1">  1        2 0.24865459E-01 0.90365197E+02</pdfrwt>
<pdfrwt beam="2">  1       -2 0.19432077E-02 0.90365197E+02</pdfrwt>
<totfact> 0.14694776E+05</totfact>
</mgrwt>
</event>
