<event>
 5    1  0.1336420E-049  0.1250024E+03  0.7818608E-02  0.1235065E+00
         -1   -1    0    0    0  501 -0.00000000000E+00  0.00000000000E+00  0.18857538375E+03  0.18857538380E+03  0.46700000000E-02 0.  1.
          1   -1    0    0  501    0  0.00000000000E+00 -0.00000000000E+00 -0.20715333462E+02  0.20715333989E+02  0.46700000000E-02 0. -1.
         25    2    1    2    0    0  0.00000000000E+00  0.00000000000E+00  0.16786005028E+03  0.20929071779E+03  0.12500243227E+03 0.  0.
        -13    1    3    3    0    0 -0.29684410836E+02 -0.54461554255E+02  0.96808562247E+02  0.11497449298E+03  0.10570000000E+00 0.  1.
         13    1    3    3    0    0  0.29684410836E+02  0.54461554255E+02  0.71051488037E+02  0.94316224815E+02  0.10570000000E+00 0. -1.
<mgrwt>
<rscale>  0 0.12500243E+03</rscale>
<asrwt>0</asrwt>
<pdfrwt beam="2">  1        1 0.31869743E-02 0.12500243E+03</pdfrwt>
<pdfrwt beam="1">  1       -1 0.29011598E-01 0.12500243E+03</pdfrwt>
<totfact> 0.30832452E+04</totfact>
</mgrwt>
</event>
<event>
 5    1  0.1336420E-049  0.1250068E+03  0.7818608E-02  0.1235059E+00
         -1   -1    0    0    0  501 -0.00000000000E+00  0.00000000000E+00  0.16580420456E+02  0.16580421114E+02  0.46700000000E-02 0. -1.
          1   -1    0    0  501    0  0.00000000000E+00 -0.00000000000E+00 -0.23561986755E+03  0.23561986760E+03  0.46700000000E-02 0.  1.
         25    2    1    2    0    0  0.00000000000E+00  0.00000000000E+00 -0.21903944709E+03  0.25220028871E+03  0.12500682478E+03 0.  0.
        -13    1    3    3    0    0 -0.15194537293E+02 -0.59076002178E+02 -0.82018308869E+02  0.10221478444E+03  0.10570000000E+00 0. -1.
         13    1    3    3    0    0  0.15194537293E+02  0.59076002178E+02 -0.13702113822E+03  0.14998550427E+03  0.10570000000E+00 0.  1.
<mgrwt>
<rscale>  0 0.12500682E+03</rscale>
<asrwt>0</asrwt>
<pdfrwt beam="2">  1        1 0.36249208E-01 0.12500682E+03</pdfrwt>
<pdfrwt beam="1">  1       -1 0.25508341E-02 0.12500682E+03</pdfrwt>
<totfact> 0.51780389E+04</totfact>
</mgrwt>
</event>
<event>
 5    1  0.1336420E-049  0.1250019E+03  0.7818608E-02  0.1235066E+00
         -1   -1    0    0    0  501 -0.00000000000E+00  0.00000000000E+00  0.78493120631E+02  0.78493120770E+02  0.46700000000E-02 0.  1.
          1   -1    0    0  501    0  0.00000000000E+00 -0.00000000000E+00 -0.49767056698E+02  0.49767056917E+02  0.46700000000E-02 0. -1.
         25    2    1    2    0    0  0.00000000000E+00  0.00000000000E+00  0.28726063933E+02  0.12826017769E+03  0.12500194571E+03 0.  0.
        -13    1    3    3    0    0 -0.44074403793E+02 -0.38742043158E+02 -0.77119609798E+01  0.59186016021E+02  0.10570000000E+00 0. -1.
         13    1    3    3    0    0  0.44074403793E+02  0.38742043158E+02  0.36438024913E+02  0.69074161666E+02  0.10570000000E+00 0.  1.
<mgrwt>
<rscale>  0 0.12500195E+03</rscale>
<asrwt>0</asrwt>
<pdfrwt beam="2">  1        1 0.76564703E-02 0.12500195E+03</pdfrwt>
<pdfrwt beam="1">  1       -1 0.12075865E-01 0.12500195E+03</pdfrwt>
<totfact> 0.37834416E+04</totfact>
</mgrwt>
</event>
<event>
 5    1  0.1336420E-049  0.1249999E+03  0.7818608E-02  0.1235069E+00
          1   -1    0    0  501    0  0.00000000000E+00  0.00000000000E+00  0.15356978480E+03  0.15356978487E+03  0.46700000000E-02 0. -1.
         -1   -1    0    0    0  501 -0.00000000000E+00 -0.00000000000E+00 -0.25436272786E+02  0.25436273215E+02  0.46700000000E-02 0.  1.
         25    2    1    2    0    0  0.00000000000E+00  0.00000000000E+00  0.12813351201E+03  0.17900605809E+03  0.12499988772E+03 0.  0.
        -13    1    3    3    0    0 -0.45298623107E+02 -0.42577406304E+02  0.54849090240E+02  0.82904973648E+02  0.10570000000E+00 0.  1.
         13    1    3    3    0    0  0.45298623107E+02  0.42577406304E+02  0.73284421773E+02  0.96101084437E+02  0.10570000000E+00 0. -1.
<mgrwt>
<rscale>  0 0.12499989E+03</rscale>
<asrwt>0</asrwt>
<pdfrwt beam="1">  1        1 0.23626120E-01 0.12499989E+03</pdfrwt>
<pdfrwt beam="2">  1       -1 0.39132728E-02 0.12499989E+03</pdfrwt>
<totfact> 0.47293768E+04</totfact>
</mgrwt>
</event>
<event>
 5    1  0.1336420E-049  0.1250002E+03  0.7818608E-02  0.1235069E+00
         -1   -1    0    0    0  501 -0.00000000000E+00  0.00000000000E+00  0.91951343100E+01  0.91951354959E+01  0.46700000000E-02 0.  1.
          1   -1    0    0  501    0  0.00000000000E+00 -0.00000000000E+00 -0.42481868952E+03  0.42481868955E+03  0.46700000000E-02 0. -1.
         25    2    1    2    0    0  0.00000000000E+00  0.00000000000E+00 -0.41562355521E+03  0.43401382504E+03  0.12500024273E+03 0.  0.
        -13    1    3    3    0    0  0.55041622025E+02  0.28213015173E+02 -0.17662083885E+03  0.18713761319E+03  0.10570000000E+00 0. -1.
         13    1    3    3    0    0 -0.55041622025E+02 -0.28213015173E+02 -0.23900271636E+03  0.24687621185E+03  0.10570000000E+00 0.  1.
<mgrwt>
<rscale>  0 0.12500024E+03</rscale>
<asrwt>0</asrwt>
<pdfrwt beam="2">  1        1 0.65356706E-01 0.12500024E+03</pdfrwt>
<pdfrwt beam="1">  1       -1 0.14146365E-02 0.12500024E+03</pdfrwt>
<totfact> 0.58162135E+04</totfact>
</mgrwt>
</event>
<event>
 5    1  0.1336420E-049  0.1249977E+03  0.7818608E-02  0.1235073E+00
         -1   -1    0    0    0  501 -0.00000000000E+00  0.00000000000E+00  0.17193436559E+02  0.17193437193E+02  0.46700000000E-02 0. -1.
          1   -1    0    0  501    0  0.00000000000E+00 -0.00000000000E+00 -0.22718579275E+03  0.22718579280E+03  0.46700000000E-02 0.  1.
         25    2    1    2    0    0  0.00000000000E+00  0.00000000000E+00 -0.20999235619E+03  0.24437922999E+03  0.12499767355E+03 0.  0.
        -13    1    3    3    0    0 -0.47263766542E+02  0.82915263369E+01 -0.26708360165E+02  0.54917763173E+02  0.10570000000E+00 0. -1.
         13    1    3    3    0    0  0.47263766542E+02 -0.82915263369E+01 -0.18328399603E+03  0.18946146682E+03  0.10570000000E+00 0.  1.
<mgrwt>
<rscale>  0 0.12499767E+03</rscale>
<asrwt>0</asrwt>
<pdfrwt beam="2">  1        1 0.34951658E-01 0.12499767E+03</pdfrwt>
<pdfrwt beam="1">  1       -1 0.26451443E-02 0.12499767E+03</pdfrwt>
<totfact> 0.51390540E+04</totfact>
</mgrwt>
</event>
<event>
 5    1  0.1336420E-049  0.1250053E+03  0.7818608E-02  0.1235061E+00
          1   -1    0    0  501    0  0.00000000000E+00  0.00000000000E+00  0.18922544638E+03  0.18922544644E+03  0.46700000000E-02 0. -1.
         -1   -1    0    0    0  501 -0.00000000000E+00 -0.00000000000E+00 -0.20645108876E+02  0.20645109404E+02  0.46700000000E-02 0.  1.
         25    2    1    2    0    0  0.00000000000E+00  0.00000000000E+00  0.16858033751E+03  0.20987055585E+03  0.12500527995E+03 0.  0.
        -13    1    3    3    0    0  0.50412295560E+02 -0.34573504341E+02  0.62410244570E+02  0.87360039754E+02  0.10570000000E+00 0.  1.
         13    1    3    3    0    0 -0.50412295560E+02  0.34573504341E+02  0.10617009294E+03  0.12251051609E+03  0.10570000000E+00 0. -1.
<mgrwt>
<rscale>  0 0.12500528E+03</rscale>
<asrwt>0</asrwt>
<pdfrwt beam="1">  1        1 0.29111608E-01 0.12500528E+03</pdfrwt>
<pdfrwt beam="2">  1       -1 0.31761705E-02 0.12500528E+03</pdfrwt>
<totfact> 0.49414940E+04</totfact>
</mgrwt>
</event>
<event>
 5    1  0.1336420E-049  0.1250000E+03  0.7818608E-02  0.1235069E+00
          1   -1    0    0  501    0  0.00000000000E+00  0.00000000000E+00  0.77136747946E+02  0.77136748088E+02  0.46700000000E-02 0. -1.
         -1   -1    0    0    0  501 -0.00000000000E+00 -0.00000000000E+00 -0.50640589532E+02  0.50640589747E+02  0.46700000000E-02 0.  1.
         25    2    1    2    0    0  0.00000000000E+00  0.00000000000E+00  0.26496158414E+02  0.12777733784E+03  0.12500000661E+03 0.  0.
        -13    1    3    3    0    0 -0.42024032552E+02 -0.42696601880E+02  0.31454482557E+02  0.67663984286E+02  0.10570000000E+00 0. -1.
         13    1    3    3    0    0  0.42024032552E+02  0.42696601880E+02 -0.49583241430E+01  0.60113353549E+02  0.10570000000E+00 0.  1.
<mgrwt>
<rscale>  0 0.12500001E+03</rscale>
<asrwt>0</asrwt>
<pdfrwt beam="1">  1        1 0.11867192E-01 0.12500001E+03</pdfrwt>
<pdfrwt beam="2">  1       -1 0.77908600E-02 0.12500001E+03</pdfrwt>
<totfact> 0.41213049E+04</totfact>
</mgrwt>
</event>
<event>
 5    1  0.1336420E-049  0.1250003E+03  0.7818608E-02  0.1235069E+00
         -1   -1    0    0    0  501 -0.00000000000E+00  0.00000000000E+00  0.11898775679E+03  0.11898775688E+03  0.46700000000E-02 0.  1.
          1   -1    0    0  501    0  0.00000000000E+00 -0.00000000000E+00 -0.32829190191E+02  0.32829190523E+02  0.46700000000E-02 0. -1.
         25    2    1    2    0    0  0.00000000000E+00  0.00000000000E+00  0.86158566598E+02  0.15181694740E+03  0.12500034768E+03 0.  0.
        -13    1    3    3    0    0  0.72185905866E+00  0.62311978322E+02  0.37260059784E+02  0.72605970488E+02  0.10570000000E+00 0.  1.
         13    1    3    3    0    0 -0.72185905866E+00 -0.62311978322E+02  0.48898506814E+02  0.79210976917E+02  0.10570000000E+00 0. -1.
<mgrwt>
<rscale>  0 0.12500035E+03</rscale>
<asrwt>0</asrwt>
<pdfrwt beam="2">  1        1 0.50506447E-02 0.12500035E+03</pdfrwt>
<pdfrwt beam="1">  1       -1 0.18305809E-01 0.12500035E+03</pdfrwt>
<totfact> 0.34657561E+04</totfact>
</mgrwt>
</event>
<event>
 5    1  0.1336420E-049  0.1249997E+03  0.7818608E-02  0.1235070E+00
          1   -1    0    0  501    0  0.00000000000E+00  0.00000000000E+00  0.44960360105E+03  0.44960360107E+03  0.46700000000E-02 0. -1.
         -1   -1    0    0    0  501 -0.00000000000E+00 -0.00000000000E+00 -0.86881687971E+01  0.86881700522E+01  0.46700000000E-02 0.  1.
         25    2    1    2    0    0  0.00000000000E+00  0.00000000000E+00  0.44091543225E+03  0.45829177112E+03  0.12499971633E+03 0.  0.
        -13    1    3    3    0    0 -0.55165278101E+02 -0.18133189264E+02  0.13571834574E+03  0.14761944657E+03  0.10570000000E+00 0.  1.
         13    1    3    3    0    0  0.55165278101E+02  0.18133189264E+02  0.30519708651E+03  0.31067232456E+03  0.10570000000E+00 0. -1.
<mgrwt>
<rscale>  0 0.12499972E+03</rscale>
<asrwt>0</asrwt>
<pdfrwt beam="1">  1        1 0.69169784E-01 0.12499972E+03</pdfrwt>
<pdfrwt beam="2">  1       -1 0.13366415E-02 0.12499972E+03</pdfrwt>
<totfact> 0.58687389E+04</totfact>
</mgrwt>
</event>
<event>
 5    1  0.1336420E-049  0.1249990E+03  0.7818608E-02  0.1235071E+00
          1   -1    0    0  501    0  0.00000000000E+00  0.00000000000E+00  0.37249295686E+02  0.37249295978E+02  0.46700000000E-02 0.  1.
         -1   -1    0    0    0  501 -0.00000000000E+00 -0.00000000000E+00 -0.10486607287E+03  0.10486607297E+03  0.46700000000E-02 0. -1.
         25    2    1    2    0    0  0.00000000000E+00  0.00000000000E+00 -0.67616777181E+02  0.14211536895E+03  0.12499899814E+03 0.  0.
        -13    1    3    3    0    0 -0.11180525561E+02  0.61446861433E+02 -0.31152908694E+02  0.69794239192E+02  0.10570000000E+00 0. -1.
         13    1    3    3    0    0  0.11180525561E+02 -0.61446861433E+02 -0.36463868487E+02  0.72321129757E+02  0.10570000000E+00 0.  1.
<mgrwt>
<rscale>  0 0.12499900E+03</rscale>
<asrwt>0</asrwt>
<pdfrwt beam="1">  1        1 0.57306609E-02 0.12499900E+03</pdfrwt>
<pdfrwt beam="2">  1       -1 0.16133242E-01 0.12499900E+03</pdfrwt>
<totfact> 0.35637704E+04</totfact>
</mgrwt>
</event>
<event>
 5    1  0.1398708E-049  0.1250126E+03  0.7818608E-02  0.1235050E+00
         -1   -1    0    0    0  501 -0.00000000000E+00  0.00000000000E+00  0.39173669398E+02  0.39173669676E+02  0.46700000000E-02 0.  1.
          1   -1    0    0  501    0  0.00000000000E+00 -0.00000000000E+00 -0.99736346957E+02  0.99736347066E+02  0.46700000000E-02 0. -1.
         25    2    1    2    0    0  0.00000000000E+00  0.00000000000E+00 -0.60562677559E+02  0.13891001674E+03  0.12501261872E+03 0.  0.
        -13    1    3    3    0    0 -0.51963595902E+02  0.12558380293E+02  0.57091723304E+01  0.53763686963E+02  0.10570000000E+00 0.  1.
         13    1    3    3    0    0  0.51963595902E+02 -0.12558380293E+02 -0.66271849889E+02  0.85146329779E+02  0.10570000000E+00 0. -1.
<mgrwt>
<rscale>  0 0.12501262E+03</rscale>
<asrwt>0</asrwt>
<pdfrwt beam="2">  1        1 0.15344053E-01 0.12501262E+03</pdfrwt>
<pdfrwt beam="1">  1       -1 0.60267184E-02 0.12501262E+03</pdfrwt>
<totfact> 0.43319865E+04</totfact>
</mgrwt>
</event>
<event>
 5    1  0.1336420E-049  0.1249995E+03  0.7818608E-02  0.1235070E+00
         -1   -1    0    0    0  501 -0.00000000000E+00  0.00000000000E+00  0.19761023447E+02  0.19761023999E+02  0.46700000000E-02 0.  1.
          1   -1    0    0  501    0  0.00000000000E+00 -0.00000000000E+00 -0.19767278448E+03  0.19767278454E+03  0.46700000000E-02 0. -1.
         25    2    1    2    0    0  0.00000000000E+00  0.00000000000E+00 -0.17791176103E+03  0.21743380853E+03  0.12499946552E+03 0.  0.
        -13    1    3    3    0    0  0.48621942041E+02  0.14013979428E+02 -0.15276699944E+03  0.16092933902E+03  0.10570000000E+00 0. -1.
         13    1    3    3    0    0 -0.48621942041E+02 -0.14013979428E+02 -0.25144761598E+02  0.56504469518E+02  0.10570000000E+00 0.  1.
<mgrwt>
<rscale>  0 0.12499947E+03</rscale>
<asrwt>0</asrwt>
<pdfrwt beam="2">  1        1 0.30411196E-01 0.12499947E+03</pdfrwt>
<pdfrwt beam="1">  1       -1 0.30401576E-02 0.12499947E+03</pdfrwt>
<totfact> 0.49884170E+04</totfact>
</mgrwt>
</event>
<event>
 5    1  0.1336420E-049  0.1250000E+03  0.7818608E-02  0.1235069E+00
         -1   -1    0    0    0  501 -0.00000000000E+00  0.00000000000E+00  0.67881556967E+02  0.67881557127E+02  0.46700000000E-02 0.  1.
          1   -1    0    0  501    0  0.00000000000E+00 -0.00000000000E+00 -0.57545070139E+02  0.57545070328E+02  0.46700000000E-02 0. -1.
         25    2    1    2    0    0  0.00000000000E+00  0.00000000000E+00  0.10336486828E+02  0.12542662746E+03  0.12499998366E+03 0.  0.
        -13    1    3    3    0    0 -0.11767409840E+02 -0.59330792761E+02  0.20957991215E+02  0.64014556721E+02  0.10570000000E+00 0.  1.
         13    1    3    3    0    0  0.11767409840E+02  0.59330792761E+02 -0.10621504387E+02  0.61412070734E+02  0.10570000000E+00 0. -1.
<mgrwt>
<rscale>  0 0.12499998E+03</rscale>
<asrwt>0</asrwt>
<pdfrwt beam="2">  1        1 0.88530877E-02 0.12499998E+03</pdfrwt>
<pdfrwt beam="1">  1       -1 0.10443317E-01 0.12499998E+03</pdfrwt>
<totfact> 0.38936362E+04</totfact>
</mgrwt>
</event>
<event>
 5    1  0.1336420E-049  0.1249981E+03  0.7818608E-02  0.1235072E+00
          1   -1    0    0  501    0  0.00000000000E+00  0.00000000000E+00  0.77741459319E+02  0.77741459460E+02  0.46700000000E-02 0.  1.
         -1   -1    0    0    0  501 -0.00000000000E+00 -0.00000000000E+00 -0.50245125763E+02  0.50245125980E+02  0.46700000000E-02 0. -1.
         25    2    1    2    0    0  0.00000000000E+00  0.00000000000E+00  0.27496333557E+02  0.12798658544E+03  0.12499807076E+03 0.  0.
        -13    1    3    3    0    0  0.53118267654E+02 -0.47720415964E+01 -0.19616099998E+02  0.56825393014E+02  0.10570000000E+00 0. -1.
         13    1    3    3    0    0 -0.53118267654E+02  0.47720415964E+01  0.47112433555E+02  0.71161192426E+02  0.10570000000E+00 0.  1.
<mgrwt>
<rscale>  0 0.12499807E+03</rscale>
<asrwt>0</asrwt>
<pdfrwt beam="1">  1        1 0.11960225E-01 0.12499807E+03</pdfrwt>
<pdfrwt beam="2">  1       -1 0.77300194E-02 0.12499807E+03</pdfrwt>
<totfact> 0.41277227E+04</totfact>
</mgrwt>
</event>
<event>
 5    1  0.1336420E-049  0.1250019E+03  0.7818608E-02  0.1235066E+00
          1   -1    0    0  501    0  0.00000000000E+00  0.00000000000E+00  0.46193912824E+03  0.46193912826E+03  0.46700000000E-02 0. -1.
         -1   -1    0    0    0  501 -0.00000000000E+00 -0.00000000000E+00 -0.84564638948E+01  0.84564651843E+01  0.46700000000E-02 0.  1.
         25    2    1    2    0    0  0.00000000000E+00  0.00000000000E+00  0.45348266435E+03  0.47039559345E+03  0.12500194988E+03 0.  0.
        -13    1    3    3    0    0  0.46009422650E+02 -0.32795747053E+02  0.32728971590E+03  0.33213099419E+03  0.10570000000E+00 0. -1.
         13    1    3    3    0    0 -0.46009422650E+02  0.32795747053E+02  0.12619294845E+03  0.13826459926E+03  0.10570000000E+00 0.  1.
<mgrwt>
<rscale>  0 0.12500195E+03</rscale>
<asrwt>0</asrwt>
<pdfrwt beam="1">  1        1 0.71067562E-01 0.12500195E+03</pdfrwt>
<pdfrwt beam="2">  1       -1 0.13009945E-02 0.12500195E+03</pdfrwt>
<totfact> 0.58922295E+04</totfact>
</mgrwt>
</event>
<event>
 5    1  0.1336420E-049  0.1249990E+03  0.7818608E-02  0.1235071E+00
          1   -1    0    0  501    0  0.00000000000E+00  0.00000000000E+00  0.26919038232E+02  0.26919038637E+02  0.46700000000E-02 0. -1.
         -1   -1    0    0    0  501 -0.00000000000E+00 -0.00000000000E+00 -0.14510876878E+03  0.14510876886E+03  0.46700000000E-02 0.  1.
         25    2    1    2    0    0  0.00000000000E+00  0.00000000000E+00 -0.11818973055E+03  0.17202780750E+03  0.12499901657E+03 0.  0.
        -13    1    3    3    0    0 -0.77669541260E+01 -0.47149077912E+02 -0.36544173418E+01  0.47924180358E+02  0.10570000000E+00 0. -1.
         13    1    3    3    0    0  0.77669541260E+01  0.47149077912E+02 -0.11453531321E+03  0.12410362714E+03  0.10570000000E+00 0.  1.
<mgrwt>
<rscale>  0 0.12499902E+03</rscale>
<asrwt>0</asrwt>
<pdfrwt beam="1">  1        1 0.41413906E-02 0.12499902E+03</pdfrwt>
<pdfrwt beam="2">  1       -1 0.22324425E-01 0.12499902E+03</pdfrwt>
<totfact> 0.33069009E+04</totfact>
</mgrwt>
</event>
<event>
 5    1  0.1336420E-049  0.1250007E+03  0.7818608E-02  0.1235068E+00
         -1   -1    0    0    0  501 -0.00000000000E+00  0.00000000000E+00  0.10517348776E+03  0.10517348787E+03  0.46700000000E-02 0.  1.
          1   -1    0    0  501    0  0.00000000000E+00 -0.00000000000E+00 -0.37141413205E+02  0.37141413499E+02  0.46700000000E-02 0. -1.
         25    2    1    2    0    0  0.00000000000E+00  0.00000000000E+00  0.68032074558E+02  0.14231490137E+03  0.12500067193E+03 0.  0.
        -13    1    3    3    0    0 -0.36052392957E+02 -0.27009877462E+02  0.83341022168E+02  0.94736717628E+02  0.10570000000E+00 0.  1.
         13    1    3    3    0    0  0.36052392957E+02  0.27009877462E+02 -0.15308947610E+02  0.47578183738E+02  0.10570000000E+00 0. -1.
<mgrwt>
<rscale>  0 0.12500067E+03</rscale>
<asrwt>0</asrwt>
<pdfrwt beam="2">  1        1 0.57140637E-02 0.12500067E+03</pdfrwt>
<pdfrwt beam="1">  1       -1 0.16180536E-01 0.12500067E+03</pdfrwt>
<totfact> 0.35613981E+04</totfact>
</mgrwt>
</event>
<event>
 5    1  0.1336420E-049  0.1249998E+03  0.7818608E-02  0.1235070E+00
         -1   -1    0    0    0  501 -0.00000000000E+00  0.00000000000E+00  0.26826955232E+02  0.26826955639E+02  0.46700000000E-02 0.  1.
          1   -1    0    0  501    0  0.00000000000E+00 -0.00000000000E+00 -0.14560860717E+03  0.14560860724E+03  0.46700000000E-02 0. -1.
         25    2    1    2    0    0  0.00000000000E+00  0.00000000000E+00 -0.11878165194E+03  0.17243556288E+03  0.12499977004E+03 0.  0.
        -13    1    3    3    0    0 -0.20513614763E+02 -0.58966391599E+02 -0.55397282187E+02  0.83466842369E+02  0.10570000000E+00 0.  1.
         13    1    3    3    0    0  0.20513614763E+02  0.58966391599E+02 -0.63384369748E+02  0.88968720513E+02  0.10570000000E+00 0. -1.
<mgrwt>
<rscale>  0 0.12499977E+03</rscale>
<asrwt>0</asrwt>
<pdfrwt beam="2">  1        1 0.22401324E-01 0.12499977E+03</pdfrwt>
<pdfrwt beam="1">  1       -1 0.41272240E-02 0.12499977E+03</pdfrwt>
<totfact> 0.46774215E+04</totfact>
</mgrwt>
</event>
<event>
 5    1  0.1336420E-049  0.1250007E+03  0.7818608E-02  0.1235068E+00
          1   -1    0    0  501    0  0.00000000000E+00  0.00000000000E+00  0.14886833281E+03  0.14886833288E+03  0.46700000000E-02 0. -1.
         -1   -1    0    0    0  501 -0.00000000000E+00 -0.00000000000E+00 -0.26239922374E+02  0.26239922789E+02  0.46700000000E-02 0.  1.
         25    2    1    2    0    0  0.00000000000E+00  0.00000000000E+00  0.12262841043E+03  0.17510825567E+03  0.12500069663E+03 0.  0.
        -13    1    3    3    0    0  0.33095567961E+02  0.52944638392E+02  0.57394050654E+02  0.84808841379E+02  0.10570000000E+00 0.  1.
         13    1    3    3    0    0 -0.33095567961E+02 -0.52944638392E+02  0.65234359780E+02  0.90299414292E+02  0.10570000000E+00 0. -1.
<mgrwt>
<rscale>  0 0.12500070E+03</rscale>
<asrwt>0</asrwt>
<pdfrwt beam="1">  1        1 0.22902821E-01 0.12500070E+03</pdfrwt>
<pdfrwt beam="2">  1       -1 0.40369111E-02 0.12500070E+03</pdfrwt>
<totfact> 0.46988288E+04</totfact>
</mgrwt>
</event>
<event>
 5    1  0.1336420E-049  0.1249990E+03  0.7818608E-02  0.1235071E+00
          1   -1    0    0  501    0  0.00000000000E+00  0.00000000000E+00  0.22107198468E+03  0.22107198473E+03  0.46700000000E-02 0. -1.
         -1   -1    0    0    0  501 -0.00000000000E+00 -0.00000000000E+00 -0.17669297012E+02  0.17669297629E+02  0.46700000000E-02 0.  1.
         25    2    1    2    0    0  0.00000000000E+00  0.00000000000E+00  0.20340268766E+03  0.23874128236E+03  0.12499898620E+03 0.  0.
        -13    1    3    3    0    0 -0.47424138270E+02 -0.31901949930E+02  0.53406064001E+02  0.78224050935E+02  0.10570000000E+00 0.  1.
         13    1    3    3    0    0  0.47424138270E+02  0.31901949930E+02  0.14999662366E+03  0.16051723142E+03  0.10570000000E+00 0. -1.
<mgrwt>
<rscale>  0 0.12499899E+03</rscale>
<asrwt>0</asrwt>
<pdfrwt beam="1">  1        1 0.34011075E-01 0.12499899E+03</pdfrwt>
<pdfrwt beam="2">  1       -1 0.27183534E-02 0.12499899E+03</pdfrwt>
<totfact> 0.51090974E+04</totfact>
</mgrwt>
</event>
<event>
 5    1  0.1336420E-049  0.1250010E+03  0.7818608E-02  0.1235068E+00
         -1   -1    0    0    0  501 -0.00000000000E+00  0.00000000000E+00  0.10934886886E+02  0.10934887883E+02  0.46700000000E-02 0.  1.
          1   -1    0    0  501    0  0.00000000000E+00 -0.00000000000E+00 -0.35723409095E+03  0.35723409098E+03  0.46700000000E-02 0. -1.
         25    2    1    2    0    0  0.00000000000E+00  0.00000000000E+00 -0.34629920406E+03  0.36816897886E+03  0.12500103304E+03 0.  0.
        -13    1    3    3    0    0 -0.31435311921E+01  0.54749204443E+02 -0.26145768265E+03  0.26714694115E+03  0.10570000000E+00 0. -1.
         13    1    3    3    0    0  0.31435311921E+01 -0.54749204443E+02 -0.84841521406E+02  0.10102203771E+03  0.10570000000E+00 0.  1.
<mgrwt>
<rscale>  0 0.12500103E+03</rscale>
<asrwt>0</asrwt>
<pdfrwt beam="2">  1        1 0.54959082E-01 0.12500103E+03</pdfrwt>
<pdfrwt beam="1">  1       -1 0.16822906E-02 0.12500103E+03</pdfrwt>
<totfact> 0.56395758E+04</totfact>
</mgrwt>
</event>
<event>
 5    1  0.1336420E-049  0.1249997E+03  0.7818608E-02  0.1235070E+00
          1   -1    0    0  501    0  0.00000000000E+00  0.00000000000E+00  0.17620262262E+03  0.17620262268E+03  0.46700000000E-02 0. -1.
         -1   -1    0    0    0  501 -0.00000000000E+00 -0.00000000000E+00 -0.22168981994E+02  0.22168982486E+02  0.46700000000E-02 0.  1.
         25    2    1    2    0    0  0.00000000000E+00  0.00000000000E+00  0.15403364062E+03  0.19837160516E+03  0.12499972517E+03 0.  0.
        -13    1    3    3    0    0 -0.56908087289E+02  0.14459682001E+02  0.43031476793E+02  0.72796510699E+02  0.10570000000E+00 0.  1.
         13    1    3    3    0    0  0.56908087289E+02 -0.14459682001E+02  0.11100216383E+03  0.12557509446E+03  0.10570000000E+00 0. -1.
<mgrwt>
<rscale>  0 0.12499973E+03</rscale>
<asrwt>0</asrwt>
<pdfrwt beam="1">  1        1 0.27108095E-01 0.12499973E+03</pdfrwt>
<pdfrwt beam="2">  1       -1 0.34106128E-02 0.12499973E+03</pdfrwt>
<totfact> 0.48677259E+04</totfact>
</mgrwt>
</event>
<event>
 5    1  0.1336420E-049  0.1249949E+03  0.7818608E-02  0.1235077E+00
          1   -1    0    0  501    0  0.00000000000E+00  0.00000000000E+00  0.16406145691E+03  0.16406145698E+03  0.46700000000E-02 0. -1.
         -1   -1    0    0    0  501 -0.00000000000E+00 -0.00000000000E+00 -0.23807724731E+02  0.23807725189E+02  0.46700000000E-02 0.  1.
         25    2    1    2    0    0  0.00000000000E+00  0.00000000000E+00  0.14025373218E+03  0.18786918216E+03  0.12499488076E+03 0.  0.
        -13    1    3    3    0    0  0.16067326882E+02 -0.57458900231E+02  0.98094040885E+02  0.11481348457E+03  0.10570000000E+00 0.  1.
         13    1    3    3    0    0 -0.16067326882E+02  0.57458900231E+02  0.42159691293E+02  0.73055697597E+02  0.10570000000E+00 0. -1.
<mgrwt>
<rscale>  0 0.12499488E+03</rscale>
<asrwt>0</asrwt>
<pdfrwt beam="1">  1        1 0.25240225E-01 0.12499488E+03</pdfrwt>
<pdfrwt beam="2">  1       -1 0.36627268E-02 0.12499488E+03</pdfrwt>
<totfact> 0.47956736E+04</totfact>
</mgrwt>
</event>
<event>
 5    1  0.1336420E-049  0.1249951E+03  0.7818608E-02  0.1235077E+00
          1   -1    0    0  501    0  0.00000000000E+00  0.00000000000E+00  0.22770695477E+03  0.22770695482E+03  0.46700000000E-02 0. -1.
         -1   -1    0    0    0  501 -0.00000000000E+00 -0.00000000000E+00 -0.17153368267E+02  0.17153368903E+02  0.46700000000E-02 0.  1.
         25    2    1    2    0    0  0.00000000000E+00  0.00000000000E+00  0.21055358650E+03  0.24486032372E+03  0.12499506128E+03 0.  0.
        -13    1    3    3    0    0 -0.34252797614E+02 -0.28772290995E+02  0.19779212953E+02  0.48911423114E+02  0.10570000000E+00 0.  1.
         13    1    3    3    0    0  0.34252797614E+02  0.28772290995E+02  0.19077437355E+03  0.19594890060E+03  0.10570000000E+00 0. -1.
<mgrwt>
<rscale>  0 0.12499506E+03</rscale>
<asrwt>0</asrwt>
<pdfrwt beam="1">  1        1 0.35031835E-01 0.12499506E+03</pdfrwt>
<pdfrwt beam="2">  1       -1 0.26389801E-02 0.12499506E+03</pdfrwt>
<totfact> 0.51418619E+04</totfact>
</mgrwt>
</event>
<event>
 5    1  0.1336420E-049  0.1249966E+03  0.7818608E-02  0.1235075E+00
         -1   -1    0    0    0  501 -0.00000000000E+00  0.00000000000E+00  0.25713415325E+03  0.25713415330E+03  0.46700000000E-02 0.  1.
          1   -1    0    0  501    0  0.00000000000E+00 -0.00000000000E+00 -0.15190667483E+02  0.15190668201E+02  0.46700000000E-02 0. -1.
         25    2    1    2    0    0  0.00000000000E+00  0.00000000000E+00  0.24194348577E+03  0.27232482150E+03  0.12499663234E+03 0.  0.
        -13    1    3    3    0    0  0.52797714505E+02 -0.31157325755E+02  0.14744496105E+03  0.15968220100E+03  0.10570000000E+00 0.  1.
         13    1    3    3    0    0 -0.52797714505E+02  0.31157325755E+02  0.94498524722E+02  0.11264262050E+03  0.10570000000E+00 0. -1.
<mgrwt>
<rscale>  0 0.12499663E+03</rscale>
<asrwt>0</asrwt>
<pdfrwt beam="2">  1        1 0.23370260E-02 0.12499663E+03</pdfrwt>
<pdfrwt beam="1">  1       -1 0.39559097E-01 0.12499663E+03</pdfrwt>
<totfact> 0.27917051E+04</totfact>
</mgrwt>
</event>
<event>
 5    1  0.1336420E-049  0.1249998E+03  0.7818608E-02  0.1235070E+00
          1   -1    0    0  501    0  0.00000000000E+00  0.00000000000E+00  0.49090963496E+03  0.49090963498E+03  0.46700000000E-02 0. -1.
         -1   -1    0    0    0  501 -0.00000000000E+00 -0.00000000000E+00 -0.79571426258E+01  0.79571439961E+01  0.46700000000E-02 0.  1.
         25    2    1    2    0    0  0.00000000000E+00  0.00000000000E+00  0.48295249234E+03  0.49886677898E+03  0.12499981327E+03 0.  0.
        -13    1    3    3    0    0  0.57210010603E+02 -0.18200358003E+02  0.17212238472E+03  0.18229197689E+03  0.10570000000E+00 0.  1.
         13    1    3    3    0    0 -0.57210010603E+02  0.18200358003E+02  0.31083010762E+03  0.31657480209E+03  0.10570000000E+00 0. -1.
<mgrwt>
<rscale>  0 0.12499981E+03</rscale>
<asrwt>0</asrwt>
<pdfrwt beam="1">  1        1 0.75524541E-01 0.12499981E+03</pdfrwt>
<pdfrwt beam="2">  1       -1 0.12241762E-02 0.12499981E+03</pdfrwt>
<totfact> 0.59425298E+04</totfact>
</mgrwt>
</event>
<event>
 5    1  0.1336420E-049  0.1249983E+03  0.7818608E-02  0.1235072E+00
         -1   -1    0    0    0  501 -0.00000000000E+00  0.00000000000E+00  0.54042132430E+03  0.54042132432E+03  0.46700000000E-02 0.  1.
          1   -1    0    0  501    0  0.00000000000E+00 -0.00000000000E+00 -0.72279537756E+01  0.72279552842E+01  0.46700000000E-02 0. -1.
         25    2    1    2    0    0  0.00000000000E+00  0.00000000000E+00  0.53319337053E+03  0.54764927961E+03  0.12499825231E+03 0.  0.
        -13    1    3    3    0    0 -0.67187087046E+01  0.61901683050E+02  0.29025959695E+03  0.29686293841E+03  0.10570000000E+00 0.  1.
         13    1    3    3    0    0  0.67187087046E+01 -0.61901683050E+02  0.24293377358E+03  0.25078634120E+03  0.10570000000E+00 0. -1.
<mgrwt>
<rscale>  0 0.12499825E+03</rscale>
<asrwt>0</asrwt>
<pdfrwt beam="2">  1        1 0.11119928E-02 0.12499825E+03</pdfrwt>
<pdfrwt beam="1">  1       -1 0.83141754E-01 0.12499825E+03</pdfrwt>
<totfact> 0.19371023E+04</totfact>
</mgrwt>
</event>
<event>
 5    1  0.1336420E-049  0.1249724E+03  0.7818608E-02  0.1235112E+00
         -1   -1    0    0    0  501 -0.00000000000E+00  0.00000000000E+00  0.50500734591E+02  0.50500734807E+02  0.46700000000E-02 0.  1.
          1   -1    0    0  501    0  0.00000000000E+00 -0.00000000000E+00 -0.77316225067E+02  0.77316225208E+02  0.46700000000E-02 0. -1.
         25    2    1    2    0    0  0.00000000000E+00  0.00000000000E+00 -0.26815490476E+02  0.12781696002E+03  0.12497241591E+03 0.  0.
        -13    1    3    3    0    0 -0.56807011070E+02 -0.19742055691E+02  0.39409451739E+01  0.60268793675E+02  0.10570000000E+00 0.  1.
         13    1    3    3    0    0  0.56807011070E+02  0.19742055691E+02 -0.30756435650E+02  0.67548166341E+02  0.10570000000E+00 0. -1.
<mgrwt>
<rscale>  0 0.12497242E+03</rscale>
<asrwt>0</asrwt>
<pdfrwt beam="2">  1        1 0.11894804E-01 0.12497242E+03</pdfrwt>
<pdfrwt beam="1">  1       -1 0.77693438E-02 0.12497242E+03</pdfrwt>
<totfact> 0.41257841E+04</totfact>
</mgrwt>
</event>
<event>
 5    1  0.1336420E-049  0.1249982E+03  0.7818608E-02  0.1235072E+00
         -1   -1    0    0    0  501 -0.00000000000E+00  0.00000000000E+00  0.10377736825E+02  0.10377737876E+02  0.46700000000E-02 0.  1.
          1   -1    0    0  501    0  0.00000000000E+00 -0.00000000000E+00 -0.37639610922E+03  0.37639610924E+03  0.46700000000E-02 0. -1.
         25    2    1    2    0    0  0.00000000000E+00  0.00000000000E+00 -0.36601837239E+03  0.38677384712E+03  0.12499823954E+03 0.  0.
        -13    1    3    3    0    0  0.34199429668E+02 -0.49281096442E+02 -0.23730408097E+03  0.24476818722E+03  0.10570000000E+00 0.  1.
         13    1    3    3    0    0 -0.34199429668E+02  0.49281096442E+02 -0.12871429142E+03  0.14200565990E+03  0.10570000000E+00 0. -1.
<mgrwt>
<rscale>  0 0.12499824E+03</rscale>
<asrwt>0</asrwt>
<pdfrwt beam="2">  1        1 0.57907083E-01 0.12499824E+03</pdfrwt>
<pdfrwt beam="1">  1       -1 0.15965753E-02 0.12499824E+03</pdfrwt>
<totfact> 0.56949670E+04</totfact>
</mgrwt>
</event>
<event>
 5    1  0.1336420E-049  0.1250319E+03  0.7818608E-02  0.1235019E+00
         -1   -1    0    0    0  501 -0.00000000000E+00  0.00000000000E+00  0.85000536960E+01  0.85000549789E+01  0.46700000000E-02 0.  1.
          1   -1    0    0  501    0  0.00000000000E+00 -0.00000000000E+00 -0.45979082959E+03  0.45979082961E+03  0.46700000000E-02 0. -1.
         25    2    1    2    0    0  0.00000000000E+00  0.00000000000E+00 -0.45129077589E+03  0.46829088459E+03  0.12503194866E+03 0.  0.
        -13    1    3    3    0    0  0.50279719992E+02  0.25684401534E+02 -0.32617889612E+03  0.33102933733E+03  0.10570000000E+00 0. -1.
         13    1    3    3    0    0 -0.50279719992E+02 -0.25684401534E+02 -0.12511187977E+03  0.13726154726E+03  0.10570000000E+00 0.  1.
<mgrwt>
<rscale>  0 0.12503195E+03</rscale>
<asrwt>0</asrwt>
<pdfrwt beam="2">  1        1 0.70737031E-01 0.12503195E+03</pdfrwt>
<pdfrwt beam="1">  1       -1 0.13077010E-02 0.12503195E+03</pdfrwt>
<totfact> 0.58843322E+04</totfact>
</mgrwt>
</event>
<event>
 5    1  0.1336420E-049  0.1250008E+03  0.7818608E-02  0.1235068E+00
         -1   -1    0    0    0  501 -0.00000000000E+00  0.00000000000E+00  0.86751699972E+02  0.86751700098E+02  0.46700000000E-02 0.  1.
          1   -1    0    0  501    0  0.00000000000E+00 -0.00000000000E+00 -0.45028545754E+02  0.45028545996E+02  0.46700000000E-02 0. -1.
         25    2    1    2    0    0  0.00000000000E+00  0.00000000000E+00  0.41723154219E+02  0.13178024609E+03  0.12500084665E+03 0.  0.
        -13    1    3    3    0    0 -0.19178554667E+02 -0.59217240612E+02  0.26805928432E+02  0.67772173614E+02  0.10570000000E+00 0.  1.
         13    1    3    3    0    0  0.19178554667E+02  0.59217240612E+02  0.14917225787E+02  0.64008072479E+02  0.10570000000E+00 0. -1.
<mgrwt>
<rscale>  0 0.12500085E+03</rscale>
<asrwt>0</asrwt>
<pdfrwt beam="2">  1        1 0.69274688E-02 0.12500085E+03</pdfrwt>
<pdfrwt beam="1">  1       -1 0.13346415E-01 0.12500085E+03</pdfrwt>
<totfact> 0.37079684E+04</totfact>
</mgrwt>
</event>
<event>
 5    1  0.1336420E-049  0.1249997E+03  0.7818608E-02  0.1235070E+00
          1   -1    0    0  501    0  0.00000000000E+00  0.00000000000E+00  0.47037703724E+02  0.47037703956E+02  0.46700000000E-02 0. -1.
         -1   -1    0    0    0  501 -0.00000000000E+00 -0.00000000000E+00 -0.83044665851E+02  0.83044665982E+02  0.46700000000E-02 0.  1.
         25    2    1    2    0    0  0.00000000000E+00  0.00000000000E+00 -0.36006962127E+02  0.13008236994E+03  0.12499968659E+03 0.  0.
        -13    1    3    3    0    0  0.10075371478E+02 -0.49387156581E+02 -0.56460324913E+02  0.75686087277E+02  0.10570000000E+00 0.  1.
         13    1    3    3    0    0 -0.10075371478E+02  0.49387156581E+02  0.20453362787E+02  0.54396282661E+02  0.10570000000E+00 0. -1.
<mgrwt>
<rscale>  0 0.12499969E+03</rscale>
<asrwt>0</asrwt>
<pdfrwt beam="1">  1        1 0.72365698E-02 0.12499969E+03</pdfrwt>
<pdfrwt beam="2">  1       -1 0.12776102E-01 0.12499969E+03</pdfrwt>
<totfact> 0.37410669E+04</totfact>
</mgrwt>
</event>
<event>
 5    1  0.1336420E-049  0.1250009E+03  0.7818608E-02  0.1235068E+00
          1   -1    0    0  501    0  0.00000000000E+00  0.00000000000E+00  0.22793343763E+03  0.22793343768E+03  0.46700000000E-02 0. -1.
         -1   -1    0    0    0  501 -0.00000000000E+00 -0.00000000000E+00 -0.17137911700E+02  0.17137912337E+02  0.46700000000E-02 0.  1.
         25    2    1    2    0    0  0.00000000000E+00  0.00000000000E+00  0.21079552593E+03  0.24507135001E+03  0.12500085138E+03 0.  0.
        -13    1    3    3    0    0 -0.39991803197E+02 -0.38480871196E+02  0.16175041417E+03  0.17100681106E+03  0.10570000000E+00 0. -1.
         13    1    3    3    0    0  0.39991803197E+02  0.38480871196E+02  0.49045111755E+02  0.74064538954E+02  0.10570000000E+00 0.  1.
<mgrwt>
<rscale>  0 0.12500085E+03</rscale>
<asrwt>0</asrwt>
<pdfrwt beam="1">  1        1 0.35066680E-01 0.12500085E+03</pdfrwt>
<pdfrwt beam="2">  1       -1 0.26366020E-02 0.12500085E+03</pdfrwt>
<totfact> 0.51422907E+04</totfact>
</mgrwt>
</event>
<event>
 5    1  0.1336420E-049  0.1250012E+03  0.7818608E-02  0.1235067E+00
         -1   -1    0    0    0  501 -0.00000000000E+00  0.00000000000E+00  0.21318246872E+02  0.21318247383E+02  0.46700000000E-02 0.  1.
          1   -1    0    0  501    0  0.00000000000E+00 -0.00000000000E+00 -0.18323861044E+03  0.18323861050E+03  0.46700000000E-02 0. -1.
         25    2    1    2    0    0  0.00000000000E+00  0.00000000000E+00 -0.16192036357E+03  0.20455685788E+03  0.12500121587E+03 0.  0.
        -13    1    3    3    0    0 -0.57448002475E+02  0.24603266722E+02 -0.79570558883E+02  0.10117844995E+03  0.10570000000E+00 0.  1.
         13    1    3    3    0    0  0.57448002475E+02 -0.24603266722E+02 -0.82349804687E+02  0.10337840793E+03  0.10570000000E+00 0. -1.
<mgrwt>
<rscale>  0 0.12500122E+03</rscale>
<asrwt>0</asrwt>
<pdfrwt beam="2">  1        1 0.28190555E-01 0.12500122E+03</pdfrwt>
<pdfrwt beam="1">  1       -1 0.32797304E-02 0.12500122E+03</pdfrwt>
<totfact> 0.49082131E+04</totfact>
</mgrwt>
</event>
<event>
 5    1  0.1336420E-049  0.1250007E+03  0.7818608E-02  0.1235068E+00
          1   -1    0    0  501    0  0.00000000000E+00  0.00000000000E+00  0.41679099057E+03  0.41679099060E+03  0.46700000000E-02 0. -1.
         -1   -1    0    0    0  501 -0.00000000000E+00 -0.00000000000E+00 -0.93723121164E+01  0.93723132798E+01  0.46700000000E-02 0.  1.
         25    2    1    2    0    0  0.00000000000E+00  0.00000000000E+00  0.40741867845E+03  0.42616330388E+03  0.12500072807E+03 0.  0.
        -13    1    3    3    0    0  0.52330192148E+02  0.34006050706E+02  0.21523244396E+03  0.22409791744E+03  0.10570000000E+00 0.  1.
         13    1    3    3    0    0 -0.52330192148E+02 -0.34006050706E+02  0.19218623449E+03  0.20206538644E+03  0.10570000000E+00 0. -1.
<mgrwt>
<rscale>  0 0.12500073E+03</rscale>
<asrwt>0</asrwt>
<pdfrwt beam="1">  1        1 0.64121681E-01 0.12500073E+03</pdfrwt>
<pdfrwt beam="2">  1       -1 0.14418945E-02 0.12500073E+03</pdfrwt>
<totfact> 0.57977770E+04</totfact>
</mgrwt>
</event>
<event>
 5    1  0.1336420E-049  0.1249982E+03  0.7818608E-02  0.1235072E+00
         -1   -1    0    0    0  501 -0.00000000000E+00  0.00000000000E+00  0.17625671155E+02  0.17625671774E+02  0.46700000000E-02 0.  1.
          1   -1    0    0  501    0  0.00000000000E+00 -0.00000000000E+00 -0.22161621722E+03  0.22161621727E+03  0.46700000000E-02 0. -1.
         25    2    1    2    0    0  0.00000000000E+00  0.00000000000E+00 -0.20399054606E+03  0.23924188904E+03  0.12499815434E+03 0.  0.
        -13    1    3    3    0    0  0.54679257997E+02  0.37790862403E+01 -0.15947859802E+03  0.16863432968E+03  0.10570000000E+00 0. -1.
         13    1    3    3    0    0 -0.54679257997E+02 -0.37790862403E+01 -0.44511948046E+02  0.70607559363E+02  0.10570000000E+00 0.  1.
<mgrwt>
<rscale>  0 0.12499815E+03</rscale>
<asrwt>0</asrwt>
<pdfrwt beam="2">  1        1 0.34094801E-01 0.12499815E+03</pdfrwt>
<pdfrwt beam="1">  1       -1 0.27116419E-02 0.12499815E+03</pdfrwt>
<totfact> 0.51118725E+04</totfact>
</mgrwt>
</event>
<event>
 5    1  0.1336420E-049  0.1249897E+03  0.7818608E-02  0.1235085E+00
         -1   -1    0    0    0  501 -0.00000000000E+00  0.00000000000E+00  0.18656938260E+02  0.18656938845E+02  0.46700000000E-02 0.  1.
          1   -1    0    0  501    0  0.00000000000E+00 -0.00000000000E+00 -0.20933798723E+03  0.20933798728E+03  0.46700000000E-02 0. -1.
         25    2    1    2    0    0  0.00000000000E+00  0.00000000000E+00 -0.19068104897E+03  0.22799492613E+03  0.12498969519E+03 0.  0.
        -13    1    3    3    0    0 -0.52425502125E+02  0.24907086758E+02 -0.13760316659E+03  0.14934335898E+03  0.10570000000E+00 0.  1.
         13    1    3    3    0    0  0.52425502125E+02 -0.24907086758E+02 -0.53077882377E+02  0.78651567143E+02  0.10570000000E+00 0. -1.
<mgrwt>
<rscale>  0 0.12498970E+03</rscale>
<asrwt>0</asrwt>
<pdfrwt beam="2">  1        1 0.32205843E-01 0.12498970E+03</pdfrwt>
<pdfrwt beam="1">  1       -1 0.28702984E-02 0.12498970E+03</pdfrwt>
<totfact> 0.50510022E+04</totfact>
</mgrwt>
</event>
<event>
 5    1  0.1336420E-049  0.1250027E+03  0.7818608E-02  0.1235065E+00
          1   -1    0    0  501    0  0.00000000000E+00  0.00000000000E+00  0.53020337199E+02  0.53020337405E+02  0.46700000000E-02 0. -1.
         -1   -1    0    0    0  501 -0.00000000000E+00 -0.00000000000E+00 -0.73677683441E+02  0.73677683589E+02  0.46700000000E-02 0.  1.
         25    2    1    2    0    0  0.00000000000E+00  0.00000000000E+00 -0.20657346241E+02  0.12669802099E+03  0.12500265025E+03 0.  0.
        -13    1    3    3    0    0  0.57339735980E+02  0.48939607348E+01 -0.35043984856E+02  0.67378692634E+02  0.10570000000E+00 0.  1.
         13    1    3    3    0    0 -0.57339735980E+02 -0.48939607348E+01  0.14386638614E+02  0.59319328360E+02  0.10570000000E+00 0. -1.
<mgrwt>
<rscale>  0 0.12500265E+03</rscale>
<asrwt>0</asrwt>
<pdfrwt beam="1">  1        1 0.81569749E-02 0.12500265E+03</pdfrwt>
<pdfrwt beam="2">  1       -1 0.11335028E-01 0.12500265E+03</pdfrwt>
<totfact> 0.38312394E+04</totfact>
</mgrwt>
</event>
<event>
 5    1  0.1336420E-049  0.1249994E+03  0.7818608E-02  0.1235070E+00
          1   -1    0    0  501    0  0.00000000000E+00  0.00000000000E+00  0.17772708768E+02  0.17772709382E+02  0.46700000000E-02 0. -1.
         -1   -1    0    0    0  501 -0.00000000000E+00 -0.00000000000E+00 -0.21978699715E+03  0.21978699720E+03  0.46700000000E-02 0.  1.
         25    2    1    2    0    0  0.00000000000E+00  0.00000000000E+00 -0.20201428839E+03  0.23755970659E+03  0.12499936592E+03 0.  0.
        -13    1    3    3    0    0 -0.18960514498E+02  0.58970401742E+02 -0.85198812956E+02  0.10533688002E+03  0.10570000000E+00 0.  1.
         13    1    3    3    0    0  0.18960514498E+02 -0.58970401742E+02 -0.11681547543E+03  0.13222282656E+03  0.10570000000E+00 0. -1.
<mgrwt>
<rscale>  0 0.12499937E+03</rscale>
<asrwt>0</asrwt>
<pdfrwt beam="1">  1        1 0.27342631E-02 0.12499937E+03</pdfrwt>
<pdfrwt beam="2">  1       -1 0.33813382E-01 0.12499937E+03</pdfrwt>
<totfact> 0.29434064E+04</totfact>
</mgrwt>
</event>
<event>
 5    1  0.1336420E-049  0.1250012E+03  0.7818608E-02  0.1235067E+00
         -1   -1    0    0    0  501 -0.00000000000E+00  0.00000000000E+00  0.26568321859E+02  0.26568322270E+02  0.46700000000E-02 0.  1.
          1   -1    0    0  501    0  0.00000000000E+00 -0.00000000000E+00 -0.14702949928E+03  0.14702949935E+03  0.46700000000E-02 0. -1.
         25    2    1    2    0    0  0.00000000000E+00  0.00000000000E+00 -0.12046117742E+03  0.17359782162E+03  0.12500123362E+03 0.  0.
        -13    1    3    3    0    0  0.49333234586E+02 -0.36239977828E+02 -0.42707214442E+02  0.74639274954E+02  0.10570000000E+00 0.  1.
         13    1    3    3    0    0 -0.49333234586E+02  0.36239977828E+02 -0.77753962979E+02  0.98958546671E+02  0.10570000000E+00 0. -1.
<mgrwt>
<rscale>  0 0.12500123E+03</rscale>
<asrwt>0</asrwt>
<pdfrwt beam="2">  1        1 0.22619923E-01 0.12500123E+03</pdfrwt>
<pdfrwt beam="1">  1       -1 0.40874342E-02 0.12500123E+03</pdfrwt>
<totfact> 0.46866809E+04</totfact>
</mgrwt>
</event>
<event>
 5    1  0.1544229E-049  0.1249996E+03  0.7818608E-02  0.1235070E+00
         -1   -1    0    0    0  501 -0.00000000000E+00  0.00000000000E+00  0.83788187619E+02  0.83788187750E+02  0.46700000000E-02 0.  1.
          1   -1    0    0  501    0  0.00000000000E+00 -0.00000000000E+00 -0.46620263405E+02  0.46620263639E+02  0.46700000000E-02 0. -1.
         25    2    1    2    0    0  0.00000000000E+00  0.00000000000E+00  0.37167924214E+02  0.13040845139E+03  0.12499963841E+03 0.  0.
        -13    1    3    3    0    0  0.99178329637E+00 -0.47862095601E+02  0.60502835613E+02  0.77151591812E+02  0.10570000000E+00 0.  1.
         13    1    3    3    0    0 -0.99178329637E+00  0.47862095601E+02 -0.23334911399E+02  0.53256859576E+02  0.10570000000E+00 0. -1.
<mgrwt>
<rscale>  0 0.12499964E+03</rscale>
<asrwt>0</asrwt>
<pdfrwt beam="2">  1        1 0.71723483E-02 0.12499964E+03</pdfrwt>
<pdfrwt beam="1">  1       -1 0.12890490E-01 0.12499964E+03</pdfrwt>
<totfact> 0.37343421E+04</totfact>
</mgrwt>
</event>
<event>
 5    1  0.1336420E-049  0.1250002E+03  0.7818608E-02  0.1235069E+00
          1   -1    0    0  501    0  0.00000000000E+00  0.00000000000E+00  0.18586086206E+02  0.18586086793E+02  0.46700000000E-02 0. -1.
         -1   -1    0    0    0  501 -0.00000000000E+00 -0.00000000000E+00 -0.21017142999E+03  0.21017143004E+03  0.46700000000E-02 0.  1.
         25    2    1    2    0    0  0.00000000000E+00  0.00000000000E+00 -0.19158534378E+03  0.22875751683E+03  0.12500023022E+03 0.  0.
        -13    1    3    3    0    0  0.35015170458E+02 -0.38869357679E+02 -0.15837323070E+03  0.16679022904E+03  0.10570000000E+00 0.  1.
         13    1    3    3    0    0 -0.35015170458E+02  0.38869357679E+02 -0.33212113085E+02  0.61967287795E+02  0.10570000000E+00 0. -1.
<mgrwt>
<rscale>  0 0.12500023E+03</rscale>
<asrwt>0</asrwt>
<pdfrwt beam="1">  1        1 0.28593981E-02 0.12500023E+03</pdfrwt>
<pdfrwt beam="2">  1       -1 0.32334065E-01 0.12500023E+03</pdfrwt>
<totfact> 0.29850542E+04</totfact>
</mgrwt>
</event>
<event>
 5    1  0.1336420E-049  0.1249840E+03  0.7818608E-02  0.1235094E+00
         -1   -1    0    0    0  501 -0.00000000000E+00  0.00000000000E+00  0.32044617242E+03  0.32044617246E+03  0.46700000000E-02 0.  1.
          1   -1    0    0  501    0  0.00000000000E+00 -0.00000000000E+00 -0.12186917923E+02  0.12186918817E+02  0.46700000000E-02 0. -1.
         25    2    1    2    0    0  0.00000000000E+00  0.00000000000E+00  0.30825925450E+03  0.33263309127E+03  0.12498402068E+03 0.  0.
        -13    1    3    3    0    0 -0.17105432815E+02  0.54906535086E+02  0.21920719646E+03  0.22662552720E+03  0.10570000000E+00 0.  1.
         13    1    3    3    0    0  0.17105432815E+02 -0.54906535086E+02  0.89052058042E+02  0.10600756407E+03  0.10570000000E+00 0. -1.
<mgrwt>
<rscale>  0 0.12498402E+03</rscale>
<asrwt>0</asrwt>
<pdfrwt beam="2">  1        1 0.18749109E-02 0.12498402E+03</pdfrwt>
<pdfrwt beam="1">  1       -1 0.49299402E-01 0.12498402E+03</pdfrwt>
<totfact> 0.25627958E+04</totfact>
</mgrwt>
</event>
<event>
 5    1  0.1336420E-049  0.1250056E+03  0.7818608E-02  0.1235061E+00
         -1   -1    0    0    0  501 -0.00000000000E+00  0.00000000000E+00  0.30220893507E+02  0.30220893868E+02  0.46700000000E-02 0.  1.
          1   -1    0    0  501    0  0.00000000000E+00 -0.00000000000E+00 -0.12926809191E+03  0.12926809200E+03  0.46700000000E-02 0. -1.
         25    2    1    2    0    0  0.00000000000E+00  0.00000000000E+00 -0.99047198406E+02  0.15948898586E+03  0.12500555628E+03 0.  0.
        -13    1    3    3    0    0  0.23349195629E+02  0.53721650483E+02 -0.77341497526E+02  0.97020199336E+02  0.10570000000E+00 0.  1.
         13    1    3    3    0    0 -0.23349195629E+02 -0.53721650483E+02 -0.21705700880E+02  0.62468786529E+02  0.10570000000E+00 0. -1.
<mgrwt>
<rscale>  0 0.12500556E+03</rscale>
<asrwt>0</asrwt>
<pdfrwt beam="2">  1        1 0.19887398E-01 0.12500556E+03</pdfrwt>
<pdfrwt beam="1">  1       -1 0.46493683E-02 0.12500556E+03</pdfrwt>
<totfact> 0.45637406E+04</totfact>
</mgrwt>
</event>
<event>
 5    1  0.1336420E-049  0.1250045E+03  0.7818608E-02  0.1235062E+00
          1   -1    0    0  501    0  0.00000000000E+00  0.00000000000E+00  0.39030420783E+02  0.39030421063E+02  0.46700000000E-02 0. -1.
         -1   -1    0    0    0  501 -0.00000000000E+00 -0.00000000000E+00 -0.10008942042E+03  0.10008942053E+03  0.46700000000E-02 0.  1.
         25    2    1    2    0    0  0.00000000000E+00  0.00000000000E+00 -0.61058999641E+02  0.13911984160E+03  0.12500451547E+03 0.  0.
        -13    1    3    3    0    0  0.55173353955E+02 -0.23426258617E+02 -0.50238921564E+02  0.78210286995E+02  0.10570000000E+00 0.  1.
         13    1    3    3    0    0 -0.55173353955E+02  0.23426258617E+02 -0.10820078076E+02  0.60909554600E+02  0.10570000000E+00 0. -1.
<mgrwt>
<rscale>  0 0.12500452E+03</rscale>
<asrwt>0</asrwt>
<pdfrwt beam="1">  1        1 0.60046802E-02 0.12500452E+03</pdfrwt>
<pdfrwt beam="2">  1       -1 0.15398372E-01 0.12500452E+03</pdfrwt>
<totfact> 0.35990705E+04</totfact>
</mgrwt>
</event>
<event>
 5    1  0.1336420E-049  0.1250251E+03  0.7818608E-02  0.1235030E+00
         -1   -1    0    0    0  501 -0.00000000000E+00  0.00000000000E+00  0.39030318899E+02  0.39030319179E+02  0.46700000000E-02 0.  1.
          1   -1    0    0  501    0  0.00000000000E+00 -0.00000000000E+00 -0.10012264045E+03  0.10012264056E+03  0.46700000000E-02 0. -1.
         25    2    1    2    0    0  0.00000000000E+00  0.00000000000E+00 -0.61092321549E+02  0.13915295974E+03  0.12502509529E+03 0.  0.
        -13    1    3    3    0    0  0.42164144947E+02  0.24450767684E+02 -0.74112013587E+02  0.88703195488E+02  0.10570000000E+00 0. -1.
         13    1    3    3    0    0 -0.42164144947E+02 -0.24450767684E+02  0.13019692038E+02  0.50449764248E+02  0.10570000000E+00 0.  1.
<mgrwt>
<rscale>  0 0.12502510E+03</rscale>
<asrwt>0</asrwt>
<pdfrwt beam="2">  1        1 0.15403483E-01 0.12502510E+03</pdfrwt>
<pdfrwt beam="1">  1       -1 0.60046645E-02 0.12502510E+03</pdfrwt>
<totfact> 0.43340570E+04</totfact>
</mgrwt>
</event>
<event>
 5    1  0.1336420E-049  0.1249952E+03  0.7818608E-02  0.1235077E+00
         -1   -1    0    0    0  501 -0.00000000000E+00  0.00000000000E+00  0.34911346273E+02  0.34911346585E+02  0.46700000000E-02 0.  1.
          1   -1    0    0  501    0  0.00000000000E+00 -0.00000000000E+00 -0.11188188177E+03  0.11188188187E+03  0.46700000000E-02 0. -1.
         25    2    1    2    0    0  0.00000000000E+00  0.00000000000E+00 -0.76970535498E+02  0.14679322845E+03  0.12499515425E+03 0.  0.
        -13    1    3    3    0    0 -0.79048467097E+01 -0.60460422758E+02 -0.22383396409E+02  0.64953652160E+02  0.10570000000E+00 0.  1.
         13    1    3    3    0    0  0.79048467097E+01  0.60460422758E+02 -0.54587139089E+02  0.81839576294E+02  0.10570000000E+00 0. -1.
<mgrwt>
<rscale>  0 0.12499515E+03</rscale>
<asrwt>0</asrwt>
<pdfrwt beam="2">  1        1 0.17212597E-01 0.12499515E+03</pdfrwt>
<pdfrwt beam="1">  1       -1 0.53709764E-02 0.12499515E+03</pdfrwt>
<totfact> 0.44336444E+04</totfact>
</mgrwt>
</event>
<event>
 5    1  0.1336420E-049  0.1250000E+03  0.7818608E-02  0.1235069E+00
         -1   -1    0    0    0  501 -0.00000000000E+00  0.00000000000E+00  0.18658461341E+03  0.18658461346E+03  0.46700000000E-02 0.  1.
          1   -1    0    0  501    0  0.00000000000E+00 -0.00000000000E+00 -0.20935546606E+02  0.20935547127E+02  0.46700000000E-02 0. -1.
         25    2    1    2    0    0  0.00000000000E+00  0.00000000000E+00  0.16564906680E+03  0.20752016059E+03  0.12500001488E+03 0.  0.
        -13    1    3    3    0    0 -0.28315318959E+02 -0.53251813674E+02  0.11003936985E+03  0.12548381185E+03  0.10570000000E+00 0.  1.
         13    1    3    3    0    0  0.28315318959E+02  0.53251813674E+02  0.55609696952E+02  0.82036348742E+02  0.10570000000E+00 0. -1.
<mgrwt>
<rscale>  0 0.12500001E+03</rscale>
<asrwt>0</asrwt>
<pdfrwt beam="2">  1        1 0.32208535E-02 0.12500001E+03</pdfrwt>
<pdfrwt beam="1">  1       -1 0.28705324E-01 0.12500001E+03</pdfrwt>
<totfact> 0.30928312E+04</totfact>
</mgrwt>
</event>
<event>
 5    1  0.1336420E-049  0.1250021E+03  0.7818608E-02  0.1235066E+00
         -1   -1    0    0    0  501 -0.00000000000E+00  0.00000000000E+00  0.92761961167E+02  0.92761961285E+02  0.46700000000E-02 0.  1.
          1   -1    0    0  501    0  0.00000000000E+00 -0.00000000000E+00 -0.42111908045E+02  0.42111908304E+02  0.46700000000E-02 0. -1.
         25    2    1    2    0    0  0.00000000000E+00  0.00000000000E+00  0.50650053122E+02  0.13487386959E+03  0.12500213125E+03 0.  0.
        -13    1    3    3    0    0  0.55607140497E+02  0.68517833398E+01  0.55212196870E+02  0.78660656397E+02  0.10570000000E+00 0.  1.
         13    1    3    3    0    0 -0.55607140497E+02 -0.68517833398E+01 -0.45621437479E+01  0.56213213191E+02  0.10570000000E+00 0. -1.
<mgrwt>
<rscale>  0 0.12500213E+03</rscale>
<asrwt>0</asrwt>
<pdfrwt beam="2">  1        1 0.64787551E-02 0.12500213E+03</pdfrwt>
<pdfrwt beam="1">  1       -1 0.14271071E-01 0.12500213E+03</pdfrwt>
<totfact> 0.36571229E+04</totfact>
</mgrwt>
</event>
<event>
 5    1  0.1336420E-049  0.1250134E+03  0.7818608E-02  0.1235048E+00
         -1   -1    0    0    0  501 -0.00000000000E+00  0.00000000000E+00  0.19101898163E+02  0.19101898734E+02  0.46700000000E-02 0.  1.
          1   -1    0    0  501    0  0.00000000000E+00 -0.00000000000E+00 -0.20453931900E+03  0.20453931905E+03  0.46700000000E-02 0. -1.
         25    2    1    2    0    0  0.00000000000E+00  0.00000000000E+00 -0.18543742083E+03  0.22364121779E+03  0.12501342827E+03 0.  0.
        -13    1    3    3    0    0  0.45993525648E+02 -0.41688377852E+02 -0.10583454986E+03  0.12269591829E+03  0.10570000000E+00 0. -1.
         13    1    3    3    0    0 -0.45993525648E+02  0.41688377852E+02 -0.79602870978E+02  0.10094529949E+03  0.10570000000E+00 0.  1.
<mgrwt>
<rscale>  0 0.12501343E+03</rscale>
<asrwt>0</asrwt>
<pdfrwt beam="2">  1        1 0.31467586E-01 0.12501343E+03</pdfrwt>
<pdfrwt beam="1">  1       -1 0.29387538E-02 0.12501343E+03</pdfrwt>
<totfact> 0.50233905E+04</totfact>
</mgrwt>
</event>
<event>
 5    1  0.2171837E-049  0.1249984E+03  0.7818608E-02  0.1235072E+00
          1   -1    0    0  501    0  0.00000000000E+00  0.00000000000E+00  0.38472655962E+03  0.38472655965E+03  0.46700000000E-02 0. -1.
         -1   -1    0    0    0  501 -0.00000000000E+00 -0.00000000000E+00 -0.10153052905E+02  0.10153053979E+02  0.46700000000E-02 0.  1.
         25    2    1    2    0    0  0.00000000000E+00  0.00000000000E+00  0.37457350671E+03  0.39487961362E+03  0.12499838929E+03 0.  0.
        -13    1    3    3    0    0 -0.58007313947E+02  0.20190255968E+02  0.15076649740E+03  0.16279755163E+03  0.10570000000E+00 0.  1.
         13    1    3    3    0    0  0.58007313947E+02 -0.20190255968E+02  0.22380700932E+03  0.23208206199E+03  0.10570000000E+00 0. -1.
<mgrwt>
<rscale>  0 0.12499839E+03</rscale>
<asrwt>0</asrwt>
<pdfrwt beam="1">  1        1 0.59188688E-01 0.12499839E+03</pdfrwt>
<pdfrwt beam="2">  1       -1 0.15620086E-02 0.12499839E+03</pdfrwt>
<totfact> 0.57177069E+04</totfact>
</mgrwt>
</event>
<event>
 5    1  0.1596114E-049  0.1249984E+03  0.7818608E-02  0.1235072E+00
         -1   -1    0    0    0  501 -0.00000000000E+00  0.00000000000E+00  0.61120728652E+02  0.61120728831E+02  0.46700000000E-02 0.  1.
          1   -1    0    0  501    0  0.00000000000E+00 -0.00000000000E+00 -0.63908781135E+02  0.63908781306E+02  0.46700000000E-02 0. -1.
         25    2    1    2    0    0  0.00000000000E+00  0.00000000000E+00 -0.27880524824E+01  0.12502951014E+03  0.12499842066E+03 0.  0.
        -13    1    3    3    0    0  0.50197570778E+02 -0.63922598373E+01  0.35295923325E+02  0.61696600179E+02  0.10570000000E+00 0.  1.
         13    1    3    3    0    0 -0.50197570778E+02  0.63922598373E+01 -0.38083975807E+02  0.63332909957E+02  0.10570000000E+00 0. -1.
<mgrwt>
<rscale>  0 0.12499842E+03</rscale>
<asrwt>0</asrwt>
<pdfrwt beam="2">  1        1 0.98321202E-02 0.12499842E+03</pdfrwt>
<pdfrwt beam="1">  1       -1 0.94031891E-02 0.12499842E+03</pdfrwt>
<totfact> 0.39741321E+04</totfact>
</mgrwt>
</event>
<event>
 5    1  0.1336420E-049  0.1250001E+03  0.7818608E-02  0.1235069E+00
          1   -1    0    0  501    0  0.00000000000E+00  0.00000000000E+00  0.19616238933E+02  0.19616239488E+02  0.46700000000E-02 0. -1.
         -1   -1    0    0    0  501 -0.00000000000E+00 -0.00000000000E+00 -0.19913385865E+03  0.19913385870E+03  0.46700000000E-02 0.  1.
         25    2    1    2    0    0  0.00000000000E+00  0.00000000000E+00 -0.17951761972E+03  0.21875009819E+03  0.12500011868E+03 0.  0.
        -13    1    3    3    0    0  0.55699818413E+02  0.19018110433E+02 -0.12655409474E+03  0.13957115878E+03  0.10570000000E+00 0.  1.
         13    1    3    3    0    0 -0.55699818413E+02 -0.19018110433E+02 -0.52963524973E+02  0.79178939408E+02  0.10570000000E+00 0. -1.
<mgrwt>
<rscale>  0 0.12500012E+03</rscale>
<asrwt>0</asrwt>
<pdfrwt beam="1">  1        1 0.30178831E-02 0.12500012E+03</pdfrwt>
<pdfrwt beam="2">  1       -1 0.30635977E-01 0.12500012E+03</pdfrwt>
<totfact> 0.30344559E+04</totfact>
</mgrwt>
</event>
<event>
 5    1  0.1336420E-049  0.1250027E+03  0.7818608E-02  0.1235065E+00
         -1   -1    0    0    0  501 -0.00000000000E+00  0.00000000000E+00  0.66092400855E+02  0.66092401020E+02  0.46700000000E-02 0.  1.
          1   -1    0    0  501    0  0.00000000000E+00 -0.00000000000E+00 -0.59105406728E+02  0.59105406912E+02  0.46700000000E-02 0. -1.
         25    2    1    2    0    0  0.00000000000E+00  0.00000000000E+00  0.69869941273E+01  0.12519780793E+03  0.12500269207E+03 0.  0.
        -13    1    3    3    0    0 -0.43910358286E+02  0.35500855450E+02 -0.23343415960E+02  0.61101199200E+02  0.10570000000E+00 0. -1.
         13    1    3    3    0    0  0.43910358286E+02 -0.35500855450E+02  0.30330410087E+02  0.64096608733E+02  0.10570000000E+00 0.  1.
<mgrwt>
<rscale>  0 0.12500269E+03</rscale>
<asrwt>0</asrwt>
<pdfrwt beam="2">  1        1 0.90931395E-02 0.12500269E+03</pdfrwt>
<pdfrwt beam="1">  1       -1 0.10168062E-01 0.12500269E+03</pdfrwt>
<totfact> 0.39137906E+04</totfact>
</mgrwt>
</event>
<event>
 5    1  0.1336420E-049  0.1249988E+03  0.7818608E-02  0.1235071E+00
          1   -1    0    0  501    0  0.00000000000E+00  0.00000000000E+00  0.27281143454E+03  0.27281143458E+03  0.46700000000E-02 0. -1.
         -1   -1    0    0    0  501 -0.00000000000E+00 -0.00000000000E+00 -0.14318211295E+02  0.14318212056E+02  0.46700000000E-02 0.  1.
         25    2    1    2    0    0  0.00000000000E+00  0.00000000000E+00  0.25849322325E+03  0.28712964664E+03  0.12499875005E+03 0.  0.
        -13    1    3    3    0    0 -0.21295286791E+02 -0.33798831411E+02  0.23965639013E+03  0.24296305634E+03  0.10570000000E+00 0. -1.
         13    1    3    3    0    0  0.21295286791E+02  0.33798831411E+02  0.18836833122E+02  0.44166590301E+02  0.10570000000E+00 0.  1.
<mgrwt>
<rscale>  0 0.12499875E+03</rscale>
<asrwt>0</asrwt>
<pdfrwt beam="1">  1        1 0.41970989E-01 0.12499875E+03</pdfrwt>
<pdfrwt beam="2">  1       -1 0.22028019E-02 0.12499875E+03</pdfrwt>
<totfact> 0.53421176E+04</totfact>
</mgrwt>
</event>
<event>
 5    1  0.1336420E-049  0.1250003E+03  0.7818608E-02  0.1235069E+00
          1   -1    0    0  501    0  0.00000000000E+00  0.00000000000E+00  0.44444668666E+03  0.44444668668E+03  0.46700000000E-02 0. -1.
         -1   -1    0    0    0  501 -0.00000000000E+00 -0.00000000000E+00 -0.87890533694E+01  0.87890546101E+01  0.46700000000E-02 0.  1.
         25    2    1    2    0    0  0.00000000000E+00  0.00000000000E+00  0.43565763329E+03  0.45323574129E+03  0.12500025497E+03 0.  0.
        -13    1    3    3    0    0  0.57036509566E+02 -0.25450331610E+02  0.22623269310E+03  0.23469581463E+03  0.10570000000E+00 0.  1.
         13    1    3    3    0    0 -0.57036509566E+02  0.25450331610E+02  0.20942494019E+03  0.21853992666E+03  0.10570000000E+00 0. -1.
<mgrwt>
<rscale>  0 0.12500025E+03</rscale>
<asrwt>0</asrwt>
<pdfrwt beam="1">  1        1 0.68376406E-01 0.12500025E+03</pdfrwt>
<pdfrwt beam="2">  1       -1 0.13521623E-02 0.12500025E+03</pdfrwt>
<totfact> 0.58582776E+04</totfact>
</mgrwt>
</event>
<event>
 5    1  0.1336420E-049  0.1249998E+03  0.7818608E-02  0.1235070E+00
         -1   -1    0    0    0  501 -0.00000000000E+00  0.00000000000E+00  0.30999067458E+02  0.30999067809E+02  0.46700000000E-02 0.  1.
          1   -1    0    0  501    0  0.00000000000E+00 -0.00000000000E+00 -0.12601149467E+03  0.12601149476E+03  0.46700000000E-02 0. -1.
         25    2    1    2    0    0  0.00000000000E+00  0.00000000000E+00 -0.95012427213E+02  0.15701056257E+03  0.12499982173E+03 0.  0.
        -13    1    3    3    0    0  0.50766637061E+02 -0.22856365592E+02 -0.11833301017E+02  0.56918389577E+02  0.10570000000E+00 0.  1.
         13    1    3    3    0    0 -0.50766637061E+02  0.22856365592E+02 -0.83179126195E+02  0.10009217299E+03  0.10570000000E+00 0. -1.
<mgrwt>
<rscale>  0 0.12499982E+03</rscale>
<asrwt>0</asrwt>
<pdfrwt beam="2">  1        1 0.19386384E-01 0.12499982E+03</pdfrwt>
<pdfrwt beam="1">  1       -1 0.47690874E-02 0.12499982E+03</pdfrwt>
<totfact> 0.45406629E+04</totfact>
</mgrwt>
</event>
<event>
 5    1  0.1336420E-049  0.1250000E+03  0.7818608E-02  0.1235069E+00
          1   -1    0    0  501    0  0.00000000000E+00  0.00000000000E+00  0.15032368914E+02  0.15032369640E+02  0.46700000000E-02 0. -1.
         -1   -1    0    0    0  501 -0.00000000000E+00 -0.00000000000E+00 -0.25985575223E+03  0.25985575228E+03  0.46700000000E-02 0.  1.
         25    2    1    2    0    0  0.00000000000E+00  0.00000000000E+00 -0.24482338332E+03  0.27488812192E+03  0.12499996220E+03 0.  0.
        -13    1    3    3    0    0  0.51156747701E+02 -0.10510332780E+02 -0.46909745011E+02  0.70199823932E+02  0.10570000000E+00 0. -1.
         13    1    3    3    0    0 -0.51156747701E+02  0.10510332780E+02 -0.19791363831E+03  0.20468829798E+03  0.10570000000E+00 0.  1.
<mgrwt>
<rscale>  0 0.12499996E+03</rscale>
<asrwt>0</asrwt>
<pdfrwt beam="1">  1        1 0.23126724E-02 0.12499996E+03</pdfrwt>
<pdfrwt beam="2">  1       -1 0.39977805E-01 0.12499996E+03</pdfrwt>
<totfact> 0.27809615E+04</totfact>
</mgrwt>
</event>
<event>
 5    1  0.1336420E-049  0.1249978E+03  0.7818608E-02  0.1235073E+00
         -1   -1    0    0    0  501 -0.00000000000E+00  0.00000000000E+00  0.16364893711E+02  0.16364894377E+02  0.46700000000E-02 0.  1.
          1   -1    0    0  501    0  0.00000000000E+00 -0.00000000000E+00 -0.23868858580E+03  0.23868858585E+03  0.46700000000E-02 0. -1.
         25    2    1    2    0    0  0.00000000000E+00  0.00000000000E+00 -0.22232369209E+03  0.25505348023E+03  0.12499781482E+03 0.  0.
        -13    1    3    3    0    0  0.29429825978E+02  0.51477324947E+02 -0.70862169213E+02  0.92398527255E+02  0.10570000000E+00 0.  1.
         13    1    3    3    0    0 -0.29429825978E+02 -0.51477324947E+02 -0.15146152288E+03  0.16265495297E+03  0.10570000000E+00 0. -1.
<mgrwt>
<rscale>  0 0.12499781E+03</rscale>
<asrwt>0</asrwt>
<pdfrwt beam="2">  1        1 0.36721318E-01 0.12499781E+03</pdfrwt>
<pdfrwt beam="1">  1       -1 0.25176762E-02 0.12499781E+03</pdfrwt>
<totfact> 0.51933360E+04</totfact>
</mgrwt>
</event>
<event>
 5    1  0.1336420E-049  0.1249869E+03  0.7818608E-02  0.1235090E+00
         -1   -1    0    0    0  501 -0.00000000000E+00  0.00000000000E+00  0.59774590088E+02  0.59774590271E+02  0.46700000000E-02 0.  1.
          1   -1    0    0  501    0  0.00000000000E+00 -0.00000000000E+00 -0.65335964134E+02  0.65335964301E+02  0.46700000000E-02 0. -1.
         25    2    1    2    0    0  0.00000000000E+00  0.00000000000E+00 -0.55613740456E+01  0.12511055457E+03  0.12498688725E+03 0.  0.
        -13    1    3    3    0    0  0.28015432713E+02  0.34713240904E+02  0.41029566103E+02  0.60607838035E+02  0.10570000000E+00 0.  1.
         13    1    3    3    0    0 -0.28015432713E+02 -0.34713240904E+02 -0.46590940149E+02  0.64502716537E+02  0.10570000000E+00 0. -1.
<mgrwt>
<rscale>  0 0.12498689E+03</rscale>
<asrwt>0</asrwt>
<pdfrwt beam="2">  1        1 0.10051687E-01 0.12498689E+03</pdfrwt>
<pdfrwt beam="1">  1       -1 0.91960908E-02 0.12498689E+03</pdfrwt>
<totfact> 0.39922640E+04</totfact>
</mgrwt>
</event>
<event>
 5    1  0.1336420E-049  0.1249996E+03  0.7818608E-02  0.1235070E+00
         -1   -1    0    0    0  501 -0.00000000000E+00  0.00000000000E+00  0.34049123668E+03  0.34049123672E+03  0.46700000000E-02 0.  1.
          1   -1    0    0  501    0  0.00000000000E+00 -0.00000000000E+00 -0.11472329461E+02  0.11472330412E+02  0.46700000000E-02 0. -1.
         25    2    1    2    0    0  0.00000000000E+00  0.00000000000E+00  0.32901890722E+03  0.35196356713E+03  0.12499964510E+03 0.  0.
        -13    1    3    3    0    0  0.25539087439E+02 -0.51778324969E+02  0.23190906928E+03  0.23898758861E+03  0.10570000000E+00 0.  1.
         13    1    3    3    0    0 -0.25539087439E+02  0.51778324969E+02  0.97109837941E+02  0.11297597851E+03  0.10570000000E+00 0. -1.
<mgrwt>
<rscale>  0 0.12499965E+03</rscale>
<asrwt>0</asrwt>
<pdfrwt beam="2">  1        1 0.17649740E-02 0.12499965E+03</pdfrwt>
<pdfrwt beam="1">  1       -1 0.52383261E-01 0.12499965E+03</pdfrwt>
<totfact> 0.24952137E+04</totfact>
</mgrwt>
</event>
<event>
 5    1  0.1336420E-049  0.1250028E+03  0.7818608E-02  0.1235065E+00
         -1   -1    0    0    0  501 -0.00000000000E+00  0.00000000000E+00  0.28441790614E+02  0.28441790997E+02  0.46700000000E-02 0.  1.
          1   -1    0    0  501    0  0.00000000000E+00 -0.00000000000E+00 -0.13734806605E+03  0.13734806613E+03  0.46700000000E-02 0. -1.
         25    2    1    2    0    0  0.00000000000E+00  0.00000000000E+00 -0.10890627543E+03  0.16578985712E+03  0.12500279955E+03 0.  0.
        -13    1    3    3    0    0 -0.55588462069E+02  0.16195564487E+02 -0.85671414438E+02  0.10340201085E+03  0.10570000000E+00 0.  1.
         13    1    3    3    0    0  0.55588462069E+02 -0.16195564487E+02 -0.23234860995E+02  0.62387846270E+02  0.10570000000E+00 0. -1.
<mgrwt>
<rscale>  0 0.12500280E+03</rscale>
<asrwt>0</asrwt>
<pdfrwt beam="2">  1        1 0.21130471E-01 0.12500280E+03</pdfrwt>
<pdfrwt beam="1">  1       -1 0.43756602E-02 0.12500280E+03</pdfrwt>
<totfact> 0.46210793E+04</totfact>
</mgrwt>
</event>
<event>
 5    1  0.1336420E-049  0.1250004E+03  0.7818608E-02  0.1235069E+00
         -1   -1    0    0    0  501 -0.00000000000E+00  0.00000000000E+00  0.23048491175E+03  0.23048491180E+03  0.46700000000E-02 0.  1.
          1   -1    0    0  501    0  0.00000000000E+00 -0.00000000000E+00 -0.16948081512E+02  0.16948082155E+02  0.46700000000E-02 0. -1.
         25    2    1    2    0    0  0.00000000000E+00  0.00000000000E+00  0.21353683024E+03  0.24743299395E+03  0.12500043451E+03 0.  0.
        -13    1    3    3    0    0  0.46659068583E+02  0.86979289176E+01  0.18726063005E+03  0.19318197998E+03  0.10570000000E+00 0.  1.
         13    1    3    3    0    0 -0.46659068583E+02 -0.86979289176E+01  0.26276200185E+02  0.54251013973E+02  0.10570000000E+00 0. -1.
<mgrwt>
<rscale>  0 0.12500043E+03</rscale>
<asrwt>0</asrwt>
<pdfrwt beam="2">  1        1 0.26073972E-02 0.12500043E+03</pdfrwt>
<pdfrwt beam="1">  1       -1 0.35459217E-01 0.12500043E+03</pdfrwt>
<totfact> 0.28982874E+04</totfact>
</mgrwt>
</event>
<event>
 5    1  0.1336420E-049  0.1250058E+03  0.7818608E-02  0.1235060E+00
          1   -1    0    0  501    0  0.00000000000E+00  0.00000000000E+00  0.14538703349E+03  0.14538703356E+03  0.46700000000E-02 0. -1.
         -1   -1    0    0    0  501 -0.00000000000E+00 -0.00000000000E+00 -0.26870441679E+02  0.26870442085E+02  0.46700000000E-02 0.  1.
         25    2    1    2    0    0  0.00000000000E+00  0.00000000000E+00  0.11851659181E+03  0.17225747565E+03  0.12500582139E+03 0.  0.
        -13    1    3    3    0    0 -0.57490961970E+02 -0.11300316750E+02  0.29266867396E+02  0.65494034587E+02  0.10570000000E+00 0.  1.
         13    1    3    3    0    0  0.57490961970E+02  0.11300316750E+02  0.89249724410E+02  0.10676344106E+03  0.10570000000E+00 0. -1.
<mgrwt>
<rscale>  0 0.12500582E+03</rscale>
<asrwt>0</asrwt>
<pdfrwt beam="1">  1        1 0.22367236E-01 0.12500582E+03</pdfrwt>
<pdfrwt beam="2">  1       -1 0.41339142E-02 0.12500582E+03</pdfrwt>
<totfact> 0.46753121E+04</totfact>
</mgrwt>
</event>
<event>
 5    1  0.1336420E-049  0.1249958E+03  0.7818608E-02  0.1235076E+00
          1   -1    0    0  501    0  0.00000000000E+00  0.00000000000E+00  0.23497757480E+02  0.23497757944E+02  0.46700000000E-02 0. -1.
         -1   -1    0    0    0  501 -0.00000000000E+00 -0.00000000000E+00 -0.16622811055E+03  0.16622811062E+03  0.46700000000E-02 0.  1.
         25    2    1    2    0    0  0.00000000000E+00  0.00000000000E+00 -0.14273035307E+03  0.18972586856E+03  0.12499580598E+03 0.  0.
        -13    1    3    3    0    0  0.41671755836E+02 -0.49528464244E+01 -0.14166200388E+03  0.14774708268E+03  0.10570000000E+00 0.  1.
         13    1    3    3    0    0 -0.41671755836E+02  0.49528464244E+01 -0.10683491904E+01  0.41978785888E+02  0.10570000000E+00 0. -1.
<mgrwt>
<rscale>  0 0.12499581E+03</rscale>
<asrwt>0</asrwt>
<pdfrwt beam="1">  1        1 0.36150398E-02 0.12499581E+03</pdfrwt>
<pdfrwt beam="2">  1       -1 0.25573555E-01 0.12499581E+03</pdfrwt>
<totfact> 0.31935308E+04</totfact>
</mgrwt>
</event>
<event>
 5    1  0.1336420E-049  0.1250006E+03  0.7818608E-02  0.1235068E+00
         -1   -1    0    0    0  501 -0.00000000000E+00  0.00000000000E+00  0.10532914620E+02  0.10532915655E+02  0.46700000000E-02 0.  1.
          1   -1    0    0  501    0  0.00000000000E+00 -0.00000000000E+00 -0.37086485684E+03  0.37086485687E+03  0.46700000000E-02 0. -1.
         25    2    1    2    0    0  0.00000000000E+00  0.00000000000E+00 -0.36033194222E+03  0.38139777252E+03  0.12500060921E+03 0.  0.
        -13    1    3    3    0    0  0.44395159211E+02  0.43765670058E+02 -0.16655049257E+03  0.17783543456E+03  0.10570000000E+00 0.  1.
         13    1    3    3    0    0 -0.44395159211E+02 -0.43765670058E+02 -0.19378144965E+03  0.20356233796E+03  0.10570000000E+00 0. -1.
<mgrwt>
<rscale>  0 0.12500061E+03</rscale>
<asrwt>0</asrwt>
<pdfrwt beam="2">  1        1 0.57056122E-01 0.12500061E+03</pdfrwt>
<pdfrwt beam="1">  1       -1 0.16204488E-02 0.12500061E+03</pdfrwt>
<totfact> 0.56791465E+04</totfact>
</mgrwt>
</event>
<event>
 5    1  0.1336420E-049  0.1249996E+03  0.7818608E-02  0.1235070E+00
          1   -1    0    0  501    0  0.00000000000E+00  0.00000000000E+00  0.11962571743E+03  0.11962571752E+03  0.46700000000E-02 0. -1.
         -1   -1    0    0    0  501 -0.00000000000E+00 -0.00000000000E+00 -0.32653729351E+02  0.32653729685E+02  0.46700000000E-02 0.  1.
         25    2    1    2    0    0  0.00000000000E+00  0.00000000000E+00  0.86971988078E+02  0.15227944721E+03  0.12499961332E+03 0.  0.
        -13    1    3    3    0    0  0.34402383777E+01  0.59314255260E+02  0.19857220676E+02  0.62644524921E+02  0.10570000000E+00 0.  1.
         13    1    3    3    0    0 -0.34402383777E+01 -0.59314255260E+02  0.67114767402E+02  0.89634922285E+02  0.10570000000E+00 0. -1.
<mgrwt>
<rscale>  0 0.12499961E+03</rscale>
<asrwt>0</asrwt>
<pdfrwt beam="1">  1        1 0.18403956E-01 0.12499961E+03</pdfrwt>
<pdfrwt beam="2">  1       -1 0.50236507E-02 0.12499961E+03</pdfrwt>
<totfact> 0.44931115E+04</totfact>
</mgrwt>
</event>
<event>
 5    1  0.1336420E-049  0.1250011E+03  0.7818608E-02  0.1235068E+00
          1   -1    0    0  501    0  0.00000000000E+00  0.00000000000E+00  0.35923969621E+02  0.35923969925E+02  0.46700000000E-02 0. -1.
         -1   -1    0    0    0  501 -0.00000000000E+00 -0.00000000000E+00 -0.10873846682E+03  0.10873846692E+03  0.46700000000E-02 0.  1.
         25    2    1    2    0    0  0.00000000000E+00  0.00000000000E+00 -0.72814497199E+02  0.14466243685E+03  0.12500107852E+03 0.  0.
        -13    1    3    3    0    0  0.36412886788E+02  0.25050799060E+02  0.14734805737E+02  0.46589339235E+02  0.10570000000E+00 0. -1.
         13    1    3    3    0    0 -0.36412886788E+02 -0.25050799060E+02 -0.87549302936E+02  0.98073097611E+02  0.10570000000E+00 0.  1.
<mgrwt>
<rscale>  0 0.12500108E+03</rscale>
<asrwt>0</asrwt>
<pdfrwt beam="1">  1        1 0.55267646E-02 0.12500108E+03</pdfrwt>
<pdfrwt beam="2">  1       -1 0.16728995E-01 0.12500108E+03</pdfrwt>
<totfact> 0.35357012E+04</totfact>
</mgrwt>
</event>
<event>
 5    1  0.1336420E-049  0.1250210E+03  0.7818608E-02  0.1235036E+00
         -1   -1    0    0    0  501 -0.00000000000E+00  0.00000000000E+00  0.13951025265E+02  0.13951026046E+02  0.46700000000E-02 0.  1.
          1   -1    0    0  501    0  0.00000000000E+00 -0.00000000000E+00 -0.28009146809E+03  0.28009146813E+03  0.46700000000E-02 0. -1.
         25    2    1    2    0    0  0.00000000000E+00  0.00000000000E+00 -0.26614044282E+03  0.29404249417E+03  0.12502101053E+03 0.  0.
        -13    1    3    3    0    0  0.11745830271E+02 -0.60295071157E+02 -0.16030528945E+03  0.17167194626E+03  0.10570000000E+00 0.  1.
         13    1    3    3    0    0 -0.11745830271E+02  0.60295071157E+02 -0.10583515337E+03  0.12237054791E+03  0.10570000000E+00 0. -1.
<mgrwt>
<rscale>  0 0.12502101E+03</rscale>
<asrwt>0</asrwt>
<pdfrwt beam="2">  1        1 0.43090991E-01 0.12502101E+03</pdfrwt>
<pdfrwt beam="1">  1       -1 0.21463119E-02 0.12502101E+03</pdfrwt>
<totfact> 0.53690533E+04</totfact>
</mgrwt>
</event>
<event>
 5    1  0.1336420E-049  0.1249937E+03  0.7818608E-02  0.1235079E+00
          1   -1    0    0  501    0  0.00000000000E+00  0.00000000000E+00  0.33677264737E+02  0.33677265061E+02  0.46700000000E-02 0. -1.
         -1   -1    0    0    0  501 -0.00000000000E+00 -0.00000000000E+00 -0.11597906879E+03  0.11597906889E+03  0.46700000000E-02 0.  1.
         25    2    1    2    0    0  0.00000000000E+00  0.00000000000E+00 -0.82301804057E+02  0.14965633395E+03  0.12499372520E+03 0.  0.
        -13    1    3    3    0    0 -0.20427312309E+02 -0.47609970044E+02  0.70127253288E+00  0.51812038093E+02  0.10570000000E+00 0. -1.
         13    1    3    3    0    0  0.20427312309E+02  0.47609970044E+02 -0.83003076590E+02  0.97844295856E+02  0.10570000000E+00 0.  1.
<mgrwt>
<rscale>  0 0.12499373E+03</rscale>
<asrwt>0</asrwt>
<pdfrwt beam="1">  1        1 0.51811178E-02 0.12499373E+03</pdfrwt>
<pdfrwt beam="2">  1       -1 0.17842933E-01 0.12499373E+03</pdfrwt>
<totfact> 0.34862450E+04</totfact>
</mgrwt>
</event>
<event>
 5    1  0.1336420E-049  0.1250013E+03  0.7818608E-02  0.1235067E+00
          1   -1    0    0  501    0  0.00000000000E+00  0.00000000000E+00  0.65168478654E+02  0.65168478822E+02  0.46700000000E-02 0. -1.
         -1   -1    0    0    0  501 -0.00000000000E+00 -0.00000000000E+00 -0.59942025099E+02  0.59942025280E+02  0.46700000000E-02 0.  1.
         25    2    1    2    0    0  0.00000000000E+00  0.00000000000E+00  0.52264535557E+01  0.12511050410E+03  0.12500128967E+03 0.  0.
        -13    1    3    3    0    0  0.30825520957E+02  0.50013379828E+02 -0.18730707815E+02  0.61663615624E+02  0.10570000000E+00 0.  1.
         13    1    3    3    0    0 -0.30825520957E+02 -0.50013379828E+02  0.23957161371E+02  0.63446888478E+02  0.10570000000E+00 0. -1.
<mgrwt>
<rscale>  0 0.12500129E+03</rscale>
<asrwt>0</asrwt>
<pdfrwt beam="1">  1        1 0.10025920E-01 0.12500129E+03</pdfrwt>
<pdfrwt beam="2">  1       -1 0.92218500E-02 0.12500129E+03</pdfrwt>
<totfact> 0.39889405E+04</totfact>
</mgrwt>
</event>
<event>
 5    1  0.1336420E-049  0.1249983E+03  0.7818608E-02  0.1235072E+00
          1   -1    0    0  501    0  0.00000000000E+00  0.00000000000E+00  0.38595957128E+02  0.38595957410E+02  0.46700000000E-02 0. -1.
         -1   -1    0    0    0  501 -0.00000000000E+00 -0.00000000000E+00 -0.10120605910E+03  0.10120605921E+03  0.46700000000E-02 0.  1.
         25    2    1    2    0    0  0.00000000000E+00  0.00000000000E+00 -0.62610101975E+02  0.13980201662E+03  0.12499831592E+03 0.  0.
        -13    1    3    3    0    0  0.37080257995E+02  0.42331013521E+02 -0.89537485012E+00  0.56282085136E+02  0.10570000000E+00 0. -1.
         13    1    3    3    0    0 -0.37080257995E+02 -0.42331013521E+02 -0.61714727125E+02  0.83519931485E+02  0.10570000000E+00 0.  1.
<mgrwt>
<rscale>  0 0.12499832E+03</rscale>
<asrwt>0</asrwt>
<pdfrwt beam="1">  1        1 0.59378396E-02 0.12499832E+03</pdfrwt>
<pdfrwt beam="2">  1       -1 0.15570163E-01 0.12499832E+03</pdfrwt>
<totfact> 0.35910502E+04</totfact>
</mgrwt>
</event>
<event>
 5    1  0.1336420E-049  0.1249989E+03  0.7818608E-02  0.1235071E+00
          1   -1    0    0  501    0  0.00000000000E+00  0.00000000000E+00  0.36743331093E+02  0.36743331390E+02  0.46700000000E-02 0. -1.
         -1   -1    0    0    0  501 -0.00000000000E+00 -0.00000000000E+00 -0.10630985316E+03  0.10630985326E+03  0.46700000000E-02 0.  1.
         25    2    1    2    0    0  0.00000000000E+00  0.00000000000E+00 -0.69566522063E+02  0.14305318465E+03  0.12499885058E+03 0.  0.
        -13    1    3    3    0    0  0.20159157987E+02 -0.56963758581E+02 -0.16511468562E+02  0.62641050510E+02  0.10570000000E+00 0.  1.
         13    1    3    3    0    0 -0.20159157987E+02  0.56963758581E+02 -0.53055053501E+02  0.80412134139E+02  0.10570000000E+00 0. -1.
<mgrwt>
<rscale>  0 0.12499885E+03</rscale>
<asrwt>0</asrwt>
<pdfrwt beam="1">  1        1 0.56528202E-02 0.12499885E+03</pdfrwt>
<pdfrwt beam="2">  1       -1 0.16355362E-01 0.12499885E+03</pdfrwt>
<totfact> 0.35532698E+04</totfact>
</mgrwt>
</event>
<event>
 5    1  0.1336420E-049  0.1249957E+03  0.7818608E-02  0.1235076E+00
         -1   -1    0    0    0  501 -0.00000000000E+00  0.00000000000E+00  0.16541134434E+03  0.16541134440E+03  0.46700000000E-02 0.  1.
          1   -1    0    0  501    0  0.00000000000E+00 -0.00000000000E+00 -0.23613749210E+02  0.23613749671E+02  0.46700000000E-02 0. -1.
         25    2    1    2    0    0  0.00000000000E+00  0.00000000000E+00  0.14179759513E+03  0.18902509408E+03  0.12499571275E+03 0.  0.
        -13    1    3    3    0    0  0.51125666467E+02  0.21573836845E+02  0.11437985193E+03  0.12712995676E+03  0.10570000000E+00 0.  1.
         13    1    3    3    0    0 -0.51125666467E+02 -0.21573836845E+02  0.27417743203E+02  0.61895137311E+02  0.10570000000E+00 0. -1.
<mgrwt>
<rscale>  0 0.12499571E+03</rscale>
<asrwt>0</asrwt>
<pdfrwt beam="2">  1        1 0.36328844E-02 0.12499571E+03</pdfrwt>
<pdfrwt beam="1">  1       -1 0.25447900E-01 0.12499571E+03</pdfrwt>
<totfact> 0.31977333E+04</totfact>
</mgrwt>
</event>
<event>
 5    1  0.1336420E-049  0.1249983E+03  0.7818608E-02  0.1235072E+00
         -1   -1    0    0    0  501 -0.00000000000E+00  0.00000000000E+00  0.71166451010E+01  0.71166466333E+01  0.46700000000E-02 0.  1.
          1   -1    0    0  501    0  0.00000000000E+00 -0.00000000000E+00 -0.54887423910E+03  0.54887423912E+03  0.46700000000E-02 0. -1.
         25    2    1    2    0    0  0.00000000000E+00  0.00000000000E+00 -0.54175759400E+03  0.55599088575E+03  0.12499829753E+03 0.  0.
        -13    1    3    3    0    0 -0.48335828991E+02 -0.34649899820E+02 -0.18541670075E+03  0.19472116477E+03  0.10570000000E+00 0.  1.
         13    1    3    3    0    0  0.48335828991E+02  0.34649899820E+02 -0.35634089325E+03  0.36126972098E+03  0.10570000000E+00 0. -1.
<mgrwt>
<rscale>  0 0.12499830E+03</rscale>
<asrwt>0</asrwt>
<pdfrwt beam="2">  1        1 0.84442157E-01 0.12499830E+03</pdfrwt>
<pdfrwt beam="1">  1       -1 0.10948690E-02 0.12499830E+03</pdfrwt>
<totfact> 0.60197288E+04</totfact>
</mgrwt>
</event>
<event>
 5    1  0.1336420E-049  0.1249969E+03  0.7818608E-02  0.1235074E+00
          1   -1    0    0  501    0  0.00000000000E+00  0.00000000000E+00  0.26358778626E+03  0.26358778630E+03  0.46700000000E-02 0. -1.
         -1   -1    0    0    0  501 -0.00000000000E+00 -0.00000000000E+00 -0.14818804661E+02  0.14818805397E+02  0.46700000000E-02 0.  1.
         25    2    1    2    0    0  0.00000000000E+00  0.00000000000E+00  0.24876898160E+03  0.27840659170E+03  0.12499689634E+03 0.  0.
        -13    1    3    3    0    0  0.49847089785E+02 -0.37286671582E+02  0.11198004190E+03  0.12811935527E+03  0.10570000000E+00 0. -1.
         13    1    3    3    0    0 -0.49847089785E+02  0.37286671582E+02  0.13678893969E+03  0.15028723643E+03  0.10570000000E+00 0.  1.
<mgrwt>
<rscale>  0 0.12499690E+03</rscale>
<asrwt>0</asrwt>
<pdfrwt beam="1">  1        1 0.40551968E-01 0.12499690E+03</pdfrwt>
<pdfrwt beam="2">  1       -1 0.22798161E-02 0.12499690E+03</pdfrwt>
<totfact> 0.53037227E+04</totfact>
</mgrwt>
</event>
<event>
 5    1  0.1336420E-049  0.1249959E+03  0.7818608E-02  0.1235076E+00
         -1   -1    0    0    0  501 -0.00000000000E+00  0.00000000000E+00  0.12448448228E+02  0.12448449104E+02  0.46700000000E-02 0.  1.
          1   -1    0    0  501    0  0.00000000000E+00 -0.00000000000E+00 -0.31377347134E+03  0.31377347138E+03  0.46700000000E-02 0. -1.
         25    2    1    2    0    0  0.00000000000E+00  0.00000000000E+00 -0.30132502311E+03  0.32622192048E+03  0.12499588732E+03 0.  0.
        -13    1    3    3    0    0 -0.41538687368E+02  0.24348820790E+02 -0.46671603609E+02  0.67056523755E+02  0.10570000000E+00 0.  1.
         13    1    3    3    0    0  0.41538687368E+02 -0.24348820790E+02 -0.25465341950E+03  0.25916539673E+03  0.10570000000E+00 0. -1.
<mgrwt>
<rscale>  0 0.12499589E+03</rscale>
<asrwt>0</asrwt>
<pdfrwt beam="2">  1        1 0.48272836E-01 0.12499589E+03</pdfrwt>
<pdfrwt beam="1">  1       -1 0.19151462E-02 0.12499589E+03</pdfrwt>
<totfact> 0.54989179E+04</totfact>
</mgrwt>
</event>
<event>
 5    1  0.1336420E-049  0.1249997E+03  0.7818608E-02  0.1235070E+00
          1   -1    0    0  501    0  0.00000000000E+00  0.00000000000E+00  0.22502914807E+02  0.22502915291E+02  0.46700000000E-02 0. -1.
         -1   -1    0    0    0  501 -0.00000000000E+00 -0.00000000000E+00 -0.17358790295E+03  0.17358790301E+03  0.46700000000E-02 0.  1.
         25    2    1    2    0    0  0.00000000000E+00  0.00000000000E+00 -0.15108498814E+03  0.19609081830E+03  0.12499974152E+03 0.  0.
        -13    1    3    3    0    0  0.55667633410E+02 -0.75613148225E+01 -0.11850861931E+03  0.13115015408E+03  0.10570000000E+00 0.  1.
         13    1    3    3    0    0 -0.55667633410E+02  0.75613148225E+01 -0.32576368832E+02  0.64940664226E+02  0.10570000000E+00 0. -1.
<mgrwt>
<rscale>  0 0.12499974E+03</rscale>
<asrwt>0</asrwt>
<pdfrwt beam="1">  1        1 0.34619870E-02 0.12499974E+03</pdfrwt>
<pdfrwt beam="2">  1       -1 0.26705830E-01 0.12499974E+03</pdfrwt>
<totfact> 0.31560836E+04</totfact>
</mgrwt>
</event>
<event>
 5    1  0.1336420E-049  0.1249862E+03  0.7818608E-02  0.1235091E+00
         -1   -1    0    0    0  501 -0.00000000000E+00  0.00000000000E+00  0.39155962174E+03  0.39155962177E+03  0.46700000000E-02 0.  1.
          1   -1    0    0  501    0  0.00000000000E+00 -0.00000000000E+00 -0.99739230986E+01  0.99739241919E+01  0.46700000000E-02 0. -1.
         25    2    1    2    0    0  0.00000000000E+00  0.00000000000E+00  0.38158569864E+03  0.40153354596E+03  0.12498617173E+03 0.  0.
        -13    1    3    3    0    0 -0.54437728340E+02 -0.93178994446E+01  0.28473587319E+03  0.29004278680E+03  0.10570000000E+00 0.  1.
         13    1    3    3    0    0  0.54437728340E+02  0.93178994446E+01  0.96849825445E+02  0.11149075916E+03  0.10570000000E+00 0. -1.
<mgrwt>
<rscale>  0 0.12498617E+03</rscale>
<asrwt>0</asrwt>
<pdfrwt beam="2">  1        1 0.15344499E-02 0.12498617E+03</pdfrwt>
<pdfrwt beam="1">  1       -1 0.60239938E-01 0.12498617E+03</pdfrwt>
<totfact> 0.23362090E+04</totfact>
</mgrwt>
</event>
<event>
 5    1  0.1336420E-049  0.1250039E+03  0.7818608E-02  0.1235063E+00
         -1   -1    0    0    0  501 -0.00000000000E+00  0.00000000000E+00  0.17321225089E+02  0.17321225718E+02  0.46700000000E-02 0.  1.
          1   -1    0    0  501    0  0.00000000000E+00 -0.00000000000E+00 -0.22553214035E+03  0.22553214040E+03  0.46700000000E-02 0. -1.
         25    2    1    2    0    0  0.00000000000E+00  0.00000000000E+00 -0.20821091526E+03  0.24285336612E+03  0.12500388874E+03 0.  0.
        -13    1    3    3    0    0 -0.60115836973E+02  0.12639811047E+02 -0.81716964067E+02  0.10223185446E+03  0.10570000000E+00 0.  1.
         13    1    3    3    0    0  0.60115836973E+02 -0.12639811047E+02 -0.12649395119E+03  0.14062151165E+03  0.10570000000E+00 0. -1.
<mgrwt>
<rscale>  0 0.12500389E+03</rscale>
<asrwt>0</asrwt>
<pdfrwt beam="2">  1        1 0.34697250E-01 0.12500389E+03</pdfrwt>
<pdfrwt beam="1">  1       -1 0.26648041E-02 0.12500389E+03</pdfrwt>
<totfact> 0.51303503E+04</totfact>
</mgrwt>
</event>
<event>
 5    1  0.1336420E-049  0.1249995E+03  0.7818608E-02  0.1235070E+00
          1   -1    0    0  501    0  0.00000000000E+00  0.00000000000E+00  0.76432327628E+02  0.76432327770E+02  0.46700000000E-02 0. -1.
         -1   -1    0    0    0  501 -0.00000000000E+00 -0.00000000000E+00 -0.51106856053E+02  0.51106856266E+02  0.46700000000E-02 0.  1.
         25    2    1    2    0    0  0.00000000000E+00  0.00000000000E+00  0.25325471575E+02  0.12753918404E+03  0.12499945582E+03 0.  0.
        -13    1    3    3    0    0  0.46266560364E+02 -0.16845863578E+02 -0.26613899560E+02  0.55970425672E+02  0.10570000000E+00 0.  1.
         13    1    3    3    0    0 -0.46266560364E+02  0.16845863578E+02  0.51939371135E+02  0.71568758365E+02  0.10570000000E+00 0. -1.
<mgrwt>
<rscale>  0 0.12499946E+03</rscale>
<asrwt>0</asrwt>
<pdfrwt beam="1">  1        1 0.11758820E-01 0.12499946E+03</pdfrwt>
<pdfrwt beam="2">  1       -1 0.78625933E-02 0.12499946E+03</pdfrwt>
<totfact> 0.41140478E+04</totfact>
</mgrwt>
</event>
<event>
 5    1  0.1336420E-049  0.1250005E+03  0.7818608E-02  0.1235069E+00
         -1   -1    0    0    0  501 -0.00000000000E+00  0.00000000000E+00  0.28387603981E+02  0.28387604365E+02  0.46700000000E-02 0.  1.
          1   -1    0    0  501    0  0.00000000000E+00 -0.00000000000E+00 -0.13760507519E+03  0.13760507527E+03  0.46700000000E-02 0. -1.
         25    2    1    2    0    0  0.00000000000E+00  0.00000000000E+00 -0.10921747121E+03  0.16599267964E+03  0.12500045470E+03 0.  0.
        -13    1    3    3    0    0 -0.43502593137E+02  0.16122493977E+02  0.10040195800E+01  0.46405060602E+02  0.10570000000E+00 0.  1.
         13    1    3    3    0    0  0.43502593137E+02 -0.16122493977E+02 -0.11022149079E+03  0.11958761904E+03  0.10570000000E+00 0. -1.
<mgrwt>
<rscale>  0 0.12500045E+03</rscale>
<asrwt>0</asrwt>
<pdfrwt beam="2">  1        1 0.21170011E-01 0.12500045E+03</pdfrwt>
<pdfrwt beam="1">  1       -1 0.43673238E-02 0.12500045E+03</pdfrwt>
<totfact> 0.46231010E+04</totfact>
</mgrwt>
</event>
<event>
 5    1  0.1336420E-049  0.1250233E+03  0.7818608E-02  0.1235033E+00
         -1   -1    0    0    0  501 -0.00000000000E+00  0.00000000000E+00  0.22561590453E+02  0.22561590937E+02  0.46700000000E-02 0.  1.
          1   -1    0    0  501    0  0.00000000000E+00 -0.00000000000E+00 -0.17320178501E+03  0.17320178507E+03  0.46700000000E-02 0. -1.
         25    2    1    2    0    0  0.00000000000E+00  0.00000000000E+00 -0.15064019456E+03  0.19576337601E+03  0.12502332251E+03 0.  0.
        -13    1    3    3    0    0  0.34662545858E+02  0.39141863762E+02 -0.21666792873E+02  0.56595394424E+02  0.10570000000E+00 0.  1.
         13    1    3    3    0    0 -0.34662545858E+02 -0.39141863762E+02 -0.12897340168E+03  0.13916798158E+03  0.10570000000E+00 0. -1.
<mgrwt>
<rscale>  0 0.12502332E+03</rscale>
<asrwt>0</asrwt>
<pdfrwt beam="2">  1        1 0.26646428E-01 0.12502332E+03</pdfrwt>
<pdfrwt beam="1">  1       -1 0.34710141E-02 0.12502332E+03</pdfrwt>
<totfact> 0.48475640E+04</totfact>
</mgrwt>
</event>
<event>
 5    1  0.1336420E-049  0.1249991E+03  0.7818608E-02  0.1235071E+00
         -1   -1    0    0    0  501 -0.00000000000E+00  0.00000000000E+00  0.48110076625E+02  0.48110076852E+02  0.46700000000E-02 0.  1.
          1   -1    0    0  501    0  0.00000000000E+00 -0.00000000000E+00 -0.81192843278E+02  0.81192843412E+02  0.46700000000E-02 0. -1.
         25    2    1    2    0    0  0.00000000000E+00  0.00000000000E+00 -0.33082766652E+02  0.12930292026E+03  0.12499910295E+03 0.  0.
        -13    1    3    3    0    0 -0.48754654652E+02  0.36580365544E+02 -0.22436462241E+01  0.60993316146E+02  0.10570000000E+00 0.  1.
         13    1    3    3    0    0  0.48754654652E+02 -0.36580365544E+02 -0.30839120428E+02  0.68309604119E+02  0.10570000000E+00 0. -1.
<mgrwt>
<rscale>  0 0.12499910E+03</rscale>
<asrwt>0</asrwt>
<pdfrwt beam="2">  1        1 0.12491207E-01 0.12499910E+03</pdfrwt>
<pdfrwt beam="1">  1       -1 0.74015503E-02 0.12499910E+03</pdfrwt>
<totfact> 0.41625075E+04</totfact>
</mgrwt>
</event>
<event>
 5    1  0.1336420E-049  0.1249980E+03  0.7818608E-02  0.1235072E+00
         -1   -1    0    0    0  501 -0.00000000000E+00  0.00000000000E+00  0.68681020581E+02  0.68681020740E+02  0.46700000000E-02 0.  1.
          1   -1    0    0  501    0  0.00000000000E+00 -0.00000000000E+00 -0.56873457621E+02  0.56873457812E+02  0.46700000000E-02 0. -1.
         25    2    1    2    0    0  0.00000000000E+00  0.00000000000E+00  0.11807562961E+02  0.12555447855E+03  0.12499803415E+03 0.  0.
        -13    1    3    3    0    0 -0.27750491185E+02  0.53532759581E+02  0.22416851748E+02  0.64330183616E+02  0.10570000000E+00 0.  1.
         13    1    3    3    0    0  0.27750491185E+02 -0.53532759581E+02 -0.10609288787E+02  0.61224294936E+02  0.10570000000E+00 0. -1.
<mgrwt>
<rscale>  0 0.12499803E+03</rscale>
<asrwt>0</asrwt>
<pdfrwt beam="2">  1        1 0.87497628E-02 0.12499803E+03</pdfrwt>
<pdfrwt beam="1">  1       -1 0.10566311E-01 0.12499803E+03</pdfrwt>
<totfact> 0.38848787E+04</totfact>
</mgrwt>
</event>
<event>
 5    1  0.1336420E-049  0.1250001E+03  0.7818608E-02  0.1235069E+00
         -1   -1    0    0    0  501 -0.00000000000E+00  0.00000000000E+00  0.47114548794E+02  0.47114549025E+02  0.46700000000E-02 0.  1.
          1   -1    0    0  501    0  0.00000000000E+00 -0.00000000000E+00 -0.82909816119E+02  0.82909816251E+02  0.46700000000E-02 0. -1.
         25    2    1    2    0    0  0.00000000000E+00  0.00000000000E+00 -0.35795267326E+02  0.13002436528E+03  0.12500013761E+03 0.  0.
        -13    1    3    3    0    0  0.17175222543E+02 -0.60089194886E+02 -0.17127737988E+02  0.64800232966E+02  0.10570000000E+00 0.  1.
         13    1    3    3    0    0 -0.17175222543E+02  0.60089194886E+02 -0.18667529338E+02  0.65224132310E+02  0.10570000000E+00 0. -1.
<mgrwt>
<rscale>  0 0.12500014E+03</rscale>
<asrwt>0</asrwt>
<pdfrwt beam="2">  1        1 0.12755356E-01 0.12500014E+03</pdfrwt>
<pdfrwt beam="1">  1       -1 0.72483922E-02 0.12500014E+03</pdfrwt>
<totfact> 0.41793439E+04</totfact>
</mgrwt>
</event>
<event>
 5    1  0.1336420E-049  0.1250037E+03  0.7818608E-02  0.1235063E+00
         -1   -1    0    0    0  501 -0.00000000000E+00  0.00000000000E+00  0.14791982826E+02  0.14791983564E+02  0.46700000000E-02 0.  1.
          1   -1    0    0  501    0  0.00000000000E+00 -0.00000000000E+00 -0.26409459223E+03  0.26409459227E+03  0.46700000000E-02 0. -1.
         25    2    1    2    0    0  0.00000000000E+00  0.00000000000E+00 -0.24930260940E+03  0.27888657583E+03  0.12500372445E+03 0.  0.
        -13    1    3    3    0    0 -0.43059696200E+02 -0.25266414054E+02 -0.40759308135E+02  0.64450457625E+02  0.10570000000E+00 0.  1.
         13    1    3    3    0    0  0.43059696200E+02  0.25266414054E+02 -0.20854330127E+03  0.21443611821E+03  0.10570000000E+00 0. -1.
<mgrwt>
<rscale>  0 0.12500372E+03</rscale>
<asrwt>0</asrwt>
<pdfrwt beam="2">  1        1 0.40629934E-01 0.12500372E+03</pdfrwt>
<pdfrwt beam="1">  1       -1 0.22756899E-02 0.12500372E+03</pdfrwt>
<totfact> 0.53050770E+04</totfact>
</mgrwt>
</event>
<event>
 5    1  0.1336420E-049  0.1249982E+03  0.7818608E-02  0.1235072E+00
         -1   -1    0    0    0  501 -0.00000000000E+00  0.00000000000E+00  0.36702502561E+02  0.36702502858E+02  0.46700000000E-02 0.  1.
          1   -1    0    0  501    0  0.00000000000E+00 -0.00000000000E+00 -0.10642708250E+03  0.10642708261E+03  0.46700000000E-02 0. -1.
         25    2    1    2    0    0  0.00000000000E+00  0.00000000000E+00 -0.69724579943E+02  0.14312958546E+03  0.12499824473E+03 0.  0.
        -13    1    3    3    0    0 -0.22028462709E+02  0.56578628620E+02 -0.17888654952E+02  0.63296204738E+02  0.10570000000E+00 0.  1.
         13    1    3    3    0    0  0.22028462709E+02 -0.56578628620E+02 -0.51835924991E+02  0.79833380725E+02  0.10570000000E+00 0. -1.
<mgrwt>
<rscale>  0 0.12499824E+03</rscale>
<asrwt>0</asrwt>
<pdfrwt beam="2">  1        1 0.16373397E-01 0.12499824E+03</pdfrwt>
<pdfrwt beam="1">  1       -1 0.56465389E-02 0.12499824E+03</pdfrwt>
<totfact> 0.43894250E+04</totfact>
</mgrwt>
</event>
<event>
 5    1  0.1336420E-049  0.1249957E+03  0.7818608E-02  0.1235076E+00
          1   -1    0    0  501    0  0.00000000000E+00  0.00000000000E+00  0.29798666189E+03  0.29798666192E+03  0.46700000000E-02 0. -1.
         -1   -1    0    0    0  501 -0.00000000000E+00 -0.00000000000E+00 -0.13107914345E+02  0.13107915177E+02  0.46700000000E-02 0.  1.
         25    2    1    2    0    0  0.00000000000E+00  0.00000000000E+00  0.28487874754E+03  0.31109457710E+03  0.12499574033E+03 0.  0.
        -13    1    3    3    0    0 -0.55561706613E+02  0.26483282456E+02  0.16941835878E+03  0.18025276407E+03  0.10570000000E+00 0. -1.
         13    1    3    3    0    0  0.55561706613E+02 -0.26483282456E+02  0.11546038877E+03  0.13084181303E+03  0.10570000000E+00 0.  1.
<mgrwt>
<rscale>  0 0.12499574E+03</rscale>
<asrwt>0</asrwt>
<pdfrwt beam="1">  1        1 0.45844098E-01 0.12499574E+03</pdfrwt>
<pdfrwt beam="2">  1       -1 0.20166024E-02 0.12499574E+03</pdfrwt>
<totfact> 0.54414752E+04</totfact>
</mgrwt>
</event>
<event>
 5    1  0.1336420E-049  0.1249999E+03  0.7818608E-02  0.1235069E+00
          1   -1    0    0  501    0  0.00000000000E+00  0.00000000000E+00  0.71630958206E+02  0.71630958358E+02  0.46700000000E-02 0. -1.
         -1   -1    0    0    0  501 -0.00000000000E+00 -0.00000000000E+00 -0.54532933756E+02  0.54532933956E+02  0.46700000000E-02 0.  1.
         25    2    1    2    0    0  0.00000000000E+00  0.00000000000E+00  0.17098024449E+02  0.12616389231E+03  0.12499994113E+03 0.  0.
        -13    1    3    3    0    0 -0.37511863415E+02 -0.48749813892E+02  0.19722365180E+02  0.64596184966E+02  0.10570000000E+00 0.  1.
         13    1    3    3    0    0  0.37511863415E+02  0.48749813892E+02 -0.26243407310E+01  0.61567707348E+02  0.10570000000E+00 0. -1.
<mgrwt>
<rscale>  0 0.12499994E+03</rscale>
<asrwt>0</asrwt>
<pdfrwt beam="1">  1        1 0.11020147E-01 0.12499994E+03</pdfrwt>
<pdfrwt beam="2">  1       -1 0.83896822E-02 0.12499994E+03</pdfrwt>
<totfact> 0.40627170E+04</totfact>
</mgrwt>
</event>
<event>
 5    1  0.1336420E-049  0.1249998E+03  0.7818608E-02  0.1235070E+00
         -1   -1    0    0    0  501 -0.00000000000E+00  0.00000000000E+00  0.30504439140E+03  0.30504439143E+03  0.46700000000E-02 0.  1.
          1   -1    0    0  501    0  0.00000000000E+00 -0.00000000000E+00 -0.12805468634E+02  0.12805469485E+02  0.46700000000E-02 0. -1.
         25    2    1    2    0    0  0.00000000000E+00  0.00000000000E+00  0.29223892276E+03  0.31784986092E+03  0.12499978443E+03 0.  0.
        -13    1    3    3    0    0 -0.58312731401E+02  0.11492889750E+02  0.96959491279E+02  0.11372605365E+03  0.10570000000E+00 0. -1.
         13    1    3    3    0    0  0.58312731401E+02 -0.11492889750E+02  0.19527943149E+03  0.20412380726E+03  0.10570000000E+00 0.  1.
<mgrwt>
<rscale>  0 0.12499978E+03</rscale>
<asrwt>0</asrwt>
<pdfrwt beam="2">  1        1 0.19700721E-02 0.12499978E+03</pdfrwt>
<pdfrwt beam="1">  1       -1 0.46929908E-01 0.12499978E+03</pdfrwt>
<totfact> 0.26150038E+04</totfact>
</mgrwt>
</event>
<event>
 5    1  0.1336420E-049  0.1250004E+03  0.7818608E-02  0.1235069E+00
          1   -1    0    0  501    0  0.00000000000E+00  0.00000000000E+00  0.53697257539E+02  0.53697257742E+02  0.46700000000E-02 0. -1.
         -1   -1    0    0    0  501 -0.00000000000E+00 -0.00000000000E+00 -0.72746312634E+02  0.72746312784E+02  0.46700000000E-02 0.  1.
         25    2    1    2    0    0  0.00000000000E+00  0.00000000000E+00 -0.19049055095E+02  0.12644357053E+03  0.12500044011E+03 0.  0.
        -13    1    3    3    0    0  0.43765547985E+02  0.40928544521E+02 -0.27497532864E+02  0.65929465591E+02  0.10570000000E+00 0.  1.
         13    1    3    3    0    0 -0.43765547985E+02 -0.40928544521E+02  0.84484777694E+01  0.60514104935E+02  0.10570000000E+00 0. -1.
<mgrwt>
<rscale>  0 0.12500044E+03</rscale>
<asrwt>0</asrwt>
<pdfrwt beam="1">  1        1 0.82611165E-02 0.12500044E+03</pdfrwt>
<pdfrwt beam="2">  1       -1 0.11191740E-01 0.12500044E+03</pdfrwt>
<totfact> 0.38410444E+04</totfact>
</mgrwt>
</event>
<event>
 5    1  0.1336420E-049  0.1249988E+03  0.7818608E-02  0.1235071E+00
         -1   -1    0    0    0  501 -0.00000000000E+00  0.00000000000E+00  0.29392772449E+03  0.29392772453E+03  0.46700000000E-02 0.  1.
          1   -1    0    0  501    0  0.00000000000E+00 -0.00000000000E+00 -0.13289566325E+02  0.13289567145E+02  0.46700000000E-02 0. -1.
         25    2    1    2    0    0  0.00000000000E+00  0.00000000000E+00  0.28063815816E+03  0.30721729167E+03  0.12499875393E+03 0.  0.
        -13    1    3    3    0    0  0.34051760742E+02  0.29243128089E+02  0.24720995097E+03  0.25125177408E+03  0.10570000000E+00 0.  1.
         13    1    3    3    0    0 -0.34051760742E+02 -0.29243128089E+02  0.33428207198E+02  0.55965517590E+02  0.10570000000E+00 0. -1.
<mgrwt>
<rscale>  0 0.12499875E+03</rscale>
<asrwt>0</asrwt>
<pdfrwt beam="2">  1        1 0.20445489E-02 0.12499875E+03</pdfrwt>
<pdfrwt beam="1">  1       -1 0.45219646E-01 0.12499875E+03</pdfrwt>
<totfact> 0.26544051E+04</totfact>
</mgrwt>
</event>
<event>
 5    1  0.1336420E-049  0.1249856E+03  0.7818608E-02  0.1235092E+00
         -1   -1    0    0    0  501 -0.00000000000E+00  0.00000000000E+00  0.11584736037E+03  0.11584736047E+03  0.46700000000E-02 0.  1.
          1   -1    0    0  501    0  0.00000000000E+00 -0.00000000000E+00 -0.33711156118E+02  0.33711156442E+02  0.46700000000E-02 0. -1.
         25    2    1    2    0    0  0.00000000000E+00  0.00000000000E+00  0.82136204256E+02  0.14955851691E+03  0.12498557489E+03 0.  0.
        -13    1    3    3    0    0  0.31003661432E+02 -0.52999801607E+02  0.27158033797E+02  0.67139972928E+02  0.10570000000E+00 0.  1.
         13    1    3    3    0    0 -0.31003661432E+02  0.52999801607E+02  0.54978170459E+02  0.82418543982E+02  0.10570000000E+00 0. -1.
<mgrwt>
<rscale>  0 0.12498557E+03</rscale>
<asrwt>0</asrwt>
<pdfrwt beam="2">  1        1 0.51863318E-02 0.12498557E+03</pdfrwt>
<pdfrwt beam="1">  1       -1 0.17822671E-01 0.12498557E+03</pdfrwt>
<totfact> 0.34877223E+04</totfact>
</mgrwt>
</event>
<event>
 5    1  0.1336420E-049  0.1249998E+03  0.7818608E-02  0.1235070E+00
         -1   -1    0    0    0  501 -0.00000000000E+00  0.00000000000E+00  0.20439578283E+02  0.20439578817E+02  0.46700000000E-02 0.  1.
          1   -1    0    0  501    0  0.00000000000E+00 -0.00000000000E+00 -0.19111135723E+03  0.19111135729E+03  0.46700000000E-02 0. -1.
         25    2    1    2    0    0  0.00000000000E+00  0.00000000000E+00 -0.17067177895E+03  0.21155093610E+03  0.12499976975E+03 0.  0.
        -13    1    3    3    0    0 -0.78752285955E+01  0.58520282574E+02 -0.50669067706E+02  0.77807507945E+02  0.10570000000E+00 0.  1.
         13    1    3    3    0    0  0.78752285955E+01 -0.58520282574E+02 -0.12000271124E+03  0.13374342816E+03  0.10570000000E+00 0. -1.
<mgrwt>
<rscale>  0 0.12499977E+03</rscale>
<asrwt>0</asrwt>
<pdfrwt beam="2">  1        1 0.29401746E-01 0.12499977E+03</pdfrwt>
<pdfrwt beam="1">  1       -1 0.31445507E-02 0.12499977E+03</pdfrwt>
<totfact> 0.49525647E+04</totfact>
</mgrwt>
</event>
<event>
 5    1  0.1343669E-049  0.1249946E+03  0.7818608E-02  0.1235078E+00
         -1   -1    0    0    0  501 -0.00000000000E+00  0.00000000000E+00  0.79557875958E+02  0.79557876095E+02  0.46700000000E-02 0.  1.
          1   -1    0    0  501    0  0.00000000000E+00 -0.00000000000E+00 -0.49095249767E+02  0.49095249989E+02  0.46700000000E-02 0. -1.
         25    2    1    2    0    0  0.00000000000E+00  0.00000000000E+00  0.30462626191E+02  0.12865312608E+03  0.12499462091E+03 0.  0.
        -13    1    3    3    0    0 -0.47092597986E+02 -0.34355677797E+02  0.38427062248E+02  0.69818877587E+02  0.10570000000E+00 0. -1.
         13    1    3    3    0    0  0.47092597986E+02  0.34355677797E+02 -0.79644360573E+01  0.58834248497E+02  0.10570000000E+00 0.  1.
<mgrwt>
<rscale>  0 0.12499462E+03</rscale>
<asrwt>0</asrwt>
<pdfrwt beam="2">  1        1 0.75531155E-02 0.12499462E+03</pdfrwt>
<pdfrwt beam="1">  1       -1 0.12239673E-01 0.12499462E+03</pdfrwt>
<totfact> 0.37738354E+04</totfact>
</mgrwt>
</event>
<event>
 5    1  0.1336420E-049  0.1250001E+03  0.7818608E-02  0.1235069E+00
          1   -1    0    0  501    0  0.00000000000E+00  0.00000000000E+00  0.61657003981E+02  0.61657004158E+02  0.46700000000E-02 0. -1.
         -1   -1    0    0    0  501 -0.00000000000E+00 -0.00000000000E+00 -0.63354646223E+02  0.63354646395E+02  0.46700000000E-02 0.  1.
         25    2    1    2    0    0  0.00000000000E+00  0.00000000000E+00 -0.16976422419E+01  0.12501165055E+03  0.12500012314E+03 0.  0.
        -13    1    3    3    0    0  0.33825989841E+02 -0.48698159229E+02  0.18915041262E+02  0.62237434551E+02  0.10570000000E+00 0. -1.
         13    1    3    3    0    0 -0.33825989841E+02  0.48698159229E+02 -0.20612683504E+02  0.62774216002E+02  0.10570000000E+00 0.  1.
<mgrwt>
<rscale>  0 0.12500012E+03</rscale>
<asrwt>0</asrwt>
<pdfrwt beam="1">  1        1 0.94856929E-02 0.12500012E+03</pdfrwt>
<pdfrwt beam="2">  1       -1 0.97468687E-02 0.12500012E+03</pdfrwt>
<totfact> 0.39463800E+04</totfact>
</mgrwt>
</event>
<event>
 5    1  0.1336420E-049  0.1249999E+03  0.7818608E-02  0.1235069E+00
         -1   -1    0    0    0  501 -0.00000000000E+00  0.00000000000E+00  0.10485825038E+03  0.10485825048E+03  0.46700000000E-02 0. -1.
          1   -1    0    0  501    0  0.00000000000E+00 -0.00000000000E+00 -0.37252628509E+02  0.37252628802E+02  0.46700000000E-02 0.  1.
         25    2    1    2    0    0  0.00000000000E+00  0.00000000000E+00  0.67605621866E+02  0.14211087928E+03  0.12499992761E+03 0.  0.
        -13    1    3    3    0    0 -0.38525937135E+02 -0.42907289147E+02  0.64004917778E+01  0.58019486050E+02  0.10570000000E+00 0. -1.
         13    1    3    3    0    0  0.38525937135E+02  0.42907289147E+02  0.61205130088E+02  0.84091393232E+02  0.10570000000E+00 0.  1.
<mgrwt>
<rscale>  0 0.12499993E+03</rscale>
<asrwt>0</asrwt>
<pdfrwt beam="2">  1        1 0.57311737E-02 0.12499993E+03</pdfrwt>
<pdfrwt beam="1">  1       -1 0.16132038E-01 0.12499993E+03</pdfrwt>
<totfact> 0.35637590E+04</totfact>
</mgrwt>
</event>
<event>
 5    1  0.1336420E-049  0.1249979E+03  0.7818608E-02  0.1235073E+00
          1   -1    0    0  501    0  0.00000000000E+00  0.00000000000E+00  0.18703361481E+02  0.18703362064E+02  0.46700000000E-02 0. -1.
         -1   -1    0    0    0  501 -0.00000000000E+00 -0.00000000000E+00 -0.20884582256E+03  0.20884582262E+03  0.46700000000E-02 0.  1.
         25    2    1    2    0    0  0.00000000000E+00  0.00000000000E+00 -0.19014246108E+03  0.22754918468E+03  0.12499790375E+03 0.  0.
        -13    1    3    3    0    0  0.37922335561E+02  0.48837966469E+02 -0.78500640691E+02  0.99928035429E+02  0.10570000000E+00 0.  1.
         13    1    3    3    0    0 -0.37922335561E+02 -0.48837966469E+02 -0.11164182039E+03  0.12762114925E+03  0.10570000000E+00 0. -1.
<mgrwt>
<rscale>  0 0.12499790E+03</rscale>
<asrwt>0</asrwt>
<pdfrwt beam="1">  1        1 0.28774404E-02 0.12499790E+03</pdfrwt>
<pdfrwt beam="2">  1       -1 0.32130125E-01 0.12499790E+03</pdfrwt>
<totfact> 0.29910458E+04</totfact>
</mgrwt>
</event>
<event>
 5    1  0.1336420E-049  0.1250000E+03  0.7818608E-02  0.1235069E+00
          1   -1    0    0  501    0  0.00000000000E+00  0.00000000000E+00  0.38147918576E+02  0.38147918862E+02  0.46700000000E-02 0. -1.
         -1   -1    0    0    0  501 -0.00000000000E+00 -0.00000000000E+00 -0.10239744076E+03  0.10239744086E+03  0.46700000000E-02 0.  1.
         25    2    1    2    0    0  0.00000000000E+00  0.00000000000E+00 -0.64249522180E+02  0.14054535972E+03  0.12499998816E+03 0.  0.
        -13    1    3    3    0    0  0.40135310061E+01 -0.54786138787E+02  0.13919818517E+01  0.54950688988E+02  0.10570000000E+00 0.  1.
         13    1    3    3    0    0 -0.40135310061E+01  0.54786138787E+02 -0.65641504031E+02  0.85594670736E+02  0.10570000000E+00 0. -1.
<mgrwt>
<rscale>  0 0.12499999E+03</rscale>
<asrwt>0</asrwt>
<pdfrwt beam="1">  1        1 0.58689106E-02 0.12499999E+03</pdfrwt>
<pdfrwt beam="2">  1       -1 0.15753452E-01 0.12499999E+03</pdfrwt>
<totfact> 0.35819681E+04</totfact>
</mgrwt>
</event>
<event>
 5    1  0.1336420E-049  0.1250002E+03  0.7818608E-02  0.1235069E+00
         -1   -1    0    0    0  501 -0.00000000000E+00  0.00000000000E+00  0.27146207896E+02  0.27146208298E+02  0.46700000000E-02 0.  1.
          1   -1    0    0  501    0  0.00000000000E+00 -0.00000000000E+00 -0.14389709280E+03  0.14389709287E+03  0.46700000000E-02 0. -1.
         25    2    1    2    0    0  0.00000000000E+00  0.00000000000E+00 -0.11675088490E+03  0.17104330117E+03  0.12500016700E+03 0.  0.
        -13    1    3    3    0    0 -0.48243666410E+02  0.19380616803E+02 -0.10583924328E+03  0.11791953293E+03  0.10570000000E+00 0.  1.
         13    1    3    3    0    0  0.48243666410E+02 -0.19380616803E+02 -0.10911641617E+02  0.53123768236E+02  0.10570000000E+00 0. -1.
<mgrwt>
<rscale>  0 0.12500017E+03</rscale>
<asrwt>0</asrwt>
<pdfrwt beam="2">  1        1 0.22138014E-01 0.12500017E+03</pdfrwt>
<pdfrwt beam="1">  1       -1 0.41763398E-02 0.12500017E+03</pdfrwt>
<totfact> 0.46659586E+04</totfact>
</mgrwt>
</event>
<event>
 5    1  0.1336420E-049  0.1250005E+03  0.7818608E-02  0.1235068E+00
         -1   -1    0    0    0  501 -0.00000000000E+00  0.00000000000E+00  0.10076494105E+02  0.10076495188E+02  0.46700000000E-02 0.  1.
          1   -1    0    0  501    0  0.00000000000E+00 -0.00000000000E+00 -0.38766272456E+03  0.38766272459E+03  0.46700000000E-02 0. -1.
         25    2    1    2    0    0  0.00000000000E+00  0.00000000000E+00 -0.37758623046E+03  0.39773921978E+03  0.12500050207E+03 0.  0.
        -13    1    3    3    0    0 -0.52182798910E+02 -0.33733892078E+02 -0.21019721947E+03  0.21918919276E+03  0.10570000000E+00 0. -1.
         13    1    3    3    0    0  0.52182798910E+02  0.33733892078E+02 -0.16738901099E+03  0.17855002702E+03  0.10570000000E+00 0.  1.
<mgrwt>
<rscale>  0 0.12500050E+03</rscale>
<asrwt>0</asrwt>
<pdfrwt beam="2">  1        1 0.59640408E-01 0.12500050E+03</pdfrwt>
<pdfrwt beam="1">  1       -1 0.15502302E-02 0.12500050E+03</pdfrwt>
<totfact> 0.57252751E+04</totfact>
</mgrwt>
</event>
<event>
 5    1  0.1461010E-049  0.1250103E+03  0.7818608E-02  0.1235053E+00
          1   -1    0    0  501    0  0.00000000000E+00  0.00000000000E+00  0.71739878625E+02  0.71739878777E+02  0.46700000000E-02 0.  1.
         -1   -1    0    0    0  501 -0.00000000000E+00 -0.00000000000E+00 -0.54459150402E+02  0.54459150602E+02  0.46700000000E-02 0. -1.
         25    2    1    2    0    0  0.00000000000E+00  0.00000000000E+00  0.17280728222E+02  0.12619902938E+03  0.12501028537E+03 0.  0.
        -13    1    3    3    0    0 -0.34792676420E+02  0.43827774539E+02 -0.19471838809E+02  0.59250045000E+02  0.10570000000E+00 0. -1.
         13    1    3    3    0    0  0.34792676420E+02 -0.43827774539E+02  0.36752567031E+02  0.66948984379E+02  0.10570000000E+00 0.  1.
<mgrwt>
<rscale>  0 0.12501029E+03</rscale>
<asrwt>0</asrwt>
<pdfrwt beam="1">  1        1 0.11036904E-01 0.12501029E+03</pdfrwt>
<pdfrwt beam="2">  1       -1 0.83783309E-02 0.12501029E+03</pdfrwt>
<totfact> 0.40629371E+04</totfact>
</mgrwt>
</event>
<event>
 5    1  0.1336420E-049  0.1249990E+03  0.7818608E-02  0.1235071E+00
          1   -1    0    0  501    0  0.00000000000E+00  0.00000000000E+00  0.25643485054E+02  0.25643485480E+02  0.46700000000E-02 0. -1.
         -1   -1    0    0    0  501 -0.00000000000E+00 -0.00000000000E+00 -0.15232667691E+03  0.15232667699E+03  0.46700000000E-02 0.  1.
         25    2    1    2    0    0  0.00000000000E+00  0.00000000000E+00 -0.12668319186E+03  0.17797016246E+03  0.12499899051E+03 0.  0.
        -13    1    3    3    0    0  0.16877809111E+01 -0.54116737164E+02 -0.18891010393E+02  0.57344147843E+02  0.10570000000E+00 0. -1.
         13    1    3    3    0    0 -0.16877809111E+01  0.54116737164E+02 -0.10779218147E+03  0.12062601462E+03  0.10570000000E+00 0.  1.
<mgrwt>
<rscale>  0 0.12499899E+03</rscale>
<asrwt>0</asrwt>
<pdfrwt beam="1">  1        1 0.39451517E-02 0.12499899E+03</pdfrwt>
<pdfrwt beam="2">  1       -1 0.23434873E-01 0.12499899E+03</pdfrwt>
<totfact> 0.32668191E+04</totfact>
</mgrwt>
</event>
<event>
 5    1  0.1336420E-049  0.1250024E+03  0.7818608E-02  0.1235066E+00
          1   -1    0    0  501    0  0.00000000000E+00  0.00000000000E+00  0.23716218987E+03  0.23716218992E+03  0.46700000000E-02 0.  1.
         -1   -1    0    0    0  501 -0.00000000000E+00 -0.00000000000E+00 -0.16471415242E+02  0.16471415904E+02  0.46700000000E-02 0. -1.
         25    2    1    2    0    0  0.00000000000E+00  0.00000000000E+00  0.22069077463E+03  0.25363360582E+03  0.12500235196E+03 0.  0.
        -13    1    3    3    0    0  0.13289291259E+02 -0.54531326809E+02  0.54552025943E+02  0.78270080955E+02  0.10570000000E+00 0. -1.
         13    1    3    3    0    0 -0.13289291259E+02  0.54531326809E+02  0.16613874869E+03  0.17536352487E+03  0.10570000000E+00 0.  1.
<mgrwt>
<rscale>  0 0.12500235E+03</rscale>
<asrwt>0</asrwt>
<pdfrwt beam="1">  1        1 0.36486490E-01 0.12500235E+03</pdfrwt>
<pdfrwt beam="2">  1       -1 0.25340640E-02 0.12500235E+03</pdfrwt>
<totfact> 0.51857401E+04</totfact>
</mgrwt>
</event>
<event>
 5    1  0.1336420E-049  0.1249967E+03  0.7818608E-02  0.1235074E+00
          1   -1    0    0  501    0  0.00000000000E+00  0.00000000000E+00  0.14955172497E+03  0.14955172504E+03  0.46700000000E-02 0. -1.
         -1   -1    0    0    0  501 -0.00000000000E+00 -0.00000000000E+00 -0.26118354847E+02  0.26118355265E+02  0.46700000000E-02 0.  1.
         25    2    1    2    0    0  0.00000000000E+00  0.00000000000E+00  0.12343337012E+03  0.17567008031E+03  0.12499672098E+03 0.  0.
        -13    1    3    3    0    0  0.54070448058E+02 -0.28047287751E+02  0.42052658216E+02  0.74018247337E+02  0.10570000000E+00 0.  1.
         13    1    3    3    0    0 -0.54070448058E+02  0.28047287751E+02  0.81380711907E+02  0.10165183297E+03  0.10570000000E+00 0. -1.
<mgrwt>
<rscale>  0 0.12499672E+03</rscale>
<asrwt>0</asrwt>
<pdfrwt beam="1">  1        1 0.23007957E-01 0.12499672E+03</pdfrwt>
<pdfrwt beam="2">  1       -1 0.40182085E-02 0.12499672E+03</pdfrwt>
<totfact> 0.47037167E+04</totfact>
</mgrwt>
</event>
<event>
 5    1  0.1336420E-049  0.1250068E+03  0.7818608E-02  0.1235059E+00
          1   -1    0    0  501    0  0.00000000000E+00  0.00000000000E+00  0.60407305897E+02  0.60407306078E+02  0.46700000000E-02 0. -1.
         -1   -1    0    0    0  501 -0.00000000000E+00 -0.00000000000E+00 -0.64672272221E+02  0.64672272390E+02  0.46700000000E-02 0.  1.
         25    2    1    2    0    0  0.00000000000E+00  0.00000000000E+00 -0.42649663241E+01  0.12507957847E+03  0.12500684386E+03 0.  0.
        -13    1    3    3    0    0 -0.42292623942E+02  0.38836389360E+02 -0.26839671418E+02  0.63382255503E+02  0.10570000000E+00 0.  1.
         13    1    3    3    0    0  0.42292623942E+02 -0.38836389360E+02  0.22574705094E+02  0.61697322964E+02  0.10570000000E+00 0. -1.
<mgrwt>
<rscale>  0 0.12500684E+03</rscale>
<asrwt>0</asrwt>
<pdfrwt beam="1">  1        1 0.92934317E-02 0.12500684E+03</pdfrwt>
<pdfrwt beam="2">  1       -1 0.99495804E-02 0.12500684E+03</pdfrwt>
<totfact> 0.39300672E+04</totfact>
</mgrwt>
</event>
<event>
 5    1  0.1336420E-049  0.1250006E+03  0.7818608E-02  0.1235068E+00
         -1   -1    0    0    0  501 -0.00000000000E+00  0.00000000000E+00  0.38640349346E+02  0.38640349628E+02  0.46700000000E-02 0.  1.
          1   -1    0    0  501    0  0.00000000000E+00 -0.00000000000E+00 -0.10109349534E+03  0.10109349545E+03  0.46700000000E-02 0. -1.
         25    2    1    2    0    0  0.00000000000E+00  0.00000000000E+00 -0.62453145993E+02  0.13973384508E+03  0.12500060806E+03 0.  0.
        -13    1    3    3    0    0 -0.51312840125E+02 -0.34762910209E+02 -0.40225863986E+02  0.73889097937E+02  0.10570000000E+00 0.  1.
         13    1    3    3    0    0  0.51312840125E+02  0.34762910209E+02 -0.22227282007E+02  0.65844747139E+02  0.10570000000E+00 0. -1.
<mgrwt>
<rscale>  0 0.12500061E+03</rscale>
<asrwt>0</asrwt>
<pdfrwt beam="2">  1        1 0.15552845E-01 0.12500061E+03</pdfrwt>
<pdfrwt beam="1">  1       -1 0.59446692E-02 0.12500061E+03</pdfrwt>
<totfact> 0.43447411E+04</totfact>
</mgrwt>
</event>
<event>
 5    1  0.1336420E-049  0.1250005E+03  0.7818608E-02  0.1235069E+00
         -1   -1    0    0    0  501 -0.00000000000E+00  0.00000000000E+00  0.11797805185E+03  0.11797805195E+03  0.46700000000E-02 0.  1.
          1   -1    0    0  501    0  0.00000000000E+00 -0.00000000000E+00 -0.33110215722E+02  0.33110216052E+02  0.46700000000E-02 0. -1.
         25    2    1    2    0    0  0.00000000000E+00  0.00000000000E+00  0.84867836130E+02  0.15108826800E+03  0.12500046047E+03 0.  0.
        -13    1    3    3    0    0  0.49473832394E+01 -0.54363800324E+02  0.79222322626E+02  0.96208559709E+02  0.10570000000E+00 0.  1.
         13    1    3    3    0    0 -0.49473832394E+01  0.54363800324E+02  0.56455135042E+01  0.54879708288E+02  0.10570000000E+00 0. -1.
<mgrwt>
<rscale>  0 0.12500046E+03</rscale>
<asrwt>0</asrwt>
<pdfrwt beam="2">  1        1 0.50938793E-02 0.12500046E+03</pdfrwt>
<pdfrwt beam="1">  1       -1 0.18150470E-01 0.12500046E+03</pdfrwt>
<totfact> 0.34724158E+04</totfact>
</mgrwt>
</event>
<event>
 5    1  0.1336420E-049  0.1249964E+03  0.7818608E-02  0.1235075E+00
         -1   -1    0    0    0  501 -0.00000000000E+00  0.00000000000E+00  0.48356197801E+02  0.48356198027E+02  0.46700000000E-02 0.  1.
          1   -1    0    0  501    0  0.00000000000E+00 -0.00000000000E+00 -0.80776161959E+02  0.80776162094E+02  0.46700000000E-02 0. -1.
         25    2    1    2    0    0  0.00000000000E+00  0.00000000000E+00 -0.32419964158E+02  0.12913236012E+03  0.12499644937E+03 0.  0.
        -13    1    3    3    0    0  0.55555042710E+02 -0.20497032366E+02 -0.36859495958E+02  0.69750446028E+02  0.10570000000E+00 0.  1.
         13    1    3    3    0    0 -0.55555042710E+02  0.20497032366E+02  0.44395317995E+01  0.59381914094E+02  0.10570000000E+00 0. -1.
<mgrwt>
<rscale>  0 0.12499645E+03</rscale>
<asrwt>0</asrwt>
<pdfrwt beam="2">  1        1 0.12427102E-01 0.12499645E+03</pdfrwt>
<pdfrwt beam="1">  1       -1 0.74394151E-02 0.12499645E+03</pdfrwt>
<totfact> 0.41586108E+04</totfact>
</mgrwt>
</event>
<event>
 5    1  0.1458153E-049  0.1249976E+03  0.7818608E-02  0.1235073E+00
         -1   -1    0    0    0  501 -0.00000000000E+00  0.00000000000E+00  0.58382172404E+02  0.58382172591E+02  0.46700000000E-02 0.  1.
          1   -1    0    0  501    0  0.00000000000E+00 -0.00000000000E+00 -0.66905719547E+02  0.66905719710E+02  0.46700000000E-02 0. -1.
         25    2    1    2    0    0  0.00000000000E+00  0.00000000000E+00 -0.85235471434E+01  0.12528789230E+03  0.12499762038E+03 0.  0.
        -13    1    3    3    0    0 -0.44933013605E+02 -0.29303481398E+02  0.27881691564E+02  0.60457171871E+02  0.10570000000E+00 0.  1.
         13    1    3    3    0    0  0.44933013605E+02  0.29303481398E+02 -0.36405238708E+02  0.64830720430E+02  0.10570000000E+00 0. -1.
<mgrwt>
<rscale>  0 0.12499762E+03</rscale>
<asrwt>0</asrwt>
<pdfrwt beam="2">  1        1 0.10293188E-01 0.12499762E+03</pdfrwt>
<pdfrwt beam="1">  1       -1 0.89818727E-02 0.12499762E+03</pdfrwt>
<totfact> 0.40096711E+04</totfact>
</mgrwt>
</event>
<event>
 5    1  0.1336420E-049  0.1250040E+03  0.7818608E-02  0.1235063E+00
          1   -1    0    0  501    0  0.00000000000E+00  0.00000000000E+00  0.19913986076E+02  0.19913986623E+02  0.46700000000E-02 0. -1.
         -1   -1    0    0    0  501 -0.00000000000E+00 -0.00000000000E+00 -0.19616870730E+03  0.19616870736E+03  0.46700000000E-02 0.  1.
         25    2    1    2    0    0  0.00000000000E+00  0.00000000000E+00 -0.17625472122E+03  0.21608269398E+03  0.12500401547E+03 0.  0.
        -13    1    3    3    0    0 -0.15315303314E+02 -0.41013711592E+02 -0.11018999777E+02  0.45145460267E+02  0.10570000000E+00 0. -1.
         13    1    3    3    0    0  0.15315303314E+02  0.41013711592E+02 -0.16523572145E+03  0.17093723371E+03  0.10570000000E+00 0.  1.
<mgrwt>
<rscale>  0 0.12500402E+03</rscale>
<asrwt>0</asrwt>
<pdfrwt beam="1">  1        1 0.30636903E-02 0.12500402E+03</pdfrwt>
<pdfrwt beam="2">  1       -1 0.30179800E-01 0.12500402E+03</pdfrwt>
<totfact> 0.30477733E+04</totfact>
</mgrwt>
</event>
<event>
 5    1  0.1336420E-049  0.1250001E+03  0.7818608E-02  0.1235069E+00
         -1   -1    0    0    0  501 -0.00000000000E+00  0.00000000000E+00  0.21158028914E+03  0.21158028920E+03  0.46700000000E-02 0.  1.
          1   -1    0    0  501    0  0.00000000000E+00 -0.00000000000E+00 -0.18462291679E+02  0.18462292270E+02  0.46700000000E-02 0. -1.
         25    2    1    2    0    0  0.00000000000E+00  0.00000000000E+00  0.19311799747E+03  0.23004258147E+03  0.12500011337E+03 0.  0.
        -13    1    3    3    0    0  0.41714811010E+02  0.40251395687E+02  0.53558597198E+02  0.78922967625E+02  0.10570000000E+00 0.  1.
         13    1    3    3    0    0 -0.41714811010E+02 -0.40251395687E+02  0.13955940027E+03  0.15111961384E+03  0.10570000000E+00 0. -1.
<mgrwt>
<rscale>  0 0.12500011E+03</rscale>
<asrwt>0</asrwt>
<pdfrwt beam="2">  1        1 0.28403524E-02 0.12500011E+03</pdfrwt>
<pdfrwt beam="1">  1       -1 0.32550816E-01 0.12500011E+03</pdfrwt>
<totfact> 0.29788760E+04</totfact>
</mgrwt>
</event>
<event>
 5    1  0.1336420E-049  0.1250057E+03  0.7818608E-02  0.1235060E+00
          1   -1    0    0  501    0  0.00000000000E+00  0.00000000000E+00  0.16921723846E+03  0.16921723852E+03  0.46700000000E-02 0. -1.
         -1   -1    0    0    0  501 -0.00000000000E+00 -0.00000000000E+00 -0.23086322017E+02  0.23086322489E+02  0.46700000000E-02 0.  1.
         25    2    1    2    0    0  0.00000000000E+00  0.00000000000E+00  0.14613091644E+03  0.19230356101E+03  0.12500565922E+03 0.  0.
        -13    1    3    3    0    0  0.29324853543E+00  0.48315974958E+02  0.13406042805E+03  0.14250168059E+03  0.10570000000E+00 0. -1.
         13    1    3    3    0    0 -0.29324853543E+00 -0.48315974958E+02  0.12070488395E+02  0.49801880421E+02  0.10570000000E+00 0.  1.
<mgrwt>
<rscale>  0 0.12500566E+03</rscale>
<asrwt>0</asrwt>
<pdfrwt beam="1">  1        1 0.26033422E-01 0.12500566E+03</pdfrwt>
<pdfrwt beam="2">  1       -1 0.35517418E-02 0.12500566E+03</pdfrwt>
<totfact> 0.48257725E+04</totfact>
</mgrwt>
</event>
<event>
 5    1  0.1336420E-049  0.1249995E+03  0.7818608E-02  0.1235070E+00
          1   -1    0    0  501    0  0.00000000000E+00  0.00000000000E+00  0.18791743320E+03  0.18791743326E+03  0.46700000000E-02 0. -1.
         -1   -1    0    0    0  501 -0.00000000000E+00 -0.00000000000E+00 -0.20786901311E+02  0.20786901835E+02  0.46700000000E-02 0.  1.
         25    2    1    2    0    0  0.00000000000E+00  0.00000000000E+00  0.16713053189E+03  0.20870433509E+03  0.12499953919E+03 0.  0.
        -13    1    3    3    0    0 -0.33701231438E+02 -0.37910534531E+02  0.22601001827E+02  0.55531955529E+02  0.10570000000E+00 0.  1.
         13    1    3    3    0    0  0.33701231438E+02  0.37910534531E+02  0.14452953006E+03  0.15317237956E+03  0.10570000000E+00 0. -1.
<mgrwt>
<rscale>  0 0.12499954E+03</rscale>
<asrwt>0</asrwt>
<pdfrwt beam="1">  1        1 0.28910375E-01 0.12499954E+03</pdfrwt>
<pdfrwt beam="2">  1       -1 0.31979848E-02 0.12499954E+03</pdfrwt>
<totfact> 0.49348241E+04</totfact>
</mgrwt>
</event>
<event>
 5    1  0.1336420E-049  0.1250000E+03  0.7818608E-02  0.1235069E+00
          1   -1    0    0  501    0  0.00000000000E+00  0.00000000000E+00  0.39468513458E+03  0.39468513461E+03  0.46700000000E-02 0. -1.
         -1   -1    0    0    0  501 -0.00000000000E+00 -0.00000000000E+00 -0.98971288116E+01  0.98971299134E+01  0.46700000000E-02 0.  1.
         25    2    1    2    0    0  0.00000000000E+00  0.00000000000E+00  0.38478800577E+03  0.40458226452E+03  0.12499999753E+03 0.  0.
        -13    1    3    3    0    0 -0.50138721471E+02  0.36625887531E+02  0.21548379803E+03  0.22425125510E+03  0.10570000000E+00 0. -1.
         13    1    3    3    0    0  0.50138721471E+02 -0.36625887531E+02  0.16930420774E+03  0.18033100942E+03  0.10570000000E+00 0.  1.
<mgrwt>
<rscale>  0 0.12500000E+03</rscale>
<asrwt>0</asrwt>
<pdfrwt beam="1">  1        1 0.60720785E-01 0.12500000E+03</pdfrwt>
<pdfrwt beam="2">  1       -1 0.15226354E-02 0.12500000E+03</pdfrwt>
<totfact> 0.57436806E+04</totfact>
</mgrwt>
</event>
<event>
 5    1  0.1336420E-049  0.1250007E+03  0.7818608E-02  0.1235068E+00
          1   -1    0    0  501    0  0.00000000000E+00  0.00000000000E+00  0.78400523460E+02  0.78400523599E+02  0.46700000000E-02 0. -1.
         -1   -1    0    0    0  501 -0.00000000000E+00 -0.00000000000E+00 -0.49824810259E+02  0.49824810478E+02  0.46700000000E-02 0.  1.
         25    2    1    2    0    0  0.00000000000E+00  0.00000000000E+00  0.28575713202E+02  0.12822533408E+03  0.12500065966E+03 0.  0.
        -13    1    3    3    0    0 -0.44462300927E+02 -0.11471100605E+02 -0.29206403272E+02  0.54419734632E+02  0.10570000000E+00 0.  1.
         13    1    3    3    0    0  0.44462300927E+02  0.11471100605E+02  0.57782116473E+02  0.73805599445E+02  0.10570000000E+00 0. -1.
<mgrwt>
<rscale>  0 0.12500066E+03</rscale>
<asrwt>0</asrwt>
<pdfrwt beam="1">  1        1 0.12061619E-01 0.12500066E+03</pdfrwt>
<pdfrwt beam="2">  1       -1 0.76653555E-02 0.12500066E+03</pdfrwt>
<totfact> 0.41342276E+04</totfact>
</mgrwt>
</event>
<event>
 5    1  0.1336420E-049  0.1249997E+03  0.7818608E-02  0.1235070E+00
          1   -1    0    0  501    0  0.00000000000E+00  0.00000000000E+00  0.37501748933E+03  0.37501748936E+03  0.46700000000E-02 0. -1.
         -1   -1    0    0    0  501 -0.00000000000E+00 -0.00000000000E+00 -0.10416128148E+02  0.10416129195E+02  0.46700000000E-02 0.  1.
         25    2    1    2    0    0  0.00000000000E+00  0.00000000000E+00  0.36460136119E+03  0.38543361856E+03  0.12499968694E+03 0.  0.
        -13    1    3    3    0    0  0.24162660029E+02 -0.57617140093E+02  0.18732049084E+03  0.19746530438E+03  0.10570000000E+00 0.  1.
         13    1    3    3    0    0 -0.24162660029E+02  0.57617140093E+02  0.17728087035E+03  0.18796831418E+03  0.10570000000E+00 0. -1.
<mgrwt>
<rscale>  0 0.12499969E+03</rscale>
<asrwt>0</asrwt>
<pdfrwt beam="1">  1        1 0.57694992E-01 0.12499969E+03</pdfrwt>
<pdfrwt beam="2">  1       -1 0.16024815E-02 0.12499969E+03</pdfrwt>
<totfact> 0.56909432E+04</totfact>
</mgrwt>
</event>
<event>
 5    1  0.1336420E-049  0.1250003E+03  0.7818608E-02  0.1235069E+00
         -1   -1    0    0    0  501 -0.00000000000E+00  0.00000000000E+00  0.27719164027E+02  0.27719164421E+02  0.46700000000E-02 0.  1.
          1   -1    0    0  501    0  0.00000000000E+00 -0.00000000000E+00 -0.14092308187E+03  0.14092308195E+03  0.46700000000E-02 0. -1.
         25    2    1    2    0    0  0.00000000000E+00  0.00000000000E+00 -0.11320391784E+03  0.16864224637E+03  0.12500032098E+03 0.  0.
        -13    1    3    3    0    0 -0.52017735373E+02  0.12169096068E+02 -0.12836584576E+02  0.54942886423E+02  0.10570000000E+00 0.  1.
         13    1    3    3    0    0  0.52017735373E+02 -0.12169096068E+02 -0.10036733327E+03  0.11369935994E+03  0.10570000000E+00 0. -1.
<mgrwt>
<rscale>  0 0.12500032E+03</rscale>
<asrwt>0</asrwt>
<pdfrwt beam="2">  1        1 0.21680474E-01 0.12500032E+03</pdfrwt>
<pdfrwt beam="1">  1       -1 0.42644869E-02 0.12500032E+03</pdfrwt>
<totfact> 0.46458674E+04</totfact>
</mgrwt>
</event>
<event>
 5    1  0.1336420E-049  0.1249979E+03  0.7818608E-02  0.1235073E+00
         -1   -1    0    0    0  501 -0.00000000000E+00  0.00000000000E+00  0.48784992290E+02  0.48784992513E+02  0.46700000000E-02 0.  1.
          1   -1    0    0  501    0  0.00000000000E+00 -0.00000000000E+00 -0.80068074475E+02  0.80068074612E+02  0.46700000000E-02 0. -1.
         25    2    1    2    0    0  0.00000000000E+00  0.00000000000E+00 -0.31283082186E+02  0.12885306713E+03  0.12499792669E+03 0.  0.
        -13    1    3    3    0    0 -0.60846282519E+02 -0.10928499775E+02 -0.25112223958E+02  0.66725835838E+02  0.10570000000E+00 0. -1.
         13    1    3    3    0    0  0.60846282519E+02  0.10928499775E+02 -0.61708582275E+01  0.62127231287E+02  0.10570000000E+00 0.  1.
<mgrwt>
<rscale>  0 0.12499793E+03</rscale>
<asrwt>0</asrwt>
<pdfrwt beam="2">  1        1 0.12318165E-01 0.12499793E+03</pdfrwt>
<pdfrwt beam="1">  1       -1 0.75053834E-02 0.12499793E+03</pdfrwt>
<totfact> 0.41513784E+04</totfact>
</mgrwt>
</event>
<event>
 5    1  0.1336420E-049  0.1250008E+03  0.7818608E-02  0.1235068E+00
          1   -1    0    0  501    0  0.00000000000E+00  0.00000000000E+00  0.94058966400E+01  0.94058977993E+01  0.46700000000E-02 0. -1.
         -1   -1    0    0    0  501 -0.00000000000E+00 -0.00000000000E+00 -0.41530312704E+03  0.41530312706E+03  0.46700000000E-02 0.  1.
         25    2    1    2    0    0  0.00000000000E+00  0.00000000000E+00 -0.40589723040E+03  0.42470902486E+03  0.12500077662E+03 0.  0.
        -13    1    3    3    0    0  0.51325867282E+02 -0.18987912805E+02 -0.10037545434E+03  0.11432466265E+03  0.10570000000E+00 0. -1.
         13    1    3    3    0    0 -0.51325867282E+02  0.18987912805E+02 -0.30552177606E+03  0.31038436221E+03  0.10570000000E+00 0.  1.
<mgrwt>
<rscale>  0 0.12500078E+03</rscale>
<asrwt>0</asrwt>
<pdfrwt beam="1">  1        1 0.14470614E-02 0.12500078E+03</pdfrwt>
<pdfrwt beam="2">  1       -1 0.63892774E-01 0.12500078E+03</pdfrwt>
<totfact> 0.22656464E+04</totfact>
</mgrwt>
</event>
<event>
 5    1  0.1336420E-049  0.1249999E+03  0.7818608E-02  0.1235069E+00
          1   -1    0    0  501    0  0.00000000000E+00  0.00000000000E+00  0.97653391331E+02  0.97653391443E+02  0.46700000000E-02 0. -1.
         -1   -1    0    0    0  501 -0.00000000000E+00 -0.00000000000E+00 -0.40001134887E+02  0.40001135160E+02  0.46700000000E-02 0.  1.
         25    2    1    2    0    0  0.00000000000E+00  0.00000000000E+00  0.57652256444E+02  0.13765452660E+03  0.12499994408E+03 0.  0.
        -13    1    3    3    0    0 -0.31244017186E+02 -0.53785115131E+02  0.22108754631E+02  0.66013903258E+02  0.10570000000E+00 0.  1.
         13    1    3    3    0    0  0.31244017186E+02  0.53785115131E+02  0.35543501813E+02  0.71640623345E+02  0.10570000000E+00 0. -1.
<mgrwt>
<rscale>  0 0.12499994E+03</rscale>
<asrwt>0</asrwt>
<pdfrwt beam="1">  1        1 0.15023599E-01 0.12499994E+03</pdfrwt>
<pdfrwt beam="2">  1       -1 0.61540208E-02 0.12499994E+03</pdfrwt>
<totfact> 0.43152642E+04</totfact>
</mgrwt>
</event>
<event>
 5    1  0.1336420E-049  0.1250057E+03  0.7818608E-02  0.1235060E+00
         -1   -1    0    0    0  501 -0.00000000000E+00  0.00000000000E+00  0.10869135846E+03  0.10869135856E+03  0.46700000000E-02 0.  1.
          1   -1    0    0  501    0  0.00000000000E+00 -0.00000000000E+00 -0.35942171721E+02  0.35942172024E+02  0.46700000000E-02 0. -1.
         25    2    1    2    0    0  0.00000000000E+00  0.00000000000E+00  0.72749186740E+02  0.14463353059E+03  0.12500565587E+03 0.  0.
        -13    1    3    3    0    0  0.81961261506E+01  0.32421792007E+02  0.97469450579E+02  0.10304685366E+03  0.10570000000E+00 0.  1.
         13    1    3    3    0    0 -0.81961261506E+01 -0.32421792007E+02 -0.24720263839E+02  0.41586676924E+02  0.10570000000E+00 0. -1.
<mgrwt>
<rscale>  0 0.12500566E+03</rscale>
<asrwt>0</asrwt>
<pdfrwt beam="2">  1        1 0.55295649E-02 0.12500566E+03</pdfrwt>
<pdfrwt beam="1">  1       -1 0.16721747E-01 0.12500566E+03</pdfrwt>
<totfact> 0.35356996E+04</totfact>
</mgrwt>
</event>
<event>
 5    1  0.1336420E-049  0.1250011E+03  0.7818608E-02  0.1235068E+00
          1   -1    0    0  501    0  0.00000000000E+00  0.00000000000E+00  0.29729542415E+02  0.29729542782E+02  0.46700000000E-02 0. -1.
         -1   -1    0    0    0  501 -0.00000000000E+00 -0.00000000000E+00 -0.13139521362E+03  0.13139521370E+03  0.46700000000E-02 0.  1.
         25    2    1    2    0    0  0.00000000000E+00  0.00000000000E+00 -0.10166567120E+03  0.16112475648E+03  0.12500111380E+03 0.  0.
        -13    1    3    3    0    0  0.47838738807E+02 -0.34090356062E+01  0.82549398298E+00  0.47967270792E+02  0.10570000000E+00 0. -1.
         13    1    3    3    0    0 -0.47838738807E+02  0.34090356062E+01 -0.10249116519E+03  0.11315748569E+03  0.10570000000E+00 0.  1.
<mgrwt>
<rscale>  0 0.12500111E+03</rscale>
<asrwt>0</asrwt>
<pdfrwt beam="1">  1        1 0.45737759E-02 0.12500111E+03</pdfrwt>
<pdfrwt beam="2">  1       -1 0.20214648E-01 0.12500111E+03</pdfrwt>
<totfact> 0.33871658E+04</totfact>
</mgrwt>
</event>
<event>
 5    1  0.1336420E-049  0.1250004E+03  0.7818608E-02  0.1235069E+00
         -1   -1    0    0    0  501 -0.00000000000E+00  0.00000000000E+00  0.21518758984E+03  0.21518758989E+03  0.46700000000E-02 0.  1.
          1   -1    0    0  501    0  0.00000000000E+00 -0.00000000000E+00 -0.18152878635E+02  0.18152879235E+02  0.46700000000E-02 0. -1.
         25    2    1    2    0    0  0.00000000000E+00  0.00000000000E+00  0.19703471120E+03  0.23334046912E+03  0.12500038845E+03 0.  0.
        -13    1    3    3    0    0 -0.60088050746E+02  0.81700454939E+01  0.12676219974E+03  0.14052042535E+03  0.10570000000E+00 0.  1.
         13    1    3    3    0    0  0.60088050746E+02 -0.81700454939E+01  0.70272511462E+02  0.92820043770E+02  0.10570000000E+00 0. -1.
<mgrwt>
<rscale>  0 0.12500039E+03</rscale>
<asrwt>0</asrwt>
<pdfrwt beam="2">  1        1 0.27927504E-02 0.12500039E+03</pdfrwt>
<pdfrwt beam="1">  1       -1 0.33105785E-01 0.12500039E+03</pdfrwt>
<totfact> 0.29631407E+04</totfact>
</mgrwt>
</event>
<event>
 5    1  0.1336420E-049  0.1249997E+03  0.7818608E-02  0.1235070E+00
         -1   -1    0    0    0  501 -0.00000000000E+00  0.00000000000E+00  0.91222780003E+02  0.91222780123E+02  0.46700000000E-02 0.  1.
          1   -1    0    0  501    0  0.00000000000E+00 -0.00000000000E+00 -0.42820772689E+02  0.42820772943E+02  0.46700000000E-02 0. -1.
         25    2    1    2    0    0  0.00000000000E+00  0.00000000000E+00  0.48402007315E+02  0.13404355307E+03  0.12499967923E+03 0.  0.
        -13    1    3    3    0    0  0.59264535993E+02  0.14042935905E+02  0.91601744128E+01  0.61590658732E+02  0.10570000000E+00 0.  1.
         13    1    3    3    0    0 -0.59264535993E+02 -0.14042935905E+02  0.39241832902E+02  0.72452894334E+02  0.10570000000E+00 0. -1.
<mgrwt>
<rscale>  0 0.12499968E+03</rscale>
<asrwt>0</asrwt>
<pdfrwt beam="2">  1        1 0.65878112E-02 0.12499968E+03</pdfrwt>
<pdfrwt beam="1">  1       -1 0.14034274E-01 0.12499968E+03</pdfrwt>
<totfact> 0.36700003E+04</totfact>
</mgrwt>
</event>
<event>
 5    1  0.1336420E-049  0.1249987E+03  0.7818608E-02  0.1235071E+00
         -1   -1    0    0    0  501 -0.00000000000E+00  0.00000000000E+00  0.28872593563E+02  0.28872593941E+02  0.46700000000E-02 0.  1.
          1   -1    0    0  501    0  0.00000000000E+00 -0.00000000000E+00 -0.13528995126E+03  0.13528995134E+03  0.46700000000E-02 0. -1.
         25    2    1    2    0    0  0.00000000000E+00  0.00000000000E+00 -0.10641735769E+03  0.16416254528E+03  0.12499874901E+03 0.  0.
        -13    1    3    3    0    0  0.55731534186E+02 -0.20403242253E+02 -0.78939719666E+02  0.98761261184E+02  0.10570000000E+00 0.  1.
         13    1    3    3    0    0 -0.55731534186E+02  0.20403242253E+02 -0.27477638026E+02  0.65401284094E+02  0.10570000000E+00 0. -1.
<mgrwt>
<rscale>  0 0.12499875E+03</rscale>
<asrwt>0</asrwt>
<pdfrwt beam="2">  1        1 0.20813838E-01 0.12499875E+03</pdfrwt>
<pdfrwt beam="1">  1       -1 0.44419376E-02 0.12499875E+03</pdfrwt>
<totfact> 0.46071842E+04</totfact>
</mgrwt>
</event>
<event>
 5    1  0.1336420E-049  0.1249945E+03  0.7818608E-02  0.1235078E+00
         -1   -1    0    0    0  501 -0.00000000000E+00  0.00000000000E+00  0.44682178122E+03  0.44682178125E+03  0.46700000000E-02 0.  1.
          1   -1    0    0  501    0  0.00000000000E+00 -0.00000000000E+00 -0.87415354929E+01  0.87415367403E+01  0.46700000000E-02 0. -1.
         25    2    1    2    0    0  0.00000000000E+00  0.00000000000E+00  0.43808024573E+03  0.45556331799E+03  0.12499453987E+03 0.  0.
        -13    1    3    3    0    0  0.67790528662E+01 -0.56045122631E+02  0.12131914747E+03  0.13381090405E+03  0.10570000000E+00 0. -1.
         13    1    3    3    0    0 -0.67790528662E+01  0.56045122631E+02  0.31676109826E+03  0.32175241393E+03  0.10570000000E+00 0.  1.
<mgrwt>
<rscale>  0 0.12499454E+03</rscale>
<asrwt>0</asrwt>
<pdfrwt beam="2">  1        1 0.13448516E-02 0.12499454E+03</pdfrwt>
<pdfrwt beam="1">  1       -1 0.68741820E-01 0.12499454E+03</pdfrwt>
<totfact> 0.21772319E+04</totfact>
</mgrwt>
</event>
<event>
 5    1  0.1336420E-049  0.1250002E+03  0.7818608E-02  0.1235069E+00
         -1   -1    0    0    0  501 -0.00000000000E+00  0.00000000000E+00  0.23741761110E+03  0.23741761114E+03  0.46700000000E-02 0.  1.
          1   -1    0    0  501    0  0.00000000000E+00 -0.00000000000E+00 -0.16453139198E+02  0.16453139860E+02  0.46700000000E-02 0. -1.
         25    2    1    2    0    0  0.00000000000E+00  0.00000000000E+00  0.22096447190E+03  0.25387075100E+03  0.12500024149E+03 0.  0.
        -13    1    3    3    0    0  0.52582568568E+02 -0.33443360277E+02  0.12019462217E+03  0.13538885935E+03  0.10570000000E+00 0.  1.
         13    1    3    3    0    0 -0.52582568568E+02  0.33443360277E+02  0.10076984973E+03  0.11848189165E+03  0.10570000000E+00 0. -1.
<mgrwt>
<rscale>  0 0.12500024E+03</rscale>
<asrwt>0</asrwt>
<pdfrwt beam="2">  1        1 0.25312524E-02 0.12500024E+03</pdfrwt>
<pdfrwt beam="1">  1       -1 0.36525783E-01 0.12500024E+03</pdfrwt>
<totfact> 0.28698042E+04</totfact>
</mgrwt>
</event>
<event>
 5    1  0.1336420E-049  0.1250083E+03  0.7818608E-02  0.1235056E+00
         -1   -1    0    0    0  501 -0.00000000000E+00  0.00000000000E+00  0.16510607162E+02  0.16510607822E+02  0.46700000000E-02 0.  1.
          1   -1    0    0  501    0  0.00000000000E+00 -0.00000000000E+00 -0.23662172035E+03  0.23662172039E+03  0.46700000000E-02 0. -1.
         25    2    1    2    0    0  0.00000000000E+00  0.00000000000E+00 -0.22011111318E+03  0.25313232821E+03  0.12500829348E+03 0.  0.
        -13    1    3    3    0    0 -0.33777075165E+02  0.52094601170E+02 -0.95450965235E+02  0.11386674762E+03  0.10570000000E+00 0.  1.
         13    1    3    3    0    0  0.33777075165E+02 -0.52094601170E+02 -0.12466014795E+03  0.13926558059E+03  0.10570000000E+00 0. -1.
<mgrwt>
<rscale>  0 0.12500829E+03</rscale>
<asrwt>0</asrwt>
<pdfrwt beam="2">  1        1 0.36403339E-01 0.12500829E+03</pdfrwt>
<pdfrwt beam="1">  1       -1 0.25400936E-02 0.12500829E+03</pdfrwt>
<totfact> 0.51825434E+04</totfact>
</mgrwt>
</event>
<event>
 5    1  0.1336420E-049  0.1249987E+03  0.7818608E-02  0.1235071E+00
          1   -1    0    0  501    0  0.00000000000E+00  0.00000000000E+00  0.58684760964E+02  0.58684761149E+02  0.46700000000E-02 0. -1.
         -1   -1    0    0    0  501 -0.00000000000E+00 -0.00000000000E+00 -0.66561883647E+02  0.66561883811E+02  0.46700000000E-02 0.  1.
         25    2    1    2    0    0  0.00000000000E+00  0.00000000000E+00 -0.78771226836E+01  0.12524664496E+03  0.12499869204E+03 0.  0.
        -13    1    3    3    0    0 -0.56456826541E+02  0.16830584669E+00 -0.30801357714E+02  0.64312801210E+02  0.10570000000E+00 0.  1.
         13    1    3    3    0    0  0.56456826541E+02 -0.16830584669E+00  0.22924235030E+02  0.60933843750E+02  0.10570000000E+00 0. -1.
<mgrwt>
<rscale>  0 0.12499869E+03</rscale>
<asrwt>0</asrwt>
<pdfrwt beam="1">  1        1 0.90284248E-02 0.12499869E+03</pdfrwt>
<pdfrwt beam="2">  1       -1 0.10240290E-01 0.12499869E+03</pdfrwt>
<totfact> 0.39087046E+04</totfact>
</mgrwt>
</event>
<event>
 5    1  0.1336420E-049  0.1250032E+03  0.7818608E-02  0.1235064E+00
         -1   -1    0    0    0  501 -0.00000000000E+00  0.00000000000E+00  0.33915591321E+02  0.33915591643E+02  0.46700000000E-02 0.  1.
          1   -1    0    0  501    0  0.00000000000E+00 -0.00000000000E+00 -0.11518149503E+03  0.11518149512E+03  0.46700000000E-02 0. -1.
         25    2    1    2    0    0  0.00000000000E+00  0.00000000000E+00 -0.81265903708E+02  0.14909708677E+03  0.12500317667E+03 0.  0.
        -13    1    3    3    0    0 -0.11799340648E+02  0.60499626212E+02 -0.52971286825E+02  0.81273597262E+02  0.10570000000E+00 0.  1.
         13    1    3    3    0    0  0.11799340648E+02 -0.60499626212E+02 -0.28294616883E+02  0.67823489505E+02  0.10570000000E+00 0. -1.
<mgrwt>
<rscale>  0 0.12500318E+03</rscale>
<asrwt>0</asrwt>
<pdfrwt beam="2">  1        1 0.17720230E-01 0.12500318E+03</pdfrwt>
<pdfrwt beam="1">  1       -1 0.52177834E-02 0.12500318E+03</pdfrwt>
<totfact> 0.44586954E+04</totfact>
</mgrwt>
</event>
<event>
 5    1  0.1336420E-049  0.1250020E+03  0.7818608E-02  0.1235066E+00
          1   -1    0    0  501    0  0.00000000000E+00  0.00000000000E+00  0.50768518740E+02  0.50768518954E+02  0.46700000000E-02 0. -1.
         -1   -1    0    0    0  501 -0.00000000000E+00 -0.00000000000E+00 -0.76944818936E+02  0.76944819078E+02  0.46700000000E-02 0.  1.
         25    2    1    2    0    0  0.00000000000E+00  0.00000000000E+00 -0.26176300196E+02  0.12771333803E+03  0.12500199206E+03 0.  0.
        -13    1    3    3    0    0  0.59102982848E+01 -0.46264666307E+02  0.29419726024E+02  0.55144196668E+02  0.10570000000E+00 0. -1.
         13    1    3    3    0    0 -0.59102982848E+01  0.46264666307E+02 -0.55596026221E+02  0.72569141364E+02  0.10570000000E+00 0.  1.
<mgrwt>
<rscale>  0 0.12500199E+03</rscale>
<asrwt>0</asrwt>
<pdfrwt beam="1">  1        1 0.78105414E-02 0.12500199E+03</pdfrwt>
<pdfrwt beam="2">  1       -1 0.11837664E-01 0.12500199E+03</pdfrwt>
<totfact> 0.37984845E+04</totfact>
</mgrwt>
</event>
<event>
 5    1  0.1336420E-049  0.1249932E+03  0.7818608E-02  0.1235080E+00
         -1   -1    0    0    0  501 -0.00000000000E+00  0.00000000000E+00  0.77617720205E+01  0.77617734254E+01  0.46700000000E-02 0.  1.
          1   -1    0    0  501    0  0.00000000000E+00 -0.00000000000E+00 -0.50321323952E+03  0.50321323955E+03  0.46700000000E-02 0. -1.
         25    2    1    2    0    0  0.00000000000E+00  0.00000000000E+00 -0.49545146750E+03  0.51097501297E+03  0.12499322873E+03 0.  0.
        -13    1    3    3    0    0 -0.73077653682E+01 -0.61108023820E+02 -0.20327677017E+03  0.21238891325E+03  0.10570000000E+00 0.  1.
         13    1    3    3    0    0  0.73077653682E+01  0.61108023820E+02 -0.29217469734E+03  0.29858609972E+03  0.10570000000E+00 0. -1.
<mgrwt>
<rscale>  0 0.12499323E+03</rscale>
<asrwt>0</asrwt>
<pdfrwt beam="2">  1        1 0.77417396E-01 0.12499323E+03</pdfrwt>
<pdfrwt beam="1">  1       -1 0.11941193E-02 0.12499323E+03</pdfrwt>
<totfact> 0.59622432E+04</totfact>
</mgrwt>
</event>
<event>
 5    1  0.1336420E-049  0.1250038E+03  0.7818608E-02  0.1235063E+00
         -1   -1    0    0    0  501 -0.00000000000E+00  0.00000000000E+00  0.69689127729E+02  0.69689127885E+02  0.46700000000E-02 0.  1.
          1   -1    0    0  501    0  0.00000000000E+00 -0.00000000000E+00 -0.56055868712E+02  0.56055868907E+02  0.46700000000E-02 0. -1.
         25    2    1    2    0    0  0.00000000000E+00  0.00000000000E+00  0.13633259016E+02  0.12574499679E+03  0.12500375381E+03 0.  0.
        -13    1    3    3    0    0  0.49588915355E+02 -0.37984656806E+02  0.89691230495E+01  0.63105871514E+02  0.10570000000E+00 0. -1.
         13    1    3    3    0    0 -0.49588915355E+02  0.37984656806E+02  0.46641359666E+01  0.62639125278E+02  0.10570000000E+00 0.  1.
<mgrwt>
<rscale>  0 0.12500375E+03</rscale>
<asrwt>0</asrwt>
<pdfrwt beam="2">  1        1 0.86239799E-02 0.12500375E+03</pdfrwt>
<pdfrwt beam="1">  1       -1 0.10721404E-01 0.12500375E+03</pdfrwt>
<totfact> 0.38733502E+04</totfact>
</mgrwt>
</event>
<event>
 5    1  0.1336420E-049  0.1250004E+03  0.7818608E-02  0.1235069E+00
         -1   -1    0    0    0  501 -0.00000000000E+00  0.00000000000E+00  0.92026354318E+02  0.92026354436E+02  0.46700000000E-02 0.  1.
          1   -1    0    0  501    0  0.00000000000E+00 -0.00000000000E+00 -0.42447336354E+02  0.42447336611E+02  0.46700000000E-02 0. -1.
         25    2    1    2    0    0  0.00000000000E+00  0.00000000000E+00  0.49579017964E+02  0.13447369105E+03  0.12500037825E+03 0.  0.
        -13    1    3    3    0    0 -0.33426613117E+02 -0.51086412972E+02  0.10392352764E+02  0.61928767332E+02  0.10570000000E+00 0. -1.
         13    1    3    3    0    0  0.33426613117E+02  0.51086412972E+02  0.39186665200E+02  0.72544923715E+02  0.10570000000E+00 0.  1.
<mgrwt>
<rscale>  0 0.12500038E+03</rscale>
<asrwt>0</asrwt>
<pdfrwt beam="2">  1        1 0.65303595E-02 0.12500038E+03</pdfrwt>
<pdfrwt beam="1">  1       -1 0.14157901E-01 0.12500038E+03</pdfrwt>
<totfact> 0.36632962E+04</totfact>
</mgrwt>
</event>
<event>
 4    1  0.1336420E-049  0.1251031E+03  0.7818608E-02  0.1234908E+00
          1   -1    0    0  501    0  0.00000000000E+00  0.00000000000E+00  0.37184898191E+02  0.37184898485E+02  0.46700000000E-02 0. -1.
         -1   -1    0    0    0  501 -0.00000000000E+00 -0.00000000000E+00 -0.10522269255E+03  0.10522269266E+03  0.46700000000E-02 0.  1.
        -13    1    1    2    0    0  0.50037830152E+02 -0.53953052540E+01  0.82646747422E+01  0.51002056686E+02  0.10570000000E+00 0. -1.
         13    1    1    2    0    0 -0.50037830152E+02  0.53953052540E+01 -0.76302469104E+02  0.91405534455E+02  0.10570000000E+00 0.  1.
<mgrwt>
<rscale>  0 0.12510308E+03</rscale>
<asrwt>0</asrwt>
<pdfrwt beam="1">  1        1 0.57207536E-02 0.12510308E+03</pdfrwt>
<pdfrwt beam="2">  1       -1 0.16188106E-01 0.12510308E+03</pdfrwt>
<totfact> 0.35534883E+04</totfact>
</mgrwt>
</event>
<event>
 5    1  0.1336420E-049  0.1250007E+03  0.7818608E-02  0.1235068E+00
          1   -1    0    0  501    0  0.00000000000E+00  0.00000000000E+00  0.45017312700E+03  0.45017312702E+03  0.46700000000E-02 0. -1.
         -1   -1    0    0    0  501 -0.00000000000E+00 -0.00000000000E+00 -0.86773114189E+01  0.86773126755E+01  0.46700000000E-02 0.  1.
         25    2    1    2    0    0  0.00000000000E+00  0.00000000000E+00  0.44149581558E+03  0.45885043970E+03  0.12500068335E+03 0.  0.
        -13    1    3    3    0    0 -0.91571149447E+01 -0.60519145426E+02  0.17433581617E+03  0.18476852462E+03  0.10570000000E+00 0.  1.
         13    1    3    3    0    0  0.91571149447E+01  0.60519145426E+02  0.26715999941E+03  0.27408191508E+03  0.10570000000E+00 0. -1.
<mgrwt>
<rscale>  0 0.12500068E+03</rscale>
<asrwt>0</asrwt>
<pdfrwt beam="1">  1        1 0.69257409E-01 0.12500068E+03</pdfrwt>
<pdfrwt beam="2">  1       -1 0.13349710E-02 0.12500068E+03</pdfrwt>
<totfact> 0.58697460E+04</totfact>
</mgrwt>
</event>
<event>
 5    1  0.1336420E-049  0.1250010E+03  0.7818608E-02  0.1235068E+00
          1   -1    0    0  501    0  0.00000000000E+00  0.00000000000E+00  0.79844082884E+01  0.79844096541E+01  0.46700000000E-02 0.  1.
         -1   -1    0    0    0  501 -0.00000000000E+00 -0.00000000000E+00 -0.48924262287E+03  0.48924262290E+03  0.46700000000E-02 0. -1.
         25    2    1    2    0    0  0.00000000000E+00  0.00000000000E+00 -0.48125821459E+03  0.49722703255E+03  0.12500101117E+03 0.  0.
        -13    1    3    3    0    0  0.58950003726E+02 -0.16285371817E+02 -0.29187707051E+03  0.29821561284E+03  0.10570000000E+00 0. -1.
         13    1    3    3    0    0 -0.58950003726E+02  0.16285371817E+02 -0.18938114407E+03  0.19901141972E+03  0.10570000000E+00 0.  1.
<mgrwt>
<rscale>  0 0.12500101E+03</rscale>
<asrwt>0</asrwt>
<pdfrwt beam="1">  1        1 0.12283710E-02 0.12500101E+03</pdfrwt>
<pdfrwt beam="2">  1       -1 0.75268073E-01 0.12500101E+03</pdfrwt>
<totfact> 0.20641047E+04</totfact>
</mgrwt>
</event>
<event>
 5    1  0.1336420E-049  0.1250030E+03  0.7818608E-02  0.1235065E+00
         -1   -1    0    0    0  501 -0.00000000000E+00  0.00000000000E+00  0.13669141055E+02  0.13669141853E+02  0.46700000000E-02 0.  1.
          1   -1    0    0  501    0  0.00000000000E+00 -0.00000000000E+00 -0.28578510473E+03  0.28578510477E+03  0.46700000000E-02 0. -1.
         25    2    1    2    0    0  0.00000000000E+00  0.00000000000E+00 -0.27211596368E+03  0.29945424663E+03  0.12500299250E+03 0.  0.
        -13    1    3    3    0    0  0.50478610145E+01 -0.53969995216E+02 -0.21059794029E+03  0.21746205395E+03  0.10570000000E+00 0. -1.
         13    1    3    3    0    0 -0.50478610145E+01  0.53969995216E+02 -0.61518023392E+02  0.81992192671E+02  0.10570000000E+00 0.  1.
<mgrwt>
<rscale>  0 0.12500299E+03</rscale>
<asrwt>0</asrwt>
<pdfrwt beam="2">  1        1 0.43966935E-01 0.12500299E+03</pdfrwt>
<pdfrwt beam="1">  1       -1 0.21029451E-02 0.12500299E+03</pdfrwt>
<totfact> 0.53937748E+04</totfact>
</mgrwt>
</event>
<event>
 5    1  0.1336420E-049  0.1249990E+03  0.7818608E-02  0.1235071E+00
         -1   -1    0    0    0  501 -0.00000000000E+00  0.00000000000E+00  0.12299743581E+03  0.12299743590E+03  0.46700000000E-02 0.  1.
          1   -1    0    0  501    0  0.00000000000E+00 -0.00000000000E+00 -0.31758272118E+02  0.31758272462E+02  0.46700000000E-02 0. -1.
         25    2    1    2    0    0  0.00000000000E+00  0.00000000000E+00  0.91239163692E+02  0.15475570836E+03  0.12499897711E+03 0.  0.
        -13    1    3    3    0    0 -0.55024455908E+01  0.61945458438E+02  0.53317279638E+02  0.81916177945E+02  0.10570000000E+00 0.  1.
         13    1    3    3    0    0  0.55024455908E+01 -0.61945458438E+02  0.37921884053E+02  0.72839530416E+02  0.10570000000E+00 0. -1.
<mgrwt>
<rscale>  0 0.12499898E+03</rscale>
<asrwt>0</asrwt>
<pdfrwt beam="2">  1        1 0.48858881E-02 0.12499898E+03</pdfrwt>
<pdfrwt beam="1">  1       -1 0.18922682E-01 0.12499898E+03</pdfrwt>
<totfact> 0.34398084E+04</totfact>
</mgrwt>
</event>
<event>
 5    1  0.1336420E-049  0.1249975E+03  0.7818608E-02  0.1235073E+00
          1   -1    0    0  501    0  0.00000000000E+00  0.00000000000E+00  0.10193196024E+02  0.10193197094E+02  0.46700000000E-02 0. -1.
         -1   -1    0    0    0  501 -0.00000000000E+00 -0.00000000000E+00 -0.38320572793E+03  0.38320572796E+03  0.46700000000E-02 0.  1.
         25    2    1    2    0    0  0.00000000000E+00  0.00000000000E+00 -0.37301253190E+03  0.39339892505E+03  0.12499746107E+03 0.  0.
        -13    1    3    3    0    0  0.12180365273E+02  0.60944882927E+02 -0.20724954208E+03  0.21636779779E+03  0.10570000000E+00 0. -1.
         13    1    3    3    0    0 -0.12180365273E+02 -0.60944882927E+02 -0.16576298982E+03  0.17703112726E+03  0.10570000000E+00 0.  1.
<mgrwt>
<rscale>  0 0.12499746E+03</rscale>
<asrwt>0</asrwt>
<pdfrwt beam="1">  1        1 0.15681844E-02 0.12499746E+03</pdfrwt>
<pdfrwt beam="2">  1       -1 0.58954716E-01 0.12499746E+03</pdfrwt>
<totfact> 0.23608745E+04</totfact>
</mgrwt>
</event>
<event>
 5    1  0.1336420E-049  0.1249990E+03  0.7818608E-02  0.1235071E+00
          1   -1    0    0  501    0  0.00000000000E+00  0.00000000000E+00  0.44330538025E+03  0.44330538027E+03  0.46700000000E-02 0. -1.
         -1   -1    0    0    0  501 -0.00000000000E+00 -0.00000000000E+00 -0.88115091844E+01  0.88115104219E+01  0.46700000000E-02 0.  1.
         25    2    1    2    0    0  0.00000000000E+00  0.00000000000E+00  0.43449387107E+03  0.45211689070E+03  0.12499903543E+03 0.  0.
        -13    1    3    3    0    0  0.54935362146E+02  0.19832996323E+02  0.29771414432E+03  0.30338913075E+03  0.10570000000E+00 0. -1.
         13    1    3    3    0    0 -0.54935362146E+02 -0.19832996323E+02  0.13677972675E+03  0.14872775995E+03  0.10570000000E+00 0.  1.
<mgrwt>
<rscale>  0 0.12499904E+03</rscale>
<asrwt>0</asrwt>
<pdfrwt beam="1">  1        1 0.68200822E-01 0.12499904E+03</pdfrwt>
<pdfrwt beam="2">  1       -1 0.13556170E-02 0.12499904E+03</pdfrwt>
<totfact> 0.58560977E+04</totfact>
</mgrwt>
</event>
<event>
 5    1  0.1424411E-049  0.1249984E+03  0.7818608E-02  0.1235072E+00
          1   -1    0    0  501    0  0.00000000000E+00  0.00000000000E+00  0.10663925064E+03  0.10663925074E+03  0.46700000000E-02 0. -1.
         -1   -1    0    0    0  501 -0.00000000000E+00 -0.00000000000E+00 -0.36629568515E+02  0.36629568812E+02  0.46700000000E-02 0.  1.
         25    2    1    2    0    0  0.00000000000E+00  0.00000000000E+00  0.70009682124E+02  0.14326881955E+03  0.12499839625E+03 0.  0.
        -13    1    3    3    0    0  0.38471315998E+02  0.48674644032E+02  0.26360941114E+02  0.67410485202E+02  0.10570000000E+00 0.  1.
         13    1    3    3    0    0 -0.38471315998E+02 -0.48674644032E+02  0.43648741010E+02  0.75858334351E+02  0.10570000000E+00 0. -1.
<mgrwt>
<rscale>  0 0.12499840E+03</rscale>
<asrwt>0</asrwt>
<pdfrwt beam="1">  1        1 0.16406038E-01 0.12499840E+03</pdfrwt>
<pdfrwt beam="2">  1       -1 0.56353183E-02 0.12499840E+03</pdfrwt>
<totfact> 0.43911460E+04</totfact>
</mgrwt>
</event>
<event>
 5    1  0.1336420E-049  0.1249997E+03  0.7818608E-02  0.1235070E+00
         -1   -1    0    0    0  501 -0.00000000000E+00  0.00000000000E+00  0.23096820154E+02  0.23096820626E+02  0.46700000000E-02 0.  1.
          1   -1    0    0  501    0  0.00000000000E+00 -0.00000000000E+00 -0.16912415587E+03  0.16912415594E+03  0.46700000000E-02 0. -1.
         25    2    1    2    0    0  0.00000000000E+00  0.00000000000E+00 -0.14602733572E+03  0.19222097656E+03  0.12499968421E+03 0.  0.
        -13    1    3    3    0    0  0.57759859672E+02 -0.84026641187E+01 -0.38648239812E+02  0.70003598241E+02  0.10570000000E+00 0.  1.
         13    1    3    3    0    0 -0.57759859672E+02  0.84026641187E+01 -0.10737909591E+03  0.12221737832E+03  0.10570000000E+00 0. -1.
<mgrwt>
<rscale>  0 0.12499968E+03</rscale>
<asrwt>0</asrwt>
<pdfrwt beam="2">  1        1 0.26019100E-01 0.12499968E+03</pdfrwt>
<pdfrwt beam="1">  1       -1 0.35533571E-02 0.12499968E+03</pdfrwt>
<totfact> 0.48258590E+04</totfact>
</mgrwt>
</event>
<event>
 5    1  0.1336420E-049  0.1250013E+03  0.7818608E-02  0.1235067E+00
         -1   -1    0    0    0  501 -0.00000000000E+00  0.00000000000E+00  0.18109678022E+02  0.18109678624E+02  0.46700000000E-02 0.  1.
          1   -1    0    0  501    0  0.00000000000E+00 -0.00000000000E+00 -0.21570409538E+03  0.21570409544E+03  0.46700000000E-02 0. -1.
         25    2    1    2    0    0  0.00000000000E+00  0.00000000000E+00 -0.19759441736E+03  0.23381377406E+03  0.12500130866E+03 0.  0.
        -13    1    3    3    0    0  0.22905851115E+02  0.30374105349E+02 -0.60416873344E+01  0.38519831897E+02  0.10570000000E+00 0.  1.
         13    1    3    3    0    0 -0.22905851115E+02 -0.30374105349E+02 -0.19155273003E+03  0.19529394216E+03  0.10570000000E+00 0. -1.
<mgrwt>
<rscale>  0 0.12500131E+03</rscale>
<asrwt>0</asrwt>
<pdfrwt beam="2">  1        1 0.33185244E-01 0.12500131E+03</pdfrwt>
<pdfrwt beam="1">  1       -1 0.27861045E-02 0.12500131E+03</pdfrwt>
<totfact> 0.50821025E+04</totfact>
</mgrwt>
</event>
<event>
 5    1  0.1336420E-049  0.1249986E+03  0.7818608E-02  0.1235071E+00
         -1   -1    0    0    0  501 -0.00000000000E+00  0.00000000000E+00  0.29742285714E+03  0.29742285717E+03  0.46700000000E-02 0.  1.
          1   -1    0    0  501    0  0.00000000000E+00 -0.00000000000E+00 -0.13133365279E+02  0.13133366109E+02  0.46700000000E-02 0. -1.
         25    2    1    2    0    0  0.00000000000E+00  0.00000000000E+00  0.28428949186E+03  0.31055622328E+03  0.12499861055E+03 0.  0.
        -13    1    3    3    0    0 -0.17534248143E+02  0.43723721034E+02  0.24418808390E+03  0.24869066152E+03  0.10570000000E+00 0.  1.
         13    1    3    3    0    0  0.17534248143E+02 -0.43723721034E+02  0.40101407962E+02  0.61865561761E+02  0.10570000000E+00 0. -1.
<mgrwt>
<rscale>  0 0.12499861E+03</rscale>
<asrwt>0</asrwt>
<pdfrwt beam="2">  1        1 0.20205180E-02 0.12499861E+03</pdfrwt>
<pdfrwt beam="1">  1       -1 0.45757359E-01 0.12499861E+03</pdfrwt>
<totfact> 0.26419480E+04</totfact>
</mgrwt>
</event>
<event>
 5    1  0.1336420E-049  0.1250013E+03  0.7818608E-02  0.1235067E+00
          1   -1    0    0  501    0  0.00000000000E+00  0.00000000000E+00  0.67640829802E+02  0.67640829963E+02  0.46700000000E-02 0. -1.
         -1   -1    0    0    0  501 -0.00000000000E+00 -0.00000000000E+00 -0.57751039102E+02  0.57751039291E+02  0.46700000000E-02 0.  1.
         25    2    1    2    0    0  0.00000000000E+00  0.00000000000E+00  0.98897906997E+01  0.12539186925E+03  0.12500125165E+03 0.  0.
        -13    1    3    3    0    0  0.56304275089E+02  0.26377752145E+02  0.11317688350E+02  0.63198563620E+02  0.10570000000E+00 0.  1.
         13    1    3    3    0    0 -0.56304275089E+02 -0.26377752145E+02 -0.14278976498E+01  0.62193305634E+02  0.10570000000E+00 0. -1.
<mgrwt>
<rscale>  0 0.12500125E+03</rscale>
<asrwt>0</asrwt>
<pdfrwt beam="1">  1        1 0.10406281E-01 0.12500125E+03</pdfrwt>
<pdfrwt beam="2">  1       -1 0.88847753E-02 0.12500125E+03</pdfrwt>
<totfact> 0.40178248E+04</totfact>
</mgrwt>
</event>
<event>
 5    1  0.1336420E-049  0.1250030E+03  0.7818608E-02  0.1235065E+00
         -1   -1    0    0    0  501 -0.00000000000E+00  0.00000000000E+00  0.20881249462E+03  0.20881249467E+03  0.46700000000E-02 0.  1.
          1   -1    0    0  501    0  0.00000000000E+00 -0.00000000000E+00 -0.18707863131E+02  0.18707863714E+02  0.46700000000E-02 0. -1.
         25    2    1    2    0    0  0.00000000000E+00  0.00000000000E+00  0.19010463149E+03  0.22752035838E+03  0.12500297023E+03 0.  0.
        -13    1    3    3    0    0  0.10282661224E+02 -0.60598210293E+02  0.11568867245E+03  0.13100288668E+03  0.10570000000E+00 0.  1.
         13    1    3    3    0    0 -0.10282661224E+02  0.60598210293E+02  0.74415959039E+02  0.96517471707E+02  0.10570000000E+00 0. -1.
<mgrwt>
<rscale>  0 0.12500297E+03</rscale>
<asrwt>0</asrwt>
<pdfrwt beam="2">  1        1 0.28781329E-02 0.12500297E+03</pdfrwt>
<pdfrwt beam="1">  1       -1 0.32124999E-01 0.12500297E+03</pdfrwt>
<totfact> 0.29908723E+04</totfact>
</mgrwt>
</event>
<event>
 5    1  0.1336420E-049  0.1249998E+03  0.7818608E-02  0.1235070E+00
         -1   -1    0    0    0  501 -0.00000000000E+00  0.00000000000E+00  0.28327134474E+02  0.28327134859E+02  0.46700000000E-02 0.  1.
          1   -1    0    0  501    0  0.00000000000E+00 -0.00000000000E+00 -0.13789732709E+03  0.13789732717E+03  0.46700000000E-02 0. -1.
         25    2    1    2    0    0  0.00000000000E+00  0.00000000000E+00 -0.10957019262E+03  0.16622446203E+03  0.12499977867E+03 0.  0.
        -13    1    3    3    0    0 -0.45406466463E+02  0.42881942377E+02 -0.57936693972E+02  0.85189669911E+02  0.10570000000E+00 0.  1.
         13    1    3    3    0    0  0.45406466463E+02 -0.42881942377E+02 -0.51633498644E+02  0.81034792116E+02  0.10570000000E+00 0. -1.
<mgrwt>
<rscale>  0 0.12499978E+03</rscale>
<asrwt>0</asrwt>
<pdfrwt beam="2">  1        1 0.21214973E-01 0.12499978E+03</pdfrwt>
<pdfrwt beam="1">  1       -1 0.43580208E-02 0.12499978E+03</pdfrwt>
<totfact> 0.46251901E+04</totfact>
</mgrwt>
</event>
<event>
 5    1  0.1336420E-049  0.1250006E+03  0.7818608E-02  0.1235068E+00
          1   -1    0    0  501    0  0.00000000000E+00  0.00000000000E+00  0.22183369239E+03  0.22183369244E+03  0.46700000000E-02 0.  1.
         -1   -1    0    0    0  501 -0.00000000000E+00 -0.00000000000E+00 -0.17609075182E+02  0.17609075801E+02  0.46700000000E-02 0. -1.
         25    2    1    2    0    0  0.00000000000E+00  0.00000000000E+00  0.20422461721E+03  0.23944276824E+03  0.12500057995E+03 0.  0.
        -13    1    3    3    0    0  0.48961754028E+02 -0.20138724450E+02  0.38481606676E+02  0.65449727309E+02  0.10570000000E+00 0. -1.
         13    1    3    3    0    0 -0.48961754028E+02  0.20138724450E+02  0.16574301053E+03  0.17399304093E+03  0.10570000000E+00 0.  1.
<mgrwt>
<rscale>  0 0.12500058E+03</rscale>
<asrwt>0</asrwt>
<pdfrwt beam="1">  1        1 0.34128260E-01 0.12500058E+03</pdfrwt>
<pdfrwt beam="2">  1       -1 0.27090886E-02 0.12500058E+03</pdfrwt>
<totfact> 0.51126669E+04</totfact>
</mgrwt>
</event>
<event>
 5    1  0.1336420E-049  0.1249955E+03  0.7818608E-02  0.1235076E+00
          1   -1    0    0  501    0  0.00000000000E+00  0.00000000000E+00  0.80798453658E+02  0.80798453793E+02  0.46700000000E-02 0. -1.
         -1   -1    0    0    0  501 -0.00000000000E+00 -0.00000000000E+00 -0.48342122320E+02  0.48342122546E+02  0.46700000000E-02 0.  1.
         25    2    1    2    0    0  0.00000000000E+00  0.00000000000E+00  0.32456331338E+02  0.12914057634E+03  0.12499549997E+03 0.  0.
        -13    1    3    3    0    0  0.26849970778E+02 -0.53263966323E+02  0.35501176532E+02  0.69414088965E+02  0.10570000000E+00 0. -1.
         13    1    3    3    0    0 -0.26849970778E+02  0.53263966323E+02 -0.30448451946E+01  0.59726487373E+02  0.10570000000E+00 0.  1.
<mgrwt>
<rscale>  0 0.12499550E+03</rscale>
<asrwt>0</asrwt>
<pdfrwt beam="1">  1        1 0.12430531E-01 0.12499550E+03</pdfrwt>
<pdfrwt beam="2">  1       -1 0.74372497E-02 0.12499550E+03</pdfrwt>
<totfact> 0.41589242E+04</totfact>
</mgrwt>
</event>
<event>
 5    1  0.1336420E-049  0.1250004E+03  0.7818608E-02  0.1235069E+00
         -1   -1    0    0    0  501 -0.00000000000E+00  0.00000000000E+00  0.23940687211E+02  0.23940687666E+02  0.46700000000E-02 0.  1.
          1   -1    0    0  501    0  0.00000000000E+00 -0.00000000000E+00 -0.16316463293E+03  0.16316463300E+03  0.46700000000E-02 0. -1.
         25    2    1    2    0    0  0.00000000000E+00  0.00000000000E+00 -0.13922394572E+03  0.18710532066E+03  0.12500037583E+03 0.  0.
        -13    1    3    3    0    0  0.41461462567E+02 -0.40287480628E+02 -0.10516395173E+03  0.12000667435E+03  0.10570000000E+00 0.  1.
         13    1    3    3    0    0 -0.41461462567E+02  0.40287480628E+02 -0.34059993991E+02  0.67098646310E+02  0.10570000000E+00 0. -1.
<mgrwt>
<rscale>  0 0.12500038E+03</rscale>
<asrwt>0</asrwt>
<pdfrwt beam="2">  1        1 0.25102251E-01 0.12500038E+03</pdfrwt>
<pdfrwt beam="1">  1       -1 0.36831828E-02 0.12500038E+03</pdfrwt>
<totfact> 0.47895772E+04</totfact>
</mgrwt>
</event>
<event>
 5    1  0.1336420E-049  0.1250041E+03  0.7818608E-02  0.1235063E+00
         -1   -1    0    0    0  501 -0.00000000000E+00  0.00000000000E+00  0.87815715077E+02  0.87815715201E+02  0.46700000000E-02 0.  1.
          1   -1    0    0  501    0  0.00000000000E+00 -0.00000000000E+00 -0.44485255467E+02  0.44485255713E+02  0.46700000000E-02 0. -1.
         25    2    1    2    0    0  0.00000000000E+00  0.00000000000E+00  0.43330459610E+02  0.13230097091E+03  0.12500407263E+03 0.  0.
        -13    1    3    3    0    0 -0.32329338243E+02  0.14262543315E+02  0.76229347237E+02  0.84021014072E+02  0.10570000000E+00 0.  1.
         13    1    3    3    0    0  0.32329338243E+02 -0.14262543315E+02 -0.32898887628E+02  0.48279956842E+02  0.10570000000E+00 0. -1.
<mgrwt>
<rscale>  0 0.12500407E+03</rscale>
<asrwt>0</asrwt>
<pdfrwt beam="2">  1        1 0.68438855E-02 0.12500407E+03</pdfrwt>
<pdfrwt beam="1">  1       -1 0.13510110E-01 0.12500407E+03</pdfrwt>
<totfact> 0.36984987E+04</totfact>
</mgrwt>
</event>
<event>
 5    1  0.1341739E-049  0.1249985E+03  0.7818608E-02  0.1235072E+00
         -1   -1    0    0    0  501 -0.00000000000E+00  0.00000000000E+00  0.11432295071E+03  0.11432295080E+03  0.46700000000E-02 0.  1.
          1   -1    0    0  501    0  0.00000000000E+00 -0.00000000000E+00 -0.34167727708E+02  0.34167728027E+02  0.46700000000E-02 0. -1.
         25    2    1    2    0    0  0.00000000000E+00  0.00000000000E+00  0.80155223002E+02  0.14849067883E+03  0.12499848769E+03 0.  0.
        -13    1    3    3    0    0 -0.20410333327E+02  0.54466409289E+02  0.67244131561E+02  0.88909818632E+02  0.10570000000E+00 0.  1.
         13    1    3    3    0    0  0.20410333327E+02 -0.54466409289E+02  0.12911091441E+02  0.59580860199E+02  0.10570000000E+00 0. -1.
<mgrwt>
<rscale>  0 0.12499849E+03</rscale>
<asrwt>0</asrwt>
<pdfrwt beam="2">  1        1 0.52565736E-02 0.12499849E+03</pdfrwt>
<pdfrwt beam="1">  1       -1 0.17588146E-01 0.12499849E+03</pdfrwt>
<totfact> 0.34970972E+04</totfact>
</mgrwt>
</event>
<event>
 5    1  0.1336420E-049  0.1249994E+03  0.7818608E-02  0.1235070E+00
          1   -1    0    0  501    0  0.00000000000E+00  0.00000000000E+00  0.13472179273E+02  0.13472180082E+02  0.46700000000E-02 0. -1.
         -1   -1    0    0    0  501 -0.00000000000E+00 -0.00000000000E+00 -0.28994671765E+03  0.28994671769E+03  0.46700000000E-02 0.  1.
         25    2    1    2    0    0  0.00000000000E+00  0.00000000000E+00 -0.27647453838E+03  0.30341889777E+03  0.12499942861E+03 0.  0.
        -13    1    3    3    0    0  0.27706176075E+02 -0.55670434505E+02 -0.15346858453E+03  0.16558818521E+03  0.10570000000E+00 0.  1.
         13    1    3    3    0    0 -0.27706176075E+02  0.55670434505E+02 -0.12300595385E+03  0.13783071256E+03  0.10570000000E+00 0. -1.
<mgrwt>
<rscale>  0 0.12499943E+03</rscale>
<asrwt>0</asrwt>
<pdfrwt beam="1">  1        1 0.20726432E-02 0.12499943E+03</pdfrwt>
<pdfrwt beam="2">  1       -1 0.44607183E-01 0.12499943E+03</pdfrwt>
<totfact> 0.26686772E+04</totfact>
</mgrwt>
</event>
<event>
 5    1  0.1336420E-049  0.1250119E+03  0.7818608E-02  0.1235051E+00
         -1   -1    0    0    0  501 -0.00000000000E+00  0.00000000000E+00  0.23399830498E+02  0.23399830964E+02  0.46700000000E-02 0.  1.
          1   -1    0    0  501    0  0.00000000000E+00 -0.00000000000E+00 -0.16696667795E+03  0.16696667801E+03  0.46700000000E-02 0. -1.
         25    2    1    2    0    0  0.00000000000E+00  0.00000000000E+00 -0.14356684745E+03  0.19036650898E+03  0.12501187165E+03 0.  0.
        -13    1    3    3    0    0  0.13345392140E+02 -0.56591950573E+02 -0.36851048761E+02  0.68838647055E+02  0.10570000000E+00 0.  1.
         13    1    3    3    0    0 -0.13345392140E+02  0.56591950573E+02 -0.10671579869E+03  0.12152786192E+03  0.10570000000E+00 0. -1.
<mgrwt>
<rscale>  0 0.12501187E+03</rscale>
<asrwt>0</asrwt>
<pdfrwt beam="2">  1        1 0.25687180E-01 0.12501187E+03</pdfrwt>
<pdfrwt beam="1">  1       -1 0.35999741E-02 0.12501187E+03</pdfrwt>
<totfact> 0.48115422E+04</totfact>
</mgrwt>
</event>
<event>
 5    1  0.1336420E-049  0.1249986E+03  0.7818608E-02  0.1235072E+00
          1   -1    0    0  501    0  0.00000000000E+00  0.00000000000E+00  0.13776143569E+02  0.13776144360E+02  0.46700000000E-02 0. -1.
         -1   -1    0    0    0  501 -0.00000000000E+00 -0.00000000000E+00 -0.28354526904E+03  0.28354526908E+03  0.46700000000E-02 0.  1.
         25    2    1    2    0    0  0.00000000000E+00  0.00000000000E+00 -0.26976912547E+03  0.29732141344E+03  0.12499856732E+03 0.  0.
        -13    1    3    3    0    0  0.50305979025E+02  0.37087000951E+02 -0.13514642780E+03  0.14889830518E+03  0.10570000000E+00 0.  1.
         13    1    3    3    0    0 -0.50305979025E+02 -0.37087000951E+02 -0.13462269767E+03  0.14842310826E+03  0.10570000000E+00 0. -1.
<mgrwt>
<rscale>  0 0.12499857E+03</rscale>
<asrwt>0</asrwt>
<pdfrwt beam="1">  1        1 0.21194070E-02 0.12499857E+03</pdfrwt>
<pdfrwt beam="2">  1       -1 0.43622345E-01 0.12499857E+03</pdfrwt>
<totfact> 0.26919946E+04</totfact>
</mgrwt>
</event>
<event>
 5    1  0.1336420E-049  0.1249998E+03  0.7818608E-02  0.1235070E+00
         -1   -1    0    0    0  501 -0.00000000000E+00  0.00000000000E+00  0.12790488544E+02  0.12790489397E+02  0.46700000000E-02 0.  1.
          1   -1    0    0  501    0  0.00000000000E+00 -0.00000000000E+00 -0.30540163680E+03  0.30540163684E+03  0.46700000000E-02 0. -1.
         25    2    1    2    0    0  0.00000000000E+00  0.00000000000E+00 -0.29261114826E+03  0.31819212623E+03  0.12499978045E+03 0.  0.
        -13    1    3    3    0    0  0.54464008243E+02  0.27362621356E+02 -0.18150258614E+03  0.19146341998E+03  0.10570000000E+00 0.  1.
         13    1    3    3    0    0 -0.54464008243E+02 -0.27362621356E+02 -0.11110856212E+03  0.12672870626E+03  0.10570000000E+00 0. -1.
<mgrwt>
<rscale>  0 0.12499978E+03</rscale>
<asrwt>0</asrwt>
<pdfrwt beam="2">  1        1 0.46984862E-01 0.12499978E+03</pdfrwt>
<pdfrwt beam="1">  1       -1 0.19677678E-02 0.12499978E+03</pdfrwt>
<totfact> 0.54684049E+04</totfact>
</mgrwt>
</event>
<event>
 5    1  0.1336420E-049  0.1249968E+03  0.7818608E-02  0.1235074E+00
          1   -1    0    0  501    0  0.00000000000E+00  0.00000000000E+00  0.28555962827E+02  0.28555963208E+02  0.46700000000E-02 0. -1.
         -1   -1    0    0    0  501 -0.00000000000E+00 -0.00000000000E+00 -0.13678586265E+03  0.13678586273E+03  0.46700000000E-02 0.  1.
         25    2    1    2    0    0  0.00000000000E+00  0.00000000000E+00 -0.10822989983E+03  0.16534182594E+03  0.12499683272E+03 0.  0.
        -13    1    3    3    0    0 -0.36965274864E+02 -0.26532678236E+02 -0.11078790496E+03  0.11976804924E+03  0.10570000000E+00 0.  1.
         13    1    3    3    0    0  0.36965274864E+02  0.26532678236E+02  0.25580051351E+01  0.45573776702E+02  0.10570000000E+00 0. -1.
<mgrwt>
<rscale>  0 0.12499683E+03</rscale>
<asrwt>0</asrwt>
<pdfrwt beam="1">  1        1 0.43932252E-02 0.12499683E+03</pdfrwt>
<pdfrwt beam="2">  1       -1 0.21043979E-01 0.12499683E+03</pdfrwt>
<totfact> 0.33551355E+04</totfact>
</mgrwt>
</event>
<event>
 5    1  0.1336420E-049  0.1250083E+03  0.7818608E-02  0.1235056E+00
          1   -1    0    0  501    0  0.00000000000E+00  0.00000000000E+00  0.10735901066E+03  0.10735901076E+03  0.46700000000E-02 0. -1.
         -1   -1    0    0    0  501 -0.00000000000E+00 -0.00000000000E+00 -0.36389742168E+02  0.36389742467E+02  0.46700000000E-02 0.  1.
         25    2    1    2    0    0  0.00000000000E+00  0.00000000000E+00  0.70969268492E+02  0.14374875323E+03  0.12500826767E+03 0.  0.
        -13    1    3    3    0    0 -0.42562984833E+02 -0.16875560508E+02 -0.13442324879E+02  0.47718963641E+02  0.10570000000E+00 0.  1.
         13    1    3    3    0    0  0.42562984833E+02  0.16875560508E+02  0.84411593371E+02  0.96029789588E+02  0.10570000000E+00 0. -1.
<mgrwt>
<rscale>  0 0.12500827E+03</rscale>
<asrwt>0</asrwt>
<pdfrwt beam="1">  1        1 0.16516771E-01 0.12500827E+03</pdfrwt>
<pdfrwt beam="2">  1       -1 0.55984219E-02 0.12500827E+03</pdfrwt>
<totfact> 0.43960318E+04</totfact>
</mgrwt>
</event>
<event>
 5    1  0.1336420E-049  0.1250018E+03  0.7818608E-02  0.1235066E+00
         -1   -1    0    0    0  501 -0.00000000000E+00  0.00000000000E+00  0.98513176818E+01  0.98513187887E+01  0.46700000000E-02 0.  1.
          1   -1    0    0  501    0  0.00000000000E+00 -0.00000000000E+00 -0.39653219889E+03  0.39653219892E+03  0.46700000000E-02 0. -1.
         25    2    1    2    0    0  0.00000000000E+00  0.00000000000E+00 -0.38668088121E+03  0.40638351771E+03  0.12500183827E+03 0.  0.
        -13    1    3    3    0    0  0.62421785425E+02 -0.31055754735E+01 -0.19489898425E+03  0.20467473984E+03  0.10570000000E+00 0.  1.
         13    1    3    3    0    0 -0.62421785425E+02  0.31055754735E+01 -0.19178189696E+03  0.20170877787E+03  0.10570000000E+00 0. -1.
<mgrwt>
<rscale>  0 0.12500184E+03</rscale>
<asrwt>0</asrwt>
<pdfrwt beam="2">  1        1 0.61004941E-01 0.12500184E+03</pdfrwt>
<pdfrwt beam="1">  1       -1 0.15155877E-02 0.12500184E+03</pdfrwt>
<totfact> 0.57481813E+04</totfact>
</mgrwt>
</event>
<event>
 5    1  0.1336420E-049  0.1250001E+03  0.7818608E-02  0.1235069E+00
         -1   -1    0    0    0  501 -0.00000000000E+00  0.00000000000E+00  0.12364954940E+03  0.12364954948E+03  0.46700000000E-02 0.  1.
          1   -1    0    0  501    0  0.00000000000E+00 -0.00000000000E+00 -0.31591367547E+02  0.31591367892E+02  0.46700000000E-02 0. -1.
         25    2    1    2    0    0  0.00000000000E+00  0.00000000000E+00  0.92058181849E+02  0.15524091738E+03  0.12500013433E+03 0.  0.
        -13    1    3    3    0    0  0.46057834237E+02  0.41160042836E+02  0.34196592299E+02  0.70603762777E+02  0.10570000000E+00 0.  1.
         13    1    3    3    0    0 -0.46057834237E+02 -0.41160042836E+02  0.57861589550E+02  0.84637154599E+02  0.10570000000E+00 0. -1.
<mgrwt>
<rscale>  0 0.12500013E+03</rscale>
<asrwt>0</asrwt>
<pdfrwt beam="2">  1        1 0.48602103E-02 0.12500013E+03</pdfrwt>
<pdfrwt beam="1">  1       -1 0.19023008E-01 0.12500013E+03</pdfrwt>
<totfact> 0.34355494E+04</totfact>
</mgrwt>
</event>
<event>
 5    1  0.1336420E-049  0.1249978E+03  0.7818608E-02  0.1235073E+00
         -1   -1    0    0    0  501 -0.00000000000E+00  0.00000000000E+00  0.13682904160E+03  0.13682904168E+03  0.46700000000E-02 0.  1.
          1   -1    0    0  501    0  0.00000000000E+00 -0.00000000000E+00 -0.28547398660E+02  0.28547399042E+02  0.46700000000E-02 0. -1.
         25    2    1    2    0    0  0.00000000000E+00  0.00000000000E+00  0.10828164294E+03  0.16537644072E+03  0.12499781177E+03 0.  0.
        -13    1    3    3    0    0  0.11212775211E+02 -0.58777431535E+02  0.78013781898E+02  0.98319245951E+02  0.10570000000E+00 0.  1.
         13    1    3    3    0    0 -0.11212775211E+02  0.58777431535E+02  0.30267861041E+02  0.67057194769E+02  0.10570000000E+00 0. -1.
<mgrwt>
<rscale>  0 0.12499781E+03</rscale>
<asrwt>0</asrwt>
<pdfrwt beam="2">  1        1 0.43919076E-02 0.12499781E+03</pdfrwt>
<pdfrwt beam="1">  1       -1 0.21050622E-01 0.12499781E+03</pdfrwt>
<totfact> 0.33548118E+04</totfact>
</mgrwt>
</event>
<event>
 5    1  0.1336420E-049  0.1249778E+03  0.7818608E-02  0.1235104E+00
         -1   -1    0    0    0  501 -0.00000000000E+00  0.00000000000E+00  0.37643311615E+02  0.37643311905E+02  0.46700000000E-02 0.  1.
          1   -1    0    0  501    0  0.00000000000E+00 -0.00000000000E+00 -0.10373321965E+03  0.10373321975E+03  0.46700000000E-02 0. -1.
         25    2    1    2    0    0  0.00000000000E+00  0.00000000000E+00 -0.66089908032E+02  0.14137653166E+03  0.12497778906E+03 0.  0.
        -13    1    3    3    0    0  0.95824072954E+01  0.56323043228E+02 -0.44106630258E+01  0.57302468087E+02  0.10570000000E+00 0. -1.
         13    1    3    3    0    0 -0.95824072954E+01 -0.56323043228E+02 -0.61679245006E+02  0.84074063569E+02  0.10570000000E+00 0.  1.
<mgrwt>
<rscale>  0 0.12497779E+03</rscale>
<asrwt>0</asrwt>
<pdfrwt beam="2">  1        1 0.15958957E-01 0.12497779E+03</pdfrwt>
<pdfrwt beam="1">  1       -1 0.57912788E-02 0.12497779E+03</pdfrwt>
<totfact> 0.43692055E+04</totfact>
</mgrwt>
</event>
<event>
 5    1  0.1336420E-049  0.1249872E+03  0.7818608E-02  0.1235089E+00
          1   -1    0    0  501    0  0.00000000000E+00  0.00000000000E+00  0.43323461562E+02  0.43323461814E+02  0.46700000000E-02 0. -1.
         -1   -1    0    0    0  501 -0.00000000000E+00 -0.00000000000E+00 -0.90146234035E+02  0.90146234156E+02  0.46700000000E-02 0.  1.
         25    2    1    2    0    0  0.00000000000E+00  0.00000000000E+00 -0.46822772473E+02  0.13346969597E+03  0.12498715022E+03 0.  0.
        -13    1    3    3    0    0 -0.29222452099E+02 -0.50697453645E+02 -0.46837685627E+02  0.74953075188E+02  0.10570000000E+00 0.  1.
         13    1    3    3    0    0  0.29222452099E+02  0.50697453645E+02  0.14913153937E-01  0.58516620781E+02  0.10570000000E+00 0. -1.
<mgrwt>
<rscale>  0 0.12498715E+03</rscale>
<asrwt>0</asrwt>
<pdfrwt beam="1">  1        1 0.66651480E-02 0.12498715E+03</pdfrwt>
<pdfrwt beam="2">  1       -1 0.13868651E-01 0.12498715E+03</pdfrwt>
<totfact> 0.36799481E+04</totfact>
</mgrwt>
</event>
<event>
 5    1  0.1336420E-049  0.1249960E+03  0.7818608E-02  0.1235076E+00
          1   -1    0    0  501    0  0.00000000000E+00  0.00000000000E+00  0.30926137548E+03  0.30926137551E+03  0.46700000000E-02 0. -1.
         -1   -1    0    0    0  501 -0.00000000000E+00 -0.00000000000E+00 -0.12630096486E+02  0.12630097350E+02  0.46700000000E-02 0.  1.
         25    2    1    2    0    0  0.00000000000E+00  0.00000000000E+00  0.29663127899E+03  0.32189147286E+03  0.12499601844E+03 0.  0.
        -13    1    3    3    0    0 -0.47148512434E+01  0.61553247542E+02  0.17341015383E+03  0.18407097742E+03  0.10570000000E+00 0.  1.
         13    1    3    3    0    0  0.47148512434E+01 -0.61553247542E+02  0.12322112517E+03  0.13782049544E+03  0.10570000000E+00 0. -1.
<mgrwt>
<rscale>  0 0.12499602E+03</rscale>
<asrwt>0</asrwt>
<pdfrwt beam="1">  1        1 0.47578672E-01 0.12499602E+03</pdfrwt>
<pdfrwt beam="2">  1       -1 0.19430919E-02 0.12499602E+03</pdfrwt>
<totfact> 0.54828279E+04</totfact>
</mgrwt>
</event>
<event>
 5    1  0.1336420E-049  0.1250002E+03  0.7818608E-02  0.1235069E+00
          1   -1    0    0  501    0  0.00000000000E+00  0.00000000000E+00  0.56056203667E+02  0.56056203862E+02  0.46700000000E-02 0. -1.
         -1   -1    0    0    0  501 -0.00000000000E+00 -0.00000000000E+00 -0.69684705550E+02  0.69684705707E+02  0.46700000000E-02 0.  1.
         25    2    1    2    0    0  0.00000000000E+00  0.00000000000E+00 -0.13628501883E+02  0.12574090957E+03  0.12500016110E+03 0.  0.
        -13    1    3    3    0    0  0.23701261405E+02  0.44499901345E+02  0.30340492007E+02  0.58843416281E+02  0.10570000000E+00 0. -1.
         13    1    3    3    0    0 -0.23701261405E+02 -0.44499901345E+02 -0.43968993891E+02  0.66897493287E+02  0.10570000000E+00 0.  1.
<mgrwt>
<rscale>  0 0.12500016E+03</rscale>
<asrwt>0</asrwt>
<pdfrwt beam="1">  1        1 0.86240314E-02 0.12500016E+03</pdfrwt>
<pdfrwt beam="2">  1       -1 0.10720724E-01 0.12500016E+03</pdfrwt>
<totfact> 0.38736815E+04</totfact>
</mgrwt>
</event>
<event>
 5    1  0.1336420E-049  0.1249992E+03  0.7818608E-02  0.1235071E+00
          1   -1    0    0  501    0  0.00000000000E+00  0.00000000000E+00  0.94535708835E+02  0.94535708951E+02  0.46700000000E-02 0. -1.
         -1   -1    0    0    0  501 -0.00000000000E+00 -0.00000000000E+00 -0.41319839907E+02  0.41319840170E+02  0.46700000000E-02 0.  1.
         25    2    1    2    0    0  0.00000000000E+00  0.00000000000E+00  0.53215868929E+02  0.13585554912E+03  0.12499920608E+03 0.  0.
        -13    1    3    3    0    0  0.44281527794E+02  0.37402821791E+02  0.12033945052E+01  0.57976582449E+02  0.10570000000E+00 0.  1.
         13    1    3    3    0    0 -0.44281527794E+02 -0.37402821791E+02  0.52012474424E+02  0.77878966672E+02  0.10570000000E+00 0. -1.
<mgrwt>
<rscale>  0 0.12499921E+03</rscale>
<asrwt>0</asrwt>
<pdfrwt beam="1">  1        1 0.14543955E-01 0.12499921E+03</pdfrwt>
<pdfrwt beam="2">  1       -1 0.63568984E-02 0.12499921E+03</pdfrwt>
<totfact> 0.42878954E+04</totfact>
</mgrwt>
</event>
<event>
 5    1  0.1336420E-049  0.1249933E+03  0.7818608E-02  0.1235080E+00
          1   -1    0    0  501    0  0.00000000000E+00  0.00000000000E+00  0.28052918813E+02  0.28052919202E+02  0.46700000000E-02 0. -1.
         -1   -1    0    0    0  501 -0.00000000000E+00 -0.00000000000E+00 -0.13923090836E+03  0.13923090844E+03  0.46700000000E-02 0.  1.
         25    2    1    2    0    0  0.00000000000E+00  0.00000000000E+00 -0.11117798955E+03  0.16728382764E+03  0.12499333434E+03 0.  0.
        -13    1    3    3    0    0 -0.25561700881E+01  0.62174604786E+02 -0.47830448470E+02  0.78485530254E+02  0.10570000000E+00 0. -1.
         13    1    3    3    0    0  0.25561700881E+01 -0.62174604786E+02 -0.63347541077E+02  0.88798297387E+02  0.10570000000E+00 0.  1.
<mgrwt>
<rscale>  0 0.12499333E+03</rscale>
<asrwt>0</asrwt>
<pdfrwt beam="1">  1        1 0.43158338E-02 0.12499333E+03</pdfrwt>
<pdfrwt beam="2">  1       -1 0.21420139E-01 0.12499333E+03</pdfrwt>
<totfact> 0.33410348E+04</totfact>
</mgrwt>
</event>
<event>
 5    1  0.1336420E-049  0.1249881E+03  0.7818608E-02  0.1235088E+00
         -1   -1    0    0    0  501 -0.00000000000E+00  0.00000000000E+00  0.34777324739E+03  0.34777324742E+03  0.46700000000E-02 0.  1.
          1   -1    0    0  501    0  0.00000000000E+00 -0.00000000000E+00 -0.11230038529E+02  0.11230039500E+02  0.46700000000E-02 0. -1.
         25    2    1    2    0    0  0.00000000000E+00  0.00000000000E+00  0.33654320886E+03  0.35900328692E+03  0.12498811380E+03 0.  0.
        -13    1    3    3    0    0 -0.46655447745E+02  0.15196049795E+02  0.27943535286E+03  0.28371073003E+03  0.10570000000E+00 0.  1.
         13    1    3    3    0    0  0.46655447745E+02 -0.15196049795E+02  0.57107855997E+02  0.75292556888E+02  0.10570000000E+00 0. -1.
<mgrwt>
<rscale>  0 0.12498811E+03</rscale>
<asrwt>0</asrwt>
<pdfrwt beam="2">  1        1 0.17276981E-02 0.12498811E+03</pdfrwt>
<pdfrwt beam="1">  1       -1 0.53503582E-01 0.12498811E+03</pdfrwt>
<totfact> 0.24721953E+04</totfact>
</mgrwt>
</event>
<event>
 5    1  0.1336420E-049  0.1249976E+03  0.7818608E-02  0.1235073E+00
          1   -1    0    0  501    0  0.00000000000E+00  0.00000000000E+00  0.58384157331E+02  0.58384157518E+02  0.46700000000E-02 0. -1.
         -1   -1    0    0    0  501 -0.00000000000E+00 -0.00000000000E+00 -0.66903402229E+02  0.66903402392E+02  0.46700000000E-02 0.  1.
         25    2    1    2    0    0  0.00000000000E+00  0.00000000000E+00 -0.85192448979E+01  0.12528755991E+03  0.12499758052E+03 0.  0.
        -13    1    3    3    0    0 -0.57786083421E+02 -0.10749021748E+02 -0.25553075114E+02  0.64091682190E+02  0.10570000000E+00 0.  1.
         13    1    3    3    0    0  0.57786083421E+02  0.10749021748E+02  0.17033830216E+02  0.61195877720E+02  0.10570000000E+00 0. -1.
<mgrwt>
<rscale>  0 0.12499758E+03</rscale>
<asrwt>0</asrwt>
<pdfrwt beam="1">  1        1 0.89821781E-02 0.12499758E+03</pdfrwt>
<pdfrwt beam="2">  1       -1 0.10292831E-01 0.12499758E+03</pdfrwt>
<totfact> 0.39048884E+04</totfact>
</mgrwt>
</event>
<event>
 5    1  0.1336420E-049  0.1249983E+03  0.7818608E-02  0.1235072E+00
         -1   -1    0    0    0  501 -0.00000000000E+00  0.00000000000E+00  0.25198029864E+02  0.25198030297E+02  0.46700000000E-02 0.  1.
          1   -1    0    0  501    0  0.00000000000E+00 -0.00000000000E+00 -0.15501783728E+03  0.15501783735E+03  0.46700000000E-02 0. -1.
         25    2    1    2    0    0  0.00000000000E+00  0.00000000000E+00 -0.12981980742E+03  0.18021586765E+03  0.12499830621E+03 0.  0.
        -13    1    3    3    0    0  0.24952987938E+02 -0.42893857441E+02 -0.10131157485E+02  0.50647666656E+02  0.10570000000E+00 0.  1.
         13    1    3    3    0    0 -0.24952987938E+02  0.42893857441E+02 -0.11968864993E+03  0.12956820099E+03  0.10570000000E+00 0. -1.
<mgrwt>
<rscale>  0 0.12499831E+03</rscale>
<asrwt>0</asrwt>
<pdfrwt beam="2">  1        1 0.23848898E-01 0.12499831E+03</pdfrwt>
<pdfrwt beam="1">  1       -1 0.38766201E-02 0.12499831E+03</pdfrwt>
<totfact> 0.47387998E+04</totfact>
</mgrwt>
</event>
<event>
 5    1  0.1336420E-049  0.1249987E+03  0.7818608E-02  0.1235071E+00
         -1   -1    0    0    0  501 -0.00000000000E+00  0.00000000000E+00  0.13060990353E+02  0.13060991188E+02  0.46700000000E-02 0.  1.
          1   -1    0    0  501    0  0.00000000000E+00 -0.00000000000E+00 -0.29907150771E+03  0.29907150774E+03  0.46700000000E-02 0. -1.
         25    2    1    2    0    0  0.00000000000E+00  0.00000000000E+00 -0.28601051735E+03  0.31213249893E+03  0.12499872340E+03 0.  0.
        -13    1    3    3    0    0 -0.42382381093E+02  0.45869439819E+02 -0.13694638847E+03  0.15051443859E+03  0.10570000000E+00 0.  1.
         13    1    3    3    0    0  0.42382381093E+02 -0.45869439819E+02 -0.14906412889E+03  0.16161806034E+03  0.10570000000E+00 0. -1.
<mgrwt>
<rscale>  0 0.12499872E+03</rscale>
<asrwt>0</asrwt>
<pdfrwt beam="2">  1        1 0.46010996E-01 0.12499872E+03</pdfrwt>
<pdfrwt beam="1">  1       -1 0.20093834E-02 0.12499872E+03</pdfrwt>
<totfact> 0.54451793E+04</totfact>
</mgrwt>
</event>
<event>
 5    1  0.1336420E-049  0.1250004E+03  0.7818608E-02  0.1235069E+00
         -1   -1    0    0    0  501 -0.00000000000E+00  0.00000000000E+00  0.59098068687E+01  0.59098087138E+01  0.46700000000E-02 0.  1.
          1   -1    0    0  501    0  0.00000000000E+00 -0.00000000000E+00 -0.66098185464E+03  0.66098185466E+03  0.46700000000E-02 0. -1.
         25    2    1    2    0    0  0.00000000000E+00  0.00000000000E+00 -0.65507204777E+03  0.66689166337E+03  0.12500041161E+03 0.  0.
        -13    1    3    3    0    0 -0.20803959193E+02  0.58931209663E+02 -0.33157228641E+03  0.33741055774E+03  0.10570000000E+00 0.  1.
         13    1    3    3    0    0  0.20803959193E+02 -0.58931209663E+02 -0.32349976136E+03  0.32948110562E+03  0.10570000000E+00 0. -1.
<mgrwt>
<rscale>  0 0.12500041E+03</rscale>
<asrwt>0</asrwt>
<pdfrwt beam="2">  1        1 0.10168946E+00 0.12500041E+03</pdfrwt>
<pdfrwt beam="1">  1       -1 0.90920172E-03 0.12500041E+03</pdfrwt>
<totfact> 0.60905207E+04</totfact>
</mgrwt>
</event>
<event>
 5    1  0.1336420E-049  0.1250047E+03  0.7818608E-02  0.1235062E+00
         -1   -1    0    0    0  501 -0.00000000000E+00  0.00000000000E+00  0.22638443835E+03  0.22638443840E+03  0.46700000000E-02 0. -1.
          1   -1    0    0  501    0  0.00000000000E+00 -0.00000000000E+00 -0.17256248190E+02  0.17256248822E+02  0.46700000000E-02 0.  1.
         25    2    1    2    0    0  0.00000000000E+00  0.00000000000E+00  0.20912819016E+03  0.24364068722E+03  0.12500473811E+03 0.  0.
        -13    1    3    3    0    0 -0.50750663217E+02 -0.26718619688E+02  0.56149852559E+02  0.80264136262E+02  0.10570000000E+00 0. -1.
         13    1    3    3    0    0  0.50750663217E+02  0.26718619688E+02  0.15297833761E+03  0.16337655096E+03  0.10570000000E+00 0.  1.
<mgrwt>
<rscale>  0 0.12500474E+03</rscale>
<asrwt>0</asrwt>
<pdfrwt beam="2">  1        1 0.26548073E-02 0.12500474E+03</pdfrwt>
<pdfrwt beam="1">  1       -1 0.34828377E-01 0.12500474E+03</pdfrwt>
<totfact> 0.29151299E+04</totfact>
</mgrwt>
</event>
<event>
 5    1  0.1336420E-049  0.1250038E+03  0.7818608E-02  0.1235063E+00
          1   -1    0    0  501    0  0.00000000000E+00  0.00000000000E+00  0.17617320656E+03  0.17617320662E+03  0.46700000000E-02 0. -1.
         -1   -1    0    0    0  501 -0.00000000000E+00 -0.00000000000E+00 -0.22174143371E+02  0.22174143863E+02  0.46700000000E-02 0.  1.
         25    2    1    2    0    0  0.00000000000E+00  0.00000000000E+00  0.15399906318E+03  0.19834735048E+03  0.12500383986E+03 0.  0.
        -13    1    3    3    0    0 -0.31595057499E+02 -0.24495633472E+02  0.15323188153E+03  0.15836130969E+03  0.10570000000E+00 0. -1.
         13    1    3    3    0    0  0.31595057499E+02  0.24495633472E+02  0.76718165151E+00  0.39986040786E+02  0.10570000000E+00 0.  1.
<mgrwt>
<rscale>  0 0.12500384E+03</rscale>
<asrwt>0</asrwt>
<pdfrwt beam="1">  1        1 0.27103570E-01 0.12500384E+03</pdfrwt>
<pdfrwt beam="2">  1       -1 0.34114068E-02 0.12500384E+03</pdfrwt>
<totfact> 0.48671070E+04</totfact>
</mgrwt>
</event>
<event>
 5    1  0.1336420E-049  0.1250000E+03  0.7818608E-02  0.1235069E+00
          1   -1    0    0  501    0  0.00000000000E+00  0.00000000000E+00  0.54016834664E+03  0.54016834666E+03  0.46700000000E-02 0. -1.
         -1   -1    0    0    0  501 -0.00000000000E+00 -0.00000000000E+00 -0.72315463324E+01  0.72315478403E+01  0.46700000000E-02 0.  1.
         25    2    1    2    0    0  0.00000000000E+00  0.00000000000E+00  0.53293680031E+03  0.54739989450E+03  0.12500004551E+03 0.  0.
        -13    1    3    3    0    0  0.55792725481E+02  0.26758724923E+02  0.30499142620E+03  0.31120513942E+03  0.10570000000E+00 0.  1.
         13    1    3    3    0    0 -0.55792725481E+02 -0.26758724923E+02  0.22794537411E+03  0.23619475508E+03  0.10570000000E+00 0. -1.
<mgrwt>
<rscale>  0 0.12500005E+03</rscale>
<asrwt>0</asrwt>
<pdfrwt beam="1">  1        1 0.83102834E-01 0.12500005E+03</pdfrwt>
<pdfrwt beam="2">  1       -1 0.11125456E-02 0.12500005E+03</pdfrwt>
<totfact> 0.60098149E+04</totfact>
</mgrwt>
</event>
<event>
 5    1  0.1336420E-049  0.1250013E+03  0.7818608E-02  0.1235067E+00
         -1   -1    0    0    0  501 -0.00000000000E+00  0.00000000000E+00  0.25637995409E+02  0.25637995834E+02  0.46700000000E-02 0. -1.
          1   -1    0    0  501    0  0.00000000000E+00 -0.00000000000E+00 -0.15236487337E+03  0.15236487344E+03  0.46700000000E-02 0.  1.
         25    2    1    2    0    0  0.00000000000E+00  0.00000000000E+00 -0.12672687796E+03  0.17800286927E+03  0.12500127948E+03 0.  0.
        -13    1    3    3    0    0 -0.13185234938E+02 -0.42297231505E+02 -0.58723517179E+00  0.44308715069E+02  0.10570000000E+00 0. -1.
         13    1    3    3    0    0  0.13185234938E+02  0.42297231505E+02 -0.12613964278E+03  0.13369415420E+03  0.10570000000E+00 0.  1.
<mgrwt>
<rscale>  0 0.12500128E+03</rscale>
<asrwt>0</asrwt>
<pdfrwt beam="2">  1        1 0.23440749E-01 0.12500128E+03</pdfrwt>
<pdfrwt beam="1">  1       -1 0.39443071E-02 0.12500128E+03</pdfrwt>
<totfact> 0.47214831E+04</totfact>
</mgrwt>
</event>
<event>
 5    1  0.1336420E-049  0.1249996E+03  0.7818608E-02  0.1235070E+00
          1   -1    0    0  501    0  0.00000000000E+00  0.00000000000E+00  0.29567561805E+03  0.29567561809E+03  0.46700000000E-02 0. -1.
         -1   -1    0    0    0  501 -0.00000000000E+00 -0.00000000000E+00 -0.13211176961E+02  0.13211177786E+02  0.46700000000E-02 0.  1.
         25    2    1    2    0    0  0.00000000000E+00  0.00000000000E+00  0.28246444109E+03  0.30888679588E+03  0.12499956874E+03 0.  0.
        -13    1    3    3    0    0  0.45126306242E+02  0.18720016521E+02  0.44910248257E+02  0.66360862748E+02  0.10570000000E+00 0. -1.
         13    1    3    3    0    0 -0.45126306242E+02 -0.18720016521E+02  0.23755419284E+03  0.24252593313E+03  0.10570000000E+00 0.  1.
<mgrwt>
<rscale>  0 0.12499957E+03</rscale>
<asrwt>0</asrwt>
<pdfrwt beam="1">  1        1 0.45488554E-01 0.12499957E+03</pdfrwt>
<pdfrwt beam="2">  1       -1 0.20324890E-02 0.12499957E+03</pdfrwt>
<totfact> 0.54323076E+04</totfact>
</mgrwt>
</event>
<event>
 5    1  0.1336420E-049  0.1249997E+03  0.7818608E-02  0.1235070E+00
          1   -1    0    0  501    0  0.00000000000E+00  0.00000000000E+00  0.26593621582E+03  0.26593621586E+03  0.46700000000E-02 0. -1.
         -1   -1    0    0    0  501 -0.00000000000E+00 -0.00000000000E+00 -0.14688610780E+02  0.14688611522E+02  0.46700000000E-02 0.  1.
         25    2    1    2    0    0  0.00000000000E+00  0.00000000000E+00  0.25124760504E+03  0.28062482738E+03  0.12499973882E+03 0.  0.
        -13    1    3    3    0    0 -0.30515008084E+02  0.49723623455E+02  0.75292748116E+02  0.95250267922E+02  0.10570000000E+00 0.  1.
         13    1    3    3    0    0  0.30515008084E+02 -0.49723623455E+02  0.17595485692E+03  0.18537455946E+03  0.10570000000E+00 0. -1.
<mgrwt>
<rscale>  0 0.12499974E+03</rscale>
<asrwt>0</asrwt>
<pdfrwt beam="1">  1        1 0.40913265E-01 0.12499974E+03</pdfrwt>
<pdfrwt beam="2">  1       -1 0.22597863E-02 0.12499974E+03</pdfrwt>
<totfact> 0.53133429E+04</totfact>
</mgrwt>
</event>
<event>
 5    1  0.1336420E-049  0.1250005E+03  0.7818608E-02  0.1235069E+00
          1   -1    0    0  501    0  0.00000000000E+00  0.00000000000E+00  0.63107279272E+02  0.63107279445E+02  0.46700000000E-02 0. -1.
         -1   -1    0    0    0  501 -0.00000000000E+00 -0.00000000000E+00 -0.61899011518E+02  0.61899011694E+02  0.46700000000E-02 0.  1.
         25    2    1    2    0    0  0.00000000000E+00  0.00000000000E+00  0.12082677542E+01  0.12500629114E+03  0.12500045165E+03 0.  0.
        -13    1    3    3    0    0 -0.54939329998E+02  0.25583378026E+01  0.30293767331E+02  0.62790115341E+02  0.10570000000E+00 0. -1.
         13    1    3    3    0    0  0.54939329998E+02 -0.25583378026E+01 -0.29085499576E+02  0.62216175799E+02  0.10570000000E+00 0.  1.
<mgrwt>
<rscale>  0 0.12500045E+03</rscale>
<asrwt>0</asrwt>
<pdfrwt beam="1">  1        1 0.97088122E-02 0.12500045E+03</pdfrwt>
<pdfrwt beam="2">  1       -1 0.95229249E-02 0.12500045E+03</pdfrwt>
<totfact> 0.39642197E+04</totfact>
</mgrwt>
</event>
<event>
 5    1  0.1336420E-049  0.1249996E+03  0.7818608E-02  0.1235070E+00
          1   -1    0    0  501    0  0.00000000000E+00  0.00000000000E+00  0.17667641214E+03  0.17667641220E+03  0.46700000000E-02 0.  1.
         -1   -1    0    0    0  501 -0.00000000000E+00 -0.00000000000E+00 -0.22109496942E+02  0.22109497435E+02  0.46700000000E-02 0. -1.
         25    2    1    2    0    0  0.00000000000E+00  0.00000000000E+00  0.15456691520E+03  0.19878590964E+03  0.12499962639E+03 0.  0.
        -13    1    3    3    0    0  0.55860727613E+02  0.26934960162E+02  0.64934094192E+02  0.89790649454E+02  0.10570000000E+00 0. -1.
         13    1    3    3    0    0 -0.55860727613E+02 -0.26934960162E+02  0.89632821006E+02  0.10899526018E+03  0.10570000000E+00 0.  1.
<mgrwt>
<rscale>  0 0.12499963E+03</rscale>
<asrwt>0</asrwt>
<pdfrwt beam="1">  1        1 0.27180988E-01 0.12499963E+03</pdfrwt>
<pdfrwt beam="2">  1       -1 0.34014610E-02 0.12499963E+03</pdfrwt>
<totfact> 0.48704970E+04</totfact>
</mgrwt>
</event>
<event>
 5    1  0.1336420E-049  0.1250016E+03  0.7818608E-02  0.1235067E+00
         -1   -1    0    0    0  501 -0.00000000000E+00  0.00000000000E+00  0.97684660559E+02  0.97684660671E+02  0.46700000000E-02 0.  1.
          1   -1    0    0  501    0  0.00000000000E+00 -0.00000000000E+00 -0.39989361939E+02  0.39989362212E+02  0.46700000000E-02 0. -1.
         25    2    1    2    0    0  0.00000000000E+00  0.00000000000E+00  0.57695298620E+02  0.13767402288E+03  0.12500155637E+03 0.  0.
        -13    1    3    3    0    0  0.39780382357E+02  0.21345051529E+02  0.76452764408E+02  0.88786972036E+02  0.10570000000E+00 0.  1.
         13    1    3    3    0    0 -0.39780382357E+02 -0.21345051529E+02 -0.18757465788E+02  0.48887050847E+02  0.10570000000E+00 0. -1.
<mgrwt>
<rscale>  0 0.12500156E+03</rscale>
<asrwt>0</asrwt>
<pdfrwt beam="2">  1        1 0.61522096E-02 0.12500156E+03</pdfrwt>
<pdfrwt beam="1">  1       -1 0.15028409E-01 0.12500156E+03</pdfrwt>
<totfact> 0.36178492E+04</totfact>
</mgrwt>
</event>
<event>
 5    1  0.1336420E-049  0.1250002E+03  0.7818608E-02  0.1235069E+00
          1   -1    0    0  501    0  0.00000000000E+00  0.00000000000E+00  0.21895346538E+03  0.21895346543E+03  0.46700000000E-02 0.  1.
         -1   -1    0    0    0  501 -0.00000000000E+00 -0.00000000000E+00 -0.17840607676E+02  0.17840608287E+02  0.46700000000E-02 0. -1.
         25    2    1    2    0    0  0.00000000000E+00  0.00000000000E+00  0.20111285770E+03  0.23679407371E+03  0.12500020725E+03 0.  0.
        -13    1    3    3    0    0  0.56472970921E+02 -0.25849594880E+02  0.11379707517E+03  0.12964252192E+03  0.10570000000E+00 0. -1.
         13    1    3    3    0    0 -0.56472970921E+02  0.25849594880E+02  0.87315782528E+02  0.10715155179E+03  0.10570000000E+00 0.  1.
<mgrwt>
<rscale>  0 0.12500021E+03</rscale>
<asrwt>0</asrwt>
<pdfrwt beam="1">  1        1 0.33685148E-01 0.12500021E+03</pdfrwt>
<pdfrwt beam="2">  1       -1 0.27447089E-02 0.12500021E+03</pdfrwt>
<totfact> 0.50984723E+04</totfact>
</mgrwt>
</event>
<event>
 5    1  0.1336420E-049  0.1250060E+03  0.7818608E-02  0.1235060E+00
          1   -1    0    0  501    0  0.00000000000E+00  0.00000000000E+00  0.19288391226E+03  0.19288391231E+03  0.46700000000E-02 0. -1.
         -1   -1    0    0    0  501 -0.00000000000E+00 -0.00000000000E+00 -0.20253747970E+02  0.20253748508E+02  0.46700000000E-02 0.  1.
         25    2    1    2    0    0  0.00000000000E+00  0.00000000000E+00  0.17263016429E+03  0.21313766082E+03  0.12500595521E+03 0.  0.
        -13    1    3    3    0    0 -0.35272289389E+02  0.42047840209E+02  0.35322274161E+02  0.65267369254E+02  0.10570000000E+00 0.  1.
         13    1    3    3    0    0  0.35272289389E+02 -0.42047840209E+02  0.13730789012E+03  0.14787029157E+03  0.10570000000E+00 0. -1.
<mgrwt>
<rscale>  0 0.12500596E+03</rscale>
<asrwt>0</asrwt>
<pdfrwt beam="1">  1        1 0.29674450E-01 0.12500596E+03</pdfrwt>
<pdfrwt beam="2">  1       -1 0.31159611E-02 0.12500596E+03</pdfrwt>
<totfact> 0.49616464E+04</totfact>
</mgrwt>
</event>
<event>
 5    1  0.1336420E-049  0.1250041E+03  0.7818608E-02  0.1235063E+00
         -1   -1    0    0    0  501 -0.00000000000E+00  0.00000000000E+00  0.63983606413E+02  0.63983606584E+02  0.46700000000E-02 0.  1.
          1   -1    0    0  501    0  0.00000000000E+00 -0.00000000000E+00 -0.61054795623E+02  0.61054795801E+02  0.46700000000E-02 0. -1.
         25    2    1    2    0    0  0.00000000000E+00  0.00000000000E+00  0.29288107907E+01  0.12503840238E+03  0.12500409649E+03 0.  0.
        -13    1    3    3    0    0  0.12840115944E+02 -0.42110178303E+02  0.45842775150E+02  0.63558688628E+02  0.10570000000E+00 0.  1.
         13    1    3    3    0    0 -0.12840115944E+02  0.42110178303E+02 -0.42913964359E+02  0.61479713757E+02  0.10570000000E+00 0. -1.
<mgrwt>
<rscale>  0 0.12500410E+03</rscale>
<asrwt>0</asrwt>
<pdfrwt beam="2">  1        1 0.93930455E-02 0.12500410E+03</pdfrwt>
<pdfrwt beam="1">  1       -1 0.98436318E-02 0.12500410E+03</pdfrwt>
<totfact> 0.39384863E+04</totfact>
</mgrwt>
</event>
<event>
 5    1  0.1336420E-049  0.1249996E+03  0.7818608E-02  0.1235070E+00
          1   -1    0    0  501    0  0.00000000000E+00  0.00000000000E+00  0.82785123264E+02  0.82785123396E+02  0.46700000000E-02 0. -1.
         -1   -1    0    0    0  501 -0.00000000000E+00 -0.00000000000E+00 -0.47185120762E+02  0.47185120993E+02  0.46700000000E-02 0.  1.
         25    2    1    2    0    0  0.00000000000E+00  0.00000000000E+00  0.35600002502E+02  0.12997024439E+03  0.12499961699E+03 0.  0.
        -13    1    3    3    0    0 -0.46521970994E+02 -0.22350404048E+02  0.54449038796E+02  0.75023618578E+02  0.10570000000E+00 0. -1.
         13    1    3    3    0    0  0.46521970994E+02  0.22350404048E+02 -0.18849036294E+02  0.54946625811E+02  0.10570000000E+00 0.  1.
<mgrwt>
<rscale>  0 0.12499962E+03</rscale>
<asrwt>0</asrwt>
<pdfrwt beam="1">  1        1 0.12736173E-01 0.12499962E+03</pdfrwt>
<pdfrwt beam="2">  1       -1 0.72592494E-02 0.12499962E+03</pdfrwt>
<totfact> 0.41781729E+04</totfact>
</mgrwt>
</event>
<event>
 5    1  0.1336420E-049  0.1249978E+03  0.7818608E-02  0.1235073E+00
         -1   -1    0    0    0  501 -0.00000000000E+00  0.00000000000E+00  0.25352144555E+03  0.25352144559E+03  0.46700000000E-02 0.  1.
          1   -1    0    0  501    0  0.00000000000E+00 -0.00000000000E+00 -0.15407418913E+02  0.15407419621E+02  0.46700000000E-02 0. -1.
         25    2    1    2    0    0  0.00000000000E+00  0.00000000000E+00  0.23811402663E+03  0.26892886521E+03  0.12499777943E+03 0.  0.
        -13    1    3    3    0    0 -0.40101353136E+02  0.42956188113E+02  0.73278349244E+02  0.93931252845E+02  0.10570000000E+00 0. -1.
         13    1    3    3    0    0  0.40101353136E+02 -0.42956188113E+02  0.16483567739E+03  0.17499761236E+03  0.10570000000E+00 0.  1.
<mgrwt>
<rscale>  0 0.12499778E+03</rscale>
<asrwt>0</asrwt>
<pdfrwt beam="2">  1        1 0.23703724E-02 0.12499778E+03</pdfrwt>
<pdfrwt beam="1">  1       -1 0.39003295E-01 0.12499778E+03</pdfrwt>
<totfact> 0.28057089E+04</totfact>
</mgrwt>
</event>
<event>
 5    1  0.1336420E-049  0.1249992E+03  0.7818608E-02  0.1235070E+00
          1   -1    0    0  501    0  0.00000000000E+00  0.00000000000E+00  0.13266744863E+02  0.13266745685E+02  0.46700000000E-02 0. -1.
         -1   -1    0    0    0  501 -0.00000000000E+00 -0.00000000000E+00 -0.29443561151E+03  0.29443561155E+03  0.46700000000E-02 0.  1.
         25    2    1    2    0    0  0.00000000000E+00  0.00000000000E+00 -0.28116886665E+03  0.30770235724E+03  0.12499923630E+03 0.  0.
        -13    1    3    3    0    0 -0.17471249388E+02 -0.50857614388E+02 -0.21898852021E+03  0.22549440049E+03  0.10570000000E+00 0.  1.
         13    1    3    3    0    0  0.17471249388E+02  0.50857614388E+02 -0.62180346442E+02  0.82207956747E+02  0.10570000000E+00 0. -1.
<mgrwt>
<rscale>  0 0.12499924E+03</rscale>
<asrwt>0</asrwt>
<pdfrwt beam="1">  1        1 0.20410380E-02 0.12499924E+03</pdfrwt>
<pdfrwt beam="2">  1       -1 0.45297781E-01 0.12499924E+03</pdfrwt>
<totfact> 0.26525608E+04</totfact>
</mgrwt>
</event>
<event>
 5    1  0.1336420E-049  0.1249984E+03  0.7818608E-02  0.1235072E+00
         -1   -1    0    0    0  501 -0.00000000000E+00  0.00000000000E+00  0.86432607796E+02  0.86432607922E+02  0.46700000000E-02 0.  1.
          1   -1    0    0  501    0  0.00000000000E+00 -0.00000000000E+00 -0.45192988549E+02  0.45192988790E+02  0.46700000000E-02 0. -1.
         25    2    1    2    0    0  0.00000000000E+00  0.00000000000E+00  0.41239619247E+02  0.13162559671E+03  0.12499836605E+03 0.  0.
        -13    1    3    3    0    0  0.52470234644E+02 -0.24288429132E+02  0.45607284839E+02  0.73641624888E+02  0.10570000000E+00 0.  1.
         13    1    3    3    0    0 -0.52470234644E+02  0.24288429132E+02 -0.43676655920E+01  0.57983971824E+02  0.10570000000E+00 0. -1.
<mgrwt>
<rscale>  0 0.12499837E+03</rscale>
<asrwt>0</asrwt>
<pdfrwt beam="2">  1        1 0.69527676E-02 0.12499837E+03</pdfrwt>
<pdfrwt beam="1">  1       -1 0.13297324E-01 0.12499837E+03</pdfrwt>
<totfact> 0.37109452E+04</totfact>
</mgrwt>
</event>
<event>
 5    1  0.1336420E-049  0.1250002E+03  0.7818608E-02  0.1235069E+00
         -1   -1    0    0    0  501 -0.00000000000E+00  0.00000000000E+00  0.48178705872E+02  0.48178706099E+02  0.46700000000E-02 0.  1.
          1   -1    0    0  501    0  0.00000000000E+00 -0.00000000000E+00 -0.81078589514E+02  0.81078589649E+02  0.46700000000E-02 0. -1.
         25    2    1    2    0    0  0.00000000000E+00  0.00000000000E+00 -0.32899883642E+02  0.12925729575E+03  0.12500018464E+03 0.  0.
        -13    1    3    3    0    0  0.57596506061E+02  0.23771745649E+02 -0.21494291740E+02  0.65912587201E+02  0.10570000000E+00 0.  1.
         13    1    3    3    0    0 -0.57596506061E+02 -0.23771745649E+02 -0.11405591902E+02  0.63344708546E+02  0.10570000000E+00 0. -1.
<mgrwt>
<rscale>  0 0.12500018E+03</rscale>
<asrwt>0</asrwt>
<pdfrwt beam="2">  1        1 0.12473629E-01 0.12500018E+03</pdfrwt>
<pdfrwt beam="1">  1       -1 0.74121086E-02 0.12500018E+03</pdfrwt>
<totfact> 0.41612674E+04</totfact>
</mgrwt>
</event>
<event>
 5    1  0.1336420E-049  0.1249990E+03  0.7818608E-02  0.1235071E+00
         -1   -1    0    0    0  501 -0.00000000000E+00  0.00000000000E+00  0.22262707825E+02  0.22262708314E+02  0.46700000000E-02 0.  1.
          1   -1    0    0  501    0  0.00000000000E+00 -0.00000000000E+00 -0.17545875000E+03  0.17545875006E+03  0.46700000000E-02 0. -1.
         25    2    1    2    0    0  0.00000000000E+00  0.00000000000E+00 -0.15319604218E+03  0.19772145838E+03  0.12499899105E+03 0.  0.
        -13    1    3    3    0    0  0.23572630770E+02  0.50082725325E+02 -0.30692808921E+02  0.63293032708E+02  0.10570000000E+00 0.  1.
         13    1    3    3    0    0 -0.23572630770E+02 -0.50082725325E+02 -0.12250323326E+03  0.13442842567E+03  0.10570000000E+00 0. -1.
<mgrwt>
<rscale>  0 0.12499899E+03</rscale>
<asrwt>0</asrwt>
<pdfrwt beam="2">  1        1 0.26993653E-01 0.12499899E+03</pdfrwt>
<pdfrwt beam="1">  1       -1 0.34250321E-02 0.12499899E+03</pdfrwt>
<totfact> 0.48634615E+04</totfact>
</mgrwt>
</event>
<event>
 5    1  0.1336420E-049  0.1250011E+03  0.7818608E-02  0.1235068E+00
          1   -1    0    0  501    0  0.00000000000E+00  0.00000000000E+00  0.88606187888E+02  0.88606188011E+02  0.46700000000E-02 0. -1.
         -1   -1    0    0    0  501 -0.00000000000E+00 -0.00000000000E+00 -0.44086269197E+02  0.44086269445E+02  0.46700000000E-02 0.  1.
         25    2    1    2    0    0  0.00000000000E+00  0.00000000000E+00  0.44519918691E+02  0.13269245746E+03  0.12500106042E+03 0.  0.
        -13    1    3    3    0    0 -0.29782794660E+02 -0.86744077660E+01 -0.35337689310E+02  0.47021523435E+02  0.10570000000E+00 0.  1.
         13    1    3    3    0    0  0.29782794660E+02  0.86744077660E+01  0.79857608001E+02  0.85670934021E+02  0.10570000000E+00 0. -1.
<mgrwt>
<rscale>  0 0.12500106E+03</rscale>
<asrwt>0</asrwt>
<pdfrwt beam="1">  1        1 0.13631721E-01 0.12500106E+03</pdfrwt>
<pdfrwt beam="2">  1       -1 0.67825030E-02 0.12500106E+03</pdfrwt>
<totfact> 0.42336866E+04</totfact>
</mgrwt>
</event>
<event>
 5    1  0.1336420E-049  0.1250002E+03  0.7818608E-02  0.1235069E+00
         -1   -1    0    0    0  501 -0.00000000000E+00  0.00000000000E+00  0.25987439112E+03  0.25987439117E+03  0.46700000000E-02 0.  1.
          1   -1    0    0  501    0  0.00000000000E+00 -0.00000000000E+00 -0.15031339414E+02  0.15031340139E+02  0.46700000000E-02 0. -1.
         25    2    1    2    0    0  0.00000000000E+00  0.00000000000E+00  0.24484305171E+03  0.27490573131E+03  0.12500016453E+03 0.  0.
        -13    1    3    3    0    0  0.17673068744E+02 -0.58772386199E+02  0.14841713321E+03  0.16060568901E+03  0.10570000000E+00 0.  1.
         13    1    3    3    0    0 -0.17673068744E+02  0.58772386199E+02  0.96425918498E+02  0.11430004230E+03  0.10570000000E+00 0. -1.
<mgrwt>
<rscale>  0 0.12500016E+03</rscale>
<asrwt>0</asrwt>
<pdfrwt beam="2">  1        1 0.23125139E-02 0.12500016E+03</pdfrwt>
<pdfrwt beam="1">  1       -1 0.39980675E-01 0.12500016E+03</pdfrwt>
<totfact> 0.27808775E+04</totfact>
</mgrwt>
</event>
<event>
 5    1  0.1336420E-049  0.1250000E+03  0.7818608E-02  0.1235069E+00
         -1   -1    0    0    0  501 -0.00000000000E+00  0.00000000000E+00  0.75418024404E+02  0.75418024548E+02  0.46700000000E-02 0.  1.
          1   -1    0    0  501    0  0.00000000000E+00 -0.00000000000E+00 -0.51794605997E+02  0.51794606208E+02  0.46700000000E-02 0. -1.
         25    2    1    2    0    0  0.00000000000E+00  0.00000000000E+00  0.23623418406E+02  0.12721263076E+03  0.12499995011E+03 0.  0.
        -13    1    3    3    0    0 -0.17262857945E+02  0.49763783773E+02  0.46049389433E+02  0.69964261445E+02  0.10570000000E+00 0.  1.
         13    1    3    3    0    0  0.17262857945E+02 -0.49763783773E+02 -0.22425971027E+02  0.57248369312E+02  0.10570000000E+00 0. -1.
<mgrwt>
<rscale>  0 0.12499995E+03</rscale>
<asrwt>0</asrwt>
<pdfrwt beam="2">  1        1 0.79684009E-02 0.12499995E+03</pdfrwt>
<pdfrwt beam="1">  1       -1 0.11602773E-01 0.12499995E+03</pdfrwt>
<totfact> 0.38137901E+04</totfact>
</mgrwt>
</event>
<event>
 5    1  0.1336420E-049  0.1249969E+03  0.7818608E-02  0.1235074E+00
          1   -1    0    0  501    0  0.00000000000E+00  0.00000000000E+00  0.24555629022E+03  0.24555629027E+03  0.46700000000E-02 0. -1.
         -1   -1    0    0    0  501 -0.00000000000E+00 -0.00000000000E+00 -0.15906970199E+02  0.15906970884E+02  0.46700000000E-02 0.  1.
         25    2    1    2    0    0  0.00000000000E+00  0.00000000000E+00  0.22964932003E+03  0.26146326115E+03  0.12499690694E+03 0.  0.
        -13    1    3    3    0    0 -0.51738843657E+02  0.30228995945E+02  0.77679294174E+02  0.98105983786E+02  0.10570000000E+00 0.  1.
         13    1    3    3    0    0  0.51738843657E+02 -0.30228995945E+02  0.15197002585E+03  0.16335727737E+03  0.10570000000E+00 0. -1.
<mgrwt>
<rscale>  0 0.12499691E+03</rscale>
<asrwt>0</asrwt>
<pdfrwt beam="1">  1        1 0.37777892E-01 0.12499691E+03</pdfrwt>
<pdfrwt beam="2">  1       -1 0.24472262E-02 0.12499691E+03</pdfrwt>
<totfact> 0.52247896E+04</totfact>
</mgrwt>
</event>
<event>
 5    1  0.1389239E-049  0.1249999E+03  0.7818608E-02  0.1235069E+00
         -1   -1    0    0    0  501 -0.00000000000E+00  0.00000000000E+00  0.29511906455E+02  0.29511906825E+02  0.46700000000E-02 0.  1.
          1   -1    0    0  501    0  0.00000000000E+00 -0.00000000000E+00 -0.13236169514E+03  0.13236169522E+03  0.46700000000E-02 0. -1.
         25    2    1    2    0    0  0.00000000000E+00  0.00000000000E+00 -0.10284978868E+03  0.16187360204E+03  0.12499993603E+03 0.  0.
        -13    1    3    3    0    0 -0.59980381578E+02 -0.16101174821E+01 -0.28771971792E+02  0.66543791490E+02  0.10570000000E+00 0.  1.
         13    1    3    3    0    0  0.59980381578E+02  0.16101174821E+01 -0.74077816888E+02  0.95329810552E+02  0.10570000000E+00 0. -1.
<mgrwt>
<rscale>  0 0.12499994E+03</rscale>
<asrwt>0</asrwt>
<pdfrwt beam="2">  1        1 0.20363337E-01 0.12499994E+03</pdfrwt>
<pdfrwt beam="1">  1       -1 0.45402934E-02 0.12499994E+03</pdfrwt>
<totfact> 0.45864389E+04</totfact>
</mgrwt>
</event>
<event>
 5    1  0.1336420E-049  0.1249968E+03  0.7818608E-02  0.1235074E+00
          1   -1    0    0  501    0  0.00000000000E+00  0.00000000000E+00  0.11721185873E+02  0.11721186803E+02  0.46700000000E-02 0. -1.
         -1   -1    0    0    0  501 -0.00000000000E+00 -0.00000000000E+00 -0.33324697465E+03  0.33324697469E+03  0.46700000000E-02 0.  1.
         25    2    1    2    0    0  0.00000000000E+00  0.00000000000E+00 -0.32152578878E+03  0.34496816149E+03  0.12499679832E+03 0.  0.
        -13    1    3    3    0    0  0.24101451609E+02  0.44843174124E+02 -0.26081330339E+03  0.26573554643E+03  0.10570000000E+00 0.  1.
         13    1    3    3    0    0 -0.24101451609E+02 -0.44843174124E+02 -0.60712485387E+02  0.79232615062E+02  0.10570000000E+00 0. -1.
<mgrwt>
<rscale>  0 0.12499680E+03</rscale>
<asrwt>0</asrwt>
<pdfrwt beam="1">  1        1 0.18032597E-02 0.12499680E+03</pdfrwt>
<pdfrwt beam="2">  1       -1 0.51268758E-01 0.12499680E+03</pdfrwt>
<totfact> 0.25191898E+04</totfact>
</mgrwt>
</event>
<event>
 5    1  0.1336420E-049  0.1250075E+03  0.7818608E-02  0.1235058E+00
         -1   -1    0    0    0  501 -0.00000000000E+00  0.00000000000E+00  0.36046967399E+02  0.36046967701E+02  0.46700000000E-02 0.  1.
          1   -1    0    0  501    0  0.00000000000E+00 -0.00000000000E+00 -0.10837859020E+03  0.10837859030E+03  0.46700000000E-02 0. -1.
         25    2    1    2    0    0  0.00000000000E+00  0.00000000000E+00 -0.72331622805E+02  0.14442555801E+03  0.12500751237E+03 0.  0.
        -13    1    3    3    0    0 -0.38466196653E+02 -0.49046772330E+02 -0.41519664779E+02  0.74894111229E+02  0.10570000000E+00 0.  1.
         13    1    3    3    0    0  0.38466196653E+02  0.49046772330E+02 -0.30811958026E+02  0.69531446777E+02  0.10570000000E+00 0. -1.
<mgrwt>
<rscale>  0 0.12500751E+03</rscale>
<asrwt>0</asrwt>
<pdfrwt beam="2">  1        1 0.16673629E-01 0.12500751E+03</pdfrwt>
<pdfrwt beam="1">  1       -1 0.55456873E-02 0.12500751E+03</pdfrwt>
<totfact> 0.44043784E+04</totfact>
</mgrwt>
</event>
<event>
 5    1  0.1336420E-049  0.1250004E+03  0.7818608E-02  0.1235069E+00
          1   -1    0    0  501    0  0.00000000000E+00  0.00000000000E+00  0.27997274831E+03  0.27997274835E+03  0.46700000000E-02 0. -1.
         -1   -1    0    0    0  501 -0.00000000000E+00 -0.00000000000E+00 -0.13952331358E+02  0.13952332140E+02  0.46700000000E-02 0.  1.
         25    2    1    2    0    0  0.00000000000E+00  0.00000000000E+00  0.26602041695E+03  0.29392508049E+03  0.12500036282E+03 0.  0.
        -13    1    3    3    0    0 -0.37626684453E+02  0.41903869558E+02  0.19673948111E+03  0.20464148227E+03  0.10570000000E+00 0. -1.
         13    1    3    3    0    0  0.37626684453E+02 -0.41903869558E+02  0.69280935840E+02  0.89283598215E+02  0.10570000000E+00 0.  1.
<mgrwt>
<rscale>  0 0.12500036E+03</rscale>
<asrwt>0</asrwt>
<pdfrwt beam="1">  1        1 0.43072722E-01 0.12500036E+03</pdfrwt>
<pdfrwt beam="2">  1       -1 0.21465130E-02 0.12500036E+03</pdfrwt>
<totfact> 0.53710252E+04</totfact>
</mgrwt>
</event>
<event>
 5    1  0.1336420E-049  0.1249977E+03  0.7818608E-02  0.1235073E+00
         -1   -1    0    0    0  501 -0.00000000000E+00  0.00000000000E+00  0.15600601753E+02  0.15600602452E+02  0.46700000000E-02 0.  1.
          1   -1    0    0  501    0  0.00000000000E+00 -0.00000000000E+00 -0.25038185541E+03  0.25038185545E+03  0.46700000000E-02 0. -1.
         25    2    1    2    0    0  0.00000000000E+00  0.00000000000E+00 -0.23478125366E+03  0.26598245791E+03  0.12499772336E+03 0.  0.
        -13    1    3    3    0    0  0.59252980262E+02 -0.14775609292E+02 -0.89091798729E+02  0.10801200893E+03  0.10570000000E+00 0.  1.
         13    1    3    3    0    0 -0.59252980262E+02  0.14775609292E+02 -0.14568945493E+03  0.15797044898E+03  0.10570000000E+00 0. -1.
<mgrwt>
<rscale>  0 0.12499772E+03</rscale>
<asrwt>0</asrwt>
<pdfrwt beam="2">  1        1 0.38520283E-01 0.12499772E+03</pdfrwt>
<pdfrwt beam="1">  1       -1 0.24000928E-02 0.12499772E+03</pdfrwt>
<totfact> 0.52462594E+04</totfact>
</mgrwt>
</event>
<event>
 5    1  0.1336420E-049  0.1249989E+03  0.7818608E-02  0.1235071E+00
          1   -1    0    0  501    0  0.00000000000E+00  0.00000000000E+00  0.78078288726E+02  0.78078288865E+02  0.46700000000E-02 0. -1.
         -1   -1    0    0    0  501 -0.00000000000E+00 -0.00000000000E+00 -0.50029020431E+02  0.50029020649E+02  0.46700000000E-02 0.  1.
         25    2    1    2    0    0  0.00000000000E+00  0.00000000000E+00  0.28049268294E+02  0.12810730951E+03  0.12499888519E+03 0.  0.
        -13    1    3    3    0    0 -0.35807590066E+02 -0.32692487511E+02 -0.26391899773E+02  0.55204400115E+02  0.10570000000E+00 0.  1.
         13    1    3    3    0    0  0.35807590066E+02  0.32692487511E+02  0.54441168067E+02  0.72902909400E+02  0.10570000000E+00 0. -1.
<mgrwt>
<rscale>  0 0.12499889E+03</rscale>
<asrwt>0</asrwt>
<pdfrwt beam="1">  1        1 0.12012045E-01 0.12499889E+03</pdfrwt>
<pdfrwt beam="2">  1       -1 0.76967724E-02 0.12499889E+03</pdfrwt>
<totfact> 0.41311012E+04</totfact>
</mgrwt>
</event>
<event>
 5    1  0.1336420E-049  0.1250009E+03  0.7818608E-02  0.1235068E+00
          1   -1    0    0  501    0  0.00000000000E+00  0.00000000000E+00  0.27156711324E+02  0.27156711726E+02  0.46700000000E-02 0. -1.
         -1   -1    0    0    0  501 -0.00000000000E+00 -0.00000000000E+00 -0.14384319206E+03  0.14384319213E+03  0.46700000000E-02 0.  1.
         25    2    1    2    0    0  0.00000000000E+00  0.00000000000E+00 -0.11668648073E+03  0.17099990386E+03  0.12500092933E+03 0.  0.
        -13    1    3    3    0    0 -0.97042443436E+01  0.61494034933E+02 -0.65911598323E+02  0.90664428839E+02  0.10570000000E+00 0. -1.
         13    1    3    3    0    0  0.97042443436E+01 -0.61494034933E+02 -0.50774882411E+02  0.80335475022E+02  0.10570000000E+00 0.  1.
<mgrwt>
<rscale>  0 0.12500093E+03</rscale>
<asrwt>0</asrwt>
<pdfrwt beam="1">  1        1 0.41779557E-02 0.12500093E+03</pdfrwt>
<pdfrwt beam="2">  1       -1 0.22129721E-01 0.12500093E+03</pdfrwt>
<totfact> 0.33139465E+04</totfact>
</mgrwt>
</event>
<event>
 5    1  0.1336420E-049  0.1250142E+03  0.7818608E-02  0.1235047E+00
          1   -1    0    0  501    0  0.00000000000E+00  0.00000000000E+00  0.74485893202E+02  0.74485893348E+02  0.46700000000E-02 0. -1.
         -1   -1    0    0    0  501 -0.00000000000E+00 -0.00000000000E+00 -0.52454717237E+02  0.52454717445E+02  0.46700000000E-02 0.  1.
         25    2    1    2    0    0  0.00000000000E+00  0.00000000000E+00  0.22031175964E+02  0.12694061079E+03  0.12501418301E+03 0.  0.
        -13    1    3    3    0    0 -0.25205245569E+02  0.34389959000E+02 -0.35395983937E+02  0.55415345669E+02  0.10570000000E+00 0.  1.
         13    1    3    3    0    0  0.25205245569E+02 -0.34389959000E+02  0.57427159902E+02  0.71525265124E+02  0.10570000000E+00 0. -1.
<mgrwt>
<rscale>  0 0.12501418E+03</rscale>
<asrwt>0</asrwt>
<pdfrwt beam="1">  1        1 0.11459368E-01 0.12501418E+03</pdfrwt>
<pdfrwt beam="2">  1       -1 0.80699565E-02 0.12501418E+03</pdfrwt>
<totfact> 0.40921804E+04</totfact>
</mgrwt>
</event>
<event>
 5    1  0.1336420E-049  0.1250026E+03  0.7818608E-02  0.1235065E+00
          1   -1    0    0  501    0  0.00000000000E+00  0.00000000000E+00  0.12168506597E+02  0.12168507493E+02  0.46700000000E-02 0. -1.
         -1   -1    0    0    0  501 -0.00000000000E+00 -0.00000000000E+00 -0.32102650998E+03  0.32102651001E+03  0.46700000000E-02 0.  1.
         25    2    1    2    0    0  0.00000000000E+00  0.00000000000E+00 -0.30885800338E+03  0.33319501751E+03  0.12500261372E+03 0.  0.
        -13    1    3    3    0    0  0.46871457524E+02 -0.25129649128E+02 -0.66913977093E+02  0.85474699757E+02  0.10570000000E+00 0. -1.
         13    1    3    3    0    0 -0.46871457524E+02  0.25129649128E+02 -0.24194402629E+03  0.24772031775E+03  0.10570000000E+00 0.  1.
<mgrwt>
<rscale>  0 0.12500261E+03</rscale>
<asrwt>0</asrwt>
<pdfrwt beam="1">  1        1 0.18720782E-02 0.12500261E+03</pdfrwt>
<pdfrwt beam="2">  1       -1 0.49388688E-01 0.12500261E+03</pdfrwt>
<totfact> 0.25598115E+04</totfact>
</mgrwt>
</event>
<event>
 5    1  0.1336420E-049  0.1249997E+03  0.7818608E-02  0.1235070E+00
          1   -1    0    0  501    0  0.00000000000E+00  0.00000000000E+00  0.39287470710E+03  0.39287470713E+03  0.46700000000E-02 0. -1.
         -1   -1    0    0    0  501 -0.00000000000E+00 -0.00000000000E+00 -0.99426921188E+01  0.99426932156E+01  0.46700000000E-02 0.  1.
         25    2    1    2    0    0  0.00000000000E+00  0.00000000000E+00  0.38293201498E+03  0.40281740034E+03  0.12499971969E+03 0.  0.
        -13    1    3    3    0    0  0.60788850758E+01  0.60428118073E+02  0.23901478766E+03  0.24661019888E+03  0.10570000000E+00 0. -1.
         13    1    3    3    0    0 -0.60788850758E+01 -0.60428118073E+02  0.14391722732E+03  0.15620720147E+03  0.10570000000E+00 0.  1.
<mgrwt>
<rscale>  0 0.12499972E+03</rscale>
<asrwt>0</asrwt>
<pdfrwt beam="1">  1        1 0.60442272E-01 0.12499972E+03</pdfrwt>
<pdfrwt beam="2">  1       -1 0.15296448E-02 0.12499972E+03</pdfrwt>
<totfact> 0.57390399E+04</totfact>
</mgrwt>
</event>
<event>
 5    1  0.1336420E-049  0.1249988E+03  0.7818608E-02  0.1235071E+00
          1   -1    0    0  501    0  0.00000000000E+00  0.00000000000E+00  0.20701282359E+03  0.20701282364E+03  0.46700000000E-02 0. -1.
         -1   -1    0    0    0  501 -0.00000000000E+00 -0.00000000000E+00 -0.18869234148E+02  0.18869234726E+02  0.46700000000E-02 0.  1.
         25    2    1    2    0    0  0.00000000000E+00  0.00000000000E+00  0.18814358944E+03  0.22588205837E+03  0.12499877617E+03 0.  0.
        -13    1    3    3    0    0 -0.33365518473E+02  0.52777958265E+02  0.98984789413E+02  0.11703320217E+03  0.10570000000E+00 0.  1.
         13    1    3    3    0    0  0.33365518473E+02 -0.52777958265E+02  0.89158800028E+02  0.10884885620E+03  0.10570000000E+00 0. -1.
<mgrwt>
<rscale>  0 0.12499878E+03</rscale>
<asrwt>0</asrwt>
<pdfrwt beam="1">  1        1 0.31848127E-01 0.12499878E+03</pdfrwt>
<pdfrwt beam="2">  1       -1 0.29029591E-02 0.12499878E+03</pdfrwt>
<totfact> 0.50379523E+04</totfact>
</mgrwt>
</event>
<event>
 5    1  0.1336420E-049  0.1249902E+03  0.7818608E-02  0.1235085E+00
          1   -1    0    0  501    0  0.00000000000E+00  0.00000000000E+00  0.10478437298E+03  0.10478437308E+03  0.46700000000E-02 0. -1.
         -1   -1    0    0    0  501 -0.00000000000E+00 -0.00000000000E+00 -0.37273105762E+02  0.37273106055E+02  0.46700000000E-02 0.  1.
         25    2    1    2    0    0  0.00000000000E+00  0.00000000000E+00  0.67511267214E+02  0.14205747914E+03  0.12499022433E+03 0.  0.
        -13    1    3    3    0    0  0.45944766850E+02  0.32629221250E+02  0.30469329257E+01  0.56434764579E+02  0.10570000000E+00 0.  1.
         13    1    3    3    0    0 -0.45944766850E+02 -0.32629221250E+02  0.64464334289E+02  0.85622714557E+02  0.10570000000E+00 0. -1.
<mgrwt>
<rscale>  0 0.12499022E+03</rscale>
<asrwt>0</asrwt>
<pdfrwt beam="1">  1        1 0.16120673E-01 0.12499022E+03</pdfrwt>
<pdfrwt beam="2">  1       -1 0.57343240E-02 0.12499022E+03</pdfrwt>
<totfact> 0.43767002E+04</totfact>
</mgrwt>
</event>
<event>
 5    1  0.1349895E-049  0.1250008E+03  0.7818608E-02  0.1235068E+00
         -1   -1    0    0    0  501 -0.00000000000E+00  0.00000000000E+00  0.52395492084E+02  0.52395492292E+02  0.46700000000E-02 0.  1.
          1   -1    0    0  501    0  0.00000000000E+00 -0.00000000000E+00 -0.74554077832E+02  0.74554077978E+02  0.46700000000E-02 0. -1.
         25    2    1    2    0    0  0.00000000000E+00  0.00000000000E+00 -0.22158585748E+02  0.12694957027E+03  0.12500076187E+03 0.  0.
        -13    1    3    3    0    0 -0.48551298082E+02 -0.37414238246E+02  0.13272430727E+01  0.61309269411E+02  0.10570000000E+00 0.  1.
         13    1    3    3    0    0  0.48551298082E+02  0.37414238246E+02 -0.23485828821E+02  0.65640300859E+02  0.10570000000E+00 0. -1.
<mgrwt>
<rscale>  0 0.12500076E+03</rscale>
<asrwt>0</asrwt>
<pdfrwt beam="2">  1        1 0.11469858E-01 0.12500076E+03</pdfrwt>
<pdfrwt beam="1">  1       -1 0.80608450E-02 0.12500076E+03</pdfrwt>
<totfact> 0.40941741E+04</totfact>
</mgrwt>
</event>
<event>
 5    1  0.1336420E-049  0.1250039E+03  0.7818608E-02  0.1235063E+00
          1   -1    0    0  501    0  0.00000000000E+00  0.00000000000E+00  0.25781150686E+03  0.25781150690E+03  0.46700000000E-02 0. -1.
         -1   -1    0    0    0  501 -0.00000000000E+00 -0.00000000000E+00 -0.15152509038E+02  0.15152509758E+02  0.46700000000E-02 0.  1.
         25    2    1    2    0    0  0.00000000000E+00  0.00000000000E+00  0.24265899782E+03  0.27296401666E+03  0.12500386061E+03 0.  0.
        -13    1    3    3    0    0  0.43289393517E+02 -0.44802232675E+02  0.11035280648E+03  0.12672397056E+03  0.10570000000E+00 0.  1.
         13    1    3    3    0    0 -0.43289393517E+02  0.44802232675E+02  0.13230619134E+03  0.14624004610E+03  0.10570000000E+00 0. -1.
<mgrwt>
<rscale>  0 0.12500386E+03</rscale>
<asrwt>0</asrwt>
<pdfrwt beam="1">  1        1 0.39663306E-01 0.12500386E+03</pdfrwt>
<pdfrwt beam="2">  1       -1 0.23311555E-02 0.12500386E+03</pdfrwt>
<totfact> 0.52780653E+04</totfact>
</mgrwt>
</event>
<event>
 5    1  0.1336420E-049  0.1250036E+03  0.7818608E-02  0.1235064E+00
         -1   -1    0    0    0  501 -0.00000000000E+00  0.00000000000E+00  0.79752498189E+02  0.79752498326E+02  0.46700000000E-02 0.  1.
          1   -1    0    0  501    0  0.00000000000E+00 -0.00000000000E+00 -0.48982468524E+02  0.48982468747E+02  0.46700000000E-02 0. -1.
         25    2    1    2    0    0  0.00000000000E+00  0.00000000000E+00  0.30770029665E+02  0.12873496707E+03  0.12500358804E+03 0.  0.
        -13    1    3    3    0    0  0.58174387331E+02  0.15041396209E+02  0.33102034228E+02  0.68602177689E+02  0.10570000000E+00 0.  1.
         13    1    3    3    0    0 -0.58174387331E+02 -0.15041396209E+02 -0.23320045627E+01  0.60132789383E+02  0.10570000000E+00 0. -1.
<mgrwt>
<rscale>  0 0.12500359E+03</rscale>
<asrwt>0</asrwt>
<pdfrwt beam="2">  1        1 0.75357645E-02 0.12500359E+03</pdfrwt>
<pdfrwt beam="1">  1       -1 0.12269615E-01 0.12500359E+03</pdfrwt>
<totfact> 0.37712980E+04</totfact>
</mgrwt>
</event>
<event>
 5    1  0.1336420E-049  0.1250015E+03  0.7818608E-02  0.1235067E+00
         -1   -1    0    0    0  501 -0.00000000000E+00  0.00000000000E+00  0.37967750281E+02  0.37967750568E+02  0.46700000000E-02 0.  1.
          1   -1    0    0  501    0  0.00000000000E+00 -0.00000000000E+00 -0.10288576824E+03  0.10288576835E+03  0.46700000000E-02 0. -1.
         25    2    1    2    0    0  0.00000000000E+00  0.00000000000E+00 -0.64918017959E+02  0.14085351891E+03  0.12500145893E+03 0.  0.
        -13    1    3    3    0    0  0.58328993784E+02 -0.21423612192E+02 -0.24892772563E+02  0.66939554627E+02  0.10570000000E+00 0.  1.
         13    1    3    3    0    0 -0.58328993784E+02  0.21423612192E+02 -0.40025245396E+02  0.73913964288E+02  0.10570000000E+00 0. -1.
<mgrwt>
<rscale>  0 0.12500146E+03</rscale>
<asrwt>0</asrwt>
<pdfrwt beam="2">  1        1 0.15828580E-01 0.12500146E+03</pdfrwt>
<pdfrwt beam="1">  1       -1 0.58411924E-02 0.12500146E+03</pdfrwt>
<totfact> 0.43597696E+04</totfact>
</mgrwt>
</event>
<event>
 4    1  0.1336420E-049  0.1251774E+03  0.7818608E-02  0.1234792E+00
         -1   -1    0    0    0  501 -0.00000000000E+00  0.00000000000E+00  0.31724684668E+02  0.31724685011E+02  0.46700000000E-02 0.  1.
          1   -1    0    0  501    0  0.00000000000E+00 -0.00000000000E+00 -0.12347935635E+03  0.12347935644E+03  0.46700000000E-02 0. -1.
        -13    1    1    2    0    0  0.30231462968E+01  0.60818059723E+02 -0.27937410670E+02  0.66996163244E+02  0.10570000000E+00 0.  1.
         13    1    1    2    0    0 -0.30231462968E+01 -0.60818059723E+02 -0.63817261012E+02  0.88207878206E+02  0.10570000000E+00 0. -1.
<mgrwt>
<rscale>  0 0.12517737E+03</rscale>
<asrwt>0</asrwt>
<pdfrwt beam="2">  1        1 0.18996824E-01 0.12517737E+03</pdfrwt>
<pdfrwt beam="1">  1       -1 0.48807208E-02 0.12517737E+03</pdfrwt>
<totfact> 0.45038732E+04</totfact>
</mgrwt>
</event>
<event>
 5    1  0.1336420E-049  0.1250000E+03  0.7818608E-02  0.1235069E+00
         -1   -1    0    0    0  501 -0.00000000000E+00  0.00000000000E+00  0.20550765228E+03  0.20550765233E+03  0.46700000000E-02 0.  1.
          1   -1    0    0  501    0  0.00000000000E+00 -0.00000000000E+00 -0.19007822292E+02  0.19007822866E+02  0.46700000000E-02 0. -1.
         25    2    1    2    0    0  0.00000000000E+00  0.00000000000E+00  0.18649982999E+03  0.22451547520E+03  0.12500004807E+03 0.  0.
        -13    1    3    3    0    0  0.59014023854E+02  0.88167798110E+01  0.59847278026E+02  0.84510937028E+02  0.10570000000E+00 0.  1.
         13    1    3    3    0    0 -0.59014023854E+02 -0.88167798110E+01  0.12665255196E+03  0.14000453817E+03  0.10570000000E+00 0. -1.
<mgrwt>
<rscale>  0 0.12500005E+03</rscale>
<asrwt>0</asrwt>
<pdfrwt beam="2">  1        1 0.29242805E-02 0.12500005E+03</pdfrwt>
<pdfrwt beam="1">  1       -1 0.31616561E-01 0.12500005E+03</pdfrwt>
<totfact> 0.30057326E+04</totfact>
</mgrwt>
</event>
<event>
 5    1  0.1336420E-049  0.1249873E+03  0.7818608E-02  0.1235089E+00
          1   -1    0    0  501    0  0.00000000000E+00  0.00000000000E+00  0.76953349994E+02  0.76953350136E+02  0.46700000000E-02 0. -1.
         -1   -1    0    0    0  501 -0.00000000000E+00 -0.00000000000E+00 -0.50750984088E+02  0.50750984303E+02  0.46700000000E-02 0.  1.
         25    2    1    2    0    0  0.00000000000E+00  0.00000000000E+00  0.26202365906E+02  0.12770433444E+03  0.12498733158E+03 0.  0.
        -13    1    3    3    0    0  0.61615178597E+02  0.10179558024E+02  0.15474049001E+02  0.64339031700E+02  0.10570000000E+00 0.  1.
         13    1    3    3    0    0 -0.61615178597E+02 -0.10179558024E+02  0.10728316905E+02  0.63365302739E+02  0.10570000000E+00 0. -1.
<mgrwt>
<rscale>  0 0.12498733E+03</rscale>
<asrwt>0</asrwt>
<pdfrwt beam="1">  1        1 0.11838977E-01 0.12498733E+03</pdfrwt>
<pdfrwt beam="2">  1       -1 0.78078438E-02 0.12498733E+03</pdfrwt>
<totfact> 0.41206118E+04</totfact>
</mgrwt>
</event>
<event>
 5    1  0.1336420E-049  0.1249998E+03  0.7818608E-02  0.1235070E+00
         -1   -1    0    0    0  501 -0.00000000000E+00  0.00000000000E+00  0.19384626147E+02  0.19384626709E+02  0.46700000000E-02 0.  1.
          1   -1    0    0  501    0  0.00000000000E+00 -0.00000000000E+00 -0.20151205171E+03  0.20151205177E+03  0.46700000000E-02 0. -1.
         25    2    1    2    0    0  0.00000000000E+00  0.00000000000E+00 -0.18212742557E+03  0.22089667848E+03  0.12499977367E+03 0.  0.
        -13    1    3    3    0    0 -0.35165604861E+02  0.37368051722E+00  0.24076928895E+00  0.35168573254E+02  0.10570000000E+00 0.  1.
         13    1    3    3    0    0  0.35165604861E+02 -0.37368051722E+00 -0.18236819486E+03  0.18572810522E+03  0.10570000000E+00 0. -1.
<mgrwt>
<rscale>  0 0.12499977E+03</rscale>
<asrwt>0</asrwt>
<pdfrwt beam="2">  1        1 0.31001853E-01 0.12499977E+03</pdfrwt>
<pdfrwt beam="1">  1       -1 0.29822504E-02 0.12499977E+03</pdfrwt>
<totfact> 0.50089275E+04</totfact>
</mgrwt>
</event>
<event>
 5    1  0.1336420E-049  0.1250003E+03  0.7818608E-02  0.1235069E+00
         -1   -1    0    0    0  501 -0.00000000000E+00  0.00000000000E+00  0.62188171242E+02  0.62188171417E+02  0.46700000000E-02 0.  1.
          1   -1    0    0  501    0  0.00000000000E+00 -0.00000000000E+00 -0.62813705958E+02  0.62813706131E+02  0.46700000000E-02 0. -1.
         25    2    1    2    0    0  0.00000000000E+00  0.00000000000E+00 -0.62553471636E+00  0.12500187755E+03  0.12500031239E+03 0.  0.
        -13    1    3    3    0    0  0.60971459683E+00 -0.61316907331E+02  0.11775538337E+02  0.62440446444E+02  0.10570000000E+00 0.  1.
         13    1    3    3    0    0 -0.60971459683E+00  0.61316907331E+02 -0.12401073054E+02  0.62561431105E+02  0.10570000000E+00 0. -1.
<mgrwt>
<rscale>  0 0.12500031E+03</rscale>
<asrwt>0</asrwt>
<pdfrwt beam="2">  1        1 0.96636471E-02 0.12500031E+03</pdfrwt>
<pdfrwt beam="1">  1       -1 0.95674110E-02 0.12500031E+03</pdfrwt>
<totfact> 0.39606442E+04</totfact>
</mgrwt>
</event>
<event>
 5    1  0.1336420E-049  0.1250066E+03  0.7818608E-02  0.1235059E+00
          1   -1    0    0  501    0  0.00000000000E+00  0.00000000000E+00  0.73671943049E+01  0.73671957850E+01  0.46700000000E-02 0. -1.
         -1   -1    0    0    0  501 -0.00000000000E+00 -0.00000000000E+00 -0.53027802598E+03  0.53027802600E+03  0.46700000000E-02 0.  1.
         25    2    1    2    0    0  0.00000000000E+00  0.00000000000E+00 -0.52291083168E+03  0.53764522179E+03  0.12500658633E+03 0.  0.
        -13    1    3    3    0    0  0.20035160426E+02 -0.59201639566E+02 -0.26420499978E+03  0.27149684135E+03  0.10570000000E+00 0. -1.
         13    1    3    3    0    0 -0.20035160426E+02  0.59201639566E+02 -0.25870583190E+03  0.26614838044E+03  0.10570000000E+00 0.  1.
<mgrwt>
<rscale>  0 0.12500659E+03</rscale>
<asrwt>0</asrwt>
<pdfrwt beam="1">  1        1 0.11334150E-02 0.12500659E+03</pdfrwt>
<pdfrwt beam="2">  1       -1 0.81581205E-01 0.12500659E+03</pdfrwt>
<totfact> 0.19612199E+04</totfact>
</mgrwt>
</event>
<event>
 5    1  0.1336420E-049  0.1250370E+03  0.7818608E-02  0.1235011E+00
          1   -1    0    0  501    0  0.00000000000E+00  0.00000000000E+00  0.11161416788E+03  0.11161416797E+03  0.46700000000E-02 0. -1.
         -1   -1    0    0    0  501 -0.00000000000E+00 -0.00000000000E+00 -0.35018536722E+02  0.35018537034E+02  0.46700000000E-02 0.  1.
         25    2    1    2    0    0  0.00000000000E+00  0.00000000000E+00  0.76595631154E+02  0.14663270501E+03  0.12503703238E+03 0.  0.
        -13    1    3    3    0    0 -0.35227452067E+02  0.32442806798E+02 -0.88307746710E+01  0.48698078462E+02  0.10570000000E+00 0.  1.
         13    1    3    3    0    0  0.35227452067E+02 -0.32442806798E+02  0.85426405825E+02  0.97934626546E+02  0.10570000000E+00 0. -1.
<mgrwt>
<rscale>  0 0.12503703E+03</rscale>
<asrwt>0</asrwt>
<pdfrwt beam="1">  1        1 0.17171411E-01 0.12503703E+03</pdfrwt>
<pdfrwt beam="2">  1       -1 0.53874672E-02 0.12503703E+03</pdfrwt>
<totfact> 0.44273143E+04</totfact>
</mgrwt>
</event>
<event>
 5    1  0.1336420E-049  0.1249995E+03  0.7818608E-02  0.1235070E+00
          1   -1    0    0  501    0  0.00000000000E+00  0.00000000000E+00  0.18459527403E+02  0.18459527993E+02  0.46700000000E-02 0. -1.
         -1   -1    0    0    0  501 -0.00000000000E+00 -0.00000000000E+00 -0.21160986916E+03  0.21160986922E+03  0.46700000000E-02 0.  1.
         25    2    1    2    0    0  0.00000000000E+00  0.00000000000E+00 -0.19315034176E+03  0.23006939721E+03  0.12499949204E+03 0.  0.
        -13    1    3    3    0    0 -0.45709223538E+02 -0.32265340780E+02 -0.45308917314E+02  0.71995100478E+02  0.10570000000E+00 0. -1.
         13    1    3    3    0    0  0.45709223538E+02  0.32265340780E+02 -0.14784142445E+03  0.15807429673E+03  0.10570000000E+00 0.  1.
<mgrwt>
<rscale>  0 0.12499949E+03</rscale>
<asrwt>0</asrwt>
<pdfrwt beam="1">  1        1 0.28399275E-02 0.12499949E+03</pdfrwt>
<pdfrwt beam="2">  1       -1 0.32555363E-01 0.12499949E+03</pdfrwt>
<totfact> 0.29787857E+04</totfact>
</mgrwt>
</event>
<event>
 5    1  0.1336420E-049  0.1249999E+03  0.7818608E-02  0.1235069E+00
         -1   -1    0    0    0  501 -0.00000000000E+00  0.00000000000E+00  0.11158695841E+02  0.11158696818E+02  0.46700000000E-02 0.  1.
          1   -1    0    0  501    0  0.00000000000E+00 -0.00000000000E+00 -0.35006256607E+03  0.35006256610E+03  0.46700000000E-02 0. -1.
         25    2    1    2    0    0  0.00000000000E+00  0.00000000000E+00 -0.33890387023E+03  0.36122126292E+03  0.12499987011E+03 0.  0.
        -13    1    3    3    0    0  0.58440804031E+02  0.87201707604E+01 -0.11059258732E+03  0.12538780043E+03  0.10570000000E+00 0.  1.
         13    1    3    3    0    0 -0.58440804031E+02 -0.87201707604E+01 -0.22831128291E+03  0.23583346249E+03  0.10570000000E+00 0. -1.
<mgrwt>
<rscale>  0 0.12499987E+03</rscale>
<asrwt>0</asrwt>
<pdfrwt beam="2">  1        1 0.53855771E-01 0.12499987E+03</pdfrwt>
<pdfrwt beam="1">  1       -1 0.17167228E-02 0.12499987E+03</pdfrwt>
<totfact> 0.56180371E+04</totfact>
</mgrwt>
</event>
<event>
 5    1  0.1336420E-049  0.1250027E+03  0.7818608E-02  0.1235065E+00
         -1   -1    0    0    0  501 -0.00000000000E+00  0.00000000000E+00  0.32491217355E+02  0.32491217691E+02  0.46700000000E-02 0.  1.
          1   -1    0    0  501    0  0.00000000000E+00 -0.00000000000E+00 -0.12022989934E+03  0.12022989944E+03  0.46700000000E-02 0. -1.
         25    2    1    2    0    0  0.00000000000E+00  0.00000000000E+00 -0.87738681989E+02  0.15272111713E+03  0.12500265317E+03 0.  0.
        -13    1    3    3    0    0  0.58912230895E+02  0.11709855229E+02 -0.22756398966E+02  0.64231118042E+02  0.10570000000E+00 0.  1.
         13    1    3    3    0    0 -0.58912230895E+02 -0.11709855229E+02 -0.64982283023E+02  0.88489999084E+02  0.10570000000E+00 0. -1.
<mgrwt>
<rscale>  0 0.12500265E+03</rscale>
<asrwt>0</asrwt>
<pdfrwt beam="2">  1        1 0.18496907E-01 0.12500265E+03</pdfrwt>
<pdfrwt beam="1">  1       -1 0.49986489E-02 0.12500265E+03</pdfrwt>
<totfact> 0.44973663E+04</totfact>
</mgrwt>
</event>
<event>
 5    1  0.1336420E-049  0.1249987E+03  0.7818608E-02  0.1235071E+00
         -1   -1    0    0    0  501 -0.00000000000E+00  0.00000000000E+00  0.12637237822E+02  0.12637238685E+02  0.46700000000E-02 0.  1.
          1   -1    0    0  501    0  0.00000000000E+00 -0.00000000000E+00 -0.30909992210E+03  0.30909992214E+03  0.46700000000E-02 0. -1.
         25    2    1    2    0    0  0.00000000000E+00  0.00000000000E+00 -0.29646268428E+03  0.32173716082E+03  0.12499870993E+03 0.  0.
        -13    1    3    3    0    0 -0.41253317190E+02  0.45315034733E+02 -0.11661609141E+03  0.13173690637E+03  0.10570000000E+00 0.  1.
         13    1    3    3    0    0  0.41253317190E+02 -0.45315034733E+02 -0.17984659287E+03  0.19000025445E+03  0.10570000000E+00 0. -1.
<mgrwt>
<rscale>  0 0.12499871E+03</rscale>
<asrwt>0</asrwt>
<pdfrwt beam="2">  1        1 0.47553829E-01 0.12499871E+03</pdfrwt>
<pdfrwt beam="1">  1       -1 0.19441907E-02 0.12499871E+03</pdfrwt>
<totfact> 0.54819225E+04</totfact>
</mgrwt>
</event>
<event>
 5    1  0.1336420E-049  0.1250088E+03  0.7818608E-02  0.1235055E+00
          1   -1    0    0  501    0  0.00000000000E+00  0.00000000000E+00  0.44017531018E+02  0.44017531266E+02  0.46700000000E-02 0. -1.
         -1   -1    0    0    0  501 -0.00000000000E+00 -0.00000000000E+00 -0.88755575404E+02  0.88755575527E+02  0.46700000000E-02 0.  1.
         25    2    1    2    0    0  0.00000000000E+00  0.00000000000E+00 -0.44738044386E+02  0.13277310679E+03  0.12500882078E+03 0.  0.
        -13    1    3    3    0    0  0.47091744983E+02 -0.22588845417E+02 -0.58836713307E+02  0.78674382032E+02  0.10570000000E+00 0.  1.
         13    1    3    3    0    0 -0.47091744983E+02  0.22588845417E+02  0.14098668921E+02  0.54098724760E+02  0.10570000000E+00 0. -1.
<mgrwt>
<rscale>  0 0.12500882E+03</rscale>
<asrwt>0</asrwt>
<pdfrwt beam="1">  1        1 0.67719279E-02 0.12500882E+03</pdfrwt>
<pdfrwt beam="2">  1       -1 0.13654704E-01 0.12500882E+03</pdfrwt>
<totfact> 0.36900797E+04</totfact>
</mgrwt>
</event>
<event>
 5    1  0.1336420E-049  0.1249935E+03  0.7818608E-02  0.1235079E+00
         -1   -1    0    0    0  501 -0.00000000000E+00  0.00000000000E+00  0.86716803629E+01  0.86716816204E+01  0.46700000000E-02 0.  1.
          1   -1    0    0  501    0  0.00000000000E+00 -0.00000000000E+00 -0.45041345574E+03  0.45041345576E+03  0.46700000000E-02 0. -1.
         25    2    1    2    0    0  0.00000000000E+00  0.00000000000E+00 -0.44174177537E+03  0.45908513738E+03  0.12499346885E+03 0.  0.
        -13    1    3    3    0    0  0.10370041477E+02 -0.60074082527E+02 -0.27141761254E+03  0.27817973456E+03  0.10570000000E+00 0.  1.
         13    1    3    3    0    0 -0.10370041477E+02  0.60074082527E+02 -0.17032416284E+03  0.18090540282E+03  0.10570000000E+00 0. -1.
<mgrwt>
<rscale>  0 0.12499347E+03</rscale>
<asrwt>0</asrwt>
<pdfrwt beam="2">  1        1 0.69294360E-01 0.12499347E+03</pdfrwt>
<pdfrwt beam="1">  1       -1 0.13341051E-02 0.12499347E+03</pdfrwt>
<totfact> 0.58711494E+04</totfact>
</mgrwt>
</event>
<event>
 5    1  0.1336420E-049  0.1249992E+03  0.7818608E-02  0.1235071E+00
         -1   -1    0    0    0  501 -0.00000000000E+00  0.00000000000E+00  0.40021277375E+02  0.40021277647E+02  0.46700000000E-02 0.  1.
          1   -1    0    0  501    0  0.00000000000E+00 -0.00000000000E+00 -0.97603039758E+02  0.97603039870E+02  0.46700000000E-02 0. -1.
         25    2    1    2    0    0  0.00000000000E+00  0.00000000000E+00 -0.57581762383E+02  0.13762431752E+03  0.12499917365E+03 0.  0.
        -13    1    3    3    0    0  0.60485914050E+02  0.15454665737E+02 -0.32055994707E+02  0.70178276273E+02  0.10570000000E+00 0.  1.
         13    1    3    3    0    0 -0.60485914050E+02 -0.15454665737E+02 -0.25525767676E+02  0.67446041244E+02  0.10570000000E+00 0. -1.
<mgrwt>
<rscale>  0 0.12499917E+03</rscale>
<asrwt>0</asrwt>
<pdfrwt beam="2">  1        1 0.15015852E-01 0.12499917E+03</pdfrwt>
<pdfrwt beam="1">  1       -1 0.61571196E-02 0.12499917E+03</pdfrwt>
<totfact> 0.43149018E+04</totfact>
</mgrwt>
</event>
<event>
 5    1  0.1336420E-049  0.1250014E+03  0.7818608E-02  0.1235067E+00
          1   -1    0    0  501    0  0.00000000000E+00  0.00000000000E+00  0.39742835360E+03  0.39742835363E+03  0.46700000000E-02 0. -1.
         -1   -1    0    0    0  501 -0.00000000000E+00 -0.00000000000E+00 -0.98290403810E+01  0.98290414905E+01  0.46700000000E-02 0.  1.
         25    2    1    2    0    0  0.00000000000E+00  0.00000000000E+00  0.38759931322E+03  0.40725739512E+03  0.12500143307E+03 0.  0.
        -13    1    3    3    0    0 -0.58383374970E+02 -0.22101731572E+02  0.20369427676E+03  0.21304571004E+03  0.10570000000E+00 0.  1.
         13    1    3    3    0    0  0.58383374970E+02  0.22101731572E+02  0.18390503646E+03  0.19421168508E+03  0.10570000000E+00 0. -1.
<mgrwt>
<rscale>  0 0.12500143E+03</rscale>
<asrwt>0</asrwt>
<pdfrwt beam="1">  1        1 0.61142815E-01 0.12500143E+03</pdfrwt>
<pdfrwt beam="2">  1       -1 0.15121604E-02 0.12500143E+03</pdfrwt>
<totfact> 0.57505151E+04</totfact>
</mgrwt>
</event>
<event>
 5    1  0.1336420E-049  0.1250018E+03  0.7818608E-02  0.1235067E+00
         -1   -1    0    0    0  501 -0.00000000000E+00  0.00000000000E+00  0.15389976530E+03  0.15389976537E+03  0.46700000000E-02 0. -1.
          1   -1    0    0  501    0  0.00000000000E+00 -0.00000000000E+00 -0.25382496617E+02  0.25382497047E+02  0.46700000000E-02 0.  1.
         25    2    1    2    0    0  0.00000000000E+00  0.00000000000E+00  0.12851726868E+03  0.17928226241E+03  0.12500176506E+03 0.  0.
        -13    1    3    3    0    0 -0.60818245434E+02  0.84223395021E+01  0.47498636027E+02  0.77626840572E+02  0.10570000000E+00 0. -1.
         13    1    3    3    0    0  0.60818245434E+02 -0.84223395021E+01  0.81018632651E+02  0.10165542184E+03  0.10570000000E+00 0.  1.
<mgrwt>
<rscale>  0 0.12500177E+03</rscale>
<asrwt>0</asrwt>
<pdfrwt beam="2">  1        1 0.39049995E-02 0.12500177E+03</pdfrwt>
<pdfrwt beam="1">  1       -1 0.23676887E-01 0.12500177E+03</pdfrwt>
<totfact> 0.32580775E+04</totfact>
</mgrwt>
</event>
<event>
 5    1  0.1336420E-049  0.1250001E+03  0.7818608E-02  0.1235069E+00
          1   -1    0    0  501    0  0.00000000000E+00  0.00000000000E+00  0.82707872752E+02  0.82707872884E+02  0.46700000000E-02 0. -1.
         -1   -1    0    0    0  501 -0.00000000000E+00 -0.00000000000E+00 -0.47229545522E+02  0.47229545753E+02  0.46700000000E-02 0.  1.
         25    2    1    2    0    0  0.00000000000E+00  0.00000000000E+00  0.35478327230E+02  0.12993741864E+03  0.12500008424E+03 0.  0.
        -13    1    3    3    0    0  0.31088820307E+02  0.53951599572E+02  0.23332617640E+02  0.66495955237E+02  0.10570000000E+00 0.  1.
         13    1    3    3    0    0 -0.31088820307E+02 -0.53951599572E+02  0.12145709590E+02  0.63441463400E+02  0.10570000000E+00 0. -1.
<mgrwt>
<rscale>  0 0.12500008E+03</rscale>
<asrwt>0</asrwt>
<pdfrwt beam="1">  1        1 0.12724288E-01 0.12500008E+03</pdfrwt>
<pdfrwt beam="2">  1       -1 0.72660839E-02 0.12500008E+03</pdfrwt>
<totfact> 0.41773709E+04</totfact>
</mgrwt>
</event>
<event>
 5    1  0.2054687E-049  0.1249970E+03  0.7818608E-02  0.1235074E+00
         -1   -1    0    0    0  501 -0.00000000000E+00  0.00000000000E+00  0.15455277462E+03  0.15455277469E+03  0.46700000000E-02 0.  1.
          1   -1    0    0  501    0  0.00000000000E+00 -0.00000000000E+00 -0.25273333560E+02  0.25273333991E+02  0.46700000000E-02 0. -1.
         25    2    1    2    0    0  0.00000000000E+00  0.00000000000E+00  0.12927944106E+03  0.17982610868E+03  0.12499702190E+03 0.  0.
        -13    1    3    3    0    0 -0.21180057281E+02  0.30441118346E+02  0.13701356891E+03  0.14194360060E+03  0.10570000000E+00 0.  1.
         13    1    3    3    0    0  0.21180057281E+02 -0.30441118346E+02 -0.77341278515E+01  0.37882508083E+02  0.10570000000E+00 0. -1.
<mgrwt>
<rscale>  0 0.12499702E+03</rscale>
<asrwt>0</asrwt>
<pdfrwt beam="2">  1        1 0.38882052E-02 0.12499702E+03</pdfrwt>
<pdfrwt beam="1">  1       -1 0.23777350E-01 0.12499702E+03</pdfrwt>
<totfact> 0.32548706E+04</totfact>
</mgrwt>
</event>
<event>
 5    1  0.1336420E-049  0.1250001E+03  0.7818608E-02  0.1235069E+00
         -1   -1    0    0    0  501 -0.00000000000E+00  0.00000000000E+00  0.11143917330E+02  0.11143918309E+02  0.46700000000E-02 0.  1.
          1   -1    0    0  501    0  0.00000000000E+00 -0.00000000000E+00 -0.35052781873E+03  0.35052781876E+03  0.46700000000E-02 0. -1.
         25    2    1    2    0    0  0.00000000000E+00  0.00000000000E+00 -0.33938390140E+03  0.36167173707E+03  0.12500005146E+03 0.  0.
        -13    1    3    3    0    0  0.59844429494E+01  0.59633354471E+02 -0.22098644029E+03  0.22896936146E+03  0.10570000000E+00 0. -1.
         13    1    3    3    0    0 -0.59844429494E+01 -0.59633354471E+02 -0.11839746111E+03  0.13270237561E+03  0.10570000000E+00 0.  1.
<mgrwt>
<rscale>  0 0.12500005E+03</rscale>
<asrwt>0</asrwt>
<pdfrwt beam="2">  1        1 0.53927348E-01 0.12500005E+03</pdfrwt>
<pdfrwt beam="1">  1       -1 0.17144492E-02 0.12500005E+03</pdfrwt>
<totfact> 0.56194403E+04</totfact>
</mgrwt>
</event>
<event>
 5    1  0.1336420E-049  0.1249903E+03  0.7818608E-02  0.1235084E+00
         -1   -1    0    0    0  501 -0.00000000000E+00  0.00000000000E+00  0.10712388432E+02  0.10712389450E+02  0.46700000000E-02 0.  1.
          1   -1    0    0  501    0  0.00000000000E+00 -0.00000000000E+00 -0.36459125816E+03  0.36459125819E+03  0.46700000000E-02 0. -1.
         25    2    1    2    0    0  0.00000000000E+00  0.00000000000E+00 -0.35387886973E+03  0.37530364764E+03  0.12499029359E+03 0.  0.
        -13    1    3    3    0    0  0.12521802747E+02 -0.59099845275E+02 -0.22498624946E+03  0.23295581314E+03  0.10570000000E+00 0.  1.
         13    1    3    3    0    0 -0.12521802747E+02  0.59099845275E+02 -0.12889262027E+03  0.14234783450E+03  0.10570000000E+00 0. -1.
<mgrwt>
<rscale>  0 0.12499029E+03</rscale>
<asrwt>0</asrwt>
<pdfrwt beam="2">  1        1 0.56090953E-01 0.12499029E+03</pdfrwt>
<pdfrwt beam="1">  1       -1 0.16480601E-02 0.12499029E+03</pdfrwt>
<totfact> 0.56625134E+04</totfact>
</mgrwt>
</event>
<event>
 5    1  0.1336420E-049  0.1249995E+03  0.7818608E-02  0.1235070E+00
         -1   -1    0    0    0  501 -0.00000000000E+00  0.00000000000E+00  0.20184965288E+03  0.20184965294E+03  0.46700000000E-02 0.  1.
          1   -1    0    0  501    0  0.00000000000E+00 -0.00000000000E+00 -0.19352119457E+02  0.19352120021E+02  0.46700000000E-02 0. -1.
         25    2    1    2    0    0  0.00000000000E+00  0.00000000000E+00  0.18249753342E+03  0.22120177296E+03  0.12499949861E+03 0.  0.
        -13    1    3    3    0    0 -0.58537619599E+02  0.14074657095E+02  0.12093722203E+03  0.13509467689E+03  0.10570000000E+00 0.  1.
         13    1    3    3    0    0  0.58537619599E+02 -0.14074657095E+02  0.61560311395E+02  0.86107096061E+02  0.10570000000E+00 0. -1.
<mgrwt>
<rscale>  0 0.12499950E+03</rscale>
<asrwt>0</asrwt>
<pdfrwt beam="2">  1        1 0.29772493E-02 0.12499950E+03</pdfrwt>
<pdfrwt beam="1">  1       -1 0.31053792E-01 0.12499950E+03</pdfrwt>
<totfact> 0.30221831E+04</totfact>
</mgrwt>
</event>
<event>
 5    1  0.1336420E-049  0.1250003E+03  0.7818608E-02  0.1235069E+00
         -1   -1    0    0    0  501 -0.00000000000E+00  0.00000000000E+00  0.71084084382E+02  0.71084084535E+02  0.46700000000E-02 0.  1.
          1   -1    0    0  501    0  0.00000000000E+00 -0.00000000000E+00 -0.54952758021E+02  0.54952758219E+02  0.46700000000E-02 0. -1.
         25    2    1    2    0    0  0.00000000000E+00  0.00000000000E+00  0.16131326361E+02  0.12603684275E+03  0.12500026417E+03 0.  0.
        -13    1    3    3    0    0  0.59467111082E+02  0.19118114756E+02  0.10184451761E+02  0.63289602957E+02  0.10570000000E+00 0.  1.
         13    1    3    3    0    0 -0.59467111082E+02 -0.19118114756E+02  0.59468745998E+01  0.62747239798E+02  0.10570000000E+00 0. -1.
<mgrwt>
<rscale>  0 0.12500026E+03</rscale>
<asrwt>0</asrwt>
<pdfrwt beam="2">  1        1 0.84542706E-02 0.12500026E+03</pdfrwt>
<pdfrwt beam="1">  1       -1 0.10936013E-01 0.12500026E+03</pdfrwt>
<totfact> 0.38585792E+04</totfact>
</mgrwt>
</event>
<event>
 5    1  0.1336420E-049  0.1250032E+03  0.7818608E-02  0.1235064E+00
          1   -1    0    0  501    0  0.00000000000E+00  0.00000000000E+00  0.11981537293E+03  0.11981537302E+03  0.46700000000E-02 0. -1.
         -1   -1    0    0    0  501 -0.00000000000E+00 -0.00000000000E+00 -0.32603936163E+02  0.32603936497E+02  0.46700000000E-02 0.  1.
         25    2    1    2    0    0  0.00000000000E+00  0.00000000000E+00  0.87211436763E+02  0.15241930951E+03  0.12500324480E+03 0.  0.
        -13    1    3    3    0    0 -0.40537077848E+02  0.24374734543E+02 -0.62086447660E+01  0.47706821387E+02  0.10570000000E+00 0.  1.
         13    1    3    3    0    0  0.40537077848E+02 -0.24374734543E+02  0.93420081529E+02  0.10471248813E+03  0.10570000000E+00 0. -1.
<mgrwt>
<rscale>  0 0.12500324E+03</rscale>
<asrwt>0</asrwt>
<pdfrwt beam="1">  1        1 0.18433134E-01 0.12500324E+03</pdfrwt>
<pdfrwt beam="2">  1       -1 0.50159902E-02 0.12500324E+03</pdfrwt>
<totfact> 0.44941764E+04</totfact>
</mgrwt>
</event>
<event>
 5    1  0.1336420E-049  0.1250005E+03  0.7818608E-02  0.1235069E+00
          1   -1    0    0  501    0  0.00000000000E+00  0.00000000000E+00  0.10066088239E+03  0.10066088250E+03  0.46700000000E-02 0. -1.
         -1   -1    0    0    0  501 -0.00000000000E+00 -0.00000000000E+00 -0.38806321973E+02  0.38806322254E+02  0.46700000000E-02 0.  1.
         25    2    1    2    0    0  0.00000000000E+00  0.00000000000E+00  0.61854560418E+02  0.13946720475E+03  0.12500045823E+03 0.  0.
        -13    1    3    3    0    0  0.40744223006E+02 -0.35624001286E+02  0.65803659842E+02  0.85201490580E+02  0.10570000000E+00 0.  1.
         13    1    3    3    0    0 -0.40744223006E+02  0.35624001286E+02 -0.39490994244E+01  0.54265714173E+02  0.10570000000E+00 0. -1.
<mgrwt>
<rscale>  0 0.12500046E+03</rscale>
<asrwt>0</asrwt>
<pdfrwt beam="1">  1        1 0.15486290E-01 0.12500046E+03</pdfrwt>
<pdfrwt beam="2">  1       -1 0.59702035E-02 0.12500046E+03</pdfrwt>
<totfact> 0.43410801E+04</totfact>
</mgrwt>
</event>
<event>
 5    1  0.1336420E-049  0.1250000E+03  0.7818608E-02  0.1235069E+00
         -1   -1    0    0    0  501 -0.00000000000E+00  0.00000000000E+00  0.15294200781E+02  0.15294201494E+02  0.46700000000E-02 0.  1.
          1   -1    0    0  501    0  0.00000000000E+00 -0.00000000000E+00 -0.25540709483E+03  0.25540709487E+03  0.46700000000E-02 0. -1.
         25    2    1    2    0    0  0.00000000000E+00  0.00000000000E+00 -0.24011289405E+03  0.27070129637E+03  0.12499995986E+03 0.  0.
        -13    1    3    3    0    0  0.37616201640E+02  0.20275424197E+02 -0.21285472097E+02  0.47740485409E+02  0.10570000000E+00 0.  1.
         13    1    3    3    0    0 -0.37616201640E+02 -0.20275424197E+02 -0.21882742195E+03  0.22296081096E+03  0.10570000000E+00 0. -1.
<mgrwt>
<rscale>  0 0.12499996E+03</rscale>
<asrwt>0</asrwt>
<pdfrwt beam="2">  1        1 0.39293396E-01 0.12499996E+03</pdfrwt>
<pdfrwt beam="1">  1       -1 0.23529542E-02 0.12499996E+03</pdfrwt>
<totfact> 0.52680590E+04</totfact>
</mgrwt>
</event>
<event>
 5    1  0.1336420E-049  0.1250034E+03  0.7818608E-02  0.1235064E+00
          1   -1    0    0  501    0  0.00000000000E+00  0.00000000000E+00  0.21413021213E+03  0.21413021218E+03  0.46700000000E-02 0.  1.
         -1   -1    0    0    0  501 -0.00000000000E+00 -0.00000000000E+00 -0.18243405537E+02  0.18243406135E+02  0.46700000000E-02 0. -1.
         25    2    1    2    0    0  0.00000000000E+00  0.00000000000E+00  0.19588680660E+03  0.23237361832E+03  0.12500342992E+03 0.  0.
        -13    1    3    3    0    0 -0.29584003902E+02 -0.55051537930E+02  0.96542295135E+02  0.11500570002E+03  0.10570000000E+00 0. -1.
         13    1    3    3    0    0  0.29584003902E+02  0.55051537930E+02  0.99344511461E+02  0.11736791830E+03  0.10570000000E+00 0.  1.
<mgrwt>
<rscale>  0 0.12500343E+03</rscale>
<asrwt>0</asrwt>
<pdfrwt beam="1">  1        1 0.32943113E-01 0.12500343E+03</pdfrwt>
<pdfrwt beam="2">  1       -1 0.28066776E-02 0.12500343E+03</pdfrwt>
<totfact> 0.50739239E+04</totfact>
</mgrwt>
</event>
<event>
 5    1  0.1336420E-049  0.1250002E+03  0.7818608E-02  0.1235069E+00
          1   -1    0    0  501    0  0.00000000000E+00  0.00000000000E+00  0.34378708812E+02  0.34378709129E+02  0.46700000000E-02 0. -1.
         -1   -1    0    0    0  501 -0.00000000000E+00 -0.00000000000E+00 -0.11362447593E+03  0.11362447602E+03  0.46700000000E-02 0.  1.
         25    2    1    2    0    0  0.00000000000E+00  0.00000000000E+00 -0.79245767114E+02  0.14800318515E+03  0.12500020484E+03 0.  0.
        -13    1    3    3    0    0 -0.47113649612E+01 -0.42842735124E+02 -0.93212928522E+02  0.10269546304E+03  0.10570000000E+00 0.  1.
         13    1    3    3    0    0  0.47113649612E+01  0.42842735124E+02  0.13967161408E+02  0.45307722112E+02  0.10570000000E+00 0. -1.
<mgrwt>
<rscale>  0 0.12500020E+03</rscale>
<asrwt>0</asrwt>
<pdfrwt beam="1">  1        1 0.52890322E-02 0.12500020E+03</pdfrwt>
<pdfrwt beam="2">  1       -1 0.17480688E-01 0.12500020E+03</pdfrwt>
<totfact> 0.35017355E+04</totfact>
</mgrwt>
</event>
<event>
 5    1  0.1336420E-049  0.1250016E+03  0.7818608E-02  0.1235067E+00
         -1   -1    0    0    0  501 -0.00000000000E+00  0.00000000000E+00  0.43313273885E+02  0.43313274137E+02  0.46700000000E-02 0.  1.
          1   -1    0    0  501    0  0.00000000000E+00 -0.00000000000E+00 -0.90188289498E+02  0.90188289619E+02  0.46700000000E-02 0. -1.
         25    2    1    2    0    0  0.00000000000E+00  0.00000000000E+00 -0.46875015614E+02  0.13350156376E+03  0.12500160174E+03 0.  0.
        -13    1    3    3    0    0 -0.19414654657E+02  0.46977202083E+02  0.15402316130E+02  0.53113358448E+02  0.10570000000E+00 0.  1.
         13    1    3    3    0    0  0.19414654657E+02 -0.46977202083E+02 -0.62277331744E+02  0.80388205308E+02  0.10570000000E+00 0. -1.
<mgrwt>
<rscale>  0 0.12500160E+03</rscale>
<asrwt>0</asrwt>
<pdfrwt beam="2">  1        1 0.13875121E-01 0.12500160E+03</pdfrwt>
<pdfrwt beam="1">  1       -1 0.66635806E-02 0.12500160E+03</pdfrwt>
<totfact> 0.42482982E+04</totfact>
</mgrwt>
</event>
<event>
 5    1  0.1336420E-049  0.1250025E+03  0.7818608E-02  0.1235065E+00
          1   -1    0    0  501    0  0.00000000000E+00  0.00000000000E+00  0.58719167649E+02  0.58719167834E+02  0.46700000000E-02 0. -1.
         -1   -1    0    0    0  501 -0.00000000000E+00 -0.00000000000E+00 -0.66526939621E+02  0.66526939785E+02  0.46700000000E-02 0.  1.
         25    2    1    2    0    0  0.00000000000E+00  0.00000000000E+00 -0.78077719726E+01  0.12524610762E+03  0.12500250466E+03 0.  0.
        -13    1    3    3    0    0 -0.35147772494E+02 -0.49193177165E+02  0.11971889884E+02  0.61633366863E+02  0.10570000000E+00 0. -1.
         13    1    3    3    0    0  0.35147772494E+02  0.49193177165E+02 -0.19779661856E+02  0.63612740757E+02  0.10570000000E+00 0.  1.
<mgrwt>
<rscale>  0 0.12500250E+03</rscale>
<asrwt>0</asrwt>
<pdfrwt beam="1">  1        1 0.90337181E-02 0.12500250E+03</pdfrwt>
<pdfrwt beam="2">  1       -1 0.10234914E-01 0.12500250E+03</pdfrwt>
<totfact> 0.39088030E+04</totfact>
</mgrwt>
</event>
<event>
 5    1  0.1336420E-049  0.1249998E+03  0.7818608E-02  0.1235070E+00
         -1   -1    0    0    0  501 -0.00000000000E+00  0.00000000000E+00  0.19418808737E+02  0.19418809298E+02  0.46700000000E-02 0.  1.
          1   -1    0    0  501    0  0.00000000000E+00 -0.00000000000E+00 -0.20115736717E+03  0.20115736722E+03  0.46700000000E-02 0. -1.
         25    2    1    2    0    0  0.00000000000E+00  0.00000000000E+00 -0.18173855843E+03  0.22057617652E+03  0.12499978411E+03 0.  0.
        -13    1    3    3    0    0  0.35631933509E+01 -0.57725032077E+02 -0.49060636078E+02  0.75840838998E+02  0.10570000000E+00 0.  1.
         13    1    3    3    0    0 -0.35631933509E+01  0.57725032077E+02 -0.13267792236E+03  0.14473533752E+03  0.10570000000E+00 0. -1.
<mgrwt>
<rscale>  0 0.12499978E+03</rscale>
<asrwt>0</asrwt>
<pdfrwt beam="2">  1        1 0.30947286E-01 0.12499978E+03</pdfrwt>
<pdfrwt beam="1">  1       -1 0.29875092E-02 0.12499978E+03</pdfrwt>
<totfact> 0.50070409E+04</totfact>
</mgrwt>
</event>
<event>
 5    1  0.1336420E-049  0.1250045E+03  0.7818608E-02  0.1235062E+00
          1   -1    0    0  501    0  0.00000000000E+00  0.00000000000E+00  0.43814213380E+02  0.43814213629E+02  0.46700000000E-02 0. -1.
         -1   -1    0    0    0  501 -0.00000000000E+00 -0.00000000000E+00 -0.89161344689E+02  0.89161344811E+02  0.46700000000E-02 0.  1.
         25    2    1    2    0    0  0.00000000000E+00  0.00000000000E+00 -0.45347131309E+02  0.13297555844E+03  0.12500454722E+03 0.  0.
        -13    1    3    3    0    0 -0.86993327436E+01 -0.60898275231E+02 -0.34435020941E+02  0.70498653576E+02  0.10570000000E+00 0.  1.
         13    1    3    3    0    0  0.86993327436E+01  0.60898275231E+02 -0.10912110368E+02  0.62476904865E+02  0.10570000000E+00 0. -1.
<mgrwt>
<rscale>  0 0.12500455E+03</rscale>
<asrwt>0</asrwt>
<pdfrwt beam="1">  1        1 0.67406483E-02 0.12500455E+03</pdfrwt>
<pdfrwt beam="2">  1       -1 0.13717130E-01 0.12500455E+03</pdfrwt>
<totfact> 0.36869505E+04</totfact>
</mgrwt>
</event>
<event>
 5    1  0.1336420E-049  0.1249978E+03  0.7818608E-02  0.1235073E+00
         -1   -1    0    0    0  501 -0.00000000000E+00  0.00000000000E+00  0.47448008949E+02  0.47448009179E+02  0.46700000000E-02 0.  1.
          1   -1    0    0  501    0  0.00000000000E+00 -0.00000000000E+00 -0.82324099378E+02  0.82324099510E+02  0.46700000000E-02 0. -1.
         25    2    1    2    0    0  0.00000000000E+00  0.00000000000E+00 -0.34876090429E+02  0.12977210869E+03  0.12499783402E+03 0.  0.
        -13    1    3    3    0    0  0.52275722297E+02 -0.48029751900E+01 -0.52649288903E+02  0.74349031647E+02  0.10570000000E+00 0. -1.
         13    1    3    3    0    0 -0.52275722297E+02  0.48029751900E+01  0.17773198474E+02  0.55423077042E+02  0.10570000000E+00 0.  1.
<mgrwt>
<rscale>  0 0.12499783E+03</rscale>
<asrwt>0</asrwt>
<pdfrwt beam="2">  1        1 0.12665246E-01 0.12499783E+03</pdfrwt>
<pdfrwt beam="1">  1       -1 0.72996937E-02 0.12499783E+03</pdfrwt>
<totfact> 0.41738176E+04</totfact>
</mgrwt>
</event>
<event>
 5    1  0.1336420E-049  0.1249991E+03  0.7818608E-02  0.1235071E+00
          1   -1    0    0  501    0  0.00000000000E+00  0.00000000000E+00  0.33103787496E+03  0.33103787499E+03  0.46700000000E-02 0. -1.
         -1   -1    0    0    0  501 -0.00000000000E+00 -0.00000000000E+00 -0.11799848201E+02  0.11799849125E+02  0.46700000000E-02 0.  1.
         25    2    1    2    0    0  0.00000000000E+00  0.00000000000E+00  0.31923802676E+03  0.34283772411E+03  0.12499914939E+03 0.  0.
        -13    1    3    3    0    0  0.53575846022E+02 -0.26598453587E+02  0.10992074807E+03  0.12514164390E+03  0.10570000000E+00 0.  1.
         13    1    3    3    0    0 -0.53575846022E+02  0.26598453587E+02  0.20931727869E+03  0.21769608021E+03  0.10570000000E+00 0. -1.
<mgrwt>
<rscale>  0 0.12499915E+03</rscale>
<asrwt>0</asrwt>
<pdfrwt beam="1">  1        1 0.50928906E-01 0.12499915E+03</pdfrwt>
<pdfrwt beam="2">  1       -1 0.18153613E-02 0.12499915E+03</pdfrwt>
<totfact> 0.55575281E+04</totfact>
</mgrwt>
</event>
<event>
 5    1  0.1336420E-049  0.1250007E+03  0.7818608E-02  0.1235068E+00
          1   -1    0    0  501    0  0.00000000000E+00  0.00000000000E+00  0.10639961059E+03  0.10639961069E+03  0.46700000000E-02 0.  1.
         -1   -1    0    0    0  501 -0.00000000000E+00 -0.00000000000E+00 -0.36713393873E+02  0.36713394170E+02  0.46700000000E-02 0. -1.
         25    2    1    2    0    0  0.00000000000E+00  0.00000000000E+00  0.69686216717E+02  0.14311300486E+03  0.12500065344E+03 0.  0.
        -13    1    3    3    0    0  0.33332913383E+02  0.43441421493E+02  0.34310192581E+00  0.54757365781E+02  0.10570000000E+00 0. -1.
         13    1    3    3    0    0 -0.33332913383E+02 -0.43441421493E+02  0.69343114791E+02  0.88355639080E+02  0.10570000000E+00 0.  1.
<mgrwt>
<rscale>  0 0.12500065E+03</rscale>
<asrwt>0</asrwt>
<pdfrwt beam="1">  1        1 0.16369171E-01 0.12500065E+03</pdfrwt>
<pdfrwt beam="2">  1       -1 0.56482145E-02 0.12500065E+03</pdfrwt>
<totfact> 0.43889596E+04</totfact>
</mgrwt>
</event>
<event>
 4    1  0.1336420E-049  0.1251506E+03  0.7818608E-02  0.1234834E+00
          1   -1    0    0  501    0  0.00000000000E+00  0.00000000000E+00  0.59576230120E+03  0.59576230122E+03  0.46700000000E-02 0. -1.
         -1   -1    0    0    0  501 -0.00000000000E+00 -0.00000000000E+00 -0.65725316462E+01  0.65725333053E+01  0.46700000000E-02 0.  1.
        -13    1    1    2    0    0  0.36609760841E+02  0.50564948313E+02  0.31533350054E+03  0.32145344348E+03  0.10570000000E+00 0.  1.
         13    1    1    2    0    0 -0.36609760841E+02 -0.50564948313E+02  0.27385626901E+03  0.28088139104E+03  0.10570000000E+00 0. -1.
<mgrwt>
<rscale>  0 0.12515058E+03</rscale>
<asrwt>0</asrwt>
<pdfrwt beam="1">  1        1 0.91655758E-01 0.12515058E+03</pdfrwt>
<pdfrwt beam="2">  1       -1 0.10111586E-02 0.12515058E+03</pdfrwt>
<totfact> 0.60410961E+04</totfact>
</mgrwt>
</event>
<event>
 5    1  0.1336420E-049  0.1250017E+03  0.7818608E-02  0.1235067E+00
         -1   -1    0    0    0  501 -0.00000000000E+00  0.00000000000E+00  0.12978325145E+02  0.12978325986E+02  0.46700000000E-02 0.  1.
          1   -1    0    0  501    0  0.00000000000E+00 -0.00000000000E+00 -0.30099053776E+03  0.30099053780E+03  0.46700000000E-02 0. -1.
         25    2    1    2    0    0  0.00000000000E+00  0.00000000000E+00 -0.28801221262E+03  0.31396886379E+03  0.12500165123E+03 0.  0.
        -13    1    3    3    0    0 -0.57592805042E+02 -0.20040248463E+02 -0.17842665519E+03  0.18855934134E+03  0.10570000000E+00 0. -1.
         13    1    3    3    0    0  0.57592805042E+02  0.20040248463E+02 -0.10958555743E+03  0.12540952245E+03  0.10570000000E+00 0.  1.
<mgrwt>
<rscale>  0 0.12500165E+03</rscale>
<asrwt>0</asrwt>
<pdfrwt beam="2">  1        1 0.46306231E-01 0.12500165E+03</pdfrwt>
<pdfrwt beam="1">  1       -1 0.19966657E-02 0.12500165E+03</pdfrwt>
<totfact> 0.54519658E+04</totfact>
</mgrwt>
</event>
<event>
 5    1  0.1336420E-049  0.1250006E+03  0.7818608E-02  0.1235068E+00
         -1   -1    0    0    0  501 -0.00000000000E+00  0.00000000000E+00  0.45208842642E+03  0.45208842645E+03  0.46700000000E-02 0.  1.
          1   -1    0    0  501    0  0.00000000000E+00 -0.00000000000E+00 -0.86405358591E+01  0.86405371211E+01  0.46700000000E-02 0. -1.
         25    2    1    2    0    0  0.00000000000E+00  0.00000000000E+00  0.44344789056E+03  0.46072896357E+03  0.12500058490E+03 0.  0.
        -13    1    3    3    0    0  0.53550379418E+02  0.16531791277E+02  0.32369066340E+03  0.32850662095E+03  0.10570000000E+00 0.  1.
         13    1    3    3    0    0 -0.53550379418E+02 -0.16531791277E+02  0.11975722716E+03  0.13222234262E+03  0.10570000000E+00 0. -1.
<mgrwt>
<rscale>  0 0.12500058E+03</rscale>
<asrwt>0</asrwt>
<pdfrwt beam="2">  1        1 0.13293132E-02 0.12500058E+03</pdfrwt>
<pdfrwt beam="1">  1       -1 0.69552072E-01 0.12500058E+03</pdfrwt>
<totfact> 0.21625455E+04</totfact>
</mgrwt>
</event>
<event>
 5    1  0.1336420E-049  0.1250004E+03  0.7818608E-02  0.1235069E+00
         -1   -1    0    0    0  501 -0.00000000000E+00  0.00000000000E+00  0.42426973893E+02  0.42426974150E+02  0.46700000000E-02 0.  1.
          1   -1    0    0  501    0  0.00000000000E+00 -0.00000000000E+00 -0.92070592832E+02  0.92070592950E+02  0.46700000000E-02 0. -1.
         25    2    1    2    0    0  0.00000000000E+00  0.00000000000E+00 -0.49643618939E+02  0.13449756710E+03  0.12500042662E+03 0.  0.
        -13    1    3    3    0    0 -0.19394523645E+02  0.44366263233E+02  0.17699737522E+02  0.51553901322E+02  0.10570000000E+00 0.  1.
         13    1    3    3    0    0  0.19394523645E+02 -0.44366263233E+02 -0.67343356461E+02  0.82943665778E+02  0.10570000000E+00 0. -1.
<mgrwt>
<rscale>  0 0.12500043E+03</rscale>
<asrwt>0</asrwt>
<pdfrwt beam="2">  1        1 0.14164707E-01 0.12500043E+03</pdfrwt>
<pdfrwt beam="1">  1       -1 0.65272268E-02 0.12500043E+03</pdfrwt>
<totfact> 0.42656192E+04</totfact>
</mgrwt>
</event>
<event>
 5    1  0.1336420E-049  0.1250011E+03  0.7818608E-02  0.1235067E+00
         -1   -1    0    0    0  501 -0.00000000000E+00  0.00000000000E+00  0.90528533779E+02  0.90528533900E+02  0.46700000000E-02 0.  1.
          1   -1    0    0  501    0  0.00000000000E+00 -0.00000000000E+00 -0.43150166024E+02  0.43150166277E+02  0.46700000000E-02 0. -1.
         25    2    1    2    0    0  0.00000000000E+00  0.00000000000E+00  0.47378367755E+02  0.13367870018E+03  0.12500114059E+03 0.  0.
        -13    1    3    3    0    0  0.22233835974E+01 -0.40884143331E+02  0.74188605512E+02  0.84737341065E+02  0.10570000000E+00 0.  1.
         13    1    3    3    0    0 -0.22233835974E+01  0.40884143331E+02 -0.26810237757E+02  0.48941359111E+02  0.10570000000E+00 0. -1.
<mgrwt>
<rscale>  0 0.12500114E+03</rscale>
<asrwt>0</asrwt>
<pdfrwt beam="2">  1        1 0.66384872E-02 0.12500114E+03</pdfrwt>
<pdfrwt beam="1">  1       -1 0.13927467E-01 0.12500114E+03</pdfrwt>
<totfact> 0.36756807E+04</totfact>
</mgrwt>
</event>
<event>
 5    1  0.1336420E-049  0.1249990E+03  0.7818608E-02  0.1235071E+00
         -1   -1    0    0    0  501 -0.00000000000E+00  0.00000000000E+00  0.91723141910E+02  0.91723142029E+02  0.46700000000E-02 0.  1.
          1   -1    0    0  501    0  0.00000000000E+00 -0.00000000000E+00 -0.42586694872E+02  0.42586695128E+02  0.46700000000E-02 0. -1.
         25    2    1    2    0    0  0.00000000000E+00  0.00000000000E+00  0.49136447038E+02  0.13430983716E+03  0.12499896771E+03 0.  0.
        -13    1    3    3    0    0  0.50193173780E+02  0.25109127889E+02  0.54118610902E+02  0.77965750274E+02  0.10570000000E+00 0.  1.
         13    1    3    3    0    0 -0.50193173780E+02 -0.25109127889E+02 -0.49821638634E+01  0.56344086883E+02  0.10570000000E+00 0. -1.
<mgrwt>
<rscale>  0 0.12499897E+03</rscale>
<asrwt>0</asrwt>
<pdfrwt beam="2">  1        1 0.65517993E-02 0.12499897E+03</pdfrwt>
<pdfrwt beam="1">  1       -1 0.14111252E-01 0.12499897E+03</pdfrwt>
<totfact> 0.36659061E+04</totfact>
</mgrwt>
</event>
<event>
 5    1  0.1336420E-049  0.1249988E+03  0.7818608E-02  0.1235071E+00
          1   -1    0    0  501    0  0.00000000000E+00  0.00000000000E+00  0.19281536046E+03  0.19281536051E+03  0.46700000000E-02 0.  1.
         -1   -1    0    0    0  501 -0.00000000000E+00 -0.00000000000E+00 -0.20258621231E+02  0.20258621769E+02  0.46700000000E-02 0. -1.
         25    2    1    2    0    0  0.00000000000E+00  0.00000000000E+00  0.17255673923E+03  0.21307398228E+03  0.12499877469E+03 0.  0.
        -13    1    3    3    0    0 -0.25698441172E+02 -0.46302194302E+02  0.29695142610E+02  0.60713390146E+02  0.10570000000E+00 0. -1.
         13    1    3    3    0    0  0.25698441172E+02  0.46302194302E+02  0.14286159662E+03  0.15236059214E+03  0.10570000000E+00 0.  1.
<mgrwt>
<rscale>  0 0.12499877E+03</rscale>
<asrwt>0</asrwt>
<pdfrwt beam="1">  1        1 0.29663902E-01 0.12499877E+03</pdfrwt>
<pdfrwt beam="2">  1       -1 0.31167110E-02 0.12499877E+03</pdfrwt>
<totfact> 0.49620639E+04</totfact>
</mgrwt>
</event>
<event>
 5    1  0.1336420E-049  0.1249955E+03  0.7818608E-02  0.1235076E+00
          1   -1    0    0  501    0  0.00000000000E+00  0.00000000000E+00  0.17030300986E+03  0.17030300992E+03  0.46700000000E-02 0. -1.
         -1   -1    0    0    0  501 -0.00000000000E+00 -0.00000000000E+00 -0.22935405126E+02  0.22935405602E+02  0.46700000000E-02 0.  1.
         25    2    1    2    0    0  0.00000000000E+00  0.00000000000E+00  0.14736760473E+03  0.19323841553E+03  0.12499549716E+03 0.  0.
        -13    1    3    3    0    0  0.58468387804E+02  0.13383610083E+02  0.46539755161E+02  0.75918597025E+02  0.10570000000E+00 0. -1.
         13    1    3    3    0    0 -0.58468387804E+02 -0.13383610083E+02  0.10082784957E+03  0.11731981850E+03  0.10570000000E+00 0.  1.
<mgrwt>
<rscale>  0 0.12499550E+03</rscale>
<asrwt>0</asrwt>
<pdfrwt beam="1">  1        1 0.26200463E-01 0.12499550E+03</pdfrwt>
<pdfrwt beam="2">  1       -1 0.35285240E-02 0.12499550E+03</pdfrwt>
<totfact> 0.48333687E+04</totfact>
</mgrwt>
</event>
<event>
 5    1  0.1336420E-049  0.1249995E+03  0.7818608E-02  0.1235070E+00
         -1   -1    0    0    0  501 -0.00000000000E+00  0.00000000000E+00  0.65750101553E+01  0.65750118137E+01  0.46700000000E-02 0. -1.
          1   -1    0    0  501    0  0.00000000000E+00 -0.00000000000E+00 -0.59410029811E+03  0.59410029813E+03  0.46700000000E-02 0.  1.
         25    2    1    2    0    0  0.00000000000E+00  0.00000000000E+00 -0.58752528795E+03  0.60067530994E+03  0.12499945595E+03 0.  0.
        -13    1    3    3    0    0  0.61142029224E+02 -0.12021106959E+02 -0.31698336984E+03  0.32305003123E+03  0.10570000000E+00 0. -1.
         13    1    3    3    0    0 -0.61142029224E+02  0.12021106959E+02 -0.27054191811E+03  0.27762527871E+03  0.10570000000E+00 0.  1.
<mgrwt>
<rscale>  0 0.12499946E+03</rscale>
<asrwt>0</asrwt>
<pdfrwt beam="2">  1        1 0.91400004E-01 0.12499946E+03</pdfrwt>
<pdfrwt beam="1">  1       -1 0.10115406E-02 0.12499946E+03</pdfrwt>
<totfact> 0.60598738E+04</totfact>
</mgrwt>
</event>
<event>
 5    1  0.1336420E-049  0.1250024E+03  0.7818608E-02  0.1235066E+00
          1   -1    0    0  501    0  0.00000000000E+00  0.00000000000E+00  0.23820024078E+02  0.23820024535E+02  0.46700000000E-02 0. -1.
         -1   -1    0    0    0  501 -0.00000000000E+00 -0.00000000000E+00 -0.16399647807E+03  0.16399647814E+03  0.46700000000E-02 0.  1.
         25    2    1    2    0    0  0.00000000000E+00  0.00000000000E+00 -0.14017645399E+03  0.18781650267E+03  0.12500240167E+03 0.  0.
        -13    1    3    3    0    0  0.53535285282E+02 -0.31739767374E+02 -0.61463632508E+02  0.87471303276E+02  0.10570000000E+00 0.  1.
         13    1    3    3    0    0 -0.53535285282E+02  0.31739767374E+02 -0.78712821485E+02  0.10034519940E+03  0.10570000000E+00 0. -1.
<mgrwt>
<rscale>  0 0.12500240E+03</rscale>
<asrwt>0</asrwt>
<pdfrwt beam="1">  1        1 0.36646192E-02 0.12500240E+03</pdfrwt>
<pdfrwt beam="2">  1       -1 0.25230227E-01 0.12500240E+03</pdfrwt>
<totfact> 0.32045859E+04</totfact>
</mgrwt>
</event>
<event>
 5    1  0.1336420E-049  0.1249983E+03  0.7818608E-02  0.1235072E+00
          1   -1    0    0  501    0  0.00000000000E+00  0.00000000000E+00  0.34908713880E+03  0.34908713884E+03  0.46700000000E-02 0. -1.
         -1   -1    0    0    0  501 -0.00000000000E+00 -0.00000000000E+00 -0.11189590896E+02  0.11189591871E+02  0.46700000000E-02 0.  1.
         25    2    1    2    0    0  0.00000000000E+00  0.00000000000E+00  0.33789754791E+03  0.36027673071E+03  0.12499827921E+03 0.  0.
        -13    1    3    3    0    0 -0.49400985734E+02 -0.18548634718E+02  0.72420298826E+02  0.89605915519E+02  0.10570000000E+00 0.  1.
         13    1    3    3    0    0  0.49400985734E+02  0.18548634718E+02  0.26547724908E+03  0.27067081519E+03  0.10570000000E+00 0. -1.
<mgrwt>
<rscale>  0 0.12499828E+03</rscale>
<asrwt>0</asrwt>
<pdfrwt beam="1">  1        1 0.53705705E-01 0.12499828E+03</pdfrwt>
<pdfrwt beam="2">  1       -1 0.17214759E-02 0.12499828E+03</pdfrwt>
<totfact> 0.56152360E+04</totfact>
</mgrwt>
</event>
<event>
 5    1  0.1336420E-049  0.1249970E+03  0.7818608E-02  0.1235074E+00
          1   -1    0    0  501    0  0.00000000000E+00  0.00000000000E+00  0.13309935465E+03  0.13309935473E+03  0.46700000000E-02 0. -1.
         -1   -1    0    0    0  501 -0.00000000000E+00 -0.00000000000E+00 -0.29346962230E+02  0.29346962601E+02  0.46700000000E-02 0.  1.
         25    2    1    2    0    0  0.00000000000E+00  0.00000000000E+00  0.10375239242E+03  0.16244631734E+03  0.12499698829E+03 0.  0.
        -13    1    3    3    0    0  0.16878545003E+02  0.59203377232E+02  0.65880902642E+02  0.90167786168E+02  0.10570000000E+00 0.  1.
         13    1    3    3    0    0 -0.16878545003E+02 -0.59203377232E+02  0.37871489781E+02  0.72278531168E+02  0.10570000000E+00 0. -1.
<mgrwt>
<rscale>  0 0.12499699E+03</rscale>
<asrwt>0</asrwt>
<pdfrwt beam="1">  1        1 0.20476824E-01 0.12499699E+03</pdfrwt>
<pdfrwt beam="2">  1       -1 0.45149173E-02 0.12499699E+03</pdfrwt>
<totfact> 0.45919675E+04</totfact>
</mgrwt>
</event>
<event>
 5    1  0.1336420E-049  0.1249997E+03  0.7818608E-02  0.1235070E+00
          1   -1    0    0  501    0  0.00000000000E+00  0.00000000000E+00  0.58195998088E+03  0.58195998090E+03  0.46700000000E-02 0. -1.
         -1   -1    0    0    0  501 -0.00000000000E+00 -0.00000000000E+00 -0.67122000216E+01  0.67122016462E+01  0.46700000000E-02 0.  1.
         25    2    1    2    0    0  0.00000000000E+00  0.00000000000E+00  0.57524778086E+03  0.58867218255E+03  0.12499971648E+03 0.  0.
        -13    1    3    3    0    0 -0.48016145277E+02  0.38558392649E+02  0.33788902727E+03  0.34345495451E+03  0.10570000000E+00 0.  1.
         13    1    3    3    0    0  0.48016145277E+02 -0.38558392649E+02  0.23735875358E+03  0.24521722804E+03  0.10570000000E+00 0. -1.
<mgrwt>
<rscale>  0 0.12499972E+03</rscale>
<asrwt>0</asrwt>
<pdfrwt beam="1">  1        1 0.89532299E-01 0.12499972E+03</pdfrwt>
<pdfrwt beam="2">  1       -1 0.10326464E-02 0.12499972E+03</pdfrwt>
<totfact> 0.60506310E+04</totfact>
</mgrwt>
</event>
<event>
 5    1  0.1336420E-049  0.1249994E+03  0.7818608E-02  0.1235070E+00
          1   -1    0    0  501    0  0.00000000000E+00  0.00000000000E+00  0.10995512855E+02  0.10995513847E+02  0.46700000000E-02 0. -1.
         -1   -1    0    0    0  501 -0.00000000000E+00 -0.00000000000E+00 -0.35525527699E+03  0.35525527702E+03  0.46700000000E-02 0.  1.
         25    2    1    2    0    0  0.00000000000E+00  0.00000000000E+00 -0.34425976414E+03  0.36625079087E+03  0.12499942644E+03 0.  0.
        -13    1    3    3    0    0  0.59297397128E+02  0.51759209813E+01 -0.11628770873E+03  0.13063618886E+03  0.10570000000E+00 0.  1.
         13    1    3    3    0    0 -0.59297397128E+02 -0.51759209813E+01 -0.22797205541E+03  0.23561460202E+03  0.10570000000E+00 0. -1.
<mgrwt>
<rscale>  0 0.12499943E+03</rscale>
<asrwt>0</asrwt>
<pdfrwt beam="1">  1        1 0.16916177E-02 0.12499943E+03</pdfrwt>
<pdfrwt beam="2">  1       -1 0.54654649E-01 0.12499943E+03</pdfrwt>
<totfact> 0.24476462E+04</totfact>
</mgrwt>
</event>
<event>
 5    1  0.1499610E-049  0.1250001E+03  0.7818608E-02  0.1235069E+00
          1   -1    0    0  501    0  0.00000000000E+00  0.00000000000E+00  0.44900487912E+02  0.44900488155E+02  0.46700000000E-02 0. -1.
         -1   -1    0    0    0  501 -0.00000000000E+00 -0.00000000000E+00 -0.86998017666E+02  0.86998017792E+02  0.46700000000E-02 0.  1.
         25    2    1    2    0    0  0.00000000000E+00  0.00000000000E+00 -0.42097529754E+02  0.13189850595E+03  0.12500005544E+03 0.  0.
        -13    1    3    3    0    0 -0.48817368555E+02  0.17674134948E+02 -0.57764619410E+02  0.77667708520E+02  0.10570000000E+00 0.  1.
         13    1    3    3    0    0  0.48817368555E+02 -0.17674134948E+02  0.15667089655E+02  0.54230797426E+02  0.10570000000E+00 0. -1.
<mgrwt>
<rscale>  0 0.12500006E+03</rscale>
<asrwt>0</asrwt>
<pdfrwt beam="1">  1        1 0.69077674E-02 0.12500006E+03</pdfrwt>
<pdfrwt beam="2">  1       -1 0.13384310E-01 0.12500006E+03</pdfrwt>
<totfact> 0.37058836E+04</totfact>
</mgrwt>
</event>
<event>
 5    1  0.1336420E-049  0.1249995E+03  0.7818608E-02  0.1235070E+00
         -1   -1    0    0    0  501 -0.00000000000E+00  0.00000000000E+00  0.17643477505E+02  0.17643478123E+02  0.46700000000E-02 0.  1.
          1   -1    0    0  501    0  0.00000000000E+00 -0.00000000000E+00 -0.22139718838E+03  0.22139718843E+03  0.46700000000E-02 0. -1.
         25    2    1    2    0    0  0.00000000000E+00  0.00000000000E+00 -0.20375371087E+03  0.23904066655E+03  0.12499946228E+03 0.  0.
        -13    1    3    3    0    0 -0.60801669060E+01 -0.61979689081E+02 -0.91802118151E+02  0.11093281912E+03  0.10570000000E+00 0.  1.
         13    1    3    3    0    0  0.60801669060E+01  0.61979689081E+02 -0.11195159272E+03  0.12810784743E+03  0.10570000000E+00 0. -1.
<mgrwt>
<rscale>  0 0.12499946E+03</rscale>
<asrwt>0</asrwt>
<pdfrwt beam="2">  1        1 0.34061104E-01 0.12499946E+03</pdfrwt>
<pdfrwt beam="1">  1       -1 0.27143814E-02 0.12499946E+03</pdfrwt>
<totfact> 0.51106458E+04</totfact>
</mgrwt>
</event>
<event>
 5    1  0.1336420E-049  0.1249985E+03  0.7818608E-02  0.1235072E+00
          1   -1    0    0  501    0  0.00000000000E+00  0.00000000000E+00  0.13790567229E+02  0.13790568020E+02  0.46700000000E-02 0. -1.
         -1   -1    0    0    0  501 -0.00000000000E+00 -0.00000000000E+00 -0.28324823541E+03  0.28324823544E+03  0.46700000000E-02 0.  1.
         25    2    1    2    0    0  0.00000000000E+00  0.00000000000E+00 -0.26945766818E+03  0.29703880346E+03  0.12499846329E+03 0.  0.
        -13    1    3    3    0    0 -0.46122064450E+02 -0.34873394546E+02 -0.19110091519E+03  0.19965712969E+03  0.10570000000E+00 0.  1.
         13    1    3    3    0    0  0.46122064450E+02  0.34873394546E+02 -0.78356752985E+02  0.97381673774E+02  0.10570000000E+00 0. -1.
<mgrwt>
<rscale>  0 0.12499846E+03</rscale>
<asrwt>0</asrwt>
<pdfrwt beam="1">  1        1 0.21216260E-02 0.12499846E+03</pdfrwt>
<pdfrwt beam="2">  1       -1 0.43576647E-01 0.12499846E+03</pdfrwt>
<totfact> 0.26930881E+04</totfact>
</mgrwt>
</event>
<event>
 5    1  0.1336420E-049  0.1250005E+03  0.7818608E-02  0.1235068E+00
         -1   -1    0    0    0  501 -0.00000000000E+00  0.00000000000E+00  0.25235068884E+02  0.25235069316E+02  0.46700000000E-02 0.  1.
          1   -1    0    0  501    0  0.00000000000E+00 -0.00000000000E+00 -0.15479579452E+03  0.15479579459E+03  0.46700000000E-02 0. -1.
         25    2    1    2    0    0  0.00000000000E+00  0.00000000000E+00 -0.12956072564E+03  0.18003086391E+03  0.12500052133E+03 0.  0.
        -13    1    3    3    0    0 -0.40048931492E+02  0.47757752919E+02 -0.58094241938E+02  0.85203708818E+02  0.10570000000E+00 0.  1.
         13    1    3    3    0    0  0.40048931492E+02 -0.47757752919E+02 -0.71466483699E+02  0.94827155089E+02  0.10570000000E+00 0. -1.
<mgrwt>
<rscale>  0 0.12500052E+03</rscale>
<asrwt>0</asrwt>
<pdfrwt beam="2">  1        1 0.23814737E-01 0.12500052E+03</pdfrwt>
<pdfrwt beam="1">  1       -1 0.38823185E-02 0.12500052E+03</pdfrwt>
<totfact> 0.47371491E+04</totfact>
</mgrwt>
</event>
<event>
 5    1  0.1336420E-049  0.1249979E+03  0.7818608E-02  0.1235072E+00
         -1   -1    0    0    0  501 -0.00000000000E+00  0.00000000000E+00  0.14153958089E+03  0.14153958097E+03  0.46700000000E-02 0.  1.
          1   -1    0    0  501    0  0.00000000000E+00 -0.00000000000E+00 -0.27597381613E+02  0.27597382008E+02  0.46700000000E-02 0. -1.
         25    2    1    2    0    0  0.00000000000E+00  0.00000000000E+00  0.11394219928E+03  0.16913696298E+03  0.12499794986E+03 0.  0.
        -13    1    3    3    0    0  0.27640228985E+02  0.49183042732E+02  0.93358569476E+02  0.10908156406E+03  0.10570000000E+00 0.  1.
         13    1    3    3    0    0 -0.27640228985E+02 -0.49183042732E+02  0.20583629804E+02  0.60055398917E+02  0.10570000000E+00 0. -1.
<mgrwt>
<rscale>  0 0.12499795E+03</rscale>
<asrwt>0</asrwt>
<pdfrwt beam="2">  1        1 0.42457511E-02 0.12499795E+03</pdfrwt>
<pdfrwt beam="1">  1       -1 0.21775320E-01 0.12499795E+03</pdfrwt>
<totfact> 0.33273399E+04</totfact>
</mgrwt>
</event>
<event>
 5    1  0.1336420E-049  0.1250006E+03  0.7818608E-02  0.1235068E+00
         -1   -1    0    0    0  501 -0.00000000000E+00  0.00000000000E+00  0.57414391461E+02  0.57414391651E+02  0.46700000000E-02 0.  1.
          1   -1    0    0  501    0  0.00000000000E+00 -0.00000000000E+00 -0.68036683100E+02  0.68036683260E+02  0.46700000000E-02 0. -1.
         25    2    1    2    0    0  0.00000000000E+00  0.00000000000E+00 -0.10622291638E+02  0.12545107491E+03  0.12500055647E+03 0.  0.
        -13    1    3    3    0    0  0.30506163255E+02  0.24183567736E+02  0.43760916009E+02  0.58570469415E+02  0.10570000000E+00 0.  1.
         13    1    3    3    0    0 -0.30506163255E+02 -0.24183567736E+02 -0.54383207648E+02  0.66880605497E+02  0.10570000000E+00 0. -1.
<mgrwt>
<rscale>  0 0.12500056E+03</rscale>
<asrwt>0</asrwt>
<pdfrwt beam="2">  1        1 0.10467182E-01 0.12500056E+03</pdfrwt>
<pdfrwt beam="1">  1       -1 0.88329833E-02 0.12500056E+03</pdfrwt>
<totfact> 0.40224267E+04</totfact>
</mgrwt>
</event>
<event>
 4    1  0.1336420E-049  0.1250956E+03  0.7818608E-02  0.1234920E+00
          1   -1    0    0  501    0  0.00000000000E+00  0.00000000000E+00  0.25611526576E+02  0.25611527001E+02  0.46700000000E-02 0. -1.
         -1   -1    0    0    0  501 -0.00000000000E+00 -0.00000000000E+00 -0.15275248102E+03  0.15275248109E+03  0.46700000000E-02 0.  1.
        -13    1    1    2    0    0 -0.47210216135E+02 -0.27569895410E+02 -0.10689551979E+03  0.12006484483E+03  0.10570000000E+00 0.  1.
         13    1    1    2    0    0  0.47210216135E+02  0.27569895410E+02 -0.20245434656E+02  0.58299163265E+02  0.10570000000E+00 0. -1.
<mgrwt>
<rscale>  0 0.12509555E+03</rscale>
<asrwt>0</asrwt>
<pdfrwt beam="1">  1        1 0.39402350E-02 0.12509555E+03</pdfrwt>
<pdfrwt beam="2">  1       -1 0.23500381E-01 0.12509555E+03</pdfrwt>
<totfact> 0.32578871E+04</totfact>
</mgrwt>
</event>
<event>
 5    1  0.1336420E-049  0.1250020E+03  0.7818608E-02  0.1235066E+00
          1   -1    0    0  501    0  0.00000000000E+00  0.00000000000E+00  0.24572367395E+03  0.24572367400E+03  0.46700000000E-02 0. -1.
         -1   -1    0    0    0  501 -0.00000000000E+00 -0.00000000000E+00 -0.15897438886E+02  0.15897439572E+02  0.46700000000E-02 0.  1.
         25    2    1    2    0    0  0.00000000000E+00  0.00000000000E+00  0.22982623507E+03  0.26162111357E+03  0.12500203495E+03 0.  0.
        -13    1    3    3    0    0 -0.28094921647E+02 -0.54605614840E+02  0.90571266989E+02  0.10942697735E+03  0.10570000000E+00 0.  1.
         13    1    3    3    0    0  0.28094921647E+02  0.54605614840E+02  0.13925496808E+03  0.15219413623E+03  0.10570000000E+00 0. -1.
<mgrwt>
<rscale>  0 0.12500203E+03</rscale>
<asrwt>0</asrwt>
<pdfrwt beam="1">  1        1 0.37803640E-01 0.12500203E+03</pdfrwt>
<pdfrwt beam="2">  1       -1 0.24457600E-02 0.12500203E+03</pdfrwt>
<totfact> 0.52249506E+04</totfact>
</mgrwt>
</event>
<event>
 5    1  0.1621071E-049  0.1249895E+03  0.7818608E-02  0.1235086E+00
          1   -1    0    0  501    0  0.00000000000E+00  0.00000000000E+00  0.97806062686E+02  0.97806062798E+02  0.46700000000E-02 0.  1.
         -1   -1    0    0    0  501 -0.00000000000E+00 -0.00000000000E+00 -0.39932027073E+02  0.39932027346E+02  0.46700000000E-02 0. -1.
         25    2    1    2    0    0  0.00000000000E+00  0.00000000000E+00  0.57874035614E+02  0.13773809014E+03  0.12498950947E+03 0.  0.
        -13    1    3    3    0    0 -0.86772443282E+01 -0.61792820278E+02  0.25129782531E+02  0.67269341825E+02  0.10570000000E+00 0. -1.
         13    1    3    3    0    0  0.86772443282E+01  0.61792820278E+02  0.32744253083E+02  0.70468748318E+02  0.10570000000E+00 0.  1.
<mgrwt>
<rscale>  0 0.12498951E+03</rscale>
<asrwt>0</asrwt>
<pdfrwt beam="1">  1        1 0.15047087E-01 0.12498951E+03</pdfrwt>
<pdfrwt beam="2">  1       -1 0.61433888E-02 0.12498951E+03</pdfrwt>
<totfact> 0.43176200E+04</totfact>
</mgrwt>
</event>
<event>
 5    1  0.1336420E-049  0.1250030E+03  0.7818608E-02  0.1235065E+00
         -1   -1    0    0    0  501 -0.00000000000E+00  0.00000000000E+00  0.62145686752E+02  0.62145686928E+02  0.46700000000E-02 0.  1.
          1   -1    0    0  501    0  0.00000000000E+00 -0.00000000000E+00 -0.62859381352E+02  0.62859381525E+02  0.46700000000E-02 0. -1.
         25    2    1    2    0    0  0.00000000000E+00  0.00000000000E+00 -0.71369459951E+00  0.12500506845E+03  0.12500303108E+03 0.  0.
        -13    1    3    3    0    0 -0.37829901307E+02  0.19583942434E+01 -0.50071755483E+02  0.62786372810E+02  0.10570000000E+00 0. -1.
         13    1    3    3    0    0  0.37829901307E+02 -0.19583942434E+01  0.49358060884E+02  0.62218695644E+02  0.10570000000E+00 0.  1.
<mgrwt>
<rscale>  0 0.12500303E+03</rscale>
<asrwt>0</asrwt>
<pdfrwt beam="2">  1        1 0.96706741E-02 0.12500303E+03</pdfrwt>
<pdfrwt beam="1">  1       -1 0.95608749E-02 0.12500303E+03</pdfrwt>
<totfact> 0.39609523E+04</totfact>
</mgrwt>
</event>
<event>
 5    1  0.1336420E-049  0.1250010E+03  0.7818608E-02  0.1235068E+00
         -1   -1    0    0    0  501 -0.00000000000E+00  0.00000000000E+00  0.15931787376E+02  0.15931788060E+02  0.46700000000E-02 0.  1.
          1   -1    0    0  501    0  0.00000000000E+00 -0.00000000000E+00 -0.24518991044E+03  0.24518991048E+03  0.46700000000E-02 0. -1.
         25    2    1    2    0    0  0.00000000000E+00  0.00000000000E+00 -0.22925812306E+03  0.26112169854E+03  0.12500101783E+03 0.  0.
        -13    1    3    3    0    0  0.40403300837E+02  0.40017543393E+02 -0.60458105788E+02  0.83000145938E+02  0.10570000000E+00 0.  1.
         13    1    3    3    0    0 -0.40403300837E+02 -0.40017543393E+02 -0.16880001727E+03  0.17812155260E+03  0.10570000000E+00 0. -1.
<mgrwt>
<rscale>  0 0.12500102E+03</rscale>
<asrwt>0</asrwt>
<pdfrwt beam="2">  1        1 0.37721522E-01 0.12500102E+03</pdfrwt>
<pdfrwt beam="1">  1       -1 0.24510444E-02 0.12500102E+03</pdfrwt>
<totfact> 0.52226613E+04</totfact>
</mgrwt>
</event>
<event>
 5    1  0.1336420E-049  0.1249995E+03  0.7818608E-02  0.1235070E+00
          1   -1    0    0  501    0  0.00000000000E+00  0.00000000000E+00  0.30824976760E+03  0.30824976764E+03  0.46700000000E-02 0. -1.
         -1   -1    0    0    0  501 -0.00000000000E+00 -0.00000000000E+00 -0.12672244653E+02  0.12672245513E+02  0.46700000000E-02 0.  1.
         25    2    1    2    0    0  0.00000000000E+00  0.00000000000E+00  0.29557752295E+03  0.32092201315E+03  0.12499946581E+03 0.  0.
        -13    1    3    3    0    0 -0.50138908108E+02  0.14829655974E+01  0.24351120374E+03  0.24862386613E+03  0.10570000000E+00 0. -1.
         13    1    3    3    0    0  0.50138908108E+02 -0.14829655974E+01  0.52066319210E+02  0.72298147015E+02  0.10570000000E+00 0.  1.
<mgrwt>
<rscale>  0 0.12499947E+03</rscale>
<asrwt>0</asrwt>
<pdfrwt beam="1">  1        1 0.47423042E-01 0.12499947E+03</pdfrwt>
<pdfrwt beam="2">  1       -1 0.19495761E-02 0.12499947E+03</pdfrwt>
<totfact> 0.54787702E+04</totfact>
</mgrwt>
</event>
<event>
 5    1  0.1336420E-049  0.1250024E+03  0.7818608E-02  0.1235066E+00
          1   -1    0    0  501    0  0.00000000000E+00  0.00000000000E+00  0.13746476601E+03  0.13746476609E+03  0.46700000000E-02 0. -1.
         -1   -1    0    0    0  501 -0.00000000000E+00 -0.00000000000E+00 -0.28417449208E+02  0.28417449592E+02  0.46700000000E-02 0.  1.
         25    2    1    2    0    0  0.00000000000E+00  0.00000000000E+00  0.10904731680E+03  0.16588221568E+03  0.12500236869E+03 0.  0.
        -13    1    3    3    0    0 -0.27402976286E+02 -0.26640398636E+02 -0.11104146087E+02  0.39798833923E+02  0.10570000000E+00 0.  1.
         13    1    3    3    0    0  0.27402976286E+02  0.26640398636E+02  0.12015146289E+03  0.12608338176E+03  0.10570000000E+00 0. -1.
<mgrwt>
<rscale>  0 0.12500237E+03</rscale>
<asrwt>0</asrwt>
<pdfrwt beam="1">  1        1 0.21148426E-01 0.12500237E+03</pdfrwt>
<pdfrwt beam="2">  1       -1 0.43719153E-02 0.12500237E+03</pdfrwt>
<totfact> 0.46219316E+04</totfact>
</mgrwt>
</event>
<event>
 5    1  0.1336420E-049  0.1250063E+03  0.7818608E-02  0.1235059E+00
         -1   -1    0    0    0  501 -0.00000000000E+00  0.00000000000E+00  0.19721466679E+02  0.19721467232E+02  0.46700000000E-02 0. -1.
          1   -1    0    0  501    0  0.00000000000E+00 -0.00000000000E+00 -0.19809101437E+03  0.19809101443E+03  0.46700000000E-02 0.  1.
         25    2    1    2    0    0  0.00000000000E+00  0.00000000000E+00 -0.17836954769E+03  0.21781248166E+03  0.12500632633E+03 0.  0.
        -13    1    3    3    0    0  0.13489474066E+02  0.34799885255E+02 -0.18269128941E+01  0.37367722804E+02  0.10570000000E+00 0. -1.
         13    1    3    3    0    0 -0.13489474066E+02 -0.34799885255E+02 -0.17654263480E+03  0.18044475886E+03  0.10570000000E+00 0.  1.
<mgrwt>
<rscale>  0 0.12500633E+03</rscale>
<asrwt>0</asrwt>
<pdfrwt beam="2">  1        1 0.30475539E-01 0.12500633E+03</pdfrwt>
<pdfrwt beam="1">  1       -1 0.30340720E-02 0.12500633E+03</pdfrwt>
<totfact> 0.49899073E+04</totfact>
</mgrwt>
</event>
<event>
 5    1  0.1336420E-049  0.1249973E+03  0.7818608E-02  0.1235074E+00
         -1   -1    0    0    0  501 -0.00000000000E+00  0.00000000000E+00  0.63961543745E+02  0.63961543915E+02  0.46700000000E-02 0.  1.
          1   -1    0    0  501    0  0.00000000000E+00 -0.00000000000E+00 -0.61069168642E+02  0.61069168820E+02  0.46700000000E-02 0. -1.
         25    2    1    2    0    0  0.00000000000E+00  0.00000000000E+00  0.28923751027E+01  0.12503071274E+03  0.12499725314E+03 0.  0.
        -13    1    3    3    0    0 -0.46472493696E+02 -0.38993878378E+02  0.16478581207E+02  0.62863105494E+02  0.10570000000E+00 0.  1.
         13    1    3    3    0    0  0.46472493696E+02  0.38993878378E+02 -0.13586206104E+02  0.62167607241E+02  0.10570000000E+00 0. -1.
<mgrwt>
<rscale>  0 0.12499725E+03</rscale>
<asrwt>0</asrwt>
<pdfrwt beam="2">  1        1 0.93952567E-02 0.12499725E+03</pdfrwt>
<pdfrwt beam="1">  1       -1 0.98402376E-02 0.12499725E+03</pdfrwt>
<totfact> 0.39392964E+04</totfact>
</mgrwt>
</event>
<event>
 5    1  0.1336420E-049  0.1250000E+03  0.7818608E-02  0.1235069E+00
         -1   -1    0    0    0  501 -0.00000000000E+00  0.00000000000E+00  0.85116903818E+02  0.85116903946E+02  0.46700000000E-02 0.  1.
          1   -1    0    0  501    0  0.00000000000E+00 -0.00000000000E+00 -0.45892788877E+02  0.45892789115E+02  0.46700000000E-02 0. -1.
         25    2    1    2    0    0  0.00000000000E+00  0.00000000000E+00  0.39224114941E+02  0.13100969306E+03  0.12500003393E+03 0.  0.
        -13    1    3    3    0    0 -0.30310978558E+02 -0.53333023870E+02  0.32148485089E+02  0.69258235050E+02  0.10570000000E+00 0.  1.
         13    1    3    3    0    0  0.30310978558E+02  0.53333023870E+02  0.70756298517E+01  0.61751458011E+02  0.10570000000E+00 0. -1.
<mgrwt>
<rscale>  0 0.12500003E+03</rscale>
<asrwt>0</asrwt>
<pdfrwt beam="2">  1        1 0.70604291E-02 0.12500003E+03</pdfrwt>
<pdfrwt beam="1">  1       -1 0.13094908E-01 0.12500003E+03</pdfrwt>
<totfact> 0.37224188E+04</totfact>
</mgrwt>
</event>
<event>
 5    1  0.1336420E-049  0.1249991E+03  0.7818608E-02  0.1235071E+00
          1   -1    0    0  501    0  0.00000000000E+00  0.00000000000E+00  0.12799213665E+03  0.12799213674E+03  0.46700000000E-02 0. -1.
         -1   -1    0    0    0  501 -0.00000000000E+00 -0.00000000000E+00 -0.30519028375E+02  0.30519028732E+02  0.46700000000E-02 0.  1.
         25    2    1    2    0    0  0.00000000000E+00  0.00000000000E+00  0.97473108279E+02  0.15851116547E+03  0.12499913096E+03 0.  0.
        -13    1    3    3    0    0  0.62473361184E+02  0.17661499525E+01  0.48254727587E+02  0.78959293628E+02  0.10570000000E+00 0.  1.
         13    1    3    3    0    0 -0.62473361184E+02 -0.17661499525E+01  0.49218380692E+02  0.79551871843E+02  0.10570000000E+00 0. -1.
<mgrwt>
<rscale>  0 0.12499913E+03</rscale>
<asrwt>0</asrwt>
<pdfrwt beam="1">  1        1 0.19691098E-01 0.12499913E+03</pdfrwt>
<pdfrwt beam="2">  1       -1 0.46952352E-02 0.12499913E+03</pdfrwt>
<totfact> 0.45551767E+04</totfact>
</mgrwt>
</event>
<event>
 5    1  0.1336420E-049  0.1250001E+03  0.7818608E-02  0.1235069E+00
          1   -1    0    0  501    0  0.00000000000E+00  0.00000000000E+00  0.29441835335E+03  0.29441835338E+03  0.46700000000E-02 0. -1.
         -1   -1    0    0    0  501 -0.00000000000E+00 -0.00000000000E+00 -0.13267704126E+02  0.13267704948E+02  0.46700000000E-02 0.  1.
         25    2    1    2    0    0  0.00000000000E+00  0.00000000000E+00  0.28115064922E+03  0.30768605833E+03  0.12500009174E+03 0.  0.
        -13    1    3    3    0    0 -0.47711388458E+02  0.58055919811E+01  0.42233985835E+02  0.63982827530E+02  0.10570000000E+00 0.  1.
         13    1    3    3    0    0  0.47711388458E+02 -0.58055919811E+01  0.23891666339E+03  0.24370323080E+03  0.10570000000E+00 0. -1.
<mgrwt>
<rscale>  0 0.12500009E+03</rscale>
<asrwt>0</asrwt>
<pdfrwt beam="1">  1        1 0.45295127E-01 0.12500009E+03</pdfrwt>
<pdfrwt beam="2">  1       -1 0.20411855E-02 0.12500009E+03</pdfrwt>
<totfact> 0.54274758E+04</totfact>
</mgrwt>
</event>
<event>
 5    1  0.1336420E-049  0.1249637E+03  0.7818608E-02  0.1235126E+00
         -1   -1    0    0    0  501 -0.00000000000E+00  0.00000000000E+00  0.60065878134E+01  0.60065896288E+01  0.46700000000E-02 0.  1.
          1   -1    0    0  501    0  0.00000000000E+00 -0.00000000000E+00 -0.64995012558E+03  0.64995012560E+03  0.46700000000E-02 0. -1.
         25    2    1    2    0    0  0.00000000000E+00  0.00000000000E+00 -0.64394353777E+03  0.65595671523E+03  0.12496372441E+03 0.  0.
        -13    1    3    3    0    0 -0.45933415027E+02 -0.42313107725E+02 -0.33206088746E+03  0.33788270428E+03  0.10570000000E+00 0. -1.
         13    1    3    3    0    0  0.45933415027E+02  0.42313107725E+02 -0.31188265031E+03  0.31807401095E+03  0.10570000000E+00 0.  1.
<mgrwt>
<rscale>  0 0.12496372E+03</rscale>
<asrwt>0</asrwt>
<pdfrwt beam="2">  1        1 0.99992272E-01 0.12496372E+03</pdfrwt>
<pdfrwt beam="1">  1       -1 0.92409109E-03 0.12496372E+03</pdfrwt>
<totfact> 0.60926069E+04</totfact>
</mgrwt>
</event>
<event>
 4    1  0.1336420E-049  0.1248201E+03  0.7818608E-02  0.1235351E+00
         -1   -1    0    0    0  501 -0.00000000000E+00  0.00000000000E+00  0.97760073111E+02  0.97760073222E+02  0.46700000000E-02 0.  1.
          1   -1    0    0  501    0  0.00000000000E+00 -0.00000000000E+00 -0.39842573292E+02  0.39842573566E+02  0.46700000000E-02 0. -1.
        -13    1    1    2    0    0  0.42743247387E+02 -0.30685789449E+01  0.78976985009E+02  0.89854196939E+02  0.10570000000E+00 0.  1.
         13    1    1    2    0    0 -0.42743247387E+02  0.30685789449E+01 -0.21059485191E+02  0.47748449849E+02  0.10570000000E+00 0. -1.
<mgrwt>
<rscale>  0 0.12482008E+03</rscale>
<asrwt>0</asrwt>
<pdfrwt beam="2">  1        1 0.61296267E-02 0.12482008E+03</pdfrwt>
<pdfrwt beam="1">  1       -1 0.15040011E-01 0.12482008E+03</pdfrwt>
<totfact> 0.36308678E+04</totfact>
</mgrwt>
</event>
<event>
 5    1  0.1336420E-049  0.1250004E+03  0.7818608E-02  0.1235069E+00
         -1   -1    0    0    0  501 -0.00000000000E+00  0.00000000000E+00  0.20584339556E+03  0.20584339561E+03  0.46700000000E-02 0.  1.
          1   -1    0    0  501    0  0.00000000000E+00 -0.00000000000E+00 -0.18976939777E+02  0.18976940351E+02  0.46700000000E-02 0. -1.
         25    2    1    2    0    0  0.00000000000E+00  0.00000000000E+00  0.18686645578E+03  0.22482033597E+03  0.12500044466E+03 0.  0.
        -13    1    3    3    0    0 -0.30443718933E+02 -0.17768163451E+02  0.60717878259E+00  0.35254893185E+02  0.10570000000E+00 0. -1.
         13    1    3    3    0    0  0.30443718933E+02  0.17768163451E+02  0.18625927700E+03  0.18956544278E+03  0.10570000000E+00 0.  1.
<mgrwt>
<rscale>  0 0.12500044E+03</rscale>
<asrwt>0</asrwt>
<pdfrwt beam="2">  1        1 0.29195292E-02 0.12500044E+03</pdfrwt>
<pdfrwt beam="1">  1       -1 0.31668215E-01 0.12500044E+03</pdfrwt>
<totfact> 0.30042102E+04</totfact>
</mgrwt>
</event>
<event>
 5    1  0.1336420E-049  0.1250021E+03  0.7818608E-02  0.1235066E+00
         -1   -1    0    0    0  501 -0.00000000000E+00  0.00000000000E+00  0.21542084590E+02  0.21542085096E+02  0.46700000000E-02 0.  1.
          1   -1    0    0  501    0  0.00000000000E+00 -0.00000000000E+00 -0.18133724654E+03  0.18133724660E+03  0.46700000000E-02 0. -1.
         25    2    1    2    0    0  0.00000000000E+00  0.00000000000E+00 -0.15979516195E+03  0.20287933170E+03  0.12500211777E+03 0.  0.
        -13    1    3    3    0    0  0.17087128733E+02 -0.55911160614E+02 -0.11576359131E+03  0.12968904385E+03  0.10570000000E+00 0. -1.
         13    1    3    3    0    0 -0.17087128733E+02  0.55911160614E+02 -0.44031570643E+02  0.73190287849E+02  0.10570000000E+00 0.  1.
<mgrwt>
<rscale>  0 0.12500212E+03</rscale>
<asrwt>0</asrwt>
<pdfrwt beam="2">  1        1 0.27898037E-01 0.12500212E+03</pdfrwt>
<pdfrwt beam="1">  1       -1 0.33141670E-02 0.12500212E+03</pdfrwt>
<totfact> 0.48972366E+04</totfact>
</mgrwt>
</event>
<event>
 5    1  0.1401057E-049  0.1249985E+03  0.7818608E-02  0.1235072E+00
          1   -1    0    0  501    0  0.00000000000E+00  0.00000000000E+00  0.45352207592E+03  0.45352207594E+03  0.46700000000E-02 0. -1.
         -1   -1    0    0    0  501 -0.00000000000E+00 -0.00000000000E+00 -0.86129403798E+01  0.86129416458E+01  0.46700000000E-02 0.  1.
         25    2    1    2    0    0  0.00000000000E+00  0.00000000000E+00  0.44490913554E+03  0.46213501759E+03  0.12499854237E+03 0.  0.
        -13    1    3    3    0    0 -0.62259538940E+02 -0.35113203450E+00  0.20228092630E+03  0.21164583105E+03  0.10570000000E+00 0.  1.
         13    1    3    3    0    0  0.62259538940E+02  0.35113203450E+00  0.24262820924E+03  0.25048918654E+03  0.10570000000E+00 0. -1.
<mgrwt>
<rscale>  0 0.12499854E+03</rscale>
<asrwt>0</asrwt>
<pdfrwt beam="1">  1        1 0.69772642E-01 0.12499854E+03</pdfrwt>
<pdfrwt beam="2">  1       -1 0.13250676E-02 0.12499854E+03</pdfrwt>
<totfact> 0.58766077E+04</totfact>
</mgrwt>
</event>
<event>
 4    1  0.1336420E-049  0.1249052E+03  0.7818608E-02  0.1235218E+00
          1   -1    0    0  501    0  0.00000000000E+00  0.00000000000E+00  0.36478863567E+03  0.36478863570E+03  0.46700000000E-02 0. -1.
         -1   -1    0    0    0  501 -0.00000000000E+00 -0.00000000000E+00 -0.10692013326E+02  0.10692014346E+02  0.46700000000E-02 0.  1.
        -13    1    1    2    0    0 -0.72851397121E+01 -0.53177504969E+02  0.27302773261E+03  0.27825361496E+03  0.10570000000E+00 0.  1.
         13    1    1    2    0    0  0.72851397121E+01  0.53177504969E+02  0.81068889741E+02  0.97227035087E+02  0.10570000000E+00 0. -1.
<mgrwt>
<rscale>  0 0.12490517E+03</rscale>
<asrwt>0</asrwt>
<pdfrwt beam="1">  1        1 0.56121333E-01 0.12490517E+03</pdfrwt>
<pdfrwt beam="2">  1       -1 0.16449251E-02 0.12490517E+03</pdfrwt>
<totfact> 0.56736877E+04</totfact>
</mgrwt>
</event>
<event>
 5    1  0.1336420E-049  0.1250007E+03  0.7818608E-02  0.1235068E+00
          1   -1    0    0  501    0  0.00000000000E+00  0.00000000000E+00  0.22898789018E+03  0.22898789023E+03  0.46700000000E-02 0. -1.
         -1   -1    0    0    0  501 -0.00000000000E+00 -0.00000000000E+00 -0.17058948874E+02  0.17058949514E+02  0.46700000000E-02 0.  1.
         25    2    1    2    0    0  0.00000000000E+00  0.00000000000E+00  0.21192894130E+03  0.24604683974E+03  0.12500068473E+03 0.  0.
        -13    1    3    3    0    0  0.31634240403E+02 -0.24774811878E+02  0.11734196395E+02  0.41859515131E+02  0.10570000000E+00 0.  1.
         13    1    3    3    0    0 -0.31634240403E+02  0.24774811878E+02  0.20019474491E+03  0.20418732461E+03  0.10570000000E+00 0. -1.
<mgrwt>
<rscale>  0 0.12500068E+03</rscale>
<asrwt>0</asrwt>
<pdfrwt beam="1">  1        1 0.35228904E-01 0.12500068E+03</pdfrwt>
<pdfrwt beam="2">  1       -1 0.26244539E-02 0.12500068E+03</pdfrwt>
<totfact> 0.51473689E+04</totfact>
</mgrwt>
</event>
<event>
 5    1  0.1336420E-049  0.1249997E+03  0.7818608E-02  0.1235070E+00
          1   -1    0    0  501    0  0.00000000000E+00  0.00000000000E+00  0.80501002170E+02  0.80501002305E+02  0.46700000000E-02 0. -1.
         -1   -1    0    0    0  501 -0.00000000000E+00 -0.00000000000E+00 -0.48524042869E+02  0.48524043094E+02  0.46700000000E-02 0.  1.
         25    2    1    2    0    0  0.00000000000E+00  0.00000000000E+00  0.31976959300E+02  0.12902504540E+03  0.12499974566E+03 0.  0.
        -13    1    3    3    0    0 -0.13586977127E+02  0.18879397672E+02 -0.43889809695E+02  0.49672569608E+02  0.10570000000E+00 0.  1.
         13    1    3    3    0    0  0.13586977127E+02 -0.18879397672E+02  0.75866768995E+02  0.79352475791E+02  0.10570000000E+00 0. -1.
<mgrwt>
<rscale>  0 0.12499975E+03</rscale>
<asrwt>0</asrwt>
<pdfrwt beam="1">  1        1 0.12384770E-01 0.12499975E+03</pdfrwt>
<pdfrwt beam="2">  1       -1 0.74652374E-02 0.12499975E+03</pdfrwt>
<totfact> 0.41555454E+04</totfact>
</mgrwt>
</event>
<event>
 5    1  0.1336420E-049  0.1250005E+03  0.7818608E-02  0.1235069E+00
          1   -1    0    0  501    0  0.00000000000E+00  0.00000000000E+00  0.78803145555E+01  0.78803159393E+01  0.46700000000E-02 0. -1.
         -1   -1    0    0    0  501 -0.00000000000E+00 -0.00000000000E+00 -0.49570110857E+03  0.49570110859E+03  0.46700000000E-02 0.  1.
         25    2    1    2    0    0  0.00000000000E+00  0.00000000000E+00 -0.48782079401E+03  0.50358142453E+03  0.12500049624E+03 0.  0.
        -13    1    3    3    0    0  0.11159510798E+02 -0.60190063928E+02 -0.29469219970E+03  0.30098319258E+03  0.10570000000E+00 0.  1.
         13    1    3    3    0    0 -0.11159510798E+02  0.60190063928E+02 -0.19312859431E+03  0.20259823195E+03  0.10570000000E+00 0. -1.
<mgrwt>
<rscale>  0 0.12500050E+03</rscale>
<asrwt>0</asrwt>
<pdfrwt beam="1">  1        1 0.12123566E-02 0.12500050E+03</pdfrwt>
<pdfrwt beam="2">  1       -1 0.76261685E-01 0.12500050E+03</pdfrwt>
<totfact> 0.20475658E+04</totfact>
</mgrwt>
</event>
<event>
 5    1  0.1336420E-049  0.1249985E+03  0.7818608E-02  0.1235072E+00
         -1   -1    0    0    0  501 -0.00000000000E+00  0.00000000000E+00  0.37958503056E+02  0.37958503344E+02  0.46700000000E-02 0.  1.
          1   -1    0    0  501    0  0.00000000000E+00 -0.00000000000E+00 -0.10290589013E+03  0.10290589023E+03  0.46700000000E-02 0. -1.
         25    2    1    2    0    0  0.00000000000E+00  0.00000000000E+00 -0.64947387069E+02  0.14086439358E+03  0.12499845715E+03 0.  0.
        -13    1    3    3    0    0 -0.44393463634E+02  0.37014505238E+02 -0.56800412409E+01  0.58078629911E+02  0.10570000000E+00 0.  1.
         13    1    3    3    0    0  0.44393463634E+02 -0.37014505238E+02 -0.59267345828E+02  0.82785763664E+02  0.10570000000E+00 0. -1.
<mgrwt>
<rscale>  0 0.12499846E+03</rscale>
<asrwt>0</asrwt>
<pdfrwt beam="2">  1        1 0.15831675E-01 0.12499846E+03</pdfrwt>
<pdfrwt beam="1">  1       -1 0.58397698E-02 0.12499846E+03</pdfrwt>
<totfact> 0.43602362E+04</totfact>
</mgrwt>
</event>
<event>
 5    1  0.1336420E-049  0.1249987E+03  0.7818608E-02  0.1235071E+00
          1   -1    0    0  501    0  0.00000000000E+00  0.00000000000E+00  0.46433604854E+03  0.46433604857E+03  0.46700000000E-02 0. -1.
         -1   -1    0    0    0  501 -0.00000000000E+00 -0.00000000000E+00 -0.84123738985E+01  0.84123751947E+01  0.46700000000E-02 0.  1.
         25    2    1    2    0    0  0.00000000000E+00  0.00000000000E+00  0.45592367465E+03  0.47274842376E+03  0.12499870026E+03 0.  0.
        -13    1    3    3    0    0  0.50249234550E+02 -0.25828121104E+02  0.32902620946E+03  0.33384178153E+03  0.10570000000E+00 0. -1.
         13    1    3    3    0    0 -0.50249234550E+02  0.25828121104E+02  0.12689746519E+03  0.13890664223E+03  0.10570000000E+00 0.  1.
<mgrwt>
<rscale>  0 0.12499870E+03</rscale>
<asrwt>0</asrwt>
<pdfrwt beam="1">  1        1 0.71436299E-01 0.12499870E+03</pdfrwt>
<pdfrwt beam="2">  1       -1 0.12942118E-02 0.12499870E+03</pdfrwt>
<totfact> 0.58970943E+04</totfact>
</mgrwt>
</event>
<event>
 5    1  0.1336420E-049  0.1249990E+03  0.7818608E-02  0.1235071E+00
         -1   -1    0    0    0  501 -0.00000000000E+00  0.00000000000E+00  0.14331905665E+03  0.14331905672E+03  0.46700000000E-02 0.  1.
          1   -1    0    0  501    0  0.00000000000E+00 -0.00000000000E+00 -0.27255185249E+02  0.27255185649E+02  0.46700000000E-02 0. -1.
         25    2    1    2    0    0  0.00000000000E+00  0.00000000000E+00  0.11606387140E+03  0.17057424237E+03  0.12499899966E+03 0.  0.
        -13    1    3    3    0    0 -0.32158322469E+02 -0.26348722523E+02 -0.56494145496E+01  0.41956405230E+02  0.10570000000E+00 0. -1.
         13    1    3    3    0    0  0.32158322469E+02  0.26348722523E+02  0.12171328595E+03  0.12861783714E+03  0.10570000000E+00 0.  1.
<mgrwt>
<rscale>  0 0.12499900E+03</rscale>
<asrwt>0</asrwt>
<pdfrwt beam="2">  1        1 0.41931054E-02 0.12499900E+03</pdfrwt>
<pdfrwt beam="1">  1       -1 0.22049086E-01 0.12499900E+03</pdfrwt>
<totfact> 0.33170673E+04</totfact>
</mgrwt>
</event>
<event>
 5    1  0.1336420E-049  0.1250014E+03  0.7818608E-02  0.1235067E+00
          1   -1    0    0  501    0  0.00000000000E+00  0.00000000000E+00  0.15694656229E+03  0.15694656236E+03  0.46700000000E-02 0. -1.
         -1   -1    0    0    0  501 -0.00000000000E+00 -0.00000000000E+00 -0.24889607182E+02  0.24889607620E+02  0.46700000000E-02 0.  1.
         25    2    1    2    0    0  0.00000000000E+00  0.00000000000E+00  0.13205695511E+03  0.18183616998E+03  0.12500141327E+03 0.  0.
        -13    1    3    3    0    0  0.20529691195E+02  0.34526806305E+02 -0.36252745691E+01  0.40332646360E+02  0.10570000000E+00 0.  1.
         13    1    3    3    0    0 -0.20529691195E+02 -0.34526806305E+02  0.13568222968E+03  0.14150352362E+03  0.10570000000E+00 0. -1.
<mgrwt>
<rscale>  0 0.12500141E+03</rscale>
<asrwt>0</asrwt>
<pdfrwt beam="1">  1        1 0.24145625E-01 0.12500141E+03</pdfrwt>
<pdfrwt beam="2">  1       -1 0.38291704E-02 0.12500141E+03</pdfrwt>
<totfact> 0.47507053E+04</totfact>
</mgrwt>
</event>
<event>
 5    1  0.1485694E-049  0.1249991E+03  0.7818608E-02  0.1235071E+00
         -1   -1    0    0    0  501 -0.00000000000E+00  0.00000000000E+00  0.11564661564E+03  0.11564661573E+03  0.46700000000E-02 0.  1.
          1   -1    0    0  501    0  0.00000000000E+00 -0.00000000000E+00 -0.33776961067E+02  0.33776961390E+02  0.46700000000E-02 0. -1.
         25    2    1    2    0    0  0.00000000000E+00  0.00000000000E+00  0.81869654570E+02  0.14942357712E+03  0.12499906024E+03 0.  0.
        -13    1    3    3    0    0 -0.57090876788E+02  0.24996372829E+02  0.46540875710E+02  0.77783360376E+02  0.10570000000E+00 0.  1.
         13    1    3    3    0    0  0.57090876788E+02 -0.24996372829E+02  0.35328778860E+02  0.71640216745E+02  0.10570000000E+00 0. -1.
<mgrwt>
<rscale>  0 0.12499906E+03</rscale>
<asrwt>0</asrwt>
<pdfrwt beam="2">  1        1 0.51964555E-02 0.12499906E+03</pdfrwt>
<pdfrwt beam="1">  1       -1 0.17791787E-01 0.12499906E+03</pdfrwt>
<totfact> 0.34880950E+04</totfact>
</mgrwt>
</event>
<event>
 5    1  0.1336420E-049  0.1249990E+03  0.7818608E-02  0.1235071E+00
         -1   -1    0    0    0  501 -0.00000000000E+00  0.00000000000E+00  0.13567255095E+03  0.13567255103E+03  0.46700000000E-02 0.  1.
          1   -1    0    0  501    0  0.00000000000E+00 -0.00000000000E+00 -0.28791271211E+02  0.28791271590E+02  0.46700000000E-02 0. -1.
         25    2    1    2    0    0  0.00000000000E+00  0.00000000000E+00  0.10688127974E+03  0.16446382262E+03  0.12499896396E+03 0.  0.
        -13    1    3    3    0    0  0.33043964317E+02 -0.46687595043E+02  0.86583738972E+02  0.10377085398E+03  0.10570000000E+00 0.  1.
         13    1    3    3    0    0 -0.33043964317E+02  0.46687595043E+02  0.20297540764E+02  0.60692968639E+02  0.10570000000E+00 0. -1.
<mgrwt>
<rscale>  0 0.12499896E+03</rscale>
<asrwt>0</asrwt>
<pdfrwt beam="2">  1        1 0.44294264E-02 0.12499896E+03</pdfrwt>
<pdfrwt beam="1">  1       -1 0.20872700E-01 0.12499896E+03</pdfrwt>
<totfact> 0.33615822E+04</totfact>
</mgrwt>
</event>
<event>
 5    1  0.1336420E-049  0.1250022E+03  0.7818608E-02  0.1235066E+00
         -1   -1    0    0    0  501 -0.00000000000E+00  0.00000000000E+00  0.11225353850E+03  0.11225353860E+03  0.46700000000E-02 0.  1.
          1   -1    0    0  501    0  0.00000000000E+00 -0.00000000000E+00 -0.34799681637E+02  0.34799681950E+02  0.46700000000E-02 0. -1.
         25    2    1    2    0    0  0.00000000000E+00  0.00000000000E+00  0.77453856866E+02  0.14705322055E+03  0.12500219890E+03 0.  0.
        -13    1    3    3    0    0 -0.27936672111E+02  0.20670447258E+02  0.99839458950E+02  0.10571496476E+03  0.10570000000E+00 0.  1.
         13    1    3    3    0    0  0.27936672111E+02 -0.20670447258E+02 -0.22385602084E+02  0.41338255789E+02  0.10570000000E+00 0. -1.
<mgrwt>
<rscale>  0 0.12500220E+03</rscale>
<asrwt>0</asrwt>
<pdfrwt beam="2">  1        1 0.53537972E-02 0.12500220E+03</pdfrwt>
<pdfrwt beam="1">  1       -1 0.17269775E-01 0.12500220E+03</pdfrwt>
<totfact> 0.35110110E+04</totfact>
</mgrwt>
</event>
<event>
 5    1  0.1336420E-049  0.1250009E+03  0.7818608E-02  0.1235068E+00
          1   -1    0    0  501    0  0.00000000000E+00  0.00000000000E+00  0.21871393542E+03  0.21871393547E+03  0.46700000000E-02 0. -1.
         -1   -1    0    0    0  501 -0.00000000000E+00 -0.00000000000E+00 -0.17860348271E+02  0.17860348881E+02  0.46700000000E-02 0.  1.
         25    2    1    2    0    0  0.00000000000E+00  0.00000000000E+00  0.20085358714E+03  0.23657428435E+03  0.12500091418E+03 0.  0.
        -13    1    3    3    0    0  0.48670077251E+01 -0.58814634214E+02  0.13937198806E+03  0.15135194478E+03  0.10570000000E+00 0.  1.
         13    1    3    3    0    0 -0.48670077251E+01  0.58814634214E+02  0.61481599085E+02  0.85222339563E+02  0.10570000000E+00 0. -1.
<mgrwt>
<rscale>  0 0.12500091E+03</rscale>
<asrwt>0</asrwt>
<pdfrwt beam="1">  1        1 0.33648298E-01 0.12500091E+03</pdfrwt>
<pdfrwt beam="2">  1       -1 0.27477459E-02 0.12500091E+03</pdfrwt>
<totfact> 0.50972015E+04</totfact>
</mgrwt>
</event>
<event>
 5    1  0.1336420E-049  0.1250005E+03  0.7818608E-02  0.1235068E+00
          1   -1    0    0  501    0  0.00000000000E+00  0.00000000000E+00  0.52281645061E+02  0.52281645270E+02  0.46700000000E-02 0.  1.
         -1   -1    0    0    0  501 -0.00000000000E+00 -0.00000000000E+00 -0.74716119732E+02  0.74716119878E+02  0.46700000000E-02 0. -1.
         25    2    1    2    0    0  0.00000000000E+00  0.00000000000E+00 -0.22434474671E+02  0.12699776515E+03  0.12500050679E+03 0.  0.
        -13    1    3    3    0    0 -0.57254603187E+02 -0.23848432010E+02 -0.33847646922E+01  0.62115256579E+02  0.10570000000E+00 0. -1.
         13    1    3    3    0    0  0.57254603187E+02  0.23848432010E+02 -0.19049709979E+02  0.64882508569E+02  0.10570000000E+00 0.  1.
<mgrwt>
<rscale>  0 0.12500051E+03</rscale>
<asrwt>0</asrwt>
<pdfrwt beam="1">  1        1 0.80433300E-02 0.12500051E+03</pdfrwt>
<pdfrwt beam="2">  1       -1 0.11494788E-01 0.12500051E+03</pdfrwt>
<totfact> 0.38208175E+04</totfact>
</mgrwt>
</event>
<event>
 5    1  0.1336420E-049  0.1249995E+03  0.7818608E-02  0.1235070E+00
         -1   -1    0    0    0  501 -0.00000000000E+00  0.00000000000E+00  0.13404508391E+03  0.13404508399E+03  0.46700000000E-02 0.  1.
          1   -1    0    0  501    0  0.00000000000E+00 -0.00000000000E+00 -0.29141099654E+02  0.29141100028E+02  0.46700000000E-02 0. -1.
         25    2    1    2    0    0  0.00000000000E+00  0.00000000000E+00  0.10490398425E+03  0.16318618402E+03  0.12499953897E+03 0.  0.
        -13    1    3    3    0    0 -0.98913279309E+01 -0.58259616209E+02  0.79020926271E+02  0.98672889946E+02  0.10570000000E+00 0.  1.
         13    1    3    3    0    0  0.98913279309E+01  0.58259616209E+02  0.25883057983E+02  0.64513294072E+02  0.10570000000E+00 0. -1.
<mgrwt>
<rscale>  0 0.12499954E+03</rscale>
<asrwt>0</asrwt>
<pdfrwt beam="2">  1        1 0.44832462E-02 0.12499954E+03</pdfrwt>
<pdfrwt beam="1">  1       -1 0.20622321E-01 0.12499954E+03</pdfrwt>
<totfact> 0.33712592E+04</totfact>
</mgrwt>
</event>
<event>
 5    1  0.1336420E-049  0.1250012E+03  0.7818608E-02  0.1235067E+00
         -1   -1    0    0    0  501 -0.00000000000E+00  0.00000000000E+00  0.57284852411E+02  0.57284852602E+02  0.46700000000E-02 0.  1.
          1   -1    0    0  501    0  0.00000000000E+00 -0.00000000000E+00 -0.68191187943E+02  0.68191188103E+02  0.46700000000E-02 0. -1.
         25    2    1    2    0    0  0.00000000000E+00  0.00000000000E+00 -0.10906335532E+02  0.12547604071E+03  0.12500115454E+03 0.  0.
        -13    1    3    3    0    0 -0.44830141573E+02  0.40702986411E+02  0.10092315632E+02  0.61386812130E+02  0.10570000000E+00 0.  1.
         13    1    3    3    0    0  0.44830141573E+02 -0.40702986411E+02 -0.20998651164E+02  0.64089228575E+02  0.10570000000E+00 0. -1.
<mgrwt>
<rscale>  0 0.12500115E+03</rscale>
<asrwt>0</asrwt>
<pdfrwt beam="2">  1        1 0.10490952E-01 0.12500115E+03</pdfrwt>
<pdfrwt beam="1">  1       -1 0.88130543E-02 0.12500115E+03</pdfrwt>
<totfact> 0.40241358E+04</totfact>
</mgrwt>
</event>
<event>
 5    1  0.1336420E-049  0.1249989E+03  0.7818608E-02  0.1235071E+00
         -1   -1    0    0    0  501 -0.00000000000E+00  0.00000000000E+00  0.19403192047E+03  0.19403192053E+03  0.46700000000E-02 0.  1.
          1   -1    0    0  501    0  0.00000000000E+00 -0.00000000000E+00 -0.20131651531E+02  0.20131652073E+02  0.46700000000E-02 0. -1.
         25    2    1    2    0    0  0.00000000000E+00  0.00000000000E+00  0.17390026894E+03  0.21416357260E+03  0.12499892916E+03 0.  0.
        -13    1    3    3    0    0  0.54924913781E+02  0.29303408246E+02  0.77451458619E+02  0.99368885993E+02  0.10570000000E+00 0.  1.
         13    1    3    3    0    0 -0.54924913781E+02 -0.29303408246E+02  0.96448810320E+02  0.11479468661E+03  0.10570000000E+00 0. -1.
<mgrwt>
<rscale>  0 0.12499893E+03</rscale>
<asrwt>0</asrwt>
<pdfrwt beam="2">  1        1 0.30971770E-02 0.12499893E+03</pdfrwt>
<pdfrwt beam="1">  1       -1 0.29851066E-01 0.12499893E+03</pdfrwt>
<totfact> 0.30579625E+04</totfact>
</mgrwt>
</event>
<event>
 5    1  0.1336420E-049  0.1249989E+03  0.7818608E-02  0.1235071E+00
         -1   -1    0    0    0  501 -0.00000000000E+00  0.00000000000E+00  0.30133418972E+02  0.30133419334E+02  0.46700000000E-02 0.  1.
          1   -1    0    0  501    0  0.00000000000E+00 -0.00000000000E+00 -0.12962953427E+03  0.12962953436E+03  0.46700000000E-02 0. -1.
         25    2    1    2    0    0  0.00000000000E+00  0.00000000000E+00 -0.99496115299E+02  0.15976295369E+03  0.12499889764E+03 0.  0.
        -13    1    3    3    0    0 -0.47064135719E+02 -0.32107658625E+02 -0.16906838259E+02  0.59428839512E+02  0.10570000000E+00 0.  1.
         13    1    3    3    0    0  0.47064135719E+02  0.32107658625E+02 -0.82589277039E+02  0.10033411418E+03  0.10570000000E+00 0. -1.
<mgrwt>
<rscale>  0 0.12499890E+03</rscale>
<asrwt>0</asrwt>
<pdfrwt beam="2">  1        1 0.19943005E-01 0.12499890E+03</pdfrwt>
<pdfrwt beam="1">  1       -1 0.46359107E-02 0.12499890E+03</pdfrwt>
<totfact> 0.45670290E+04</totfact>
</mgrwt>
</event>
<event>
 5    1  0.1336420E-049  0.1249941E+03  0.7818608E-02  0.1235078E+00
         -1   -1    0    0    0  501 -0.00000000000E+00  0.00000000000E+00  0.26532552247E+03  0.26532552251E+03  0.46700000000E-02 0.  1.
          1   -1    0    0  501    0  0.00000000000E+00 -0.00000000000E+00 -0.14721094817E+02  0.14721095558E+02  0.46700000000E-02 0. -1.
         25    2    1    2    0    0  0.00000000000E+00  0.00000000000E+00  0.25060442765E+03  0.28004661807E+03  0.12499411639E+03 0.  0.
        -13    1    3    3    0    0 -0.16257587673E+02 -0.42244196545E+02  0.22185071188E+03  0.22642135684E+03  0.10570000000E+00 0.  1.
         13    1    3    3    0    0  0.16257587673E+02  0.42244196545E+02  0.28753715770E+02  0.53625261228E+02  0.10570000000E+00 0. -1.
<mgrwt>
<rscale>  0 0.12499412E+03</rscale>
<asrwt>0</asrwt>
<pdfrwt beam="2">  1        1 0.22647838E-02 0.12499412E+03</pdfrwt>
<pdfrwt beam="1">  1       -1 0.40819312E-01 0.12499412E+03</pdfrwt>
<totfact> 0.27603134E+04</totfact>
</mgrwt>
</event>
<event>
 5    1  0.1336420E-049  0.1249990E+03  0.7818608E-02  0.1235071E+00
         -1   -1    0    0    0  501 -0.00000000000E+00  0.00000000000E+00  0.17694069124E+02  0.17694069740E+02  0.46700000000E-02 0.  1.
          1   -1    0    0  501    0  0.00000000000E+00 -0.00000000000E+00 -0.22076250825E+03  0.22076250830E+03  0.46700000000E-02 0. -1.
         25    2    1    2    0    0  0.00000000000E+00  0.00000000000E+00 -0.20306843913E+03  0.23845657804E+03  0.12499899456E+03 0.  0.
        -13    1    3    3    0    0 -0.33233724235E+02 -0.50937435537E+02 -0.74082803108E+02  0.95850798925E+02  0.10570000000E+00 0.  1.
         13    1    3    3    0    0  0.33233724235E+02  0.50937435537E+02 -0.12898563602E+03  0.14260577912E+03  0.10570000000E+00 0. -1.
<mgrwt>
<rscale>  0 0.12499899E+03</rscale>
<asrwt>0</asrwt>
<pdfrwt beam="2">  1        1 0.33963461E-01 0.12499899E+03</pdfrwt>
<pdfrwt beam="1">  1       -1 0.27221647E-02 0.12499899E+03</pdfrwt>
<totfact> 0.51075696E+04</totfact>
</mgrwt>
</event>
<event>
 5    1  0.1336420E-049  0.1250001E+03  0.7818608E-02  0.1235069E+00
          1   -1    0    0  501    0  0.00000000000E+00  0.00000000000E+00  0.17402548148E+03  0.17402548154E+03  0.46700000000E-02 0.  1.
         -1   -1    0    0    0  501 -0.00000000000E+00 -0.00000000000E+00 -0.22446476155E+02  0.22446476641E+02  0.46700000000E-02 0. -1.
         25    2    1    2    0    0  0.00000000000E+00  0.00000000000E+00  0.15157900532E+03  0.19647195818E+03  0.12500014199E+03 0.  0.
        -13    1    3    3    0    0  0.53959378389E+02  0.31525097915E+02  0.77196558153E+02  0.99321528773E+02  0.10570000000E+00 0.  1.
         13    1    3    3    0    0 -0.53959378389E+02 -0.31525097915E+02  0.74382447169E+02  0.97150429407E+02  0.10570000000E+00 0. -1.
<mgrwt>
<rscale>  0 0.12500014E+03</rscale>
<asrwt>0</asrwt>
<pdfrwt beam="1">  1        1 0.26773151E-01 0.12500014E+03</pdfrwt>
<pdfrwt beam="2">  1       -1 0.34533041E-02 0.12500014E+03</pdfrwt>
<totfact> 0.48549295E+04</totfact>
</mgrwt>
</event>
<event>
 5    1  0.1336420E-049  0.1250007E+03  0.7818608E-02  0.1235068E+00
          1   -1    0    0  501    0  0.00000000000E+00  0.00000000000E+00  0.70310398396E+02  0.70310398551E+02  0.46700000000E-02 0. -1.
         -1   -1    0    0    0  501 -0.00000000000E+00 -0.00000000000E+00 -0.55557856745E+02  0.55557856942E+02  0.46700000000E-02 0.  1.
         25    2    1    2    0    0  0.00000000000E+00  0.00000000000E+00  0.14752541651E+02  0.12586825549E+03  0.12500072102E+03 0.  0.
        -13    1    3    3    0    0  0.29528082681E+02  0.22642104485E+02  0.57941430118E+02  0.68860678612E+02  0.10570000000E+00 0. -1.
         13    1    3    3    0    0 -0.29528082681E+02 -0.22642104485E+02 -0.43188888467E+02  0.57007576881E+02  0.10570000000E+00 0.  1.
<mgrwt>
<rscale>  0 0.12500072E+03</rscale>
<asrwt>0</asrwt>
<pdfrwt beam="1">  1        1 0.10816984E-01 0.12500072E+03</pdfrwt>
<pdfrwt beam="2">  1       -1 0.85473626E-02 0.12500072E+03</pdfrwt>
<totfact> 0.40480577E+04</totfact>
</mgrwt>
</event>
<event>
 5    1  0.1336420E-049  0.1250001E+03  0.7818608E-02  0.1235069E+00
         -1   -1    0    0    0  501 -0.00000000000E+00  0.00000000000E+00  0.42296370802E+03  0.42296370805E+03  0.46700000000E-02 0.  1.
          1   -1    0    0  501    0  0.00000000000E+00 -0.00000000000E+00 -0.92354437828E+01  0.92354449635E+01  0.46700000000E-02 0. -1.
         25    2    1    2    0    0  0.00000000000E+00  0.00000000000E+00  0.41372826424E+03  0.43219915301E+03  0.12500012493E+03 0.  0.
        -13    1    3    3    0    0  0.83438776193E+01 -0.61767815292E+02  0.22284528114E+03  0.23139773940E+03  0.10570000000E+00 0.  1.
         13    1    3    3    0    0 -0.83438776193E+01  0.61767815292E+02  0.19088298310E+03  0.20080141362E+03  0.10570000000E+00 0. -1.
<mgrwt>
<rscale>  0 0.12500012E+03</rscale>
<asrwt>0</asrwt>
<pdfrwt beam="2">  1        1 0.14208378E-02 0.12500012E+03</pdfrwt>
<pdfrwt beam="1">  1       -1 0.65071329E-01 0.12500012E+03</pdfrwt>
<totfact> 0.22437131E+04</totfact>
</mgrwt>
</event>
<event>
 5    1  0.1336420E-049  0.1250004E+03  0.7818608E-02  0.1235069E+00
         -1   -1    0    0    0  501 -0.00000000000E+00  0.00000000000E+00  0.24759095083E+03  0.24759095087E+03  0.46700000000E-02 0.  1.
          1   -1    0    0  501    0  0.00000000000E+00 -0.00000000000E+00 -0.15777140056E+02  0.15777140747E+02  0.46700000000E-02 0. -1.
         25    2    1    2    0    0  0.00000000000E+00  0.00000000000E+00  0.23181381077E+03  0.26336809162E+03  0.12500043527E+03 0.  0.
        -13    1    3    3    0    0  0.38941387407E+02  0.46686396184E+02  0.85358871333E+02  0.10479598909E+03  0.10570000000E+00 0. -1.
         13    1    3    3    0    0 -0.38941387407E+02 -0.46686396184E+02  0.14645493944E+03  0.15857210253E+03  0.10570000000E+00 0.  1.
<mgrwt>
<rscale>  0 0.12500044E+03</rscale>
<asrwt>0</asrwt>
<pdfrwt beam="2">  1        1 0.24272524E-02 0.12500044E+03</pdfrwt>
<pdfrwt beam="1">  1       -1 0.38090916E-01 0.12500044E+03</pdfrwt>
<totfact> 0.28289051E+04</totfact>
</mgrwt>
</event>
<event>
 5    1  0.1336420E-049  0.1250027E+03  0.7818608E-02  0.1235065E+00
          1   -1    0    0  501    0  0.00000000000E+00  0.00000000000E+00  0.42361341991E+03  0.42361341993E+03  0.46700000000E-02 0. -1.
         -1   -1    0    0    0  501 -0.00000000000E+00 -0.00000000000E+00 -0.92216578848E+01  0.92216590673E+01  0.46700000000E-02 0.  1.
         25    2    1    2    0    0  0.00000000000E+00  0.00000000000E+00  0.41439176202E+03  0.43283507900E+03  0.12500269270E+03 0.  0.
        -13    1    3    3    0    0  0.48822983902E+01 -0.61805970199E+02  0.17980136373E+03  0.19019031617E+03  0.10570000000E+00 0.  1.
         13    1    3    3    0    0 -0.48822983902E+01  0.61805970199E+02  0.23459039829E+03  0.24264476283E+03  0.10570000000E+00 0. -1.
<mgrwt>
<rscale>  0 0.12500269E+03</rscale>
<asrwt>0</asrwt>
<pdfrwt beam="1">  1        1 0.65171276E-01 0.12500269E+03</pdfrwt>
<pdfrwt beam="2">  1       -1 0.14187171E-02 0.12500269E+03</pdfrwt>
<totfact> 0.58131861E+04</totfact>
</mgrwt>
</event>
<event>
 5    1  0.1336420E-049  0.1249983E+03  0.7818608E-02  0.1235072E+00
          1   -1    0    0  501    0  0.00000000000E+00  0.00000000000E+00  0.58089421591E+02  0.58089421779E+02  0.46700000000E-02 0. -1.
         -1   -1    0    0    0  501 -0.00000000000E+00 -0.00000000000E+00 -0.67243631039E+02  0.67243631201E+02  0.46700000000E-02 0.  1.
         25    2    1    2    0    0  0.00000000000E+00  0.00000000000E+00 -0.91542094475E+01  0.12533305298E+03  0.12499829846E+03 0.  0.
        -13    1    3    3    0    0  0.43749089685E+02  0.43936747419E+02  0.32996230493E+01  0.62091217630E+02  0.10570000000E+00 0.  1.
         13    1    3    3    0    0 -0.43749089685E+02 -0.43936747419E+02 -0.12453832497E+02  0.63241835350E+02  0.10570000000E+00 0. -1.
<mgrwt>
<rscale>  0 0.12499830E+03</rscale>
<asrwt>0</asrwt>
<pdfrwt beam="1">  1        1 0.89368342E-02 0.12499830E+03</pdfrwt>
<pdfrwt beam="2">  1       -1 0.10345174E-01 0.12499830E+03</pdfrwt>
<totfact> 0.39009636E+04</totfact>
</mgrwt>
</event>
<event>
 5    1  0.1336420E-049  0.1250015E+03  0.7818608E-02  0.1235067E+00
         -1   -1    0    0    0  501 -0.00000000000E+00  0.00000000000E+00  0.85283733792E+01  0.85283746578E+01  0.46700000000E-02 0.  1.
          1   -1    0    0  501    0  0.00000000000E+00 -0.00000000000E+00 -0.45804096797E+03  0.45804096799E+03  0.46700000000E-02 0. -1.
         25    2    1    2    0    0  0.00000000000E+00  0.00000000000E+00 -0.44951259459E+03  0.46656934265E+03  0.12500151522E+03 0.  0.
        -13    1    3    3    0    0 -0.82568275818E+01  0.61937480886E+02 -0.22991039010E+03  0.23825034185E+03  0.10570000000E+00 0.  1.
         13    1    3    3    0    0  0.82568275818E+01 -0.61937480886E+02 -0.21960220448E+03  0.22831900080E+03  0.10570000000E+00 0. -1.
<mgrwt>
<rscale>  0 0.12500152E+03</rscale>
<asrwt>0</asrwt>
<pdfrwt beam="2">  1        1 0.70467822E-01 0.12500152E+03</pdfrwt>
<pdfrwt beam="1">  1       -1 0.13120579E-02 0.12500152E+03</pdfrwt>
<totfact> 0.58849345E+04</totfact>
</mgrwt>
</event>
<event>
 5    1  0.1336420E-049  0.1249992E+03  0.7818608E-02  0.1235070E+00
          1   -1    0    0  501    0  0.00000000000E+00  0.00000000000E+00  0.95385906174E+02  0.95385906289E+02  0.46700000000E-02 0. -1.
         -1   -1    0    0    0  501 -0.00000000000E+00 -0.00000000000E+00 -0.40951566080E+02  0.40951566346E+02  0.46700000000E-02 0.  1.
         25    2    1    2    0    0  0.00000000000E+00  0.00000000000E+00  0.54434340095E+02  0.13633747263E+03  0.12499923625E+03 0.  0.
        -13    1    3    3    0    0  0.19070688478E+02 -0.50671892913E+02 -0.68376686389E+01  0.54571941283E+02  0.10570000000E+00 0.  1.
         13    1    3    3    0    0 -0.19070688478E+02  0.50671892913E+02  0.61272008734E+02  0.81765531352E+02  0.10570000000E+00 0. -1.
<mgrwt>
<rscale>  0 0.12499924E+03</rscale>
<asrwt>0</asrwt>
<pdfrwt beam="1">  1        1 0.14674755E-01 0.12499924E+03</pdfrwt>
<pdfrwt beam="2">  1       -1 0.63002410E-02 0.12499924E+03</pdfrwt>
<totfact> 0.42954386E+04</totfact>
</mgrwt>
</event>
<event>
 5    1  0.1336420E-049  0.1249964E+03  0.7818608E-02  0.1235075E+00
          1   -1    0    0  501    0  0.00000000000E+00  0.00000000000E+00  0.26992338442E+02  0.26992338846E+02  0.46700000000E-02 0. -1.
         -1   -1    0    0    0  501 -0.00000000000E+00 -0.00000000000E+00 -0.14470872221E+03  0.14470872229E+03  0.46700000000E-02 0.  1.
         25    2    1    2    0    0  0.00000000000E+00  0.00000000000E+00 -0.11771638377E+03  0.17170106113E+03  0.12499642949E+03 0.  0.
        -13    1    3    3    0    0  0.57653601686E+02 -0.22284833198E+02 -0.46159259131E+02  0.77144280112E+02  0.10570000000E+00 0. -1.
         13    1    3    3    0    0 -0.57653601686E+02  0.22284833198E+02 -0.71557124641E+02  0.94556781023E+02  0.10570000000E+00 0.  1.
<mgrwt>
<rscale>  0 0.12499643E+03</rscale>
<asrwt>0</asrwt>
<pdfrwt beam="1">  1        1 0.41526676E-02 0.12499643E+03</pdfrwt>
<pdfrwt beam="2">  1       -1 0.22262880E-01 0.12499643E+03</pdfrwt>
<totfact> 0.33093445E+04</totfact>
</mgrwt>
</event>
<event>
 5    1  0.1336420E-049  0.1249884E+03  0.7818608E-02  0.1235087E+00
         -1   -1    0    0    0  501 -0.00000000000E+00  0.00000000000E+00  0.11998080383E+02  0.11998081292E+02  0.46700000000E-02 0.  1.
          1   -1    0    0  501    0  0.00000000000E+00 -0.00000000000E+00 -0.32551240283E+03  0.32551240286E+03  0.46700000000E-02 0. -1.
         25    2    1    2    0    0  0.00000000000E+00  0.00000000000E+00 -0.31351432244E+03  0.33751048415E+03  0.12498838560E+03 0.  0.
        -13    1    3    3    0    0  0.89024879396E+01 -0.53251604903E+02 -0.71770575183E+02  0.89810992372E+02  0.10570000000E+00 0.  1.
         13    1    3    3    0    0 -0.89024879396E+01  0.53251604903E+02 -0.24174374726E+03  0.24769949178E+03  0.10570000000E+00 0. -1.
<mgrwt>
<rscale>  0 0.12498839E+03</rscale>
<asrwt>0</asrwt>
<pdfrwt beam="2">  1        1 0.50078825E-01 0.12498839E+03</pdfrwt>
<pdfrwt beam="1">  1       -1 0.18458588E-02 0.12498839E+03</pdfrwt>
<totfact> 0.55403802E+04</totfact>
</mgrwt>
</event>
<event>
 5    1  0.1336420E-049  0.1250007E+03  0.7818608E-02  0.1235068E+00
         -1   -1    0    0    0  501 -0.00000000000E+00  0.00000000000E+00  0.11177887447E+02  0.11177888423E+02  0.46700000000E-02 0.  1.
          1   -1    0    0  501    0  0.00000000000E+00 -0.00000000000E+00 -0.34946643500E+03  0.34946643503E+03  0.46700000000E-02 0. -1.
         25    2    1    2    0    0  0.00000000000E+00  0.00000000000E+00 -0.33828854756E+03  0.36064432346E+03  0.12500074654E+03 0.  0.
        -13    1    3    3    0    0 -0.59287810876E+02  0.16807207359E+02 -0.13905590838E+03  0.15209892691E+03  0.10570000000E+00 0.  1.
         13    1    3    3    0    0  0.59287810876E+02 -0.16807207359E+02 -0.19923263917E+03  0.20854539655E+03  0.10570000000E+00 0. -1.
<mgrwt>
<rscale>  0 0.12500075E+03</rscale>
<asrwt>0</asrwt>
<pdfrwt beam="2">  1        1 0.53764059E-01 0.12500075E+03</pdfrwt>
<pdfrwt beam="1">  1       -1 0.17196753E-02 0.12500075E+03</pdfrwt>
<totfact> 0.56160984E+04</totfact>
</mgrwt>
</event>
<event>
 5    1  0.1336420E-049  0.1249992E+03  0.7818608E-02  0.1235071E+00
         -1   -1    0    0    0  501 -0.00000000000E+00  0.00000000000E+00  0.12933330200E+03  0.12933330209E+03  0.46700000000E-02 0. -1.
          1   -1    0    0  501    0  0.00000000000E+00 -0.00000000000E+00 -0.30202566757E+02  0.30202567118E+02  0.46700000000E-02 0.  1.
         25    2    1    2    0    0  0.00000000000E+00  0.00000000000E+00  0.99130735246E+02  0.15953586921E+03  0.12499916357E+03 0.  0.
        -13    1    3    3    0    0  0.45277358418E+02  0.37338125731E+02  0.76998647738E+02  0.96814140209E+02  0.10570000000E+00 0. -1.
         13    1    3    3    0    0 -0.45277358418E+02 -0.37338125731E+02  0.22132087508E+02  0.62721728996E+02  0.10570000000E+00 0.  1.
<mgrwt>
<rscale>  0 0.12499916E+03</rscale>
<asrwt>0</asrwt>
<pdfrwt beam="2">  1        1 0.46465488E-02 0.12499916E+03</pdfrwt>
<pdfrwt beam="1">  1       -1 0.19897431E-01 0.12499916E+03</pdfrwt>
<totfact> 0.33999422E+04</totfact>
</mgrwt>
</event>
<event>
 5    1  0.1336420E-049  0.1249934E+03  0.7818608E-02  0.1235080E+00
          1   -1    0    0  501    0  0.00000000000E+00  0.00000000000E+00  0.42531528328E+02  0.42531528584E+02  0.46700000000E-02 0. -1.
         -1   -1    0    0    0  501 -0.00000000000E+00 -0.00000000000E+00 -0.91833995884E+02  0.91833996003E+02  0.46700000000E-02 0.  1.
         25    2    1    2    0    0  0.00000000000E+00  0.00000000000E+00 -0.49302467556E+02  0.13436552459E+03  0.12499344339E+03 0.  0.
        -13    1    3    3    0    0  0.34578972214E+02  0.39442908001E+02  0.11872498912E+02  0.53781183641E+02  0.10570000000E+00 0. -1.
         13    1    3    3    0    0 -0.34578972214E+02 -0.39442908001E+02 -0.61174966468E+02  0.80584340946E+02  0.10570000000E+00 0.  1.
<mgrwt>
<rscale>  0 0.12499344E+03</rscale>
<asrwt>0</asrwt>
<pdfrwt beam="1">  1        1 0.65433121E-02 0.12499344E+03</pdfrwt>
<pdfrwt beam="2">  1       -1 0.14128307E-01 0.12499344E+03</pdfrwt>
<totfact> 0.36654074E+04</totfact>
</mgrwt>
</event>
<event>
 5    1  0.1336420E-049  0.1249985E+03  0.7818608E-02  0.1235072E+00
         -1   -1    0    0    0  501 -0.00000000000E+00  0.00000000000E+00  0.20527796701E+03  0.20527796706E+03  0.46700000000E-02 0.  1.
          1   -1    0    0  501    0  0.00000000000E+00 -0.00000000000E+00 -0.19028603865E+02  0.19028604438E+02  0.46700000000E-02 0. -1.
         25    2    1    2    0    0  0.00000000000E+00  0.00000000000E+00  0.18624936314E+03  0.22430657150E+03  0.12499845098E+03 0.  0.
        -13    1    3    3    0    0  0.28165399854E+02 -0.52934323260E+02  0.12476090533E+03  0.13842191662E+03  0.10570000000E+00 0.  1.
         13    1    3    3    0    0 -0.28165399854E+02  0.52934323260E+02  0.61488457812E+02  0.85884654884E+02  0.10570000000E+00 0. -1.
<mgrwt>
<rscale>  0 0.12499845E+03</rscale>
<asrwt>0</asrwt>
<pdfrwt beam="2">  1        1 0.29274774E-02 0.12499845E+03</pdfrwt>
<pdfrwt beam="1">  1       -1 0.31581228E-01 0.12499845E+03</pdfrwt>
<totfact> 0.30068593E+04</totfact>
</mgrwt>
</event>
<event>
 5    1  0.1336420E-049  0.1250001E+03  0.7818608E-02  0.1235069E+00
          1   -1    0    0  501    0  0.00000000000E+00  0.00000000000E+00  0.17141079117E+02  0.17141079753E+02  0.46700000000E-02 0. -1.
         -1   -1    0    0    0  501 -0.00000000000E+00 -0.00000000000E+00 -0.22788840822E+03  0.22788840827E+03  0.46700000000E-02 0.  1.
         25    2    1    2    0    0  0.00000000000E+00  0.00000000000E+00 -0.21074732911E+03  0.24502948802E+03  0.12500005310E+03 0.  0.
        -13    1    3    3    0    0  0.60775124618E+02  0.14580827483E+02 -0.10505853561E+03  0.12224370487E+03  0.10570000000E+00 0.  1.
         13    1    3    3    0    0 -0.60775124618E+02 -0.14580827483E+02 -0.10568879349E+03  0.12278578315E+03  0.10570000000E+00 0. -1.
<mgrwt>
<rscale>  0 0.12500005E+03</rscale>
<asrwt>0</asrwt>
<pdfrwt beam="1">  1        1 0.26370893E-02 0.12500005E+03</pdfrwt>
<pdfrwt beam="2">  1       -1 0.35059753E-01 0.12500005E+03</pdfrwt>
<totfact> 0.29091219E+04</totfact>
</mgrwt>
</event>
<event>
 5    1  0.1336420E-049  0.1249995E+03  0.7818608E-02  0.1235070E+00
          1   -1    0    0  501    0  0.00000000000E+00  0.00000000000E+00  0.32233201613E+02  0.32233201952E+02  0.46700000000E-02 0. -1.
         -1   -1    0    0    0  501 -0.00000000000E+00 -0.00000000000E+00 -0.12118628033E+03  0.12118628042E+03  0.46700000000E-02 0.  1.
         25    2    1    2    0    0  0.00000000000E+00  0.00000000000E+00 -0.88953078722E+02  0.15341948238E+03  0.12499954943E+03 0.  0.
        -13    1    3    3    0    0  0.61310364473E+02  0.11958447156E+02 -0.47005442751E+02  0.78176007003E+02  0.10570000000E+00 0.  1.
         13    1    3    3    0    0 -0.61310364473E+02 -0.11958447156E+02 -0.41947635971E+02  0.75243475374E+02  0.10570000000E+00 0. -1.
<mgrwt>
<rscale>  0 0.12499955E+03</rscale>
<asrwt>0</asrwt>
<pdfrwt beam="1">  1        1 0.49589542E-02 0.12499955E+03</pdfrwt>
<pdfrwt beam="2">  1       -1 0.18644043E-01 0.12499955E+03</pdfrwt>
<totfact> 0.34514532E+04</totfact>
</mgrwt>
</event>
<event>
 5    1  0.1336420E-049  0.1249997E+03  0.7818608E-02  0.1235070E+00
          1   -1    0    0  501    0  0.00000000000E+00  0.00000000000E+00  0.10372291662E+02  0.10372292713E+02  0.46700000000E-02 0. -1.
         -1   -1    0    0    0  501 -0.00000000000E+00 -0.00000000000E+00 -0.37660276236E+03  0.37660276239E+03  0.46700000000E-02 0.  1.
         25    2    1    2    0    0  0.00000000000E+00  0.00000000000E+00 -0.36623047070E+03  0.38697505510E+03  0.12499974241E+03 0.  0.
        -13    1    3    3    0    0  0.66454567520E+01  0.56976912879E+02 -0.10629854013E+03  0.12078874742E+03  0.10570000000E+00 0.  1.
         13    1    3    3    0    0 -0.66454567520E+01 -0.56976912879E+02 -0.25993193057E+03  0.26618630769E+03  0.10570000000E+00 0. -1.
<mgrwt>
<rscale>  0 0.12499974E+03</rscale>
<asrwt>0</asrwt>
<pdfrwt beam="1">  1        1 0.15957375E-02 0.12499974E+03</pdfrwt>
<pdfrwt beam="2">  1       -1 0.57938876E-01 0.12499974E+03</pdfrwt>
<totfact> 0.23809521E+04</totfact>
</mgrwt>
</event>
<event>
 5    1  0.1336420E-049  0.1250016E+03  0.7818608E-02  0.1235067E+00
          1   -1    0    0  501    0  0.00000000000E+00  0.00000000000E+00  0.14313404752E+03  0.14313404760E+03  0.46700000000E-02 0. -1.
         -1   -1    0    0    0  501 -0.00000000000E+00 -0.00000000000E+00 -0.27291537908E+02  0.27291538308E+02  0.46700000000E-02 0.  1.
         25    2    1    2    0    0  0.00000000000E+00  0.00000000000E+00  0.11584250961E+03  0.17042558591E+03  0.12500157318E+03 0.  0.
        -13    1    3    3    0    0  0.89909773104E+00 -0.61982106828E+02  0.47035716704E+02  0.77813621956E+02  0.10570000000E+00 0.  1.
         13    1    3    3    0    0 -0.89909773104E+00  0.61982106828E+02  0.68806792911E+02  0.92611963951E+02  0.10570000000E+00 0. -1.
<mgrwt>
<rscale>  0 0.12500157E+03</rscale>
<asrwt>0</asrwt>
<pdfrwt beam="1">  1        1 0.22020622E-01 0.12500157E+03</pdfrwt>
<pdfrwt beam="2">  1       -1 0.41986982E-02 0.12500157E+03</pdfrwt>
<totfact> 0.46606898E+04</totfact>
</mgrwt>
</event>
<event>
 5    1  0.1336420E-049  0.1250007E+03  0.7818608E-02  0.1235068E+00
          1   -1    0    0  501    0  0.00000000000E+00  0.00000000000E+00  0.10910624484E+03  0.10910624494E+03  0.46700000000E-02 0. -1.
         -1   -1    0    0    0  501 -0.00000000000E+00 -0.00000000000E+00 -0.35802683234E+02  0.35802683539E+02  0.46700000000E-02 0.  1.
         25    2    1    2    0    0  0.00000000000E+00  0.00000000000E+00  0.73303561604E+02  0.14490892848E+03  0.12500074163E+03 0.  0.
        -13    1    3    3    0    0 -0.56592394912E+02 -0.36882352087E+01  0.62007687300E+01  0.57050529762E+02  0.10570000000E+00 0.  1.
         13    1    3    3    0    0  0.56592394912E+02  0.36882352087E+01  0.67102792874E+02  0.87858398715E+02  0.10570000000E+00 0. -1.
<mgrwt>
<rscale>  0 0.12500074E+03</rscale>
<asrwt>0</asrwt>
<pdfrwt beam="1">  1        1 0.16785576E-01 0.12500074E+03</pdfrwt>
<pdfrwt beam="2">  1       -1 0.55081052E-02 0.12500074E+03</pdfrwt>
<totfact> 0.44109273E+04</totfact>
</mgrwt>
</event>
<event>
 5    1  0.1336420E-049  0.1249998E+03  0.7818608E-02  0.1235070E+00
         -1   -1    0    0    0  501 -0.00000000000E+00  0.00000000000E+00  0.78109172413E+02  0.78109172552E+02  0.46700000000E-02 0.  1.
          1   -1    0    0  501    0  0.00000000000E+00 -0.00000000000E+00 -0.50010010014E+02  0.50010010232E+02  0.46700000000E-02 0. -1.
         25    2    1    2    0    0  0.00000000000E+00  0.00000000000E+00  0.28099162398E+02  0.12811918278E+03  0.12499984828E+03 0.  0.
        -13    1    3    3    0    0  0.19417187249E+02  0.59404658898E+02  0.13498878480E+02  0.63938811000E+02  0.10570000000E+00 0. -1.
         13    1    3    3    0    0 -0.19417187249E+02 -0.59404658898E+02  0.14600283918E+02  0.64180371784E+02  0.10570000000E+00 0.  1.
<mgrwt>
<rscale>  0 0.12499985E+03</rscale>
<asrwt>0</asrwt>
<pdfrwt beam="2">  1        1 0.76938478E-02 0.12499985E+03</pdfrwt>
<pdfrwt beam="1">  1       -1 0.12016796E-01 0.12499985E+03</pdfrwt>
<totfact> 0.37873068E+04</totfact>
</mgrwt>
</event>
<event>
 4    1  0.1336420E-049  0.1249228E+03  0.7818608E-02  0.1235190E+00
         -1   -1    0    0    0  501 -0.00000000000E+00  0.00000000000E+00  0.28585388743E+02  0.28585389124E+02  0.46700000000E-02 0.  1.
          1   -1    0    0  501    0  0.00000000000E+00 -0.00000000000E+00 -0.13648318449E+03  0.13648318457E+03  0.46700000000E-02 0. -1.
        -13    1    1    2    0    0 -0.35205107135E+02  0.46381895469E+02 -0.24086811856E+02  0.63014803606E+02  0.10570000000E+00 0.  1.
         13    1    1    2    0    0  0.35205107135E+02 -0.46381895469E+02 -0.83810983888E+02  0.10205377008E+03  0.10570000000E+00 0. -1.
<mgrwt>
<rscale>  0 0.12492277E+03</rscale>
<asrwt>0</asrwt>
<pdfrwt beam="2">  1        1 0.20997413E-01 0.12492277E+03</pdfrwt>
<pdfrwt beam="1">  1       -1 0.43977522E-02 0.12492277E+03</pdfrwt>
<totfact> 0.46234107E+04</totfact>
</mgrwt>
</event>
<event>
 5    1  0.1336420E-049  0.1249972E+03  0.7818608E-02  0.1235074E+00
          1   -1    0    0  501    0  0.00000000000E+00  0.00000000000E+00  0.22197233057E+03  0.22197233062E+03  0.46700000000E-02 0. -1.
         -1   -1    0    0    0  501 -0.00000000000E+00 -0.00000000000E+00 -0.17597125464E+02  0.17597126084E+02  0.46700000000E-02 0.  1.
         25    2    1    2    0    0  0.00000000000E+00  0.00000000000E+00  0.20437520511E+03  0.23956945670E+03  0.12499720046E+03 0.  0.
        -13    1    3    3    0    0  0.60487686697E+02 -0.68952292224E+01  0.75099111908E+02  0.96675706410E+02  0.10570000000E+00 0. -1.
         13    1    3    3    0    0 -0.60487686697E+02  0.68952292224E+01  0.12927609320E+03  0.14289375029E+03  0.10570000000E+00 0.  1.
<mgrwt>
<rscale>  0 0.12499720E+03</rscale>
<asrwt>0</asrwt>
<pdfrwt beam="1">  1        1 0.34149589E-01 0.12499720E+03</pdfrwt>
<pdfrwt beam="2">  1       -1 0.27072502E-02 0.12499720E+03</pdfrwt>
<totfact> 0.51137320E+04</totfact>
</mgrwt>
</event>
<event>
 5    1  0.1336420E-049  0.1250004E+03  0.7818608E-02  0.1235069E+00
         -1   -1    0    0    0  501 -0.00000000000E+00  0.00000000000E+00  0.52325405310E+02  0.52325405519E+02  0.46700000000E-02 0.  1.
          1   -1    0    0  501    0  0.00000000000E+00 -0.00000000000E+00 -0.74653465770E+02  0.74653465916E+02  0.46700000000E-02 0. -1.
         25    2    1    2    0    0  0.00000000000E+00  0.00000000000E+00 -0.22328060460E+02  0.12697887144E+03  0.12500036603E+03 0.  0.
        -13    1    3    3    0    0 -0.71527040047E+00 -0.43326447907E+02  0.34588495169E+02  0.55444277167E+02  0.10570000000E+00 0.  1.
         13    1    3    3    0    0  0.71527040047E+00  0.43326447907E+02 -0.56916555629E+02  0.71534594268E+02  0.10570000000E+00 0. -1.
<mgrwt>
<rscale>  0 0.12500037E+03</rscale>
<asrwt>0</asrwt>
<pdfrwt beam="2">  1        1 0.11485149E-01 0.12500037E+03</pdfrwt>
<pdfrwt beam="1">  1       -1 0.80500624E-02 0.12500037E+03</pdfrwt>
<totfact> 0.40952663E+04</totfact>
</mgrwt>
</event>
<event>
 5    1  0.1336420E-049  0.1250000E+03  0.7818608E-02  0.1235069E+00
          1   -1    0    0  501    0  0.00000000000E+00  0.00000000000E+00  0.49608950039E+02  0.49608950259E+02  0.46700000000E-02 0. -1.
         -1   -1    0    0    0  501 -0.00000000000E+00 -0.00000000000E+00 -0.78740889300E+02  0.78740889438E+02  0.46700000000E-02 0.  1.
         25    2    1    2    0    0  0.00000000000E+00  0.00000000000E+00 -0.29131939261E+02  0.12834983970E+03  0.12500004586E+03 0.  0.
        -13    1    3    3    0    0  0.51890893534E+02 -0.33953185513E+02 -0.22569601257E+02  0.65991527574E+02  0.10570000000E+00 0.  1.
         13    1    3    3    0    0 -0.51890893534E+02  0.33953185513E+02 -0.65623380036E+01  0.62358312122E+02  0.10570000000E+00 0. -1.
<mgrwt>
<rscale>  0 0.12500005E+03</rscale>
<asrwt>0</asrwt>
<pdfrwt beam="1">  1        1 0.76321462E-02 0.12500005E+03</pdfrwt>
<pdfrwt beam="2">  1       -1 0.12113983E-01 0.12500005E+03</pdfrwt>
<totfact> 0.37812090E+04</totfact>
</mgrwt>
</event>
<event>
 5    1  0.1336420E-049  0.1249995E+03  0.7818608E-02  0.1235070E+00
         -1   -1    0    0    0  501 -0.00000000000E+00  0.00000000000E+00  0.11348939934E+02  0.11348940895E+02  0.46700000000E-02 0.  1.
          1   -1    0    0  501    0  0.00000000000E+00 -0.00000000000E+00 -0.34419243910E+03  0.34419243913E+03  0.46700000000E-02 0. -1.
         25    2    1    2    0    0  0.00000000000E+00  0.00000000000E+00 -0.33284349917E+03  0.35554138003E+03  0.12499951189E+03 0.  0.
        -13    1    3    3    0    0  0.20209250203E+02 -0.56537540205E+02 -0.11704958398E+03  0.13155046001E+03  0.10570000000E+00 0.  1.
         13    1    3    3    0    0 -0.20209250203E+02  0.56537540205E+02 -0.21579391519E+03  0.22399092002E+03  0.10570000000E+00 0. -1.
<mgrwt>
<rscale>  0 0.12499951E+03</rscale>
<asrwt>0</asrwt>
<pdfrwt beam="2">  1        1 0.52952675E-01 0.12499951E+03</pdfrwt>
<pdfrwt beam="1">  1       -1 0.17459911E-02 0.12499951E+03</pdfrwt>
<totfact> 0.55998657E+04</totfact>
</mgrwt>
</event>
<event>
 5    1  0.1336420E-049  0.1250013E+03  0.7818608E-02  0.1235067E+00
          1   -1    0    0  501    0  0.00000000000E+00  0.00000000000E+00  0.27559393268E+02  0.27559393664E+02  0.46700000000E-02 0. -1.
         -1   -1    0    0    0  501 -0.00000000000E+00 -0.00000000000E+00 -0.14174236642E+03  0.14174236649E+03  0.46700000000E-02 0.  1.
         25    2    1    2    0    0  0.00000000000E+00  0.00000000000E+00 -0.11418297315E+03  0.16930176016E+03  0.12500133853E+03 0.  0.
        -13    1    3    3    0    0 -0.37383645486E+02 -0.49843718525E+02 -0.63780254428E+02  0.89162016877E+02  0.10570000000E+00 0.  1.
         13    1    3    3    0    0  0.37383645486E+02  0.49843718525E+02 -0.50402718720E+02  0.80139743280E+02  0.10570000000E+00 0. -1.
<mgrwt>
<rscale>  0 0.12500134E+03</rscale>
<asrwt>0</asrwt>
<pdfrwt beam="1">  1        1 0.42399068E-02 0.12500134E+03</pdfrwt>
<pdfrwt beam="2">  1       -1 0.21806518E-01 0.12500134E+03</pdfrwt>
<totfact> 0.33259370E+04</totfact>
</mgrwt>
</event>
<event>
 5    1  0.1336420E-049  0.1250005E+03  0.7818608E-02  0.1235069E+00
          1   -1    0    0  501    0  0.00000000000E+00  0.00000000000E+00  0.11291831473E+03  0.11291831483E+03  0.46700000000E-02 0. -1.
         -1   -1    0    0    0  501 -0.00000000000E+00 -0.00000000000E+00 -0.34593839946E+02  0.34593840262E+02  0.46700000000E-02 0.  1.
         25    2    1    2    0    0  0.00000000000E+00  0.00000000000E+00  0.78324474784E+02  0.14751215509E+03  0.12500045019E+03 0.  0.
        -13    1    3    3    0    0  0.60262667821E+02 -0.57133811215E+01  0.20802967174E+02  0.64007862583E+02  0.10570000000E+00 0.  1.
         13    1    3    3    0    0 -0.60262667821E+02  0.57133811215E+01  0.57521507610E+02  0.83504292506E+02  0.10570000000E+00 0. -1.
<mgrwt>
<rscale>  0 0.12500045E+03</rscale>
<asrwt>0</asrwt>
<pdfrwt beam="1">  1        1 0.17372049E-01 0.12500045E+03</pdfrwt>
<pdfrwt beam="2">  1       -1 0.53221292E-02 0.12500045E+03</pdfrwt>
<totfact> 0.44412889E+04</totfact>
</mgrwt>
</event>
<event>
 5    1  0.1336420E-049  0.1250004E+03  0.7818608E-02  0.1235069E+00
          1   -1    0    0  501    0  0.00000000000E+00  0.00000000000E+00  0.24599235361E+02  0.24599235804E+02  0.46700000000E-02 0. -1.
         -1   -1    0    0    0  501 -0.00000000000E+00 -0.00000000000E+00 -0.15879666142E+03  0.15879666149E+03  0.46700000000E-02 0.  1.
         25    2    1    2    0    0  0.00000000000E+00  0.00000000000E+00 -0.13419742606E+03  0.18339589730E+03  0.12500042393E+03 0.  0.
        -13    1    3    3    0    0 -0.36614380538E+02 -0.47719712808E+02 -0.42179341128E+02  0.73463540911E+02  0.10570000000E+00 0.  1.
         13    1    3    3    0    0  0.36614380538E+02  0.47719712808E+02 -0.92018084934E+02  0.10993235638E+03  0.10570000000E+00 0. -1.
<mgrwt>
<rscale>  0 0.12500042E+03</rscale>
<asrwt>0</asrwt>
<pdfrwt beam="1">  1        1 0.37844979E-02 0.12500042E+03</pdfrwt>
<pdfrwt beam="2">  1       -1 0.24430255E-01 0.12500042E+03</pdfrwt>
<totfact> 0.32319449E+04</totfact>
</mgrwt>
</event>
<event>
 5    1  0.1336420E-049  0.1249984E+03  0.7818608E-02  0.1235072E+00
          1   -1    0    0  501    0  0.00000000000E+00  0.00000000000E+00  0.14186316398E+03  0.14186316406E+03  0.46700000000E-02 0. -1.
         -1   -1    0    0    0  501 -0.00000000000E+00 -0.00000000000E+00 -0.27534645427E+02  0.27534645823E+02  0.46700000000E-02 0.  1.
         25    2    1    2    0    0  0.00000000000E+00  0.00000000000E+00  0.11432851855E+03  0.16939780988E+03  0.12499843134E+03 0.  0.
        -13    1    3    3    0    0  0.39376505258E+02 -0.47871432164E+02  0.46326254999E+02  0.77384211946E+02  0.10570000000E+00 0.  1.
         13    1    3    3    0    0 -0.39376505258E+02  0.47871432164E+02  0.68002263555E+02  0.92013597935E+02  0.10570000000E+00 0. -1.
<mgrwt>
<rscale>  0 0.12499843E+03</rscale>
<asrwt>0</asrwt>
<pdfrwt beam="1">  1        1 0.21825101E-01 0.12499843E+03</pdfrwt>
<pdfrwt beam="2">  1       -1 0.42360995E-02 0.12499843E+03</pdfrwt>
<totfact> 0.46524461E+04</totfact>
</mgrwt>
</event>
<event>
 5    1  0.1336420E-049  0.1249971E+03  0.7818608E-02  0.1235074E+00
          1   -1    0    0  501    0  0.00000000000E+00  0.00000000000E+00  0.56327641477E+02  0.56327641671E+02  0.46700000000E-02 0. -1.
         -1   -1    0    0    0  501 -0.00000000000E+00 -0.00000000000E+00 -0.69345523341E+02  0.69345523499E+02  0.46700000000E-02 0.  1.
         25    2    1    2    0    0  0.00000000000E+00  0.00000000000E+00 -0.13017881864E+02  0.12567316517E+03  0.12499711675E+03 0.  0.
        -13    1    3    3    0    0  0.10487668486E+02  0.60507994963E+02 -0.18184239724E+02  0.64045970923E+02  0.10570000000E+00 0.  1.
         13    1    3    3    0    0 -0.10487668486E+02 -0.60507994963E+02  0.51663578600E+01  0.61627194246E+02  0.10570000000E+00 0. -1.
<mgrwt>
<rscale>  0 0.12499712E+03</rscale>
<asrwt>0</asrwt>
<pdfrwt beam="1">  1        1 0.86657910E-02 0.12499712E+03</pdfrwt>
<pdfrwt beam="2">  1       -1 0.10668542E-01 0.12499712E+03</pdfrwt>
<totfact> 0.38776294E+04</totfact>
</mgrwt>
</event>
<event>
 5    1  0.1336420E-049  0.1250004E+03  0.7818608E-02  0.1235069E+00
          1   -1    0    0  501    0  0.00000000000E+00  0.00000000000E+00  0.12286030333E+03  0.12286030342E+03  0.46700000000E-02 0. -1.
         -1   -1    0    0    0  501 -0.00000000000E+00 -0.00000000000E+00 -0.31794458225E+02  0.31794458568E+02  0.46700000000E-02 0.  1.
         25    2    1    2    0    0  0.00000000000E+00  0.00000000000E+00  0.91065845109E+02  0.15465476199E+03  0.12500042904E+03 0.  0.
        -13    1    3    3    0    0 -0.52709671080E+02 -0.31903831482E+02  0.32550704109E+02  0.69683020881E+02  0.10570000000E+00 0.  1.
         13    1    3    3    0    0  0.52709671080E+02  0.31903831482E+02  0.58515140999E+02  0.84971741110E+02  0.10570000000E+00 0. -1.
<mgrwt>
<rscale>  0 0.12500043E+03</rscale>
<asrwt>0</asrwt>
<pdfrwt beam="1">  1        1 0.18901585E-01 0.12500043E+03</pdfrwt>
<pdfrwt beam="2">  1       -1 0.48914552E-02 0.12500043E+03</pdfrwt>
<totfact> 0.45173088E+04</totfact>
</mgrwt>
</event>
<event>
 5    1  0.1336420E-049  0.1250020E+03  0.7818608E-02  0.1235066E+00
          1   -1    0    0  501    0  0.00000000000E+00  0.00000000000E+00  0.12581548258E+02  0.12581549124E+02  0.46700000000E-02 0. -1.
         -1   -1    0    0    0  501 -0.00000000000E+00 -0.00000000000E+00 -0.31048426385E+03  0.31048426388E+03  0.46700000000E-02 0.  1.
         25    2    1    2    0    0  0.00000000000E+00  0.00000000000E+00 -0.29790271559E+03  0.32306581301E+03  0.12500196630E+03 0.  0.
        -13    1    3    3    0    0  0.31796596669E+02 -0.53806968263E+02 -0.14994673283E+03  0.16245075331E+03  0.10570000000E+00 0.  1.
         13    1    3    3    0    0 -0.31796596669E+02  0.53806968263E+02 -0.14795598276E+03  0.16061505970E+03  0.10570000000E+00 0. -1.
<mgrwt>
<rscale>  0 0.12500197E+03</rscale>
<asrwt>0</asrwt>
<pdfrwt beam="1">  1        1 0.19356231E-02 0.12500197E+03</pdfrwt>
<pdfrwt beam="2">  1       -1 0.47766804E-01 0.12500197E+03</pdfrwt>
<totfact> 0.25959519E+04</totfact>
</mgrwt>
</event>
<event>
 5    1  0.1336420E-049  0.1250009E+03  0.7818608E-02  0.1235068E+00
          1   -1    0    0  501    0  0.00000000000E+00  0.00000000000E+00  0.83721198419E+01  0.83721211444E+01  0.46700000000E-02 0. -1.
         -1   -1    0    0    0  501 -0.00000000000E+00 -0.00000000000E+00 -0.46658508922E+03  0.46658508924E+03  0.46700000000E-02 0.  1.
         25    2    1    2    0    0  0.00000000000E+00  0.00000000000E+00 -0.45821296938E+03  0.47495721039E+03  0.12500090557E+03 0.  0.
        -13    1    3    3    0    0 -0.48511234320E+02 -0.38808819822E+02 -0.25510858248E+03  0.26256401958E+03  0.10570000000E+00 0.  1.
         13    1    3    3    0    0  0.48511234320E+02  0.38808819822E+02 -0.20310438690E+03  0.21239319081E+03  0.10570000000E+00 0. -1.
<mgrwt>
<rscale>  0 0.12500091E+03</rscale>
<asrwt>0</asrwt>
<pdfrwt beam="1">  1        1 0.12880189E-02 0.12500091E+03</pdfrwt>
<pdfrwt beam="2">  1       -1 0.71782301E-01 0.12500091E+03</pdfrwt>
<totfact> 0.21234750E+04</totfact>
</mgrwt>
</event>
<event>
 5    1  0.1336420E-049  0.1249995E+03  0.7818608E-02  0.1235070E+00
          1   -1    0    0  501    0  0.00000000000E+00  0.00000000000E+00  0.35092592119E+02  0.35092592430E+02  0.46700000000E-02 0. -1.
         -1   -1    0    0    0  501 -0.00000000000E+00 -0.00000000000E+00 -0.11131183960E+03  0.11131183969E+03  0.46700000000E-02 0.  1.
         25    2    1    2    0    0  0.00000000000E+00  0.00000000000E+00 -0.76219247477E+02  0.14640443212E+03  0.12499953624E+03 0.  0.
        -13    1    3    3    0    0 -0.39563104318E+02 -0.37290779583E+02 -0.74216657428E+02  0.91999809116E+02  0.10570000000E+00 0.  1.
         13    1    3    3    0    0  0.39563104318E+02  0.37290779583E+02 -0.20025900495E+01  0.54404623007E+02  0.10570000000E+00 0. -1.
<mgrwt>
<rscale>  0 0.12499954E+03</rscale>
<asrwt>0</asrwt>
<pdfrwt beam="1">  1        1 0.53988604E-02 0.12499954E+03</pdfrwt>
<pdfrwt beam="2">  1       -1 0.17124898E-01 0.12499954E+03</pdfrwt>
<totfact> 0.35177332E+04</totfact>
</mgrwt>
</event>
<event>
 5    1  0.1336420E-049  0.1250034E+03  0.7818608E-02  0.1235064E+00
          1   -1    0    0  501    0  0.00000000000E+00  0.00000000000E+00  0.21480476266E+03  0.21480476272E+03  0.46700000000E-02 0. -1.
         -1   -1    0    0    0  501 -0.00000000000E+00 -0.00000000000E+00 -0.18186115352E+02  0.18186115951E+02  0.46700000000E-02 0.  1.
         25    2    1    2    0    0  0.00000000000E+00  0.00000000000E+00  0.19661864731E+03  0.23299087867E+03  0.12500342824E+03 0.  0.
        -13    1    3    3    0    0  0.35538150259E+02 -0.20228622351E+02  0.10207006483E+02  0.42146784455E+02  0.10570000000E+00 0.  1.
         13    1    3    3    0    0 -0.35538150259E+02  0.20228622351E+02  0.18641164083E+03  0.19084409421E+03  0.10570000000E+00 0. -1.
<mgrwt>
<rscale>  0 0.12500343E+03</rscale>
<asrwt>0</asrwt>
<pdfrwt beam="1">  1        1 0.33046885E-01 0.12500343E+03</pdfrwt>
<pdfrwt beam="2">  1       -1 0.27978641E-02 0.12500343E+03</pdfrwt>
<totfact> 0.50773324E+04</totfact>
</mgrwt>
</event>
<event>
 5    1  0.1336420E-049  0.1249787E+03  0.7818608E-02  0.1235103E+00
         -1   -1    0    0    0  501 -0.00000000000E+00  0.00000000000E+00  0.18214937497E+03  0.18214937503E+03  0.46700000000E-02 0.  1.
          1   -1    0    0  501    0  0.00000000000E+00 -0.00000000000E+00 -0.21438010610E+02  0.21438011119E+02  0.46700000000E-02 0. -1.
         25    2    1    2    0    0  0.00000000000E+00  0.00000000000E+00  0.16071136436E+03  0.20358738615E+03  0.12497872285E+03 0.  0.
        -13    1    3    3    0    0 -0.55490209532E+02 -0.28335072202E+02  0.72565589502E+02  0.95644213745E+02  0.10570000000E+00 0.  1.
         13    1    3    3    0    0  0.55490209532E+02  0.28335072202E+02  0.88145774856E+02  0.10794317240E+03  0.10570000000E+00 0. -1.
<mgrwt>
<rscale>  0 0.12497872E+03</rscale>
<asrwt>0</asrwt>
<pdfrwt beam="2">  1        1 0.32981556E-02 0.12497872E+03</pdfrwt>
<pdfrwt beam="1">  1       -1 0.28022980E-01 0.12497872E+03</pdfrwt>
<totfact> 0.31154797E+04</totfact>
</mgrwt>
</event>
<event>
 5    1  0.1336420E-049  0.1250031E+03  0.7818608E-02  0.1235064E+00
          1   -1    0    0  501    0  0.00000000000E+00  0.00000000000E+00  0.20721489981E+03  0.20721489986E+03  0.46700000000E-02 0. -1.
         -1   -1    0    0    0  501 -0.00000000000E+00 -0.00000000000E+00 -0.18852132042E+02  0.18852132621E+02  0.46700000000E-02 0.  1.
         25    2    1    2    0    0  0.00000000000E+00  0.00000000000E+00  0.18836276777E+03  0.22606703248E+03  0.12500308354E+03 0.  0.
        -13    1    3    3    0    0 -0.34297685793E+02 -0.50848915002E+02  0.11592003601E+03  0.13114651855E+03  0.10570000000E+00 0.  1.
         13    1    3    3    0    0  0.34297685793E+02  0.50848915002E+02  0.72442731755E+02  0.94920513927E+02  0.10570000000E+00 0. -1.
<mgrwt>
<rscale>  0 0.12500308E+03</rscale>
<asrwt>0</asrwt>
<pdfrwt beam="1">  1        1 0.31879217E-01 0.12500308E+03</pdfrwt>
<pdfrwt beam="2">  1       -1 0.29003279E-02 0.12500308E+03</pdfrwt>
<totfact> 0.50385195E+04</totfact>
</mgrwt>
</event>
<event>
 5    1  0.1336420E-049  0.1249930E+03  0.7818608E-02  0.1235080E+00
         -1   -1    0    0    0  501 -0.00000000000E+00  0.00000000000E+00  0.10688212443E+03  0.10688212453E+03  0.46700000000E-02 0. -1.
          1   -1    0    0  501    0  0.00000000000E+00 -0.00000000000E+00 -0.36543169049E+02  0.36543169347E+02  0.46700000000E-02 0.  1.
         25    2    1    2    0    0  0.00000000000E+00  0.00000000000E+00  0.70338955383E+02  0.14342529388E+03  0.12499298493E+03 0.  0.
        -13    1    3    3    0    0 -0.60985728795E+02  0.53946412252E+01  0.49567287934E+02  0.78773653440E+02  0.10570000000E+00 0. -1.
         13    1    3    3    0    0  0.60985728795E+02 -0.53946412252E+01  0.20771667449E+02  0.64651640441E+02  0.10570000000E+00 0.  1.
<mgrwt>
<rscale>  0 0.12499298E+03</rscale>
<asrwt>0</asrwt>
<pdfrwt beam="2">  1        1 0.56220261E-02 0.12499298E+03</pdfrwt>
<pdfrwt beam="1">  1       -1 0.16443404E-01 0.12499298E+03</pdfrwt>
<totfact> 0.35495697E+04</totfact>
</mgrwt>
</event>
<event>
 5    1  0.1336420E-049  0.1249982E+03  0.7818608E-02  0.1235072E+00
         -1   -1    0    0    0  501 -0.00000000000E+00  0.00000000000E+00  0.29719074697E+02  0.29719075064E+02  0.46700000000E-02 0.  1.
          1   -1    0    0  501    0  0.00000000000E+00 -0.00000000000E+00 -0.13143535369E+03  0.13143535377E+03  0.46700000000E-02 0. -1.
         25    2    1    2    0    0  0.00000000000E+00  0.00000000000E+00 -0.10171627899E+03  0.16115442884E+03  0.12499819407E+03 0.  0.
        -13    1    3    3    0    0  0.39687695336E+01  0.50972092409E+02 -0.97203561437E+02  0.10982918039E+03  0.10570000000E+00 0. -1.
         13    1    3    3    0    0 -0.39687695336E+01 -0.50972092409E+02 -0.45127175560E+01  0.51325248449E+02  0.10570000000E+00 0.  1.
<mgrwt>
<rscale>  0 0.12499819E+03</rscale>
<asrwt>0</asrwt>
<pdfrwt beam="2">  1        1 0.20220823E-01 0.12499819E+03</pdfrwt>
<pdfrwt beam="1">  1       -1 0.45721654E-02 0.12499819E+03</pdfrwt>
<totfact> 0.45800320E+04</totfact>
</mgrwt>
</event>
<event>
 5    1  0.1336420E-049  0.1250019E+03  0.7818608E-02  0.1235066E+00
          1   -1    0    0  501    0  0.00000000000E+00  0.00000000000E+00  0.54625570822E+02  0.54625571021E+02  0.46700000000E-02 0. -1.
         -1   -1    0    0    0  501 -0.00000000000E+00 -0.00000000000E+00 -0.71511677706E+02  0.71511677858E+02  0.46700000000E-02 0.  1.
         25    2    1    2    0    0  0.00000000000E+00  0.00000000000E+00 -0.16886106884E+02  0.12613724888E+03  0.12500185978E+03 0.  0.
        -13    1    3    3    0    0 -0.20214801327E+02  0.42386327775E+02 -0.50062265731E+02  0.68640225798E+02  0.10570000000E+00 0.  1.
         13    1    3    3    0    0  0.20214801327E+02 -0.42386327775E+02  0.33176158847E+02  0.57497023082E+02  0.10570000000E+00 0. -1.
<mgrwt>
<rscale>  0 0.12500186E+03</rscale>
<asrwt>0</asrwt>
<pdfrwt beam="1">  1        1 0.84039340E-02 0.12500186E+03</pdfrwt>
<pdfrwt beam="2">  1       -1 0.11001797E-01 0.12500186E+03</pdfrwt>
<totfact> 0.38539054E+04</totfact>
</mgrwt>
</event>
<event>
 5    1  0.1336420E-049  0.1249951E+03  0.7818608E-02  0.1235077E+00
         -1   -1    0    0    0  501 -0.00000000000E+00  0.00000000000E+00  0.83180393753E+02  0.83180393884E+02  0.46700000000E-02 0.  1.
          1   -1    0    0  501    0  0.00000000000E+00 -0.00000000000E+00 -0.46957495619E+02  0.46957495852E+02  0.46700000000E-02 0. -1.
         25    2    1    2    0    0  0.00000000000E+00  0.00000000000E+00  0.36222898133E+02  0.13013788974E+03  0.12499508789E+03 0.  0.
        -13    1    3    3    0    0  0.44309596007E+02  0.35327018483E+02 -0.93280454506E+01  0.57431368934E+02  0.10570000000E+00 0. -1.
         13    1    3    3    0    0 -0.44309596007E+02 -0.35327018483E+02  0.45550943584E+02  0.72706520802E+02  0.10570000000E+00 0.  1.
<mgrwt>
<rscale>  0 0.12499509E+03</rscale>
<asrwt>0</asrwt>
<pdfrwt beam="2">  1        1 0.72242302E-02 0.12499509E+03</pdfrwt>
<pdfrwt beam="1">  1       -1 0.12796984E-01 0.12499509E+03</pdfrwt>
<totfact> 0.37401872E+04</totfact>
</mgrwt>
</event>
<event>
 5    1  0.1336420E-049  0.1249992E+03  0.7818608E-02  0.1235071E+00
          1   -1    0    0  501    0  0.00000000000E+00  0.00000000000E+00  0.40288817440E+03  0.40288817443E+03  0.46700000000E-02 0. -1.
         -1   -1    0    0    0  501 -0.00000000000E+00 -0.00000000000E+00 -0.96954897116E+01  0.96954908363E+01  0.46700000000E-02 0.  1.
         25    2    1    2    0    0  0.00000000000E+00  0.00000000000E+00  0.39319268469E+03  0.41258366526E+03  0.12499917420E+03 0.  0.
        -13    1    3    3    0    0  0.28713431060E+02 -0.51171617380E+02  0.12555923731E+03  0.13859339376E+03  0.10570000000E+00 0.  1.
         13    1    3    3    0    0 -0.28713431060E+02  0.51171617380E+02  0.26763344738E+03  0.27399027150E+03  0.10570000000E+00 0. -1.
<mgrwt>
<rscale>  0 0.12499917E+03</rscale>
<asrwt>0</asrwt>
<pdfrwt beam="1">  1        1 0.61982799E-01 0.12499917E+03</pdfrwt>
<pdfrwt beam="2">  1       -1 0.14916138E-02 0.12499917E+03</pdfrwt>
<totfact> 0.57645163E+04</totfact>
</mgrwt>
</event>
<event>
 5    1  0.1336420E-049  0.1249990E+03  0.7818608E-02  0.1235071E+00
         -1   -1    0    0    0  501 -0.00000000000E+00  0.00000000000E+00  0.12926008438E+02  0.12926009282E+02  0.46700000000E-02 0.  1.
          1   -1    0    0  501    0  0.00000000000E+00 -0.00000000000E+00 -0.30219590806E+03  0.30219590810E+03  0.46700000000E-02 0. -1.
         25    2    1    2    0    0  0.00000000000E+00  0.00000000000E+00 -0.28926989963E+03  0.31512191738E+03  0.12499899193E+03 0.  0.
        -13    1    3    3    0    0 -0.11575010703E+02 -0.61170482632E+02 -0.15852721560E+03  0.17031352875E+03  0.10570000000E+00 0.  1.
         13    1    3    3    0    0  0.11575010703E+02  0.61170482632E+02 -0.13074268403E+03  0.14480838863E+03  0.10570000000E+00 0. -1.
<mgrwt>
<rscale>  0 0.12499899E+03</rscale>
<asrwt>0</asrwt>
<pdfrwt beam="2">  1        1 0.46491673E-01 0.12499899E+03</pdfrwt>
<pdfrwt beam="1">  1       -1 0.19886170E-02 0.12499899E+03</pdfrwt>
<totfact> 0.54567429E+04</totfact>
</mgrwt>
</event>
<event>
 5    1  0.1336420E-049  0.1250011E+03  0.7818608E-02  0.1235068E+00
          1   -1    0    0  501    0  0.00000000000E+00  0.00000000000E+00  0.25560055947E+03  0.25560055951E+03  0.46700000000E-02 0. -1.
         -1   -1    0    0    0  501 -0.00000000000E+00 -0.00000000000E+00 -0.15282905342E+02  0.15282906055E+02  0.46700000000E-02 0.  1.
         25    2    1    2    0    0  0.00000000000E+00  0.00000000000E+00  0.24031765413E+03  0.27088346557E+03  0.12500110813E+03 0.  0.
        -13    1    3    3    0    0  0.34192191378E+02 -0.33328869328E+02  0.32764992503E+02  0.57909199512E+02  0.10570000000E+00 0.  1.
         13    1    3    3    0    0 -0.34192191378E+02  0.33328869328E+02  0.20755266163E+03  0.21297426606E+03  0.10570000000E+00 0. -1.
<mgrwt>
<rscale>  0 0.12500111E+03</rscale>
<asrwt>0</asrwt>
<pdfrwt beam="1">  1        1 0.39323163E-01 0.12500111E+03</pdfrwt>
<pdfrwt beam="2">  1       -1 0.23512162E-02 0.12500111E+03</pdfrwt>
<totfact> 0.52687666E+04</totfact>
</mgrwt>
</event>
<event>
 5    1  0.1336420E-049  0.1250010E+03  0.7818608E-02  0.1235068E+00
          1   -1    0    0  501    0  0.00000000000E+00  0.00000000000E+00  0.26853498910E+03  0.26853498915E+03  0.46700000000E-02 0. -1.
         -1   -1    0    0    0  501 -0.00000000000E+00 -0.00000000000E+00 -0.14546743980E+02  0.14546744730E+02  0.46700000000E-02 0.  1.
         25    2    1    2    0    0  0.00000000000E+00  0.00000000000E+00  0.25398824512E+03  0.28308173388E+03  0.12500095757E+03 0.  0.
        -13    1    3    3    0    0  0.55307573225E+00 -0.55021382483E+02  0.19412217615E+03  0.20176989089E+03  0.10570000000E+00 0. -1.
         13    1    3    3    0    0 -0.55307573225E+00  0.55021382483E+02  0.59866068972E+02  0.81311842986E+02  0.10570000000E+00 0.  1.
<mgrwt>
<rscale>  0 0.12500096E+03</rscale>
<asrwt>0</asrwt>
<pdfrwt beam="1">  1        1 0.41313074E-01 0.12500096E+03</pdfrwt>
<pdfrwt beam="2">  1       -1 0.22379607E-02 0.12500096E+03</pdfrwt>
<totfact> 0.53241159E+04</totfact>
</mgrwt>
</event>
<event>
 5    1  0.1336420E-049  0.1250012E+03  0.7818608E-02  0.1235067E+00
         -1   -1    0    0    0  501 -0.00000000000E+00  0.00000000000E+00  0.23373804023E+02  0.23373804490E+02  0.46700000000E-02 0.  1.
          1   -1    0    0  501    0  0.00000000000E+00 -0.00000000000E+00 -0.16712398350E+03  0.16712398356E+03  0.46700000000E-02 0. -1.
         25    2    1    2    0    0  0.00000000000E+00  0.00000000000E+00 -0.14375017947E+03  0.19049778805E+03  0.12500117261E+03 0.  0.
        -13    1    3    3    0    0  0.55121680735E+02 -0.22787443508E+02 -0.43419507533E+02  0.73776229746E+02  0.10570000000E+00 0.  1.
         13    1    3    3    0    0 -0.55121680735E+02  0.22787443508E+02 -0.10033067194E+03  0.11672155831E+03  0.10570000000E+00 0. -1.
<mgrwt>
<rscale>  0 0.12500117E+03</rscale>
<asrwt>0</asrwt>
<pdfrwt beam="2">  1        1 0.25711381E-01 0.12500117E+03</pdfrwt>
<pdfrwt beam="1">  1       -1 0.35959700E-02 0.12500117E+03</pdfrwt>
<totfact> 0.48136463E+04</totfact>
</mgrwt>
</event>
<event>
 5    1  0.1336420E-049  0.1250004E+03  0.7818608E-02  0.1235069E+00
          1   -1    0    0  501    0  0.00000000000E+00  0.00000000000E+00  0.32927269256E+03  0.32927269259E+03  0.46700000000E-02 0. -1.
         -1   -1    0    0    0  501 -0.00000000000E+00 -0.00000000000E+00 -0.11863333747E+02  0.11863334666E+02  0.46700000000E-02 0.  1.
         25    2    1    2    0    0  0.00000000000E+00  0.00000000000E+00  0.31740935881E+03  0.34113602726E+03  0.12500035213E+03 0.  0.
        -13    1    3    3    0    0 -0.33557844119E+02 -0.45660982417E+02  0.86747637744E+02  0.10361572296E+03  0.10570000000E+00 0.  1.
         13    1    3    3    0    0  0.33557844119E+02  0.45660982417E+02  0.23066172107E+03  0.23752030430E+03  0.10570000000E+00 0. -1.
<mgrwt>
<rscale>  0 0.12500035E+03</rscale>
<asrwt>0</asrwt>
<pdfrwt beam="1">  1        1 0.50657335E-01 0.12500035E+03</pdfrwt>
<pdfrwt beam="2">  1       -1 0.18251284E-02 0.12500035E+03</pdfrwt>
<totfact> 0.55515266E+04</totfact>
</mgrwt>
</event>
<event>
 5    1  0.1336420E-049  0.1250008E+03  0.7818608E-02  0.1235068E+00
          1   -1    0    0  501    0  0.00000000000E+00  0.00000000000E+00  0.57498895351E+02  0.57498895541E+02  0.46700000000E-02 0. -1.
         -1   -1    0    0    0  501 -0.00000000000E+00 -0.00000000000E+00 -0.67936918169E+02  0.67936918329E+02  0.46700000000E-02 0.  1.
         25    2    1    2    0    0  0.00000000000E+00  0.00000000000E+00 -0.10438022818E+02  0.12543581387E+03  0.12500076432E+03 0.  0.
        -13    1    3    3    0    0  0.59791256345E+02 -0.12192870775E+02 -0.18779969777E+02  0.63846369282E+02  0.10570000000E+00 0.  1.
         13    1    3    3    0    0 -0.59791256345E+02  0.12192870775E+02  0.83419469598E+01  0.61589444588E+02  0.10570000000E+00 0. -1.
<mgrwt>
<rscale>  0 0.12500076E+03</rscale>
<asrwt>0</asrwt>
<pdfrwt beam="1">  1        1 0.88459839E-02 0.12500076E+03</pdfrwt>
<pdfrwt beam="2">  1       -1 0.10451834E-01 0.12500076E+03</pdfrwt>
<totfact> 0.38929537E+04</totfact>
</mgrwt>
</event>
<event>
 5    1  0.1336420E-049  0.1250068E+03  0.7818608E-02  0.1235059E+00
          1   -1    0    0  501    0  0.00000000000E+00  0.00000000000E+00  0.31126978073E+03  0.31126978077E+03  0.46700000000E-02 0. -1.
         -1   -1    0    0    0  501 -0.00000000000E+00 -0.00000000000E+00 -0.12550765007E+02  0.12550765876E+02  0.46700000000E-02 0.  1.
         25    2    1    2    0    0  0.00000000000E+00  0.00000000000E+00  0.29871901573E+03  0.32382054664E+03  0.12500678411E+03 0.  0.
        -13    1    3    3    0    0 -0.30784879625E+02 -0.43435031761E+02  0.64531452410E+02  0.83657816851E+02  0.10570000000E+00 0.  1.
         13    1    3    3    0    0  0.30784879625E+02  0.43435031761E+02  0.23418756331E+03  0.24016272979E+03  0.10570000000E+00 0. -1.
<mgrwt>
<rscale>  0 0.12500678E+03</rscale>
<asrwt>0</asrwt>
<pdfrwt beam="1">  1        1 0.47887657E-01 0.12500678E+03</pdfrwt>
<pdfrwt beam="2">  1       -1 0.19308870E-02 0.12500678E+03</pdfrwt>
<totfact> 0.54887150E+04</totfact>
</mgrwt>
</event>
<event>
 5    1  0.1336420E-049  0.1250036E+03  0.7818608E-02  0.1235064E+00
         -1   -1    0    0    0  501 -0.00000000000E+00  0.00000000000E+00  0.15636070714E+03  0.15636070721E+03  0.46700000000E-02 0.  1.
          1   -1    0    0  501    0  0.00000000000E+00 -0.00000000000E+00 -0.24983734668E+02  0.24983735105E+02  0.46700000000E-02 0. -1.
         25    2    1    2    0    0  0.00000000000E+00  0.00000000000E+00  0.13137697247E+03  0.18134444231E+03  0.12500359140E+03 0.  0.
        -13    1    3    3    0    0 -0.52539338330E+02  0.11112062140E+02  0.11207965922E+03  0.12428081582E+03  0.10570000000E+00 0.  1.
         13    1    3    3    0    0  0.52539338330E+02 -0.11112062140E+02  0.19297313246E+02  0.57063626490E+02  0.10570000000E+00 0. -1.
<mgrwt>
<rscale>  0 0.12500359E+03</rscale>
<asrwt>0</asrwt>
<pdfrwt beam="2">  1        1 0.38436516E-02 0.12500359E+03</pdfrwt>
<pdfrwt beam="1">  1       -1 0.24055493E-01 0.12500359E+03</pdfrwt>
<totfact> 0.32447008E+04</totfact>
</mgrwt>
</event>
<event>
 5    1  0.1336420E-049  0.1250005E+03  0.7818608E-02  0.1235069E+00
         -1   -1    0    0    0  501 -0.00000000000E+00  0.00000000000E+00  0.42937413815E+02  0.42937414069E+02  0.46700000000E-02 0.  1.
          1   -1    0    0  501    0  0.00000000000E+00 -0.00000000000E+00 -0.90976108073E+02  0.90976108193E+02  0.46700000000E-02 0. -1.
         25    2    1    2    0    0  0.00000000000E+00  0.00000000000E+00 -0.48038694258E+02  0.13391352226E+03  0.12500046119E+03 0.  0.
        -13    1    3    3    0    0 -0.48755453896E+02 -0.34729837322E+02 -0.47653018080E+01  0.60049772346E+02  0.10570000000E+00 0.  1.
         13    1    3    3    0    0  0.48755453896E+02  0.34729837322E+02 -0.43273392450E+02  0.73863749916E+02  0.10570000000E+00 0. -1.
<mgrwt>
<rscale>  0 0.12500046E+03</rscale>
<asrwt>0</asrwt>
<pdfrwt beam="2">  1        1 0.13996324E-01 0.12500046E+03</pdfrwt>
<pdfrwt beam="1">  1       -1 0.66057560E-02 0.12500046E+03</pdfrwt>
<totfact> 0.42556420E+04</totfact>
</mgrwt>
</event>
<event>
 5    1  0.1336420E-049  0.1250015E+03  0.7818608E-02  0.1235067E+00
         -1   -1    0    0    0  501 -0.00000000000E+00  0.00000000000E+00  0.33292382413E+02  0.33292382741E+02  0.46700000000E-02 0.  1.
          1   -1    0    0  501    0  0.00000000000E+00 -0.00000000000E+00 -0.11733443160E+03  0.11733443169E+03  0.46700000000E-02 0. -1.
         25    2    1    2    0    0  0.00000000000E+00  0.00000000000E+00 -0.84042049182E+02  0.15062681443E+03  0.12500148477E+03 0.  0.
        -13    1    3    3    0    0  0.19661292183E+02  0.47209306735E+02  0.12760022121E+01  0.51155883404E+02  0.10570000000E+00 0.  1.
         13    1    3    3    0    0 -0.19661292183E+02 -0.47209306735E+02 -0.85318051394E+02  0.99470931025E+02  0.10570000000E+00 0. -1.
<mgrwt>
<rscale>  0 0.12500148E+03</rscale>
<asrwt>0</asrwt>
<pdfrwt beam="2">  1        1 0.18051451E-01 0.12500148E+03</pdfrwt>
<pdfrwt beam="1">  1       -1 0.51219051E-02 0.12500148E+03</pdfrwt>
<totfact> 0.44754714E+04</totfact>
</mgrwt>
</event>
<event>
 5    1  0.1336420E-049  0.1250044E+03  0.7818608E-02  0.1235062E+00
          1   -1    0    0  501    0  0.00000000000E+00  0.00000000000E+00  0.31345696460E+02  0.31345696808E+02  0.46700000000E-02 0. -1.
         -1   -1    0    0    0  501 -0.00000000000E+00 -0.00000000000E+00 -0.12462723712E+03  0.12462723721E+03  0.46700000000E-02 0.  1.
         25    2    1    2    0    0  0.00000000000E+00  0.00000000000E+00 -0.93281540663E+02  0.15597293402E+03  0.12500444119E+03 0.  0.
        -13    1    3    3    0    0  0.11415589581E+02 -0.60198641428E+02 -0.62040332822E+02  0.87196365660E+02  0.10570000000E+00 0.  1.
         13    1    3    3    0    0 -0.11415589581E+02  0.60198641428E+02 -0.31241207841E+02  0.68776568358E+02  0.10570000000E+00 0. -1.
<mgrwt>
<rscale>  0 0.12500444E+03</rscale>
<asrwt>0</asrwt>
<pdfrwt beam="1">  1        1 0.48224149E-02 0.12500444E+03</pdfrwt>
<pdfrwt beam="2">  1       -1 0.19173421E-01 0.12500444E+03</pdfrwt>
<totfact> 0.34290131E+04</totfact>
</mgrwt>
</event>
<event>
 4    1  0.1336420E-049  0.1249426E+03  0.7818608E-02  0.1235159E+00
          1   -1    0    0  501    0  0.00000000000E+00  0.00000000000E+00  0.43259136972E+03  0.43259136975E+03  0.46700000000E-02 0. -1.
         -1   -1    0    0    0  501 -0.00000000000E+00 -0.00000000000E+00 -0.90215945831E+01  0.90215957918E+01  0.46700000000E-02 0.  1.
        -13    1    1    2    0    0  0.50403304288E+02 -0.21797579492E+02  0.10651618286E+03  0.11983879146E+03  0.10570000000E+00 0.  1.
         13    1    1    2    0    0 -0.50403304288E+02  0.21797579492E+02  0.31705359228E+03  0.32177417408E+03  0.10570000000E+00 0. -1.
<mgrwt>
<rscale>  0 0.12494261E+03</rscale>
<asrwt>0</asrwt>
<pdfrwt beam="1">  1        1 0.66552488E-01 0.12494261E+03</pdfrwt>
<pdfrwt beam="2">  1       -1 0.13879384E-02 0.12494261E+03</pdfrwt>
<totfact> 0.58407287E+04</totfact>
</mgrwt>
</event>
<event>
 5    1  0.1336420E-049  0.1250004E+03  0.7818608E-02  0.1235069E+00
          1   -1    0    0  501    0  0.00000000000E+00  0.00000000000E+00  0.15440390015E+03  0.15440390022E+03  0.46700000000E-02 0. -1.
         -1   -1    0    0    0  501 -0.00000000000E+00 -0.00000000000E+00 -0.25299078364E+02  0.25299078796E+02  0.46700000000E-02 0.  1.
         25    2    1    2    0    0  0.00000000000E+00  0.00000000000E+00  0.12910482178E+03  0.17970297901E+03  0.12500042263E+03 0.  0.
        -13    1    3    3    0    0  0.18818210024E+02  0.57725375636E+02  0.85871928050E+02  0.10516816638E+03  0.10570000000E+00 0. -1.
         13    1    3    3    0    0 -0.18818210024E+02 -0.57725375636E+02  0.43232893732E+02  0.74534812630E+02  0.10570000000E+00 0.  1.
<mgrwt>
<rscale>  0 0.12500042E+03</rscale>
<asrwt>0</asrwt>
<pdfrwt beam="1">  1        1 0.23754446E-01 0.12500042E+03</pdfrwt>
<pdfrwt beam="2">  1       -1 0.38921660E-02 0.12500042E+03</pdfrwt>
<totfact> 0.47346583E+04</totfact>
</mgrwt>
</event>
<event>
 5    1  0.1336420E-049  0.1250000E+03  0.7818608E-02  0.1235069E+00
          1   -1    0    0  501    0  0.00000000000E+00  0.00000000000E+00  0.12386749053E+02  0.12386749933E+02  0.46700000000E-02 0. -1.
         -1   -1    0    0    0  501 -0.00000000000E+00 -0.00000000000E+00 -0.31535706228E+03  0.31535706231E+03  0.46700000000E-02 0.  1.
         25    2    1    2    0    0  0.00000000000E+00  0.00000000000E+00 -0.30297031323E+03  0.32774381225E+03  0.12499998308E+03 0.  0.
        -13    1    3    3    0    0  0.51081112493E+02  0.27907794399E+02 -0.91804076064E+02  0.10870199904E+03  0.10570000000E+00 0. -1.
         13    1    3    3    0    0 -0.51081112493E+02 -0.27907794399E+02 -0.21116623716E+03  0.21904181320E+03  0.10570000000E+00 0.  1.
<mgrwt>
<rscale>  0 0.12499998E+03</rscale>
<asrwt>0</asrwt>
<pdfrwt beam="1">  1        1 0.19056540E-02 0.12499998E+03</pdfrwt>
<pdfrwt beam="2">  1       -1 0.48516465E-01 0.12499998E+03</pdfrwt>
<totfact> 0.25792789E+04</totfact>
</mgrwt>
</event>
<event>
 5    1  0.1336420E-049  0.1249978E+03  0.7818608E-02  0.1235073E+00
         -1   -1    0    0    0  501 -0.00000000000E+00  0.00000000000E+00  0.33232363998E+03  0.33232364002E+03  0.46700000000E-02 0.  1.
          1   -1    0    0  501    0  0.00000000000E+00 -0.00000000000E+00 -0.11753932687E+02  0.11753933615E+02  0.46700000000E-02 0. -1.
         25    2    1    2    0    0  0.00000000000E+00  0.00000000000E+00  0.32056970730E+03  0.34407757363E+03  0.12499775774E+03 0.  0.
        -13    1    3    3    0    0 -0.57776627977E+02  0.23757530733E+02  0.15510596969E+03  0.16721373153E+03  0.10570000000E+00 0.  1.
         13    1    3    3    0    0  0.57776627977E+02 -0.23757530733E+02  0.16546373761E+03  0.17686384210E+03  0.10570000000E+00 0. -1.
<mgrwt>
<rscale>  0 0.12499776E+03</rscale>
<asrwt>0</asrwt>
<pdfrwt beam="2">  1        1 0.18082976E-02 0.12499776E+03</pdfrwt>
<pdfrwt beam="1">  1       -1 0.51126708E-01 0.12499776E+03</pdfrwt>
<totfact> 0.25221981E+04</totfact>
</mgrwt>
</event>
<event>
 5    1  0.1336420E-049  0.1249999E+03  0.7818608E-02  0.1235069E+00
         -1   -1    0    0    0  501 -0.00000000000E+00  0.00000000000E+00  0.10421109258E+03  0.10421109268E+03  0.46700000000E-02 0.  1.
          1   -1    0    0  501    0  0.00000000000E+00 -0.00000000000E+00 -0.37483964272E+02  0.37483964563E+02  0.46700000000E-02 0. -1.
         25    2    1    2    0    0  0.00000000000E+00  0.00000000000E+00  0.66727128307E+02  0.14169505725E+03  0.12499991838E+03 0.  0.
        -13    1    3    3    0    0  0.61754814512E+02 -0.41071660824E+01  0.43226705991E+02  0.75492285778E+02  0.10570000000E+00 0.  1.
         13    1    3    3    0    0 -0.61754814512E+02  0.41071660824E+01  0.23500422315E+02  0.66202771469E+02  0.10570000000E+00 0. -1.
<mgrwt>
<rscale>  0 0.12499992E+03</rscale>
<asrwt>0</asrwt>
<pdfrwt beam="2">  1        1 0.57667638E-02 0.12499992E+03</pdfrwt>
<pdfrwt beam="1">  1       -1 0.16032476E-01 0.12499992E+03</pdfrwt>
<totfact> 0.35685128E+04</totfact>
</mgrwt>
</event>
<event>
 5    1  0.1336420E-049  0.1249968E+03  0.7818608E-02  0.1235074E+00
         -1   -1    0    0    0  501 -0.00000000000E+00  0.00000000000E+00  0.16410962438E+02  0.16410963102E+02  0.46700000000E-02 0.  1.
          1   -1    0    0  501    0  0.00000000000E+00 -0.00000000000E+00 -0.23801482986E+03  0.23801482991E+03  0.46700000000E-02 0. -1.
         25    2    1    2    0    0  0.00000000000E+00  0.00000000000E+00 -0.22160386743E+03  0.25442579301E+03  0.12499684033E+03 0.  0.
        -13    1    3    3    0    0  0.51312076828E+02  0.35010671140E+02 -0.12481041333E+03  0.13941422729E+03  0.10570000000E+00 0. -1.
         13    1    3    3    0    0 -0.51312076828E+02 -0.35010671140E+02 -0.96793454094E+02  0.11501156572E+03  0.10570000000E+00 0.  1.
<mgrwt>
<rscale>  0 0.12499684E+03</rscale>
<asrwt>0</asrwt>
<pdfrwt beam="2">  1        1 0.36617664E-01 0.12499684E+03</pdfrwt>
<pdfrwt beam="1">  1       -1 0.25247637E-02 0.12499684E+03</pdfrwt>
<totfact> 0.51903302E+04</totfact>
</mgrwt>
</event>
<event>
 5    1  0.1336420E-049  0.1249989E+03  0.7818608E-02  0.1235071E+00
          1   -1    0    0  501    0  0.00000000000E+00  0.00000000000E+00  0.53023245888E+03  0.53023245890E+03  0.46700000000E-02 0. -1.
         -1   -1    0    0    0  501 -0.00000000000E+00 -0.00000000000E+00 -0.73669218816E+01  0.73669233617E+01  0.46700000000E-02 0.  1.
         25    2    1    2    0    0  0.00000000000E+00  0.00000000000E+00  0.52286553700E+03  0.53759938226E+03  0.12499890411E+03 0.  0.
        -13    1    3    3    0    0 -0.31267918150E+01 -0.62143758564E+02  0.23615397530E+03  0.24421370719E+03  0.10570000000E+00 0. -1.
         13    1    3    3    0    0  0.31267918150E+01  0.62143758564E+02  0.28671156170E+03  0.29338567507E+03  0.10570000000E+00 0.  1.
<mgrwt>
<rscale>  0 0.12499890E+03</rscale>
<asrwt>0</asrwt>
<pdfrwt beam="1">  1        1 0.81574233E-01 0.12499890E+03</pdfrwt>
<pdfrwt beam="2">  1       -1 0.11333726E-02 0.12499890E+03</pdfrwt>
<totfact> 0.59981129E+04</totfact>
</mgrwt>
</event>
<event>
 5    1  0.1336420E-049  0.1250004E+03  0.7818608E-02  0.1235069E+00
          1   -1    0    0  501    0  0.00000000000E+00  0.00000000000E+00  0.10886021189E+03  0.10886021199E+03  0.46700000000E-02 0. -1.
         -1   -1    0    0    0  501 -0.00000000000E+00 -0.00000000000E+00 -0.35883407311E+02  0.35883407615E+02  0.46700000000E-02 0.  1.
         25    2    1    2    0    0  0.00000000000E+00  0.00000000000E+00  0.72976804576E+02  0.14474361960E+03  0.12500040564E+03 0.  0.
        -13    1    3    3    0    0  0.35439960386E+02  0.49682958164E+02  0.20872144697E+02  0.64498408669E+02  0.10570000000E+00 0.  1.
         13    1    3    3    0    0 -0.35439960386E+02 -0.49682958164E+02  0.52104659879E+02  0.80245210933E+02  0.10570000000E+00 0. -1.
<mgrwt>
<rscale>  0 0.12500041E+03</rscale>
<asrwt>0</asrwt>
<pdfrwt beam="1">  1        1 0.16747724E-01 0.12500041E+03</pdfrwt>
<pdfrwt beam="2">  1       -1 0.55205244E-02 0.12500041E+03</pdfrwt>
<totfact> 0.44089787E+04</totfact>
</mgrwt>
</event>
<event>
 5    1  0.1336420E-049  0.1249739E+03  0.7818608E-02  0.1235110E+00
          1   -1    0    0  501    0  0.00000000000E+00  0.00000000000E+00  0.42609716317E+03  0.42609716319E+03  0.46700000000E-02 0. -1.
         -1   -1    0    0    0  501 -0.00000000000E+00 -0.00000000000E+00 -0.91636831803E+01  0.91636843703E+01  0.46700000000E-02 0.  1.
         25    2    1    2    0    0  0.00000000000E+00  0.00000000000E+00  0.41693347998E+03  0.43526084756E+03  0.12497391203E+03 0.  0.
        -13    1    3    3    0    0 -0.54637372209E+02  0.28268976709E+02  0.24665575812E+03  0.25421143104E+03  0.10570000000E+00 0.  1.
         13    1    3    3    0    0  0.54637372209E+02 -0.28268976709E+02  0.17027772187E+03  0.18104941652E+03  0.10570000000E+00 0. -1.
<mgrwt>
<rscale>  0 0.12497391E+03</rscale>
<asrwt>0</asrwt>
<pdfrwt beam="1">  1        1 0.65553416E-01 0.12497391E+03</pdfrwt>
<pdfrwt beam="2">  1       -1 0.14097974E-02 0.12497391E+03</pdfrwt>
<totfact> 0.58224361E+04</totfact>
</mgrwt>
</event>
<event>
 5    1  0.1336420E-049  0.1249999E+03  0.7818608E-02  0.1235069E+00
         -1   -1    0    0    0  501 -0.00000000000E+00  0.00000000000E+00  0.21953675530E+03  0.21953675535E+03  0.46700000000E-02 0.  1.
          1   -1    0    0  501    0  0.00000000000E+00 -0.00000000000E+00 -0.17793127359E+02  0.17793127972E+02  0.46700000000E-02 0. -1.
         25    2    1    2    0    0  0.00000000000E+00  0.00000000000E+00  0.20174362794E+03  0.23732988332E+03  0.12499992841E+03 0.  0.
        -13    1    3    3    0    0  0.27908342475E+02  0.55911580033E+02  0.10299794483E+03  0.12047227139E+03  0.10570000000E+00 0.  1.
         13    1    3    3    0    0 -0.27908342475E+02 -0.55911580033E+02  0.98745683113E+02  0.11685761194E+03  0.10570000000E+00 0. -1.
<mgrwt>
<rscale>  0 0.12499993E+03</rscale>
<asrwt>0</asrwt>
<pdfrwt beam="2">  1        1 0.27374042E-02 0.12499993E+03</pdfrwt>
<pdfrwt beam="1">  1       -1 0.33774886E-01 0.12499993E+03</pdfrwt>
<totfact> 0.29444416E+04</totfact>
</mgrwt>
</event>
<event>
 5    1  0.1336420E-049  0.1249991E+03  0.7818608E-02  0.1235071E+00
          1   -1    0    0  501    0  0.00000000000E+00  0.00000000000E+00  0.16023430220E+02  0.16023430900E+02  0.46700000000E-02 0. -1.
         -1   -1    0    0    0  501 -0.00000000000E+00 -0.00000000000E+00 -0.24378005638E+03  0.24378005642E+03  0.46700000000E-02 0.  1.
         25    2    1    2    0    0  0.00000000000E+00  0.00000000000E+00 -0.22775662616E+03  0.25980348733E+03  0.12499908506E+03 0.  0.
        -13    1    3    3    0    0  0.46176970258E+02 -0.11510463986E+02 -0.19808420558E+03  0.20372080658E+03  0.10570000000E+00 0.  1.
         13    1    3    3    0    0 -0.46176970258E+02  0.11510463986E+02 -0.29672420582E+02  0.56082680741E+02  0.10570000000E+00 0. -1.
<mgrwt>
<rscale>  0 0.12499909E+03</rscale>
<asrwt>0</asrwt>
<pdfrwt beam="1">  1        1 0.24651433E-02 0.12499909E+03</pdfrwt>
<pdfrwt beam="2">  1       -1 0.37504621E-01 0.12499909E+03</pdfrwt>
<totfact> 0.28441780E+04</totfact>
</mgrwt>
</event>
<event>
 5    1  0.1336420E-049  0.1250025E+03  0.7818608E-02  0.1235065E+00
         -1   -1    0    0    0  501 -0.00000000000E+00  0.00000000000E+00  0.39712120840E+02  0.39712121115E+02  0.46700000000E-02 0.  1.
          1   -1    0    0  501    0  0.00000000000E+00 -0.00000000000E+00 -0.98368176499E+02  0.98368176610E+02  0.46700000000E-02 0. -1.
         25    2    1    2    0    0  0.00000000000E+00  0.00000000000E+00 -0.58656055659E+02  0.13808029772E+03  0.12500254299E+03 0.  0.
        -13    1    3    3    0    0  0.53798133296E+02 -0.31453714364E+02 -0.24050941316E+02  0.66798459893E+02  0.10570000000E+00 0.  1.
         13    1    3    3    0    0 -0.53798133296E+02  0.31453714364E+02 -0.34605114344E+02  0.71281837832E+02  0.10570000000E+00 0. -1.
<mgrwt>
<rscale>  0 0.12500254E+03</rscale>
<asrwt>0</asrwt>
<pdfrwt beam="2">  1        1 0.15133566E-01 0.12500254E+03</pdfrwt>
<pdfrwt beam="1">  1       -1 0.61095571E-02 0.12500254E+03</pdfrwt>
<totfact> 0.43212078E+04</totfact>
</mgrwt>
</event>
<event>
 5    1  0.1336420E-049  0.1250201E+03  0.7818608E-02  0.1235038E+00
          1   -1    0    0  501    0  0.00000000000E+00  0.00000000000E+00  0.65211888696E+02  0.65211888863E+02  0.46700000000E-02 0. -1.
         -1   -1    0    0    0  501 -0.00000000000E+00 -0.00000000000E+00 -0.59920148737E+02  0.59920148919E+02  0.46700000000E-02 0.  1.
         25    2    1    2    0    0  0.00000000000E+00  0.00000000000E+00  0.52917399585E+01  0.12513203778E+03  0.12502009586E+03 0.  0.
        -13    1    3    3    0    0 -0.47562540764E+02 -0.10837264449E+02  0.41768633345E+02  0.64220491190E+02  0.10570000000E+00 0. -1.
         13    1    3    3    0    0  0.47562540764E+02  0.10837264449E+02 -0.36476893386E+02  0.60911546593E+02  0.10570000000E+00 0.  1.
<mgrwt>
<rscale>  0 0.12502010E+03</rscale>
<asrwt>0</asrwt>
<pdfrwt beam="1">  1        1 0.10032598E-01 0.12502010E+03</pdfrwt>
<pdfrwt beam="2">  1       -1 0.92184845E-02 0.12502010E+03</pdfrwt>
<totfact> 0.39877098E+04</totfact>
</mgrwt>
</event>
<event>
 5    1  0.1336420E-049  0.1250001E+03  0.7818608E-02  0.1235069E+00
          1   -1    0    0  501    0  0.00000000000E+00  0.00000000000E+00  0.32286712838E+03  0.32286712842E+03  0.46700000000E-02 0. -1.
         -1   -1    0    0    0  501 -0.00000000000E+00 -0.00000000000E+00 -0.12098644967E+02  0.12098645868E+02  0.46700000000E-02 0.  1.
         25    2    1    2    0    0  0.00000000000E+00  0.00000000000E+00  0.31076848342E+03  0.33496577429E+03  0.12500007863E+03 0.  0.
        -13    1    3    3    0    0 -0.39648002474E+02 -0.45604410632E+02  0.19813549628E+03  0.20714587234E+03  0.10570000000E+00 0.  1.
         13    1    3    3    0    0  0.39648002474E+02  0.45604410632E+02  0.11263298714E+03  0.12781990195E+03  0.10570000000E+00 0. -1.
<mgrwt>
<rscale>  0 0.12500008E+03</rscale>
<asrwt>0</asrwt>
<pdfrwt beam="1">  1        1 0.49671860E-01 0.12500008E+03</pdfrwt>
<pdfrwt beam="2">  1       -1 0.18613303E-02 0.12500008E+03</pdfrwt>
<totfact> 0.55299766E+04</totfact>
</mgrwt>
</event>
<event>
 5    1  0.1547014E-049  0.1250007E+03  0.7818608E-02  0.1235068E+00
          1   -1    0    0  501    0  0.00000000000E+00  0.00000000000E+00  0.24178139193E+03  0.24178139198E+03  0.46700000000E-02 0. -1.
         -1   -1    0    0    0  501 -0.00000000000E+00 -0.00000000000E+00 -0.16156303370E+02  0.16156304045E+02  0.46700000000E-02 0.  1.
         25    2    1    2    0    0  0.00000000000E+00  0.00000000000E+00  0.22562508856E+03  0.25793769602E+03  0.12500069776E+03 0.  0.
        -13    1    3    3    0    0  0.50563865585E+02  0.27066909373E+02  0.61558161646E+02  0.84135251373E+02  0.10570000000E+00 0.  1.
         13    1    3    3    0    0 -0.50563865585E+02 -0.27066909373E+02  0.16406692692E+03  0.17380244465E+03  0.10570000000E+00 0. -1.
<mgrwt>
<rscale>  0 0.12500070E+03</rscale>
<asrwt>0</asrwt>
<pdfrwt beam="1">  1        1 0.37197138E-01 0.12500070E+03</pdfrwt>
<pdfrwt beam="2">  1       -1 0.24855852E-02 0.12500070E+03</pdfrwt>
<totfact> 0.52072179E+04</totfact>
</mgrwt>
</event>
<event>
 5    1  0.1336420E-049  0.1249994E+03  0.7818608E-02  0.1235070E+00
          1   -1    0    0  501    0  0.00000000000E+00  0.00000000000E+00  0.72473862614E+02  0.72473862764E+02  0.46700000000E-02 0. -1.
         -1   -1    0    0    0  501 -0.00000000000E+00 -0.00000000000E+00 -0.53898234036E+02  0.53898234238E+02  0.46700000000E-02 0.  1.
         25    2    1    2    0    0  0.00000000000E+00  0.00000000000E+00  0.18575628578E+02  0.12637209700E+03  0.12499941169E+03 0.  0.
        -13    1    3    3    0    0  0.28637394959E+02  0.13009763813E+02  0.63888751956E+02  0.71211924166E+02  0.10570000000E+00 0. -1.
         13    1    3    3    0    0 -0.28637394959E+02 -0.13009763813E+02 -0.45313123378E+02  0.55160172836E+02  0.10570000000E+00 0.  1.
<mgrwt>
<rscale>  0 0.12499941E+03</rscale>
<asrwt>0</asrwt>
<pdfrwt beam="1">  1        1 0.11149825E-01 0.12499941E+03</pdfrwt>
<pdfrwt beam="2">  1       -1 0.82920361E-02 0.12499941E+03</pdfrwt>
<totfact> 0.40719640E+04</totfact>
</mgrwt>
</event>
<event>
 5    1  0.1336420E-049  0.1250002E+03  0.7818608E-02  0.1235069E+00
          1   -1    0    0  501    0  0.00000000000E+00  0.00000000000E+00  0.36714967010E+03  0.36714967013E+03  0.46700000000E-02 0. -1.
         -1   -1    0    0    0  501 -0.00000000000E+00 -0.00000000000E+00 -0.10639420989E+02  0.10639422014E+02  0.46700000000E-02 0.  1.
         25    2    1    2    0    0  0.00000000000E+00  0.00000000000E+00  0.35651024911E+03  0.37778909214E+03  0.12500016169E+03 0.  0.
        -13    1    3    3    0    0 -0.21010810046E+02  0.58324666008E+02  0.20224931205E+03  0.21153726906E+03  0.10570000000E+00 0.  1.
         13    1    3    3    0    0  0.21010810046E+02 -0.58324666008E+02  0.15426093706E+03  0.16625182309E+03  0.10570000000E+00 0. -1.
<mgrwt>
<rscale>  0 0.12500016E+03</rscale>
<asrwt>0</asrwt>
<pdfrwt beam="1">  1        1 0.56484555E-01 0.12500016E+03</pdfrwt>
<pdfrwt beam="2">  1       -1 0.16368344E-02 0.12500016E+03</pdfrwt>
<totfact> 0.56686481E+04</totfact>
</mgrwt>
</event>
<event>
 5    1  0.1336420E-049  0.1250005E+03  0.7818608E-02  0.1235069E+00
          1   -1    0    0  501    0  0.00000000000E+00  0.00000000000E+00  0.88943230314E+02  0.88943230437E+02  0.46700000000E-02 0. -1.
         -1   -1    0    0    0  501 -0.00000000000E+00 -0.00000000000E+00 -0.43918782253E+02  0.43918782501E+02  0.46700000000E-02 0.  1.
         25    2    1    2    0    0  0.00000000000E+00  0.00000000000E+00  0.45024448061E+02  0.13286201294E+03  0.12500045423E+03 0.  0.
        -13    1    3    3    0    0 -0.84045594595E+01  0.58609403846E+02  0.43785166613E+02  0.73640008329E+02  0.10570000000E+00 0.  1.
         13    1    3    3    0    0  0.84045594595E+01 -0.58609403846E+02  0.12392814476E+01  0.59222004609E+02  0.10570000000E+00 0. -1.
<mgrwt>
<rscale>  0 0.12500045E+03</rscale>
<asrwt>0</asrwt>
<pdfrwt beam="1">  1        1 0.13683574E-01 0.12500045E+03</pdfrwt>
<pdfrwt beam="2">  1       -1 0.67567358E-02 0.12500045E+03</pdfrwt>
<totfact> 0.42368853E+04</totfact>
</mgrwt>
</event>
<event>
 5    1  0.1336420E-049  0.1250000E+03  0.7818608E-02  0.1235069E+00
          1   -1    0    0  501    0  0.00000000000E+00  0.00000000000E+00  0.39658103677E+03  0.39658103680E+03  0.46700000000E-02 0. -1.
         -1   -1    0    0    0  501 -0.00000000000E+00 -0.00000000000E+00 -0.98498080005E+01  0.98498091076E+01  0.46700000000E-02 0.  1.
         25    2    1    2    0    0  0.00000000000E+00  0.00000000000E+00  0.38673122877E+03  0.40643084590E+03  0.12499995679E+03 0.  0.
        -13    1    3    3    0    0  0.58026368320E+02  0.20656785803E+02  0.15888280127E+03  0.17040398449E+03  0.10570000000E+00 0.  1.
         13    1    3    3    0    0 -0.58026368320E+02 -0.20656785803E+02  0.22784842750E+03  0.23602686141E+03  0.10570000000E+00 0. -1.
<mgrwt>
<rscale>  0 0.12499996E+03</rscale>
<asrwt>0</asrwt>
<pdfrwt beam="1">  1        1 0.61012463E-01 0.12499996E+03</pdfrwt>
<pdfrwt beam="2">  1       -1 0.15153553E-02 0.12499996E+03</pdfrwt>
<totfact> 0.57485433E+04</totfact>
</mgrwt>
</event>
<event>
 4    1  0.1485324E-049  0.1250597E+03  0.7818608E-02  0.1234976E+00
         -1   -1    0    0    0  501 -0.00000000000E+00  0.00000000000E+00  0.20432918424E+03  0.20432918429E+03  0.46700000000E-02 0. -1.
          1   -1    0    0  501    0  0.00000000000E+00 -0.00000000000E+00 -0.19135701477E+02  0.19135702046E+02  0.46700000000E-02 0.  1.
        -13    1    1    2    0    0 -0.34075087693E+02  0.37974808814E+02  0.15719072227E+03  0.16526382558E+03  0.10570000000E+00 0. -1.
         13    1    1    2    0    0  0.34075087693E+02 -0.37974808814E+02  0.28002760496E+02  0.58201060760E+02  0.10570000000E+00 0.  1.
<mgrwt>
<rscale>  0 0.12505970E+03</rscale>
<asrwt>0</asrwt>
<pdfrwt beam="2">  1        1 0.29439540E-02 0.12505970E+03</pdfrwt>
<pdfrwt beam="1">  1       -1 0.31435260E-01 0.12505970E+03</pdfrwt>
<totfact> 0.30072027E+04</totfact>
</mgrwt>
</event>
<event>
 5    1  0.1336420E-049  0.1249991E+03  0.7818608E-02  0.1235071E+00
         -1   -1    0    0    0  501 -0.00000000000E+00  0.00000000000E+00  0.26392862122E+02  0.26392862535E+02  0.46700000000E-02 0.  1.
          1   -1    0    0  501    0  0.00000000000E+00 -0.00000000000E+00 -0.14800180990E+03  0.14800180998E+03  0.46700000000E-02 0. -1.
         25    2    1    2    0    0  0.00000000000E+00  0.00000000000E+00 -0.12160894778E+03  0.17439467251E+03  0.12499906248E+03 0.  0.
        -13    1    3    3    0    0 -0.37186022702E+02  0.77237689959E+01  0.84459485511E+01  0.38907609941E+02  0.10570000000E+00 0.  1.
         13    1    3    3    0    0  0.37186022702E+02 -0.77237689959E+01 -0.13005489633E+03  0.13548706257E+03  0.10570000000E+00 0. -1.
<mgrwt>
<rscale>  0 0.12499906E+03</rscale>
<asrwt>0</asrwt>
<pdfrwt beam="2">  1        1 0.22769509E-01 0.12499906E+03</pdfrwt>
<pdfrwt beam="1">  1       -1 0.40604405E-02 0.12499906E+03</pdfrwt>
<totfact> 0.46933158E+04</totfact>
</mgrwt>
</event>
<event>
 5    1  0.1336420E-049  0.1250007E+03  0.7818608E-02  0.1235068E+00
         -1   -1    0    0    0  501 -0.00000000000E+00  0.00000000000E+00  0.25154190782E+02  0.25154191215E+02  0.46700000000E-02 0.  1.
          1   -1    0    0  501    0  0.00000000000E+00 -0.00000000000E+00 -0.15529388221E+03  0.15529388228E+03  0.46700000000E-02 0. -1.
         25    2    1    2    0    0  0.00000000000E+00  0.00000000000E+00 -0.13013969143E+03  0.18044807350E+03  0.12500067177E+03 0.  0.
        -13    1    3    3    0    0  0.59647903518E+02  0.16490651228E+02 -0.77693249618E+02  0.99328073477E+02  0.10570000000E+00 0.  1.
         13    1    3    3    0    0 -0.59647903518E+02 -0.16490651228E+02 -0.52446441810E+02  0.81120000019E+02  0.10570000000E+00 0. -1.
<mgrwt>
<rscale>  0 0.12500067E+03</rscale>
<asrwt>0</asrwt>
<pdfrwt beam="2">  1        1 0.23891366E-01 0.12500067E+03</pdfrwt>
<pdfrwt beam="1">  1       -1 0.38698756E-02 0.12500067E+03</pdfrwt>
<totfact> 0.47403059E+04</totfact>
</mgrwt>
</event>
<event>
 5    1  0.1336420E-049  0.1250030E+03  0.7818608E-02  0.1235065E+00
         -1   -1    0    0    0  501 -0.00000000000E+00  0.00000000000E+00  0.39717338873E+02  0.39717339148E+02  0.46700000000E-02 0.  1.
          1   -1    0    0  501    0  0.00000000000E+00 -0.00000000000E+00 -0.98356048984E+02  0.98356049095E+02  0.46700000000E-02 0. -1.
         25    2    1    2    0    0  0.00000000000E+00  0.00000000000E+00 -0.58638710111E+02  0.13807338824E+03  0.12500304883E+03 0.  0.
        -13    1    3    3    0    0  0.37809461027E+02  0.34528825170E+02  0.10270063978E+02  0.52223371180E+02  0.10570000000E+00 0.  1.
         13    1    3    3    0    0 -0.37809461027E+02 -0.34528825170E+02 -0.68908774089E+02  0.85850017063E+02  0.10570000000E+00 0. -1.
<mgrwt>
<rscale>  0 0.12500305E+03</rscale>
<asrwt>0</asrwt>
<pdfrwt beam="2">  1        1 0.15131700E-01 0.12500305E+03</pdfrwt>
<pdfrwt beam="1">  1       -1 0.61103599E-02 0.12500305E+03</pdfrwt>
<totfact> 0.43210531E+04</totfact>
</mgrwt>
</event>
<event>
 5    1  0.1336420E-049  0.1250007E+03  0.7818608E-02  0.1235068E+00
          1   -1    0    0  501    0  0.00000000000E+00  0.00000000000E+00  0.45143765364E+03  0.45143765367E+03  0.46700000000E-02 0. -1.
         -1   -1    0    0    0  501 -0.00000000000E+00 -0.00000000000E+00 -0.86530101947E+01  0.86530114549E+01  0.46700000000E-02 0.  1.
         25    2    1    2    0    0  0.00000000000E+00  0.00000000000E+00  0.44278464345E+03  0.46009066512E+03  0.12500071863E+03 0.  0.
        -13    1    3    3    0    0  0.19450214188E+02  0.57617063998E+02  0.16827696178E+03  0.17892787355E+03  0.10570000000E+00 0.  1.
         13    1    3    3    0    0 -0.19450214188E+02 -0.57617063998E+02  0.27450768167E+03  0.28116279157E+03  0.10570000000E+00 0. -1.
<mgrwt>
<rscale>  0 0.12500072E+03</rscale>
<asrwt>0</asrwt>
<pdfrwt beam="1">  1        1 0.69451952E-01 0.12500072E+03</pdfrwt>
<pdfrwt beam="2">  1       -1 0.13312323E-02 0.12500072E+03</pdfrwt>
<totfact> 0.58722415E+04</totfact>
</mgrwt>
</event>
<event>
 5    1  0.1336420E-049  0.1249981E+03  0.7818608E-02  0.1235072E+00
          1   -1    0    0  501    0  0.00000000000E+00  0.00000000000E+00  0.49144082602E+02  0.49144082824E+02  0.46700000000E-02 0. -1.
         -1   -1    0    0    0  501 -0.00000000000E+00 -0.00000000000E+00 -0.79483302793E+02  0.79483302931E+02  0.46700000000E-02 0.  1.
         25    2    1    2    0    0  0.00000000000E+00  0.00000000000E+00 -0.30339220191E+02  0.12862738575E+03  0.12499814432E+03 0.  0.
        -13    1    3    3    0    0 -0.10525964433E+02 -0.28784852559E+02 -0.71219017482E+02  0.77534013747E+02  0.10570000000E+00 0.  1.
         13    1    3    3    0    0  0.10525964433E+02  0.28784852559E+02  0.40879797291E+02  0.51093372008E+02  0.10570000000E+00 0. -1.
<mgrwt>
<rscale>  0 0.12499814E+03</rscale>
<asrwt>0</asrwt>
<pdfrwt beam="1">  1        1 0.75606281E-02 0.12499814E+03</pdfrwt>
<pdfrwt beam="2">  1       -1 0.12228200E-01 0.12499814E+03</pdfrwt>
<totfact> 0.37742710E+04</totfact>
</mgrwt>
</event>
<event>
 5    1  0.1336420E-049  0.1249989E+03  0.7818608E-02  0.1235071E+00
         -1   -1    0    0    0  501 -0.00000000000E+00  0.00000000000E+00  0.16898681453E+02  0.16898682098E+02  0.46700000000E-02 0.  1.
          1   -1    0    0  501    0  0.00000000000E+00 -0.00000000000E+00 -0.23115291850E+03  0.23115291855E+03  0.46700000000E-02 0. -1.
         25    2    1    2    0    0  0.00000000000E+00  0.00000000000E+00 -0.21425423705E+03  0.24805160064E+03  0.12499887395E+03 0.  0.
        -13    1    3    3    0    0  0.26339368213E+02 -0.55254527519E+02 -0.82077399141E+02  0.10238913884E+03  0.10570000000E+00 0.  1.
         13    1    3    3    0    0 -0.26339368213E+02  0.55254527519E+02 -0.13217683791E+03  0.14566246181E+03  0.10570000000E+00 0. -1.
<mgrwt>
<rscale>  0 0.12499887E+03</rscale>
<asrwt>0</asrwt>
<pdfrwt beam="2">  1        1 0.35561985E-01 0.12499887E+03</pdfrwt>
<pdfrwt beam="1">  1       -1 0.25997974E-02 0.12499887E+03</pdfrwt>
<totfact> 0.51579023E+04</totfact>
</mgrwt>
</event>
<event>
 5    1  0.1336420E-049  0.1250058E+03  0.7818608E-02  0.1235060E+00
          1   -1    0    0  501    0  0.00000000000E+00  0.00000000000E+00  0.36734659726E+03  0.36734659729E+03  0.46700000000E-02 0.  1.
         -1   -1    0    0    0  501 -0.00000000000E+00 -0.00000000000E+00 -0.10634679987E+02  0.10634681012E+02  0.46700000000E-02 0. -1.
         25    2    1    2    0    0  0.00000000000E+00  0.00000000000E+00  0.35671191727E+03  0.37798127830E+03  0.12500581915E+03 0.  0.
        -13    1    3    3    0    0  0.70863956456E+01 -0.59946195600E+02  0.12933462788E+03  0.14272778466E+03  0.10570000000E+00 0. -1.
         13    1    3    3    0    0 -0.70863956456E+01  0.59946195600E+02  0.22737728938E+03  0.23525349364E+03  0.10570000000E+00 0.  1.
<mgrwt>
<rscale>  0 0.12500582E+03</rscale>
<asrwt>0</asrwt>
<pdfrwt beam="1">  1        1 0.56514860E-01 0.12500582E+03</pdfrwt>
<pdfrwt beam="2">  1       -1 0.16361047E-02 0.12500582E+03</pdfrwt>
<totfact> 0.56685073E+04</totfact>
</mgrwt>
</event>
<event>
 5    1  0.1336420E-049  0.1249959E+03  0.7818608E-02  0.1235076E+00
         -1   -1    0    0    0  501 -0.00000000000E+00  0.00000000000E+00  0.82966730900E+01  0.82966744043E+01  0.46700000000E-02 0.  1.
          1   -1    0    0  501    0  0.00000000000E+00 -0.00000000000E+00 -0.47079058739E+03  0.47079058741E+03  0.46700000000E-02 0. -1.
         25    2    1    2    0    0  0.00000000000E+00  0.00000000000E+00 -0.46249391430E+03  0.47908726182E+03  0.12499593462E+03 0.  0.
        -13    1    3    3    0    0 -0.33420071167E+01 -0.62167623963E+02 -0.25224098428E+03  0.25981052289E+03  0.10570000000E+00 0.  1.
         13    1    3    3    0    0  0.33420071167E+01  0.62167623963E+02 -0.21025293002E+03  0.21927673893E+03  0.10570000000E+00 0. -1.
<mgrwt>
<rscale>  0 0.12499593E+03</rscale>
<asrwt>0</asrwt>
<pdfrwt beam="2">  1        1 0.72429300E-01 0.12499593E+03</pdfrwt>
<pdfrwt beam="1">  1       -1 0.12764117E-02 0.12499593E+03</pdfrwt>
<totfact> 0.59091454E+04</totfact>
</mgrwt>
</event>
<event>
 5    1  0.1336420E-049  0.1249784E+03  0.7818608E-02  0.1235103E+00
          1   -1    0    0  501    0  0.00000000000E+00  0.00000000000E+00  0.65331511163E+03  0.65331511165E+03  0.46700000000E-02 0. -1.
         -1   -1    0    0    0  501 -0.00000000000E+00 -0.00000000000E+00 -0.59770530320E+01  0.59770548564E+01  0.46700000000E-02 0.  1.
         25    2    1    2    0    0  0.00000000000E+00  0.00000000000E+00  0.64733805860E+03  0.65929216650E+03  0.12497839294E+03 0.  0.
        -13    1    3    3    0    0  0.45885328789E+02 -0.41697254514E+02  0.28254776947E+03  0.28927042303E+03  0.10570000000E+00 0.  1.
         13    1    3    3    0    0 -0.45885328789E+02  0.41697254514E+02  0.36479028912E+03  0.37002174347E+03  0.10570000000E+00 0. -1.
<mgrwt>
<rscale>  0 0.12497839E+03</rscale>
<asrwt>0</asrwt>
<pdfrwt beam="1">  1        1 0.10050998E+00 0.12497839E+03</pdfrwt>
<pdfrwt beam="2">  1       -1 0.91954714E-03 0.12497839E+03</pdfrwt>
<totfact> 0.60915978E+04</totfact>
</mgrwt>
</event>
<event>
 5    1  0.1336420E-049  0.1250166E+03  0.7818608E-02  0.1235043E+00
         -1   -1    0    0    0  501 -0.00000000000E+00  0.00000000000E+00  0.10218045356E+02  0.10218046424E+02  0.46700000000E-02 0.  1.
          1   -1    0    0  501    0  0.00000000000E+00 -0.00000000000E+00 -0.38239085317E+03  0.38239085320E+03  0.46700000000E-02 0. -1.
         25    2    1    2    0    0  0.00000000000E+00  0.00000000000E+00 -0.37217280782E+03  0.39260889963E+03  0.12501659564E+03 0.  0.
        -13    1    3    3    0    0 -0.51717829336E+02 -0.25171120714E+02 -0.10922819307E+03  0.12344686518E+03  0.10570000000E+00 0.  1.
         13    1    3    3    0    0  0.51717829336E+02  0.25171120714E+02 -0.26294461475E+03  0.26916203444E+03  0.10570000000E+00 0. -1.
<mgrwt>
<rscale>  0 0.12501660E+03</rscale>
<asrwt>0</asrwt>
<pdfrwt beam="2">  1        1 0.58829351E-01 0.12501660E+03</pdfrwt>
<pdfrwt beam="1">  1       -1 0.15720074E-02 0.12501660E+03</pdfrwt>
<totfact> 0.57091238E+04</totfact>
</mgrwt>
</event>
<event>
 5    1  0.1336420E-049  0.1250058E+03  0.7818608E-02  0.1235060E+00
         -1   -1    0    0    0  501 -0.00000000000E+00  0.00000000000E+00  0.68411418869E+02  0.68411419029E+02  0.46700000000E-02 0.  1.
          1   -1    0    0  501    0  0.00000000000E+00 -0.00000000000E+00 -0.57104651262E+02  0.57104651453E+02  0.46700000000E-02 0. -1.
         25    2    1    2    0    0  0.00000000000E+00  0.00000000000E+00  0.11306767608E+02  0.12551607048E+03  0.12500576369E+03 0.  0.
        -13    1    3    3    0    0  0.31787731989E+02  0.49877845261E+02  0.25943293148E+02  0.64585795533E+02  0.10570000000E+00 0.  1.
         13    1    3    3    0    0 -0.31787731989E+02 -0.49877845261E+02 -0.14636525540E+02  0.60930274948E+02  0.10570000000E+00 0. -1.
<mgrwt>
<rscale>  0 0.12500576E+03</rscale>
<asrwt>0</asrwt>
<pdfrwt beam="2">  1        1 0.87853310E-02 0.12500576E+03</pdfrwt>
<pdfrwt beam="1">  1       -1 0.10524834E-01 0.12500576E+03</pdfrwt>
<totfact> 0.38872606E+04</totfact>
</mgrwt>
</event>
<event>
 5    1  0.1336420E-049  0.1249992E+03  0.7818608E-02  0.1235070E+00
         -1   -1    0    0    0  501 -0.00000000000E+00  0.00000000000E+00  0.15403423944E+02  0.15403424652E+02  0.46700000000E-02 0.  1.
          1   -1    0    0  501    0  0.00000000000E+00 -0.00000000000E+00 -0.25359309533E+03  0.25359309538E+03  0.46700000000E-02 0. -1.
         25    2    1    2    0    0  0.00000000000E+00  0.00000000000E+00 -0.23818967139E+03  0.26899652003E+03  0.12499923292E+03 0.  0.
        -13    1    3    3    0    0  0.62293125394E+02  0.45495654103E+01 -0.12393506571E+03  0.13878416229E+03  0.10570000000E+00 0.  1.
         13    1    3    3    0    0 -0.62293125394E+02 -0.45495654103E+01 -0.11425460568E+03  0.13021235774E+03  0.10570000000E+00 0. -1.
<mgrwt>
<rscale>  0 0.12499923E+03</rscale>
<asrwt>0</asrwt>
<pdfrwt beam="2">  1        1 0.39014319E-01 0.12499923E+03</pdfrwt>
<pdfrwt beam="1">  1       -1 0.23697578E-02 0.12499923E+03</pdfrwt>
<totfact> 0.52602268E+04</totfact>
</mgrwt>
</event>
<event>
 5    1  0.1336420E-049  0.1249973E+03  0.7818608E-02  0.1235074E+00
         -1   -1    0    0    0  501 -0.00000000000E+00  0.00000000000E+00  0.17081862875E+02  0.17081863513E+02  0.46700000000E-02 0.  1.
          1   -1    0    0  501    0  0.00000000000E+00 -0.00000000000E+00 -0.22866821962E+03  0.22866821967E+03  0.46700000000E-02 0. -1.
         25    2    1    2    0    0  0.00000000000E+00  0.00000000000E+00 -0.21158635675E+03  0.24575008318E+03  0.12499726806E+03 0.  0.
        -13    1    3    3    0    0  0.18530363730E+02  0.50653553519E+02 -0.16786884529E+03  0.17632106299E+03  0.10570000000E+00 0. -1.
         13    1    3    3    0    0 -0.18530363730E+02 -0.50653553519E+02 -0.43717511461E+02  0.69429020192E+02  0.10570000000E+00 0.  1.
<mgrwt>
<rscale>  0 0.12499727E+03</rscale>
<asrwt>0</asrwt>
<pdfrwt beam="2">  1        1 0.35179724E-01 0.12499727E+03</pdfrwt>
<pdfrwt beam="1">  1       -1 0.26279791E-02 0.12499727E+03</pdfrwt>
<totfact> 0.51462272E+04</totfact>
</mgrwt>
</event>
<event>
 5    1  0.1336420E-049  0.1250026E+03  0.7818608E-02  0.1235065E+00
         -1   -1    0    0    0  501 -0.00000000000E+00  0.00000000000E+00  0.63995357519E+01  0.63995374558E+01  0.46700000000E-02 0.  1.
          1   -1    0    0  501    0  0.00000000000E+00 -0.00000000000E+00 -0.61042141142E+03  0.61042141144E+03  0.46700000000E-02 0. -1.
         25    2    1    2    0    0  0.00000000000E+00  0.00000000000E+00 -0.60402187567E+03  0.61682094889E+03  0.12500262681E+03 0.  0.
        -13    1    3    3    0    0 -0.84053923625E+01 -0.61328835768E+02 -0.25941239742E+03  0.26669585641E+03  0.10570000000E+00 0.  1.
         13    1    3    3    0    0  0.84053923625E+01  0.61328835768E+02 -0.34460947824E+03  0.35012509248E+03  0.10570000000E+00 0. -1.
<mgrwt>
<rscale>  0 0.12500263E+03</rscale>
<asrwt>0</asrwt>
<pdfrwt beam="2">  1        1 0.93910941E-01 0.12500263E+03</pdfrwt>
<pdfrwt beam="1">  1       -1 0.98454458E-03 0.12500263E+03</pdfrwt>
<totfact> 0.60700384E+04</totfact>
</mgrwt>
</event>
<event>
 5    1  0.1336420E-049  0.1250037E+03  0.7818608E-02  0.1235064E+00
         -1   -1    0    0    0  501 -0.00000000000E+00  0.00000000000E+00  0.76673995630E+01  0.76674009852E+01  0.46700000000E-02 0.  1.
          1   -1    0    0  501    0  0.00000000000E+00 -0.00000000000E+00 -0.50949218586E+03  0.50949218588E+03  0.46700000000E-02 0. -1.
         25    2    1    2    0    0  0.00000000000E+00  0.00000000000E+00 -0.50182478630E+03  0.51715958686E+03  0.12500368853E+03 0.  0.
        -13    1    3    3    0    0  0.58259362574E+02 -0.16198463245E+02 -0.18550793999E+03  0.19511471116E+03  0.10570000000E+00 0.  1.
         13    1    3    3    0    0 -0.58259362574E+02  0.16198463245E+02 -0.31631684630E+03  0.32204487570E+03  0.10570000000E+00 0. -1.
<mgrwt>
<rscale>  0 0.12500369E+03</rscale>
<asrwt>0</asrwt>
<pdfrwt beam="2">  1        1 0.78383387E-01 0.12500369E+03</pdfrwt>
<pdfrwt beam="1">  1       -1 0.11796004E-02 0.12500369E+03</pdfrwt>
<totfact> 0.59699681E+04</totfact>
</mgrwt>
</event>
<event>
 5    1  0.1336420E-049  0.1250006E+03  0.7818608E-02  0.1235068E+00
         -1   -1    0    0    0  501 -0.00000000000E+00  0.00000000000E+00  0.88255605429E+01  0.88255617784E+01  0.46700000000E-02 0.  1.
          1   -1    0    0  501    0  0.00000000000E+00 -0.00000000000E+00 -0.44261057152E+03  0.44261057155E+03  0.46700000000E-02 0. -1.
         25    2    1    2    0    0  0.00000000000E+00  0.00000000000E+00 -0.43378501098E+03  0.45143613332E+03  0.12500058688E+03 0.  0.
        -13    1    3    3    0    0 -0.14714384451E+02 -0.60649783811E+02 -0.20471690425E+03  0.21401853061E+03  0.10570000000E+00 0. -1.
         13    1    3    3    0    0  0.14714384451E+02  0.60649783811E+02 -0.22906810673E+03  0.23741760271E+03  0.10570000000E+00 0.  1.
<mgrwt>
<rscale>  0 0.12500059E+03</rscale>
<asrwt>0</asrwt>
<pdfrwt beam="2">  1        1 0.68093917E-01 0.12500059E+03</pdfrwt>
<pdfrwt beam="1">  1       -1 0.13577790E-02 0.12500059E+03</pdfrwt>
<totfact> 0.58544698E+04</totfact>
</mgrwt>
</event>
<event>
 5    1  0.1336420E-049  0.1249982E+03  0.7818608E-02  0.1235072E+00
          1   -1    0    0  501    0  0.00000000000E+00  0.00000000000E+00  0.15898071902E+03  0.15898071909E+03  0.46700000000E-02 0. -1.
         -1   -1    0    0    0  501 -0.00000000000E+00 -0.00000000000E+00 -0.24569866474E+02  0.24569866917E+02  0.46700000000E-02 0.  1.
         25    2    1    2    0    0  0.00000000000E+00  0.00000000000E+00  0.13441085254E+03  0.18355058600E+03  0.12499816135E+03 0.  0.
        -13    1    3    3    0    0  0.61183690513E+02  0.55070257510E+01  0.84098877464E+02  0.10414606896E+03  0.10570000000E+00 0. -1.
         13    1    3    3    0    0 -0.61183690513E+02 -0.55070257510E+01  0.50311975080E+02  0.79404517040E+02  0.10570000000E+00 0.  1.
<mgrwt>
<rscale>  0 0.12499816E+03</rscale>
<asrwt>0</asrwt>
<pdfrwt beam="1">  1        1 0.24458572E-01 0.12499816E+03</pdfrwt>
<pdfrwt beam="2">  1       -1 0.37799795E-02 0.12499816E+03</pdfrwt>
<totfact> 0.47638464E+04</totfact>
</mgrwt>
</event>
<event>
 5    1  0.1336420E-049  0.1249982E+03  0.7818608E-02  0.1235072E+00
         -1   -1    0    0    0  501 -0.00000000000E+00  0.00000000000E+00  0.15355869454E+03  0.15355869461E+03  0.46700000000E-02 0.  1.
          1   -1    0    0  501    0  0.00000000000E+00 -0.00000000000E+00 -0.25437436867E+02  0.25437437296E+02  0.46700000000E-02 0. -1.
         25    2    1    2    0    0  0.00000000000E+00  0.00000000000E+00  0.12812125767E+03  0.17899613190E+03  0.12499823427E+03 0.  0.
        -13    1    3    3    0    0 -0.59350096795E+02  0.18734806537E+02  0.55871765308E+02  0.83636668374E+02  0.10570000000E+00 0.  1.
         13    1    3    3    0    0  0.59350096795E+02 -0.18734806537E+02  0.72249492361E+02  0.95359463529E+02  0.10570000000E+00 0. -1.
<mgrwt>
<rscale>  0 0.12499823E+03</rscale>
<asrwt>0</asrwt>
<pdfrwt beam="2">  1        1 0.39134519E-02 0.12499823E+03</pdfrwt>
<pdfrwt beam="1">  1       -1 0.23624414E-01 0.12499823E+03</pdfrwt>
<totfact> 0.32601680E+04</totfact>
</mgrwt>
</event>
<event>
 5    1  0.1336420E-049  0.1250028E+03  0.7818608E-02  0.1235065E+00
          1   -1    0    0  501    0  0.00000000000E+00  0.00000000000E+00  0.10690751778E+03  0.10690751788E+03  0.46700000000E-02 0. -1.
         -1   -1    0    0    0  501 -0.00000000000E+00 -0.00000000000E+00 -0.36540242402E+02  0.36540242701E+02  0.46700000000E-02 0.  1.
         25    2    1    2    0    0  0.00000000000E+00  0.00000000000E+00  0.70367275380E+02  0.14344776059E+03  0.12500282626E+03 0.  0.
        -13    1    3    3    0    0  0.35246733932E+02 -0.51612303403E+02  0.35761253220E+02  0.72007225469E+02  0.10570000000E+00 0. -1.
         13    1    3    3    0    0 -0.35246733932E+02  0.51612303403E+02  0.34606022160E+02  0.71440535116E+02  0.10570000000E+00 0.  1.
<mgrwt>
<rscale>  0 0.12500283E+03</rscale>
<asrwt>0</asrwt>
<pdfrwt beam="1">  1        1 0.16447310E-01 0.12500283E+03</pdfrwt>
<pdfrwt beam="2">  1       -1 0.56215759E-02 0.12500283E+03</pdfrwt>
<totfact> 0.43928954E+04</totfact>
</mgrwt>
</event>
<event>
 5    1  0.1336420E-049  0.1249986E+03  0.7818608E-02  0.1235072E+00
         -1   -1    0    0    0  501 -0.00000000000E+00  0.00000000000E+00  0.10768907939E+03  0.10768907950E+03  0.46700000000E-02 0.  1.
          1   -1    0    0  501    0  0.00000000000E+00 -0.00000000000E+00 -0.36272581141E+02  0.36272581442E+02  0.46700000000E-02 0. -1.
         25    2    1    2    0    0  0.00000000000E+00  0.00000000000E+00  0.71416498254E+02  0.14396166094E+03  0.12499857438E+03 0.  0.
        -13    1    3    3    0    0  0.40923017876E+02  0.40249957362E+02  0.64185858946E+02  0.86108002653E+02  0.10570000000E+00 0. -1.
         13    1    3    3    0    0 -0.40923017876E+02 -0.40249957362E+02  0.72306393078E+01  0.57853658285E+02  0.10570000000E+00 0.  1.
<mgrwt>
<rscale>  0 0.12499857E+03</rscale>
<asrwt>0</asrwt>
<pdfrwt beam="2">  1        1 0.55803971E-02 0.12499857E+03</pdfrwt>
<pdfrwt beam="1">  1       -1 0.16567551E-01 0.12499857E+03</pdfrwt>
<totfact> 0.35433640E+04</totfact>
</mgrwt>
</event>
<event>
 5    1  0.1336420E-049  0.1250004E+03  0.7818608E-02  0.1235069E+00
         -1   -1    0    0    0  501 -0.00000000000E+00  0.00000000000E+00  0.45763113449E+02  0.45763113687E+02  0.46700000000E-02 0.  1.
          1   -1    0    0  501    0  0.00000000000E+00 -0.00000000000E+00 -0.85358578265E+02  0.85358578392E+02  0.46700000000E-02 0. -1.
         25    2    1    2    0    0  0.00000000000E+00  0.00000000000E+00 -0.39595464816E+02  0.13112169208E+03  0.12500038920E+03 0.  0.
        -13    1    3    3    0    0  0.59613988285E+01 -0.37288771330E+02 -0.72038899519E+02  0.81336369231E+02  0.10570000000E+00 0. -1.
         13    1    3    3    0    0 -0.59613988285E+01  0.37288771330E+02  0.32443434703E+02  0.49785322848E+02  0.10570000000E+00 0.  1.
<mgrwt>
<rscale>  0 0.12500039E+03</rscale>
<asrwt>0</asrwt>
<pdfrwt beam="2">  1        1 0.13132089E-01 0.12500039E+03</pdfrwt>
<pdfrwt beam="1">  1       -1 0.70404790E-02 0.12500039E+03</pdfrwt>
<totfact> 0.42030405E+04</totfact>
</mgrwt>
</event>
<event>
 5    1  0.1336420E-049  0.1250008E+03  0.7818608E-02  0.1235068E+00
         -1   -1    0    0    0  501 -0.00000000000E+00  0.00000000000E+00  0.52965834181E+03  0.52965834183E+03  0.46700000000E-02 0.  1.
          1   -1    0    0  501    0  0.00000000000E+00 -0.00000000000E+00 -0.73751312503E+01  0.73751327289E+01  0.46700000000E-02 0. -1.
         25    2    1    2    0    0  0.00000000000E+00  0.00000000000E+00  0.52228321056E+03  0.53703347456E+03  0.12500080306E+03 0.  0.
        -13    1    3    3    0    0 -0.14480053809E+02 -0.60594145578E+02  0.23967476621E+03  0.24763951051E+03  0.10570000000E+00 0.  1.
         13    1    3    3    0    0  0.14480053809E+02  0.60594145578E+02  0.28260844435E+03  0.28939396405E+03  0.10570000000E+00 0. -1.
<mgrwt>
<rscale>  0 0.12500080E+03</rscale>
<asrwt>0</asrwt>
<pdfrwt beam="2">  1        1 0.11346359E-02 0.12500080E+03</pdfrwt>
<pdfrwt beam="1">  1       -1 0.81485885E-01 0.12500080E+03</pdfrwt>
<totfact> 0.19629689E+04</totfact>
</mgrwt>
</event>
<event>
 5    1  0.1336420E-049  0.1250049E+03  0.7818608E-02  0.1235062E+00
         -1   -1    0    0    0  501 -0.00000000000E+00  0.00000000000E+00  0.10781097074E+02  0.10781098085E+02  0.46700000000E-02 0.  1.
          1   -1    0    0  501    0  0.00000000000E+00 -0.00000000000E+00 -0.36235219141E+03  0.36235219144E+03  0.46700000000E-02 0. -1.
         25    2    1    2    0    0  0.00000000000E+00  0.00000000000E+00 -0.35157109434E+03  0.37313328953E+03  0.12500486942E+03 0.  0.
        -13    1    3    3    0    0  0.55291638065E+02  0.17659351250E+01 -0.88951744487E+02  0.10475069349E+03  0.10570000000E+00 0.  1.
         13    1    3    3    0    0 -0.55291638065E+02 -0.17659351250E+01 -0.26261934985E+03  0.26838259604E+03  0.10570000000E+00 0. -1.
<mgrwt>
<rscale>  0 0.12500487E+03</rscale>
<asrwt>0</asrwt>
<pdfrwt beam="2">  1        1 0.55746482E-01 0.12500487E+03</pdfrwt>
<pdfrwt beam="1">  1       -1 0.16586307E-02 0.12500487E+03</pdfrwt>
<totfact> 0.56541950E+04</totfact>
</mgrwt>
</event>
<event>
 5    1  0.1336420E-049  0.1250014E+03  0.7818608E-02  0.1235067E+00
          1   -1    0    0  501    0  0.00000000000E+00  0.00000000000E+00  0.56821918890E+02  0.56821919082E+02  0.46700000000E-02 0. -1.
         -1   -1    0    0    0  501 -0.00000000000E+00 -0.00000000000E+00 -0.68747003339E+02  0.68747003497E+02  0.46700000000E-02 0.  1.
         25    2    1    2    0    0  0.00000000000E+00  0.00000000000E+00 -0.11925084449E+02  0.12556892258E+03  0.12500138671E+03 0.  0.
        -13    1    3    3    0    0  0.52720981517E+02  0.21990903968E+02  0.19514462760E+02  0.60364949919E+02  0.10570000000E+00 0. -1.
         13    1    3    3    0    0 -0.52720981517E+02 -0.21990903968E+02 -0.31439547209E+02  0.65203972660E+02  0.10570000000E+00 0.  1.
<mgrwt>
<rscale>  0 0.12500139E+03</rscale>
<asrwt>0</asrwt>
<pdfrwt beam="1">  1        1 0.87418336E-02 0.12500139E+03</pdfrwt>
<pdfrwt beam="2">  1       -1 0.10576462E-01 0.12500139E+03</pdfrwt>
<totfact> 0.38838835E+04</totfact>
</mgrwt>
</event>
<event>
 5    1  0.1336420E-049  0.1250007E+03  0.7818608E-02  0.1235068E+00
          1   -1    0    0  501    0  0.00000000000E+00  0.00000000000E+00  0.31877614059E+02  0.31877614401E+02  0.46700000000E-02 0. -1.
         -1   -1    0    0    0  501 -0.00000000000E+00 -0.00000000000E+00 -0.12254031397E+03  0.12254031406E+03  0.46700000000E-02 0.  1.
         25    2    1    2    0    0  0.00000000000E+00  0.00000000000E+00 -0.90662699908E+02  0.15441792846E+03  0.12500068590E+03 0.  0.
        -13    1    3    3    0    0  0.61406306498E+02 -0.47009847696E+00 -0.30960703307E+02  0.68771591461E+02  0.10570000000E+00 0.  1.
         13    1    3    3    0    0 -0.61406306498E+02  0.47009847696E+00 -0.59701996601E+02  0.85646336997E+02  0.10570000000E+00 0. -1.
<mgrwt>
<rscale>  0 0.12500069E+03</rscale>
<asrwt>0</asrwt>
<pdfrwt beam="1">  1        1 0.49042484E-02 0.12500069E+03</pdfrwt>
<pdfrwt beam="2">  1       -1 0.18852356E-01 0.12500069E+03</pdfrwt>
<totfact> 0.34426238E+04</totfact>
</mgrwt>
</event>
<event>
 5    1  0.1336420E-049  0.1250011E+03  0.7818608E-02  0.1235068E+00
         -1   -1    0    0    0  501 -0.00000000000E+00  0.00000000000E+00  0.24128557669E+02  0.24128558121E+02  0.46700000000E-02 0.  1.
          1   -1    0    0  501    0  0.00000000000E+00 -0.00000000000E+00 -0.16189603653E+03  0.16189603659E+03  0.46700000000E-02 0. -1.
         25    2    1    2    0    0  0.00000000000E+00  0.00000000000E+00 -0.13776747886E+03  0.18602459472E+03  0.12500108643E+03 0.  0.
        -13    1    3    3    0    0 -0.17880692173E+02  0.53773472666E+02 -0.10811654456E+03  0.12206762017E+03  0.10570000000E+00 0. -1.
         13    1    3    3    0    0  0.17880692173E+02 -0.53773472666E+02 -0.29650934299E+02  0.63956974541E+02  0.10570000000E+00 0.  1.
<mgrwt>
<rscale>  0 0.12500109E+03</rscale>
<asrwt>0</asrwt>
<pdfrwt beam="2">  1        1 0.24907082E-01 0.12500109E+03</pdfrwt>
<pdfrwt beam="1">  1       -1 0.37120859E-02 0.12500109E+03</pdfrwt>
<totfact> 0.47816764E+04</totfact>
</mgrwt>
</event>
<event>
 5    1  0.1336420E-049  0.1250039E+03  0.7818608E-02  0.1235063E+00
         -1   -1    0    0    0  501 -0.00000000000E+00  0.00000000000E+00  0.44223049904E+03  0.44223049907E+03  0.46700000000E-02 0.  1.
          1   -1    0    0  501    0  0.00000000000E+00 -0.00000000000E+00 -0.88336189856E+01  0.88336202201E+01  0.46700000000E-02 0. -1.
         25    2    1    2    0    0  0.00000000000E+00  0.00000000000E+00  0.43339688006E+03  0.45106411929E+03  0.12500393620E+03 0.  0.
        -13    1    3    3    0    0 -0.36361933771E+02  0.44178516481E+02  0.30745189244E+03  0.31273088892E+03  0.10570000000E+00 0.  1.
         13    1    3    3    0    0  0.36361933771E+02 -0.44178516481E+02  0.12594498761E+03  0.13833323037E+03  0.10570000000E+00 0. -1.
<mgrwt>
<rscale>  0 0.12500394E+03</rscale>
<asrwt>0</asrwt>
<pdfrwt beam="2">  1        1 0.13590186E-02 0.12500394E+03</pdfrwt>
<pdfrwt beam="1">  1       -1 0.68035452E-01 0.12500394E+03</pdfrwt>
<totfact> 0.21894463E+04</totfact>
</mgrwt>
</event>
<event>
 5    1  0.1336420E-049  0.1250020E+03  0.7818608E-02  0.1235066E+00
          1   -1    0    0  501    0  0.00000000000E+00  0.00000000000E+00  0.20654548650E+03  0.20654548655E+03  0.46700000000E-02 0. -1.
         -1   -1    0    0    0  501 -0.00000000000E+00 -0.00000000000E+00 -0.18912892253E+02  0.18912892829E+02  0.46700000000E-02 0.  1.
         25    2    1    2    0    0  0.00000000000E+00  0.00000000000E+00  0.18763259424E+03  0.22545837938E+03  0.12500196162E+03 0.  0.
        -13    1    3    3    0    0 -0.20692398667E+02 -0.46247938799E+02  0.15982341850E+03  0.16766211104E+03  0.10570000000E+00 0. -1.
         13    1    3    3    0    0  0.20692398667E+02  0.46247938799E+02  0.27809175746E+02  0.57796268339E+02  0.10570000000E+00 0.  1.
<mgrwt>
<rscale>  0 0.12500196E+03</rscale>
<asrwt>0</asrwt>
<pdfrwt beam="1">  1        1 0.31776229E-01 0.12500196E+03</pdfrwt>
<pdfrwt beam="2">  1       -1 0.29096758E-02 0.12500196E+03</pdfrwt>
<totfact> 0.50351649E+04</totfact>
</mgrwt>
</event>
<event>
 5    1  0.1336420E-049  0.1249997E+03  0.7818608E-02  0.1235070E+00
         -1   -1    0    0    0  501 -0.00000000000E+00  0.00000000000E+00  0.13547371185E+03  0.13547371193E+03  0.46700000000E-02 0.  1.
          1   -1    0    0  501    0  0.00000000000E+00 -0.00000000000E+00 -0.28833855692E+02  0.28833856070E+02  0.46700000000E-02 0. -1.
         25    2    1    2    0    0  0.00000000000E+00  0.00000000000E+00  0.10663985616E+03  0.16430756800E+03  0.12499967192E+03 0.  0.
        -13    1    3    3    0    0 -0.43776235001E+01  0.37621432562E+02  0.11866984500E+03  0.12456756825E+03  0.10570000000E+00 0.  1.
         13    1    3    3    0    0  0.43776235001E+01 -0.37621432562E+02 -0.12029988847E+02  0.39739999744E+02  0.10570000000E+00 0. -1.
<mgrwt>
<rscale>  0 0.12499967E+03</rscale>
<asrwt>0</asrwt>
<pdfrwt beam="2">  1        1 0.44359779E-02 0.12499967E+03</pdfrwt>
<pdfrwt beam="1">  1       -1 0.20842109E-01 0.12499967E+03</pdfrwt>
<totfact> 0.33627149E+04</totfact>
</mgrwt>
</event>
<event>
 5    1  0.1336420E-049  0.1249925E+03  0.7818608E-02  0.1235081E+00
         -1   -1    0    0    0  501 -0.00000000000E+00  0.00000000000E+00  0.28786389649E+03  0.28786389652E+03  0.46700000000E-02 0.  1.
          1   -1    0    0  501    0  0.00000000000E+00 -0.00000000000E+00 -0.13568156932E+02  0.13568157735E+02  0.46700000000E-02 0. -1.
         25    2    1    2    0    0  0.00000000000E+00  0.00000000000E+00  0.27429573955E+03  0.30143205426E+03  0.12499252217E+03 0.  0.
        -13    1    3    3    0    0  0.57763135619E+02 -0.20356766554E+02  0.16715206871E+03  0.17801910860E+03  0.10570000000E+00 0.  1.
         13    1    3    3    0    0 -0.57763135619E+02  0.20356766554E+02  0.10714367085E+03  0.12341294566E+03  0.10570000000E+00 0. -1.
<mgrwt>
<rscale>  0 0.12499252E+03</rscale>
<asrwt>0</asrwt>
<pdfrwt beam="2">  1        1 0.20874089E-02 0.12499252E+03</pdfrwt>
<pdfrwt beam="1">  1       -1 0.44286752E-01 0.12499252E+03</pdfrwt>
<totfact> 0.26766063E+04</totfact>
</mgrwt>
</event>
<event>
 5    1  0.1336420E-049  0.1250001E+03  0.7818608E-02  0.1235069E+00
          1   -1    0    0  501    0  0.00000000000E+00  0.00000000000E+00  0.37711338510E+02  0.37711338800E+02  0.46700000000E-02 0.  1.
         -1   -1    0    0    0  501 -0.00000000000E+00 -0.00000000000E+00 -0.10358301694E+03  0.10358301705E+03  0.46700000000E-02 0. -1.
         25    2    1    2    0    0  0.00000000000E+00  0.00000000000E+00 -0.65871678430E+02  0.14129435585E+03  0.12500006790E+03 0.  0.
        -13    1    3    3    0    0 -0.54145790517E+02  0.30303805329E+02 -0.41406396101E+02  0.74596166514E+02  0.10570000000E+00 0. -1.
         13    1    3    3    0    0  0.54145790517E+02 -0.30303805329E+02 -0.24465282330E+02  0.66698189331E+02  0.10570000000E+00 0.  1.
<mgrwt>
<rscale>  0 0.12500007E+03</rscale>
<asrwt>0</asrwt>
<pdfrwt beam="1">  1        1 0.58017445E-02 0.12500007E+03</pdfrwt>
<pdfrwt beam="2">  1       -1 0.15935849E-01 0.12500007E+03</pdfrwt>
<totfact> 0.35731395E+04</totfact>
</mgrwt>
</event>
<event>
 5    1  0.1336420E-049  0.1250026E+03  0.7818608E-02  0.1235065E+00
          1   -1    0    0  501    0  0.00000000000E+00  0.00000000000E+00  0.15468173671E+02  0.15468174376E+02  0.46700000000E-02 0. -1.
         -1   -1    0    0    0  501 -0.00000000000E+00 -0.00000000000E+00 -0.25254524526E+03  0.25254524531E+03  0.46700000000E-02 0.  1.
         25    2    1    2    0    0  0.00000000000E+00  0.00000000000E+00 -0.23707707159E+03  0.26801341968E+03  0.12500262099E+03 0.  0.
        -13    1    3    3    0    0 -0.43099312576E+02  0.39689163427E+02 -0.71877599641E+02  0.92731768778E+02  0.10570000000E+00 0. -1.
         13    1    3    3    0    0  0.43099312576E+02 -0.39689163427E+02 -0.16519947195E+03  0.17528165090E+03  0.10570000000E+00 0.  1.
<mgrwt>
<rscale>  0 0.12500262E+03</rscale>
<asrwt>0</asrwt>
<pdfrwt beam="1">  1        1 0.23797193E-02 0.12500262E+03</pdfrwt>
<pdfrwt beam="2">  1       -1 0.38853112E-01 0.12500262E+03</pdfrwt>
<totfact> 0.28092409E+04</totfact>
</mgrwt>
</event>
<event>
 5    1  0.1336420E-049  0.1249986E+03  0.7818608E-02  0.1235072E+00
         -1   -1    0    0    0  501 -0.00000000000E+00  0.00000000000E+00  0.12003013349E+03  0.12003013359E+03  0.46700000000E-02 0.  1.
          1   -1    0    0  501    0  0.00000000000E+00 -0.00000000000E+00 -0.32543162548E+02  0.32543162883E+02  0.46700000000E-02 0. -1.
         25    2    1    2    0    0  0.00000000000E+00  0.00000000000E+00  0.87486970946E+02  0.15257329647E+03  0.12499856283E+03 0.  0.
        -13    1    3    3    0    0  0.22177261256E+02  0.50799627410E+02  0.78987272092E+02  0.96495768751E+02  0.10570000000E+00 0.  1.
         13    1    3    3    0    0 -0.22177261256E+02 -0.50799627410E+02  0.84996988544E+01  0.56077527718E+02  0.10570000000E+00 0. -1.
<mgrwt>
<rscale>  0 0.12499856E+03</rscale>
<asrwt>0</asrwt>
<pdfrwt beam="2">  1        1 0.50066404E-02 0.12499856E+03</pdfrwt>
<pdfrwt beam="1">  1       -1 0.18466174E-01 0.12499856E+03</pdfrwt>
<totfact> 0.34590495E+04</totfact>
</mgrwt>
</event>
<event>
 5    1  0.1336420E-049  0.1249981E+03  0.7818608E-02  0.1235072E+00
          1   -1    0    0  501    0  0.00000000000E+00  0.00000000000E+00  0.74528653657E+01  0.74528668288E+01  0.46700000000E-02 0. -1.
         -1   -1    0    0    0  501 -0.00000000000E+00 -0.00000000000E+00 -0.52411108767E+03  0.52411108770E+03  0.46700000000E-02 0.  1.
         25    2    1    2    0    0  0.00000000000E+00  0.00000000000E+00 -0.51665822231E+03  0.53156395452E+03  0.12499807627E+03 0.  0.
        -13    1    3    3    0    0  0.55101008534E+02  0.22755906925E+02 -0.17852486466E+03  0.18821554377E+03  0.10570000000E+00 0. -1.
         13    1    3    3    0    0 -0.55101008534E+02 -0.22755906925E+02 -0.33813335765E+03  0.34334841076E+03  0.10570000000E+00 0.  1.
<mgrwt>
<rscale>  0 0.12499808E+03</rscale>
<asrwt>0</asrwt>
<pdfrwt beam="1">  1        1 0.11465952E-02 0.12499808E+03</pdfrwt>
<pdfrwt beam="2">  1       -1 0.80632446E-01 0.12499808E+03</pdfrwt>
<totfact> 0.19766241E+04</totfact>
</mgrwt>
</event>
<event>
 5    1  0.1336420E-049  0.1250104E+03  0.7818608E-02  0.1235053E+00
          1   -1    0    0  501    0  0.00000000000E+00  0.00000000000E+00  0.35623551018E+03  0.35623551021E+03  0.46700000000E-02 0. -1.
         -1   -1    0    0    0  501 -0.00000000000E+00 -0.00000000000E+00 -0.10967187233E+02  0.10967188227E+02  0.46700000000E-02 0.  1.
         25    2    1    2    0    0  0.00000000000E+00  0.00000000000E+00  0.34526832295E+03  0.36720269844E+03  0.12501042720E+03 0.  0.
        -13    1    3    3    0    0  0.28067412630E+02  0.55001378987E+02  0.20110690452E+03  0.21037331000E+03  0.10570000000E+00 0.  1.
         13    1    3    3    0    0 -0.28067412630E+02 -0.55001378987E+02  0.14416141843E+03  0.15682938844E+03  0.10570000000E+00 0. -1.
<mgrwt>
<rscale>  0 0.12501043E+03</rscale>
<asrwt>0</asrwt>
<pdfrwt beam="1">  1        1 0.54805465E-01 0.12501043E+03</pdfrwt>
<pdfrwt beam="2">  1       -1 0.16872596E-02 0.12501043E+03</pdfrwt>
<totfact> 0.56354308E+04</totfact>
</mgrwt>
</event>
<event>
 5    1  0.1336420E-049  0.1250012E+03  0.7818608E-02  0.1235067E+00
          1   -1    0    0  501    0  0.00000000000E+00  0.00000000000E+00  0.11749957181E+03  0.11749957190E+03  0.46700000000E-02 0. -1.
         -1   -1    0    0    0  501 -0.00000000000E+00 -0.00000000000E+00 -0.33245426436E+02  0.33245426764E+02  0.46700000000E-02 0.  1.
         25    2    1    2    0    0  0.00000000000E+00  0.00000000000E+00  0.84254145375E+02  0.15074499867E+03  0.12500117444E+03 0.  0.
        -13    1    3    3    0    0  0.43494559371E+02  0.71425022193E+01 -0.11310473239E+02  0.45505274532E+02  0.10570000000E+00 0.  1.
         13    1    3    3    0    0 -0.43494559371E+02 -0.71425022193E+01  0.95564618614E+02  0.10523972414E+03  0.10570000000E+00 0. -1.
<mgrwt>
<rscale>  0 0.12500117E+03</rscale>
<asrwt>0</asrwt>
<pdfrwt beam="1">  1        1 0.18076857E-01 0.12500117E+03</pdfrwt>
<pdfrwt beam="2">  1       -1 0.51146810E-02 0.12500117E+03</pdfrwt>
<totfact> 0.44767681E+04</totfact>
</mgrwt>
</event>
<event>
 5    1  0.1336420E-049  0.1249969E+03  0.7818608E-02  0.1235074E+00
          1   -1    0    0  501    0  0.00000000000E+00  0.00000000000E+00  0.12543885980E+03  0.12543885989E+03  0.46700000000E-02 0. -1.
         -1   -1    0    0    0  501 -0.00000000000E+00 -0.00000000000E+00 -0.31139105931E+02  0.31139106281E+02  0.46700000000E-02 0.  1.
         25    2    1    2    0    0  0.00000000000E+00  0.00000000000E+00  0.94299753871E+02  0.15657796617E+03  0.12499686360E+03 0.  0.
        -13    1    3    3    0    0 -0.36421340670E+02  0.50784250049E+02  0.48025567813E+02  0.78816371684E+02  0.10570000000E+00 0.  1.
         13    1    3    3    0    0  0.36421340670E+02 -0.50784250049E+02  0.46274186059E+02  0.77761594487E+02  0.10570000000E+00 0. -1.
<mgrwt>
<rscale>  0 0.12499686E+03</rscale>
<asrwt>0</asrwt>
<pdfrwt beam="1">  1        1 0.19298286E-01 0.12499686E+03</pdfrwt>
<pdfrwt beam="2">  1       -1 0.47906317E-02 0.12499686E+03</pdfrwt>
<totfact> 0.45367625E+04</totfact>
</mgrwt>
</event>
<event>
 5    1  0.1336420E-049  0.1250016E+03  0.7818608E-02  0.1235067E+00
         -1   -1    0    0    0  501 -0.00000000000E+00  0.00000000000E+00  0.75215618255E+02  0.75215618399E+02  0.46700000000E-02 0.  1.
          1   -1    0    0  501    0  0.00000000000E+00 -0.00000000000E+00 -0.51935347737E+02  0.51935347947E+02  0.46700000000E-02 0. -1.
         25    2    1    2    0    0  0.00000000000E+00  0.00000000000E+00  0.23280270518E+02  0.12715096635E+03  0.12500158898E+03 0.  0.
        -13    1    3    3    0    0  0.48675102677E+02 -0.68977282815E+01  0.50897712209E+02  0.70763214714E+02  0.10570000000E+00 0.  1.
         13    1    3    3    0    0 -0.48675102677E+02  0.68977282815E+01 -0.27617441691E+02  0.56387751632E+02  0.10570000000E+00 0. -1.
<mgrwt>
<rscale>  0 0.12500159E+03</rscale>
<asrwt>0</asrwt>
<pdfrwt beam="2">  1        1 0.79900535E-02 0.12500159E+03</pdfrwt>
<pdfrwt beam="1">  1       -1 0.11571634E-01 0.12500159E+03</pdfrwt>
<totfact> 0.38156943E+04</totfact>
</mgrwt>
</event>
<event>
 5    1  0.1336420E-049  0.1249977E+03  0.7818608E-02  0.1235073E+00
          1   -1    0    0  501    0  0.00000000000E+00  0.00000000000E+00  0.59930244120E+03  0.59930244122E+03  0.46700000000E-02 0.  1.
         -1   -1    0    0    0  501 -0.00000000000E+00 -0.00000000000E+00 -0.65177507616E+01  0.65177524347E+01  0.46700000000E-02 0. -1.
         25    2    1    2    0    0  0.00000000000E+00  0.00000000000E+00  0.59278469044E+03  0.60582019365E+03  0.12499767126E+03 0.  0.
        -13    1    3    3    0    0 -0.54611691391E+02 -0.27743994013E+02  0.23626118725E+03  0.24407278794E+03  0.10570000000E+00 0. -1.
         13    1    3    3    0    0  0.54611691391E+02  0.27743994013E+02  0.35652350319E+03  0.36174740572E+03  0.10570000000E+00 0.  1.
<mgrwt>
<rscale>  0 0.12499767E+03</rscale>
<asrwt>0</asrwt>
<pdfrwt beam="1">  1        1 0.92200381E-01 0.12499767E+03</pdfrwt>
<pdfrwt beam="2">  1       -1 0.10027310E-02 0.12499767E+03</pdfrwt>
<totfact> 0.60637052E+04</totfact>
</mgrwt>
</event>
<event>
 5    1  0.1336420E-049  0.1249988E+03  0.7818608E-02  0.1235071E+00
          1   -1    0    0  501    0  0.00000000000E+00  0.00000000000E+00  0.21359537845E+02  0.21359538356E+02  0.46700000000E-02 0. -1.
         -1   -1    0    0    0  501 -0.00000000000E+00 -0.00000000000E+00 -0.18287729666E+03  0.18287729672E+03  0.46700000000E-02 0.  1.
         25    2    1    2    0    0  0.00000000000E+00  0.00000000000E+00 -0.16151775881E+03  0.20423683507E+03  0.12499879355E+03 0.  0.
        -13    1    3    3    0    0  0.10083274291E+02  0.50567972427E+02 -0.13846556105E+03  0.14775491540E+03  0.10570000000E+00 0.  1.
         13    1    3    3    0    0 -0.10083274291E+02 -0.50567972427E+02 -0.23052197764E+02  0.56481919673E+02  0.10570000000E+00 0. -1.
<mgrwt>
<rscale>  0 0.12499879E+03</rscale>
<asrwt>0</asrwt>
<pdfrwt beam="1">  1        1 0.32860829E-02 0.12499879E+03</pdfrwt>
<pdfrwt beam="2">  1       -1 0.28134968E-01 0.12499879E+03</pdfrwt>
<totfact> 0.31106494E+04</totfact>
</mgrwt>
</event>
<event>
 5    1  0.1336420E-049  0.1250011E+03  0.7818608E-02  0.1235068E+00
         -1   -1    0    0    0  501 -0.00000000000E+00  0.00000000000E+00  0.10135517965E+02  0.10135519041E+02  0.46700000000E-02 0.  1.
          1   -1    0    0  501    0  0.00000000000E+00 -0.00000000000E+00 -0.38540910065E+03  0.38540910067E+03  0.46700000000E-02 0. -1.
         25    2    1    2    0    0  0.00000000000E+00  0.00000000000E+00 -0.37527358268E+03  0.39554461971E+03  0.12500113731E+03 0.  0.
        -13    1    3    3    0    0 -0.49410161054E+02 -0.37886270092E+02 -0.20484574290E+03  0.21409932983E+03  0.10570000000E+00 0.  1.
         13    1    3    3    0    0  0.49410161054E+02  0.37886270092E+02 -0.17042783978E+03  0.18144528989E+03  0.10570000000E+00 0. -1.
<mgrwt>
<rscale>  0 0.12500114E+03</rscale>
<asrwt>0</asrwt>
<pdfrwt beam="2">  1        1 0.59293697E-01 0.12500114E+03</pdfrwt>
<pdfrwt beam="1">  1       -1 0.15593108E-02 0.12500114E+03</pdfrwt>
<totfact> 0.57191917E+04</totfact>
</mgrwt>
</event>
<event>
 5    1  0.1336420E-049  0.1249987E+03  0.7818608E-02  0.1235071E+00
         -1   -1    0    0    0  501 -0.00000000000E+00  0.00000000000E+00  0.30963264572E+02  0.30963264924E+02  0.46700000000E-02 0.  1.
          1   -1    0    0  501    0  0.00000000000E+00 -0.00000000000E+00 -0.12615484719E+03  0.12615484728E+03  0.46700000000E-02 0. -1.
         25    2    1    2    0    0  0.00000000000E+00  0.00000000000E+00 -0.95191582620E+02  0.15711811220E+03  0.12499865511E+03 0.  0.
        -13    1    3    3    0    0  0.22796871045E+02  0.30674117646E+02 -0.10975560635E+03  0.11621920289E+03  0.10570000000E+00 0.  1.
         13    1    3    3    0    0 -0.22796871045E+02 -0.30674117646E+02  0.14564023733E+02  0.40898909308E+02  0.10570000000E+00 0. -1.
<mgrwt>
<rscale>  0 0.12499866E+03</rscale>
<asrwt>0</asrwt>
<pdfrwt beam="2">  1        1 0.19408438E-01 0.12499866E+03</pdfrwt>
<pdfrwt beam="1">  1       -1 0.47635793E-02 0.12499866E+03</pdfrwt>
<totfact> 0.45418330E+04</totfact>
</mgrwt>
</event>
<event>
 5    1  0.1336420E-049  0.1249992E+03  0.7818608E-02  0.1235071E+00
         -1   -1    0    0    0  501 -0.00000000000E+00  0.00000000000E+00  0.35363882692E+02  0.35363883001E+02  0.46700000000E-02 0.  1.
          1   -1    0    0  501    0  0.00000000000E+00 -0.00000000000E+00 -0.11045729584E+03  0.11045729594E+03  0.46700000000E-02 0. -1.
         25    2    1    2    0    0  0.00000000000E+00  0.00000000000E+00 -0.75093413151E+02  0.14582117894E+03  0.12499918212E+03 0.  0.
        -13    1    3    3    0    0  0.42091466493E+02  0.45453160049E+02 -0.27891112344E+02  0.67938256014E+02  0.10570000000E+00 0.  1.
         13    1    3    3    0    0 -0.42091466493E+02 -0.45453160049E+02 -0.47202300807E+02  0.77882922929E+02  0.10570000000E+00 0. -1.
<mgrwt>
<rscale>  0 0.12499918E+03</rscale>
<asrwt>0</asrwt>
<pdfrwt beam="2">  1        1 0.16993430E-01 0.12499918E+03</pdfrwt>
<pdfrwt beam="1">  1       -1 0.54405974E-02 0.12499918E+03</pdfrwt>
<totfact> 0.44219150E+04</totfact>
</mgrwt>
</event>
<event>
 5    1  0.1336420E-049  0.1249974E+03  0.7818608E-02  0.1235073E+00
         -1   -1    0    0    0  501 -0.00000000000E+00  0.00000000000E+00  0.93414705744E+02  0.93414705861E+02  0.46700000000E-02 0.  1.
          1   -1    0    0  501    0  0.00000000000E+00 -0.00000000000E+00 -0.41814513849E+02  0.41814514110E+02  0.46700000000E-02 0. -1.
         25    2    1    2    0    0  0.00000000000E+00  0.00000000000E+00  0.51600191895E+02  0.13522921997E+03  0.12499744849E+03 0.  0.
        -13    1    3    3    0    0 -0.26982847551E+02 -0.56280458203E+02  0.22291925433E+02  0.66275977167E+02  0.10570000000E+00 0.  1.
         13    1    3    3    0    0  0.26982847551E+02  0.56280458203E+02  0.29308266462E+02  0.68953242803E+02  0.10570000000E+00 0. -1.
<mgrwt>
<rscale>  0 0.12499745E+03</rscale>
<asrwt>0</asrwt>
<pdfrwt beam="2">  1        1 0.64330023E-02 0.12499745E+03</pdfrwt>
<pdfrwt beam="1">  1       -1 0.14371493E-01 0.12499745E+03</pdfrwt>
<totfact> 0.36521528E+04</totfact>
</mgrwt>
</event>
<event>
 5    1  0.1336420E-049  0.1249884E+03  0.7818608E-02  0.1235087E+00
          1   -1    0    0  501    0  0.00000000000E+00  0.00000000000E+00  0.16123492182E+03  0.16123492189E+03  0.46700000000E-02 0. -1.
         -1   -1    0    0    0  501 -0.00000000000E+00 -0.00000000000E+00 -0.24222565750E+02  0.24222566200E+02  0.46700000000E-02 0.  1.
         25    2    1    2    0    0  0.00000000000E+00  0.00000000000E+00  0.13701235607E+03  0.18545748809E+03  0.12498837615E+03 0.  0.
        -13    1    3    3    0    0 -0.61257918196E+02  0.78413151653E+01  0.82699044549E+02  0.10321415556E+03  0.10570000000E+00 0.  1.
         13    1    3    3    0    0  0.61257918196E+02 -0.78413151653E+01  0.54313311524E+02  0.82243332535E+02  0.10570000000E+00 0. -1.
<mgrwt>
<rscale>  0 0.12498838E+03</rscale>
<asrwt>0</asrwt>
<pdfrwt beam="1">  1        1 0.24805373E-01 0.12498838E+03</pdfrwt>
<pdfrwt beam="2">  1       -1 0.37265485E-02 0.12498838E+03</pdfrwt>
<totfact> 0.47789426E+04</totfact>
</mgrwt>
</event>
<event>
 5    1  0.1336420E-049  0.1250049E+03  0.7818608E-02  0.1235062E+00
          1   -1    0    0  501    0  0.00000000000E+00  0.00000000000E+00  0.10034566990E+02  0.10034568077E+02  0.46700000000E-02 0. -1.
         -1   -1    0    0    0  501 -0.00000000000E+00 -0.00000000000E+00 -0.38931005798E+03  0.38931005801E+03  0.46700000000E-02 0.  1.
         25    2    1    2    0    0  0.00000000000E+00  0.00000000000E+00 -0.37927549099E+03  0.39934462609E+03  0.12500492917E+03 0.  0.
        -13    1    3    3    0    0  0.59197425534E+02 -0.17466527118E+02 -0.15815285396E+03  0.16976970032E+03  0.10570000000E+00 0.  1.
         13    1    3    3    0    0 -0.59197425534E+02  0.17466527118E+02 -0.22112263704E+03  0.22957492577E+03  0.10570000000E+00 0. -1.
<mgrwt>
<rscale>  0 0.12500493E+03</rscale>
<asrwt>0</asrwt>
<pdfrwt beam="1">  1        1 0.15437799E-02 0.12500493E+03</pdfrwt>
<pdfrwt beam="2">  1       -1 0.59893844E-01 0.12500493E+03</pdfrwt>
<totfact> 0.23420303E+04</totfact>
</mgrwt>
</event>
<event>
 5    1  0.1336420E-049  0.1249958E+03  0.7818608E-02  0.1235076E+00
         -1   -1    0    0    0  501 -0.00000000000E+00  0.00000000000E+00  0.31549853425E+02  0.31549853771E+02  0.46700000000E-02 0.  1.
          1   -1    0    0  501    0  0.00000000000E+00 -0.00000000000E+00 -0.12380357074E+03  0.12380357083E+03  0.46700000000E-02 0. -1.
         25    2    1    2    0    0  0.00000000000E+00  0.00000000000E+00 -0.92253717319E+02  0.15535342460E+03  0.12499575263E+03 0.  0.
        -13    1    3    3    0    0  0.57323603139E+02  0.15413152049E+02 -0.70431638642E+02  0.92109650022E+02  0.10570000000E+00 0.  1.
         13    1    3    3    0    0 -0.57323603139E+02 -0.15413152049E+02 -0.21822078677E+02  0.63243774580E+02  0.10570000000E+00 0. -1.
<mgrwt>
<rscale>  0 0.12499575E+03</rscale>
<asrwt>0</asrwt>
<pdfrwt beam="2">  1        1 0.19046703E-01 0.12499575E+03</pdfrwt>
<pdfrwt beam="1">  1       -1 0.48538237E-02 0.12499575E+03</pdfrwt>
<totfact> 0.45248004E+04</totfact>
</mgrwt>
</event>
<event>
 5    1  0.1336420E-049  0.1250009E+03  0.7818608E-02  0.1235068E+00
          1   -1    0    0  501    0  0.00000000000E+00  0.00000000000E+00  0.16023879923E+03  0.16023879930E+03  0.46700000000E-02 0. -1.
         -1   -1    0    0    0  501 -0.00000000000E+00 -0.00000000000E+00 -0.24378016422E+02  0.24378016869E+02  0.46700000000E-02 0.  1.
         25    2    1    2    0    0  0.00000000000E+00  0.00000000000E+00  0.13586078281E+03  0.18461681617E+03  0.12500086602E+03 0.  0.
        -13    1    3    3    0    0  0.49637972100E+01 -0.56112016161E+02  0.27941583582E+02  0.62880369798E+02  0.10570000000E+00 0.  1.
         13    1    3    3    0    0 -0.49637972100E+01  0.56112016161E+02  0.10791919923E+03  0.12173644637E+03  0.10570000000E+00 0. -1.
<mgrwt>
<rscale>  0 0.12500087E+03</rscale>
<asrwt>0</asrwt>
<pdfrwt beam="1">  1        1 0.24652123E-01 0.12500087E+03</pdfrwt>
<pdfrwt beam="2">  1       -1 0.37504640E-02 0.12500087E+03</pdfrwt>
<totfact> 0.47714146E+04</totfact>
</mgrwt>
</event>
<event>
 5    1  0.1336420E-049  0.1249822E+03  0.7818608E-02  0.1235097E+00
         -1   -1    0    0    0  501 -0.00000000000E+00  0.00000000000E+00  0.34613034838E+02  0.34613035153E+02  0.46700000000E-02 0.  1.
          1   -1    0    0  501    0  0.00000000000E+00 -0.00000000000E+00 -0.11282281969E+03  0.11282281978E+03  0.46700000000E-02 0. -1.
         25    2    1    2    0    0  0.00000000000E+00  0.00000000000E+00 -0.78209784848E+02  0.14743585494E+03  0.12498224224E+03 0.  0.
        -13    1    3    3    0    0  0.28689954349E+02  0.50020921738E+01 -0.10432809794E+03  0.10831665430E+03  0.10570000000E+00 0. -1.
         13    1    3    3    0    0 -0.28689954349E+02 -0.50020921738E+01  0.26118313095E+02  0.39119200632E+02  0.10570000000E+00 0.  1.
<mgrwt>
<rscale>  0 0.12498224E+03</rscale>
<asrwt>0</asrwt>
<pdfrwt beam="2">  1        1 0.17357357E-01 0.12498224E+03</pdfrwt>
<pdfrwt beam="1">  1       -1 0.53250824E-02 0.12498224E+03</pdfrwt>
<totfact> 0.44423722E+04</totfact>
</mgrwt>
</event>
<event>
 5    1  0.1336420E-049  0.1250008E+03  0.7818608E-02  0.1235068E+00
         -1   -1    0    0    0  501 -0.00000000000E+00  0.00000000000E+00  0.32927925303E+03  0.32927925306E+03  0.46700000000E-02 0. -1.
          1   -1    0    0  501    0  0.00000000000E+00 -0.00000000000E+00 -0.11863182678E+02  0.11863183597E+02  0.46700000000E-02 0.  1.
         25    2    1    2    0    0  0.00000000000E+00  0.00000000000E+00  0.31741607035E+03  0.34114243666E+03  0.12500080149E+03 0.  0.
        -13    1    3    3    0    0  0.43493015065E+02  0.22285872337E+02  0.26503830054E+03  0.26950624184E+03  0.10570000000E+00 0. -1.
         13    1    3    3    0    0 -0.43493015065E+02 -0.22285872337E+02  0.52377769811E+02  0.71636194819E+02  0.10570000000E+00 0.  1.
<mgrwt>
<rscale>  0 0.12500080E+03</rscale>
<asrwt>0</asrwt>
<pdfrwt beam="2">  1        1 0.18251053E-02 0.12500080E+03</pdfrwt>
<pdfrwt beam="1">  1       -1 0.50658340E-01 0.12500080E+03</pdfrwt>
<totfact> 0.25321606E+04</totfact>
</mgrwt>
</event>
<event>
 5    1  0.1336420E-049  0.1249994E+03  0.7818608E-02  0.1235070E+00
          1   -1    0    0  501    0  0.00000000000E+00  0.00000000000E+00  0.86763507947E+01  0.86763520515E+01  0.46700000000E-02 0. -1.
         -1   -1    0    0    0  501 -0.00000000000E+00 -0.00000000000E+00 -0.45021406375E+03  0.45021406378E+03  0.46700000000E-02 0.  1.
         25    2    1    2    0    0  0.00000000000E+00  0.00000000000E+00 -0.44153771296E+03  0.45889041583E+03  0.12499944710E+03 0.  0.
        -13    1    3    3    0    0  0.47881754306E+02 -0.40057155292E+02 -0.23176156621E+03  0.24002223403E+03  0.10570000000E+00 0.  1.
         13    1    3    3    0    0 -0.47881754306E+02  0.40057155292E+02 -0.20977614675E+03  0.21886818180E+03  0.10570000000E+00 0. -1.
<mgrwt>
<rscale>  0 0.12499945E+03</rscale>
<asrwt>0</asrwt>
<pdfrwt beam="1">  1        1 0.13348236E-02 0.12499945E+03</pdfrwt>
<pdfrwt beam="2">  1       -1 0.69263684E-01 0.12499945E+03</pdfrwt>
<totfact> 0.21677119E+04</totfact>
</mgrwt>
</event>
<event>
 5    1  0.1336420E-049  0.1250001E+03  0.7818608E-02  0.1235069E+00
         -1   -1    0    0    0  501 -0.00000000000E+00  0.00000000000E+00  0.23246295425E+02  0.23246295894E+02  0.46700000000E-02 0.  1.
          1   -1    0    0  501    0  0.00000000000E+00 -0.00000000000E+00 -0.16803783983E+03  0.16803783989E+03  0.46700000000E-02 0. -1.
         25    2    1    2    0    0  0.00000000000E+00  0.00000000000E+00 -0.14479154440E+03  0.19128413579E+03  0.12500011709E+03 0.  0.
        -13    1    3    3    0    0  0.14596272603E+02  0.24759606767E+02 -0.15732456466E+03  0.15992848127E+03  0.10570000000E+00 0. -1.
         13    1    3    3    0    0 -0.14596272603E+02 -0.24759606767E+02  0.12533020260E+02  0.31355654521E+02  0.10570000000E+00 0.  1.
<mgrwt>
<rscale>  0 0.12500012E+03</rscale>
<asrwt>0</asrwt>
<pdfrwt beam="2">  1        1 0.25851975E-01 0.12500012E+03</pdfrwt>
<pdfrwt beam="1">  1       -1 0.35763533E-02 0.12500012E+03</pdfrwt>
<totfact> 0.48192789E+04</totfact>
</mgrwt>
</event>
<event>
 5    1  0.1336420E-049  0.1250001E+03  0.7818608E-02  0.1235069E+00
         -1   -1    0    0    0  501 -0.00000000000E+00  0.00000000000E+00  0.21792143974E+03  0.21792143979E+03  0.46700000000E-02 0.  1.
          1   -1    0    0  501    0  0.00000000000E+00 -0.00000000000E+00 -0.17925062117E+02  0.17925062725E+02  0.46700000000E-02 0. -1.
         25    2    1    2    0    0  0.00000000000E+00  0.00000000000E+00  0.19999637763E+03  0.23584650252E+03  0.12500008675E+03 0.  0.
        -13    1    3    3    0    0 -0.14337403521E+02  0.49861232924E+02  0.16575263698E+03  0.17368261723E+03  0.10570000000E+00 0.  1.
         13    1    3    3    0    0  0.14337403521E+02 -0.49861232924E+02  0.34243740644E+02  0.62163885289E+02  0.10570000000E+00 0. -1.
<mgrwt>
<rscale>  0 0.12500009E+03</rscale>
<asrwt>0</asrwt>
<pdfrwt beam="2">  1        1 0.27577020E-02 0.12500009E+03</pdfrwt>
<pdfrwt beam="1">  1       -1 0.33526375E-01 0.12500009E+03</pdfrwt>
<totfact> 0.29513596E+04</totfact>
</mgrwt>
</event>
<event>
 5    1  0.1336420E-049  0.1250000E+03  0.7818608E-02  0.1235069E+00
         -1   -1    0    0    0  501 -0.00000000000E+00  0.00000000000E+00  0.48242832075E+02  0.48242832301E+02  0.46700000000E-02 0.  1.
          1   -1    0    0  501    0  0.00000000000E+00 -0.00000000000E+00 -0.80970553954E+02  0.80970554089E+02  0.46700000000E-02 0. -1.
         25    2    1    2    0    0  0.00000000000E+00  0.00000000000E+00 -0.32727721879E+02  0.12921338639E+03  0.12499998177E+03 0.  0.
        -13    1    3    3    0    0  0.33051352788E+02  0.53008255825E+02 -0.18423658861E+02  0.65128407666E+02  0.10570000000E+00 0.  1.
         13    1    3    3    0    0 -0.33051352788E+02 -0.53008255825E+02 -0.14304063018E+02  0.64084978724E+02  0.10570000000E+00 0. -1.
<mgrwt>
<rscale>  0 0.12499998E+03</rscale>
<asrwt>0</asrwt>
<pdfrwt beam="2">  1        1 0.12457008E-01 0.12499998E+03</pdfrwt>
<pdfrwt beam="1">  1       -1 0.74219742E-02 0.12499998E+03</pdfrwt>
<totfact> 0.41602111E+04</totfact>
</mgrwt>
</event>
<event>
 5    1  0.1336420E-049  0.1250047E+03  0.7818608E-02  0.1235062E+00
          1   -1    0    0  501    0  0.00000000000E+00  0.00000000000E+00  0.22409987684E+03  0.22409987689E+03  0.46700000000E-02 0. -1.
         -1   -1    0    0    0  501 -0.00000000000E+00 -0.00000000000E+00 -0.17432150490E+02  0.17432151116E+02  0.46700000000E-02 0.  1.
         25    2    1    2    0    0  0.00000000000E+00  0.00000000000E+00  0.20666772635E+03  0.24153202801E+03  0.12500468566E+03 0.  0.
        -13    1    3    3    0    0  0.40225844651E+02 -0.32041953212E+02  0.34701173198E+02  0.62040212261E+02  0.10570000000E+00 0.  1.
         13    1    3    3    0    0 -0.40225844651E+02  0.32041953212E+02  0.17196655316E+03  0.17949181575E+03  0.10570000000E+00 0. -1.
<mgrwt>
<rscale>  0 0.12500469E+03</rscale>
<asrwt>0</asrwt>
<pdfrwt beam="1">  1        1 0.34476902E-01 0.12500469E+03</pdfrwt>
<pdfrwt beam="2">  1       -1 0.26818695E-02 0.12500469E+03</pdfrwt>
<totfact> 0.51232955E+04</totfact>
</mgrwt>
</event>
<event>
 5    1  0.1336420E-049  0.1249943E+03  0.7818608E-02  0.1235078E+00
          1   -1    0    0  501    0  0.00000000000E+00  0.00000000000E+00  0.52459984431E+02  0.52459984639E+02  0.46700000000E-02 0. -1.
         -1   -1    0    0    0  501 -0.00000000000E+00 -0.00000000000E+00 -0.74454731874E+02  0.74454732021E+02  0.46700000000E-02 0.  1.
         25    2    1    2    0    0  0.00000000000E+00  0.00000000000E+00 -0.21994747444E+02  0.12691471666E+03  0.12499430543E+03 0.  0.
        -13    1    3    3    0    0  0.20506964732E+01 -0.37100062207E+02 -0.62021439371E+02  0.72300000594E+02  0.10570000000E+00 0.  1.
         13    1    3    3    0    0 -0.20506964732E+01  0.37100062207E+02  0.40026691927E+02  0.54614716065E+02  0.10570000000E+00 0. -1.
<mgrwt>
<rscale>  0 0.12499431E+03</rscale>
<asrwt>0</asrwt>
<pdfrwt beam="1">  1        1 0.80707669E-02 0.12499431E+03</pdfrwt>
<pdfrwt beam="2">  1       -1 0.11454574E-01 0.12499431E+03</pdfrwt>
<totfact> 0.38239524E+04</totfact>
</mgrwt>
</event>
<event>
 5    1  0.1336420E-049  0.1250006E+03  0.7818608E-02  0.1235068E+00
          1   -1    0    0  501    0  0.00000000000E+00  0.00000000000E+00  0.57531443558E+02  0.57531443747E+02  0.46700000000E-02 0. -1.
         -1   -1    0    0    0  501 -0.00000000000E+00 -0.00000000000E+00 -0.67898298949E+02  0.67898299109E+02  0.46700000000E-02 0.  1.
         25    2    1    2    0    0  0.00000000000E+00  0.00000000000E+00 -0.10366855391E+02  0.12542974286E+03  0.12500059481E+03 0.  0.
        -13    1    3    3    0    0  0.61924206205E+02 -0.33343799346E+01  0.26247138212E+01  0.62069523107E+02  0.10570000000E+00 0.  1.
         13    1    3    3    0    0 -0.61924206205E+02  0.33343799346E+01 -0.12991569212E+02  0.63360219749E+02  0.10570000000E+00 0. -1.
<mgrwt>
<rscale>  0 0.12500059E+03</rscale>
<asrwt>0</asrwt>
<pdfrwt beam="1">  1        1 0.88509913E-02 0.12500059E+03</pdfrwt>
<pdfrwt beam="2">  1       -1 0.10445892E-01 0.12500059E+03</pdfrwt>
<totfact> 0.38934001E+04</totfact>
</mgrwt>
</event>
<event>
 5    1  0.1336420E-049  0.1249980E+03  0.7818608E-02  0.1235072E+00
         -1   -1    0    0    0  501 -0.00000000000E+00  0.00000000000E+00  0.55028229641E+03  0.55028229643E+03  0.46700000000E-02 0.  1.
          1   -1    0    0  501    0  0.00000000000E+00 -0.00000000000E+00 -0.70983965491E+01  0.70983980853E+01  0.46700000000E-02 0. -1.
         25    2    1    2    0    0  0.00000000000E+00  0.00000000000E+00  0.54318389986E+03  0.55738069452E+03  0.12499795818E+03 0.  0.
        -13    1    3    3    0    0  0.15682775611E+01  0.62111791730E+02  0.24142211749E+03  0.24928895714E+03  0.10570000000E+00 0. -1.
         13    1    3    3    0    0 -0.15682775611E+01 -0.62111791730E+02  0.30176178237E+03  0.30809173737E+03  0.10570000000E+00 0.  1.
<mgrwt>
<rscale>  0 0.12499796E+03</rscale>
<asrwt>0</asrwt>
<pdfrwt beam="2">  1        1 0.10920613E-02 0.12499796E+03</pdfrwt>
<pdfrwt beam="1">  1       -1 0.84658801E-01 0.12499796E+03</pdfrwt>
<totfact> 0.19136401E+04</totfact>
</mgrwt>
</event>
<event>
 5    1  0.1336420E-049  0.1250018E+03  0.7818608E-02  0.1235066E+00
         -1   -1    0    0    0  501 -0.00000000000E+00  0.00000000000E+00  0.43381114120E+02  0.43381114371E+02  0.46700000000E-02 0.  1.
          1   -1    0    0  501    0  0.00000000000E+00 -0.00000000000E+00 -0.90047595561E+02  0.90047595683E+02  0.46700000000E-02 0. -1.
         25    2    1    2    0    0  0.00000000000E+00  0.00000000000E+00 -0.46666481442E+02  0.13342871005E+03  0.12500184069E+03 0.  0.
        -13    1    3    3    0    0 -0.38574510390E+02  0.48776796372E+02 -0.30015043705E+02  0.69051305109E+02  0.10570000000E+00 0. -1.
         13    1    3    3    0    0  0.38574510390E+02 -0.48776796372E+02 -0.16651437737E+02  0.64377404945E+02  0.10570000000E+00 0.  1.
<mgrwt>
<rscale>  0 0.12500184E+03</rscale>
<asrwt>0</asrwt>
<pdfrwt beam="2">  1        1 0.13853476E-01 0.12500184E+03</pdfrwt>
<pdfrwt beam="1">  1       -1 0.66740176E-02 0.12500184E+03</pdfrwt>
<totfact> 0.42469785E+04</totfact>
</mgrwt>
</event>
<event>
 5    1  0.1336420E-049  0.1249987E+03  0.7818608E-02  0.1235071E+00
          1   -1    0    0  501    0  0.00000000000E+00  0.00000000000E+00  0.44143699786E+02  0.44143700033E+02  0.46700000000E-02 0. -1.
         -1   -1    0    0    0  501 -0.00000000000E+00 -0.00000000000E+00 -0.88487562994E+02  0.88487563117E+02  0.46700000000E-02 0.  1.
         25    2    1    2    0    0  0.00000000000E+00  0.00000000000E+00 -0.44343863209E+02  0.13263126315E+03  0.12499869504E+03 0.  0.
        -13    1    3    3    0    0 -0.78873468116E+01  0.59047710870E+02 -0.42228931448E+02  0.73021477816E+02  0.10570000000E+00 0.  1.
         13    1    3    3    0    0  0.78873468116E+01 -0.59047710870E+02 -0.21149317609E+01  0.59609785334E+02  0.10570000000E+00 0. -1.
<mgrwt>
<rscale>  0 0.12499870E+03</rscale>
<asrwt>0</asrwt>
<pdfrwt beam="1">  1        1 0.67913385E-02 0.12499870E+03</pdfrwt>
<pdfrwt beam="2">  1       -1 0.13613471E-01 0.12499870E+03</pdfrwt>
<totfact> 0.36931387E+04</totfact>
</mgrwt>
</event>
<event>
 5    1  0.1336420E-049  0.1249994E+03  0.7818608E-02  0.1235070E+00
          1   -1    0    0  501    0  0.00000000000E+00  0.00000000000E+00  0.13874044547E+02  0.13874045333E+02  0.46700000000E-02 0. -1.
         -1   -1    0    0    0  501 -0.00000000000E+00 -0.00000000000E+00 -0.28154815816E+03  0.28154815820E+03  0.46700000000E-02 0.  1.
         25    2    1    2    0    0  0.00000000000E+00  0.00000000000E+00 -0.26767411362E+03  0.29542220353E+03  0.12499938897E+03 0.  0.
        -13    1    3    3    0    0 -0.46902926065E+02  0.30136265246E+02 -0.67068836929E+02  0.87214213383E+02  0.10570000000E+00 0. -1.
         13    1    3    3    0    0  0.46902926065E+02 -0.30136265246E+02 -0.20060527669E+03  0.20820799015E+03  0.10570000000E+00 0.  1.
<mgrwt>
<rscale>  0 0.12499939E+03</rscale>
<asrwt>0</asrwt>
<pdfrwt beam="1">  1        1 0.21344687E-02 0.12499939E+03</pdfrwt>
<pdfrwt beam="2">  1       -1 0.43315097E-01 0.12499939E+03</pdfrwt>
<totfact> 0.26992731E+04</totfact>
</mgrwt>
</event>
<event>
 5    1  0.1336420E-049  0.1250037E+03  0.7818608E-02  0.1235063E+00
          1   -1    0    0  501    0  0.00000000000E+00  0.00000000000E+00  0.18379620576E+03  0.18379620582E+03  0.46700000000E-02 0. -1.
         -1   -1    0    0    0  501 -0.00000000000E+00 -0.00000000000E+00 -0.21254422441E+02  0.21254422954E+02  0.46700000000E-02 0.  1.
         25    2    1    2    0    0  0.00000000000E+00  0.00000000000E+00  0.16254178332E+03  0.20505062878E+03  0.12500371609E+03 0.  0.
        -13    1    3    3    0    0  0.45509789679E+02  0.12347550168E+02  0.13978924380E+02  0.49183579080E+02  0.10570000000E+00 0.  1.
         13    1    3    3    0    0 -0.45509789679E+02 -0.12347550168E+02  0.14856285894E+03  0.15586704970E+03  0.10570000000E+00 0. -1.
<mgrwt>
<rscale>  0 0.12500372E+03</rscale>
<asrwt>0</asrwt>
<pdfrwt beam="1">  1        1 0.28276340E-01 0.12500372E+03</pdfrwt>
<pdfrwt beam="2">  1       -1 0.32699111E-02 0.12500372E+03</pdfrwt>
<totfact> 0.49111139E+04</totfact>
</mgrwt>
</event>
<event>
 5    1  0.1336420E-049  0.1249943E+03  0.7818608E-02  0.1235078E+00
          1   -1    0    0  501    0  0.00000000000E+00  0.00000000000E+00  0.33117368133E+03  0.33117368136E+03  0.46700000000E-02 0. -1.
         -1   -1    0    0    0  501 -0.00000000000E+00 -0.00000000000E+00 -0.11794085159E+02  0.11794086084E+02  0.46700000000E-02 0.  1.
         25    2    1    2    0    0  0.00000000000E+00  0.00000000000E+00  0.31937959617E+03  0.34296776745E+03  0.12499425210E+03 0.  0.
        -13    1    3    3    0    0 -0.62269504618E+02  0.24259708158E+01  0.14667360520E+03  0.15936290088E+03  0.10570000000E+00 0. -1.
         13    1    3    3    0    0  0.62269504618E+02 -0.24259708158E+01  0.17270599097E+03  0.18360486657E+03  0.10570000000E+00 0.  1.
<mgrwt>
<rscale>  0 0.12499425E+03</rscale>
<asrwt>0</asrwt>
<pdfrwt beam="1">  1        1 0.50949790E-01 0.12499425E+03</pdfrwt>
<pdfrwt beam="2">  1       -1 0.18144750E-02 0.12499425E+03</pdfrwt>
<totfact> 0.55585756E+04</totfact>
</mgrwt>
</event>
<event>
 5    1  0.1336420E-049  0.1250004E+03  0.7818608E-02  0.1235069E+00
         -1   -1    0    0    0  501 -0.00000000000E+00  0.00000000000E+00  0.12981598649E+03  0.12981598658E+03  0.46700000000E-02 0. -1.
          1   -1    0    0  501    0  0.00000000000E+00 -0.00000000000E+00 -0.30090853128E+02  0.30090853490E+02  0.46700000000E-02 0.  1.
         25    2    1    2    0    0  0.00000000000E+00  0.00000000000E+00  0.99725133367E+02  0.15990684007E+03  0.12500038110E+03 0.  0.
        -13    1    3    3    0    0  0.25576276647E+02 -0.45157237032E+02  0.94415415796E+02  0.10773859056E+03  0.10570000000E+00 0. -1.
         13    1    3    3    0    0 -0.25576276647E+02  0.45157237032E+02  0.53097175704E+01  0.52168249508E+02  0.10570000000E+00 0.  1.
<mgrwt>
<rscale>  0 0.12500038E+03</rscale>
<asrwt>0</asrwt>
<pdfrwt beam="2">  1        1 0.46293621E-02 0.12500038E+03</pdfrwt>
<pdfrwt beam="1">  1       -1 0.19971690E-01 0.12500038E+03</pdfrwt>
<totfact> 0.33968832E+04</totfact>
</mgrwt>
</event>
<event>
 5    1  0.1336420E-049  0.1249994E+03  0.7818608E-02  0.1235070E+00
         -1   -1    0    0    0  501 -0.00000000000E+00  0.00000000000E+00  0.40367394839E+02  0.40367395109E+02  0.46700000000E-02 0.  1.
          1   -1    0    0  501    0  0.00000000000E+00 -0.00000000000E+00 -0.96766519650E+02  0.96766519763E+02  0.46700000000E-02 0. -1.
         25    2    1    2    0    0  0.00000000000E+00  0.00000000000E+00 -0.56399124811E+02  0.13713391487E+03  0.12499939731E+03 0.  0.
        -13    1    3    3    0    0 -0.30765178197E+02 -0.32196292766E+02  0.19910764429E+02  0.48780602395E+02  0.10570000000E+00 0.  1.
         13    1    3    3    0    0  0.30765178197E+02  0.32196292766E+02 -0.76309889241E+02  0.88353312477E+02  0.10570000000E+00 0. -1.
<mgrwt>
<rscale>  0 0.12499940E+03</rscale>
<asrwt>0</asrwt>
<pdfrwt beam="2">  1        1 0.14887157E-01 0.12499940E+03</pdfrwt>
<pdfrwt beam="1">  1       -1 0.62103685E-02 0.12499940E+03</pdfrwt>
<totfact> 0.43075758E+04</totfact>
</mgrwt>
</event>
<event>
 5    1  0.1336420E-049  0.1250003E+03  0.7818608E-02  0.1235069E+00
          1   -1    0    0  501    0  0.00000000000E+00  0.00000000000E+00  0.26406895736E+03  0.26406895740E+03  0.46700000000E-02 0. -1.
         -1   -1    0    0    0  501 -0.00000000000E+00 -0.00000000000E+00 -0.14792599208E+02  0.14792599945E+02  0.46700000000E-02 0.  1.
         25    2    1    2    0    0  0.00000000000E+00  0.00000000000E+00  0.24927635815E+03  0.27886155735E+03  0.12500026173E+03 0.  0.
        -13    1    3    3    0    0  0.47982999883E+02 -0.38162547164E+02  0.15173285099E+03  0.16365090139E+03  0.10570000000E+00 0.  1.
         13    1    3    3    0    0 -0.47982999883E+02  0.38162547164E+02  0.97543507162E+02  0.11521065596E+03  0.10570000000E+00 0. -1.
<mgrwt>
<rscale>  0 0.12500026E+03</rscale>
<asrwt>0</asrwt>
<pdfrwt beam="1">  1        1 0.40625993E-01 0.12500026E+03</pdfrwt>
<pdfrwt beam="2">  1       -1 0.22757846E-02 0.12500026E+03</pdfrwt>
<totfact> 0.53053743E+04</totfact>
</mgrwt>
</event>
<event>
 5    1  0.1336420E-049  0.1249997E+03  0.7818608E-02  0.1235070E+00
          1   -1    0    0  501    0  0.00000000000E+00  0.00000000000E+00  0.11613332026E+03  0.11613332035E+03  0.46700000000E-02 0. -1.
         -1   -1    0    0    0  501 -0.00000000000E+00 -0.00000000000E+00 -0.33635734084E+02  0.33635734408E+02  0.46700000000E-02 0.  1.
         25    2    1    2    0    0  0.00000000000E+00  0.00000000000E+00  0.82497586172E+02  0.14976905476E+03  0.12499967215E+03 0.  0.
        -13    1    3    3    0    0  0.41722565201E+02  0.20962537056E+02 -0.85290261604E+01  0.47465312245E+02  0.10570000000E+00 0.  1.
         13    1    3    3    0    0 -0.41722565201E+02 -0.20962537056E+02  0.91026612333E+02  0.10230374251E+03  0.10570000000E+00 0. -1.
<mgrwt>
<rscale>  0 0.12499967E+03</rscale>
<asrwt>0</asrwt>
<pdfrwt beam="1">  1        1 0.17866664E-01 0.12499967E+03</pdfrwt>
<pdfrwt beam="2">  1       -1 0.51747285E-02 0.12499967E+03</pdfrwt>
<totfact> 0.44664164E+04</totfact>
</mgrwt>
</event>
<event>
 5    1  0.1336420E-049  0.1249979E+03  0.7818608E-02  0.1235073E+00
          1   -1    0    0  501    0  0.00000000000E+00  0.00000000000E+00  0.19889240963E+02  0.19889241512E+02  0.46700000000E-02 0. -1.
         -1   -1    0    0    0  501 -0.00000000000E+00 -0.00000000000E+00 -0.19639352138E+03  0.19639352144E+03  0.46700000000E-02 0.  1.
         25    2    1    2    0    0  0.00000000000E+00  0.00000000000E+00 -0.17650428042E+03  0.21628276295E+03  0.12499789015E+03 0.  0.
        -13    1    3    3    0    0  0.42577032477E+02  0.30120824485E+02 -0.28662776496E+02  0.59511626521E+02  0.10570000000E+00 0. -1.
         13    1    3    3    0    0 -0.42577032477E+02 -0.30120824485E+02 -0.14784150392E+03  0.15677113643E+03  0.10570000000E+00 0.  1.
<mgrwt>
<rscale>  0 0.12499789E+03</rscale>
<asrwt>0</asrwt>
<pdfrwt beam="1">  1        1 0.30598834E-02 0.12499789E+03</pdfrwt>
<pdfrwt beam="2">  1       -1 0.30214387E-01 0.12499789E+03</pdfrwt>
<totfact> 0.30471345E+04</totfact>
</mgrwt>
</event>
<event>
 5    1  0.1336420E-049  0.1249989E+03  0.7818608E-02  0.1235071E+00
          1   -1    0    0  501    0  0.00000000000E+00  0.00000000000E+00  0.39453435412E+03  0.39453435415E+03  0.46700000000E-02 0. -1.
         -1   -1    0    0    0  501 -0.00000000000E+00 -0.00000000000E+00 -0.99007346031E+01  0.99007357045E+01  0.46700000000E-02 0.  1.
         25    2    1    2    0    0  0.00000000000E+00  0.00000000000E+00  0.38463361952E+03  0.40443508985E+03  0.12499888256E+03 0.  0.
        -13    1    3    3    0    0 -0.88728739435E+01  0.61844228808E+02  0.19766515611E+03  0.20730403190E+03  0.10570000000E+00 0.  1.
         13    1    3    3    0    0  0.88728739435E+01 -0.61844228808E+02  0.18696846341E+03  0.19713105796E+03  0.10570000000E+00 0. -1.
<mgrwt>
<rscale>  0 0.12499888E+03</rscale>
<asrwt>0</asrwt>
<pdfrwt beam="1">  1        1 0.60697588E-01 0.12499888E+03</pdfrwt>
<pdfrwt beam="2">  1       -1 0.15231901E-02 0.12499888E+03</pdfrwt>
<totfact> 0.57434330E+04</totfact>
</mgrwt>
</event>
<event>
 5    1  0.1336420E-049  0.1250000E+03  0.7818608E-02  0.1235069E+00
          1   -1    0    0  501    0  0.00000000000E+00  0.00000000000E+00  0.94426050048E+02  0.94426050163E+02  0.46700000000E-02 0. -1.
         -1   -1    0    0    0  501 -0.00000000000E+00 -0.00000000000E+00 -0.41368376068E+02  0.41368376331E+02  0.46700000000E-02 0.  1.
         25    2    1    2    0    0  0.00000000000E+00  0.00000000000E+00  0.53057673980E+02  0.13579442649E+03  0.12500003800E+03 0.  0.
        -13    1    3    3    0    0  0.59124281360E+02 -0.18016031388E+02  0.36602293688E+02  0.71833119861E+02  0.10570000000E+00 0.  1.
         13    1    3    3    0    0 -0.59124281360E+02  0.18016031388E+02  0.16455380292E+02  0.63961306634E+02  0.10570000000E+00 0. -1.
<mgrwt>
<rscale>  0 0.12500004E+03</rscale>
<asrwt>0</asrwt>
<pdfrwt beam="1">  1        1 0.14527085E-01 0.12500004E+03</pdfrwt>
<pdfrwt beam="2">  1       -1 0.63643656E-02 0.12500004E+03</pdfrwt>
<totfact> 0.42868371E+04</totfact>
</mgrwt>
</event>
<event>
 5    1  0.1336420E-049  0.1250003E+03  0.7818608E-02  0.1235069E+00
          1   -1    0    0  501    0  0.00000000000E+00  0.00000000000E+00  0.39565925786E+03  0.39565925789E+03  0.46700000000E-02 0. -1.
         -1   -1    0    0    0  501 -0.00000000000E+00 -0.00000000000E+00 -0.98728039475E+01  0.98728050520E+01  0.46700000000E-02 0.  1.
         25    2    1    2    0    0  0.00000000000E+00  0.00000000000E+00  0.38578645391E+03  0.40553206294E+03  0.12500026420E+03 0.  0.
        -13    1    3    3    0    0 -0.41825009431E+02  0.46363722206E+02  0.18411024009E+03  0.19441069371E+03  0.10570000000E+00 0.  1.
         13    1    3    3    0    0  0.41825009431E+02 -0.46363722206E+02  0.20167621382E+03  0.21112136923E+03  0.10570000000E+00 0. -1.
<mgrwt>
<rscale>  0 0.12500026E+03</rscale>
<asrwt>0</asrwt>
<pdfrwt beam="1">  1        1 0.60870664E-01 0.12500026E+03</pdfrwt>
<pdfrwt beam="2">  1       -1 0.15188928E-02 0.12500026E+03</pdfrwt>
<totfact> 0.57461480E+04</totfact>
</mgrwt>
</event>
<event>
 5    1  0.1336420E-049  0.1250015E+03  0.7818608E-02  0.1235067E+00
         -1   -1    0    0    0  501 -0.00000000000E+00  0.00000000000E+00  0.85077585586E+01  0.85077598403E+01  0.46700000000E-02 0.  1.
          1   -1    0    0  501    0  0.00000000000E+00 -0.00000000000E+00 -0.45915074254E+03  0.45915074256E+03  0.46700000000E-02 0. -1.
         25    2    1    2    0    0  0.00000000000E+00  0.00000000000E+00 -0.45064298398E+03  0.46765850240E+03  0.12500150343E+03 0.  0.
        -13    1    3    3    0    0  0.39327881500E+02  0.44877569030E+02 -0.15576549227E+03  0.16680401140E+03  0.10570000000E+00 0.  1.
         13    1    3    3    0    0 -0.39327881500E+02 -0.44877569030E+02 -0.29487749171E+03  0.30085449100E+03  0.10570000000E+00 0. -1.
<mgrwt>
<rscale>  0 0.12500150E+03</rscale>
<asrwt>0</asrwt>
<pdfrwt beam="2">  1        1 0.70638557E-01 0.12500150E+03</pdfrwt>
<pdfrwt beam="1">  1       -1 0.13088864E-02 0.12500150E+03</pdfrwt>
<totfact> 0.58870440E+04</totfact>
</mgrwt>
</event>
<event>
 5    1  0.1336420E-049  0.1250004E+03  0.7818608E-02  0.1235069E+00
         -1   -1    0    0    0  501 -0.00000000000E+00  0.00000000000E+00  0.54063903713E+02  0.54063903915E+02  0.46700000000E-02 0.  1.
          1   -1    0    0  501    0  0.00000000000E+00 -0.00000000000E+00 -0.72252970773E+02  0.72252970924E+02  0.46700000000E-02 0. -1.
         25    2    1    2    0    0  0.00000000000E+00  0.00000000000E+00 -0.18189067060E+02  0.12631687484E+03  0.12500044283E+03 0.  0.
        -13    1    3    3    0    0 -0.45328996541E+02  0.41607278262E+02  0.19929337892E+01  0.61561891535E+02  0.10570000000E+00 0.  1.
         13    1    3    3    0    0  0.45328996541E+02 -0.41607278262E+02 -0.20182000849E+02  0.64754983303E+02  0.10570000000E+00 0. -1.
<mgrwt>
<rscale>  0 0.12500044E+03</rscale>
<asrwt>0</asrwt>
<pdfrwt beam="2">  1        1 0.11115842E-01 0.12500044E+03</pdfrwt>
<pdfrwt beam="1">  1       -1 0.83175236E-02 0.12500044E+03</pdfrwt>
<totfact> 0.40694650E+04</totfact>
</mgrwt>
</event>
<event>
 5    1  0.1336420E-049  0.1249951E+03  0.7818608E-02  0.1235077E+00
         -1   -1    0    0    0  501 -0.00000000000E+00  0.00000000000E+00  0.40117514660E+02  0.40117514932E+02  0.46700000000E-02 0.  1.
          1   -1    0    0  501    0  0.00000000000E+00 -0.00000000000E+00 -0.97362501598E+02  0.97362501710E+02  0.46700000000E-02 0. -1.
         25    2    1    2    0    0  0.00000000000E+00  0.00000000000E+00 -0.57244986938E+02  0.13748001664E+03  0.12499506569E+03 0.  0.
        -13    1    3    3    0    0 -0.40802302972E+02  0.32037057029E+02 -0.66956701390E+02  0.84701900713E+02  0.10570000000E+00 0. -1.
         13    1    3    3    0    0  0.40802302972E+02 -0.32037057029E+02  0.97117144528E+01  0.52778115929E+02  0.10570000000E+00 0.  1.
<mgrwt>
<rscale>  0 0.12499507E+03</rscale>
<asrwt>0</asrwt>
<pdfrwt beam="2">  1        1 0.14978846E-01 0.12499507E+03</pdfrwt>
<pdfrwt beam="1">  1       -1 0.61719254E-02 0.12499507E+03</pdfrwt>
<totfact> 0.43132105E+04</totfact>
</mgrwt>
</event>
<event>
 5    1  0.1336420E-049  0.1250012E+03  0.7818608E-02  0.1235067E+00
         -1   -1    0    0    0  501 -0.00000000000E+00  0.00000000000E+00  0.34866552139E+03  0.34866552142E+03  0.46700000000E-02 0.  1.
          1   -1    0    0  501    0  0.00000000000E+00 -0.00000000000E+00 -0.11203644572E+02  0.11203645546E+02  0.46700000000E-02 0. -1.
         25    2    1    2    0    0  0.00000000000E+00  0.00000000000E+00  0.33746187682E+03  0.35986916697E+03  0.12500119611E+03 0.  0.
        -13    1    3    3    0    0  0.51817079256E+02 -0.24217832125E+02  0.24126618574E+03  0.24795341629E+03  0.10570000000E+00 0.  1.
         13    1    3    3    0    0 -0.51817079256E+02  0.24217832125E+02  0.96195691079E+02  0.11191575068E+03  0.10570000000E+00 0. -1.
<mgrwt>
<rscale>  0 0.12500120E+03</rscale>
<asrwt>0</asrwt>
<pdfrwt beam="2">  1        1 0.17236377E-02 0.12500120E+03</pdfrwt>
<pdfrwt beam="1">  1       -1 0.53640850E-01 0.12500120E+03</pdfrwt>
<totfact> 0.24686314E+04</totfact>
</mgrwt>
</event>
<event>
 5    1  0.1336420E-049  0.1250120E+03  0.7818608E-02  0.1235051E+00
          1   -1    0    0  501    0  0.00000000000E+00  0.00000000000E+00  0.29952148881E+03  0.29952148885E+03  0.46700000000E-02 0. -1.
         -1   -1    0    0    0  501 -0.00000000000E+00 -0.00000000000E+00 -0.13044134627E+02  0.13044135463E+02  0.46700000000E-02 0.  1.
         25    2    1    2    0    0  0.00000000000E+00  0.00000000000E+00  0.28647735418E+03  0.31256562431E+03  0.12501197959E+03 0.  0.
        -13    1    3    3    0    0 -0.33035974741E+02 -0.52005450814E+02  0.16958616266E+03  0.18043120650E+03  0.10570000000E+00 0.  1.
         13    1    3    3    0    0  0.33035974741E+02  0.52005450814E+02  0.11689119153E+03  0.13213441781E+03  0.10570000000E+00 0. -1.
<mgrwt>
<rscale>  0 0.12501198E+03</rscale>
<asrwt>0</asrwt>
<pdfrwt beam="1">  1        1 0.46080230E-01 0.12501198E+03</pdfrwt>
<pdfrwt beam="2">  1       -1 0.20067900E-02 0.12501198E+03</pdfrwt>
<totfact> 0.54452665E+04</totfact>
</mgrwt>
</event>
<event>
 5    1  0.1336420E-049  0.1250021E+03  0.7818608E-02  0.1235066E+00
          1   -1    0    0  501    0  0.00000000000E+00  0.00000000000E+00  0.35502731317E+02  0.35502731624E+02  0.46700000000E-02 0. -1.
         -1   -1    0    0    0  501 -0.00000000000E+00 -0.00000000000E+00 -0.11003036822E+03  0.11003036832E+03  0.46700000000E-02 0.  1.
         25    2    1    2    0    0  0.00000000000E+00  0.00000000000E+00 -0.74527636899E+02  0.14553309994E+03  0.12500205805E+03 0.  0.
        -13    1    3    3    0    0 -0.10106190635E+02 -0.57205117096E+02 -0.64112416879E+02  0.86515742393E+02  0.10570000000E+00 0.  1.
         13    1    3    3    0    0  0.10106190635E+02  0.57205117096E+02 -0.10415220020E+02  0.59017357546E+02  0.10570000000E+00 0. -1.
<mgrwt>
<rscale>  0 0.12500206E+03</rscale>
<asrwt>0</asrwt>
<pdfrwt beam="1">  1        1 0.54619587E-02 0.12500206E+03</pdfrwt>
<pdfrwt beam="2">  1       -1 0.16927749E-01 0.12500206E+03</pdfrwt>
<totfact> 0.35265073E+04</totfact>
</mgrwt>
</event>
<event>
 5    1  0.1336420E-049  0.1250025E+03  0.7818608E-02  0.1235065E+00
         -1   -1    0    0    0  501 -0.00000000000E+00  0.00000000000E+00  0.36626748933E+03  0.36626748936E+03  0.46700000000E-02 0.  1.
          1   -1    0    0  501    0  0.00000000000E+00 -0.00000000000E+00 -0.10665438554E+02  0.10665439576E+02  0.46700000000E-02 0. -1.
         25    2    1    2    0    0  0.00000000000E+00  0.00000000000E+00  0.35560205078E+03  0.37693292894E+03  0.12500245758E+03 0.  0.
        -13    1    3    3    0    0 -0.29302571611E+02  0.54229412167E+02  0.20898132211E+03  0.21788224804E+03  0.10570000000E+00 0.  1.
         13    1    3    3    0    0  0.29302571611E+02 -0.54229412167E+02  0.14662072867E+03  0.15905068090E+03  0.10570000000E+00 0. -1.
<mgrwt>
<rscale>  0 0.12500246E+03</rscale>
<asrwt>0</asrwt>
<pdfrwt beam="2">  1        1 0.16408368E-02 0.12500246E+03</pdfrwt>
<pdfrwt beam="1">  1       -1 0.56348843E-01 0.12500246E+03</pdfrwt>
<totfact> 0.24128122E+04</totfact>
</mgrwt>
</event>
<event>
 5    1  0.1336420E-049  0.1250036E+03  0.7818608E-02  0.1235064E+00
          1   -1    0    0  501    0  0.00000000000E+00  0.00000000000E+00  0.29903399581E+03  0.29903399585E+03  0.46700000000E-02 0. -1.
         -1   -1    0    0    0  501 -0.00000000000E+00 -0.00000000000E+00 -0.13063651291E+02  0.13063652126E+02  0.46700000000E-02 0.  1.
         25    2    1    2    0    0  0.00000000000E+00  0.00000000000E+00  0.28597034452E+03  0.31209764797E+03  0.12500361565E+03 0.  0.
        -13    1    3    3    0    0  0.28126542431E+01  0.62126750504E+02  0.15854122332E+03  0.17030259780E+03  0.10570000000E+00 0.  1.
         13    1    3    3    0    0 -0.28126542431E+01 -0.62126750504E+02  0.12742912120E+03  0.14179505018E+03  0.10570000000E+00 0. -1.
<mgrwt>
<rscale>  0 0.12500362E+03</rscale>
<asrwt>0</asrwt>
<pdfrwt beam="1">  1        1 0.46005232E-01 0.12500362E+03</pdfrwt>
<pdfrwt beam="2">  1       -1 0.20097925E-02 0.12500362E+03</pdfrwt>
<totfact> 0.54444520E+04</totfact>
</mgrwt>
</event>
<event>
 5    1  0.1336420E-049  0.1249997E+03  0.7818608E-02  0.1235070E+00
         -1   -1    0    0    0  501 -0.00000000000E+00  0.00000000000E+00  0.15041510782E+02  0.15041511507E+02  0.46700000000E-02 0. -1.
          1   -1    0    0  501    0  0.00000000000E+00 -0.00000000000E+00 -0.25969660833E+03  0.25969660837E+03  0.46700000000E-02 0.  1.
         25    2    1    2    0    0  0.00000000000E+00  0.00000000000E+00 -0.24465509755E+03  0.27473811988E+03  0.12499967103E+03 0.  0.
        -13    1    3    3    0    0 -0.93362945825E+01 -0.54391163883E+02 -0.57847681301E+02  0.79949549776E+02  0.10570000000E+00 0. -1.
         13    1    3    3    0    0  0.93362945825E+01  0.54391163883E+02 -0.18680741625E+03  0.19478857010E+03  0.10570000000E+00 0.  1.
<mgrwt>
<rscale>  0 0.12499967E+03</rscale>
<asrwt>0</asrwt>
<pdfrwt beam="2">  1        1 0.39953321E-01 0.12499967E+03</pdfrwt>
<pdfrwt beam="1">  1       -1 0.23140788E-02 0.12499967E+03</pdfrwt>
<totfact> 0.52867187E+04</totfact>
</mgrwt>
</event>
<event>
 5    1  0.1336420E-049  0.1250008E+03  0.7818608E-02  0.1235068E+00
         -1   -1    0    0    0  501 -0.00000000000E+00  0.00000000000E+00  0.41483168920E+02  0.41483169183E+02  0.46700000000E-02 0.  1.
          1   -1    0    0  501    0  0.00000000000E+00 -0.00000000000E+00 -0.94165865245E+02  0.94165865360E+02  0.46700000000E-02 0. -1.
         25    2    1    2    0    0  0.00000000000E+00  0.00000000000E+00 -0.52682696324E+02  0.13564903454E+03  0.12500077632E+03 0.  0.
        -13    1    3    3    0    0  0.35583390144E+02 -0.25225546625E+02  0.22235482597E+02  0.48958489718E+02  0.10570000000E+00 0.  1.
         13    1    3    3    0    0 -0.35583390144E+02  0.25225546625E+02 -0.74918178921E+02  0.86690544825E+02  0.10570000000E+00 0. -1.
<mgrwt>
<rscale>  0 0.12500078E+03</rscale>
<asrwt>0</asrwt>
<pdfrwt beam="2">  1        1 0.14487056E-01 0.12500078E+03</pdfrwt>
<pdfrwt beam="1">  1       -1 0.63820261E-02 0.12500078E+03</pdfrwt>
<totfact> 0.42844439E+04</totfact>
</mgrwt>
</event>
<event>
 5    1  0.1336420E-049  0.1249999E+03  0.7818608E-02  0.1235069E+00
         -1   -1    0    0    0  501 -0.00000000000E+00  0.00000000000E+00  0.28378362347E+02  0.28378362731E+02  0.46700000000E-02 0.  1.
          1   -1    0    0  501    0  0.00000000000E+00 -0.00000000000E+00 -0.13764864226E+03  0.13764864234E+03  0.46700000000E-02 0. -1.
         25    2    1    2    0    0  0.00000000000E+00  0.00000000000E+00 -0.10927027992E+03  0.16602700507E+03  0.12499988936E+03 0.  0.
        -13    1    3    3    0    0 -0.34998931400E+02 -0.36415693677E+02 -0.57393533245E+01  0.50832856444E+02  0.10570000000E+00 0.  1.
         13    1    3    3    0    0  0.34998931400E+02  0.36415693677E+02 -0.10353092659E+03  0.11519414863E+03  0.10570000000E+00 0. -1.
<mgrwt>
<rscale>  0 0.12499989E+03</rscale>
<asrwt>0</asrwt>
<pdfrwt beam="2">  1        1 0.21176714E-01 0.12499989E+03</pdfrwt>
<pdfrwt beam="1">  1       -1 0.43659020E-02 0.12499989E+03</pdfrwt>
<totfact> 0.46234610E+04</totfact>
</mgrwt>
</event>
<event>
 5    1  0.1336420E-049  0.1250000E+03  0.7818608E-02  0.1235069E+00
          1   -1    0    0  501    0  0.00000000000E+00  0.00000000000E+00  0.11722537025E+02  0.11722537955E+02  0.46700000000E-02 0. -1.
         -1   -1    0    0    0  501 -0.00000000000E+00 -0.00000000000E+00 -0.33322541093E+03  0.33322541096E+03  0.46700000000E-02 0.  1.
         25    2    1    2    0    0  0.00000000000E+00  0.00000000000E+00 -0.32150287390E+03  0.34494794891E+03  0.12499995813E+03 0.  0.
        -13    1    3    3    0    0  0.46872651740E+02  0.39693715671E+02 -0.12885469055E+03  0.14274515401E+03  0.10570000000E+00 0.  1.
         13    1    3    3    0    0 -0.46872651740E+02 -0.39693715671E+02 -0.19264818335E+03  0.20220279490E+03  0.10570000000E+00 0. -1.
<mgrwt>
<rscale>  0 0.12499996E+03</rscale>
<asrwt>0</asrwt>
<pdfrwt beam="1">  1        1 0.18034676E-02 0.12499996E+03</pdfrwt>
<pdfrwt beam="2">  1       -1 0.51265441E-01 0.12499996E+03</pdfrwt>
<totfact> 0.25190913E+04</totfact>
</mgrwt>
</event>
<event>
 5    1  0.1336420E-049  0.1249980E+03  0.7818608E-02  0.1235072E+00
         -1   -1    0    0    0  501 -0.00000000000E+00  0.00000000000E+00  0.14290863607E+02  0.14290864370E+02  0.46700000000E-02 0.  1.
          1   -1    0    0  501    0  0.00000000000E+00 -0.00000000000E+00 -0.27333034265E+03  0.27333034269E+03  0.46700000000E-02 0. -1.
         25    2    1    2    0    0  0.00000000000E+00  0.00000000000E+00 -0.25903947904E+03  0.28762120706E+03  0.12499802817E+03 0.  0.
        -13    1    3    3    0    0 -0.58167385570E+02  0.14362034906E+02 -0.88590101802E+02  0.10694825899E+03  0.10570000000E+00 0.  1.
         13    1    3    3    0    0  0.58167385570E+02 -0.14362034906E+02 -0.17044937724E+03  0.18067294807E+03  0.10570000000E+00 0. -1.
<mgrwt>
<rscale>  0 0.12499803E+03</rscale>
<asrwt>0</asrwt>
<pdfrwt beam="2">  1        1 0.42050818E-01 0.12499803E+03</pdfrwt>
<pdfrwt beam="1">  1       -1 0.21985947E-02 0.12499803E+03</pdfrwt>
<totfact> 0.53443369E+04</totfact>
</mgrwt>
</event>
<event>
 5    1  0.1336420E-049  0.1249934E+03  0.7818608E-02  0.1235080E+00
         -1   -1    0    0    0  501 -0.00000000000E+00  0.00000000000E+00  0.21117998078E+02  0.21117998594E+02  0.46700000000E-02 0.  1.
          1   -1    0    0  501    0  0.00000000000E+00 -0.00000000000E+00 -0.18495297152E+03  0.18495297157E+03  0.46700000000E-02 0. -1.
         25    2    1    2    0    0  0.00000000000E+00  0.00000000000E+00 -0.16383497344E+03  0.20607097017E+03  0.12499338472E+03 0.  0.
        -13    1    3    3    0    0  0.36180209990E+02 -0.50936843771E+02 -0.79441354287E+02  0.10106685704E+03  0.10570000000E+00 0.  1.
         13    1    3    3    0    0 -0.36180209990E+02  0.50936843771E+02 -0.84393619151E+02  0.10500411313E+03  0.10570000000E+00 0. -1.
<mgrwt>
<rscale>  0 0.12499338E+03</rscale>
<asrwt>0</asrwt>
<pdfrwt beam="2">  1        1 0.28454302E-01 0.12499338E+03</pdfrwt>
<pdfrwt beam="1">  1       -1 0.32489230E-02 0.12499338E+03</pdfrwt>
<totfact> 0.49188113E+04</totfact>
</mgrwt>
</event>
<event>
 5    1  0.1336420E-049  0.1250002E+03  0.7818608E-02  0.1235069E+00
          1   -1    0    0  501    0  0.00000000000E+00  0.00000000000E+00  0.91169901662E+02  0.91169901782E+02  0.46700000000E-02 0. -1.
         -1   -1    0    0    0  501 -0.00000000000E+00 -0.00000000000E+00 -0.42845977549E+02  0.42845977803E+02  0.46700000000E-02 0.  1.
         25    2    1    2    0    0  0.00000000000E+00  0.00000000000E+00  0.48323924114E+02  0.13401587958E+03  0.12500021736E+03 0.  0.
        -13    1    3    3    0    0 -0.49877600556E+02  0.35630672457E+02  0.37245955369E+02  0.71725812793E+02  0.10570000000E+00 0.  1.
         13    1    3    3    0    0  0.49877600556E+02 -0.35630672457E+02  0.11077968745E+02  0.62290066792E+02  0.10570000000E+00 0. -1.
<mgrwt>
<rscale>  0 0.12500022E+03</rscale>
<asrwt>0</asrwt>
<pdfrwt beam="1">  1        1 0.14026139E-01 0.12500022E+03</pdfrwt>
<pdfrwt beam="2">  1       -1 0.65916890E-02 0.12500022E+03</pdfrwt>
<totfact> 0.42574380E+04</totfact>
</mgrwt>
</event>
<event>
 5    1  0.1336420E-049  0.1250061E+03  0.7818608E-02  0.1235060E+00
         -1   -1    0    0    0  501 -0.00000000000E+00  0.00000000000E+00  0.22978217217E+02  0.22978217691E+02  0.46700000000E-02 0.  1.
          1   -1    0    0  501    0  0.00000000000E+00 -0.00000000000E+00 -0.17001459784E+03  0.17001459790E+03  0.46700000000E-02 0. -1.
         25    2    1    2    0    0  0.00000000000E+00  0.00000000000E+00 -0.14703638062E+03  0.19299281559E+03  0.12500611843E+03 0.  0.
        -13    1    3    3    0    0 -0.47873951876E+02  0.19731664263E+02 -0.19474744439E+02  0.55322063286E+02  0.10570000000E+00 0.  1.
         13    1    3    3    0    0  0.47873951876E+02 -0.19731664263E+02 -0.12756163618E+03  0.13767075231E+03  0.10570000000E+00 0. -1.
<mgrwt>
<rscale>  0 0.12500612E+03</rscale>
<asrwt>0</asrwt>
<pdfrwt beam="2">  1        1 0.26156091E-01 0.12500612E+03</pdfrwt>
<pdfrwt beam="1">  1       -1 0.35351105E-02 0.12500612E+03</pdfrwt>
<totfact> 0.48304975E+04</totfact>
</mgrwt>
</event>
<event>
 5    1  0.1336420E-049  0.1250004E+03  0.7818608E-02  0.1235069E+00
         -1   -1    0    0    0  501 -0.00000000000E+00  0.00000000000E+00  0.55958573837E+02  0.55958574032E+02  0.46700000000E-02 0.  1.
          1   -1    0    0  501    0  0.00000000000E+00 -0.00000000000E+00 -0.69806517529E+02  0.69806517685E+02  0.46700000000E-02 0. -1.
         25    2    1    2    0    0  0.00000000000E+00  0.00000000000E+00 -0.13847943692E+02  0.12576509172E+03  0.12500037100E+03 0.  0.
        -13    1    3    3    0    0 -0.13713988909E+02 -0.59094923724E+02  0.82005754162E+01  0.61217188039E+02  0.10570000000E+00 0.  1.
         13    1    3    3    0    0  0.13713988909E+02  0.59094923724E+02 -0.22048519108E+02  0.64547903677E+02  0.10570000000E+00 0. -1.
<mgrwt>
<rscale>  0 0.12500037E+03</rscale>
<asrwt>0</asrwt>
<pdfrwt beam="2">  1        1 0.10739464E-01 0.12500037E+03</pdfrwt>
<pdfrwt beam="1">  1       -1 0.86090114E-02 0.12500037E+03</pdfrwt>
<totfact> 0.40424663E+04</totfact>
</mgrwt>
</event>
<event>
 5    1  0.1336420E-049  0.1250030E+03  0.7818608E-02  0.1235065E+00
          1   -1    0    0  501    0  0.00000000000E+00  0.00000000000E+00  0.26054167729E+02  0.26054168148E+02  0.46700000000E-02 0. -1.
         -1   -1    0    0    0  501 -0.00000000000E+00 -0.00000000000E+00 -0.14993511790E+03  0.14993511798E+03  0.46700000000E-02 0.  1.
         25    2    1    2    0    0  0.00000000000E+00  0.00000000000E+00 -0.12388095017E+03  0.17598928612E+03  0.12500295602E+03 0.  0.
        -13    1    3    3    0    0 -0.45681899143E+02  0.40483114319E+02 -0.80866141621E+02  0.10131664467E+03  0.10570000000E+00 0.  1.
         13    1    3    3    0    0  0.45681899143E+02 -0.40483114319E+02 -0.43014808553E+02  0.74672641453E+02  0.10570000000E+00 0. -1.
<mgrwt>
<rscale>  0 0.12500296E+03</rscale>
<asrwt>0</asrwt>
<pdfrwt beam="1">  1        1 0.40083336E-02 0.12500296E+03</pdfrwt>
<pdfrwt beam="2">  1       -1 0.23066941E-01 0.12500296E+03</pdfrwt>
<totfact> 0.32796705E+04</totfact>
</mgrwt>
</event>
<event>
 5    1  0.1336420E-049  0.1249994E+03  0.7818608E-02  0.1235070E+00
         -1   -1    0    0    0  501 -0.00000000000E+00  0.00000000000E+00  0.13215228284E+02  0.13215229109E+02  0.46700000000E-02 0.  1.
          1   -1    0    0  501    0  0.00000000000E+00 -0.00000000000E+00 -0.29558415377E+03  0.29558415381E+03  0.46700000000E-02 0. -1.
         25    2    1    2    0    0  0.00000000000E+00  0.00000000000E+00 -0.28236892549E+03  0.30879938292E+03  0.12499939523E+03 0.  0.
        -13    1    3    3    0    0  0.10699333740E+01 -0.55575416084E+02 -0.70596958066E+02  0.89853844053E+02  0.10570000000E+00 0.  1.
         13    1    3    3    0    0 -0.10699333740E+01  0.55575416084E+02 -0.21177196742E+03  0.21894553886E+03  0.10570000000E+00 0. -1.
<mgrwt>
<rscale>  0 0.12499940E+03</rscale>
<asrwt>0</asrwt>
<pdfrwt beam="2">  1        1 0.45474480E-01 0.12499940E+03</pdfrwt>
<pdfrwt beam="1">  1       -1 0.20331123E-02 0.12499940E+03</pdfrwt>
<totfact> 0.54319821E+04</totfact>
</mgrwt>
</event>
<event>
 5    1  0.1336420E-049  0.1250012E+03  0.7818608E-02  0.1235067E+00
          1   -1    0    0  501    0  0.00000000000E+00  0.00000000000E+00  0.17087233037E+03  0.17087233044E+03  0.46700000000E-02 0. -1.
         -1   -1    0    0    0  501 -0.00000000000E+00 -0.00000000000E+00 -0.22861079693E+02  0.22861080170E+02  0.46700000000E-02 0.  1.
         25    2    1    2    0    0  0.00000000000E+00  0.00000000000E+00  0.14801125068E+03  0.19373341061E+03  0.12500121622E+03 0.  0.
        -13    1    3    3    0    0 -0.38326588555E+02 -0.37427888137E+02  0.12390366145E+03  0.13498852801E+03  0.10570000000E+00 0. -1.
         13    1    3    3    0    0  0.38326588555E+02  0.37427888137E+02  0.24107589232E+02  0.58744882600E+02  0.10570000000E+00 0.  1.
<mgrwt>
<rscale>  0 0.12500122E+03</rscale>
<asrwt>0</asrwt>
<pdfrwt beam="1">  1        1 0.26288051E-01 0.12500122E+03</pdfrwt>
<pdfrwt beam="2">  1       -1 0.35170892E-02 0.12500122E+03</pdfrwt>
<totfact> 0.48361465E+04</totfact>
</mgrwt>
</event>
<event>
 5    1  0.1336420E-049  0.1249985E+03  0.7818608E-02  0.1235072E+00
         -1   -1    0    0    0  501 -0.00000000000E+00  0.00000000000E+00  0.10160498538E+02  0.10160499612E+02  0.46700000000E-02 0.  1.
          1   -1    0    0  501    0  0.00000000000E+00 -0.00000000000E+00 -0.38444545438E+03  0.38444545441E+03  0.46700000000E-02 0. -1.
         25    2    1    2    0    0  0.00000000000E+00  0.00000000000E+00 -0.37428495584E+03  0.39460595402E+03  0.12499852311E+03 0.  0.
        -13    1    3    3    0    0 -0.48002064675E+02 -0.36049709061E+02 -0.24203659367E+03  0.24937021391E+03  0.10570000000E+00 0. -1.
         13    1    3    3    0    0  0.48002064675E+02  0.36049709061E+02 -0.13224836217E+03  0.14523574011E+03  0.10570000000E+00 0.  1.
<mgrwt>
<rscale>  0 0.12499852E+03</rscale>
<asrwt>0</asrwt>
<pdfrwt beam="2">  1        1 0.59145443E-01 0.12499852E+03</pdfrwt>
<pdfrwt beam="1">  1       -1 0.15631540E-02 0.12499852E+03</pdfrwt>
<totfact> 0.57169350E+04</totfact>
</mgrwt>
</event>
<event>
 5    1  0.1336420E-049  0.1249838E+03  0.7818608E-02  0.1235095E+00
         -1   -1    0    0    0  501 -0.00000000000E+00  0.00000000000E+00  0.28076506988E+02  0.28076507376E+02  0.46700000000E-02 0.  1.
          1   -1    0    0  501    0  0.00000000000E+00 -0.00000000000E+00 -0.13909277173E+03  0.13909277181E+03  0.46700000000E-02 0. -1.
         25    2    1    2    0    0  0.00000000000E+00  0.00000000000E+00 -0.11101626474E+03  0.16716927918E+03  0.12498382642E+03 0.  0.
        -13    1    3    3    0    0  0.42971085089E+02  0.73477711822E+01  0.43785099676E+01  0.43814226195E+02  0.10570000000E+00 0.  1.
         13    1    3    3    0    0 -0.42971085089E+02 -0.73477711822E+01 -0.11539477471E+03  0.12335505299E+03  0.10570000000E+00 0. -1.
<mgrwt>
<rscale>  0 0.12498383E+03</rscale>
<asrwt>0</asrwt>
<pdfrwt beam="2">  1        1 0.21398888E-01 0.12498383E+03</pdfrwt>
<pdfrwt beam="1">  1       -1 0.43194627E-02 0.12498383E+03</pdfrwt>
<totfact> 0.46350824E+04</totfact>
</mgrwt>
</event>
<event>
 5    1  0.1336420E-049  0.1250016E+03  0.7818608E-02  0.1235067E+00
         -1   -1    0    0    0  501 -0.00000000000E+00  0.00000000000E+00  0.13835438838E+02  0.13835439626E+02  0.46700000000E-02 0.  1.
          1   -1    0    0  501    0  0.00000000000E+00 -0.00000000000E+00 -0.28234395677E+03  0.28234395681E+03  0.46700000000E-02 0. -1.
         25    2    1    2    0    0  0.00000000000E+00  0.00000000000E+00 -0.26850851793E+03  0.29617939643E+03  0.12500164267E+03 0.  0.
        -13    1    3    3    0    0 -0.55816938716E+02 -0.24197877421E+02 -0.10030692700E+03  0.11731393223E+03  0.10570000000E+00 0.  1.
         13    1    3    3    0    0  0.55816938716E+02  0.24197877421E+02 -0.16820159093E+03  0.17886546420E+03  0.10570000000E+00 0. -1.
<mgrwt>
<rscale>  0 0.12500164E+03</rscale>
<asrwt>0</asrwt>
<pdfrwt beam="2">  1        1 0.43437527E-01 0.12500164E+03</pdfrwt>
<pdfrwt beam="1">  1       -1 0.21285293E-02 0.12500164E+03</pdfrwt>
<totfact> 0.53803414E+04</totfact>
</mgrwt>
</event>
<event>
 5    1  0.1336420E-049  0.1249980E+03  0.7818608E-02  0.1235072E+00
          1   -1    0    0  501    0  0.00000000000E+00  0.00000000000E+00  0.34150355621E+03  0.34150355624E+03  0.46700000000E-02 0. -1.
         -1   -1    0    0    0  501 -0.00000000000E+00 -0.00000000000E+00 -0.11438028953E+02  0.11438029906E+02  0.46700000000E-02 0.  1.
         25    2    1    2    0    0  0.00000000000E+00  0.00000000000E+00  0.33006552725E+03  0.35294158614E+03  0.12499804378E+03 0.  0.
        -13    1    3    3    0    0  0.23015086067E+02  0.48980330555E+02  0.25330509274E+03  0.25902171366E+03  0.10570000000E+00 0. -1.
         13    1    3    3    0    0 -0.23015086067E+02 -0.48980330555E+02  0.76760434517E+02  0.93919872486E+02  0.10570000000E+00 0.  1.
<mgrwt>
<rscale>  0 0.12499804E+03</rscale>
<asrwt>0</asrwt>
<pdfrwt beam="1">  1        1 0.52539004E-01 0.12499804E+03</pdfrwt>
<pdfrwt beam="2">  1       -1 0.17596970E-02 0.12499804E+03</pdfrwt>
<totfact> 0.55915600E+04</totfact>
</mgrwt>
</event>
<event>
 5    1  0.1336420E-049  0.1250002E+03  0.7818608E-02  0.1235069E+00
          1   -1    0    0  501    0  0.00000000000E+00  0.00000000000E+00  0.91566453879E+02  0.91566453998E+02  0.46700000000E-02 0. -1.
         -1   -1    0    0    0  501 -0.00000000000E+00 -0.00000000000E+00 -0.42660392495E+02  0.42660392750E+02  0.46700000000E-02 0.  1.
         25    2    1    2    0    0  0.00000000000E+00  0.00000000000E+00  0.48906061385E+02  0.13422684675E+03  0.12500017419E+03 0.  0.
        -13    1    3    3    0    0  0.54877230833E+02  0.17979934267E+02  0.50122810865E+02  0.76466305270E+02  0.10570000000E+00 0.  1.
         13    1    3    3    0    0 -0.54877230833E+02 -0.17979934267E+02 -0.12167494805E+01  0.57760541479E+02  0.10570000000E+00 0. -1.
<mgrwt>
<rscale>  0 0.12500017E+03</rscale>
<asrwt>0</asrwt>
<pdfrwt beam="1">  1        1 0.14087147E-01 0.12500017E+03</pdfrwt>
<pdfrwt beam="2">  1       -1 0.65631374E-02 0.12500017E+03</pdfrwt>
<totfact> 0.42610603E+04</totfact>
</mgrwt>
</event>
<event>
 5    1  0.1336420E-049  0.1249990E+03  0.7818608E-02  0.1235071E+00
         -1   -1    0    0    0  501 -0.00000000000E+00  0.00000000000E+00  0.10192576289E+03  0.10192576299E+03  0.46700000000E-02 0.  1.
          1   -1    0    0  501    0  0.00000000000E+00 -0.00000000000E+00 -0.38323821675E+02  0.38323821959E+02  0.46700000000E-02 0. -1.
         25    2    1    2    0    0  0.00000000000E+00  0.00000000000E+00  0.63601941211E+02  0.14024958495E+03  0.12499895661E+03 0.  0.
        -13    1    3    3    0    0 -0.53592085669E+02 -0.27941938895E+02  0.49658500330E+02  0.78223023612E+02  0.10570000000E+00 0.  1.
         13    1    3    3    0    0  0.53592085669E+02  0.27941938895E+02  0.13943440881E+02  0.62026561340E+02  0.10570000000E+00 0. -1.
<mgrwt>
<rscale>  0 0.12499896E+03</rscale>
<asrwt>0</asrwt>
<pdfrwt beam="2">  1        1 0.58959727E-02 0.12499896E+03</pdfrwt>
<pdfrwt beam="1">  1       -1 0.15680886E-01 0.12499896E+03</pdfrwt>
<totfact> 0.35855800E+04</totfact>
</mgrwt>
</event>
<event>
 5    1  0.1336420E-049  0.1250003E+03  0.7818608E-02  0.1235069E+00
          1   -1    0    0  501    0  0.00000000000E+00  0.00000000000E+00  0.22838322747E+02  0.22838323225E+02  0.46700000000E-02 0.  1.
         -1   -1    0    0    0  501 -0.00000000000E+00 -0.00000000000E+00 -0.17103996415E+03  0.17103996421E+03  0.46700000000E-02 0. -1.
         25    2    1    2    0    0  0.00000000000E+00  0.00000000000E+00 -0.14820164140E+03  0.19387828743E+03  0.12500025530E+03 0.  0.
        -13    1    3    3    0    0  0.98265964368E+01 -0.61452686733E+02 -0.83045811883E+02  0.10377674474E+03  0.10570000000E+00 0. -1.
         13    1    3    3    0    0 -0.98265964368E+01  0.61452686733E+02 -0.65155829515E+02  0.90101542698E+02  0.10570000000E+00 0.  1.
<mgrwt>
<rscale>  0 0.12500026E+03</rscale>
<asrwt>0</asrwt>
<pdfrwt beam="1">  1        1 0.35135883E-02 0.12500026E+03</pdfrwt>
<pdfrwt beam="2">  1       -1 0.26313840E-01 0.12500026E+03</pdfrwt>
<totfact> 0.31687969E+04</totfact>
</mgrwt>
</event>
<event>
 5    1  0.1336420E-049  0.1249976E+03  0.7818608E-02  0.1235073E+00
         -1   -1    0    0    0  501 -0.00000000000E+00  0.00000000000E+00  0.20964845587E+02  0.20964846107E+02  0.46700000000E-02 0.  1.
          1   -1    0    0  501    0  0.00000000000E+00 -0.00000000000E+00 -0.18631670777E+03  0.18631670783E+03  0.46700000000E-02 0. -1.
         25    2    1    2    0    0  0.00000000000E+00  0.00000000000E+00 -0.16535186218E+03  0.20728155393E+03  0.12499761707E+03 0.  0.
        -13    1    3    3    0    0 -0.48335813650E+02 -0.29558407088E+02 -0.38926149248E+02  0.68740865419E+02  0.10570000000E+00 0.  1.
         13    1    3    3    0    0  0.48335813650E+02  0.29558407088E+02 -0.12642571293E+03  0.13854068851E+03  0.10570000000E+00 0. -1.
<mgrwt>
<rscale>  0 0.12499762E+03</rscale>
<asrwt>0</asrwt>
<pdfrwt beam="2">  1        1 0.28664108E-01 0.12499762E+03</pdfrwt>
<pdfrwt beam="1">  1       -1 0.32253610E-02 0.12499762E+03</pdfrwt>
<totfact> 0.49260480E+04</totfact>
</mgrwt>
</event>
<event>
 5    1  0.1336420E-049  0.1249999E+03  0.7818608E-02  0.1235069E+00
         -1   -1    0    0    0  501 -0.00000000000E+00  0.00000000000E+00  0.85520001149E+01  0.85520013900E+01  0.46700000000E-02 0.  1.
          1   -1    0    0  501    0  0.00000000000E+00 -0.00000000000E+00 -0.45676360618E+03  0.45676360621E+03  0.46700000000E-02 0. -1.
         25    2    1    2    0    0  0.00000000000E+00  0.00000000000E+00 -0.44821160607E+03  0.46531560760E+03  0.12499988344E+03 0.  0.
        -13    1    3    3    0    0 -0.29434895086E+02  0.48025917187E+02 -0.12329950405E+03  0.13555692768E+03  0.10570000000E+00 0.  1.
         13    1    3    3    0    0  0.29434895086E+02 -0.48025917187E+02 -0.32491210202E+03  0.32975867992E+03  0.10570000000E+00 0. -1.
<mgrwt>
<rscale>  0 0.12499988E+03</rscale>
<asrwt>0</asrwt>
<pdfrwt beam="2">  1        1 0.70271305E-01 0.12499988E+03</pdfrwt>
<pdfrwt beam="1">  1       -1 0.13156928E-02 0.12499988E+03</pdfrwt>
<totfact> 0.58827032E+04</totfact>
</mgrwt>
</event>
<event>
 5    1  0.1336420E-049  0.1249980E+03  0.7818608E-02  0.1235072E+00
          1   -1    0    0  501    0  0.00000000000E+00  0.00000000000E+00  0.50806542186E+02  0.50806542401E+02  0.46700000000E-02 0. -1.
         -1   -1    0    0    0  501 -0.00000000000E+00 -0.00000000000E+00 -0.76882320309E+02  0.76882320451E+02  0.46700000000E-02 0.  1.
         25    2    1    2    0    0  0.00000000000E+00  0.00000000000E+00 -0.26075778122E+02  0.12768886285E+03  0.12499799795E+03 0.  0.
        -13    1    3    3    0    0 -0.43976920728E+02 -0.37326911541E+02 -0.37615032967E+02  0.68863413795E+02  0.10570000000E+00 0.  1.
         13    1    3    3    0    0  0.43976920728E+02  0.37326911541E+02  0.11539254844E+02  0.58825449057E+02  0.10570000000E+00 0. -1.
<mgrwt>
<rscale>  0 0.12499800E+03</rscale>
<asrwt>0</asrwt>
<pdfrwt beam="1">  1        1 0.78163911E-02 0.12499800E+03</pdfrwt>
<pdfrwt beam="2">  1       -1 0.11828049E-01 0.12499800E+03</pdfrwt>
<totfact> 0.37994087E+04</totfact>
</mgrwt>
</event>
<event>
 5    1  0.1336420E-049  0.1250007E+03  0.7818608E-02  0.1235068E+00
         -1   -1    0    0    0  501 -0.00000000000E+00  0.00000000000E+00  0.27003962135E+02  0.27003962539E+02  0.46700000000E-02 0.  1.
          1   -1    0    0  501    0  0.00000000000E+00 -0.00000000000E+00 -0.14465642601E+03  0.14465642608E+03  0.46700000000E-02 0. -1.
         25    2    1    2    0    0  0.00000000000E+00  0.00000000000E+00 -0.11765246387E+03  0.17166038862E+03  0.12500074706E+03 0.  0.
        -13    1    3    3    0    0  0.25209135835E+01 -0.30251620810E+02  0.16199961910E+02  0.34408799824E+02  0.10570000000E+00 0.  1.
         13    1    3    3    0    0 -0.25209135835E+01  0.30251620810E+02 -0.13385242578E+03  0.13725158880E+03  0.10570000000E+00 0. -1.
<mgrwt>
<rscale>  0 0.12500075E+03</rscale>
<asrwt>0</asrwt>
<pdfrwt beam="2">  1        1 0.22254834E-01 0.12500075E+03</pdfrwt>
<pdfrwt beam="1">  1       -1 0.41544558E-02 0.12500075E+03</pdfrwt>
<totfact> 0.46709761E+04</totfact>
</mgrwt>
</event>
<event>
 4    1  0.1336420E-049  0.1249475E+03  0.7818608E-02  0.1235151E+00
          1   -1    0    0  501    0  0.00000000000E+00  0.00000000000E+00  0.15209245577E+03  0.15209245584E+03  0.46700000000E-02 0. -1.
         -1   -1    0    0    0  501 -0.00000000000E+00 -0.00000000000E+00 -0.25661840299E+02  0.25661840724E+02  0.46700000000E-02 0.  1.
        -13    1    1    2    0    0  0.35432243782E+02 -0.51397578756E+02  0.66643282822E+02  0.91315350950E+02  0.10570000000E+00 0.  1.
         13    1    1    2    0    0 -0.35432243782E+02  0.51397578756E+02  0.59787332652E+02  0.86438945618E+02  0.10570000000E+00 0. -1.
<mgrwt>
<rscale>  0 0.12494755E+03</rscale>
<asrwt>0</asrwt>
<pdfrwt beam="1">  1        1 0.23398839E-01 0.12494755E+03</pdfrwt>
<pdfrwt beam="2">  1       -1 0.39479755E-02 0.12494755E+03</pdfrwt>
<totfact> 0.47254220E+04</totfact>
</mgrwt>
</event>
<event>
 5    1  0.1336420E-049  0.1249960E+03  0.7818608E-02  0.1235076E+00
         -1   -1    0    0    0  501 -0.00000000000E+00  0.00000000000E+00  0.18120854495E+02  0.18120855097E+02  0.46700000000E-02 0.  1.
          1   -1    0    0  501    0  0.00000000000E+00 -0.00000000000E+00 -0.21555272560E+03  0.21555272565E+03  0.46700000000E-02 0. -1.
         25    2    1    2    0    0  0.00000000000E+00  0.00000000000E+00 -0.19743187110E+03  0.23367358075E+03  0.12499599438E+03 0.  0.
        -13    1    3    3    0    0 -0.44118661398E+02  0.33377679291E+02 -0.44358275968E+02  0.70909756576E+02  0.10570000000E+00 0.  1.
         13    1    3    3    0    0  0.44118661398E+02 -0.33377679291E+02 -0.15307359514E+03  0.16276382417E+03  0.10570000000E+00 0. -1.
<mgrwt>
<rscale>  0 0.12499599E+03</rscale>
<asrwt>0</asrwt>
<pdfrwt beam="2">  1        1 0.33161956E-01 0.12499599E+03</pdfrwt>
<pdfrwt beam="1">  1       -1 0.27878240E-02 0.12499599E+03</pdfrwt>
<totfact> 0.50819408E+04</totfact>
</mgrwt>
</event>
<event>
 5    1  0.1336420E-049  0.1249997E+03  0.7818608E-02  0.1235070E+00
          1   -1    0    0  501    0  0.00000000000E+00  0.00000000000E+00  0.15409452369E+03  0.15409452376E+03  0.46700000000E-02 0. -1.
         -1   -1    0    0    0  501 -0.00000000000E+00 -0.00000000000E+00 -0.25349573868E+02  0.25349574298E+02  0.46700000000E-02 0.  1.
         25    2    1    2    0    0  0.00000000000E+00  0.00000000000E+00  0.12874494982E+03  0.17944409806E+03  0.12499968889E+03 0.  0.
        -13    1    3    3    0    0 -0.42708158095E+01 -0.61169136358E+02  0.47007803819E+02  0.77263496574E+02  0.10570000000E+00 0.  1.
         13    1    3    3    0    0  0.42708158095E+01  0.61169136358E+02  0.81737146000E+02  0.10218060148E+03  0.10570000000E+00 0. -1.
<mgrwt>
<rscale>  0 0.12499969E+03</rscale>
<asrwt>0</asrwt>
<pdfrwt beam="1">  1        1 0.23706850E-01 0.12499969E+03</pdfrwt>
<pdfrwt beam="2">  1       -1 0.38999345E-02 0.12499969E+03</pdfrwt>
<totfact> 0.47327585E+04</totfact>
</mgrwt>
</event>
<event>
 5    1  0.1336420E-049  0.1249804E+03  0.7818608E-02  0.1235100E+00
          1   -1    0    0  501    0  0.00000000000E+00  0.00000000000E+00  0.11271064690E+03  0.11271064700E+03  0.46700000000E-02 0. -1.
         -1   -1    0    0    0  501 -0.00000000000E+00 -0.00000000000E+00 -0.34646482699E+02  0.34646483014E+02  0.46700000000E-02 0.  1.
         25    2    1    2    0    0  0.00000000000E+00  0.00000000000E+00  0.78064164205E+02  0.14735713001E+03  0.12498043860E+03 0.  0.
        -13    1    3    3    0    0 -0.20321923748E+02  0.56671180771E+02  0.58775766404E+02  0.84138012834E+02  0.10570000000E+00 0.  1.
         13    1    3    3    0    0  0.20321923748E+02 -0.56671180771E+02  0.19288397801E+02  0.63219117180E+02  0.10570000000E+00 0. -1.
<mgrwt>
<rscale>  0 0.12498044E+03</rscale>
<asrwt>0</asrwt>
<pdfrwt beam="1">  1        1 0.17340099E-01 0.12498044E+03</pdfrwt>
<pdfrwt beam="2">  1       -1 0.53302282E-02 0.12498044E+03</pdfrwt>
<totfact> 0.44416706E+04</totfact>
</mgrwt>
</event>
<event>
 5    1  0.1336420E-049  0.1249849E+03  0.7818608E-02  0.1235093E+00
         -1   -1    0    0    0  501 -0.00000000000E+00  0.00000000000E+00  0.69017022369E+01  0.69017038169E+01  0.46700000000E-02 0.  1.
          1   -1    0    0  501    0  0.00000000000E+00 -0.00000000000E+00 -0.56584633793E+03  0.56584633795E+03  0.46700000000E-02 0. -1.
         25    2    1    2    0    0  0.00000000000E+00  0.00000000000E+00 -0.55894463570E+03  0.57274804177E+03  0.12498485339E+03 0.  0.
        -13    1    3    3    0    0 -0.61905775126E+02  0.50394429537E+01 -0.24786566723E+03  0.25552910038E+03  0.10570000000E+00 0.  1.
         13    1    3    3    0    0  0.61905775126E+02 -0.50394429537E+01 -0.31107896847E+03  0.31721894139E+03  0.10570000000E+00 0. -1.
<mgrwt>
<rscale>  0 0.12498485E+03</rscale>
<asrwt>0</asrwt>
<pdfrwt beam="2">  1        1 0.87053246E-01 0.12498485E+03</pdfrwt>
<pdfrwt beam="1">  1       -1 0.10618009E-02 0.12498485E+03</pdfrwt>
<totfact> 0.60385631E+04</totfact>
</mgrwt>
</event>
<event>
 5    1  0.1336420E-049  0.1249973E+03  0.7818608E-02  0.1235074E+00
         -1   -1    0    0    0  501 -0.00000000000E+00  0.00000000000E+00  0.72009419197E+02  0.72009419348E+02  0.46700000000E-02 0.  1.
          1   -1    0    0  501    0  0.00000000000E+00 -0.00000000000E+00 -0.54244007821E+02  0.54244008022E+02  0.46700000000E-02 0. -1.
         25    2    1    2    0    0  0.00000000000E+00  0.00000000000E+00  0.17765411376E+02  0.12625342737E+03  0.12499727229E+03 0.  0.
        -13    1    3    3    0    0  0.27590615062E+02 -0.48720181001E+02 -0.19166320012E+02  0.59179870493E+02  0.10570000000E+00 0.  1.
         13    1    3    3    0    0 -0.27590615062E+02  0.48720181001E+02  0.36931731388E+02  0.67073556877E+02  0.10570000000E+00 0. -1.
<mgrwt>
<rscale>  0 0.12499727E+03</rscale>
<asrwt>0</asrwt>
<pdfrwt beam="2">  1        1 0.83452320E-02 0.12499727E+03</pdfrwt>
<pdfrwt beam="1">  1       -1 0.11078372E-01 0.12499727E+03</pdfrwt>
<totfact> 0.38490070E+04</totfact>
</mgrwt>
</event>
<event>
 5    1  0.1336420E-049  0.1249894E+03  0.7818608E-02  0.1235086E+00
         -1   -1    0    0    0  501 -0.00000000000E+00  0.00000000000E+00  0.15600012553E+02  0.15600013252E+02  0.46700000000E-02 0.  1.
          1   -1    0    0  501    0  0.00000000000E+00 -0.00000000000E+00 -0.25035782357E+03  0.25035782361E+03  0.46700000000E-02 0. -1.
         25    2    1    2    0    0  0.00000000000E+00  0.00000000000E+00 -0.23475781102E+03  0.26595783687E+03  0.12498936417E+03 0.  0.
        -13    1    3    3    0    0 -0.51367934500E+02  0.35545790445E+02 -0.12130603323E+03  0.13644534724E+03  0.10570000000E+00 0.  1.
         13    1    3    3    0    0  0.51367934500E+02 -0.35545790445E+02 -0.11345177779E+03  0.12951248963E+03  0.10570000000E+00 0. -1.
<mgrwt>
<rscale>  0 0.12498936E+03</rscale>
<asrwt>0</asrwt>
<pdfrwt beam="2">  1        1 0.38516585E-01 0.12498936E+03</pdfrwt>
<pdfrwt beam="1">  1       -1 0.24000022E-02 0.12498936E+03</pdfrwt>
<totfact> 0.52471237E+04</totfact>
</mgrwt>
</event>
<event>
 5    1  0.1336420E-049  0.1250002E+03  0.7818608E-02  0.1235069E+00
         -1   -1    0    0    0  501 -0.00000000000E+00  0.00000000000E+00  0.31422588081E+03  0.31422588085E+03  0.46700000000E-02 0.  1.
          1   -1    0    0  501    0  0.00000000000E+00 -0.00000000000E+00 -0.12431390947E+02  0.12431391824E+02  0.46700000000E-02 0. -1.
         25    2    1    2    0    0  0.00000000000E+00  0.00000000000E+00  0.30179448987E+03  0.32665727267E+03  0.12500023870E+03 0.  0.
        -13    1    3    3    0    0  0.56353290983E+02  0.23295445901E+02  0.11507731737E+03  0.13023506191E+03  0.10570000000E+00 0.  1.
         13    1    3    3    0    0 -0.56353290983E+02 -0.23295445901E+02  0.18671717249E+03  0.19642221076E+03  0.10570000000E+00 0. -1.
<mgrwt>
<rscale>  0 0.12500024E+03</rscale>
<asrwt>0</asrwt>
<pdfrwt beam="2">  1        1 0.19125220E-02 0.12500024E+03</pdfrwt>
<pdfrwt beam="1">  1       -1 0.48342436E-01 0.12500024E+03</pdfrwt>
<totfact> 0.25831463E+04</totfact>
</mgrwt>
</event>
<event>
 5    1  0.1336420E-049  0.1249996E+03  0.7818608E-02  0.1235070E+00
         -1   -1    0    0    0  501 -0.00000000000E+00  0.00000000000E+00  0.43276059420E+02  0.43276059672E+02  0.46700000000E-02 0.  1.
          1   -1    0    0  501    0  0.00000000000E+00 -0.00000000000E+00 -0.90262966524E+02  0.90262966645E+02  0.46700000000E-02 0. -1.
         25    2    1    2    0    0  0.00000000000E+00  0.00000000000E+00 -0.46986907104E+02  0.13353902632E+03  0.12499960844E+03 0.  0.
        -13    1    3    3    0    0 -0.36613349062E+02  0.50036514484E+02 -0.31907023159E+02  0.69729903274E+02  0.10570000000E+00 0. -1.
         13    1    3    3    0    0  0.36613349062E+02 -0.50036514484E+02 -0.15079883945E+02  0.63809123043E+02  0.10570000000E+00 0.  1.
<mgrwt>
<rscale>  0 0.12499961E+03</rscale>
<asrwt>0</asrwt>
<pdfrwt beam="2">  1        1 0.13886610E-01 0.12499961E+03</pdfrwt>
<pdfrwt beam="1">  1       -1 0.66578553E-02 0.12499961E+03</pdfrwt>
<totfact> 0.42491797E+04</totfact>
</mgrwt>
</event>
<event>
 5    1  0.1336420E-049  0.1250009E+03  0.7818608E-02  0.1235068E+00
          1   -1    0    0  501    0  0.00000000000E+00  0.00000000000E+00  0.51283261116E+03  0.51283261118E+03  0.46700000000E-02 0. -1.
         -1   -1    0    0    0  501 -0.00000000000E+00 -0.00000000000E+00 -0.76171218888E+01  0.76171233204E+01  0.46700000000E-02 0.  1.
         25    2    1    2    0    0  0.00000000000E+00  0.00000000000E+00  0.50521548927E+03  0.52044973450E+03  0.12500094217E+03 0.  0.
        -13    1    3    3    0    0  0.39685762067E+01 -0.62238180682E+02  0.26975283505E+03  0.27686809842E+03  0.10570000000E+00 0.  1.
         13    1    3    3    0    0 -0.39685762067E+01  0.62238180682E+02  0.23546265422E+03  0.24358163609E+03  0.10570000000E+00 0. -1.
<mgrwt>
<rscale>  0 0.12500094E+03</rscale>
<asrwt>0</asrwt>
<pdfrwt beam="1">  1        1 0.78897344E-01 0.12500094E+03</pdfrwt>
<pdfrwt beam="2">  1       -1 0.11718647E-02 0.12500094E+03</pdfrwt>
<totfact> 0.59750172E+04</totfact>
</mgrwt>
</event>
<event>
 5    1  0.1336420E-049  0.1250015E+03  0.7818608E-02  0.1235067E+00
         -1   -1    0    0    0  501 -0.00000000000E+00  0.00000000000E+00  0.10255707533E+02  0.10255708596E+02  0.46700000000E-02 0.  1.
          1   -1    0    0  501    0  0.00000000000E+00 -0.00000000000E+00 -0.38089434053E+03  0.38089434056E+03  0.46700000000E-02 0. -1.
         25    2    1    2    0    0  0.00000000000E+00  0.00000000000E+00 -0.37063863300E+03  0.39115004915E+03  0.12500145872E+03 0.  0.
        -13    1    3    3    0    0 -0.56336156281E+02 -0.24336623128E+02 -0.14825539493E+03  0.16045468840E+03  0.10570000000E+00 0.  1.
         13    1    3    3    0    0  0.56336156281E+02  0.24336623128E+02 -0.22238323807E+03  0.23069536076E+03  0.10570000000E+00 0. -1.
<mgrwt>
<rscale>  0 0.12500146E+03</rscale>
<asrwt>0</asrwt>
<pdfrwt beam="2">  1        1 0.58599119E-01 0.12500146E+03</pdfrwt>
<pdfrwt beam="1">  1       -1 0.15778015E-02 0.12500146E+03</pdfrwt>
<totfact> 0.57069512E+04</totfact>
</mgrwt>
</event>
<event>
 5    1  0.1336420E-049  0.1249995E+03  0.7818608E-02  0.1235070E+00
          1   -1    0    0  501    0  0.00000000000E+00  0.00000000000E+00  0.56008346003E+02  0.56008346198E+02  0.46700000000E-02 0. -1.
         -1   -1    0    0    0  501 -0.00000000000E+00 -0.00000000000E+00 -0.69743479490E+02  0.69743479646E+02  0.46700000000E-02 0.  1.
         25    2    1    2    0    0  0.00000000000E+00  0.00000000000E+00 -0.13735133486E+02  0.12575182584E+03  0.12499947124E+03 0.  0.
        -13    1    3    3    0    0  0.39605569516E+02  0.18710199070E+02 -0.51717655617E+02  0.67774624757E+02  0.10570000000E+00 0.  1.
         13    1    3    3    0    0 -0.39605569516E+02 -0.18710199070E+02  0.37982522131E+02  0.57977201087E+02  0.10570000000E+00 0. -1.
<mgrwt>
<rscale>  0 0.12499947E+03</rscale>
<asrwt>0</asrwt>
<pdfrwt beam="1">  1        1 0.86166686E-02 0.12499947E+03</pdfrwt>
<pdfrwt beam="2">  1       -1 0.10729766E-01 0.12499947E+03</pdfrwt>
<totfact> 0.38730953E+04</totfact>
</mgrwt>
</event>
<event>
 5    1  0.1336420E-049  0.1249938E+03  0.7818608E-02  0.1235079E+00
         -1   -1    0    0    0  501 -0.00000000000E+00  0.00000000000E+00  0.90379127299E+01  0.90379139364E+01  0.46700000000E-02 0.  1.
          1   -1    0    0  501    0  0.00000000000E+00 -0.00000000000E+00 -0.43216407051E+03  0.43216407053E+03  0.46700000000E-02 0. -1.
         25    2    1    2    0    0  0.00000000000E+00  0.00000000000E+00 -0.42312615778E+03  0.44120198447E+03  0.12499378266E+03 0.  0.
        -13    1    3    3    0    0  0.23420155389E+02 -0.48714311104E+02 -0.10082308160E+03  0.11439795777E+03  0.10570000000E+00 0.  1.
         13    1    3    3    0    0 -0.23420155389E+02  0.48714311104E+02 -0.32230307618E+03  0.32680402670E+03  0.10570000000E+00 0. -1.
<mgrwt>
<rscale>  0 0.12499378E+03</rscale>
<asrwt>0</asrwt>
<pdfrwt beam="2">  1        1 0.66486764E-01 0.12499378E+03</pdfrwt>
<pdfrwt beam="1">  1       -1 0.13904485E-02 0.12499378E+03</pdfrwt>
<totfact> 0.58332572E+04</totfact>
</mgrwt>
</event>
<event>
 5    1  0.1336420E-049  0.1250284E+03  0.7818608E-02  0.1235025E+00
         -1   -1    0    0    0  501 -0.00000000000E+00  0.00000000000E+00  0.35569064618E+03  0.35569064621E+03  0.46700000000E-02 0.  1.
          1   -1    0    0  501    0  0.00000000000E+00 -0.00000000000E+00 -0.10987147929E+02  0.10987148922E+02  0.46700000000E-02 0. -1.
         25    2    1    2    0    0  0.00000000000E+00  0.00000000000E+00  0.34470349825E+03  0.36667779514E+03  0.12502841172E+03 0.  0.
        -13    1    3    3    0    0 -0.24840471139E+02 -0.43571463237E+02  0.28179083617E+03  0.28621951005E+03  0.10570000000E+00 0.  1.
         13    1    3    3    0    0  0.24840471139E+02  0.43571463237E+02  0.62912662089E+02  0.80458285084E+02  0.10570000000E+00 0. -1.
<mgrwt>
<rscale>  0 0.12502841E+03</rscale>
<asrwt>0</asrwt>
<pdfrwt beam="2">  1        1 0.16903309E-02 0.12502841E+03</pdfrwt>
<pdfrwt beam="1">  1       -1 0.54721625E-01 0.12502841E+03</pdfrwt>
<totfact> 0.24447484E+04</totfact>
</mgrwt>
</event>
<event>
 5    1  0.1336420E-049  0.1250002E+03  0.7818608E-02  0.1235069E+00
         -1   -1    0    0    0  501 -0.00000000000E+00  0.00000000000E+00  0.18150526433E+03  0.18150526439E+03  0.46700000000E-02 0.  1.
          1   -1    0    0  501    0  0.00000000000E+00 -0.00000000000E+00 -0.21521483475E+02  0.21521483981E+02  0.46700000000E-02 0. -1.
         25    2    1    2    0    0  0.00000000000E+00  0.00000000000E+00  0.15998378085E+03  0.20302674837E+03  0.12500020167E+03 0.  0.
        -13    1    3    3    0    0 -0.59930641112E+02  0.95999608826E+01  0.10421445537E+03  0.12060060063E+03  0.10570000000E+00 0. -1.
         13    1    3    3    0    0  0.59930641112E+02 -0.95999608826E+01  0.55769325487E+02  0.82426147737E+02  0.10570000000E+00 0.  1.
<mgrwt>
<rscale>  0 0.12500020E+03</rscale>
<asrwt>0</asrwt>
<pdfrwt beam="2">  1        1 0.33109974E-02 0.12500020E+03</pdfrwt>
<pdfrwt beam="1">  1       -1 0.27923887E-01 0.12500020E+03</pdfrwt>
<totfact> 0.31171823E+04</totfact>
</mgrwt>
</event>
<event>
 5    1  0.1336420E-049  0.1249997E+03  0.7818608E-02  0.1235070E+00
         -1   -1    0    0    0  501 -0.00000000000E+00  0.00000000000E+00  0.57056472656E+03  0.57056472658E+03  0.46700000000E-02 0. -1.
          1   -1    0    0  501    0  0.00000000000E+00 -0.00000000000E+00 -0.68462568310E+01  0.68462584237E+01  0.46700000000E-02 0.  1.
         25    2    1    2    0    0  0.00000000000E+00  0.00000000000E+00  0.56371846973E+03  0.57741098500E+03  0.12499972995E+03 0.  0.
        -13    1    3    3    0    0 -0.56297711015E+02 -0.23570538413E+02  0.34404318619E+03  0.34941483609E+03  0.10570000000E+00 0. -1.
         13    1    3    3    0    0  0.56297711015E+02  0.23570538413E+02  0.21967528354E+03  0.22799614891E+03  0.10570000000E+00 0.  1.
<mgrwt>
<rscale>  0 0.12499973E+03</rscale>
<asrwt>0</asrwt>
<pdfrwt beam="2">  1        1 0.10532702E-02 0.12499973E+03</pdfrwt>
<pdfrwt beam="1">  1       -1 0.87779205E-01 0.12499973E+03</pdfrwt>
<totfact> 0.18662803E+04</totfact>
</mgrwt>
</event>
<event>
 5    1  0.1336420E-049  0.1249988E+03  0.7818608E-02  0.1235071E+00
         -1   -1    0    0    0  501 -0.00000000000E+00  0.00000000000E+00  0.44115394337E+03  0.44115394340E+03  0.46700000000E-02 0.  1.
          1   -1    0    0  501    0  0.00000000000E+00 -0.00000000000E+00 -0.88544548765E+01  0.88544561081E+01  0.46700000000E-02 0. -1.
         25    2    1    2    0    0  0.00000000000E+00  0.00000000000E+00  0.43229948849E+03  0.45000839950E+03  0.12499884748E+03 0.  0.
        -13    1    3    3    0    0 -0.49949303416E+02 -0.21628984023E+02  0.10557209181E+03  0.11877804344E+03  0.10570000000E+00 0. -1.
         13    1    3    3    0    0  0.49949303416E+02  0.21628984023E+02  0.32672739669E+03  0.33123035607E+03  0.10570000000E+00 0.  1.
<mgrwt>
<rscale>  0 0.12499885E+03</rscale>
<asrwt>0</asrwt>
<pdfrwt beam="2">  1        1 0.13622242E-02 0.12499885E+03</pdfrwt>
<pdfrwt beam="1">  1       -1 0.67869826E-01 0.12499885E+03</pdfrwt>
<totfact> 0.21926650E+04</totfact>
</mgrwt>
</event>
<event>
 5    1  0.1350014E-049  0.1249854E+03  0.7818608E-02  0.1235092E+00
          1   -1    0    0  501    0  0.00000000000E+00  0.00000000000E+00  0.57701531822E+03  0.57701531824E+03  0.46700000000E-02 0. -1.
         -1   -1    0    0    0  501 -0.00000000000E+00 -0.00000000000E+00 -0.67681667311E+01  0.67681683422E+01  0.46700000000E-02 0.  1.
         25    2    1    2    0    0  0.00000000000E+00  0.00000000000E+00  0.57024715149E+03  0.58378348658E+03  0.12498538084E+03 0.  0.
        -13    1    3    3    0    0  0.61860978066E+02  0.62264041645E+01  0.25566541061E+03  0.26311663207E+03  0.10570000000E+00 0.  1.
         13    1    3    3    0    0 -0.61860978066E+02 -0.62264041645E+01  0.31458174087E+03  0.32066685451E+03  0.10570000000E+00 0. -1.
<mgrwt>
<rscale>  0 0.12498538E+03</rscale>
<asrwt>0</asrwt>
<pdfrwt beam="1">  1        1 0.88771600E-01 0.12498538E+03</pdfrwt>
<pdfrwt beam="2">  1       -1 0.10412564E-02 0.12498538E+03</pdfrwt>
<totfact> 0.60484407E+04</totfact>
</mgrwt>
</event>
<event>
 5    1  0.1336420E-049  0.1250010E+03  0.7818608E-02  0.1235068E+00
         -1   -1    0    0    0  501 -0.00000000000E+00  0.00000000000E+00  0.92030331732E+01  0.92030343581E+01  0.46700000000E-02 0.  1.
          1   -1    0    0  501    0  0.00000000000E+00 -0.00000000000E+00 -0.42445943607E+03  0.42445943609E+03  0.46700000000E-02 0. -1.
         25    2    1    2    0    0  0.00000000000E+00  0.00000000000E+00 -0.41525640289E+03  0.43366247045E+03  0.12500103253E+03 0.  0.
        -13    1    3    3    0    0  0.81316325803E+01  0.61794627610E+02 -0.19150302675E+03  0.20139046620E+03  0.10570000000E+00 0.  1.
         13    1    3    3    0    0 -0.81316325803E+01 -0.61794627610E+02 -0.22375337615E+03  0.23227200425E+03  0.10570000000E+00 0. -1.
<mgrwt>
<rscale>  0 0.12500103E+03</rscale>
<asrwt>0</asrwt>
<pdfrwt beam="2">  1        1 0.65301437E-01 0.12500103E+03</pdfrwt>
<pdfrwt beam="1">  1       -1 0.14158517E-02 0.12500103E+03</pdfrwt>
<totfact> 0.58153051E+04</totfact>
</mgrwt>
</event>
<event>
 5    1  0.1336420E-049  0.1249985E+03  0.7818608E-02  0.1235072E+00
          1   -1    0    0  501    0  0.00000000000E+00  0.00000000000E+00  0.33665834669E+02  0.33665834993E+02  0.46700000000E-02 0. -1.
         -1   -1    0    0    0  501 -0.00000000000E+00 -0.00000000000E+00 -0.11602728056E+03  0.11602728065E+03  0.46700000000E-02 0.  1.
         25    2    1    2    0    0  0.00000000000E+00  0.00000000000E+00 -0.82361445888E+02  0.14969311564E+03  0.12499848440E+03 0.  0.
        -13    1    3    3    0    0  0.48075195516E+02 -0.36079626604E+02 -0.20675503752E+02  0.63564545996E+02  0.10570000000E+00 0.  1.
         13    1    3    3    0    0 -0.48075195516E+02  0.36079626604E+02 -0.61685942135E+02  0.86128569647E+02  0.10570000000E+00 0. -1.
<mgrwt>
<rscale>  0 0.12499848E+03</rscale>
<asrwt>0</asrwt>
<pdfrwt beam="1">  1        1 0.51793593E-02 0.12499848E+03</pdfrwt>
<pdfrwt beam="2">  1       -1 0.17850351E-01 0.12499848E+03</pdfrwt>
<totfact> 0.34855757E+04</totfact>
</mgrwt>
</event>
<event>
 5    1  0.1336420E-049  0.1250035E+03  0.7818608E-02  0.1235064E+00
          1   -1    0    0  501    0  0.00000000000E+00  0.00000000000E+00  0.22728945063E+03  0.22728945068E+03  0.46700000000E-02 0. -1.
         -1   -1    0    0    0  501 -0.00000000000E+00 -0.00000000000E+00 -0.17187193340E+02  0.17187193975E+02  0.46700000000E-02 0.  1.
         25    2    1    2    0    0  0.00000000000E+00  0.00000000000E+00  0.21010225729E+03  0.24447664465E+03  0.12500348500E+03 0.  0.
        -13    1    3    3    0    0 -0.21193649728E+02  0.54466093667E+02  0.61726307472E+02  0.85005143108E+02  0.10570000000E+00 0.  1.
         13    1    3    3    0    0  0.21193649728E+02 -0.54466093667E+02  0.14837594982E+03  0.15947150154E+03  0.10570000000E+00 0. -1.
<mgrwt>
<rscale>  0 0.12500349E+03</rscale>
<asrwt>0</asrwt>
<pdfrwt beam="1">  1        1 0.34967607E-01 0.12500349E+03</pdfrwt>
<pdfrwt beam="2">  1       -1 0.26441837E-02 0.12500349E+03</pdfrwt>
<totfact> 0.51388911E+04</totfact>
</mgrwt>
</event>
<event>
 5    1  0.1336420E-049  0.1250001E+03  0.7818608E-02  0.1235069E+00
          1   -1    0    0  501    0  0.00000000000E+00  0.00000000000E+00  0.23280728873E+02  0.23280729341E+02  0.46700000000E-02 0. -1.
         -1   -1    0    0    0  501 -0.00000000000E+00 -0.00000000000E+00 -0.16778913775E+03  0.16778913782E+03  0.46700000000E-02 0.  1.
         25    2    1    2    0    0  0.00000000000E+00  0.00000000000E+00 -0.14450840888E+03  0.19106986716E+03  0.12500005560E+03 0.  0.
        -13    1    3    3    0    0  0.36892026697E+02 -0.40845498596E+02 -0.11751775203E+03  0.12976829199E+03  0.10570000000E+00 0.  1.
         13    1    3    3    0    0 -0.36892026697E+02  0.40845498596E+02 -0.26990656847E+02  0.61301575175E+02  0.10570000000E+00 0. -1.
<mgrwt>
<rscale>  0 0.12500006E+03</rscale>
<asrwt>0</asrwt>
<pdfrwt beam="1">  1        1 0.35816507E-02 0.12500006E+03</pdfrwt>
<pdfrwt beam="2">  1       -1 0.25813713E-01 0.12500006E+03</pdfrwt>
<totfact> 0.31852651E+04</totfact>
</mgrwt>
</event>
<event>
 5    1  0.1336420E-049  0.1249959E+03  0.7818608E-02  0.1235076E+00
          1   -1    0    0  501    0  0.00000000000E+00  0.00000000000E+00  0.56097536512E+02  0.56097536706E+02  0.46700000000E-02 0. -1.
         -1   -1    0    0    0  501 -0.00000000000E+00 -0.00000000000E+00 -0.69628585223E+02  0.69628585380E+02  0.46700000000E-02 0.  1.
         25    2    1    2    0    0  0.00000000000E+00  0.00000000000E+00 -0.13531048711E+02  0.12572612209E+03  0.12499587391E+03 0.  0.
        -13    1    3    3    0    0  0.25231010902E+02 -0.55575607278E+02 -0.20287609457E+02  0.64318351234E+02  0.10570000000E+00 0.  1.
         13    1    3    3    0    0 -0.25231010902E+02  0.55575607278E+02  0.67565607459E+01  0.61407770852E+02  0.10570000000E+00 0. -1.
<mgrwt>
<rscale>  0 0.12499587E+03</rscale>
<asrwt>0</asrwt>
<pdfrwt beam="1">  1        1 0.86303903E-02 0.12499587E+03</pdfrwt>
<pdfrwt beam="2">  1       -1 0.10712090E-01 0.12499587E+03</pdfrwt>
<totfact> 0.38746315E+04</totfact>
</mgrwt>
</event>
<event>
 5    1  0.1336420E-049  0.1250002E+03  0.7818608E-02  0.1235069E+00
          1   -1    0    0  501    0  0.00000000000E+00  0.00000000000E+00  0.89295286734E+02  0.89295286856E+02  0.46700000000E-02 0. -1.
         -1   -1    0    0    0  501 -0.00000000000E+00 -0.00000000000E+00 -0.43745468009E+02  0.43745468258E+02  0.46700000000E-02 0.  1.
         25    2    1    2    0    0  0.00000000000E+00  0.00000000000E+00  0.45549818725E+02  0.13304075511E+03  0.12500022614E+03 0.  0.
        -13    1    3    3    0    0  0.14061977390E+02  0.53870112650E+02  0.53001053083E+02  0.76869051285E+02  0.10570000000E+00 0. -1.
         13    1    3    3    0    0 -0.14061977390E+02 -0.53870112650E+02 -0.74512343583E+01  0.56171703829E+02  0.10570000000E+00 0.  1.
<mgrwt>
<rscale>  0 0.12500023E+03</rscale>
<asrwt>0</asrwt>
<pdfrwt beam="1">  1        1 0.13737736E-01 0.12500023E+03</pdfrwt>
<pdfrwt beam="2">  1       -1 0.67300721E-02 0.12500023E+03</pdfrwt>
<totfact> 0.42401779E+04</totfact>
</mgrwt>
</event>
<event>
 5    1  0.1336420E-049  0.1249949E+03  0.7818608E-02  0.1235077E+00
         -1   -1    0    0    0  501 -0.00000000000E+00  0.00000000000E+00  0.87879304416E+01  0.87879316824E+01  0.46700000000E-02 0.  1.
          1   -1    0    0  501    0  0.00000000000E+00 -0.00000000000E+00 -0.44446515071E+03  0.44446515074E+03  0.46700000000E-02 0. -1.
         25    2    1    2    0    0  0.00000000000E+00  0.00000000000E+00 -0.43567722027E+03  0.45325308242E+03  0.12499486573E+03 0.  0.
        -13    1    3    3    0    0 -0.39017533481E+02 -0.45200161726E+02 -0.28475064210E+03  0.29094391537E+03  0.10570000000E+00 0.  1.
         13    1    3    3    0    0  0.39017533481E+02  0.45200161726E+02 -0.15092657817E+03  0.16230916705E+03  0.10570000000E+00 0. -1.
<mgrwt>
<rscale>  0 0.12499487E+03</rscale>
<asrwt>0</asrwt>
<pdfrwt beam="2">  1        1 0.68379237E-01 0.12499487E+03</pdfrwt>
<pdfrwt beam="1">  1       -1 0.13519897E-02 0.12499487E+03</pdfrwt>
<totfact> 0.58590066E+04</totfact>
</mgrwt>
</event>
<event>
 5    1  0.1336420E-049  0.1250006E+03  0.7818608E-02  0.1235068E+00
          1   -1    0    0  501    0  0.00000000000E+00  0.00000000000E+00  0.60462576668E+02  0.60462576848E+02  0.46700000000E-02 0. -1.
         -1   -1    0    0    0  501 -0.00000000000E+00 -0.00000000000E+00 -0.64606671175E+02  0.64606671343E+02  0.46700000000E-02 0.  1.
         25    2    1    2    0    0  0.00000000000E+00  0.00000000000E+00 -0.41440945070E+01  0.12506924819E+03  0.12500057329E+03 0.  0.
        -13    1    3    3    0    0 -0.25676614962E+02  0.53328497207E+02 -0.22159368794E+02  0.63200205444E+02  0.10570000000E+00 0.  1.
         13    1    3    3    0    0  0.25676614962E+02 -0.53328497207E+02  0.18015274287E+02  0.61869042747E+02  0.10570000000E+00 0. -1.
<mgrwt>
<rscale>  0 0.12500057E+03</rscale>
<asrwt>0</asrwt>
<pdfrwt beam="1">  1        1 0.93019349E-02 0.12500057E+03</pdfrwt>
<pdfrwt beam="2">  1       -1 0.99394879E-02 0.12500057E+03</pdfrwt>
<totfact> 0.39313435E+04</totfact>
</mgrwt>
</event>
<event>
 5    1  0.1336420E-049  0.1250009E+03  0.7818608E-02  0.1235068E+00
          1   -1    0    0  501    0  0.00000000000E+00  0.00000000000E+00  0.29559571754E+02  0.29559572123E+02  0.46700000000E-02 0. -1.
         -1   -1    0    0    0  501 -0.00000000000E+00 -0.00000000000E+00 -0.13215030551E+03  0.13215030559E+03  0.46700000000E-02 0.  1.
         25    2    1    2    0    0  0.00000000000E+00  0.00000000000E+00 -0.10259073376E+03  0.16170987771E+03  0.12500090359E+03 0.  0.
        -13    1    3    3    0    0  0.54385413733E+02 -0.15927783937E+02 -0.85395963800E+02  0.10248877662E+03  0.10570000000E+00 0.  1.
         13    1    3    3    0    0 -0.54385413733E+02  0.15927783937E+02 -0.17194769955E+02  0.59221101090E+02  0.10570000000E+00 0. -1.
<mgrwt>
<rscale>  0 0.12500090E+03</rscale>
<asrwt>0</asrwt>
<pdfrwt beam="1">  1        1 0.45476265E-02 0.12500090E+03</pdfrwt>
<pdfrwt beam="2">  1       -1 0.20330816E-01 0.12500090E+03</pdfrwt>
<totfact> 0.33825912E+04</totfact>
</mgrwt>
</event>
<event>
 5    1  0.1336420E-049  0.1250039E+03  0.7818608E-02  0.1235063E+00
         -1   -1    0    0    0  501 -0.00000000000E+00  0.00000000000E+00  0.65871473176E+03  0.65871473178E+03  0.46700000000E-02 0.  1.
          1   -1    0    0  501    0  0.00000000000E+00 -0.00000000000E+00 -0.59304745673E+01  0.59304764060E+01  0.46700000000E-02 0. -1.
         25    2    1    2    0    0  0.00000000000E+00  0.00000000000E+00  0.65278425719E+03  0.66464520818E+03  0.12500386523E+03 0.  0.
        -13    1    3    3    0    0  0.60539282846E+02 -0.14240652610E+02  0.29332422967E+03  0.29984481960E+03  0.10570000000E+00 0. -1.
         13    1    3    3    0    0 -0.60539282846E+02  0.14240652610E+02  0.35946002752E+03  0.36480038859E+03  0.10570000000E+00 0.  1.
<mgrwt>
<rscale>  0 0.12500387E+03</rscale>
<asrwt>0</asrwt>
<pdfrwt beam="2">  1        1 0.91238102E-03 0.12500387E+03</pdfrwt>
<pdfrwt beam="1">  1       -1 0.10134071E+00 0.12500387E+03</pdfrwt>
<totfact> 0.16748454E+04</totfact>
</mgrwt>
</event>
<event>
 5    1  0.1336420E-049  0.1249996E+03  0.7818608E-02  0.1235070E+00
         -1   -1    0    0    0  501 -0.00000000000E+00  0.00000000000E+00  0.44593845720E+03  0.44593845723E+03  0.46700000000E-02 0. -1.
          1   -1    0    0  501    0  0.00000000000E+00 -0.00000000000E+00 -0.87595572361E+01  0.87595584809E+01  0.46700000000E-02 0.  1.
         25    2    1    2    0    0  0.00000000000E+00  0.00000000000E+00  0.43717889997E+03  0.45469801571E+03  0.12499957965E+03 0.  0.
        -13    1    3    3    0    0  0.50251191797E+02 -0.32823204843E+02  0.15520048433E+03  0.16640236345E+03  0.10570000000E+00 0. -1.
         13    1    3    3    0    0 -0.50251191797E+02  0.32823204843E+02  0.28197841564E+03  0.28829565226E+03  0.10570000000E+00 0.  1.
<mgrwt>
<rscale>  0 0.12499958E+03</rscale>
<asrwt>0</asrwt>
<pdfrwt beam="2">  1        1 0.13476243E-02 0.12499958E+03</pdfrwt>
<pdfrwt beam="1">  1       -1 0.68605918E-01 0.12499958E+03</pdfrwt>
<totfact> 0.21794244E+04</totfact>
</mgrwt>
</event>
<event>
 5    1  0.1336420E-049  0.1250005E+03  0.7818608E-02  0.1235069E+00
          1   -1    0    0  501    0  0.00000000000E+00  0.00000000000E+00  0.32109691185E+03  0.32109691188E+03  0.46700000000E-02 0. -1.
         -1   -1    0    0    0  501 -0.00000000000E+00 -0.00000000000E+00 -0.12165422562E+02  0.12165423459E+02  0.46700000000E-02 0.  1.
         25    2    1    2    0    0  0.00000000000E+00  0.00000000000E+00  0.30893148929E+03  0.33326233534E+03  0.12500047634E+03 0.  0.
        -13    1    3    3    0    0 -0.55115713473E+02  0.53740120195E+01  0.23172008057E+03  0.23824531221E+03  0.10570000000E+00 0.  1.
         13    1    3    3    0    0  0.55115713473E+02 -0.53740120195E+01  0.77211408719E+02  0.95017023136E+02  0.10570000000E+00 0. -1.
<mgrwt>
<rscale>  0 0.12500048E+03</rscale>
<asrwt>0</asrwt>
<pdfrwt beam="1">  1        1 0.49399528E-01 0.12500048E+03</pdfrwt>
<pdfrwt beam="2">  1       -1 0.18716034E-02 0.12500048E+03</pdfrwt>
<totfact> 0.55238694E+04</totfact>
</mgrwt>
</event>
<event>
 5    1  0.1336420E-049  0.1250007E+03  0.7818608E-02  0.1235068E+00
         -1   -1    0    0    0  501 -0.00000000000E+00  0.00000000000E+00  0.12656658829E+03  0.12656658837E+03  0.46700000000E-02 0.  1.
          1   -1    0    0  501    0  0.00000000000E+00 -0.00000000000E+00 -0.30863568463E+02  0.30863568817E+02  0.46700000000E-02 0. -1.
         25    2    1    2    0    0  0.00000000000E+00  0.00000000000E+00  0.95703019824E+02  0.15743015719E+03  0.12500074556E+03 0.  0.
        -13    1    3    3    0    0 -0.11293504474E+01 -0.53700597357E+02  0.88099352097E+02  0.10318205562E+03  0.10570000000E+00 0.  1.
         13    1    3    3    0    0  0.11293504474E+01  0.53700597357E+02  0.76036677274E+01  0.54248101574E+02  0.10570000000E+00 0. -1.
<mgrwt>
<rscale>  0 0.12500075E+03</rscale>
<asrwt>0</asrwt>
<pdfrwt beam="2">  1        1 0.47482414E-02 0.12500075E+03</pdfrwt>
<pdfrwt beam="1">  1       -1 0.19471782E-01 0.12500075E+03</pdfrwt>
<totfact> 0.34170377E+04</totfact>
</mgrwt>
</event>
<event>
 5    1  0.1336420E-049  0.1250026E+03  0.7818608E-02  0.1235065E+00
          1   -1    0    0  501    0  0.00000000000E+00  0.00000000000E+00  0.31504007878E+03  0.31504007882E+03  0.46700000000E-02 0. -1.
         -1   -1    0    0    0  501 -0.00000000000E+00 -0.00000000000E+00 -0.12399733431E+02  0.12399734310E+02  0.46700000000E-02 0.  1.
         25    2    1    2    0    0  0.00000000000E+00  0.00000000000E+00  0.30264034535E+03  0.32743981313E+03  0.12500261032E+03 0.  0.
        -13    1    3    3    0    0  0.41894465292E+02  0.20300613270E+02  0.26055969191E+03  0.26468589940E+03  0.10570000000E+00 0. -1.
         13    1    3    3    0    0 -0.41894465292E+02 -0.20300613270E+02  0.42080653439E+02  0.62753913723E+02  0.10570000000E+00 0.  1.
<mgrwt>
<rscale>  0 0.12500261E+03</rscale>
<asrwt>0</asrwt>
<pdfrwt beam="1">  1        1 0.48467705E-01 0.12500261E+03</pdfrwt>
<pdfrwt beam="2">  1       -1 0.19076513E-02 0.12500261E+03</pdfrwt>
<totfact> 0.55025663E+04</totfact>
</mgrwt>
</event>
<event>
 5    1  0.1336420E-049  0.1250007E+03  0.7818608E-02  0.1235068E+00
         -1   -1    0    0    0  501 -0.00000000000E+00  0.00000000000E+00  0.34062727314E+02  0.34062727634E+02  0.46700000000E-02 0.  1.
          1   -1    0    0  501    0  0.00000000000E+00 -0.00000000000E+00 -0.11467942332E+03  0.11467942341E+03  0.46700000000E-02 0. -1.
         25    2    1    2    0    0  0.00000000000E+00  0.00000000000E+00 -0.80616696006E+02  0.14874215105E+03  0.12500070329E+03 0.  0.
        -13    1    3    3    0    0 -0.48060693000E+02  0.12976966871E+02 -0.85275299444E+02  0.98742694659E+02  0.10570000000E+00 0. -1.
         13    1    3    3    0    0  0.48060693000E+02 -0.12976966871E+02  0.46586034375E+01  0.49999456390E+02  0.10570000000E+00 0.  1.
<mgrwt>
<rscale>  0 0.12500070E+03</rscale>
<asrwt>0</asrwt>
<pdfrwt beam="2">  1        1 0.17642988E-01 0.12500070E+03</pdfrwt>
<pdfrwt beam="1">  1       -1 0.52404197E-02 0.12500070E+03</pdfrwt>
<totfact> 0.44550430E+04</totfact>
</mgrwt>
</event>
<event>
 5    1  0.1336420E-049  0.1250006E+03  0.7818608E-02  0.1235068E+00
          1   -1    0    0  501    0  0.00000000000E+00  0.00000000000E+00  0.36319607968E+03  0.36319607971E+03  0.46700000000E-02 0. -1.
         -1   -1    0    0    0  501 -0.00000000000E+00 -0.00000000000E+00 -0.10755319258E+02  0.10755320272E+02  0.46700000000E-02 0.  1.
         25    2    1    2    0    0  0.00000000000E+00  0.00000000000E+00  0.35244076042E+03  0.37395139998E+03  0.12500063977E+03 0.  0.
        -13    1    3    3    0    0 -0.25774631832E+02  0.46235549078E+02  0.76810176920E+02  0.93283825477E+02  0.10570000000E+00 0.  1.
         13    1    3    3    0    0  0.25774631832E+02 -0.46235549078E+02  0.27563058350E+03  0.28066757450E+03  0.10570000000E+00 0. -1.
<mgrwt>
<rscale>  0 0.12500064E+03</rscale>
<asrwt>0</asrwt>
<pdfrwt beam="1">  1        1 0.55876316E-01 0.12500064E+03</pdfrwt>
<pdfrwt beam="2">  1       -1 0.16546647E-02 0.12500064E+03</pdfrwt>
<totfact> 0.56571796E+04</totfact>
</mgrwt>
</event>
<event>
 4    1  0.1336420E-049  0.1251220E+03  0.7818608E-02  0.1234879E+00
         -1   -1    0    0    0  501 -0.00000000000E+00  0.00000000000E+00  0.15701510089E+03  0.15701510096E+03  0.46700000000E-02 0.  1.
          1   -1    0    0  501    0  0.00000000000E+00 -0.00000000000E+00 -0.24926765381E+02  0.24926765819E+02  0.46700000000E-02 0. -1.
        -13    1    1    2    0    0  0.47989556832E+02  0.34777564970E+02  0.95177000520E+02  0.11212113624E+03  0.10570000000E+00 0.  1.
         13    1    1    2    0    0 -0.47989556832E+02 -0.34777564970E+02  0.36911334985E+02  0.69820730540E+02  0.10570000000E+00 0. -1.
<mgrwt>
<rscale>  0 0.12512200E+03</rscale>
<asrwt>0</asrwt>
<pdfrwt beam="2">  1        1 0.38348871E-02 0.12512200E+03</pdfrwt>
<pdfrwt beam="1">  1       -1 0.24156169E-01 0.12512200E+03</pdfrwt>
<totfact> 0.32331499E+04</totfact>
</mgrwt>
</event>
<event>
 5    1  0.1336420E-049  0.1249973E+03  0.7818608E-02  0.1235074E+00
         -1   -1    0    0    0  501 -0.00000000000E+00  0.00000000000E+00  0.61663511197E+02  0.61663511374E+02  0.46700000000E-02 0.  1.
          1   -1    0    0  501    0  0.00000000000E+00 -0.00000000000E+00 -0.63345053019E+02  0.63345053191E+02  0.46700000000E-02 0. -1.
         25    2    1    2    0    0  0.00000000000E+00  0.00000000000E+00 -0.16815418222E+01  0.12500856457E+03  0.12499725450E+03 0.  0.
        -13    1    3    3    0    0  0.50283302040E+01  0.44203680234E+02  0.43058733494E+02  0.61913771921E+02  0.10570000000E+00 0.  1.
         13    1    3    3    0    0 -0.50283302040E+01 -0.44203680234E+02 -0.44740275317E+02  0.63094792644E+02  0.10570000000E+00 0. -1.
<mgrwt>
<rscale>  0 0.12499725E+03</rscale>
<asrwt>0</asrwt>
<pdfrwt beam="2">  1        1 0.97453928E-02 0.12499725E+03</pdfrwt>
<pdfrwt beam="1">  1       -1 0.94866941E-02 0.12499725E+03</pdfrwt>
<totfact> 0.39674113E+04</totfact>
</mgrwt>
</event>
<event>
 5    1  0.1336420E-049  0.1249981E+03  0.7818608E-02  0.1235072E+00
          1   -1    0    0  501    0  0.00000000000E+00  0.00000000000E+00  0.23763240004E+02  0.23763240463E+02  0.46700000000E-02 0. -1.
         -1   -1    0    0    0  501 -0.00000000000E+00 -0.00000000000E+00 -0.16437716586E+03  0.16437716593E+03  0.46700000000E-02 0.  1.
         25    2    1    2    0    0  0.00000000000E+00  0.00000000000E+00 -0.14061392586E+03  0.18814040639E+03  0.12499814547E+03 0.  0.
        -13    1    3    3    0    0  0.51270190589E+02  0.21431070526E+02 -0.27253492520E+02  0.61892546029E+02  0.10570000000E+00 0.  1.
         13    1    3    3    0    0 -0.51270190589E+02 -0.21431070526E+02 -0.11336043334E+03  0.12624786036E+03  0.10570000000E+00 0. -1.
<mgrwt>
<rscale>  0 0.12499815E+03</rscale>
<asrwt>0</asrwt>
<pdfrwt beam="1">  1        1 0.36558832E-02 0.12499815E+03</pdfrwt>
<pdfrwt beam="2">  1       -1 0.25288794E-01 0.12499815E+03</pdfrwt>
<totfact> 0.32029036E+04</totfact>
</mgrwt>
</event>
<event>
 5    1  0.1336420E-049  0.1249950E+03  0.7818608E-02  0.1235077E+00
          1   -1    0    0  501    0  0.00000000000E+00  0.00000000000E+00  0.96500718098E+02  0.96500718211E+02  0.46700000000E-02 0. -1.
         -1   -1    0    0    0  501 -0.00000000000E+00 -0.00000000000E+00 -0.40475735281E+02  0.40475735551E+02  0.46700000000E-02 0.  1.
         25    2    1    2    0    0  0.00000000000E+00  0.00000000000E+00  0.56024982816E+02  0.13697645376E+03  0.12499500064E+03 0.  0.
        -13    1    3    3    0    0  0.60086070825E+02 -0.16729862347E+02  0.32354924631E+02  0.70264333211E+02  0.10570000000E+00 0.  1.
         13    1    3    3    0    0 -0.60086070825E+02  0.16729862347E+02  0.23670058185E+02  0.66712120550E+02  0.10570000000E+00 0. -1.
<mgrwt>
<rscale>  0 0.12499500E+03</rscale>
<asrwt>0</asrwt>
<pdfrwt beam="1">  1        1 0.14846264E-01 0.12499500E+03</pdfrwt>
<pdfrwt beam="2">  1       -1 0.62270362E-02 0.12499500E+03</pdfrwt>
<totfact> 0.43056779E+04</totfact>
</mgrwt>
</event>
<event>
 5    1  0.1336420E-049  0.1250079E+03  0.7818608E-02  0.1235057E+00
         -1   -1    0    0    0  501 -0.00000000000E+00  0.00000000000E+00  0.91731047071E+02  0.91731047190E+02  0.46700000000E-02 0.  1.
          1   -1    0    0  501    0  0.00000000000E+00 -0.00000000000E+00 -0.42589119269E+02  0.42589119525E+02  0.46700000000E-02 0. -1.
         25    2    1    2    0    0  0.00000000000E+00  0.00000000000E+00  0.49141927803E+02  0.13432016671E+03  0.12500791222E+03 0.  0.
        -13    1    3    3    0    0 -0.60034222725E+02  0.20281400305E+01  0.60064024248E+01  0.60368114868E+02  0.10570000000E+00 0.  1.
         13    1    3    3    0    0  0.60034222725E+02 -0.20281400305E+01  0.43135525378E+02  0.73952051846E+02  0.10570000000E+00 0. -1.
<mgrwt>
<rscale>  0 0.12500791E+03</rscale>
<asrwt>0</asrwt>
<pdfrwt beam="2">  1        1 0.65521723E-02 0.12500791E+03</pdfrwt>
<pdfrwt beam="1">  1       -1 0.14112469E-01 0.12500791E+03</pdfrwt>
<totfact> 0.36651648E+04</totfact>
</mgrwt>
</event>
<event>
 5    1  0.1336420E-049  0.1249978E+03  0.7818608E-02  0.1235073E+00
         -1   -1    0    0    0  501 -0.00000000000E+00  0.00000000000E+00  0.12327674430E+03  0.12327674438E+03  0.46700000000E-02 0.  1.
          1   -1    0    0  501    0  0.00000000000E+00 -0.00000000000E+00 -0.31685699238E+02  0.31685699583E+02  0.46700000000E-02 0. -1.
         25    2    1    2    0    0  0.00000000000E+00  0.00000000000E+00  0.91591045058E+02  0.15496244397E+03  0.12499775800E+03 0.  0.
        -13    1    3    3    0    0 -0.60749532806E+02  0.68165154080E+01  0.29673033128E+02  0.67951973378E+02  0.10570000000E+00 0.  1.
         13    1    3    3    0    0  0.60749532806E+02 -0.68165154080E+01  0.61918011930E+02  0.87010470590E+02  0.10570000000E+00 0. -1.
<mgrwt>
<rscale>  0 0.12499776E+03</rscale>
<asrwt>0</asrwt>
<pdfrwt beam="2">  1        1 0.48747230E-02 0.12499776E+03</pdfrwt>
<pdfrwt beam="1">  1       -1 0.18965653E-01 0.12499776E+03</pdfrwt>
<totfact> 0.34381050E+04</totfact>
</mgrwt>
</event>
<event>
 5    1  0.1632248E-049  0.1249998E+03  0.7818608E-02  0.1235070E+00
          1   -1    0    0  501    0  0.00000000000E+00  0.00000000000E+00  0.13214695380E+02  0.13214696205E+02  0.46700000000E-02 0. -1.
         -1   -1    0    0    0  501 -0.00000000000E+00 -0.00000000000E+00 -0.29559789490E+03  0.29559789494E+03  0.46700000000E-02 0.  1.
         25    2    1    2    0    0  0.00000000000E+00  0.00000000000E+00 -0.28238319952E+03  0.30881259114E+03  0.12499978031E+03 0.  0.
        -13    1    3    3    0    0  0.56864093001E+02  0.59699130564E+00 -0.20525078276E+03  0.21298304268E+03  0.10570000000E+00 0.  1.
         13    1    3    3    0    0 -0.56864093001E+02 -0.59699130564E+00 -0.77132416756E+02  0.95829548462E+02  0.10570000000E+00 0. -1.
<mgrwt>
<rscale>  0 0.12499978E+03</rscale>
<asrwt>0</asrwt>
<pdfrwt beam="1">  1        1 0.20330303E-02 0.12499978E+03</pdfrwt>
<pdfrwt beam="2">  1       -1 0.45476595E-01 0.12499978E+03</pdfrwt>
<totfact> 0.26483793E+04</totfact>
</mgrwt>
</event>
<event>
 5    1  0.1336420E-049  0.1249971E+03  0.7818608E-02  0.1235074E+00
          1   -1    0    0  501    0  0.00000000000E+00  0.00000000000E+00  0.68341525226E+02  0.68341525385E+02  0.46700000000E-02 0. -1.
         -1   -1    0    0    0  501 -0.00000000000E+00 -0.00000000000E+00 -0.57155088313E+02  0.57155088503E+02  0.46700000000E-02 0.  1.
         25    2    1    2    0    0  0.00000000000E+00  0.00000000000E+00  0.11186436913E+02  0.12549661389E+03  0.12499705487E+03 0.  0.
        -13    1    3    3    0    0  0.17377785902E+02  0.49963579808E+02 -0.27822043910E+02  0.59769758657E+02  0.10570000000E+00 0. -1.
         13    1    3    3    0    0 -0.17377785902E+02 -0.49963579808E+02  0.39008480823E+02  0.65726855232E+02  0.10570000000E+00 0.  1.
<mgrwt>
<rscale>  0 0.12499705E+03</rscale>
<asrwt>0</asrwt>
<pdfrwt beam="1">  1        1 0.10514081E-01 0.12499705E+03</pdfrwt>
<pdfrwt beam="2">  1       -1 0.87930905E-02 0.12499705E+03</pdfrwt>
<totfact> 0.40262330E+04</totfact>
</mgrwt>
</event>
<event>
 5    1  0.1336420E-049  0.1249995E+03  0.7818608E-02  0.1235070E+00
          1   -1    0    0  501    0  0.00000000000E+00  0.00000000000E+00  0.65182884810E+03  0.65182884811E+03  0.46700000000E-02 0. -1.
         -1   -1    0    0    0  501 -0.00000000000E+00 -0.00000000000E+00 -0.59927097588E+01  0.59927115784E+01  0.46700000000E-02 0.  1.
         25    2    1    2    0    0  0.00000000000E+00  0.00000000000E+00  0.64583613834E+03  0.65782155969E+03  0.12499954725E+03 0.  0.
        -13    1    3    3    0    0  0.59136325005E+02  0.19604272902E+02  0.34911397884E+03  0.35462940352E+03  0.10570000000E+00 0.  1.
         13    1    3    3    0    0 -0.59136325005E+02 -0.19604272902E+02  0.29672215950E+03  0.30319215617E+03  0.10570000000E+00 0. -1.
<mgrwt>
<rscale>  0 0.12499955E+03</rscale>
<asrwt>0</asrwt>
<pdfrwt beam="1">  1        1 0.10028140E+00 0.12499955E+03</pdfrwt>
<pdfrwt beam="2">  1       -1 0.92195516E-03 0.12499955E+03</pdfrwt>
<totfact> 0.60883829E+04</totfact>
</mgrwt>
</event>
<event>
 5    1  0.1336420E-049  0.1249933E+03  0.7818608E-02  0.1235080E+00
          1   -1    0    0  501    0  0.00000000000E+00  0.00000000000E+00  0.64892600615E+02  0.64892600783E+02  0.46700000000E-02 0. -1.
         -1   -1    0    0    0  501 -0.00000000000E+00 -0.00000000000E+00 -0.60189167784E+02  0.60189167965E+02  0.46700000000E-02 0.  1.
         25    2    1    2    0    0  0.00000000000E+00  0.00000000000E+00  0.47034328316E+01  0.12508176875E+03  0.12499330619E+03 0.  0.
        -13    1    3    3    0    0 -0.53607997113E+02 -0.29530435081E+02  0.15008059491E+02  0.63016799131E+02  0.10570000000E+00 0.  1.
         13    1    3    3    0    0  0.53607997113E+02  0.29530435081E+02 -0.10304626660E+02  0.62064969617E+02  0.10570000000E+00 0. -1.
<mgrwt>
<rscale>  0 0.12499331E+03</rscale>
<asrwt>0</asrwt>
<pdfrwt beam="1">  1        1 0.99834770E-02 0.12499331E+03</pdfrwt>
<pdfrwt beam="2">  1       -1 0.92598720E-02 0.12499331E+03</pdfrwt>
<totfact> 0.39864015E+04</totfact>
</mgrwt>
</event>
<event>
 5    1  0.1336420E-049  0.1249952E+03  0.7818608E-02  0.1235077E+00
          1   -1    0    0  501    0  0.00000000000E+00  0.00000000000E+00  0.13846691440E+02  0.13846692228E+02  0.46700000000E-02 0. -1.
         -1   -1    0    0    0  501 -0.00000000000E+00 -0.00000000000E+00 -0.28208525071E+03  0.28208525075E+03  0.46700000000E-02 0.  1.
         25    2    1    2    0    0  0.00000000000E+00  0.00000000000E+00 -0.26823855927E+03  0.29593194297E+03  0.12499516068E+03 0.  0.
        -13    1    3    3    0    0  0.19586133645E+02  0.56643176959E+02 -0.92174905128E+02  0.10994676182E+03  0.10570000000E+00 0. -1.
         13    1    3    3    0    0 -0.19586133645E+02 -0.56643176959E+02 -0.17606365414E+03  0.18598518115E+03  0.10570000000E+00 0.  1.
<mgrwt>
<rscale>  0 0.12499516E+03</rscale>
<asrwt>0</asrwt>
<pdfrwt beam="1">  1        1 0.21302605E-02 0.12499516E+03</pdfrwt>
<pdfrwt beam="2">  1       -1 0.43397727E-01 0.12499516E+03</pdfrwt>
<totfact> 0.26975427E+04</totfact>
</mgrwt>
</event>
<event>
 5    1  0.1336420E-049  0.1249996E+03  0.7818608E-02  0.1235070E+00
         -1   -1    0    0    0  501 -0.00000000000E+00  0.00000000000E+00  0.89909031940E+01  0.89909044068E+01  0.46700000000E-02 0.  1.
          1   -1    0    0  501    0  0.00000000000E+00 -0.00000000000E+00 -0.43446433753E+03  0.43446433755E+03  0.46700000000E-02 0. -1.
         25    2    1    2    0    0  0.00000000000E+00  0.00000000000E+00 -0.42547343433E+03  0.44345524196E+03  0.12499963319E+03 0.  0.
        -13    1    3    3    0    0 -0.25985545978E+02  0.52890474315E+02 -0.13886670393E+03  0.15085298640E+03  0.10570000000E+00 0.  1.
         13    1    3    3    0    0  0.25985545978E+02 -0.52890474315E+02 -0.28660673041E+03  0.29260225556E+03  0.10570000000E+00 0. -1.
<mgrwt>
<rscale>  0 0.12499963E+03</rscale>
<asrwt>0</asrwt>
<pdfrwt beam="2">  1        1 0.66840651E-01 0.12499963E+03</pdfrwt>
<pdfrwt beam="1">  1       -1 0.13832163E-02 0.12499963E+03</pdfrwt>
<totfact> 0.58374717E+04</totfact>
</mgrwt>
</event>
<event>
 5    1  0.1336420E-049  0.1249948E+03  0.7818608E-02  0.1235077E+00
          1   -1    0    0  501    0  0.00000000000E+00  0.00000000000E+00  0.77988396990E+02  0.77988397129E+02  0.46700000000E-02 0. -1.
         -1   -1    0    0    0  501 -0.00000000000E+00 -0.00000000000E+00 -0.50083414453E+02  0.50083414671E+02  0.46700000000E-02 0.  1.
         25    2    1    2    0    0  0.00000000000E+00  0.00000000000E+00  0.27904982536E+02  0.12807181180E+03  0.12499480360E+03 0.  0.
        -13    1    3    3    0    0  0.54485493877E+02  0.85152733521E+01 -0.16177787358E+02  0.57470957009E+02  0.10570000000E+00 0.  1.
         13    1    3    3    0    0 -0.54485493877E+02 -0.85152733521E+01  0.44082769894E+02  0.70600854791E+02  0.10570000000E+00 0. -1.
<mgrwt>
<rscale>  0 0.12499480E+03</rscale>
<asrwt>0</asrwt>
<pdfrwt beam="1">  1        1 0.11998215E-01 0.12499480E+03</pdfrwt>
<pdfrwt beam="2">  1       -1 0.77051408E-02 0.12499480E+03</pdfrwt>
<totfact> 0.41305687E+04</totfact>
</mgrwt>
</event>
<event>
 5    1  0.1409660E-049  0.1250008E+03  0.7818608E-02  0.1235068E+00
          1   -1    0    0  501    0  0.00000000000E+00  0.00000000000E+00  0.48046664937E+03  0.48046664939E+03  0.46700000000E-02 0. -1.
         -1   -1    0    0    0  501 -0.00000000000E+00 -0.00000000000E+00 -0.81302215504E+01  0.81302228916E+01  0.46700000000E-02 0.  1.
         25    2    1    2    0    0  0.00000000000E+00  0.00000000000E+00  0.47233642782E+03  0.48859687228E+03  0.12500081024E+03 0.  0.
        -13    1    3    3    0    0 -0.48748993277E+02 -0.28546845884E+02  0.13165737669E+03  0.14326570687E+03  0.10570000000E+00 0.  1.
         13    1    3    3    0    0  0.48748993277E+02  0.28546845884E+02  0.34067905113E+03  0.34533116541E+03  0.10570000000E+00 0. -1.
<mgrwt>
<rscale>  0 0.12500081E+03</rscale>
<asrwt>0</asrwt>
<pdfrwt beam="1">  1        1 0.73917975E-01 0.12500081E+03</pdfrwt>
<pdfrwt beam="2">  1       -1 0.12508029E-02 0.12500081E+03</pdfrwt>
<totfact> 0.59252919E+04</totfact>
</mgrwt>
</event>
<event>
 5    1  0.1336420E-049  0.1249971E+03  0.7818608E-02  0.1235074E+00
          1   -1    0    0  501    0  0.00000000000E+00  0.00000000000E+00  0.34892623361E+03  0.34892623364E+03  0.46700000000E-02 0.  1.
         -1   -1    0    0    0  501 -0.00000000000E+00 -0.00000000000E+00 -0.11194531427E+02  0.11194532401E+02  0.46700000000E-02 0. -1.
         25    2    1    2    0    0  0.00000000000E+00  0.00000000000E+00  0.33773170218E+03  0.36012076604E+03  0.12499705387E+03 0.  0.
        -13    1    3    3    0    0  0.54517502865E+02  0.24259398579E+02  0.22240800315E+03  0.23027376658E+03  0.10570000000E+00 0. -1.
         13    1    3    3    0    0 -0.54517502865E+02 -0.24259398579E+02  0.11532369904E+03  0.12984699946E+03  0.10570000000E+00 0.  1.
<mgrwt>
<rscale>  0 0.12499705E+03</rscale>
<asrwt>0</asrwt>
<pdfrwt beam="1">  1        1 0.53680965E-01 0.12499705E+03</pdfrwt>
<pdfrwt beam="2">  1       -1 0.17222355E-02 0.12499705E+03</pdfrwt>
<totfact> 0.56148919E+04</totfact>
</mgrwt>
</event>
<event>
 5    1  0.1336420E-049  0.1249987E+03  0.7818608E-02  0.1235071E+00
          1   -1    0    0  501    0  0.00000000000E+00  0.00000000000E+00  0.18447931303E+02  0.18447931894E+02  0.46700000000E-02 0. -1.
         -1   -1    0    0    0  501 -0.00000000000E+00 -0.00000000000E+00 -0.21174016101E+03  0.21174016106E+03  0.46700000000E-02 0.  1.
         25    2    1    2    0    0  0.00000000000E+00  0.00000000000E+00 -0.19329222971E+03  0.23018809296E+03  0.12499868829E+03 0.  0.
        -13    1    3    3    0    0 -0.24411467296E+02 -0.41704418108E+02 -0.16963597587E+03  0.17638467538E+03  0.10570000000E+00 0.  1.
         13    1    3    3    0    0  0.24411467296E+02  0.41704418108E+02 -0.23656253838E+02  0.53803417581E+02  0.10570000000E+00 0. -1.
<mgrwt>
<rscale>  0 0.12499869E+03</rscale>
<asrwt>0</asrwt>
<pdfrwt beam="1">  1        1 0.28381435E-02 0.12499869E+03</pdfrwt>
<pdfrwt beam="2">  1       -1 0.32575408E-01 0.12499869E+03</pdfrwt>
<totfact> 0.29782657E+04</totfact>
</mgrwt>
</event>
<event>
 5    1  0.1336420E-049  0.1250006E+03  0.7818608E-02  0.1235068E+00
         -1   -1    0    0    0  501 -0.00000000000E+00  0.00000000000E+00  0.46088333968E+02  0.46088334205E+02  0.46700000000E-02 0.  1.
          1   -1    0    0  501    0  0.00000000000E+00 -0.00000000000E+00 -0.84756497845E+02  0.84756497974E+02  0.46700000000E-02 0. -1.
         25    2    1    2    0    0  0.00000000000E+00  0.00000000000E+00 -0.38668163877E+02  0.13084483218E+03  0.12500057284E+03 0.  0.
        -13    1    3    3    0    0  0.29974006738E+02  0.46987485773E+02  0.10272768241E+02  0.56672796287E+02  0.10570000000E+00 0.  1.
         13    1    3    3    0    0 -0.29974006738E+02 -0.46987485773E+02 -0.48940932118E+02  0.74172035891E+02  0.10570000000E+00 0. -1.
<mgrwt>
<rscale>  0 0.12500057E+03</rscale>
<asrwt>0</asrwt>
<pdfrwt beam="2">  1        1 0.13039461E-01 0.12500057E+03</pdfrwt>
<pdfrwt beam="1">  1       -1 0.70905130E-02 0.12500057E+03</pdfrwt>
<totfact> 0.41972351E+04</totfact>
</mgrwt>
</event>
<event>
 5    1  0.1336420E-049  0.1250084E+03  0.7818608E-02  0.1235056E+00
         -1   -1    0    0    0  501 -0.00000000000E+00  0.00000000000E+00  0.26360912179E+03  0.26360912183E+03  0.46700000000E-02 0.  1.
          1   -1    0    0  501    0  0.00000000000E+00 -0.00000000000E+00 -0.14820341480E+02  0.14820342216E+02  0.46700000000E-02 0. -1.
         25    2    1    2    0    0  0.00000000000E+00  0.00000000000E+00  0.24878878031E+03  0.27842946404E+03  0.12500843668E+03 0.  0.
        -13    1    3    3    0    0  0.26427680165E+02  0.55197887573E+02  0.15270257112E+03  0.16450931728E+03  0.10570000000E+00 0.  1.
         13    1    3    3    0    0 -0.26427680165E+02 -0.55197887573E+02  0.96086209183E+02  0.11392014677E+03  0.10570000000E+00 0. -1.
<mgrwt>
<rscale>  0 0.12500844E+03</rscale>
<asrwt>0</asrwt>
<pdfrwt beam="2">  1        1 0.22800528E-02 0.12500844E+03</pdfrwt>
<pdfrwt beam="1">  1       -1 0.40555246E-01 0.12500844E+03</pdfrwt>
<totfact> 0.27660299E+04</totfact>
</mgrwt>
</event>
<event>
 5    1  0.1336420E-049  0.1249995E+03  0.7818608E-02  0.1235070E+00
         -1   -1    0    0    0  501 -0.00000000000E+00  0.00000000000E+00  0.14792415991E+02  0.14792416728E+02  0.46700000000E-02 0.  1.
          1   -1    0    0  501    0  0.00000000000E+00 -0.00000000000E+00 -0.26406903798E+03  0.26406903802E+03  0.46700000000E-02 0. -1.
         25    2    1    2    0    0  0.00000000000E+00  0.00000000000E+00 -0.24927662199E+03  0.27886145475E+03  0.12499950670E+03 0.  0.
        -13    1    3    3    0    0 -0.39316977690E+02  0.28868054932E+02 -0.37461222114E+02  0.61502387474E+02  0.10570000000E+00 0.  1.
         13    1    3    3    0    0  0.39316977690E+02 -0.28868054932E+02 -0.21181539987E+03  0.21735906727E+03  0.10570000000E+00 0. -1.
<mgrwt>
<rscale>  0 0.12499951E+03</rscale>
<asrwt>0</asrwt>
<pdfrwt beam="2">  1        1 0.40626003E-01 0.12499951E+03</pdfrwt>
<pdfrwt beam="1">  1       -1 0.22757566E-02 0.12499951E+03</pdfrwt>
<totfact> 0.53054631E+04</totfact>
</mgrwt>
</event>
<event>
 5    1  0.1336420E-049  0.1250018E+03  0.7818608E-02  0.1235066E+00
          1   -1    0    0  501    0  0.00000000000E+00  0.00000000000E+00  0.57636162778E+03  0.57636162780E+03  0.46700000000E-02 0. -1.
         -1   -1    0    0    0  501 -0.00000000000E+00 -0.00000000000E+00 -0.67776229789E+01  0.67776245878E+01  0.46700000000E-02 0.  1.
         25    2    1    2    0    0  0.00000000000E+00  0.00000000000E+00  0.56958400480E+03  0.58313925238E+03  0.12500179658E+03 0.  0.
        -13    1    3    3    0    0 -0.59132498262E+02  0.15721687299E+02  0.34426491362E+03  0.34966007168E+03  0.10570000000E+00 0.  1.
         13    1    3    3    0    0  0.59132498262E+02 -0.15721687299E+02  0.22531909118E+03  0.23347918071E+03  0.10570000000E+00 0. -1.
<mgrwt>
<rscale>  0 0.12500180E+03</rscale>
<asrwt>0</asrwt>
<pdfrwt beam="1">  1        1 0.88671065E-01 0.12500180E+03</pdfrwt>
<pdfrwt beam="2">  1       -1 0.10427108E-02 0.12500180E+03</pdfrwt>
<totfact> 0.60457190E+04</totfact>
</mgrwt>
</event>
<event>
 5    1  0.1336420E-049  0.1250024E+03  0.7818608E-02  0.1235066E+00
         -1   -1    0    0    0  501 -0.00000000000E+00  0.00000000000E+00  0.25548186612E+02  0.25548187039E+02  0.46700000000E-02 0.  1.
          1   -1    0    0  501    0  0.00000000000E+00 -0.00000000000E+00 -0.15290310171E+03  0.15290310178E+03  0.46700000000E-02 0. -1.
         25    2    1    2    0    0  0.00000000000E+00  0.00000000000E+00 -0.12735491510E+03  0.17845128882E+03  0.12500235231E+03 0.  0.
        -13    1    3    3    0    0 -0.16789683885E+02  0.42680576177E+02 -0.12429280498E+03  0.13248485804E+03  0.10570000000E+00 0. -1.
         13    1    3    3    0    0  0.16789683885E+02 -0.42680576177E+02 -0.30621101179E+01  0.45966430779E+02  0.10570000000E+00 0.  1.
<mgrwt>
<rscale>  0 0.12500235E+03</rscale>
<asrwt>0</asrwt>
<pdfrwt beam="2">  1        1 0.23523553E-01 0.12500235E+03</pdfrwt>
<pdfrwt beam="1">  1       -1 0.39304904E-02 0.12500235E+03</pdfrwt>
<totfact> 0.47248346E+04</totfact>
</mgrwt>
</event>
<event>
 5    1  0.1336420E-049  0.1249974E+03  0.7818608E-02  0.1235073E+00
         -1   -1    0    0    0  501 -0.00000000000E+00  0.00000000000E+00  0.12414933255E+03  0.12414933264E+03  0.46700000000E-02 0.  1.
          1   -1    0    0  501    0  0.00000000000E+00 -0.00000000000E+00 -0.31462818730E+02  0.31462819077E+02  0.46700000000E-02 0. -1.
         25    2    1    2    0    0  0.00000000000E+00  0.00000000000E+00  0.92686513824E+02  0.15561215172E+03  0.12499740764E+03 0.  0.
        -13    1    3    3    0    0  0.15993443694E+02 -0.29490725030E+02 -0.19303078637E+02  0.38705466298E+02  0.10570000000E+00 0. -1.
         13    1    3    3    0    0 -0.15993443694E+02  0.29490725030E+02  0.11198959246E+03  0.11690668542E+03  0.10570000000E+00 0.  1.
<mgrwt>
<rscale>  0 0.12499741E+03</rscale>
<asrwt>0</asrwt>
<pdfrwt beam="2">  1        1 0.48404337E-02 0.12499741E+03</pdfrwt>
<pdfrwt beam="1">  1       -1 0.19099897E-01 0.12499741E+03</pdfrwt>
<totfact> 0.34325560E+04</totfact>
</mgrwt>
</event>
<event>
 5    1  0.1336420E-049  0.1250023E+03  0.7818608E-02  0.1235066E+00
          1   -1    0    0  501    0  0.00000000000E+00  0.00000000000E+00  0.27424174962E+02  0.27424175360E+02  0.46700000000E-02 0. -1.
         -1   -1    0    0    0  501 -0.00000000000E+00 -0.00000000000E+00 -0.14244347667E+03  0.14244347674E+03  0.46700000000E-02 0.  1.
         25    2    1    2    0    0  0.00000000000E+00  0.00000000000E+00 -0.11501930170E+03  0.16986765210E+03  0.12500231784E+03 0.  0.
        -13    1    3    3    0    0 -0.45013433536E+02 -0.31778226212E+02 -0.17420042908E+02  0.57788700689E+02  0.10570000000E+00 0.  1.
         13    1    3    3    0    0  0.45013433536E+02  0.31778226212E+02 -0.97599258795E+02  0.11207895141E+03  0.10570000000E+00 0. -1.
<mgrwt>
<rscale>  0 0.12500232E+03</rscale>
<asrwt>0</asrwt>
<pdfrwt beam="1">  1        1 0.42191040E-02 0.12500232E+03</pdfrwt>
<pdfrwt beam="2">  1       -1 0.21914381E-01 0.12500232E+03</pdfrwt>
<totfact> 0.33218439E+04</totfact>
</mgrwt>
</event>
<event>
 4    1  0.1336420E-049  0.1250511E+03  0.7818608E-02  0.1234989E+00
          1   -1    0    0  501    0  0.00000000000E+00  0.00000000000E+00  0.33021674259E+03  0.33021674262E+03  0.46700000000E-02 0. -1.
         -1   -1    0    0    0  501 -0.00000000000E+00 -0.00000000000E+00 -0.11839032395E+02  0.11839033316E+02  0.46700000000E-02 0.  1.
        -13    1    1    2    0    0 -0.60184210485E+02 -0.12579587792E+02  0.12811543248E+03  0.14210545533E+03  0.10570000000E+00 0.  1.
         13    1    1    2    0    0  0.60184210485E+02  0.12579587792E+02  0.19026227771E+03  0.19995032061E+03  0.10570000000E+00 0. -1.
<mgrwt>
<rscale>  0 0.12505114E+03</rscale>
<asrwt>0</asrwt>
<pdfrwt beam="1">  1        1 0.50802575E-01 0.12505114E+03</pdfrwt>
<pdfrwt beam="2">  1       -1 0.18213897E-02 0.12505114E+03</pdfrwt>
<totfact> 0.55484598E+04</totfact>
</mgrwt>
</event>
<event>
 5    1  0.1336420E-049  0.1249995E+03  0.7818608E-02  0.1235070E+00
          1   -1    0    0  501    0  0.00000000000E+00  0.00000000000E+00  0.38704257105E+02  0.38704257387E+02  0.46700000000E-02 0. -1.
         -1   -1    0    0    0  501 -0.00000000000E+00 -0.00000000000E+00 -0.10092475506E+03  0.10092475516E+03  0.46700000000E-02 0.  1.
         25    2    1    2    0    0  0.00000000000E+00  0.00000000000E+00 -0.62220497951E+02  0.13962901255E+03  0.12499948312E+03 0.  0.
        -13    1    3    3    0    0 -0.26047015383E+02  0.20413230396E+02 -0.90334894698E+02  0.96205776116E+02  0.10570000000E+00 0.  1.
         13    1    3    3    0    0  0.26047015383E+02 -0.20413230396E+02  0.28114396746E+02  0.43423236435E+02  0.10570000000E+00 0. -1.
<mgrwt>
<rscale>  0 0.12499948E+03</rscale>
<asrwt>0</asrwt>
<pdfrwt beam="1">  1        1 0.59545011E-02 0.12499948E+03</pdfrwt>
<pdfrwt beam="2">  1       -1 0.15526885E-01 0.12499948E+03</pdfrwt>
<totfact> 0.35930923E+04</totfact>
</mgrwt>
</event>
<event>
 5    1  0.1336420E-049  0.1249999E+03  0.7818608E-02  0.1235069E+00
          1   -1    0    0  501    0  0.00000000000E+00  0.00000000000E+00  0.13894895051E+02  0.13894895836E+02  0.46700000000E-02 0. -1.
         -1   -1    0    0    0  501 -0.00000000000E+00 -0.00000000000E+00 -0.28112798284E+03  0.28112798288E+03  0.46700000000E-02 0.  1.
         25    2    1    2    0    0  0.00000000000E+00  0.00000000000E+00 -0.26723308779E+03  0.29502287871E+03  0.12499990302E+03 0.  0.
        -13    1    3    3    0    0 -0.38575345026E+02 -0.42044368403E+02 -0.19381035581E+03  0.20203527254E+03  0.10570000000E+00 0.  1.
         13    1    3    3    0    0  0.38575345026E+02  0.42044368403E+02 -0.73422731973E+02  0.92987606170E+02  0.10570000000E+00 0. -1.
<mgrwt>
<rscale>  0 0.12499990E+03</rscale>
<asrwt>0</asrwt>
<pdfrwt beam="1">  1        1 0.21376764E-02 0.12499990E+03</pdfrwt>
<pdfrwt beam="2">  1       -1 0.43250455E-01 0.12499990E+03</pdfrwt>
<totfact> 0.27007888E+04</totfact>
</mgrwt>
</event>
<event>
 5    1  0.1336420E-049  0.1249971E+03  0.7818608E-02  0.1235074E+00
          1   -1    0    0  501    0  0.00000000000E+00  0.00000000000E+00  0.82831002159E+02  0.82831002290E+02  0.46700000000E-02 0. -1.
         -1   -1    0    0    0  501 -0.00000000000E+00 -0.00000000000E+00 -0.47157085663E+02  0.47157085894E+02  0.46700000000E-02 0.  1.
         25    2    1    2    0    0  0.00000000000E+00  0.00000000000E+00  0.35673916496E+02  0.12998808818E+03  0.12499709897E+03 0.  0.
        -13    1    3    3    0    0  0.44411070533E+02 -0.34718246162E+02 -0.10228748590E+02  0.57291694622E+02  0.10570000000E+00 0.  1.
         13    1    3    3    0    0 -0.44411070533E+02  0.34718246162E+02  0.45902665086E+02  0.72696393562E+02  0.10570000000E+00 0. -1.
<mgrwt>
<rscale>  0 0.12499710E+03</rscale>
<asrwt>0</asrwt>
<pdfrwt beam="1">  1        1 0.12743231E-01 0.12499710E+03</pdfrwt>
<pdfrwt beam="2">  1       -1 0.72549363E-02 0.12499710E+03</pdfrwt>
<totfact> 0.41788643E+04</totfact>
</mgrwt>
</event>
<event>
 5    1  0.1336420E-049  0.1250022E+03  0.7818608E-02  0.1235066E+00
          1   -1    0    0  501    0  0.00000000000E+00  0.00000000000E+00  0.27769322749E+03  0.27769322753E+03  0.46700000000E-02 0. -1.
         -1   -1    0    0    0  501 -0.00000000000E+00 -0.00000000000E+00 -0.14067277918E+02  0.14067278693E+02  0.46700000000E-02 0.  1.
         25    2    1    2    0    0  0.00000000000E+00  0.00000000000E+00  0.26362594958E+03  0.29176050623E+03  0.12500220680E+03 0.  0.
        -13    1    3    3    0    0  0.19324023936E+02 -0.45318728199E+02  0.22158026641E+03  0.22699125679E+03  0.10570000000E+00 0. -1.
         13    1    3    3    0    0 -0.19324023936E+02  0.45318728199E+02  0.42045683168E+02  0.64769249434E+02  0.10570000000E+00 0.  1.
<mgrwt>
<rscale>  0 0.12500221E+03</rscale>
<asrwt>0</asrwt>
<pdfrwt beam="1">  1        1 0.42722038E-01 0.12500221E+03</pdfrwt>
<pdfrwt beam="2">  1       -1 0.21641965E-02 0.12500221E+03</pdfrwt>
<totfact> 0.53616273E+04</totfact>
</mgrwt>
</event>
<event>
 5    1  0.1336420E-049  0.1250010E+03  0.7818608E-02  0.1235068E+00
         -1   -1    0    0    0  501 -0.00000000000E+00  0.00000000000E+00  0.49099936095E+02  0.49099936317E+02  0.46700000000E-02 0.  1.
          1   -1    0    0  501    0  0.00000000000E+00 -0.00000000000E+00 -0.79558376775E+02  0.79558376912E+02  0.46700000000E-02 0. -1.
         25    2    1    2    0    0  0.00000000000E+00  0.00000000000E+00 -0.30458440680E+02  0.12865831323E+03  0.12500097981E+03 0.  0.
        -13    1    3    3    0    0 -0.24199355841E+00 -0.58289462793E+02  0.79823267936E+01  0.58834078110E+02  0.10570000000E+00 0. -1.
         13    1    3    3    0    0  0.24199355841E+00  0.58289462793E+02 -0.38440767474E+02  0.69824235119E+02  0.10570000000E+00 0.  1.
<mgrwt>
<rscale>  0 0.12500098E+03</rscale>
<asrwt>0</asrwt>
<pdfrwt beam="2">  1        1 0.12239750E-01 0.12500098E+03</pdfrwt>
<pdfrwt beam="1">  1       -1 0.75538364E-02 0.12500098E+03</pdfrwt>
<totfact> 0.41459529E+04</totfact>
</mgrwt>
</event>
<event>
 5    1  0.1336420E-049  0.1249983E+03  0.7818608E-02  0.1235072E+00
         -1   -1    0    0    0  501 -0.00000000000E+00  0.00000000000E+00  0.28062817328E+03  0.28062817332E+03  0.46700000000E-02 0. -1.
          1   -1    0    0  501    0  0.00000000000E+00 -0.00000000000E+00 -0.13919285561E+02  0.13919286344E+02  0.46700000000E-02 0.  1.
         25    2    1    2    0    0  0.00000000000E+00  0.00000000000E+00  0.26670888772E+03  0.29454745966E+03  0.12499830081E+03 0.  0.
        -13    1    3    3    0    0  0.22163877320E+02  0.56214192200E+02  0.17097297313E+03  0.18133681804E+03  0.10570000000E+00 0. -1.
         13    1    3    3    0    0 -0.22163877320E+02 -0.56214192200E+02  0.95735914587E+02  0.11321064162E+03  0.10570000000E+00 0.  1.
<mgrwt>
<rscale>  0 0.12499830E+03</rscale>
<asrwt>0</asrwt>
<pdfrwt beam="2">  1        1 0.21414287E-02 0.12499830E+03</pdfrwt>
<pdfrwt beam="1">  1       -1 0.43173563E-01 0.12499830E+03</pdfrwt>
<totfact> 0.27027210E+04</totfact>
</mgrwt>
</event>
<event>
 5    1  0.1336420E-049  0.1250003E+03  0.7818608E-02  0.1235069E+00
         -1   -1    0    0    0  501 -0.00000000000E+00  0.00000000000E+00  0.27928011490E+02  0.27928011880E+02  0.46700000000E-02 0.  1.
          1   -1    0    0  501    0  0.00000000000E+00 -0.00000000000E+00 -0.13986926953E+03  0.13986926961E+03  0.46700000000E-02 0. -1.
         25    2    1    2    0    0  0.00000000000E+00  0.00000000000E+00 -0.11194125804E+03  0.16779728149E+03  0.12500032969E+03 0.  0.
        -13    1    3    3    0    0 -0.20531146909E+02 -0.58650704854E+02 -0.46983106013E+02  0.77902866420E+02  0.10570000000E+00 0.  1.
         13    1    3    3    0    0  0.20531146909E+02  0.58650704854E+02 -0.64958152030E+02  0.89894415071E+02  0.10570000000E+00 0. -1.
<mgrwt>
<rscale>  0 0.12500033E+03</rscale>
<asrwt>0</asrwt>
<pdfrwt beam="2">  1        1 0.21518349E-01 0.12500033E+03</pdfrwt>
<pdfrwt beam="1">  1       -1 0.42966173E-02 0.12500033E+03</pdfrwt>
<totfact> 0.46386795E+04</totfact>
</mgrwt>
</event>
<event>
 5    1  0.1336420E-049  0.1249997E+03  0.7818608E-02  0.1235070E+00
         -1   -1    0    0    0  501 -0.00000000000E+00  0.00000000000E+00  0.95244320700E+01  0.95244332148E+01  0.46700000000E-02 0.  1.
          1   -1    0    0  501    0  0.00000000000E+00 -0.00000000000E+00 -0.41012767304E+03  0.41012767307E+03  0.46700000000E-02 0. -1.
         25    2    1    2    0    0  0.00000000000E+00  0.00000000000E+00 -0.40060324097E+03  0.41965210628E+03  0.12499973452E+03 0.  0.
        -13    1    3    3    0    0 -0.51047216207E+02 -0.33111159082E+02 -0.15234439603E+03  0.16404570495E+03  0.10570000000E+00 0.  1.
         13    1    3    3    0    0  0.51047216207E+02  0.33111159082E+02 -0.24825884495E+03  0.25560640134E+03  0.10570000000E+00 0. -1.
<mgrwt>
<rscale>  0 0.12499973E+03</rscale>
<asrwt>0</asrwt>
<pdfrwt beam="2">  1        1 0.63096551E-01 0.12499973E+03</pdfrwt>
<pdfrwt beam="1">  1       -1 0.14652977E-02 0.12499973E+03</pdfrwt>
<totfact> 0.57821285E+04</totfact>
</mgrwt>
</event>
<event>
 5    1  0.1336420E-049  0.1249996E+03  0.7818608E-02  0.1235070E+00
          1   -1    0    0  501    0  0.00000000000E+00  0.00000000000E+00  0.32373968254E+02  0.32373968591E+02  0.46700000000E-02 0. -1.
         -1   -1    0    0    0  501 -0.00000000000E+00 -0.00000000000E+00 -0.12065949209E+03  0.12065949218E+03  0.46700000000E-02 0.  1.
         25    2    1    2    0    0  0.00000000000E+00  0.00000000000E+00 -0.88285523835E+02  0.15303346077E+03  0.12499962559E+03 0.  0.
        -13    1    3    3    0    0 -0.51916799907E+02  0.11623596258E+02 -0.84297244668E+02  0.99681988010E+02  0.10570000000E+00 0.  1.
         13    1    3    3    0    0  0.51916799907E+02 -0.11623596258E+02 -0.39882791674E+01  0.53351472761E+02  0.10570000000E+00 0. -1.
<mgrwt>
<rscale>  0 0.12499963E+03</rscale>
<asrwt>0</asrwt>
<pdfrwt beam="1">  1        1 0.49806106E-02 0.12499963E+03</pdfrwt>
<pdfrwt beam="2">  1       -1 0.18562999E-01 0.12499963E+03</pdfrwt>
<totfact> 0.34548692E+04</totfact>
</mgrwt>
</event>
<event>
 5    1  0.1336420E-049  0.1250001E+03  0.7818608E-02  0.1235069E+00
         -1   -1    0    0    0  501 -0.00000000000E+00  0.00000000000E+00  0.10456990160E+03  0.10456990170E+03  0.46700000000E-02 0.  1.
          1   -1    0    0  501    0  0.00000000000E+00 -0.00000000000E+00 -0.37355431156E+02  0.37355431448E+02  0.46700000000E-02 0. -1.
         25    2    1    2    0    0  0.00000000000E+00  0.00000000000E+00  0.67214470444E+02  0.14192533315E+03  0.12500006061E+03 0.  0.
        -13    1    3    3    0    0 -0.68616115747E+01 -0.38892753973E+02  0.88607062833E+02  0.97010055053E+02  0.10570000000E+00 0.  1.
         13    1    3    3    0    0  0.68616115747E+01  0.38892753973E+02 -0.21392592389E+02  0.44915278098E+02  0.10570000000E+00 0. -1.
<mgrwt>
<rscale>  0 0.12500006E+03</rscale>
<asrwt>0</asrwt>
<pdfrwt beam="2">  1        1 0.57469895E-02 0.12500006E+03</pdfrwt>
<pdfrwt beam="1">  1       -1 0.16087677E-01 0.12500006E+03</pdfrwt>
<totfact> 0.35658638E+04</totfact>
</mgrwt>
</event>
<event>
 5    1  0.1336420E-049  0.1249673E+03  0.7818608E-02  0.1235120E+00
         -1   -1    0    0    0  501 -0.00000000000E+00  0.00000000000E+00  0.18833800920E+03  0.18833800926E+03  0.46700000000E-02 0.  1.
          1   -1    0    0  501    0  0.00000000000E+00 -0.00000000000E+00 -0.20729774978E+02  0.20729775504E+02  0.46700000000E-02 0. -1.
         25    2    1    2    0    0  0.00000000000E+00  0.00000000000E+00  0.16760823422E+03  0.20906778476E+03  0.12496726950E+03 0.  0.
        -13    1    3    3    0    0 -0.53633531567E+02  0.18174754284E+02  0.12798207772E+03  0.13995106570E+03  0.10570000000E+00 0.  1.
         13    1    3    3    0    0  0.53633531567E+02 -0.18174754284E+02  0.39626156500E+02  0.69116719056E+02  0.10570000000E+00 0. -1.
<mgrwt>
<rscale>  0 0.12496727E+03</rscale>
<asrwt>0</asrwt>
<pdfrwt beam="2">  1        1 0.31891963E-02 0.12496727E+03</pdfrwt>
<pdfrwt beam="1">  1       -1 0.28975077E-01 0.12496727E+03</pdfrwt>
<totfact> 0.30866576E+04</totfact>
</mgrwt>
</event>
<event>
 5    1  0.1336420E-049  0.1250016E+03  0.7818608E-02  0.1235067E+00
          1   -1    0    0  501    0  0.00000000000E+00  0.00000000000E+00  0.40037430665E+03  0.40037430668E+03  0.46700000000E-02 0. -1.
         -1   -1    0    0    0  501 -0.00000000000E+00 -0.00000000000E+00 -0.97567514347E+01  0.97567525523E+01  0.46700000000E-02 0.  1.
         25    2    1    2    0    0  0.00000000000E+00  0.00000000000E+00  0.39061755522E+03  0.41013105923E+03  0.12500164520E+03 0.  0.
        -13    1    3    3    0    0  0.33662456278E+02  0.49897394110E+02  0.25054581976E+03  0.25767446492E+03  0.10570000000E+00 0. -1.
         13    1    3    3    0    0 -0.33662456278E+02 -0.49897394110E+02  0.14007173546E+03  0.15245659431E+03  0.10570000000E+00 0.  1.
<mgrwt>
<rscale>  0 0.12500165E+03</rscale>
<asrwt>0</asrwt>
<pdfrwt beam="1">  1        1 0.61596039E-01 0.12500165E+03</pdfrwt>
<pdfrwt beam="2">  1       -1 0.15010390E-02 0.12500165E+03</pdfrwt>
<totfact> 0.57579295E+04</totfact>
</mgrwt>
</event>
<event>
 5    1  0.1336420E-049  0.1249954E+03  0.7818608E-02  0.1235076E+00
          1   -1    0    0  501    0  0.00000000000E+00  0.00000000000E+00  0.21860074214E+03  0.21860074219E+03  0.46700000000E-02 0. -1.
         -1   -1    0    0    0  501 -0.00000000000E+00 -0.00000000000E+00 -0.17868030943E+02  0.17868031553E+02  0.46700000000E-02 0.  1.
         25    2    1    2    0    0  0.00000000000E+00  0.00000000000E+00  0.20073271120E+03  0.23646877375E+03  0.12499543836E+03 0.  0.
        -13    1    3    3    0    0 -0.36261480020E+02 -0.28525345331E+02  0.18012316284E+03  0.18593804136E+03  0.10570000000E+00 0. -1.
         13    1    3    3    0    0  0.36261480020E+02  0.28525345331E+02  0.20609548357E+02  0.50530732386E+02  0.10570000000E+00 0.  1.
<mgrwt>
<rscale>  0 0.12499544E+03</rscale>
<asrwt>0</asrwt>
<pdfrwt beam="1">  1        1 0.33630885E-01 0.12499544E+03</pdfrwt>
<pdfrwt beam="2">  1       -1 0.27489278E-02 0.12499544E+03</pdfrwt>
<totfact> 0.50972582E+04</totfact>
</mgrwt>
</event>
<event>
 5    1  0.1336420E-049  0.1250020E+03  0.7818608E-02  0.1235066E+00
          1   -1    0    0  501    0  0.00000000000E+00  0.00000000000E+00  0.91019331696E+02  0.91019331815E+02  0.46700000000E-02 0. -1.
         -1   -1    0    0    0  501 -0.00000000000E+00 -0.00000000000E+00 -0.42918060919E+02  0.42918061173E+02  0.46700000000E-02 0.  1.
         25    2    1    2    0    0  0.00000000000E+00  0.00000000000E+00  0.48101270777E+02  0.13393739299E+03  0.12500197195E+03 0.  0.
        -13    1    3    3    0    0  0.98499735301E+01 -0.54182347187E+02  0.55720383427E+02  0.78342332279E+02  0.10570000000E+00 0. -1.
         13    1    3    3    0    0 -0.98499735301E+01  0.54182347187E+02 -0.76191126504E+01  0.55595060709E+02  0.10570000000E+00 0.  1.
<mgrwt>
<rscale>  0 0.12500197E+03</rscale>
<asrwt>0</asrwt>
<pdfrwt beam="1">  1        1 0.14002974E-01 0.12500197E+03</pdfrwt>
<pdfrwt beam="2">  1       -1 0.66027788E-02 0.12500197E+03</pdfrwt>
<totfact> 0.42558903E+04</totfact>
</mgrwt>
</event>
<event>
 5    1  0.1336420E-049  0.1250024E+03  0.7818608E-02  0.1235066E+00
         -1   -1    0    0    0  501 -0.00000000000E+00  0.00000000000E+00  0.35033560871E+02  0.35033561182E+02  0.46700000000E-02 0.  1.
          1   -1    0    0  501    0  0.00000000000E+00 -0.00000000000E+00 -0.11150452832E+03  0.11150452841E+03  0.46700000000E-02 0. -1.
         25    2    1    2    0    0  0.00000000000E+00  0.00000000000E+00 -0.76470967445E+02  0.14653808960E+03  0.12500241134E+03 0.  0.
        -13    1    3    3    0    0 -0.32149090962E+02 -0.45141243910E+02 -0.43588921083E+01  0.55590530348E+02  0.10570000000E+00 0.  1.
         13    1    3    3    0    0  0.32149090962E+02  0.45141243910E+02 -0.72112075337E+02  0.90947559249E+02  0.10570000000E+00 0. -1.
<mgrwt>
<rscale>  0 0.12500241E+03</rscale>
<asrwt>0</asrwt>
<pdfrwt beam="2">  1        1 0.17154543E-01 0.12500241E+03</pdfrwt>
<pdfrwt beam="1">  1       -1 0.53897787E-02 0.12500241E+03</pdfrwt>
<totfact> 0.44299244E+04</totfact>
</mgrwt>
</event>
<event>
 5    1  0.1336420E-049  0.1249922E+03  0.7818608E-02  0.1235082E+00
          1   -1    0    0  501    0  0.00000000000E+00  0.00000000000E+00  0.83934298153E+02  0.83934298282E+02  0.46700000000E-02 0. -1.
         -1   -1    0    0    0  501 -0.00000000000E+00 -0.00000000000E+00 -0.46533533423E+02  0.46533533657E+02  0.46700000000E-02 0.  1.
         25    2    1    2    0    0  0.00000000000E+00  0.00000000000E+00  0.37400764730E+02  0.13046783194E+03  0.12499215163E+03 0.  0.
        -13    1    3    3    0    0 -0.18123895844E+02 -0.43635434977E+02 -0.23996623778E+02  0.52994112045E+02  0.10570000000E+00 0.  1.
         13    1    3    3    0    0  0.18123895844E+02  0.43635434977E+02  0.61397388508E+02  0.77473719894E+02  0.10570000000E+00 0. -1.
<mgrwt>
<rscale>  0 0.12499215E+03</rscale>
<asrwt>0</asrwt>
<pdfrwt beam="1">  1        1 0.12912969E-01 0.12499215E+03</pdfrwt>
<pdfrwt beam="2">  1       -1 0.71590053E-02 0.12499215E+03</pdfrwt>
<totfact> 0.41900929E+04</totfact>
</mgrwt>
</event>
<event>
 5    1  0.1336420E-049  0.1249993E+03  0.7818608E-02  0.1235070E+00
          1   -1    0    0  501    0  0.00000000000E+00  0.00000000000E+00  0.11636463491E+03  0.11636463501E+03  0.46700000000E-02 0. -1.
         -1   -1    0    0    0  501 -0.00000000000E+00 -0.00000000000E+00 -0.33568692252E+02  0.33568692576E+02  0.46700000000E-02 0.  1.
         25    2    1    2    0    0  0.00000000000E+00  0.00000000000E+00  0.82795942663E+02  0.14993332759E+03  0.12499933840E+03 0.  0.
        -13    1    3    3    0    0  0.52912734054E+02  0.10170375001E+02  0.34103854490E+01  0.53989219796E+02  0.10570000000E+00 0.  1.
         13    1    3    3    0    0 -0.52912734054E+02 -0.10170375001E+02  0.79385557214E+02  0.95944107789E+02  0.10570000000E+00 0. -1.
<mgrwt>
<rscale>  0 0.12499934E+03</rscale>
<asrwt>0</asrwt>
<pdfrwt beam="1">  1        1 0.17902251E-01 0.12499934E+03</pdfrwt>
<pdfrwt beam="2">  1       -1 0.51644143E-02 0.12499934E+03</pdfrwt>
<totfact> 0.44682344E+04</totfact>
</mgrwt>
</event>
<event>
 5    1  0.1336420E-049  0.1249982E+03  0.7818608E-02  0.1235072E+00
          1   -1    0    0  501    0  0.00000000000E+00  0.00000000000E+00  0.10662204861E+03  0.10662204871E+03  0.46700000000E-02 0. -1.
         -1   -1    0    0    0  501 -0.00000000000E+00 -0.00000000000E+00 -0.36635342556E+02  0.36635342854E+02  0.46700000000E-02 0.  1.
         25    2    1    2    0    0  0.00000000000E+00  0.00000000000E+00  0.69986706055E+02  0.14325739157E+03  0.12499816484E+03 0.  0.
        -13    1    3    3    0    0  0.50959516662E+02  0.38263503982E+01 -0.62432632078E+01  0.51483034135E+02  0.10570000000E+00 0.  1.
         13    1    3    3    0    0 -0.50959516662E+02 -0.38263503982E+01  0.76229969262E+02  0.91774357432E+02  0.10570000000E+00 0. -1.
<mgrwt>
<rscale>  0 0.12499816E+03</rscale>
<asrwt>0</asrwt>
<pdfrwt beam="1">  1        1 0.16403392E-01 0.12499816E+03</pdfrwt>
<pdfrwt beam="2">  1       -1 0.56362067E-02 0.12499816E+03</pdfrwt>
<totfact> 0.43910284E+04</totfact>
</mgrwt>
</event>
<event>
 5    1  0.1336420E-049  0.1250019E+03  0.7818608E-02  0.1235066E+00
          1   -1    0    0  501    0  0.00000000000E+00  0.00000000000E+00  0.24961858690E+03  0.24961858694E+03  0.46700000000E-02 0. -1.
         -1   -1    0    0    0  501 -0.00000000000E+00 -0.00000000000E+00 -0.15649353727E+02  0.15649354424E+02  0.46700000000E-02 0.  1.
         25    2    1    2    0    0  0.00000000000E+00  0.00000000000E+00  0.23396923317E+03  0.26526794137E+03  0.12500191457E+03 0.  0.
        -13    1    3    3    0    0  0.38052634747E+02 -0.49444581831E+02  0.12480735382E+03  0.13953371071E+03  0.10570000000E+00 0.  1.
         13    1    3    3    0    0 -0.38052634747E+02  0.49444581831E+02  0.10916187935E+03  0.12573423066E+03  0.10570000000E+00 0. -1.
<mgrwt>
<rscale>  0 0.12500191E+03</rscale>
<asrwt>0</asrwt>
<pdfrwt beam="1">  1        1 0.38402858E-01 0.12500191E+03</pdfrwt>
<pdfrwt beam="2">  1       -1 0.24075930E-02 0.12500191E+03</pdfrwt>
<totfact> 0.52423872E+04</totfact>
</mgrwt>
</event>
<event>
 5    1  0.1336420E-049  0.1249992E+03  0.7818608E-02  0.1235071E+00
         -1   -1    0    0    0  501 -0.00000000000E+00  0.00000000000E+00  0.35497513150E+02  0.35497513457E+02  0.46700000000E-02 0.  1.
          1   -1    0    0  501    0  0.00000000000E+00 -0.00000000000E+00 -0.11004143539E+03  0.11004143549E+03  0.46700000000E-02 0. -1.
         25    2    1    2    0    0  0.00000000000E+00  0.00000000000E+00 -0.74543922243E+02  0.14553894895E+03  0.12499915727E+03 0.  0.
        -13    1    3    3    0    0  0.23790932467E+02 -0.32621152609E+02  0.18275205642E+02  0.44318645951E+02  0.10570000000E+00 0.  1.
         13    1    3    3    0    0 -0.23790932467E+02  0.32621152609E+02 -0.92819127885E+02  0.10122030300E+03  0.10570000000E+00 0. -1.
<mgrwt>
<rscale>  0 0.12499916E+03</rscale>
<asrwt>0</asrwt>
<pdfrwt beam="2">  1        1 0.16929451E-01 0.12499916E+03</pdfrwt>
<pdfrwt beam="1">  1       -1 0.54611560E-02 0.12499916E+03</pdfrwt>
<totfact> 0.44185932E+04</totfact>
</mgrwt>
</event>
<event>
 5    1  0.1336420E-049  0.1250083E+03  0.7818608E-02  0.1235056E+00
         -1   -1    0    0    0  501 -0.00000000000E+00  0.00000000000E+00  0.29728948051E+02  0.29728948417E+02  0.46700000000E-02 0.  1.
          1   -1    0    0  501    0  0.00000000000E+00 -0.00000000000E+00 -0.13141291096E+03  0.13141291104E+03  0.46700000000E-02 0. -1.
         25    2    1    2    0    0  0.00000000000E+00  0.00000000000E+00 -0.10168396291E+03  0.16114185946E+03  0.12500828195E+03 0.  0.
        -13    1    3    3    0    0  0.46380863159E+02  0.18793816208E+02 -0.25694544055E+01  0.50109931784E+02  0.10570000000E+00 0. -1.
         13    1    3    3    0    0 -0.46380863159E+02 -0.18793816208E+02 -0.99114508503E+02  0.11103192768E+03  0.10570000000E+00 0.  1.
<mgrwt>
<rscale>  0 0.12500828E+03</rscale>
<asrwt>0</asrwt>
<pdfrwt beam="2">  1        1 0.20217371E-01 0.12500828E+03</pdfrwt>
<pdfrwt beam="1">  1       -1 0.45736844E-02 0.12500828E+03</pdfrwt>
<totfact> 0.45788299E+04</totfact>
</mgrwt>
</event>
<event>
 5    1  0.1336420E-049  0.1250006E+03  0.7818608E-02  0.1235068E+00
          1   -1    0    0  501    0  0.00000000000E+00  0.00000000000E+00  0.19684076500E+03  0.19684076506E+03  0.46700000000E-02 0. -1.
         -1   -1    0    0    0  501 -0.00000000000E+00 -0.00000000000E+00 -0.19844907130E+02  0.19844907680E+02  0.46700000000E-02 0.  1.
         25    2    1    2    0    0  0.00000000000E+00  0.00000000000E+00  0.17699585787E+03  0.21668567274E+03  0.12500058826E+03 0.  0.
        -13    1    3    3    0    0 -0.27660642206E+02  0.21973982264E+02 -0.87805492024E+00  0.35337645319E+02  0.10570000000E+00 0.  1.
         13    1    3    3    0    0  0.27660642206E+02 -0.21973982264E+02  0.17787391279E+03  0.18134802742E+03  0.10570000000E+00 0. -1.
<mgrwt>
<rscale>  0 0.12500059E+03</rscale>
<asrwt>0</asrwt>
<pdfrwt beam="1">  1        1 0.30283193E-01 0.12500059E+03</pdfrwt>
<pdfrwt beam="2">  1       -1 0.30530629E-02 0.12500059E+03</pdfrwt>
<totfact> 0.49838001E+04</totfact>
</mgrwt>
</event>
<event>
 5    1  0.1336420E-049  0.1249899E+03  0.7818608E-02  0.1235085E+00
          1   -1    0    0  501    0  0.00000000000E+00  0.00000000000E+00  0.10567291928E+03  0.10567291939E+03  0.46700000000E-02 0. -1.
         -1   -1    0    0    0  501 -0.00000000000E+00 -0.00000000000E+00 -0.36959489229E+02  0.36959489524E+02  0.46700000000E-02 0.  1.
         25    2    1    2    0    0  0.00000000000E+00  0.00000000000E+00  0.68713430054E+02  0.14263240891E+03  0.12498987400E+03 0.  0.
        -13    1    3    3    0    0 -0.41153696212E+02  0.45835902303E+02  0.22331264649E+02  0.65522921220E+02  0.10570000000E+00 0.  1.
         13    1    3    3    0    0  0.41153696212E+02 -0.45835902303E+02  0.46382165405E+02  0.77109487691E+02  0.10570000000E+00 0. -1.
<mgrwt>
<rscale>  0 0.12498987E+03</rscale>
<asrwt>0</asrwt>
<pdfrwt beam="1">  1        1 0.16257372E-01 0.12498987E+03</pdfrwt>
<pdfrwt beam="2">  1       -1 0.56860754E-02 0.12498987E+03</pdfrwt>
<totfact> 0.43840690E+04</totfact>
</mgrwt>
</event>
<event>
 5    1  0.1336420E-049  0.1250067E+03  0.7818608E-02  0.1235059E+00
         -1   -1    0    0    0  501 -0.00000000000E+00  0.00000000000E+00  0.29860788826E+03  0.29860788830E+03  0.46700000000E-02 0.  1.
          1   -1    0    0  501    0  0.00000000000E+00 -0.00000000000E+00 -0.13082933573E+02  0.13082934406E+02  0.46700000000E-02 0. -1.
         25    2    1    2    0    0  0.00000000000E+00  0.00000000000E+00  0.28552495469E+03  0.31169082270E+03  0.12500667665E+03 0.  0.
        -13    1    3    3    0    0 -0.96567034803E+01  0.44253499373E+02  0.25015313668E+03  0.25422082348E+03  0.10570000000E+00 0.  1.
         13    1    3    3    0    0  0.96567034803E+01 -0.44253499373E+02  0.35371818011E+02  0.57469999223E+02  0.10570000000E+00 0. -1.
<mgrwt>
<rscale>  0 0.12500668E+03</rscale>
<asrwt>0</asrwt>
<pdfrwt beam="2">  1        1 0.20127592E-02 0.12500668E+03</pdfrwt>
<pdfrwt beam="1">  1       -1 0.45939672E-01 0.12500668E+03</pdfrwt>
<totfact> 0.26372890E+04</totfact>
</mgrwt>
</event>
