<event>
 4    1  0.2126213E+000  0.3122435E+02  0.7546771E-02  0.1584936E+00
         -2   -1    0    0    0  501 -0.00000000000E+00  0.00000000000E+00  0.80959847636E+01  0.80959847636E+01  0.00000000000E+00 0. -1.
          2   -1    0    0  501    0  0.00000000000E+00 -0.00000000000E+00 -0.30106278588E+02  0.30106278588E+02  0.00000000000E+00 0.  1.
        -11    1    1    2    0    0 -0.13797131263E+02  0.61659077807E+01 -0.62100040956E+01  0.16338402637E+02  0.00000000000E+00 0. -1.
         11    1    1    2    0    0  0.13797131263E+02 -0.61659077807E+01 -0.15800289729E+02  0.21863860715E+02  0.00000000000E+00 0.  1.
<mgrwt>
<rscale>  0 0.31224348E+02</rscale>
<asrwt>0</asrwt>
<pdfrwt beam="2">  1        2 0.46317351E-02 0.31224348E+02</pdfrwt>
<pdfrwt beam="1">  1       -2 0.12455361E-02 0.31224348E+02</pdfrwt>
<totfact> 0.15355861E+06</totfact>
</mgrwt>
</event>
<event>
 4    1  0.2126213E+000  0.2987547E+02  0.7546771E-02  0.1599469E+00
         -2   -1    0    0    0  501 -0.00000000000E+00  0.00000000000E+00  0.66371747706E+01  0.66371747706E+01  0.00000000000E+00 0. -1.
          2   -1    0    0  501    0  0.00000000000E+00 -0.00000000000E+00 -0.33619121193E+02  0.33619121193E+02  0.00000000000E+00 0.  1.
        -11    1    1    2    0    0  0.10788481545E+02  0.15016089691E+01  0.28289745885E+00  0.10896155034E+02  0.00000000000E+00 0. -1.
         11    1    1    2    0    0 -0.10788481545E+02 -0.15016089691E+01 -0.27264843881E+02  0.29360140930E+02  0.00000000000E+00 0.  1.
<mgrwt>
<rscale>  0 0.29875474E+02</rscale>
<asrwt>0</asrwt>
<pdfrwt beam="2">  1        2 0.51721725E-02 0.29875474E+02</pdfrwt>
<pdfrwt beam="1">  1       -2 0.10211038E-02 0.29875474E+02</pdfrwt>
<totfact> 0.17325436E+06</totfact>
</mgrwt>
</event>
<event>
 4    1  0.2126213E+000  0.9465637E+02  0.7546771E-02  0.1291952E+00
          2   -1    0    0  501    0  0.00000000000E+00  0.00000000000E+00  0.26232490236E+02  0.26232490236E+02  0.00000000000E+00 0. -1.
         -2   -1    0    0    0  501 -0.00000000000E+00 -0.00000000000E+00 -0.85388651689E+02  0.85388651689E+02  0.00000000000E+00 0.  1.
        -11    1    1    2    0    0  0.26350102159E+02 -0.33243111879E+02 -0.54328451576E+02  0.68927592601E+02  0.00000000000E+00 0.  1.
         11    1    1    2    0    0 -0.26350102159E+02  0.33243111879E+02 -0.48277098768E+01  0.42693549324E+02  0.00000000000E+00 0. -1.
<mgrwt>
<rscale>  0 0.94656367E+02</rscale>
<asrwt>0</asrwt>
<pdfrwt beam="1">  1        2 0.40357678E-02 0.94656367E+02</pdfrwt>
<pdfrwt beam="2">  1       -2 0.13136715E-01 0.94656367E+02</pdfrwt>
<totfact> 0.76171769E+04</totfact>
</mgrwt>
</event>
<event>
 4    1  0.2126213E+000  0.2446237E+02  0.7546771E-02  0.1668846E+00
          2   -1    0    0  501    0  0.00000000000E+00  0.00000000000E+00  0.50624776042E+02  0.50624776042E+02  0.00000000000E+00 0. -1.
         -2   -1    0    0    0  501 -0.00000000000E+00 -0.00000000000E+00 -0.29551127180E+01  0.29551127180E+01  0.00000000000E+00 0.  1.
        -11    1    1    2    0    0 -0.11480376161E+02 -0.21802392135E+01  0.15922596957E+02  0.19750482872E+02  0.00000000000E+00 0. -1.
         11    1    1    2    0    0  0.11480376161E+02  0.21802392135E+01  0.31747066367E+02  0.33829405888E+02  0.00000000000E+00 0.  1.
<mgrwt>
<rscale>  0 0.24462373E+02</rscale>
<asrwt>0</asrwt>
<pdfrwt beam="1">  1        2 0.77884264E-02 0.24462373E+02</pdfrwt>
<pdfrwt beam="2">  1       -2 0.45463276E-03 0.24462373E+02</pdfrwt>
<totfact> 0.29399054E+06</totfact>
</mgrwt>
</event>
<event>
 4    1  0.2126213E+000  0.6340856E+02  0.7546771E-02  0.1384060E+00
         -1   -1    0    0    0  501 -0.00000000000E+00  0.00000000000E+00  0.11430149899E+02  0.11430149899E+02  0.00000000000E+00 0.  1.
          1   -1    0    0  501    0  0.00000000000E+00 -0.00000000000E+00 -0.87939471634E+02  0.87939471634E+02  0.00000000000E+00 0. -1.
        -13    1    1    2    0    0  0.27787883742E+01 -0.23407092324E+02 -0.71481853137E+02  0.75267981000E+02  0.00000000000E+00 0. -1.
         13    1    1    2    0    0 -0.27787883742E+01  0.23407092324E+02 -0.50274685982E+01  0.24101640533E+02  0.00000000000E+00 0.  1.
<mgrwt>
<rscale>  0 0.63408559E+02</rscale>
<asrwt>0</asrwt>
<pdfrwt beam="2">  1        1 0.13529149E-01 0.63408559E+02</pdfrwt>
<pdfrwt beam="1">  1       -1 0.17584846E-02 0.63408559E+02</pdfrwt>
<totfact> 0.26978610E+05</totfact>
</mgrwt>
</event>
<event>
 4    1  0.2126213E+000  0.3069689E+02  0.7546771E-02  0.1590511E+00
          2   -1    0    0  501    0  0.00000000000E+00  0.00000000000E+00  0.70737034946E+02  0.70737034946E+02  0.00000000000E+00 0.  1.
         -2   -1    0    0    0  501 -0.00000000000E+00 -0.00000000000E+00 -0.33302889394E+01  0.33302889394E+01  0.00000000000E+00 0. -1.
        -11    1    1    2    0    0  0.10542296275E+02 -0.62365530016E+01  0.11387324014E+02  0.16724405888E+02  0.00000000000E+00 0. -1.
         11    1    1    2    0    0 -0.10542296275E+02  0.62365530016E+01  0.56019421992E+02  0.57342917997E+02  0.00000000000E+00 0.  1.
<mgrwt>
<rscale>  0 0.30696890E+02</rscale>
<asrwt>0</asrwt>
<pdfrwt beam="1">  1        2 0.10882620E-01 0.30696890E+02</pdfrwt>
<pdfrwt beam="2">  1       -2 0.51235220E-03 0.30696890E+02</pdfrwt>
<totfact> 0.18334741E+06</totfact>
</mgrwt>
</event>
<event>
 4    1  0.2126213E+000  0.2335830E+02  0.7546771E-02  0.1685767E+00
          2   -1    0    0  501    0  0.00000000000E+00  0.00000000000E+00  0.85888981339E+01  0.85888981339E+01  0.00000000000E+00 0. -1.
         -2   -1    0    0    0  501 -0.00000000000E+00 -0.00000000000E+00 -0.15881256060E+02  0.15881256060E+02  0.00000000000E+00 0.  1.
        -11    1    1    2    0    0 -0.59780594987E+01  0.91881961124E+01  0.57583784047E+00  0.10976872614E+02  0.00000000000E+00 0. -1.
         11    1    1    2    0    0  0.59780594987E+01 -0.91881961124E+01 -0.78681957670E+01  0.13493281580E+02  0.00000000000E+00 0.  1.
<mgrwt>
<rscale>  0 0.23358295E+02</rscale>
<asrwt>0</asrwt>
<pdfrwt beam="1">  1        2 0.13213689E-02 0.23358295E+02</pdfrwt>
<pdfrwt beam="2">  1       -2 0.24432702E-02 0.23358295E+02</pdfrwt>
<totfact> 0.27167660E+06</totfact>
</mgrwt>
</event>
<event>
 4    1  0.2126213E+000  0.3248071E+02  0.7546771E-02  0.1572182E+00
         -2   -1    0    0    0  501 -0.00000000000E+00  0.00000000000E+00  0.21990613194E+02  0.21990613194E+02  0.00000000000E+00 0.  1.
          2   -1    0    0  501    0  0.00000000000E+00 -0.00000000000E+00 -0.11993712329E+02  0.11993712329E+02  0.00000000000E+00 0. -1.
        -11    1    1    2    0    0  0.52695076243E+01 -0.10467131678E+02  0.16762639160E+02  0.20452741327E+02  0.00000000000E+00 0.  1.
         11    1    1    2    0    0 -0.52695076243E+01  0.10467131678E+02 -0.67657382951E+01  0.13531584196E+02  0.00000000000E+00 0. -1.
<mgrwt>
<rscale>  0 0.32480707E+02</rscale>
<asrwt>0</asrwt>
<pdfrwt beam="2">  1        2 0.18451865E-02 0.32480707E+02</pdfrwt>
<pdfrwt beam="1">  1       -2 0.33831713E-02 0.32480707E+02</pdfrwt>
<totfact> 0.12559022E+06</totfact>
</mgrwt>
</event>
<event>
 4    1  0.2126213E+000  0.2347229E+02  0.7546771E-02  0.1683967E+00
         -1   -1    0    0    0  501 -0.00000000000E+00  0.00000000000E+00  0.24901664939E+02  0.24901664939E+02  0.00000000000E+00 0.  1.
          1   -1    0    0  501    0  0.00000000000E+00 -0.00000000000E+00 -0.55312413998E+01  0.55312413998E+01  0.00000000000E+00 0. -1.
        -11    1    1    2    0    0  0.11620223134E+02  0.47912811671E+00  0.11726178893E+02  0.16515520605E+02  0.00000000000E+00 0. -1.
         11    1    1    2    0    0 -0.11620223134E+02 -0.47912811671E+00  0.76442446461E+01  0.13917385733E+02  0.00000000000E+00 0.  1.
<mgrwt>
<rscale>  0 0.23472292E+02</rscale>
<asrwt>0</asrwt>
<pdfrwt beam="2">  1        1 0.85096023E-03 0.23472292E+02</pdfrwt>
<pdfrwt beam="1">  1       -1 0.38310253E-02 0.23472292E+02</pdfrwt>
<totfact> 0.25860010E+06</totfact>
</mgrwt>
</event>
<event>
 4    1  0.2126213E+000  0.2440836E+02  0.7546771E-02  0.1669648E+00
         -1   -1    0    0    0  501 -0.00000000000E+00  0.00000000000E+00  0.14131347774E+02  0.14131347774E+02  0.00000000000E+00 0.  1.
          1   -1    0    0  501    0  0.00000000000E+00 -0.00000000000E+00 -0.10539834455E+02  0.10539834455E+02  0.00000000000E+00 0. -1.
        -13    1    1    2    0    0  0.10371344117E+02 -0.89174239626E+00  0.82347569557E+01  0.13272950140E+02  0.00000000000E+00 0. -1.
         13    1    1    2    0    0 -0.10371344117E+02  0.89174239626E+00 -0.46432436372E+01  0.11398232089E+02  0.00000000000E+00 0.  1.
<mgrwt>
<rscale>  0 0.24408365E+02</rscale>
<asrwt>0</asrwt>
<pdfrwt beam="2">  1        1 0.16215130E-02 0.24408365E+02</pdfrwt>
<pdfrwt beam="1">  1       -1 0.21740535E-02 0.24408365E+02</pdfrwt>
<totfact> 0.24435004E+06</totfact>
</mgrwt>
</event>
<event>
 4    1  0.2126213E+000  0.2549249E+02  0.7546771E-02  0.1654027E+00
          2   -1    0    0  501    0  0.00000000000E+00  0.00000000000E+00  0.14934042240E+01  0.14934042240E+01  0.00000000000E+00 0. -1.
         -2   -1    0    0    0  501 -0.00000000000E+00 -0.00000000000E+00 -0.10878951293E+03  0.10878951293E+03  0.00000000000E+00 0.  1.
        -13    1    1    2    0    0 -0.12696092041E+02  0.58612185018E+00 -0.49470681117E+02  0.51077221754E+02  0.00000000000E+00 0. -1.
         13    1    1    2    0    0  0.12696092041E+02 -0.58612185018E+00 -0.57825427591E+02  0.59205695402E+02  0.00000000000E+00 0.  1.
<mgrwt>
<rscale>  0 0.25492487E+02</rscale>
<asrwt>0</asrwt>
<pdfrwt beam="1">  1        2 0.22975446E-03 0.25492487E+02</pdfrwt>
<pdfrwt beam="2">  1       -2 0.16736851E-01 0.25492487E+02</pdfrwt>
<totfact> 0.16965073E+06</totfact>
</mgrwt>
</event>
<event>
 4    1  0.2126213E+000  0.2089509E+02  0.7546771E-02  0.1728092E+00
         -2   -1    0    0    0  501 -0.00000000000E+00  0.00000000000E+00  0.26137591962E+01  0.26137591962E+01  0.00000000000E+00 0. -1.
          2   -1    0    0  501    0  0.00000000000E+00 -0.00000000000E+00 -0.41760239834E+02  0.41760239834E+02  0.00000000000E+00 0.  1.
        -13    1    1    2    0    0  0.76511177104E+01  0.68435825087E+01 -0.23700454883E+02  0.25828003899E+02  0.00000000000E+00 0.  1.
         13    1    1    2    0    0 -0.76511177104E+01 -0.68435825087E+01 -0.15446025755E+02  0.18545995131E+02  0.00000000000E+00 0. -1.
<mgrwt>
<rscale>  0 0.20895091E+02</rscale>
<asrwt>0</asrwt>
<pdfrwt beam="2">  1        2 0.64246518E-02 0.20895091E+02</pdfrwt>
<pdfrwt beam="1">  1       -2 0.40211683E-03 0.20895091E+02</pdfrwt>
<totfact> 0.40930196E+06</totfact>
</mgrwt>
</event>
<event>
 4    1  0.2126213E+000  0.3483846E+02  0.7546771E-02  0.1550040E+00
         -2   -1    0    0    0  501 -0.00000000000E+00  0.00000000000E+00  0.10049412662E+02  0.10049412662E+02  0.00000000000E+00 0.  1.
          2   -1    0    0  501    0  0.00000000000E+00 -0.00000000000E+00 -0.30193762859E+02  0.30193762859E+02  0.00000000000E+00 0. -1.
        -11    1    1    2    0    0 -0.13748060968E+02 -0.32543373126E+01 -0.21842652236E+02  0.26013483974E+02  0.00000000000E+00 0. -1.
         11    1    1    2    0    0  0.13748060968E+02  0.32543373126E+01  0.16983020398E+01  0.14229691548E+02  0.00000000000E+00 0.  1.
<mgrwt>
<rscale>  0 0.34838461E+02</rscale>
<asrwt>0</asrwt>
<pdfrwt beam="2">  1        2 0.46451941E-02 0.34838461E+02</pdfrwt>
<pdfrwt beam="1">  1       -2 0.15460635E-02 0.34838461E+02</pdfrwt>
<totfact> 0.11758559E+06</totfact>
</mgrwt>
</event>
<event>
 4    1  0.2126213E+000  0.2429592E+02  0.7546771E-02  0.1671326E+00
         -2   -1    0    0    0  501 -0.00000000000E+00  0.00000000000E+00  0.26195799727E+02  0.26195799727E+02  0.00000000000E+00 0.  1.
          2   -1    0    0  501    0  0.00000000000E+00 -0.00000000000E+00 -0.56334598880E+01  0.56334598880E+01  0.00000000000E+00 0. -1.
        -13    1    1    2    0    0  0.11934367232E+02  0.21628187965E+01  0.11175553110E+02  0.16492419280E+02  0.00000000000E+00 0.  1.
         13    1    1    2    0    0 -0.11934367232E+02 -0.21628187965E+01  0.93867867291E+01  0.15336840335E+02  0.00000000000E+00 0. -1.
<mgrwt>
<rscale>  0 0.24295925E+02</rscale>
<asrwt>0</asrwt>
<pdfrwt beam="2">  1        2 0.86668615E-03 0.24295925E+02</pdfrwt>
<pdfrwt beam="1">  1       -2 0.40301230E-02 0.24295925E+02</pdfrwt>
<totfact> 0.23787706E+06</totfact>
</mgrwt>
</event>
<event>
 4    1  0.2126213E+000  0.2743872E+02  0.7546771E-02  0.1628258E+00
          2   -1    0    0  501    0  0.00000000000E+00  0.00000000000E+00  0.31164439651E+01  0.31164439651E+01  0.00000000000E+00 0. -1.
         -2   -1    0    0    0  501 -0.00000000000E+00 -0.00000000000E+00 -0.60396023883E+02  0.60396023883E+02  0.00000000000E+00 0.  1.
        -11    1    1    2    0    0  0.71938286004E+01  0.86418963878E+01 -0.46834481583E+02  0.48165363159E+02  0.00000000000E+00 0.  1.
         11    1    1    2    0    0 -0.71938286004E+01 -0.86418963878E+01 -0.10445098335E+02  0.15347104689E+02  0.00000000000E+00 0. -1.
<mgrwt>
<rscale>  0 0.27438719E+02</rscale>
<asrwt>0</asrwt>
<pdfrwt beam="1">  1        2 0.47945295E-03 0.27438719E+02</pdfrwt>
<pdfrwt beam="2">  1       -2 0.92916954E-02 0.27438719E+02</pdfrwt>
<totfact> 0.16219938E+06</totfact>
</mgrwt>
</event>
<event>
 4    1  0.2126213E+000  0.7855926E+02  0.7546771E-02  0.1333190E+00
          2   -1    0    0  501    0  0.00000000000E+00  0.00000000000E+00  0.13794420831E+03  0.13794420831E+03  0.00000000000E+00 0. -1.
         -2   -1    0    0    0  501 -0.00000000000E+00 -0.00000000000E+00 -0.11184879716E+02  0.11184879716E+02  0.00000000000E+00 0.  1.
        -11    1    1    2    0    0 -0.38264679093E+02 -0.58171999558E+01  0.76094579410E+02  0.85372188077E+02  0.00000000000E+00 0. -1.
         11    1    1    2    0    0  0.38264679093E+02  0.58171999558E+01  0.50664749186E+02  0.63756899953E+02  0.00000000000E+00 0.  1.
<mgrwt>
<rscale>  0 0.78559261E+02</rscale>
<asrwt>0</asrwt>
<pdfrwt beam="1">  1        2 0.21222185E-01 0.78559261E+02</pdfrwt>
<pdfrwt beam="2">  1       -2 0.17207508E-02 0.78559261E+02</pdfrwt>
<totfact> 0.20301499E+05</totfact>
</mgrwt>
</event>
<event>
 4    1  0.2126213E+000  0.2774823E+02  0.7546771E-02  0.1624402E+00
          2   -1    0    0  501    0  0.00000000000E+00  0.00000000000E+00  0.91272647972E+01  0.91272647972E+01  0.00000000000E+00 0. -1.
         -2   -1    0    0    0  501 -0.00000000000E+00 -0.00000000000E+00 -0.21089675038E+02  0.21089675038E+02  0.00000000000E+00 0.  1.
        -13    1    1    2    0    0 -0.75192041643E+01 -0.76094693032E+01 -0.15601707639E+02  0.18917075239E+02  0.00000000000E+00 0.  1.
         13    1    1    2    0    0  0.75192041643E+01  0.76094693032E+01  0.36392973982E+01  0.11299864596E+02  0.00000000000E+00 0. -1.
<mgrwt>
<rscale>  0 0.27748229E+02</rscale>
<asrwt>0</asrwt>
<pdfrwt beam="1">  1        2 0.14041946E-02 0.27748229E+02</pdfrwt>
<pdfrwt beam="2">  1       -2 0.32445653E-02 0.27748229E+02</pdfrwt>
<totfact> 0.18033781E+06</totfact>
</mgrwt>
</event>
<event>
 4    1  0.2126213E+000  0.3371314E+02  0.7546771E-02  0.1560334E+00
         -1   -1    0    0    0  501 -0.00000000000E+00  0.00000000000E+00  0.12784142332E+03  0.12784142332E+03  0.00000000000E+00 0. -1.
          1   -1    0    0  501    0  0.00000000000E+00 -0.00000000000E+00 -0.22226280893E+01  0.22226280893E+01  0.00000000000E+00 0.  1.
        -11    1    1    2    0    0 -0.16752558156E+02  0.17656181688E+01  0.65182362238E+02  0.67323888474E+02  0.00000000000E+00 0. -1.
         11    1    1    2    0    0  0.16752558156E+02 -0.17656181688E+01  0.60436432991E+02  0.62740162934E+02  0.00000000000E+00 0.  1.
<mgrwt>
<rscale>  0 0.33713139E+02</rscale>
<asrwt>0</asrwt>
<pdfrwt beam="2">  1        1 0.34194288E-03 0.33713139E+02</pdfrwt>
<pdfrwt beam="1">  1       -1 0.19667906E-01 0.33713139E+02</pdfrwt>
<totfact> 0.92550236E+05</totfact>
</mgrwt>
</event>
<event>
 4    1  0.2126213E+000  0.4494755E+02  0.7546771E-02  0.1474669E+00
         -2   -1    0    0    0  501 -0.00000000000E+00  0.00000000000E+00  0.31229935797E+01  0.31229935797E+01  0.00000000000E+00 0.  1.
          2   -1    0    0  501    0  0.00000000000E+00 -0.00000000000E+00 -0.16172641017E+03  0.16172641017E+03  0.00000000000E+00 0. -1.
        -13    1    1    2    0    0  0.13189711353E+02 -0.16826612203E+02 -0.10470286216E+03  0.10686343018E+03  0.00000000000E+00 0.  1.
         13    1    1    2    0    0 -0.13189711353E+02  0.16826612203E+02 -0.53900554429E+02  0.57985973575E+02  0.00000000000E+00 0. -1.
<mgrwt>
<rscale>  0 0.44947549E+02</rscale>
<asrwt>0</asrwt>
<pdfrwt beam="2">  1        2 0.24880990E-01 0.44947549E+02</pdfrwt>
<pdfrwt beam="1">  1       -2 0.48046048E-03 0.44947549E+02</pdfrwt>
<totfact> 0.89663694E+05</totfact>
</mgrwt>
</event>
<event>
 4    1  0.2126213E+000  0.2566529E+02  0.7546771E-02  0.1651626E+00
          2   -1    0    0  501    0  0.00000000000E+00  0.00000000000E+00  0.28949670950E+02  0.28949670950E+02  0.00000000000E+00 0.  1.
         -2   -1    0    0    0  501 -0.00000000000E+00 -0.00000000000E+00 -0.56883838239E+01  0.56883838239E+01  0.00000000000E+00 0. -1.
        -11    1    1    2    0    0 -0.83462460888E+01 -0.95647908416E+01  0.90943190697E+01  0.15615751245E+02  0.00000000000E+00 0. -1.
         11    1    1    2    0    0  0.83462460888E+01  0.95647908416E+01  0.14166968056E+02  0.19022303528E+02  0.00000000000E+00 0.  1.
<mgrwt>
<rscale>  0 0.25665295E+02</rscale>
<asrwt>0</asrwt>
<pdfrwt beam="1">  1        2 0.44537955E-02 0.25665295E+02</pdfrwt>
<pdfrwt beam="2">  1       -2 0.87513599E-03 0.25665295E+02</pdfrwt>
<totfact> 0.24378360E+06</totfact>
</mgrwt>
</event>
<event>
 4    1  0.2126213E+000  0.3853779E+02  0.7546771E-02  0.1519256E+00
          2   -1    0    0  501    0  0.00000000000E+00  0.00000000000E+00  0.97498473611E+02  0.97498473611E+02  0.00000000000E+00 0. -1.
         -2   -1    0    0    0  501 -0.00000000000E+00 -0.00000000000E+00 -0.38081649200E+01  0.38081649200E+01  0.00000000000E+00 0.  1.
        -11    1    1    2    0    0 -0.15959052848E+02 -0.45620188792E+01  0.72573042999E+02  0.74446960678E+02  0.00000000000E+00 0. -1.
         11    1    1    2    0    0  0.15959052848E+02  0.45620188792E+01  0.21117265692E+02  0.26859677853E+02  0.00000000000E+00 0.  1.
<mgrwt>
<rscale>  0 0.38537788E+02</rscale>
<asrwt>0</asrwt>
<pdfrwt beam="1">  1        2 0.14999763E-01 0.38537788E+02</pdfrwt>
<pdfrwt beam="2">  1       -2 0.58587160E-03 0.38537788E+02</pdfrwt>
<totfact> 0.11375436E+06</totfact>
</mgrwt>
</event>
<event>
 4    1  0.2126213E+000  0.2311904E+02  0.7546771E-02  0.1689588E+00
         -4   -1    0    0    0  501 -0.00000000000E+00  0.00000000000E+00  0.83663263859E+02  0.83663263859E+02  0.00000000000E+00 0.  1.
          4   -1    0    0  501    0  0.00000000000E+00 -0.00000000000E+00 -0.15971463327E+01  0.15971463327E+01  0.00000000000E+00 0. -1.
        -11    1    1    2    0    0 -0.83287436422E+01 -0.79440359243E+01  0.37083750261E+02  0.38828857964E+02  0.00000000000E+00 0. -1.
         11    1    1    2    0    0  0.83287436422E+01  0.79440359243E+01  0.44982367266E+02  0.46431552228E+02  0.00000000000E+00 0.  1.
<mgrwt>
<rscale>  0 0.23119038E+02</rscale>
<asrwt>0</asrwt>
<pdfrwt beam="2">  1        4 0.24571489E-03 0.23119038E+02</pdfrwt>
<pdfrwt beam="1">  1       -4 0.12871268E-01 0.23119038E+02</pdfrwt>
<totfact> 0.76114443E+05</totfact>
</mgrwt>
</event>
<event>
 4    1  0.2126213E+000  0.2658327E+02  0.7546771E-02  0.1639250E+00
          2   -1    0    0  501    0  0.00000000000E+00  0.00000000000E+00  0.14944748872E+02  0.14944748872E+02  0.00000000000E+00 0.  1.
         -2   -1    0    0    0  501 -0.00000000000E+00 -0.00000000000E+00 -0.11821381694E+02  0.11821381694E+02  0.00000000000E+00 0. -1.
        -11    1    1    2    0    0 -0.54481488895E+01  0.12108967799E+02  0.21642593008E+01  0.13453380460E+02  0.00000000000E+00 0. -1.
         11    1    1    2    0    0  0.54481488895E+01 -0.12108967799E+02  0.95910787754E+00  0.13312750106E+02  0.00000000000E+00 0.  1.
<mgrwt>
<rscale>  0 0.26583271E+02</rscale>
<asrwt>0</asrwt>
<pdfrwt beam="1">  1        2 0.22991921E-02 0.26583271E+02</pdfrwt>
<pdfrwt beam="2">  1       -2 0.18186741E-02 0.26583271E+02</pdfrwt>
<totfact> 0.20965007E+06</totfact>
</mgrwt>
</event>
<event>
 4    1  0.2126213E+000  0.4104908E+02  0.7546771E-02  0.1500630E+00
          4   -1    0    0  501    0  0.00000000000E+00  0.00000000000E+00  0.18442101143E+02  0.18442101143E+02  0.00000000000E+00 0. -1.
         -4   -1    0    0    0  501 -0.00000000000E+00 -0.00000000000E+00 -0.22842120820E+02  0.22842120820E+02  0.00000000000E+00 0.  1.
        -13    1    1    2    0    0  0.19508058586E+02 -0.47705427666E+01 -0.64591565658E+01  0.21096045403E+02  0.00000000000E+00 0. -1.
         13    1    1    2    0    0 -0.19508058586E+02  0.47705427666E+01  0.20591368892E+01  0.20188176560E+02  0.00000000000E+00 0.  1.
<mgrwt>
<rscale>  0 0.41049078E+02</rscale>
<asrwt>0</asrwt>
<pdfrwt beam="1">  1        4 0.28372463E-02 0.41049078E+02</pdfrwt>
<pdfrwt beam="2">  1       -4 0.35141725E-02 0.41049078E+02</pdfrwt>
<totfact> 0.24024814E+05</totfact>
</mgrwt>
</event>
<event>
 4    1  0.2126213E+000  0.2579234E+02  0.7546771E-02  0.1649875E+00
         -3   -1    0    0    0  501 -0.00000000000E+00  0.00000000000E+00  0.30314954145E+01  0.30314954145E+01  0.00000000000E+00 0.  1.
          3   -1    0    0  501    0  0.00000000000E+00 -0.00000000000E+00 -0.54861115806E+02  0.54861115806E+02  0.00000000000E+00 0. -1.
        -13    1    1    2    0    0  0.13722306498E+01  0.12774181449E+02 -0.28422797370E+02  0.31191635722E+02  0.00000000000E+00 0. -1.
         13    1    1    2    0    0 -0.13722306498E+01 -0.12774181449E+02 -0.23406823021E+02  0.26700975499E+02  0.00000000000E+00 0.  1.
<mgrwt>
<rscale>  0 0.25792342E+02</rscale>
<asrwt>0</asrwt>
<pdfrwt beam="2">  1        3 0.84401717E-02 0.25792342E+02</pdfrwt>
<pdfrwt beam="1">  1       -3 0.46638391E-03 0.25792342E+02</pdfrwt>
<totfact> 0.90350586E+05</totfact>
</mgrwt>
</event>
<event>
 4    1  0.2126213E+000  0.3496428E+02  0.7546771E-02  0.1548918E+00
          2   -1    0    0  501    0  0.00000000000E+00  0.00000000000E+00  0.56701486560E+02  0.56701486560E+02  0.00000000000E+00 0. -1.
         -2   -1    0    0    0  501 -0.00000000000E+00 -0.00000000000E+00 -0.53900727411E+01  0.53900727411E+01  0.00000000000E+00 0.  1.
        -13    1    1    2    0    0  0.10550669991E+02  0.10559263427E+02  0.94953621222E+01  0.17691144203E+02  0.00000000000E+00 0.  1.
         13    1    1    2    0    0 -0.10550669991E+02 -0.10559263427E+02  0.41816051696E+02  0.44400415098E+02  0.00000000000E+00 0. -1.
<mgrwt>
<rscale>  0 0.34964275E+02</rscale>
<asrwt>0</asrwt>
<pdfrwt beam="1">  1        2 0.87233052E-02 0.34964275E+02</pdfrwt>
<pdfrwt beam="2">  1       -2 0.82924200E-03 0.34964275E+02</pdfrwt>
<totfact> 0.12850912E+06</totfact>
</mgrwt>
</event>
<event>
 4    1  0.2126213E+000  0.3861050E+02  0.7546771E-02  0.1518693E+00
         -4   -1    0    0    0  501 -0.00000000000E+00  0.00000000000E+00  0.51229382028E+02  0.51229382028E+02  0.00000000000E+00 0. -1.
          4   -1    0    0  501    0  0.00000000000E+00 -0.00000000000E+00 -0.72749786075E+01  0.72749786075E+01  0.00000000000E+00 0.  1.
        -11    1    1    2    0    0 -0.11864214161E+02 -0.15005468650E+02  0.18034945913E+02  0.26290358330E+02  0.00000000000E+00 0. -1.
         11    1    1    2    0    0  0.11864214161E+02  0.15005468650E+02  0.25919457507E+02  0.32214002305E+02  0.00000000000E+00 0.  1.
<mgrwt>
<rscale>  0 0.38610499E+02</rscale>
<asrwt>0</asrwt>
<pdfrwt beam="2">  1        4 0.11192275E-02 0.38610499E+02</pdfrwt>
<pdfrwt beam="1">  1       -4 0.78814432E-02 0.38610499E+02</pdfrwt>
<totfact> 0.26290561E+05</totfact>
</mgrwt>
</event>
<event>
 4    1  0.2126213E+000  0.3187132E+02  0.7546771E-02  0.1578279E+00
         -2   -1    0    0    0  501 -0.00000000000E+00  0.00000000000E+00  0.10766629623E+02  0.10766629623E+02  0.00000000000E+00 0. -1.
          2   -1    0    0  501    0  0.00000000000E+00 -0.00000000000E+00 -0.23586323951E+02  0.23586323951E+02  0.00000000000E+00 0.  1.
        -13    1    1    2    0    0  0.13605383709E+01  0.10265412199E+02  0.66459084810E+01  0.12304383439E+02  0.00000000000E+00 0. -1.
         13    1    1    2    0    0 -0.13605383709E+01 -0.10265412199E+02 -0.19465602809E+02  0.22048570135E+02  0.00000000000E+00 0.  1.
<mgrwt>
<rscale>  0 0.31871317E+02</rscale>
<asrwt>0</asrwt>
<pdfrwt beam="2">  1        2 0.36286652E-02 0.31871317E+02</pdfrwt>
<pdfrwt beam="1">  1       -2 0.16564046E-02 0.31871317E+02</pdfrwt>
<totfact> 0.14182741E+06</totfact>
</mgrwt>
</event>
<event>
 4    1  0.2126213E+000  0.3480215E+02  0.7546771E-02  0.1550365E+00
          3   -1    0    0  501    0  0.00000000000E+00  0.00000000000E+00  0.95547404576E+02  0.95547404576E+02  0.00000000000E+00 0.  1.
         -3   -1    0    0    0  501 -0.00000000000E+00 -0.00000000000E+00 -0.31690796980E+01  0.31690796980E+01  0.00000000000E+00 0. -1.
        -11    1    1    2    0    0  0.54245285816E+01 -0.15299899836E+02  0.63967717170E+02  0.65995312601E+02  0.00000000000E+00 0.  1.
         11    1    1    2    0    0 -0.54245285816E+01  0.15299899836E+02  0.28410607708E+02  0.32721171673E+02  0.00000000000E+00 0. -1.
<mgrwt>
<rscale>  0 0.34802146E+02</rscale>
<asrwt>0</asrwt>
<pdfrwt beam="1">  1        3 0.14699599E-01 0.34802146E+02</pdfrwt>
<pdfrwt beam="2">  1       -3 0.48755080E-03 0.34802146E+02</pdfrwt>
<totfact> 0.40582005E+05</totfact>
</mgrwt>
</event>
<event>
 4    1  0.2126213E+000  0.2208814E+02  0.7546771E-02  0.1706732E+00
         -1   -1    0    0    0  501 -0.00000000000E+00  0.00000000000E+00  0.11057078909E+02  0.11057078909E+02  0.00000000000E+00 0. -1.
          1   -1    0    0  501    0  0.00000000000E+00 -0.00000000000E+00 -0.11031077185E+02  0.11031077185E+02  0.00000000000E+00 0.  1.
        -13    1    1    2    0    0 -0.99277415009E+01 -0.25860653378E+01 -0.40764647299E+01  0.11039264012E+02  0.00000000000E+00 0.  1.
         13    1    1    2    0    0  0.99277415009E+01  0.25860653378E+01  0.41024664537E+01  0.11048892082E+02  0.00000000000E+00 0. -1.
<mgrwt>
<rscale>  0 0.22088141E+02</rscale>
<asrwt>0</asrwt>
<pdfrwt beam="2">  1        1 0.16970888E-02 0.22088141E+02</pdfrwt>
<pdfrwt beam="1">  1       -1 0.17010891E-02 0.22088141E+02</pdfrwt>
<totfact> 0.30898286E+06</totfact>
</mgrwt>
</event>
<event>
 4    1  0.2126213E+000  0.7219731E+02  0.7546771E-02  0.1352776E+00
          1   -1    0    0  501    0  0.00000000000E+00  0.00000000000E+00  0.64378641612E+02  0.64378641612E+02  0.00000000000E+00 0. -1.
         -1   -1    0    0    0  501 -0.00000000000E+00 -0.00000000000E+00 -0.20241384189E+02  0.20241384189E+02  0.00000000000E+00 0.  1.
        -11    1    1    2    0    0 -0.34212570667E+02  0.10554079177E+02  0.27468311142E+02  0.45126452286E+02  0.00000000000E+00 0. -1.
         11    1    1    2    0    0  0.34212570667E+02 -0.10554079177E+02  0.16668946281E+02  0.39493573516E+02  0.00000000000E+00 0.  1.
<mgrwt>
<rscale>  0 0.72197308E+02</rscale>
<asrwt>0</asrwt>
<pdfrwt beam="1">  1        1 0.99044063E-02 0.72197308E+02</pdfrwt>
<pdfrwt beam="2">  1       -1 0.31140591E-02 0.72197308E+02</pdfrwt>
<totfact> 0.18372541E+05</totfact>
</mgrwt>
</event>
<event>
 4    1  0.2126213E+000  0.4988226E+02  0.7546771E-02  0.1445978E+00
         -2   -1    0    0    0  501 -0.00000000000E+00  0.00000000000E+00  0.11843740263E+02  0.11843740263E+02  0.00000000000E+00 0. -1.
          2   -1    0    0  501    0  0.00000000000E+00 -0.00000000000E+00 -0.52522259363E+02  0.52522259363E+02  0.00000000000E+00 0.  1.
        -11    1    1    2    0    0  0.15222282832E+02 -0.23367566698E+01 -0.45654030398E+02  0.48181623239E+02  0.00000000000E+00 0.  1.
         11    1    1    2    0    0 -0.15222282832E+02  0.23367566698E+01  0.49755112989E+01  0.16184376387E+02  0.00000000000E+00 0. -1.
<mgrwt>
<rscale>  0 0.49882261E+02</rscale>
<asrwt>0</asrwt>
<pdfrwt beam="2">  1        2 0.80803476E-02 0.49882261E+02</pdfrwt>
<pdfrwt beam="1">  1       -2 0.18221139E-02 0.49882261E+02</pdfrwt>
<totfact> 0.52100269E+05</totfact>
</mgrwt>
</event>
<event>
 4    1  0.2126213E+000  0.3475202E+02  0.7546771E-02  0.1550814E+00
          2   -1    0    0  501    0  0.00000000000E+00  0.00000000000E+00  0.61312123432E+02  0.61312123432E+02  0.00000000000E+00 0. -1.
         -2   -1    0    0    0  501 -0.00000000000E+00 -0.00000000000E+00 -0.49244038838E+01  0.49244038838E+01  0.00000000000E+00 0.  1.
        -11    1    1    2    0    0 -0.94140712908E+01 -0.14344949917E+02  0.33421704410E+02  0.37568772299E+02  0.00000000000E+00 0. -1.
         11    1    1    2    0    0  0.94140712908E+01  0.14344949917E+02  0.22966015139E+02  0.28667755017E+02  0.00000000000E+00 0.  1.
<mgrwt>
<rscale>  0 0.34752016E+02</rscale>
<asrwt>0</asrwt>
<pdfrwt beam="1">  1        2 0.94326338E-02 0.34752016E+02</pdfrwt>
<pdfrwt beam="2">  1       -2 0.75760064E-03 0.34752016E+02</pdfrwt>
<totfact> 0.13233170E+06</totfact>
</mgrwt>
</event>
<event>
 4    1  0.2126213E+000  0.4332666E+02  0.7546771E-02  0.1485067E+00
          1   -1    0    0  501    0  0.00000000000E+00  0.00000000000E+00  0.38186400433E+02  0.38186400433E+02  0.00000000000E+00 0.  1.
         -1   -1    0    0    0  501 -0.00000000000E+00 -0.00000000000E+00 -0.12289710895E+02  0.12289710895E+02  0.00000000000E+00 0. -1.
        -11    1    1    2    0    0 -0.21651285715E+02 -0.71215099110E+00  0.13088579072E+02  0.25310002653E+02  0.00000000000E+00 0.  1.
         11    1    1    2    0    0  0.21651285715E+02  0.71215099110E+00  0.12808110466E+02  0.25166108676E+02  0.00000000000E+00 0. -1.
<mgrwt>
<rscale>  0 0.43326658E+02</rscale>
<asrwt>0</asrwt>
<pdfrwt beam="1">  1        1 0.58748308E-02 0.43326658E+02</pdfrwt>
<pdfrwt beam="2">  1       -1 0.18907248E-02 0.43326658E+02</pdfrwt>
<totfact> 0.65416798E+05</totfact>
</mgrwt>
</event>
<event>
 4    1  0.2126213E+000  0.2163973E+02  0.7546771E-02  0.1714558E+00
         -3   -1    0    0    0  501 -0.00000000000E+00  0.00000000000E+00  0.47513243577E+01  0.47513243577E+01  0.00000000000E+00 0.  1.
          3   -1    0    0  501    0  0.00000000000E+00 -0.00000000000E+00 -0.24639345709E+02  0.24639345709E+02  0.00000000000E+00 0. -1.
        -11    1    1    2    0    0 -0.33239250044E+01  0.10071374129E+02 -0.12853330556E+02  0.16664007941E+02  0.00000000000E+00 0. -1.
         11    1    1    2    0    0  0.33239250044E+01 -0.10071374129E+02 -0.70346907955E+01  0.12726662126E+02  0.00000000000E+00 0.  1.
<mgrwt>
<rscale>  0 0.21639734E+02</rscale>
<asrwt>0</asrwt>
<pdfrwt beam="2">  1        3 0.37906687E-02 0.21639734E+02</pdfrwt>
<pdfrwt beam="1">  1       -3 0.73097296E-03 0.21639734E+02</pdfrwt>
<totfact> 0.14576490E+06</totfact>
</mgrwt>
</event>
<event>
 4    1  0.2126213E+000  0.2916323E+02  0.7546771E-02  0.1607527E+00
         -2   -1    0    0    0  501 -0.00000000000E+00  0.00000000000E+00  0.64879308650E+02  0.64879308650E+02  0.00000000000E+00 0.  1.
          2   -1    0    0  501    0  0.00000000000E+00 -0.00000000000E+00 -0.32772159981E+01  0.32772159981E+01  0.00000000000E+00 0. -1.
        -11    1    1    2    0    0  0.12034430914E+02 -0.78672161143E+01  0.25122931120E+02  0.28946196380E+02  0.00000000000E+00 0. -1.
         11    1    1    2    0    0 -0.12034430914E+02  0.78672161143E+01  0.36479161532E+02  0.39210328268E+02  0.00000000000E+00 0.  1.
<mgrwt>
<rscale>  0 0.29163231E+02</rscale>
<asrwt>0</asrwt>
<pdfrwt beam="2">  1        2 0.50418712E-03 0.29163231E+02</pdfrwt>
<pdfrwt beam="1">  1       -2 0.99814311E-02 0.29163231E+02</pdfrwt>
<totfact> 0.13929819E+06</totfact>
</mgrwt>
</event>
<event>
 4    1  0.2126213E+000  0.8001720E+02  0.7546771E-02  0.1329003E+00
         -4   -1    0    0    0  501 -0.00000000000E+00  0.00000000000E+00  0.55280988265E+02  0.55280988265E+02  0.00000000000E+00 0.  1.
          4   -1    0    0  501    0  0.00000000000E+00 -0.00000000000E+00 -0.28955491540E+02  0.28955491540E+02  0.00000000000E+00 0. -1.
        -13    1    1    2    0    0 -0.21331887914E+02 -0.29267788957E+02 -0.47347474221E+01  0.36524933205E+02  0.00000000000E+00 0. -1.
         13    1    1    2    0    0  0.21331887914E+02  0.29267788957E+02  0.31060244147E+02  0.47711546600E+02  0.00000000000E+00 0.  1.
<mgrwt>
<rscale>  0 0.80017203E+02</rscale>
<asrwt>0</asrwt>
<pdfrwt beam="2">  1        4 0.44546910E-02 0.80017203E+02</pdfrwt>
<pdfrwt beam="1">  1       -4 0.85047674E-02 0.80017203E+02</pdfrwt>
<totfact> 0.39030782E+04</totfact>
</mgrwt>
</event>
<event>
 4    1  0.2126213E+000  0.4244594E+02  0.7546771E-02  0.1490946E+00
          2   -1    0    0  501    0  0.00000000000E+00  0.00000000000E+00  0.14827797164E+02  0.14827797164E+02  0.00000000000E+00 0.  1.
         -2   -1    0    0    0  501 -0.00000000000E+00 -0.00000000000E+00 -0.30376360064E+02  0.30376360064E+02  0.00000000000E+00 0. -1.
        -11    1    1    2    0    0 -0.14443916226E+02  0.78214576399E+01  0.65382418662E+01  0.17679098457E+02  0.00000000000E+00 0.  1.
         11    1    1    2    0    0  0.14443916226E+02 -0.78214576399E+01 -0.22086804766E+02  0.27525058771E+02  0.00000000000E+00 0. -1.
<mgrwt>
<rscale>  0 0.42445942E+02</rscale>
<asrwt>0</asrwt>
<pdfrwt beam="1">  1        2 0.22811996E-02 0.42445942E+02</pdfrwt>
<pdfrwt beam="2">  1       -2 0.46732861E-02 0.42445942E+02</pdfrwt>
<totfact> 0.64966103E+05</totfact>
</mgrwt>
</event>
<event>
 4    1  0.2126213E+000  0.4399263E+02  0.7546771E-02  0.1480730E+00
          2   -1    0    0  501    0  0.00000000000E+00  0.00000000000E+00  0.22734204500E+02  0.22734204500E+02  0.00000000000E+00 0.  1.
         -2   -1    0    0    0  501 -0.00000000000E+00 -0.00000000000E+00 -0.21282374668E+02  0.21282374668E+02  0.00000000000E+00 0. -1.
        -13    1    1    2    0    0  0.66897539947E+01 -0.16962334435E+02  0.13035631088E+02  0.22414309622E+02  0.00000000000E+00 0.  1.
         13    1    1    2    0    0 -0.66897539947E+01  0.16962334435E+02 -0.11583801256E+02  0.21602269546E+02  0.00000000000E+00 0. -1.
<mgrwt>
<rscale>  0 0.43992629E+02</rscale>
<asrwt>0</asrwt>
<pdfrwt beam="1">  1        2 0.34975699E-02 0.43992629E+02</pdfrwt>
<pdfrwt beam="2">  1       -2 0.32742115E-02 0.43992629E+02</pdfrwt>
<totfact> 0.62814737E+05</totfact>
</mgrwt>
</event>
<event>
 4    1  0.2126213E+000  0.2894888E+02  0.7546771E-02  0.1610007E+00
         -2   -1    0    0    0  501 -0.00000000000E+00  0.00000000000E+00  0.26598523084E+01  0.26598523084E+01  0.00000000000E+00 0.  1.
          2   -1    0    0  501    0  0.00000000000E+00 -0.00000000000E+00 -0.78767292631E+02  0.78767292631E+02  0.00000000000E+00 0. -1.
        -11    1    1    2    0    0 -0.10944134740E+02 -0.70313948707E+01 -0.55908800595E+02  0.57402165317E+02  0.00000000000E+00 0.  1.
         11    1    1    2    0    0  0.10944134740E+02  0.70313948707E+01 -0.20198639727E+02  0.24024979622E+02  0.00000000000E+00 0. -1.
<mgrwt>
<rscale>  0 0.28948877E+02</rscale>
<asrwt>0</asrwt>
<pdfrwt beam="2">  1        2 0.12118047E-01 0.28948877E+02</pdfrwt>
<pdfrwt beam="1">  1       -2 0.40920800E-03 0.28948877E+02</pdfrwt>
<totfact> 0.21535529E+06</totfact>
</mgrwt>
</event>
<event>
 4    1  0.2126213E+000  0.2212896E+02  0.7546771E-02  0.1706031E+00
         -2   -1    0    0    0  501 -0.00000000000E+00  0.00000000000E+00  0.31951214842E+01  0.31951214842E+01  0.00000000000E+00 0.  1.
          2   -1    0    0  501    0  0.00000000000E+00 -0.00000000000E+00 -0.38315507728E+02  0.38315507728E+02  0.00000000000E+00 0. -1.
        -11    1    1    2    0    0 -0.99954032130E+01 -0.39727334680E+01 -0.22427296445E+02  0.24873164705E+02  0.00000000000E+00 0. -1.
         11    1    1    2    0    0  0.99954032130E+01  0.39727334680E+01 -0.12693089799E+02  0.16637464507E+02  0.00000000000E+00 0.  1.
<mgrwt>
<rscale>  0 0.22128959E+02</rscale>
<asrwt>0</asrwt>
<pdfrwt beam="2">  1        2 0.58946934E-02 0.22128959E+02</pdfrwt>
<pdfrwt beam="1">  1       -2 0.49155716E-03 0.22128959E+02</pdfrwt>
<totfact> 0.35533712E+06</totfact>
</mgrwt>
</event>
<event>
 4    1  0.2126213E+000  0.4258007E+02  0.7546771E-02  0.1490040E+00
         -1   -1    0    0    0  501 -0.00000000000E+00  0.00000000000E+00  0.11897335235E+02  0.11897335235E+02  0.00000000000E+00 0.  1.
          1   -1    0    0  501    0  0.00000000000E+00 -0.00000000000E+00 -0.38098078854E+02  0.38098078854E+02  0.00000000000E+00 0. -1.
        -11    1    1    2    0    0  0.11366099927E+02 -0.16840442808E+02 -0.20570486523E+02  0.28912517312E+02  0.00000000000E+00 0. -1.
         11    1    1    2    0    0 -0.11366099927E+02  0.16840442808E+02 -0.56302570966E+01  0.21082896777E+02  0.00000000000E+00 0.  1.
<mgrwt>
<rscale>  0 0.42580071E+02</rscale>
<asrwt>0</asrwt>
<pdfrwt beam="2">  1        1 0.58612428E-02 0.42580071E+02</pdfrwt>
<pdfrwt beam="1">  1       -1 0.18303593E-02 0.42580071E+02</pdfrwt>
<totfact> 0.68324250E+05</totfact>
</mgrwt>
</event>
<event>
 4    1  0.2126213E+000  0.4552106E+02  0.7546771E-02  0.1471115E+00
         -2   -1    0    0    0  501 -0.00000000000E+00  0.00000000000E+00  0.34106129896E+01  0.34106129896E+01  0.00000000000E+00 0.  1.
          2   -1    0    0  501    0  0.00000000000E+00 -0.00000000000E+00 -0.15189108466E+03  0.15189108466E+03  0.00000000000E+00 0. -1.
        -13    1    1    2    0    0  0.12677610078E+01 -0.22699922196E+02 -0.77895667753E+02  0.81145725336E+02  0.00000000000E+00 0. -1.
         13    1    1    2    0    0 -0.12677610078E+01  0.22699922196E+02 -0.70584803920E+02  0.74155972316E+02  0.00000000000E+00 0.  1.
<mgrwt>
<rscale>  0 0.45521059E+02</rscale>
<asrwt>0</asrwt>
<pdfrwt beam="2">  1        2 0.23367862E-01 0.45521059E+02</pdfrwt>
<pdfrwt beam="1">  1       -2 0.52470964E-03 0.45521059E+02</pdfrwt>
<totfact> 0.85235010E+05</totfact>
</mgrwt>
</event>
<event>
 4    1  0.2126213E+000  0.2573593E+02  0.7546771E-02  0.1650651E+00
         -1   -1    0    0    0  501 -0.00000000000E+00  0.00000000000E+00  0.14299341575E+01  0.14299341575E+01  0.00000000000E+00 0. -1.
          1   -1    0    0  501    0  0.00000000000E+00 -0.00000000000E+00 -0.11579868733E+03  0.11579868733E+03  0.00000000000E+00 0.  1.
        -13    1    1    2    0    0  0.12477616076E+02  0.29929412630E+01 -0.52777731259E+02  0.54315168390E+02  0.00000000000E+00 0. -1.
         13    1    1    2    0    0 -0.12477616076E+02 -0.29929412630E+01 -0.61591021909E+02  0.62913453094E+02  0.00000000000E+00 0.  1.
<mgrwt>
<rscale>  0 0.25735928E+02</rscale>
<asrwt>0</asrwt>
<pdfrwt beam="2">  1        1 0.17815182E-01 0.25735928E+02</pdfrwt>
<pdfrwt beam="1">  1       -1 0.21998988E-03 0.25735928E+02</pdfrwt>
<totfact> 0.25570793E+06</totfact>
</mgrwt>
</event>
<event>
 4    1  0.2126213E+000  0.2085910E+02  0.7546771E-02  0.1728764E+00
         -2   -1    0    0    0  501 -0.00000000000E+00  0.00000000000E+00  0.24641580355E+02  0.24641580355E+02  0.00000000000E+00 0. -1.
          2   -1    0    0  501    0  0.00000000000E+00 -0.00000000000E+00 -0.44143061391E+01  0.44143061391E+01  0.00000000000E+00 0.  1.
        -11    1    1    2    0    0 -0.88685920449E+01  0.52616908915E+01  0.79385830859E+01  0.13013777980E+02  0.00000000000E+00 0. -1.
         11    1    1    2    0    0  0.88685920449E+01 -0.52616908915E+01  0.12288691131E+02  0.16042108515E+02  0.00000000000E+00 0.  1.
<mgrwt>
<rscale>  0 0.20859097E+02</rscale>
<asrwt>0</asrwt>
<pdfrwt beam="2">  1        2 0.67912404E-03 0.20859097E+02</pdfrwt>
<pdfrwt beam="1">  1       -2 0.37910123E-02 0.20859097E+02</pdfrwt>
<totfact> 0.33530499E+06</totfact>
</mgrwt>
</event>
<event>
 4    1  0.2126213E+000  0.2751259E+02  0.7546771E-02  0.1627332E+00
          1   -1    0    0  501    0  0.00000000000E+00  0.00000000000E+00  0.57856053476E+02  0.57856053476E+02  0.00000000000E+00 0. -1.
         -1   -1    0    0    0  501 -0.00000000000E+00 -0.00000000000E+00 -0.32708004598E+01  0.32708004598E+01  0.00000000000E+00 0.  1.
        -13    1    1    2    0    0 -0.99827982886E+01  0.18693880750E+01  0.47906693760E+02  0.48971442500E+02  0.00000000000E+00 0. -1.
         13    1    1    2    0    0  0.99827982886E+01 -0.18693880750E+01  0.66785592558E+01  0.12155411436E+02  0.00000000000E+00 0.  1.
<mgrwt>
<rscale>  0 0.27512587E+02</rscale>
<asrwt>0</asrwt>
<pdfrwt beam="1">  1        1 0.89009306E-02 0.27512587E+02</pdfrwt>
<pdfrwt beam="2">  1       -1 0.50320011E-03 0.27512587E+02</pdfrwt>
<totfact> 0.20371815E+06</totfact>
</mgrwt>
</event>
<event>
 4    1  0.2126213E+000  0.4134660E+02  0.7546771E-02  0.1498529E+00
          4   -1    0    0  501    0  0.00000000000E+00  0.00000000000E+00  0.86422977267E+01  0.86422977267E+01  0.00000000000E+00 0.  1.
         -4   -1    0    0    0  501 -0.00000000000E+00 -0.00000000000E+00 -0.49452753919E+02  0.49452753919E+02  0.00000000000E+00 0. -1.
        -11    1    1    2    0    0  0.11549927091E+02 -0.11318333199E+02 -0.38501796527E+02  0.41759954718E+02  0.00000000000E+00 0.  1.
         11    1    1    2    0    0 -0.11549927091E+02  0.11318333199E+02 -0.23086596652E+01  0.16335096928E+02  0.00000000000E+00 0. -1.
<mgrwt>
<rscale>  0 0.41346604E+02</rscale>
<asrwt>0</asrwt>
<pdfrwt beam="1">  1        4 0.13295843E-02 0.41346604E+02</pdfrwt>
<pdfrwt beam="2">  1       -4 0.76081158E-02 0.41346604E+02</pdfrwt>
<totfact> 0.22365462E+05</totfact>
</mgrwt>
</event>
<event>
 4    1  0.2126213E+000  0.3751358E+02  0.7546771E-02  0.1527349E+00
         -1   -1    0    0    0  501 -0.00000000000E+00  0.00000000000E+00  0.59948856203E+02  0.59948856203E+02  0.00000000000E+00 0. -1.
          1   -1    0    0  501    0  0.00000000000E+00 -0.00000000000E+00 -0.58686210137E+01  0.58686210137E+01  0.00000000000E+00 0.  1.
        -11    1    1    2    0    0  0.10479695347E+02  0.65359573234E+01  0.22728287129E+01  0.12558204611E+02  0.00000000000E+00 0.  1.
         11    1    1    2    0    0 -0.10479695347E+02 -0.65359573234E+01  0.51807406477E+02  0.53259272606E+02  0.00000000000E+00 0. -1.
<mgrwt>
<rscale>  0 0.37513577E+02</rscale>
<asrwt>0</asrwt>
<pdfrwt beam="2">  1        1 0.90286481E-03 0.37513577E+02</pdfrwt>
<pdfrwt beam="1">  1       -1 0.92229005E-02 0.37513577E+02</pdfrwt>
<totfact> 0.80459012E+05</totfact>
</mgrwt>
</event>
<event>
 4    1  0.2126213E+000  0.3390672E+02  0.7546771E-02  0.1558529E+00
          4   -1    0    0  501    0  0.00000000000E+00  0.00000000000E+00  0.67687161838E+02  0.67687161838E+02  0.00000000000E+00 0.  1.
         -4   -1    0    0    0  501 -0.00000000000E+00 -0.00000000000E+00 -0.42462479846E+01  0.42462479846E+01  0.00000000000E+00 0. -1.
        -13    1    1    2    0    0 -0.12657176609E+02  0.11191350453E+02  0.34695134354E+02  0.38590190366E+02  0.00000000000E+00 0. -1.
         13    1    1    2    0    0  0.12657176609E+02 -0.11191350453E+02  0.28745779499E+02  0.33343219456E+02  0.00000000000E+00 0.  1.
<mgrwt>
<rscale>  0 0.33906723E+02</rscale>
<asrwt>0</asrwt>
<pdfrwt beam="1">  1        4 0.10413409E-01 0.33906723E+02</pdfrwt>
<pdfrwt beam="2">  1       -4 0.65326897E-03 0.33906723E+02</pdfrwt>
<totfact> 0.34158095E+05</totfact>
</mgrwt>
</event>
<event>
 4    1  0.2126213E+000  0.2853483E+02  0.7546771E-02  0.1614873E+00
         -2   -1    0    0    0  501 -0.00000000000E+00  0.00000000000E+00  0.72516010121E+01  0.72516010121E+01  0.00000000000E+00 0. -1.
          2   -1    0    0  501    0  0.00000000000E+00 -0.00000000000E+00 -0.28070913092E+02  0.28070913092E+02  0.00000000000E+00 0.  1.
        -13    1    1    2    0    0  0.74709545277E+01  0.11866844573E+02 -0.71528712932E+01  0.15741687629E+02  0.00000000000E+00 0.  1.
         13    1    1    2    0    0 -0.74709545277E+01 -0.11866844573E+02 -0.13666440787E+02  0.19580826475E+02  0.00000000000E+00 0. -1.
<mgrwt>
<rscale>  0 0.28534825E+02</rscale>
<asrwt>0</asrwt>
<pdfrwt beam="2">  1        2 0.43186020E-02 0.28534825E+02</pdfrwt>
<pdfrwt beam="1">  1       -2 0.11156309E-02 0.28534825E+02</pdfrwt>
<totfact> 0.18904875E+06</totfact>
</mgrwt>
</event>
<event>
 4    1  0.2126213E+000  0.2852538E+02  0.7546771E-02  0.1614985E+00
         -2   -1    0    0    0  501 -0.00000000000E+00  0.00000000000E+00  0.27255642193E+02  0.27255642193E+02  0.00000000000E+00 0.  1.
          2   -1    0    0  501    0  0.00000000000E+00 -0.00000000000E+00 -0.74635668610E+01  0.74635668610E+01  0.00000000000E+00 0. -1.
        -11    1    1    2    0    0  0.64696712676E+01  0.10581578111E+02  0.13242796927E+01  0.12473177556E+02  0.00000000000E+00 0. -1.
         11    1    1    2    0    0 -0.64696712676E+01 -0.10581578111E+02  0.18467795639E+02  0.22246031498E+02  0.00000000000E+00 0.  1.
<mgrwt>
<rscale>  0 0.28525379E+02</rscale>
<asrwt>0</asrwt>
<pdfrwt beam="2">  1        2 0.11482411E-02 0.28525379E+02</pdfrwt>
<pdfrwt beam="1">  1       -2 0.41931757E-02 0.28525379E+02</pdfrwt>
<totfact> 0.16497211E+06</totfact>
</mgrwt>
</event>
<event>
 4    1  0.2126213E+000  0.2013651E+02  0.7546771E-02  0.1742627E+00
          2   -1    0    0  501    0  0.00000000000E+00  0.00000000000E+00  0.29135396109E+01  0.29135396109E+01  0.00000000000E+00 0. -1.
         -2   -1    0    0    0  501 -0.00000000000E+00 -0.00000000000E+00 -0.34792642075E+02  0.34792642075E+02  0.00000000000E+00 0.  1.
        -11    1    1    2    0    0 -0.10041309903E+02 -0.15537635641E+00 -0.17286853849E+02  0.19992182532E+02  0.00000000000E+00 0.  1.
         11    1    1    2    0    0  0.10041309903E+02  0.15537635641E+00 -0.14592248615E+02  0.17713999154E+02  0.00000000000E+00 0. -1.
<mgrwt>
<rscale>  0 0.20136508E+02</rscale>
<asrwt>0</asrwt>
<pdfrwt beam="1">  1        2 0.44823689E-03 0.20136508E+02</pdfrwt>
<pdfrwt beam="2">  1       -2 0.53527138E-02 0.20136508E+02</pdfrwt>
<totfact> 0.34973372E+06</totfact>
</mgrwt>
</event>
<event>
 4    1  0.2126213E+000  0.4774369E+02  0.7546771E-02  0.1457906E+00
          4   -1    0    0  501    0  0.00000000000E+00  0.00000000000E+00  0.12608529861E+03  0.12608529861E+03  0.00000000000E+00 0.  1.
         -4   -1    0    0    0  501 -0.00000000000E+00 -0.00000000000E+00 -0.45196784041E+01  0.45196784041E+01  0.00000000000E+00 0. -1.
        -13    1    1    2    0    0 -0.11054956072E+02 -0.15052420119E+02  0.20108883038E+02  0.27443661969E+02  0.00000000000E+00 0. -1.
         13    1    1    2    0    0  0.11054956072E+02  0.15052420119E+02  0.10145673717E+03  0.10316131504E+03  0.00000000000E+00 0.  1.
<mgrwt>
<rscale>  0 0.47743691E+02</rscale>
<asrwt>0</asrwt>
<pdfrwt beam="1">  1        4 0.19397736E-01 0.47743691E+02</pdfrwt>
<pdfrwt beam="2">  1       -4 0.69533524E-03 0.47743691E+02</pdfrwt>
<totfact> 0.12990836E+05</totfact>
</mgrwt>
</event>
<event>
 4    1  0.2126213E+000  0.1587335E+03  0.7546771E-02  0.1190134E+00
         -2   -1    0    0    0  501 -0.00000000000E+00  0.00000000000E+00  0.31282694829E+03  0.31282694829E+03  0.00000000000E+00 0. -1.
          2   -1    0    0  501    0  0.00000000000E+00 -0.00000000000E+00 -0.20136000471E+02  0.20136000471E+02  0.00000000000E+00 0.  1.
        -11    1    1    2    0    0 -0.30989090887E+02  0.35193556758E+02  0.12029291618E+02  0.48410887703E+02  0.00000000000E+00 0.  1.
         11    1    1    2    0    0  0.30989090887E+02 -0.35193556758E+02  0.28066165620E+03  0.28455206106E+03  0.00000000000E+00 0. -1.
<mgrwt>
<rscale>  0 0.15873353E+03</rscale>
<asrwt>0</asrwt>
<pdfrwt beam="2">  1        2 0.30978465E-02 0.15873353E+03</pdfrwt>
<pdfrwt beam="1">  1       -2 0.48127219E-01 0.15873353E+03</pdfrwt>
<totfact> 0.11795744E+04</totfact>
</mgrwt>
</event>
<event>
 4    1  0.2126213E+000  0.2562138E+02  0.7546771E-02  0.1652234E+00
         -2   -1    0    0    0  501 -0.00000000000E+00  0.00000000000E+00  0.38994512143E+01  0.38994512143E+01  0.00000000000E+00 0. -1.
          2   -1    0    0  501    0  0.00000000000E+00 -0.00000000000E+00 -0.42086378750E+02  0.42086378750E+02  0.00000000000E+00 0.  1.
        -13    1    1    2    0    0  0.29258224270E+01 -0.12123495318E+02 -0.13837910492E+02  0.18628669903E+02  0.00000000000E+00 0.  1.
         13    1    1    2    0    0 -0.29258224270E+01  0.12123495318E+02 -0.24349017044E+02  0.27357160061E+02  0.00000000000E+00 0. -1.
<mgrwt>
<rscale>  0 0.25621380E+02</rscale>
<asrwt>0</asrwt>
<pdfrwt beam="2">  1        2 0.64748279E-02 0.25621380E+02</pdfrwt>
<pdfrwt beam="1">  1       -2 0.59991553E-03 0.25621380E+02</pdfrwt>
<totfact> 0.25682674E+06</totfact>
</mgrwt>
</event>
<event>
 4    1  0.2126213E+000  0.3531247E+02  0.7546771E-02  0.1545843E+00
         -2   -1    0    0    0  501 -0.00000000000E+00  0.00000000000E+00  0.18687016842E+02  0.18687016842E+02  0.00000000000E+00 0. -1.
          2   -1    0    0  501    0  0.00000000000E+00 -0.00000000000E+00 -0.16682309201E+02  0.16682309201E+02  0.00000000000E+00 0.  1.
        -13    1    1    2    0    0  0.10610783498E+02  0.84804967896E+01 -0.10295659533E+02  0.17044299853E+02  0.00000000000E+00 0.  1.
         13    1    1    2    0    0 -0.10610783498E+02 -0.84804967896E+01  0.12300367175E+02  0.18325026190E+02  0.00000000000E+00 0. -1.
<mgrwt>
<rscale>  0 0.35312468E+02</rscale>
<asrwt>0</asrwt>
<pdfrwt beam="2">  1        2 0.25665091E-02 0.35312468E+02</pdfrwt>
<pdfrwt beam="1">  1       -2 0.28749256E-02 0.35312468E+02</pdfrwt>
<totfact> 0.10572789E+06</totfact>
</mgrwt>
</event>
<event>
 4    1  0.2126213E+000  0.3938161E+02  0.7546771E-02  0.1512812E+00
         -2   -1    0    0    0  501 -0.00000000000E+00  0.00000000000E+00  0.74017622999E+02  0.74017622999E+02  0.00000000000E+00 0.  1.
          2   -1    0    0  501    0  0.00000000000E+00 -0.00000000000E+00 -0.52383178540E+01  0.52383178540E+01  0.00000000000E+00 0. -1.
        -13    1    1    2    0    0  0.33916257314E+01 -0.19224773391E+02  0.39572718813E+02  0.44125900685E+02  0.00000000000E+00 0. -1.
         13    1    1    2    0    0 -0.33916257314E+01  0.19224773391E+02  0.29206586332E+02  0.35130040168E+02  0.00000000000E+00 0.  1.
<mgrwt>
<rscale>  0 0.39381612E+02</rscale>
<asrwt>0</asrwt>
<pdfrwt beam="2">  1        2 0.80589511E-03 0.39381612E+02</pdfrwt>
<pdfrwt beam="1">  1       -2 0.11387326E-01 0.39381612E+02</pdfrwt>
<totfact> 0.67171089E+05</totfact>
</mgrwt>
</event>
<event>
 4    1  0.2126213E+000  0.3508871E+02  0.7546771E-02  0.1547814E+00
          2   -1    0    0  501    0  0.00000000000E+00  0.00000000000E+00  0.75140519688E+02  0.75140519688E+02  0.00000000000E+00 0.  1.
         -2   -1    0    0    0  501 -0.00000000000E+00 -0.00000000000E+00 -0.40963839598E+01  0.40963839598E+01  0.00000000000E+00 0. -1.
        -13    1    1    2    0    0  0.55035449868E+01  0.16649645795E+02  0.36768593855E+02  0.40736092186E+02  0.00000000000E+00 0.  1.
         13    1    1    2    0    0 -0.55035449868E+01 -0.16649645795E+02  0.34275541873E+02  0.38500811462E+02  0.00000000000E+00 0. -1.
<mgrwt>
<rscale>  0 0.35088712E+02</rscale>
<asrwt>0</asrwt>
<pdfrwt beam="1">  1        2 0.11560079E-01 0.35088712E+02</pdfrwt>
<pdfrwt beam="2">  1       -2 0.63021297E-03 0.35088712E+02</pdfrwt>
<totfact> 0.13466265E+06</totfact>
</mgrwt>
</event>
<event>
 4    1  0.2126213E+000  0.5148816E+02  0.7546771E-02  0.1437476E+00
         -2   -1    0    0    0  501 -0.00000000000E+00  0.00000000000E+00  0.28256818005E+02  0.28256818005E+02  0.00000000000E+00 0. -1.
          2   -1    0    0  501    0  0.00000000000E+00 -0.00000000000E+00 -0.23454784119E+02  0.23454784119E+02  0.00000000000E+00 0.  1.
        -11    1    1    2    0    0  0.15650112472E+02 -0.63363812229E+00 -0.18118753811E+02  0.23950297646E+02  0.00000000000E+00 0.  1.
         11    1    1    2    0    0 -0.15650112472E+02  0.63363812229E+00  0.22920787697E+02  0.27761304478E+02  0.00000000000E+00 0. -1.
<mgrwt>
<rscale>  0 0.51488157E+02</rscale>
<asrwt>0</asrwt>
<pdfrwt beam="2">  1        2 0.36084283E-02 0.51488157E+02</pdfrwt>
<pdfrwt beam="1">  1       -2 0.43472027E-02 0.51488157E+02</pdfrwt>
<totfact> 0.41770503E+05</totfact>
</mgrwt>
</event>
<event>
 4    1  0.2126213E+000  0.3775391E+02  0.7546771E-02  0.1525422E+00
         -3   -1    0    0    0  501 -0.00000000000E+00  0.00000000000E+00  0.11052582464E+02  0.11052582464E+02  0.00000000000E+00 0. -1.
          3   -1    0    0  501    0  0.00000000000E+00 -0.00000000000E+00 -0.32240375701E+02  0.32240375701E+02  0.00000000000E+00 0.  1.
        -11    1    1    2    0    0 -0.14770150513E+01  0.13295592046E+02  0.46787347235E+01  0.14171975866E+02  0.00000000000E+00 0. -1.
         11    1    1    2    0    0  0.14770150513E+01 -0.13295592046E+02 -0.25866527960E+02  0.29120982299E+02  0.00000000000E+00 0.  1.
<mgrwt>
<rscale>  0 0.37753909E+02</rscale>
<asrwt>0</asrwt>
<pdfrwt beam="2">  1        3 0.49600578E-02 0.37753909E+02</pdfrwt>
<pdfrwt beam="1">  1       -3 0.17003973E-02 0.37753909E+02</pdfrwt>
<totfact> 0.38594726E+05</totfact>
</mgrwt>
</event>
<event>
 4    1  0.2126213E+000  0.3041983E+02  0.7546771E-02  0.1593494E+00
         -2   -1    0    0    0  501 -0.00000000000E+00  0.00000000000E+00  0.23573846716E+01  0.23573846716E+01  0.00000000000E+00 0. -1.
          2   -1    0    0  501    0  0.00000000000E+00 -0.00000000000E+00 -0.98134827383E+02  0.98134827383E+02  0.00000000000E+00 0.  1.
        -11    1    1    2    0    0 -0.24254277633E+01  0.15014299915E+02 -0.48457424741E+02  0.50788127690E+02  0.00000000000E+00 0.  1.
         11    1    1    2    0    0  0.24254277633E+01 -0.15014299915E+02 -0.47320017971E+02  0.49704084365E+02  0.00000000000E+00 0. -1.
<mgrwt>
<rscale>  0 0.30419832E+02</rscale>
<asrwt>0</asrwt>
<pdfrwt beam="2">  1        2 0.15097667E-01 0.30419832E+02</pdfrwt>
<pdfrwt beam="1">  1       -2 0.36267454E-03 0.30419832E+02</pdfrwt>
<totfact> 0.20128876E+06</totfact>
</mgrwt>
</event>
<event>
 4    1  0.2126213E+000  0.4383745E+02  0.7546771E-02  0.1481732E+00
         -2   -1    0    0    0  501 -0.00000000000E+00  0.00000000000E+00  0.49037335033E+01  0.49037335033E+01  0.00000000000E+00 0. -1.
          2   -1    0    0  501    0  0.00000000000E+00 -0.00000000000E+00 -0.97972400834E+02  0.97972400834E+02  0.00000000000E+00 0.  1.
        -13    1    1    2    0    0  0.18049578236E+02 -0.11470299938E+02 -0.57807470908E+02  0.61636504994E+02  0.00000000000E+00 0.  1.
         13    1    1    2    0    0 -0.18049578236E+02  0.11470299938E+02 -0.35261196423E+02  0.41239629343E+02  0.00000000000E+00 0. -1.
<mgrwt>
<rscale>  0 0.43837452E+02</rscale>
<asrwt>0</asrwt>
<pdfrwt beam="2">  1        2 0.15072678E-01 0.43837452E+02</pdfrwt>
<pdfrwt beam="1">  1       -2 0.75442047E-03 0.43837452E+02</pdfrwt>
<totfact> 0.82874248E+05</totfact>
</mgrwt>
</event>
<event>
 4    1  0.2126213E+000  0.2449862E+02  0.7546771E-02  0.1668310E+00
         -2   -1    0    0    0  501 -0.00000000000E+00  0.00000000000E+00  0.16408180558E+02  0.16408180558E+02  0.00000000000E+00 0.  1.
          2   -1    0    0  501    0  0.00000000000E+00 -0.00000000000E+00 -0.91445613611E+01  0.91445613611E+01  0.00000000000E+00 0. -1.
        -13    1    1    2    0    0  0.83797860226E+01 -0.84929458091E+01  0.73852665902E+00  0.11953926716E+02  0.00000000000E+00 0. -1.
         13    1    1    2    0    0 -0.83797860226E+01  0.84929458091E+01  0.65250925375E+01  0.13598815203E+02  0.00000000000E+00 0.  1.
<mgrwt>
<rscale>  0 0.24498622E+02</rscale>
<asrwt>0</asrwt>
<pdfrwt beam="2">  1        2 0.14068556E-02 0.24498622E+02</pdfrwt>
<pdfrwt beam="1">  1       -2 0.25243355E-02 0.24498622E+02</pdfrwt>
<totfact> 0.24387456E+06</totfact>
</mgrwt>
</event>
<event>
 4    1  0.2126213E+000  0.3834287E+02  0.7546771E-02  0.1520773E+00
         -2   -1    0    0    0  501 -0.00000000000E+00  0.00000000000E+00  0.17321278745E+01  0.17321278745E+01  0.00000000000E+00 0.  1.
          2   -1    0    0  501    0  0.00000000000E+00 -0.00000000000E+00 -0.21219217142E+03  0.21219217142E+03  0.00000000000E+00 0. -1.
        -11    1    1    2    0    0 -0.15464407793E+02 -0.11325457222E+02 -0.10321773735E+03  0.10498245184E+03  0.00000000000E+00 0.  1.
         11    1    1    2    0    0  0.15464407793E+02  0.11325457222E+02 -0.10724230619E+03  0.10894184745E+03  0.00000000000E+00 0. -1.
<mgrwt>
<rscale>  0 0.38342873E+02</rscale>
<asrwt>0</asrwt>
<pdfrwt beam="2">  1        2 0.32644909E-01 0.38342873E+02</pdfrwt>
<pdfrwt beam="1">  1       -2 0.26648154E-03 0.38342873E+02</pdfrwt>
<totfact> 0.14425313E+06</totfact>
</mgrwt>
</event>
<event>
 4    1  0.2126213E+000  0.3443659E+02  0.7546771E-02  0.1553661E+00
          4   -1    0    0  501    0  0.00000000000E+00  0.00000000000E+00  0.57243875430E+01  0.57243875430E+01  0.00000000000E+00 0.  1.
         -4   -1    0    0    0  501 -0.00000000000E+00 -0.00000000000E+00 -0.51790623518E+02  0.51790623518E+02  0.00000000000E+00 0. -1.
        -13    1    1    2    0    0 -0.38645307840E+01  0.16706792586E+02 -0.20435969580E+02  0.26677338124E+02  0.00000000000E+00 0. -1.
         13    1    1    2    0    0  0.38645307840E+01 -0.16706792586E+02 -0.25630266395E+02  0.30837672937E+02  0.00000000000E+00 0.  1.
<mgrwt>
<rscale>  0 0.34436585E+02</rscale>
<asrwt>0</asrwt>
<pdfrwt beam="1">  1        4 0.88067502E-03 0.34436585E+02</pdfrwt>
<pdfrwt beam="2">  1       -4 0.79677881E-02 0.34436585E+02</pdfrwt>
<totfact> 0.34470163E+05</totfact>
</mgrwt>
</event>
<event>
 4    1  0.2126213E+000  0.1687892E+03  0.7546771E-02  0.1179116E+00
         -2   -1    0    0    0  501 -0.00000000000E+00  0.00000000000E+00  0.12044284635E+03  0.12044284635E+03  0.00000000000E+00 0. -1.
          2   -1    0    0  501    0  0.00000000000E+00 -0.00000000000E+00 -0.59135477594E+02  0.59135477594E+02  0.00000000000E+00 0.  1.
        -11    1    1    2    0    0 -0.81201001150E+01 -0.80563265768E+02  0.53406500838E+01  0.81147386652E+02  0.00000000000E+00 0. -1.
         11    1    1    2    0    0  0.81201001150E+01  0.80563265768E+02  0.55966718671E+02  0.98430937291E+02  0.00000000000E+00 0.  1.
<mgrwt>
<rscale>  0 0.16878916E+03</rscale>
<asrwt>0</asrwt>
<pdfrwt beam="2">  1        2 0.90977658E-02 0.16878916E+03</pdfrwt>
<pdfrwt beam="1">  1       -2 0.18529669E-01 0.16878916E+03</pdfrwt>
<totfact> 0.16405380E+04</totfact>
</mgrwt>
</event>
<event>
 4    1  0.2126213E+000  0.3339759E+02  0.7546771E-02  0.1563309E+00
          2   -1    0    0  501    0  0.00000000000E+00  0.00000000000E+00  0.16275908448E+02  0.16275908448E+02  0.00000000000E+00 0. -1.
         -2   -1    0    0    0  501 -0.00000000000E+00 -0.00000000000E+00 -0.17132667014E+02  0.17132667014E+02  0.00000000000E+00 0.  1.
        -13    1    1    2    0    0  0.16524399955E+02 -0.19865967844E+01 -0.17880023440E+01  0.16739155087E+02  0.00000000000E+00 0.  1.
         13    1    1    2    0    0 -0.16524399955E+02  0.19865967844E+01  0.93124377777E+00  0.16669420374E+02  0.00000000000E+00 0. -1.
<mgrwt>
<rscale>  0 0.33397588E+02</rscale>
<asrwt>0</asrwt>
<pdfrwt beam="1">  1        2 0.25039859E-02 0.33397588E+02</pdfrwt>
<pdfrwt beam="2">  1       -2 0.26357949E-02 0.33397588E+02</pdfrwt>
<totfact> 0.12119026E+06</totfact>
</mgrwt>
</event>
<event>
 4    1  0.2126213E+000  0.2056341E+02  0.7546771E-02  0.1734351E+00
         -2   -1    0    0    0  501 -0.00000000000E+00  0.00000000000E+00  0.19014681628E+01  0.19014681628E+01  0.00000000000E+00 0.  1.
          2   -1    0    0  501    0  0.00000000000E+00 -0.00000000000E+00 -0.55595689382E+02  0.55595689382E+02  0.00000000000E+00 0. -1.
        -11    1    1    2    0    0 -0.87021049809E+00 -0.10085775436E+02 -0.21819352778E+02  0.24053363343E+02  0.00000000000E+00 0. -1.
         11    1    1    2    0    0  0.87021049809E+00  0.10085775436E+02 -0.31874868442E+02  0.33443794202E+02  0.00000000000E+00 0.  1.
<mgrwt>
<rscale>  0 0.20563408E+02</rscale>
<asrwt>0</asrwt>
<pdfrwt beam="2">  1        2 0.85531825E-02 0.20563408E+02</pdfrwt>
<pdfrwt beam="1">  1       -2 0.29253358E-03 0.20563408E+02</pdfrwt>
<totfact> 0.44270396E+06</totfact>
</mgrwt>
</event>
<event>
 4    1  0.2126213E+000  0.2625098E+02  0.7546771E-02  0.1643658E+00
         -2   -1    0    0    0  501 -0.00000000000E+00  0.00000000000E+00  0.14240662543E+02  0.14240662543E+02  0.00000000000E+00 0.  1.
          2   -1    0    0  501    0  0.00000000000E+00 -0.00000000000E+00 -0.12097644409E+02  0.12097644409E+02  0.00000000000E+00 0. -1.
        -13    1    1    2    0    0  0.11389705047E+02 -0.60371387114E+01  0.35507710154E+01  0.13370878793E+02  0.00000000000E+00 0. -1.
         13    1    1    2    0    0 -0.11389705047E+02  0.60371387114E+01 -0.14077528816E+01  0.12967428159E+02  0.00000000000E+00 0.  1.
<mgrwt>
<rscale>  0 0.26250979E+02</rscale>
<asrwt>0</asrwt>
<pdfrwt beam="2">  1        2 0.18611761E-02 0.26250979E+02</pdfrwt>
<pdfrwt beam="1">  1       -2 0.21908712E-02 0.26250979E+02</pdfrwt>
<totfact> 0.21188663E+06</totfact>
</mgrwt>
</event>
<event>
 4    1  0.2126213E+000  0.2191750E+02  0.7546771E-02  0.1709683E+00
         -1   -1    0    0    0  501 -0.00000000000E+00  0.00000000000E+00  0.30185029285E+01  0.30185029285E+01  0.00000000000E+00 0. -1.
          1   -1    0    0  501    0  0.00000000000E+00 -0.00000000000E+00 -0.39786008107E+02  0.39786008107E+02  0.00000000000E+00 0.  1.
        -11    1    1    2    0    0 -0.70322319378E+01 -0.83966826184E+01 -0.19108246172E+02  0.22024568936E+02  0.00000000000E+00 0.  1.
         11    1    1    2    0    0  0.70322319378E+01  0.83966826184E+01 -0.17659259006E+02  0.20779942100E+02  0.00000000000E+00 0. -1.
<mgrwt>
<rscale>  0 0.21917498E+02</rscale>
<asrwt>0</asrwt>
<pdfrwt beam="2">  1        1 0.61209238E-02 0.21917498E+02</pdfrwt>
<pdfrwt beam="1">  1       -1 0.46438510E-03 0.21917498E+02</pdfrwt>
<totfact> 0.33454126E+06</totfact>
</mgrwt>
</event>
<event>
 4    1  0.2126213E+000  0.2627366E+02  0.7546771E-02  0.1643354E+00
          2   -1    0    0  501    0  0.00000000000E+00  0.00000000000E+00  0.47079997911E+02  0.47079997911E+02  0.00000000000E+00 0. -1.
         -2   -1    0    0    0  501 -0.00000000000E+00 -0.00000000000E+00 -0.36655968263E+01  0.36655968263E+01  0.00000000000E+00 0.  1.
        -11    1    1    2    0    0 -0.12003223922E+02  0.51969653438E+01  0.19349234190E+02  0.23355485373E+02  0.00000000000E+00 0.  1.
         11    1    1    2    0    0  0.12003223922E+02 -0.51969653438E+01  0.24065166895E+02  0.27390109364E+02  0.00000000000E+00 0. -1.
<mgrwt>
<rscale>  0 0.26273659E+02</rscale>
<asrwt>0</asrwt>
<pdfrwt beam="1">  1        2 0.72430762E-02 0.26273659E+02</pdfrwt>
<pdfrwt beam="2">  1       -2 0.56393801E-03 0.26273659E+02</pdfrwt>
<totfact> 0.24625069E+06</totfact>
</mgrwt>
</event>
<event>
 4    1  0.2126213E+000  0.4624434E+02  0.7546771E-02  0.1466720E+00
          2   -1    0    0  501    0  0.00000000000E+00  0.00000000000E+00  0.77742747135E+02  0.77742747135E+02  0.00000000000E+00 0. -1.
         -2   -1    0    0    0  501 -0.00000000000E+00 -0.00000000000E+00 -0.68769717010E+01  0.68769717010E+01  0.00000000000E+00 0.  1.
        -11    1    1    2    0    0  0.14069785983E+02  0.13272372512E+02  0.58616307160E+02  0.61725085782E+02  0.00000000000E+00 0. -1.
         11    1    1    2    0    0 -0.14069785983E+02 -0.13272372512E+02  0.12249468274E+02  0.22894633054E+02  0.00000000000E+00 0.  1.
<mgrwt>
<rscale>  0 0.46244337E+02</rscale>
<asrwt>0</asrwt>
<pdfrwt beam="1">  1        2 0.11960422E-01 0.46244337E+02</pdfrwt>
<pdfrwt beam="2">  1       -2 0.10579957E-02 0.46244337E+02</pdfrwt>
<totfact> 0.68579121E+05</totfact>
</mgrwt>
</event>
<event>
 4    1  0.2126213E+000  0.5830454E+02  0.7546771E-02  0.1405088E+00
          2   -1    0    0  501    0  0.00000000000E+00  0.00000000000E+00  0.89246351285E+01  0.89246351285E+01  0.00000000000E+00 0.  1.
         -2   -1    0    0    0  501 -0.00000000000E+00 -0.00000000000E+00 -0.95225717827E+02  0.95225717827E+02  0.00000000000E+00 0. -1.
        -13    1    1    2    0    0 -0.11270474458E+02 -0.22126480768E+02 -0.70432104609E+02  0.74681229940E+02  0.00000000000E+00 0. -1.
         13    1    1    2    0    0  0.11270474458E+02  0.22126480768E+02 -0.15868978089E+02  0.29469123015E+02  0.00000000000E+00 0.  1.
<mgrwt>
<rscale>  0 0.58304538E+02</rscale>
<asrwt>0</asrwt>
<pdfrwt beam="1">  1        2 0.13730208E-02 0.58304538E+02</pdfrwt>
<pdfrwt beam="2">  1       -2 0.14650111E-01 0.58304538E+02</pdfrwt>
<totfact> 0.24519766E+05</totfact>
</mgrwt>
</event>
<event>
 4    1  0.2126213E+000  0.3421468E+02  0.7546771E-02  0.1555687E+00
         -2   -1    0    0    0  501 -0.00000000000E+00  0.00000000000E+00  0.51985453192E+02  0.51985453192E+02  0.00000000000E+00 0. -1.
          2   -1    0    0  501    0  0.00000000000E+00 -0.00000000000E+00 -0.56296714195E+01  0.56296714195E+01  0.00000000000E+00 0.  1.
        -13    1    1    2    0    0  0.49374412790E+01  0.16040307790E+02  0.17595155890E+02  0.24315824295E+02  0.00000000000E+00 0. -1.
         13    1    1    2    0    0 -0.49374412790E+01 -0.16040307790E+02  0.28760625883E+02  0.33299300316E+02  0.00000000000E+00 0.  1.
<mgrwt>
<rscale>  0 0.34214676E+02</rscale>
<asrwt>0</asrwt>
<pdfrwt beam="2">  1        2 0.86610333E-03 0.34214676E+02</pdfrwt>
<pdfrwt beam="1">  1       -2 0.79977617E-02 0.34214676E+02</pdfrwt>
<totfact> 0.99692736E+05</totfact>
</mgrwt>
</event>
<event>
 4    1  0.2126213E+000  0.4497363E+02  0.7546771E-02  0.1474506E+00
          2   -1    0    0  501    0  0.00000000000E+00  0.00000000000E+00  0.65258581469E+01  0.65258581469E+01  0.00000000000E+00 0.  1.
         -2   -1    0    0    0  501 -0.00000000000E+00 -0.00000000000E+00 -0.77485099436E+02  0.77485099436E+02  0.00000000000E+00 0. -1.
        -13    1    1    2    0    0  0.15998506411E+02 -0.15787900778E+02 -0.34231059431E+02  0.40950890688E+02  0.00000000000E+00 0.  1.
         13    1    1    2    0    0 -0.15998506411E+02  0.15787900778E+02 -0.36728181858E+02  0.43060066894E+02  0.00000000000E+00 0. -1.
<mgrwt>
<rscale>  0 0.44973626E+02</rscale>
<asrwt>0</asrwt>
<pdfrwt beam="1">  1        2 0.10039781E-02 0.44973626E+02</pdfrwt>
<pdfrwt beam="2">  1       -2 0.11920785E-01 0.44973626E+02</pdfrwt>
<totfact> 0.48408134E+05</totfact>
</mgrwt>
</event>
<event>
 4    1  0.2126213E+000  0.3801654E+02  0.7546771E-02  0.1523336E+00
         -2   -1    0    0    0  501 -0.00000000000E+00  0.00000000000E+00  0.19606673791E+02  0.19606673791E+02  0.00000000000E+00 0. -1.
          2   -1    0    0  501    0  0.00000000000E+00 -0.00000000000E+00 -0.18428126570E+02  0.18428126570E+02  0.00000000000E+00 0.  1.
        -13    1    1    2    0    0 -0.76665790082E+01 -0.16632937465E+02 -0.45007262970E+01  0.18859681323E+02  0.00000000000E+00 0.  1.
         13    1    1    2    0    0  0.76665790082E+01  0.16632937465E+02  0.56792735183E+01  0.19175119038E+02  0.00000000000E+00 0. -1.
<mgrwt>
<rscale>  0 0.38016537E+02</rscale>
<asrwt>0</asrwt>
<pdfrwt beam="2">  1        2 0.28350964E-02 0.38016537E+02</pdfrwt>
<pdfrwt beam="1">  1       -2 0.30164113E-02 0.38016537E+02</pdfrwt>
<totfact> 0.88800412E+05</totfact>
</mgrwt>
</event>
<event>
 4    1  0.2126213E+000  0.2803742E+02  0.7546771E-02  0.1620854E+00
          4   -1    0    0  501    0  0.00000000000E+00  0.00000000000E+00  0.62670820039E+01  0.62670820039E+01  0.00000000000E+00 0. -1.
         -4   -1    0    0    0  501 -0.00000000000E+00 -0.00000000000E+00 -0.31358181247E+02  0.31358181247E+02  0.00000000000E+00 0.  1.
        -13    1    1    2    0    0 -0.12669144677E+02  0.22592306377E+01 -0.50842993169E+01  0.13836959545E+02  0.00000000000E+00 0. -1.
         13    1    1    2    0    0  0.12669144677E+02 -0.22592306377E+01 -0.20006799926E+02  0.23788303706E+02  0.00000000000E+00 0.  1.
<mgrwt>
<rscale>  0 0.28037425E+02</rscale>
<asrwt>0</asrwt>
<pdfrwt beam="1">  1        4 0.96416646E-03 0.28037425E+02</pdfrwt>
<pdfrwt beam="2">  1       -4 0.48243356E-02 0.28037425E+02</pdfrwt>
<totfact> 0.58823893E+05</totfact>
</mgrwt>
</event>
<event>
 4    1  0.2126213E+000  0.3295435E+02  0.7546771E-02  0.1567555E+00
         -2   -1    0    0    0  501 -0.00000000000E+00  0.00000000000E+00  0.36425516352E+01  0.36425516352E+01  0.00000000000E+00 0.  1.
          2   -1    0    0  501    0  0.00000000000E+00 -0.00000000000E+00 -0.74534913182E+02  0.74534913182E+02  0.00000000000E+00 0. -1.
        -11    1    1    2    0    0 -0.99035750271E+01  0.89171345328E+01 -0.58434350039E+02  0.59934709068E+02  0.00000000000E+00 0. -1.
         11    1    1    2    0    0  0.99035750271E+01 -0.89171345328E+01 -0.12458011508E+02  0.18242755749E+02  0.00000000000E+00 0.  1.
<mgrwt>
<rscale>  0 0.32954348E+02</rscale>
<asrwt>0</asrwt>
<pdfrwt beam="2">  1        2 0.11466909E-01 0.32954348E+02</pdfrwt>
<pdfrwt beam="1">  1       -2 0.56039257E-03 0.32954348E+02</pdfrwt>
<totfact> 0.15640057E+06</totfact>
</mgrwt>
</event>
<event>
 4    1  0.2126213E+000  0.5114991E+02  0.7546771E-02  0.1439236E+00
          2   -1    0    0  501    0  0.00000000000E+00  0.00000000000E+00  0.64072567256E+02  0.64072567256E+02  0.00000000000E+00 0.  1.
         -2   -1    0    0    0  501 -0.00000000000E+00 -0.00000000000E+00 -0.10208397121E+02  0.10208397121E+02  0.00000000000E+00 0. -1.
        -11    1    1    2    0    0  0.22592145009E+02 -0.11215099271E+02  0.20788874048E+02  0.32685788226E+02  0.00000000000E+00 0.  1.
         11    1    1    2    0    0 -0.22592145009E+02  0.11215099271E+02  0.33075296086E+02  0.41595176150E+02  0.00000000000E+00 0. -1.
<mgrwt>
<rscale>  0 0.51149906E+02</rscale>
<asrwt>0</asrwt>
<pdfrwt beam="1">  1        2 0.98573178E-02 0.51149906E+02</pdfrwt>
<pdfrwt beam="2">  1       -2 0.15705227E-02 0.51149906E+02</pdfrwt>
<totfact> 0.50868738E+05</totfact>
</mgrwt>
</event>
<event>
 4    1  0.2126213E+000  0.3012778E+02  0.7546771E-02  0.1596681E+00
          1   -1    0    0  501    0  0.00000000000E+00  0.00000000000E+00  0.78816588220E+02  0.78816588220E+02  0.00000000000E+00 0.  1.
         -1   -1    0    0    0  501 -0.00000000000E+00 -0.00000000000E+00 -0.28790993523E+01  0.28790993523E+01  0.00000000000E+00 0. -1.
        -13    1    1    2    0    0 -0.55794264348E+01 -0.12390023909E+02  0.20337226356E+02  0.24459056966E+02  0.00000000000E+00 0.  1.
         13    1    1    2    0    0  0.55794264348E+01  0.12390023909E+02  0.55600262512E+02  0.57236630606E+02  0.00000000000E+00 0. -1.
<mgrwt>
<rscale>  0 0.30127780E+02</rscale>
<asrwt>0</asrwt>
<pdfrwt beam="1">  1        1 0.12125627E-01 0.30127780E+02</pdfrwt>
<pdfrwt beam="2">  1       -1 0.44293842E-03 0.30127780E+02</pdfrwt>
<totfact> 0.16943384E+06</totfact>
</mgrwt>
</event>
<event>
 4    1  0.2126213E+000  0.2480079E+02  0.7546771E-02  0.1663880E+00
         -4   -1    0    0    0  501 -0.00000000000E+00  0.00000000000E+00  0.12571996740E+03  0.12571996740E+03  0.00000000000E+00 0.  1.
          4   -1    0    0  501    0  0.00000000000E+00 -0.00000000000E+00 -0.12231133910E+01  0.12231133910E+01  0.00000000000E+00 0. -1.
        -11    1    1    2    0    0  0.11478479523E+02  0.45219586281E+01  0.68654081435E+02  0.69753756169E+02  0.00000000000E+00 0. -1.
         11    1    1    2    0    0 -0.11478479523E+02 -0.45219586281E+01  0.55842772575E+02  0.57189324624E+02  0.00000000000E+00 0.  1.
<mgrwt>
<rscale>  0 0.24800788E+02</rscale>
<asrwt>0</asrwt>
<pdfrwt beam="2">  1        4 0.18817139E-03 0.24800788E+02</pdfrwt>
<pdfrwt beam="1">  1       -4 0.19341523E-01 0.24800788E+02</pdfrwt>
<totfact> 0.58452194E+05</totfact>
</mgrwt>
</event>
<event>
 4    1  0.2126213E+000  0.2814686E+02  0.7546771E-02  0.1619525E+00
         -1   -1    0    0    0  501 -0.00000000000E+00  0.00000000000E+00  0.77696767241E+01  0.77696767241E+01  0.00000000000E+00 0.  1.
          1   -1    0    0  501    0  0.00000000000E+00 -0.00000000000E+00 -0.25491599456E+02  0.25491599456E+02  0.00000000000E+00 0. -1.
        -13    1    1    2    0    0 -0.11792409725E+02  0.76468052429E+01 -0.80031632052E+01  0.16173595112E+02  0.00000000000E+00 0.  1.
         13    1    1    2    0    0  0.11792409725E+02 -0.76468052429E+01 -0.97187595267E+01  0.17087681068E+02  0.00000000000E+00 0. -1.
<mgrwt>
<rscale>  0 0.28146864E+02</rscale>
<asrwt>0</asrwt>
<pdfrwt beam="2">  1        1 0.39217846E-02 0.28146864E+02</pdfrwt>
<pdfrwt beam="1">  1       -1 0.11953349E-02 0.28146864E+02</pdfrwt>
<totfact> 0.18254804E+06</totfact>
</mgrwt>
</event>
<event>
 4    1  0.2126213E+000  0.3932290E+02  0.7546771E-02  0.1513254E+00
         -4   -1    0    0    0  501 -0.00000000000E+00  0.00000000000E+00  0.58179785157E+02  0.58179785157E+02  0.00000000000E+00 0.  1.
          4   -1    0    0  501    0  0.00000000000E+00 -0.00000000000E+00 -0.66444506645E+01  0.66444506645E+01  0.00000000000E+00 0. -1.
        -13    1    1    2    0    0  0.15668925391E+02  0.12400063372E+01  0.45239635371E+02  0.47892352699E+02  0.00000000000E+00 0.  1.
         13    1    1    2    0    0 -0.15668925391E+02 -0.12400063372E+01  0.62956991223E+01  0.16931883122E+02  0.00000000000E+00 0. -1.
<mgrwt>
<rscale>  0 0.39322905E+02</rscale>
<asrwt>0</asrwt>
<pdfrwt beam="2">  1        4 0.10222232E-02 0.39322905E+02</pdfrwt>
<pdfrwt beam="1">  1       -4 0.89507358E-02 0.39322905E+02</pdfrwt>
<totfact> 0.24691327E+05</totfact>
</mgrwt>
</event>
<event>
 4    1  0.2126213E+000  0.3892920E+02  0.7546771E-02  0.1516243E+00
         -2   -1    0    0    0  501 -0.00000000000E+00  0.00000000000E+00  0.71197502306E+01  0.71197502306E+01  0.00000000000E+00 0.  1.
          2   -1    0    0  501    0  0.00000000000E+00 -0.00000000000E+00 -0.53214046929E+02  0.53214046929E+02  0.00000000000E+00 0. -1.
        -13    1    1    2    0    0  0.14913348408E+02 -0.12311769411E+02 -0.26471929125E+02  0.32783389977E+02  0.00000000000E+00 0. -1.
         13    1    1    2    0    0 -0.14913348408E+02  0.12311769411E+02 -0.19622367573E+02  0.27550407182E+02  0.00000000000E+00 0.  1.
<mgrwt>
<rscale>  0 0.38929204E+02</rscale>
<asrwt>0</asrwt>
<pdfrwt beam="2">  1        2 0.81867766E-02 0.38929204E+02</pdfrwt>
<pdfrwt beam="1">  1       -2 0.10953462E-02 0.38929204E+02</pdfrwt>
<totfact> 0.97589300E+05</totfact>
</mgrwt>
</event>
<event>
 4    1  0.2126213E+000  0.2608267E+02  0.7546771E-02  0.1645921E+00
          2   -1    0    0  501    0  0.00000000000E+00  0.00000000000E+00  0.10173038564E+02  0.10173038564E+02  0.00000000000E+00 0.  1.
         -2   -1    0    0    0  501 -0.00000000000E+00 -0.00000000000E+00 -0.16718351245E+02  0.16718351245E+02  0.00000000000E+00 0. -1.
        -13    1    1    2    0    0 -0.65577332583E+01 -0.78405380410E+01  0.50777620701E+01  0.11413219086E+02  0.00000000000E+00 0.  1.
         13    1    1    2    0    0  0.65577332583E+01  0.78405380410E+01 -0.11623074752E+02  0.15478170723E+02  0.00000000000E+00 0. -1.
<mgrwt>
<rscale>  0 0.26082671E+02</rscale>
<asrwt>0</asrwt>
<pdfrwt beam="1">  1        2 0.15650829E-02 0.26082671E+02</pdfrwt>
<pdfrwt beam="2">  1       -2 0.25720540E-02 0.26082671E+02</pdfrwt>
<totfact> 0.21180855E+06</totfact>
</mgrwt>
</event>
<event>
 4    1  0.2126213E+000  0.2157603E+02  0.7546771E-02  0.1715689E+00
          2   -1    0    0  501    0  0.00000000000E+00  0.00000000000E+00  0.44952800289E+01  0.44952800289E+01  0.00000000000E+00 0.  1.
         -2   -1    0    0    0  501 -0.00000000000E+00 -0.00000000000E+00 -0.25889667812E+02  0.25889667812E+02  0.00000000000E+00 0. -1.
        -13    1    1    2    0    0  0.62473902912E+01 -0.82810213516E+01 -0.14869131740E+02  0.18129982867E+02  0.00000000000E+00 0. -1.
         13    1    1    2    0    0 -0.62473902912E+01  0.82810213516E+01 -0.65252560438E+01  0.12254964974E+02  0.00000000000E+00 0.  1.
<mgrwt>
<rscale>  0 0.21576034E+02</rscale>
<asrwt>0</asrwt>
<pdfrwt beam="1">  1        2 0.69158154E-03 0.21576034E+02</pdfrwt>
<pdfrwt beam="2">  1       -2 0.39830259E-02 0.21576034E+02</pdfrwt>
<totfact> 0.30986309E+06</totfact>
</mgrwt>
</event>
<event>
 4    1  0.2126213E+000  0.5789663E+02  0.7546771E-02  0.1406877E+00
         -2   -1    0    0    0  501 -0.00000000000E+00  0.00000000000E+00  0.57328351668E+01  0.57328351668E+01  0.00000000000E+00 0.  1.
          2   -1    0    0  501    0  0.00000000000E+00 -0.00000000000E+00 -0.14617636269E+03  0.14617636269E+03  0.00000000000E+00 0. -1.
        -13    1    1    2    0    0  0.27315365012E+02  0.95850146440E+01 -0.70372971584E+02  0.76094394019E+02  0.00000000000E+00 0. -1.
         13    1    1    2    0    0 -0.27315365012E+02 -0.95850146440E+01 -0.70070555939E+02  0.75814803839E+02  0.00000000000E+00 0.  1.
<mgrwt>
<rscale>  0 0.57896632E+02</rscale>
<asrwt>0</asrwt>
<pdfrwt beam="2">  1        2 0.22488672E-01 0.57896632E+02</pdfrwt>
<pdfrwt beam="1">  1       -2 0.88197460E-03 0.57896632E+02</pdfrwt>
<totfact> 0.45915325E+05</totfact>
</mgrwt>
</event>
<event>
 4    1  0.2126213E+000  0.3430750E+02  0.7546771E-02  0.1554837E+00
          2   -1    0    0  501    0  0.00000000000E+00  0.00000000000E+00  0.27496113006E+02  0.27496113006E+02  0.00000000000E+00 0. -1.
         -2   -1    0    0    0  501 -0.00000000000E+00 -0.00000000000E+00 -0.10701556889E+02  0.10701556889E+02  0.00000000000E+00 0.  1.
        -11    1    1    2    0    0 -0.83390065125E+01 -0.96193808438E+01  0.21197872036E+02  0.24726934632E+02  0.00000000000E+00 0. -1.
         11    1    1    2    0    0  0.83390065125E+01  0.96193808438E+01 -0.44033159193E+01  0.13470735263E+02  0.00000000000E+00 0.  1.
<mgrwt>
<rscale>  0 0.34307505E+02</rscale>
<asrwt>0</asrwt>
<pdfrwt beam="1">  1        2 0.42301712E-02 0.34307505E+02</pdfrwt>
<pdfrwt beam="2">  1       -2 0.16463934E-02 0.34307505E+02</pdfrwt>
<totfact> 0.12063521E+06</totfact>
</mgrwt>
</event>
<event>
 4    1  0.2126213E+000  0.4641966E+02  0.7546771E-02  0.1465669E+00
         -3   -1    0    0    0  501 -0.00000000000E+00  0.00000000000E+00  0.12561650271E+02  0.12561650271E+02  0.00000000000E+00 0.  1.
          3   -1    0    0  501    0  0.00000000000E+00 -0.00000000000E+00 -0.42884193307E+02  0.42884193307E+02  0.00000000000E+00 0. -1.
        -11    1    1    2    0    0 -0.21223085887E+02  0.90068352924E+01 -0.18356006795E+02  0.29470077061E+02  0.00000000000E+00 0. -1.
         11    1    1    2    0    0  0.21223085887E+02 -0.90068352924E+01 -0.11966536241E+02  0.25975766517E+02  0.00000000000E+00 0.  1.
<mgrwt>
<rscale>  0 0.46419661E+02</rscale>
<asrwt>0</asrwt>
<pdfrwt beam="2">  1        3 0.65975681E-02 0.46419661E+02</pdfrwt>
<pdfrwt beam="1">  1       -3 0.19325616E-02 0.46419661E+02</pdfrwt>
<totfact> 0.22449059E+05</totfact>
</mgrwt>
</event>
<event>
 4    1  0.2126213E+000  0.2904081E+02  0.7546771E-02  0.1608940E+00
          4   -1    0    0  501    0  0.00000000000E+00  0.00000000000E+00  0.37013596799E+02  0.37013596799E+02  0.00000000000E+00 0. -1.
         -4   -1    0    0    0  501 -0.00000000000E+00 -0.00000000000E+00 -0.56963418490E+01  0.56963418490E+01  0.00000000000E+00 0.  1.
        -13    1    1    2    0    0  0.72434983188E+01 -0.10267762442E+02  0.26360025077E+02  0.29201817332E+02  0.00000000000E+00 0. -1.
         13    1    1    2    0    0 -0.72434983188E+01  0.10267762442E+02  0.49572298738E+01  0.13508121316E+02  0.00000000000E+00 0.  1.
<mgrwt>
<rscale>  0 0.29040806E+02</rscale>
<asrwt>0</asrwt>
<pdfrwt beam="1">  1        4 0.56943994E-02 0.29040806E+02</pdfrwt>
<pdfrwt beam="2">  1       -4 0.87636031E-03 0.29040806E+02</pdfrwt>
<totfact> 0.53400300E+05</totfact>
</mgrwt>
</event>
<event>
 4    1  0.2126213E+000  0.3827512E+02  0.7546771E-02  0.1521302E+00
         -2   -1    0    0    0  501 -0.00000000000E+00  0.00000000000E+00  0.53374214711E+02  0.53374214711E+02  0.00000000000E+00 0. -1.
          2   -1    0    0  501    0  0.00000000000E+00 -0.00000000000E+00 -0.68618571203E+01  0.68618571203E+01  0.00000000000E+00 0.  1.
        -13    1    1    2    0    0 -0.11955881226E+02 -0.13409072379E+02  0.33635866282E+02  0.38132896802E+02  0.00000000000E+00 0. -1.
         13    1    1    2    0    0  0.11955881226E+02  0.13409072379E+02  0.12876491308E+02  0.22103175029E+02  0.00000000000E+00 0.  1.
<mgrwt>
<rscale>  0 0.38275122E+02</rscale>
<asrwt>0</asrwt>
<pdfrwt beam="2">  1        2 0.10556704E-02 0.38275122E+02</pdfrwt>
<pdfrwt beam="1">  1       -2 0.82114174E-02 0.38275122E+02</pdfrwt>
<totfact> 0.76251093E+05</totfact>
</mgrwt>
</event>
<event>
 4    1  0.2126213E+000  0.2465847E+02  0.7546771E-02  0.1665956E+00
          2   -1    0    0  501    0  0.00000000000E+00  0.00000000000E+00  0.27966851431E+02  0.27966851431E+02  0.00000000000E+00 0. -1.
         -2   -1    0    0    0  501 -0.00000000000E+00 -0.00000000000E+00 -0.54353635798E+01  0.54353635798E+01  0.00000000000E+00 0.  1.
        -11    1    1    2    0    0 -0.11175476805E+02  0.25610685681E+01  0.51236414183E+01  0.12557947898E+02  0.00000000000E+00 0.  1.
         11    1    1    2    0    0  0.11175476805E+02 -0.25610685681E+01  0.17407846432E+02  0.20844267112E+02  0.00000000000E+00 0. -1.
<mgrwt>
<rscale>  0 0.24658468E+02</rscale>
<asrwt>0</asrwt>
<pdfrwt beam="1">  1        2 0.43025925E-02 0.24658468E+02</pdfrwt>
<pdfrwt beam="2">  1       -2 0.83620980E-03 0.24658468E+02</pdfrwt>
<totfact> 0.26664656E+06</totfact>
</mgrwt>
</event>
<event>
 4    1  0.2126213E+000  0.3262374E+02  0.7546771E-02  0.1570775E+00
          2   -1    0    0  501    0  0.00000000000E+00  0.00000000000E+00  0.91029523311E+02  0.91029523311E+02  0.00000000000E+00 0.  1.
         -2   -1    0    0    0  501 -0.00000000000E+00 -0.00000000000E+00 -0.29229757062E+01  0.29229757062E+01  0.00000000000E+00 0. -1.
        -13    1    1    2    0    0 -0.56029545502E+00  0.16290774983E+02  0.42292526881E+02  0.45325060514E+02  0.00000000000E+00 0.  1.
         13    1    1    2    0    0  0.56029545502E+00 -0.16290774983E+02  0.45814020723E+02  0.48627438503E+02  0.00000000000E+00 0. -1.
<mgrwt>
<rscale>  0 0.32623739E+02</rscale>
<asrwt>0</asrwt>
<pdfrwt beam="1">  1        2 0.14004540E-01 0.32623739E+02</pdfrwt>
<pdfrwt beam="2">  1       -2 0.44968864E-03 0.32623739E+02</pdfrwt>
<totfact> 0.16744564E+06</totfact>
</mgrwt>
</event>
<event>
 4    1  0.2126213E+000  0.5499282E+02  0.7546771E-02  0.1420133E+00
         -2   -1    0    0    0  501 -0.00000000000E+00  0.00000000000E+00  0.26146976051E+01  0.26146976051E+01  0.00000000000E+00 0.  1.
          2   -1    0    0  501    0  0.00000000000E+00 -0.00000000000E+00 -0.28915482598E+03  0.28915482598E+03  0.00000000000E+00 0. -1.
        -11    1    1    2    0    0  0.24885892369E+02  0.11620419869E+02 -0.15020931415E+03  0.15269963934E+03  0.00000000000E+00 0. -1.
         11    1    1    2    0    0 -0.24885892369E+02 -0.11620419869E+02 -0.13633081422E+03  0.13906988424E+03  0.00000000000E+00 0.  1.
<mgrwt>
<rscale>  0 0.54992815E+02</rscale>
<asrwt>0</asrwt>
<pdfrwt beam="2">  1        2 0.44485306E-01 0.54992815E+02</pdfrwt>
<pdfrwt beam="1">  1       -2 0.40226164E-03 0.54992815E+02</pdfrwt>
<totfact> 0.65795732E+05</totfact>
</mgrwt>
</event>
<event>
 4    1  0.2126213E+000  0.4505573E+02  0.7546771E-02  0.1473994E+00
          2   -1    0    0  501    0  0.00000000000E+00  0.00000000000E+00  0.19213086345E+02  0.19213086345E+02  0.00000000000E+00 0.  1.
         -2   -1    0    0    0  501 -0.00000000000E+00 -0.00000000000E+00 -0.26414538399E+02  0.26414538399E+02  0.00000000000E+00 0. -1.
        -13    1    1    2    0    0  0.11938412029E+02 -0.11785697168E+02  0.11625962522E+02  0.20410569421E+02  0.00000000000E+00 0.  1.
         13    1    1    2    0    0 -0.11938412029E+02  0.11785697168E+02 -0.18827414577E+02  0.25217055323E+02  0.00000000000E+00 0. -1.
<mgrwt>
<rscale>  0 0.45055735E+02</rscale>
<asrwt>0</asrwt>
<pdfrwt beam="1">  1        2 0.29558595E-02 0.45055735E+02</pdfrwt>
<pdfrwt beam="2">  1       -2 0.40637751E-02 0.45055735E+02</pdfrwt>
<totfact> 0.57631213E+05</totfact>
</mgrwt>
</event>
<event>
 4    1  0.2126213E+000  0.2064578E+02  0.7546771E-02  0.1732783E+00
         -2   -1    0    0    0  501 -0.00000000000E+00  0.00000000000E+00  0.17258782644E+01  0.17258782644E+01  0.00000000000E+00 0.  1.
          2   -1    0    0  501    0  0.00000000000E+00 -0.00000000000E+00 -0.61743684194E+02  0.61743684194E+02  0.00000000000E+00 0. -1.
        -13    1    1    2    0    0  0.86805002576E+01 -0.55832036197E+01 -0.30614727069E+02  0.32307657930E+02  0.00000000000E+00 0. -1.
         13    1    1    2    0    0 -0.86805002576E+01  0.55832036197E+01 -0.29403078860E+02  0.31161904529E+02  0.00000000000E+00 0.  1.
<mgrwt>
<rscale>  0 0.20645782E+02</rscale>
<asrwt>0</asrwt>
<pdfrwt beam="2">  1        2 0.94990272E-02 0.20645782E+02</pdfrwt>
<pdfrwt beam="1">  1       -2 0.26551977E-03 0.20645782E+02</pdfrwt>
<totfact> 0.44654428E+06</totfact>
</mgrwt>
</event>
<event>
 4    1  0.2126213E+000  0.3461059E+02  0.7546771E-02  0.1552086E+00
         -2   -1    0    0    0  501 -0.00000000000E+00  0.00000000000E+00  0.23988337646E+01  0.23988337646E+01  0.00000000000E+00 0. -1.
          2   -1    0    0  501    0  0.00000000000E+00 -0.00000000000E+00 -0.12484121095E+03  0.12484121095E+03  0.00000000000E+00 0.  1.
        -11    1    1    2    0    0  0.25231865395E+01 -0.16668347480E+02 -0.75588563144E+02  0.77445665832E+02  0.00000000000E+00 0.  1.
         11    1    1    2    0    0 -0.25231865395E+01  0.16668347480E+02 -0.46853814040E+02  0.49794378881E+02  0.00000000000E+00 0. -1.
<mgrwt>
<rscale>  0 0.34610594E+02</rscale>
<asrwt>0</asrwt>
<pdfrwt beam="2">  1        2 0.19206347E-01 0.34610594E+02</pdfrwt>
<pdfrwt beam="1">  1       -2 0.36905123E-03 0.34610594E+02</pdfrwt>
<totfact> 0.15736171E+06</totfact>
</mgrwt>
</event>
<event>
 4    1  0.2126213E+000  0.2011218E+02  0.7546771E-02  0.1743106E+00
          3   -1    0    0  501    0  0.00000000000E+00  0.00000000000E+00  0.27083003989E+02  0.27083003989E+02  0.00000000000E+00 0.  1.
         -3   -1    0    0    0  501 -0.00000000000E+00 -0.00000000000E+00 -0.37338877624E+01  0.37338877624E+01  0.00000000000E+00 0. -1.
        -13    1    1    2    0    0  0.50921230795E+01  0.86427633745E+01  0.10593456839E+02  0.14589325001E+02  0.00000000000E+00 0. -1.
         13    1    1    2    0    0 -0.50921230795E+01 -0.86427633745E+01  0.12755659388E+02  0.16227566750E+02  0.00000000000E+00 0.  1.
<mgrwt>
<rscale>  0 0.20112175E+02</rscale>
<asrwt>0</asrwt>
<pdfrwt beam="1">  1        3 0.41666159E-02 0.20112175E+02</pdfrwt>
<pdfrwt beam="2">  1       -3 0.57444429E-03 0.20112175E+02</pdfrwt>
<totfact> 0.17012904E+06</totfact>
</mgrwt>
</event>
<event>
 4    1  0.2126213E+000  0.5748219E+02  0.7546771E-02  0.1408712E+00
          4   -1    0    0  501    0  0.00000000000E+00  0.00000000000E+00  0.44409612136E+02  0.44409612136E+02  0.00000000000E+00 0.  1.
         -4   -1    0    0    0  501 -0.00000000000E+00 -0.00000000000E+00 -0.18600717123E+02  0.18600717123E+02  0.00000000000E+00 0. -1.
        -11    1    1    2    0    0 -0.25266766295E+01 -0.22240892517E+02  0.32666237147E+02  0.39599551059E+02  0.00000000000E+00 0.  1.
         11    1    1    2    0    0  0.25266766295E+01  0.22240892517E+02 -0.68573421349E+01  0.23410778199E+02  0.00000000000E+00 0. -1.
<mgrwt>
<rscale>  0 0.57482193E+02</rscale>
<asrwt>0</asrwt>
<pdfrwt beam="1">  1        4 0.68322480E-02 0.57482193E+02</pdfrwt>
<pdfrwt beam="2">  1       -4 0.28616488E-02 0.57482193E+02</pdfrwt>
<totfact> 0.97688042E+04</totfact>
</mgrwt>
</event>
<event>
 4    1  0.2126213E+000  0.2339790E+02  0.7546771E-02  0.1685140E+00
          4   -1    0    0  501    0  0.00000000000E+00  0.00000000000E+00  0.14540539645E+02  0.14540539645E+02  0.00000000000E+00 0.  1.
         -4   -1    0    0    0  501 -0.00000000000E+00 -0.00000000000E+00 -0.94126769902E+01  0.94126769902E+01  0.00000000000E+00 0. -1.
        -11    1    1    2    0    0 -0.68849060270E+01  0.94289752243E+01  0.17992781961E+01  0.11812912715E+02  0.00000000000E+00 0.  1.
         11    1    1    2    0    0  0.68849060270E+01 -0.94289752243E+01  0.33285844586E+01  0.12140303920E+02  0.00000000000E+00 0. -1.
<mgrwt>
<rscale>  0 0.23397898E+02</rscale>
<asrwt>0</asrwt>
<pdfrwt beam="1">  1        4 0.22370061E-02 0.23397898E+02</pdfrwt>
<pdfrwt beam="2">  1       -4 0.14481042E-02 0.23397898E+02</pdfrwt>
<totfact> 0.92104136E+05</totfact>
</mgrwt>
</event>
<event>
 4    1  0.2126213E+000  0.2636689E+02  0.7546771E-02  0.1642111E+00
          2   -1    0    0  501    0  0.00000000000E+00  0.00000000000E+00  0.36029726459E+02  0.36029726459E+02  0.00000000000E+00 0.  1.
         -2   -1    0    0    0  501 -0.00000000000E+00 -0.00000000000E+00 -0.48238839074E+01  0.48238839074E+01  0.00000000000E+00 0. -1.
        -11    1    1    2    0    0 -0.10449106259E+02  0.76615695522E+01  0.19372763305E+02  0.23306381694E+02  0.00000000000E+00 0.  1.
         11    1    1    2    0    0  0.10449106259E+02 -0.76615695522E+01  0.11833079246E+02  0.17547228672E+02  0.00000000000E+00 0. -1.
<mgrwt>
<rscale>  0 0.26366890E+02</rscale>
<asrwt>0</asrwt>
<pdfrwt beam="1">  1        2 0.55430347E-02 0.26366890E+02</pdfrwt>
<pdfrwt beam="2">  1       -2 0.74213601E-03 0.26366890E+02</pdfrwt>
<totfact> 0.23510319E+06</totfact>
</mgrwt>
</event>
<event>
 4    1  0.2126213E+000  0.5365022E+02  0.7546771E-02  0.1426592E+00
         -1   -1    0    0    0  501 -0.00000000000E+00  0.00000000000E+00  0.15101322312E+03  0.15101322312E+03  0.00000000000E+00 0.  1.
          1   -1    0    0  501    0  0.00000000000E+00 -0.00000000000E+00 -0.47650568912E+01  0.47650568912E+01  0.00000000000E+00 0. -1.
        -13    1    1    2    0    0 -0.10807505647E+02  0.24146003415E+02  0.86029535568E+02  0.90005070131E+02  0.00000000000E+00 0. -1.
         13    1    1    2    0    0  0.10807505647E+02 -0.24146003415E+02  0.60218630659E+02  0.65773209878E+02  0.00000000000E+00 0.  1.
<mgrwt>
<rscale>  0 0.53650223E+02</rscale>
<asrwt>0</asrwt>
<pdfrwt beam="2">  1        1 0.73308579E-03 0.53650223E+02</pdfrwt>
<pdfrwt beam="1">  1       -1 0.23232800E-01 0.53650223E+02</pdfrwt>
<totfact> 0.28856203E+05</totfact>
</mgrwt>
</event>
<event>
 4    1  0.2126213E+000  0.2800078E+02  0.7546771E-02  0.1621300E+00
         -1   -1    0    0    0  501 -0.00000000000E+00  0.00000000000E+00  0.64857087353E+01  0.64857087353E+01  0.00000000000E+00 0.  1.
          1   -1    0    0  501    0  0.00000000000E+00 -0.00000000000E+00 -0.30221971841E+02  0.30221971841E+02  0.00000000000E+00 0. -1.
        -13    1    1    2    0    0  0.93956973412E+01  0.58437036959E+01 -0.62272152732E+00  0.11082228274E+02  0.00000000000E+00 0.  1.
         13    1    1    2    0    0 -0.93956973412E+01 -0.58437036959E+01 -0.23113541579E+02  0.25625452303E+02  0.00000000000E+00 0. -1.
<mgrwt>
<rscale>  0 0.28000779E+02</rscale>
<asrwt>0</asrwt>
<pdfrwt beam="2">  1        1 0.46495341E-02 0.28000779E+02</pdfrwt>
<pdfrwt beam="1">  1       -1 0.99780136E-03 0.28000779E+02</pdfrwt>
<totfact> 0.18665247E+06</totfact>
</mgrwt>
</event>
<event>
 4    1  0.2126213E+000  0.3087887E+02  0.7546771E-02  0.1588572E+00
          2   -1    0    0  501    0  0.00000000000E+00  0.00000000000E+00  0.17471191820E+01  0.17471191820E+01  0.00000000000E+00 0. -1.
         -2   -1    0    0    0  501 -0.00000000000E+00 -0.00000000000E+00 -0.13643953556E+03  0.13643953556E+03  0.00000000000E+00 0.  1.
        -11    1    1    2    0    0 -0.78958161248E+01 -0.12401990570E+02 -0.46249991507E+02  0.48530557351E+02  0.00000000000E+00 0. -1.
         11    1    1    2    0    0  0.78958161248E+01  0.12401990570E+02 -0.88442424872E+02  0.89656097392E+02  0.00000000000E+00 0.  1.
<mgrwt>
<rscale>  0 0.30878868E+02</rscale>
<asrwt>0</asrwt>
<pdfrwt beam="1">  1        2 0.26878749E-03 0.30878868E+02</pdfrwt>
<pdfrwt beam="2">  1       -2 0.20990703E-01 0.30878868E+02</pdfrwt>
<totfact> 0.10246398E+06</totfact>
</mgrwt>
</event>
<event>
 4    1  0.2126213E+000  0.2980953E+02  0.7546771E-02  0.1600204E+00
         -1   -1    0    0    0  501 -0.00000000000E+00  0.00000000000E+00  0.51298653855E+01  0.51298653855E+01  0.00000000000E+00 0.  1.
          1   -1    0    0  501    0  0.00000000000E+00 -0.00000000000E+00 -0.43305634758E+02  0.43305634758E+02  0.00000000000E+00 0. -1.
        -11    1    1    2    0    0  0.39626464829E+01 -0.14234384953E+02 -0.22268489523E+02  0.26724631106E+02  0.00000000000E+00 0. -1.
         11    1    1    2    0    0 -0.39626464829E+01  0.14234384953E+02 -0.15907279850E+02  0.21710869038E+02  0.00000000000E+00 0.  1.
<mgrwt>
<rscale>  0 0.29809534E+02</rscale>
<asrwt>0</asrwt>
<pdfrwt beam="2">  1        1 0.66624052E-02 0.29809534E+02</pdfrwt>
<pdfrwt beam="1">  1       -1 0.78921008E-03 0.29809534E+02</pdfrwt>
<totfact> 0.16482815E+06</totfact>
</mgrwt>
</event>
<event>
 4    1  0.2126213E+000  0.2084596E+02  0.7546771E-02  0.1729010E+00
          2   -1    0    0  501    0  0.00000000000E+00  0.00000000000E+00  0.52506285548E+02  0.52506285548E+02  0.00000000000E+00 0. -1.
         -2   -1    0    0    0  501 -0.00000000000E+00 -0.00000000000E+00 -0.20690564853E+01  0.20690564853E+01  0.00000000000E+00 0.  1.
        -13    1    1    2    0    0  0.97326341549E+01  0.31202359987E+01  0.19867044258E+02  0.22341877447E+02  0.00000000000E+00 0.  1.
         13    1    1    2    0    0 -0.97326341549E+01 -0.31202359987E+01  0.30570184805E+02  0.32233464587E+02  0.00000000000E+00 0. -1.
<mgrwt>
<rscale>  0 0.20845956E+02</rscale>
<asrwt>0</asrwt>
<pdfrwt beam="1">  1        2 0.80778891E-02 0.20845956E+02</pdfrwt>
<pdfrwt beam="2">  1       -2 0.31831642E-03 0.20845956E+02</pdfrwt>
<totfact> 0.42547543E+06</totfact>
</mgrwt>
</event>
<event>
 4    1  0.2126213E+000  0.3183551E+02  0.7546771E-02  0.1578643E+00
          4   -1    0    0  501    0  0.00000000000E+00  0.00000000000E+00  0.25358197568E+01  0.25358197568E+01  0.00000000000E+00 0.  1.
         -4   -1    0    0    0  501 -0.00000000000E+00 -0.00000000000E+00 -0.99918331144E+02  0.99918331144E+02  0.00000000000E+00 0. -1.
        -13    1    1    2    0    0 -0.60781028438E+01  0.11823011035E+02 -0.76866524605E+02  0.78007624813E+02  0.00000000000E+00 0. -1.
         13    1    1    2    0    0  0.60781028438E+01 -0.11823011035E+02 -0.20515986782E+02  0.24446526088E+02  0.00000000000E+00 0.  1.
<mgrwt>
<rscale>  0 0.31835507E+02</rscale>
<asrwt>0</asrwt>
<pdfrwt beam="1">  1        4 0.39012614E-03 0.31835507E+02</pdfrwt>
<pdfrwt beam="2">  1       -4 0.15372050E-01 0.31835507E+02</pdfrwt>
<totfact> 0.36129282E+05</totfact>
</mgrwt>
</event>
<event>
 4    1  0.2126213E+000  0.4172342E+02  0.7546771E-02  0.1495899E+00
         -3   -1    0    0    0  501 -0.00000000000E+00  0.00000000000E+00  0.89013471123E+02  0.89013471123E+02  0.00000000000E+00 0.  1.
          3   -1    0    0  501    0  0.00000000000E+00 -0.00000000000E+00 -0.48892706743E+01  0.48892706743E+01  0.00000000000E+00 0. -1.
        -13    1    1    2    0    0 -0.17018825795E+02 -0.26021112287E+01  0.15547054433E+02  0.23197463565E+02  0.00000000000E+00 0. -1.
         13    1    1    2    0    0  0.17018825795E+02  0.26021112287E+01  0.68577146016E+02  0.70705278233E+02  0.00000000000E+00 0.  1.
<mgrwt>
<rscale>  0 0.41723420E+02</rscale>
<asrwt>0</asrwt>
<pdfrwt beam="2">  1        3 0.75219556E-03 0.41723420E+02</pdfrwt>
<pdfrwt beam="1">  1       -3 0.13694379E-01 0.41723420E+02</pdfrwt>
<totfact> 0.26520307E+05</totfact>
</mgrwt>
</event>
<event>
 4    1  0.2126213E+000  0.2515236E+02  0.7546771E-02  0.1658823E+00
         -2   -1    0    0    0  501 -0.00000000000E+00  0.00000000000E+00  0.39930187387E+01  0.39930187387E+01  0.00000000000E+00 0. -1.
          2   -1    0    0  501    0  0.00000000000E+00 -0.00000000000E+00 -0.39609216359E+02  0.39609216359E+02  0.00000000000E+00 0.  1.
        -11    1    1    2    0    0  0.86813069315E+01 -0.58648352310E+01 -0.57480802609E+01  0.11949971088E+02  0.00000000000E+00 0. -1.
         11    1    1    2    0    0 -0.86813069315E+01  0.58648352310E+01 -0.29868117359E+02  0.31652264009E+02  0.00000000000E+00 0.  1.
<mgrwt>
<rscale>  0 0.25152363E+02</rscale>
<asrwt>0</asrwt>
<pdfrwt beam="2">  1        2 0.60937254E-02 0.25152363E+02</pdfrwt>
<pdfrwt beam="1">  1       -2 0.61431060E-03 0.25152363E+02</pdfrwt>
<totfact> 0.26584979E+06</totfact>
</mgrwt>
</event>
<event>
 4    1  0.2126213E+000  0.3284807E+02  0.7546771E-02  0.1568585E+00
         -4   -1    0    0    0  501 -0.00000000000E+00  0.00000000000E+00  0.16917748180E+02  0.16917748180E+02  0.00000000000E+00 0. -1.
          4   -1    0    0  501    0  0.00000000000E+00 -0.00000000000E+00 -0.15944727358E+02  0.15944727358E+02  0.00000000000E+00 0.  1.
        -13    1    1    2    0    0 -0.11025759840E+02  0.42896708462E+01  0.11883619802E+02  0.16768693319E+02  0.00000000000E+00 0. -1.
         13    1    1    2    0    0  0.11025759840E+02 -0.42896708462E+01 -0.10910598980E+02  0.16093782219E+02  0.00000000000E+00 0.  1.
<mgrwt>
<rscale>  0 0.32848067E+02</rscale>
<asrwt>0</asrwt>
<pdfrwt beam="2">  1        4 0.24530350E-02 0.32848067E+02</pdfrwt>
<pdfrwt beam="1">  1       -4 0.26027305E-02 0.32848067E+02</pdfrwt>
<totfact> 0.41834824E+05</totfact>
</mgrwt>
</event>
<event>
 4    1  0.2126213E+000  0.2412749E+02  0.7546771E-02  0.1673860E+00
         -1   -1    0    0    0  501 -0.00000000000E+00  0.00000000000E+00  0.33449397168E+01  0.33449397168E+01  0.00000000000E+00 0. -1.
          1   -1    0    0  501    0  0.00000000000E+00 -0.00000000000E+00 -0.43508693869E+02  0.43508693869E+02  0.00000000000E+00 0.  1.
        -13    1    1    2    0    0 -0.11058919520E+02 -0.43890648395E+01 -0.23951302122E+02  0.26743755616E+02  0.00000000000E+00 0. -1.
         13    1    1    2    0    0  0.11058919520E+02  0.43890648395E+01 -0.16212452030E+02  0.20109877970E+02  0.00000000000E+00 0.  1.
<mgrwt>
<rscale>  0 0.24127491E+02</rscale>
<asrwt>0</asrwt>
<pdfrwt beam="2">  1        1 0.66936447E-02 0.24127491E+02</pdfrwt>
<pdfrwt beam="1">  1       -1 0.51460615E-03 0.24127491E+02</pdfrwt>
<totfact> 0.27029884E+06</totfact>
</mgrwt>
</event>
<event>
 4    1  0.2126213E+000  0.2212342E+02  0.7546771E-02  0.1706126E+00
          1   -1    0    0  501    0  0.00000000000E+00  0.00000000000E+00  0.50281015998E+02  0.50281015998E+02  0.00000000000E+00 0.  1.
         -1   -1    0    0    0  501 -0.00000000000E+00 -0.00000000000E+00 -0.24335512320E+01  0.24335512320E+01  0.00000000000E+00 0. -1.
        -13    1    1    2    0    0 -0.47989477748E+01  0.99663631516E+01  0.24057128356E+02  0.26478363223E+02  0.00000000000E+00 0.  1.
         13    1    1    2    0    0  0.47989477748E+01 -0.99663631516E+01  0.23790336410E+02  0.26236204007E+02  0.00000000000E+00 0. -1.
<mgrwt>
<rscale>  0 0.22123420E+02</rscale>
<asrwt>0</asrwt>
<pdfrwt beam="1">  1        1 0.77355401E-02 0.22123420E+02</pdfrwt>
<pdfrwt beam="2">  1       -1 0.37439253E-03 0.22123420E+02</pdfrwt>
<totfact> 0.33276560E+06</totfact>
</mgrwt>
</event>
<event>
 4    1  0.2126213E+000  0.3407898E+02  0.7546771E-02  0.1556935E+00
         -2   -1    0    0    0  501 -0.00000000000E+00  0.00000000000E+00  0.30094484338E+01  0.30094484338E+01  0.00000000000E+00 0. -1.
          2   -1    0    0  501    0  0.00000000000E+00 -0.00000000000E+00 -0.96477570681E+02  0.96477570681E+02  0.00000000000E+00 0.  1.
        -13    1    1    2    0    0  0.16957011298E+02  0.22981191855E+00 -0.41891856871E+02  0.45194255363E+02  0.00000000000E+00 0.  1.
         13    1    1    2    0    0 -0.16957011298E+02 -0.22981191855E+00 -0.51576265376E+02  0.54292763752E+02  0.00000000000E+00 0. -1.
<mgrwt>
<rscale>  0 0.34078983E+02</rscale>
<asrwt>0</asrwt>
<pdfrwt beam="2">  1        2 0.14842703E-01 0.34078983E+02</pdfrwt>
<pdfrwt beam="1">  1       -2 0.46299206E-03 0.34078983E+02</pdfrwt>
<totfact> 0.15289677E+06</totfact>
</mgrwt>
</event>
<event>
 4    1  0.2126213E+000  0.3008133E+02  0.7546771E-02  0.1597191E+00
          4   -1    0    0  501    0  0.00000000000E+00  0.00000000000E+00  0.14946640984E+01  0.14946640984E+01  0.00000000000E+00 0. -1.
         -4   -1    0    0    0  501 -0.00000000000E+00 -0.00000000000E+00 -0.15135279911E+03  0.15135279911E+03  0.00000000000E+00 0.  1.
        -13    1    1    2    0    0 -0.10794150263E+02 -0.10082487091E+02 -0.60511364341E+02  0.62288003983E+02  0.00000000000E+00 0.  1.
         13    1    1    2    0    0  0.10794150263E+02  0.10082487091E+02 -0.89346770670E+02  0.90559459224E+02  0.00000000000E+00 0. -1.
<mgrwt>
<rscale>  0 0.30081329E+02</rscale>
<asrwt>0</asrwt>
<pdfrwt beam="1">  1        4 0.22994841E-03 0.30081329E+02</pdfrwt>
<pdfrwt beam="2">  1       -4 0.23285037E-01 0.30081329E+02</pdfrwt>
<totfact> 0.36074071E+05</totfact>
</mgrwt>
</event>
<event>
 4    1  0.2126213E+000  0.3887176E+02  0.7546771E-02  0.1516682E+00
         -2   -1    0    0    0  501 -0.00000000000E+00  0.00000000000E+00  0.83286372100E+01  0.83286372100E+01  0.00000000000E+00 0.  1.
          2   -1    0    0  501    0  0.00000000000E+00 -0.00000000000E+00 -0.45355960019E+02  0.45355960019E+02  0.00000000000E+00 0. -1.
        -13    1    1    2    0    0 -0.27554319940E+01  0.17545918190E+02 -0.76126837861E+01  0.19323679904E+02  0.00000000000E+00 0. -1.
         13    1    1    2    0    0  0.27554319940E+01 -0.17545918190E+02 -0.29414639023E+02  0.34360917325E+02  0.00000000000E+00 0.  1.
<mgrwt>
<rscale>  0 0.38871755E+02</rscale>
<asrwt>0</asrwt>
<pdfrwt beam="2">  1        2 0.69778399E-02 0.38871755E+02</pdfrwt>
<pdfrwt beam="1">  1       -2 0.12813288E-02 0.38871755E+02</pdfrwt>
<totfact> 0.95271255E+05</totfact>
</mgrwt>
</event>
<event>
 4    1  0.2126213E+000  0.2163317E+02  0.7546771E-02  0.1714675E+00
         -2   -1    0    0    0  501 -0.00000000000E+00  0.00000000000E+00  0.43463361503E+02  0.43463361503E+02  0.00000000000E+00 0. -1.
          2   -1    0    0  501    0  0.00000000000E+00 -0.00000000000E+00 -0.26918870239E+01  0.26918870239E+01  0.00000000000E+00 0.  1.
        -13    1    1    2    0    0  0.93229940433E+01 -0.54841284165E+01  0.20530069774E+02  0.23205121144E+02  0.00000000000E+00 0. -1.
         13    1    1    2    0    0 -0.93229940433E+01  0.54841284165E+01  0.20241404705E+02  0.22950127382E+02  0.00000000000E+00 0.  1.
<mgrwt>
<rscale>  0 0.21633165E+02</rscale>
<asrwt>0</asrwt>
<pdfrwt beam="2">  1        2 0.41413650E-03 0.21633165E+02</pdfrwt>
<pdfrwt beam="1">  1       -2 0.66866705E-02 0.21633165E+02</pdfrwt>
<totfact> 0.29075591E+06</totfact>
</mgrwt>
</event>
<event>
 4    1  0.2126213E+000  0.5087798E+02  0.7546771E-02  0.1440663E+00
          2   -1    0    0  501    0  0.00000000000E+00  0.00000000000E+00  0.12051526640E+03  0.12051526640E+03  0.00000000000E+00 0. -1.
         -2   -1    0    0    0  501 -0.00000000000E+00 -0.00000000000E+00 -0.53697947755E+01  0.53697947755E+01  0.00000000000E+00 0.  1.
        -13    1    1    2    0    0  0.21225920115E+02 -0.66509545973E+01  0.88114231600E+02  0.90878450098E+02  0.00000000000E+00 0. -1.
         13    1    1    2    0    0 -0.21225920115E+02  0.66509545973E+01  0.27031240020E+02  0.35006611073E+02  0.00000000000E+00 0.  1.
<mgrwt>
<rscale>  0 0.50877981E+02</rscale>
<asrwt>0</asrwt>
<pdfrwt beam="1">  1        2 0.18540808E-01 0.50877981E+02</pdfrwt>
<pdfrwt beam="2">  1       -2 0.82612236E-03 0.50877981E+02</pdfrwt>
<totfact> 0.60267014E+05</totfact>
</mgrwt>
</event>
<event>
 4    1  0.2126213E+000  0.3372393E+02  0.7546771E-02  0.1560233E+00
         -2   -1    0    0    0  501 -0.00000000000E+00  0.00000000000E+00  0.53431149349E+02  0.53431149349E+02  0.00000000000E+00 0. -1.
          2   -1    0    0  501    0  0.00000000000E+00 -0.00000000000E+00 -0.53213511975E+01  0.53213511975E+01  0.00000000000E+00 0.  1.
        -11    1    1    2    0    0 -0.14408066304E+02  0.43349959035E+00  0.88126766145E+01  0.16895075188E+02  0.00000000000E+00 0.  1.
         11    1    1    2    0    0  0.14408066304E+02 -0.43349959035E+00  0.39297121537E+02  0.41857425358E+02  0.00000000000E+00 0. -1.
<mgrwt>
<rscale>  0 0.33723933E+02</rscale>
<asrwt>0</asrwt>
<pdfrwt beam="2">  1        2 0.81866945E-03 0.33723933E+02</pdfrwt>
<pdfrwt beam="1">  1       -2 0.82201765E-02 0.33723933E+02</pdfrwt>
<totfact> 0.10267077E+06</totfact>
</mgrwt>
</event>
<event>
 4    1  0.2126213E+000  0.1301174E+03  0.7546771E-02  0.1227282E+00
          1   -1    0    0  501    0  0.00000000000E+00  0.00000000000E+00  0.17683642162E+02  0.17683642162E+02  0.00000000000E+00 0. -1.
         -1   -1    0    0    0  501 -0.00000000000E+00 -0.00000000000E+00 -0.23935316187E+03  0.23935316187E+03  0.00000000000E+00 0.  1.
        -11    1    1    2    0    0  0.64669199320E+02 -0.27948009786E+01 -0.12374613514E+03  0.13965322129E+03  0.00000000000E+00 0.  1.
         11    1    1    2    0    0 -0.64669199320E+02  0.27948009786E+01 -0.97923384563E+02  0.11738358274E+03  0.00000000000E+00 0. -1.
<mgrwt>
<rscale>  0 0.13011742E+03</rscale>
<asrwt>0</asrwt>
<pdfrwt beam="1">  1        1 0.27205605E-02 0.13011742E+03</pdfrwt>
<pdfrwt beam="2">  1       -1 0.36823561E-01 0.13011742E+03</pdfrwt>
<totfact> 0.25727678E+04</totfact>
</mgrwt>
</event>
<event>
 4    1  0.2126213E+000  0.2747651E+02  0.7546771E-02  0.1627784E+00
         -1   -1    0    0    0  501 -0.00000000000E+00  0.00000000000E+00  0.16269882547E+02  0.16269882547E+02  0.00000000000E+00 0.  1.
          1   -1    0    0  501    0  0.00000000000E+00 -0.00000000000E+00 -0.11600554810E+02  0.11600554810E+02  0.00000000000E+00 0. -1.
        -13    1    1    2    0    0 -0.58576772177E+01 -0.12047138105E+02  0.54269351195E+01  0.14453288335E+02  0.00000000000E+00 0. -1.
         13    1    1    2    0    0  0.58576772177E+01  0.12047138105E+02 -0.75760738301E+00  0.13417149021E+02  0.00000000000E+00 0.  1.
<mgrwt>
<rscale>  0 0.27476511E+02</rscale>
<asrwt>0</asrwt>
<pdfrwt beam="2">  1        1 0.17847007E-02 0.27476511E+02</pdfrwt>
<pdfrwt beam="1">  1       -1 0.25030589E-02 0.27476511E+02</pdfrwt>
<totfact> 0.18532385E+06</totfact>
</mgrwt>
</event>
<event>
 4    1  0.2126213E+000  0.2324964E+02  0.7546771E-02  0.1687495E+00
          4   -1    0    0  501    0  0.00000000000E+00  0.00000000000E+00  0.59476866852E+01  0.59476866852E+01  0.00000000000E+00 0. -1.
         -4   -1    0    0    0  501 -0.00000000000E+00 -0.00000000000E+00 -0.22720841470E+02  0.22720841470E+02  0.00000000000E+00 0.  1.
        -13    1    1    2    0    0  0.24742022299E+01  0.11205123156E+02 -0.60929321764E+01  0.12992316349E+02  0.00000000000E+00 0. -1.
         13    1    1    2    0    0 -0.24742022299E+01 -0.11205123156E+02 -0.10680222609E+02  0.15676211806E+02  0.00000000000E+00 0.  1.
<mgrwt>
<rscale>  0 0.23249641E+02</rscale>
<asrwt>0</asrwt>
<pdfrwt beam="1">  1        4 0.91502871E-03 0.23249641E+02</pdfrwt>
<pdfrwt beam="2">  1       -4 0.34955141E-02 0.23249641E+02</pdfrwt>
<totfact> 0.91531656E+05</totfact>
</mgrwt>
</event>
<event>
 4    1  0.2126213E+000  0.5311378E+02  0.7546771E-02  0.1429235E+00
          1   -1    0    0  501    0  0.00000000000E+00  0.00000000000E+00  0.97454873392E+02  0.97454873392E+02  0.00000000000E+00 0. -1.
         -1   -1    0    0    0  501 -0.00000000000E+00 -0.00000000000E+00 -0.72368714226E+01  0.72368714226E+01  0.00000000000E+00 0.  1.
        -13    1    1    2    0    0  0.22549673287E+02  0.12311000288E+02  0.31854297799E+02  0.40923645753E+02  0.00000000000E+00 0. -1.
         13    1    1    2    0    0 -0.22549673287E+02 -0.12311000288E+02  0.58363704170E+02  0.63768099061E+02  0.00000000000E+00 0.  1.
<mgrwt>
<rscale>  0 0.53113779E+02</rscale>
<asrwt>0</asrwt>
<pdfrwt beam="1">  1        1 0.14993057E-01 0.53113779E+02</pdfrwt>
<pdfrwt beam="2">  1       -1 0.11133649E-02 0.53113779E+02</pdfrwt>
<totfact> 0.43174408E+05</totfact>
</mgrwt>
</event>
<event>
 4    1  0.2126213E+000  0.3136436E+02  0.7546771E-02  0.1583479E+00
         -4   -1    0    0    0  501 -0.00000000000E+00  0.00000000000E+00  0.10567108637E+02  0.10567108637E+02  0.00000000000E+00 0. -1.
          4   -1    0    0  501    0  0.00000000000E+00 -0.00000000000E+00 -0.23273237374E+02  0.23273237374E+02  0.00000000000E+00 0.  1.
        -11    1    1    2    0    0 -0.13056784339E+02 -0.66750689671E+01 -0.35598140951E+00  0.14668431605E+02  0.00000000000E+00 0. -1.
         11    1    1    2    0    0  0.13056784339E+02  0.66750689671E+01 -0.12350147328E+02  0.19171914406E+02  0.00000000000E+00 0.  1.
<mgrwt>
<rscale>  0 0.31364364E+02</rscale>
<asrwt>0</asrwt>
<pdfrwt beam="2">  1        4 0.35804980E-02 0.31364364E+02</pdfrwt>
<pdfrwt beam="1">  1       -4 0.16257091E-02 0.31364364E+02</pdfrwt>
<totfact> 0.46344930E+05</totfact>
</mgrwt>
</event>
<event>
 4    1  0.2126213E+000  0.3497375E+02  0.7546771E-02  0.1548834E+00
         -2   -1    0    0    0  501 -0.00000000000E+00  0.00000000000E+00  0.18209266993E+02  0.18209266993E+02  0.00000000000E+00 0.  1.
          2   -1    0    0  501    0  0.00000000000E+00 -0.00000000000E+00 -0.16793144477E+02  0.16793144477E+02  0.00000000000E+00 0. -1.
        -11    1    1    2    0    0 -0.11049431857E+02  0.11979682045E+02 -0.56365438884E+01  0.17244516615E+02  0.00000000000E+00 0. -1.
         11    1    1    2    0    0  0.11049431857E+02 -0.11979682045E+02  0.70526664042E+01  0.17757894855E+02  0.00000000000E+00 0.  1.
<mgrwt>
<rscale>  0 0.34973753E+02</rscale>
<asrwt>0</asrwt>
<pdfrwt beam="2">  1        2 0.25835607E-02 0.34973753E+02</pdfrwt>
<pdfrwt beam="1">  1       -2 0.28014257E-02 0.34973753E+02</pdfrwt>
<totfact> 0.10839780E+06</totfact>
</mgrwt>
</event>
<event>
 4    1  0.2126213E+000  0.4180957E+02  0.7546771E-02  0.1495302E+00
          2   -1    0    0  501    0  0.00000000000E+00  0.00000000000E+00  0.23437874795E+01  0.23437874795E+01  0.00000000000E+00 0. -1.
         -2   -1    0    0    0  501 -0.00000000000E+00 -0.00000000000E+00 -0.18645465189E+03  0.18645465189E+03  0.00000000000E+00 0.  1.
        -13    1    1    2    0    0 -0.81989881222E+01  0.19123342749E+02 -0.82929260299E+02  0.85499636595E+02  0.00000000000E+00 0. -1.
         13    1    1    2    0    0  0.81989881222E+01 -0.19123342749E+02 -0.10118160411E+03  0.10329880277E+03  0.00000000000E+00 0.  1.
<mgrwt>
<rscale>  0 0.41809572E+02</rscale>
<asrwt>0</asrwt>
<pdfrwt beam="1">  1        2 0.36058254E-03 0.41809572E+02</pdfrwt>
<pdfrwt beam="2">  1       -2 0.28685343E-01 0.41809572E+02</pdfrwt>
<totfact> 0.44829878E+05</totfact>
</mgrwt>
</event>
<event>
 4    1  0.2126213E+000  0.7030868E+02  0.7546771E-02  0.1359046E+00
         -2   -1    0    0    0  501 -0.00000000000E+00  0.00000000000E+00  0.27721942408E+03  0.27721942408E+03  0.00000000000E+00 0.  1.
          2   -1    0    0  501    0  0.00000000000E+00 -0.00000000000E+00 -0.44579404124E+01  0.44579404124E+01  0.00000000000E+00 0. -1.
        -13    1    1    2    0    0  0.16985022483E+02  0.29177695734E+02  0.97127475690E+02  0.10282789238E+03  0.00000000000E+00 0. -1.
         13    1    1    2    0    0 -0.16985022483E+02 -0.29177695734E+02  0.17563400798E+03  0.17884947211E+03  0.00000000000E+00 0.  1.
<mgrwt>
<rscale>  0 0.70308682E+02</rscale>
<asrwt>0</asrwt>
<pdfrwt beam="2">  1        2 0.68583720E-03 0.70308682E+02</pdfrwt>
<pdfrwt beam="1">  1       -2 0.42649129E-01 0.70308682E+02</pdfrwt>
<totfact> 0.10340732E+05</totfact>
</mgrwt>
</event>
<event>
 4    1  0.2126213E+000  0.5297425E+02  0.7546771E-02  0.1429929E+00
          2   -1    0    0  501    0  0.00000000000E+00  0.00000000000E+00  0.31108764232E+02  0.31108764232E+02  0.00000000000E+00 0.  1.
         -2   -1    0    0    0  501 -0.00000000000E+00 -0.00000000000E+00 -0.22552094588E+02  0.22552094588E+02  0.00000000000E+00 0. -1.
        -13    1    1    2    0    0 -0.18883036443E+02 -0.14975364987E+02  0.15408799622E+02  0.28605274472E+02  0.00000000000E+00 0.  1.
         13    1    1    2    0    0  0.18883036443E+02  0.14975364987E+02 -0.68521299775E+01  0.25055584348E+02  0.00000000000E+00 0. -1.
<mgrwt>
<rscale>  0 0.52974250E+02</rscale>
<asrwt>0</asrwt>
<pdfrwt beam="1">  1        2 0.47859637E-02 0.52974250E+02</pdfrwt>
<pdfrwt beam="2">  1       -2 0.34695530E-02 0.52974250E+02</pdfrwt>
<totfact> 0.40570469E+05</totfact>
</mgrwt>
</event>
<event>
 4    1  0.2126213E+000  0.2016253E+02  0.7546771E-02  0.1742115E+00
          3   -1    0    0  501    0  0.00000000000E+00  0.00000000000E+00  0.89641013784E+01  0.89641013784E+01  0.00000000000E+00 0.  1.
         -3   -1    0    0    0  501 -0.00000000000E+00 -0.00000000000E+00 -0.11337656795E+02  0.11337656795E+02  0.00000000000E+00 0. -1.
        -11    1    1    2    0    0  0.63592109705E+01 -0.77439020875E+01 -0.72646587625E-01  0.10020621799E+02  0.00000000000E+00 0. -1.
         11    1    1    2    0    0 -0.63592109705E+01  0.77439020875E+01 -0.23009088286E+01  0.10281136374E+02  0.00000000000E+00 0.  1.
<mgrwt>
<rscale>  0 0.20162530E+02</rscale>
<asrwt>0</asrwt>
<pdfrwt beam="1">  1        3 0.13790925E-02 0.20162530E+02</pdfrwt>
<pdfrwt beam="2">  1       -3 0.17442549E-02 0.20162530E+02</pdfrwt>
<totfact> 0.17556889E+06</totfact>
</mgrwt>
</event>
<event>
 4    1  0.2126213E+000  0.7768747E+02  0.7546771E-02  0.1335745E+00
         -2   -1    0    0    0  501 -0.00000000000E+00  0.00000000000E+00  0.17766417824E+02  0.17766417824E+02  0.00000000000E+00 0.  1.
          2   -1    0    0  501    0  0.00000000000E+00 -0.00000000000E+00 -0.84926285749E+02  0.84926285749E+02  0.00000000000E+00 0. -1.
        -11    1    1    2    0    0  0.31754585382E+02  0.18063639541E+02 -0.51025963302E+02  0.62755857871E+02  0.00000000000E+00 0. -1.
         11    1    1    2    0    0 -0.31754585382E+02 -0.18063639541E+02 -0.16133904623E+02  0.39936845702E+02  0.00000000000E+00 0.  1.
<mgrwt>
<rscale>  0 0.77687473E+02</rscale>
<asrwt>0</asrwt>
<pdfrwt beam="2">  1        2 0.13065583E-01 0.77687473E+02</pdfrwt>
<pdfrwt beam="1">  1       -2 0.27332950E-02 0.77687473E+02</pdfrwt>
<totfact> 0.18111231E+05</totfact>
</mgrwt>
</event>
<event>
 4    1  0.2126213E+000  0.2880787E+02  0.7546771E-02  0.1611653E+00
         -2   -1    0    0    0  501 -0.00000000000E+00  0.00000000000E+00  0.34418656048E+02  0.34418656048E+02  0.00000000000E+00 0. -1.
          2   -1    0    0  501    0  0.00000000000E+00 -0.00000000000E+00 -0.60279320627E+01  0.60279320627E+01  0.00000000000E+00 0.  1.
        -13    1    1    2    0    0  0.10458896672E+02  0.86318449905E+01  0.21012566396E+02  0.25008502836E+02  0.00000000000E+00 0. -1.
         13    1    1    2    0    0 -0.10458896672E+02 -0.86318449905E+01  0.73781575888E+01  0.15438085274E+02  0.00000000000E+00 0.  1.
<mgrwt>
<rscale>  0 0.28807868E+02</rscale>
<asrwt>0</asrwt>
<pdfrwt beam="2">  1        2 0.92737418E-03 0.28807868E+02</pdfrwt>
<pdfrwt beam="1">  1       -2 0.52951777E-02 0.28807868E+02</pdfrwt>
<totfact> 0.15707203E+06</totfact>
</mgrwt>
</event>
<event>
 4    1  0.2126213E+000  0.2529864E+02  0.7546771E-02  0.1656749E+00
          2   -1    0    0  501    0  0.00000000000E+00  0.00000000000E+00  0.15610220389E+01  0.15610220389E+01  0.00000000000E+00 0. -1.
         -2   -1    0    0    0  501 -0.00000000000E+00 -0.00000000000E+00 -0.10250033563E+03  0.10250033563E+03  0.00000000000E+00 0.  1.
        -13    1    1    2    0    0 -0.12404912017E+02  0.10637245050E+01 -0.59659891753E+02  0.60945188784E+02  0.00000000000E+00 0.  1.
         13    1    1    2    0    0  0.12404912017E+02 -0.10637245050E+01 -0.41279421836E+02  0.43116168882E+02  0.00000000000E+00 0. -1.
<mgrwt>
<rscale>  0 0.25298639E+02</rscale>
<asrwt>0</asrwt>
<pdfrwt beam="1">  1        2 0.24015731E-03 0.25298639E+02</pdfrwt>
<pdfrwt beam="2">  1       -2 0.15769278E-01 0.25298639E+02</pdfrwt>
<totfact> 0.17522739E+06</totfact>
</mgrwt>
</event>
<event>
 4    1  0.2126213E+000  0.8631735E+02  0.7546771E-02  0.1312023E+00
         -1   -1    0    0    0  501 -0.00000000000E+00  0.00000000000E+00  0.74771361093E+02  0.74771361093E+02  0.00000000000E+00 0.  1.
          1   -1    0    0  501    0  0.00000000000E+00 -0.00000000000E+00 -0.24911560453E+02  0.24911560453E+02  0.00000000000E+00 0. -1.
        -13    1    1    2    0    0  0.16959248546E+02  0.63226611694E+01 -0.20316916990E+02  0.27209727516E+02  0.00000000000E+00 0. -1.
         13    1    1    2    0    0 -0.16959248546E+02 -0.63226611694E+01  0.70176717630E+02  0.72473194030E+02  0.00000000000E+00 0.  1.
<mgrwt>
<rscale>  0 0.86317351E+02</rscale>
<asrwt>0</asrwt>
<pdfrwt beam="2">  1        1 0.38325478E-02 0.86317351E+02</pdfrwt>
<pdfrwt beam="1">  1       -1 0.11503286E-01 0.86317351E+02</pdfrwt>
<totfact> 0.98449467E+04</totfact>
</mgrwt>
</event>
<event>
 4    1  0.2126213E+000  0.4033565E+02  0.7546771E-02  0.1505756E+00
         -2   -1    0    0    0  501 -0.00000000000E+00  0.00000000000E+00  0.39450456281E+02  0.39450456281E+02  0.00000000000E+00 0.  1.
          2   -1    0    0  501    0  0.00000000000E+00 -0.00000000000E+00 -0.10310176546E+02  0.10310176546E+02  0.00000000000E+00 0. -1.
        -11    1    1    2    0    0  0.40805045778E+00 -0.12078861844E+02  0.34488205424E+02  0.36544516990E+02  0.00000000000E+00 0.  1.
         11    1    1    2    0    0 -0.40805045778E+00  0.12078861844E+02 -0.53479256895E+01  0.13216115837E+02  0.00000000000E+00 0. -1.
<mgrwt>
<rscale>  0 0.40335650E+02</rscale>
<asrwt>0</asrwt>
<pdfrwt beam="2">  1        2 0.15861810E-02 0.40335650E+02</pdfrwt>
<pdfrwt beam="1">  1       -2 0.60693009E-02 0.40335650E+02</pdfrwt>
<totfact> 0.70571438E+05</totfact>
</mgrwt>
</event>
<event>
 4    1  0.2126213E+000  0.5850363E+02  0.7546771E-02  0.1404221E+00
          1   -1    0    0  501    0  0.00000000000E+00  0.00000000000E+00  0.89827510381E+02  0.89827510381E+02  0.00000000000E+00 0. -1.
         -1   -1    0    0    0  501 -0.00000000000E+00 -0.00000000000E+00 -0.95256863012E+01  0.95256863012E+01  0.00000000000E+00 0.  1.
        -11    1    1    2    0    0 -0.94384555659E+01  0.22186103071E+02  0.68280299547E+02  0.72412063354E+02  0.00000000000E+00 0. -1.
         11    1    1    2    0    0  0.94384555659E+01 -0.22186103071E+02  0.12021524533E+02  0.26941133328E+02  0.00000000000E+00 0.  1.
<mgrwt>
<rscale>  0 0.58503630E+02</rscale>
<asrwt>0</asrwt>
<pdfrwt beam="1">  1        1 0.13819616E-01 0.58503630E+02</pdfrwt>
<pdfrwt beam="2">  1       -1 0.14654903E-02 0.58503630E+02</pdfrwt>
<totfact> 0.33335739E+05</totfact>
</mgrwt>
</event>
<event>
 4    1  0.2126213E+000  0.1081045E+03  0.7546771E-02  0.1264121E+00
          2   -1    0    0  501    0  0.00000000000E+00  0.00000000000E+00  0.24606080468E+02  0.24606080468E+02  0.00000000000E+00 0. -1.
         -2   -1    0    0    0  501 -0.00000000000E+00 -0.00000000000E+00 -0.11873676490E+03  0.11873676490E+03  0.00000000000E+00 0.  1.
        -13    1    1    2    0    0  0.25182003683E+02  0.47639493599E+02 -0.52689644884E+02  0.75364801717E+02  0.00000000000E+00 0.  1.
         13    1    1    2    0    0 -0.25182003683E+02 -0.47639493599E+02 -0.41441039548E+02  0.67978043651E+02  0.00000000000E+00 0. -1.
<mgrwt>
<rscale>  0 0.10810451E+03</rscale>
<asrwt>0</asrwt>
<pdfrwt beam="1">  1        2 0.37855509E-02 0.10810451E+03</pdfrwt>
<pdfrwt beam="2">  1       -2 0.18267194E-01 0.10810451E+03</pdfrwt>
<totfact> 0.49388296E+04</totfact>
</mgrwt>
</event>
<event>
 4    1  0.2126213E+000  0.2489452E+02  0.7546771E-02  0.1662522E+00
         -2   -1    0    0    0  501 -0.00000000000E+00  0.00000000000E+00  0.12353283776E+02  0.12353283776E+02  0.00000000000E+00 0.  1.
          2   -1    0    0  501    0  0.00000000000E+00 -0.00000000000E+00 -0.12541955979E+02  0.12541955979E+02  0.00000000000E+00 0. -1.
        -13    1    1    2    0    0 -0.57041601588E+01  0.11058683800E+02 -0.41436220091E+00  0.12450045242E+02  0.00000000000E+00 0. -1.
         13    1    1    2    0    0  0.57041601588E+01 -0.11058683800E+02  0.22568999804E+00  0.12445194513E+02  0.00000000000E+00 0.  1.
<mgrwt>
<rscale>  0 0.24894525E+02</rscale>
<asrwt>0</asrwt>
<pdfrwt beam="2">  1        2 0.19295317E-02 0.24894525E+02</pdfrwt>
<pdfrwt beam="1">  1       -2 0.19005052E-02 0.24894525E+02</pdfrwt>
<totfact> 0.24129316E+06</totfact>
</mgrwt>
</event>
<event>
 4    1  0.2126213E+000  0.5530425E+02  0.7546771E-02  0.1418666E+00
          2   -1    0    0  501    0  0.00000000000E+00  0.00000000000E+00  0.30686362784E+02  0.30686362784E+02  0.00000000000E+00 0. -1.
         -2   -1    0    0    0  501 -0.00000000000E+00 -0.00000000000E+00 -0.24917906172E+02  0.24917906172E+02  0.00000000000E+00 0.  1.
        -13    1    1    2    0    0  0.13157060520E+02 -0.24152318141E+02  0.57628348286E+01  0.28100764730E+02  0.00000000000E+00 0. -1.
         13    1    1    2    0    0 -0.13157060520E+02  0.24152318141E+02  0.56217835616E-02  0.27503504226E+02  0.00000000000E+00 0.  1.
<mgrwt>
<rscale>  0 0.55304246E+02</rscale>
<asrwt>0</asrwt>
<pdfrwt beam="1">  1        2 0.47209789E-02 0.55304246E+02</pdfrwt>
<pdfrwt beam="2">  1       -2 0.38335240E-02 0.55304246E+02</pdfrwt>
<totfact> 0.36106721E+05</totfact>
</mgrwt>
</event>
<event>
 4    1  0.2126213E+000  0.2751837E+02  0.7546771E-02  0.1627260E+00
          2   -1    0    0  501    0  0.00000000000E+00  0.00000000000E+00  0.13140645617E+03  0.13140645617E+03  0.00000000000E+00 0. -1.
         -2   -1    0    0    0  501 -0.00000000000E+00 -0.00000000000E+00 -0.14406839225E+01  0.14406839225E+01  0.00000000000E+00 0.  1.
        -11    1    1    2    0    0 -0.31706229371E+01 -0.13368983632E+02  0.68506012970E+02  0.69870282568E+02  0.00000000000E+00 0. -1.
         11    1    1    2    0    0  0.31706229371E+01  0.13368983632E+02  0.61459759274E+02  0.62976857520E+02  0.00000000000E+00 0.  1.
<mgrwt>
<rscale>  0 0.27518370E+02</rscale>
<asrwt>0</asrwt>
<pdfrwt beam="1">  1        2 0.20216368E-01 0.27518370E+02</pdfrwt>
<pdfrwt beam="2">  1       -2 0.22164379E-03 0.27518370E+02</pdfrwt>
<totfact> 0.27415431E+06</totfact>
</mgrwt>
</event>
<event>
 4    1  0.2126213E+000  0.4052659E+02  0.7546771E-02  0.1504372E+00
         -2   -1    0    0    0  501 -0.00000000000E+00  0.00000000000E+00  0.10823374712E+03  0.10823374712E+03  0.00000000000E+00 0. -1.
          2   -1    0    0  501    0  0.00000000000E+00 -0.00000000000E+00 -0.37936510260E+01  0.37936510260E+01  0.00000000000E+00 0.  1.
        -11    1    1    2    0    0  0.15200899790E+01 -0.17262748725E+02  0.81250122440E+02  0.83077647798E+02  0.00000000000E+00 0. -1.
         11    1    1    2    0    0 -0.15200899790E+01  0.17262748725E+02  0.23189973649E+02  0.28949750343E+02  0.00000000000E+00 0.  1.
<mgrwt>
<rscale>  0 0.40526587E+02</rscale>
<asrwt>0</asrwt>
<pdfrwt beam="2">  1        2 0.58363870E-03 0.40526587E+02</pdfrwt>
<pdfrwt beam="1">  1       -2 0.16651343E-01 0.40526587E+02</pdfrwt>
<totfact> 0.57508950E+05</totfact>
</mgrwt>
</event>
<event>
 4    1  0.2126213E+000  0.2179075E+02  0.7546771E-02  0.1711896E+00
         -4   -1    0    0    0  501 -0.00000000000E+00  0.00000000000E+00  0.30321306245E+01  0.30321306245E+01  0.00000000000E+00 0. -1.
          4   -1    0    0  501    0  0.00000000000E+00 -0.00000000000E+00 -0.39150412815E+02  0.39150412815E+02  0.00000000000E+00 0.  1.
        -11    1    1    2    0    0  0.53906015284E+01  0.93965718389E+01 -0.15805767235E+02  0.19161848164E+02  0.00000000000E+00 0. -1.
         11    1    1    2    0    0 -0.53906015284E+01 -0.93965718389E+01 -0.20312514955E+02  0.23020695275E+02  0.00000000000E+00 0.  1.
<mgrwt>
<rscale>  0 0.21790747E+02</rscale>
<asrwt>0</asrwt>
<pdfrwt beam="2">  1        4 0.60231401E-02 0.21790747E+02</pdfrwt>
<pdfrwt beam="1">  1       -4 0.46648166E-03 0.21790747E+02</pdfrwt>
<totfact> 0.99456532E+05</totfact>
</mgrwt>
</event>
<event>
 4    1  0.2126213E+000  0.4195500E+02  0.7546771E-02  0.1494299E+00
         -2   -1    0    0    0  501 -0.00000000000E+00  0.00000000000E+00  0.94142222067E+01  0.94142222067E+01  0.00000000000E+00 0.  1.
          2   -1    0    0  501    0  0.00000000000E+00 -0.00000000000E+00 -0.46743690504E+02  0.46743690504E+02  0.00000000000E+00 0. -1.
        -11    1    1    2    0    0  0.70779149897E+01  0.11478221108E+02  0.28439067784E+01  0.13781663403E+02  0.00000000000E+00 0.  1.
         11    1    1    2    0    0 -0.70779149897E+01 -0.11478221108E+02 -0.40173375076E+02  0.42376249307E+02  0.00000000000E+00 0. -1.
<mgrwt>
<rscale>  0 0.41954999E+02</rscale>
<asrwt>0</asrwt>
<pdfrwt beam="2">  1        2 0.71913370E-02 0.41954999E+02</pdfrwt>
<pdfrwt beam="1">  1       -2 0.14483419E-02 0.41954999E+02</pdfrwt>
<totfact> 0.79152048E+05</totfact>
</mgrwt>
</event>
<event>
 4    1  0.2126213E+000  0.3566893E+02  0.7546771E-02  0.1542739E+00
          2   -1    0    0  501    0  0.00000000000E+00  0.00000000000E+00  0.87213700850E+01  0.87213700850E+01  0.00000000000E+00 0.  1.
         -2   -1    0    0    0  501 -0.00000000000E+00 -0.00000000000E+00 -0.36469967401E+02  0.36469967401E+02  0.00000000000E+00 0. -1.
        -11    1    1    2    0    0  0.12015714112E+02 -0.56043306960E+01  0.12383435571E+01  0.13316133183E+02  0.00000000000E+00 0.  1.
         11    1    1    2    0    0 -0.12015714112E+02  0.56043306960E+01 -0.28986940874E+02  0.31875204303E+02  0.00000000000E+00 0. -1.
<mgrwt>
<rscale>  0 0.35668927E+02</rscale>
<asrwt>0</asrwt>
<pdfrwt beam="1">  1        2 0.13417493E-02 0.35668927E+02</pdfrwt>
<pdfrwt beam="2">  1       -2 0.56107641E-02 0.35668927E+02</pdfrwt>
<totfact> 0.95199683E+05</totfact>
</mgrwt>
</event>
<event>
 4    1  0.2126213E+000  0.2513949E+02  0.7546771E-02  0.1659006E+00
         -4   -1    0    0    0  501 -0.00000000000E+00  0.00000000000E+00  0.12731118153E+02  0.12731118153E+02  0.00000000000E+00 0. -1.
          4   -1    0    0  501    0  0.00000000000E+00 -0.00000000000E+00 -0.12410412589E+02  0.12410412589E+02  0.00000000000E+00 0.  1.
        -11    1    1    2    0    0 -0.11522385866E+02 -0.50216008033E+01  0.31585459349E-01  0.12569122814E+02  0.00000000000E+00 0.  1.
         11    1    1    2    0    0  0.11522385866E+02  0.50216008033E+01  0.28912010485E+00  0.12572407928E+02  0.00000000000E+00 0. -1.
<mgrwt>
<rscale>  0 0.25139485E+02</rscale>
<asrwt>0</asrwt>
<pdfrwt beam="2">  1        4 0.19092943E-02 0.25139485E+02</pdfrwt>
<pdfrwt beam="1">  1       -4 0.19586336E-02 0.25139485E+02</pdfrwt>
<totfact> 0.78518978E+05</totfact>
</mgrwt>
</event>
<event>
 4    1  0.2126213E+000  0.3263739E+02  0.7546771E-02  0.1570641E+00
         -2   -1    0    0    0  501 -0.00000000000E+00  0.00000000000E+00  0.98943418687E+01  0.98943418687E+01  0.00000000000E+00 0.  1.
          2   -1    0    0  501    0  0.00000000000E+00 -0.00000000000E+00 -0.26914359220E+02  0.26914359220E+02  0.00000000000E+00 0. -1.
        -11    1    1    2    0    0  0.59826529748E+01 -0.11142291360E+02  0.31210224190E+01  0.13026264788E+02  0.00000000000E+00 0.  1.
         11    1    1    2    0    0 -0.59826529748E+01  0.11142291360E+02 -0.20141039770E+02  0.23782436301E+02  0.00000000000E+00 0. -1.
<mgrwt>
<rscale>  0 0.32637394E+02</rscale>
<asrwt>0</asrwt>
<pdfrwt beam="2">  1        2 0.41406706E-02 0.32637394E+02</pdfrwt>
<pdfrwt beam="1">  1       -2 0.15222065E-02 0.32637394E+02</pdfrwt>
<totfact> 0.13597046E+06</totfact>
</mgrwt>
</event>
<event>
 4    1  0.2126213E+000  0.2370774E+02  0.7546771E-02  0.1680288E+00
          4   -1    0    0  501    0  0.00000000000E+00  0.00000000000E+00  0.18529256497E+02  0.18529256497E+02  0.00000000000E+00 0.  1.
         -4   -1    0    0    0  501 -0.00000000000E+00 -0.00000000000E+00 -0.75833719685E+01  0.75833719685E+01  0.00000000000E+00 0. -1.
        -13    1    1    2    0    0 -0.40776105154E+01  0.98050604108E+01 -0.32905147370E+00  0.10624236069E+02  0.00000000000E+00 0. -1.
         13    1    1    2    0    0  0.40776105154E+01 -0.98050604108E+01  0.11274936002E+02  0.15488392396E+02  0.00000000000E+00 0.  1.
<mgrwt>
<rscale>  0 0.23707741E+02</rscale>
<asrwt>0</asrwt>
<pdfrwt beam="1">  1        4 0.28506548E-02 0.23707741E+02</pdfrwt>
<pdfrwt beam="2">  1       -4 0.11666726E-02 0.23707741E+02</pdfrwt>
<totfact> 0.88742151E+05</totfact>
</mgrwt>
</event>
<event>
 4    1  0.2126213E+000  0.2417751E+02  0.7546771E-02  0.1673105E+00
         -1   -1    0    0    0  501 -0.00000000000E+00  0.00000000000E+00  0.10266483095E+03  0.10266483095E+03  0.00000000000E+00 0. -1.
          1   -1    0    0  501    0  0.00000000000E+00 -0.00000000000E+00 -0.14234469600E+01  0.14234469600E+01  0.00000000000E+00 0.  1.
        -11    1    1    2    0    0  0.10720708269E+02  0.50010141831E+01  0.39905908558E+02  0.41622413030E+02  0.00000000000E+00 0.  1.
         11    1    1    2    0    0 -0.10720708269E+02 -0.50010141831E+01  0.61335475435E+02  0.62465864882E+02  0.00000000000E+00 0. -1.
<mgrwt>
<rscale>  0 0.24177505E+02</rscale>
<asrwt>0</asrwt>
<pdfrwt beam="2">  1        1 0.21899192E-03 0.24177505E+02</pdfrwt>
<pdfrwt beam="1">  1       -1 0.15794584E-01 0.24177505E+02</pdfrwt>
<totfact> 0.20800374E+06</totfact>
</mgrwt>
</event>
<event>
 4    1  0.2126213E+000  0.3810471E+02  0.7546771E-02  0.1522641E+00
          4   -1    0    0  501    0  0.00000000000E+00  0.00000000000E+00  0.10621493565E+02  0.10621493565E+02  0.00000000000E+00 0.  1.
         -4   -1    0    0    0  501 -0.00000000000E+00 -0.00000000000E+00 -0.34175257640E+02  0.34175257640E+02  0.00000000000E+00 0. -1.
        -11    1    1    2    0    0  0.14513734388E+00 -0.18888990994E+02 -0.88549854748E+01  0.20862066374E+02  0.00000000000E+00 0.  1.
         11    1    1    2    0    0 -0.14513734388E+00  0.18888990994E+02 -0.14698778600E+02  0.23934684831E+02  0.00000000000E+00 0. -1.
<mgrwt>
<rscale>  0 0.38104713E+02</rscale>
<asrwt>0</asrwt>
<pdfrwt beam="1">  1        4 0.16340759E-02 0.38104713E+02</pdfrwt>
<pdfrwt beam="2">  1       -4 0.52577319E-02 0.38104713E+02</pdfrwt>
<totfact> 0.28355184E+05</totfact>
</mgrwt>
</event>
<event>
 4    1  0.2126213E+000  0.2266726E+02  0.7546771E-02  0.1696961E+00
          4   -1    0    0  501    0  0.00000000000E+00  0.00000000000E+00  0.46936317144E+01  0.46936317144E+01  0.00000000000E+00 0. -1.
         -4   -1    0    0    0  501 -0.00000000000E+00 -0.00000000000E+00 -0.27367113187E+02  0.27367113187E+02  0.00000000000E+00 0.  1.
        -13    1    1    2    0    0  0.99501980597E+01 -0.47879394560E+01 -0.14948425960E+02  0.18584570061E+02  0.00000000000E+00 0. -1.
         13    1    1    2    0    0 -0.99501980597E+01  0.47879394560E+01 -0.77250555123E+01  0.13476174840E+02  0.00000000000E+00 0.  1.
<mgrwt>
<rscale>  0 0.22667258E+02</rscale>
<asrwt>0</asrwt>
<pdfrwt beam="1">  1        4 0.72209719E-03 0.22667258E+02</pdfrwt>
<pdfrwt beam="2">  1       -4 0.42103251E-02 0.22667258E+02</pdfrwt>
<totfact> 0.95256539E+05</totfact>
</mgrwt>
</event>
<event>
 4    1  0.2126213E+000  0.2383865E+02  0.7546771E-02  0.1678266E+00
          2   -1    0    0  501    0  0.00000000000E+00  0.00000000000E+00  0.29847391390E+01  0.29847391390E+01  0.00000000000E+00 0. -1.
         -2   -1    0    0    0  501 -0.00000000000E+00 -0.00000000000E+00 -0.47598894526E+02  0.47598894526E+02  0.00000000000E+00 0.  1.
        -13    1    1    2    0    0  0.25169043039E-01  0.10102468662E+02 -0.35728899524E+02  0.37129701961E+02  0.00000000000E+00 0.  1.
         13    1    1    2    0    0 -0.25169043039E-01 -0.10102468662E+02 -0.88852558636E+01  0.13453931704E+02  0.00000000000E+00 0. -1.
<mgrwt>
<rscale>  0 0.23838648E+02</rscale>
<asrwt>0</asrwt>
<pdfrwt beam="1">  1        2 0.45919072E-03 0.23838648E+02</pdfrwt>
<pdfrwt beam="2">  1       -2 0.73229055E-02 0.23838648E+02</pdfrwt>
<totfact> 0.23136155E+06</totfact>
</mgrwt>
</event>
<event>
 4    1  0.2126213E+000  0.2975986E+02  0.7546771E-02  0.1600758E+00
         -2   -1    0    0    0  501 -0.00000000000E+00  0.00000000000E+00  0.78752351247E+01  0.78752351247E+01  0.00000000000E+00 0.  1.
          2   -1    0    0  501    0  0.00000000000E+00 -0.00000000000E+00 -0.28115015242E+02  0.28115015242E+02  0.00000000000E+00 0. -1.
        -11    1    1    2    0    0 -0.11853816733E+02  0.36534726452E+01 -0.20059549748E+02  0.23584875866E+02  0.00000000000E+00 0. -1.
         11    1    1    2    0    0  0.11853816733E+02 -0.36534726452E+01 -0.18023036942E+00  0.12405374501E+02  0.00000000000E+00 0.  1.
<mgrwt>
<rscale>  0 0.29759863E+02</rscale>
<asrwt>0</asrwt>
<pdfrwt beam="2">  1        2 0.43253870E-02 0.29759863E+02</pdfrwt>
<pdfrwt beam="1">  1       -2 0.12115746E-02 0.29759863E+02</pdfrwt>
<totfact> 0.17098222E+06</totfact>
</mgrwt>
</event>
<event>
 4    1  0.2126213E+000  0.2044684E+02  0.7546771E-02  0.1736585E+00
          2   -1    0    0  501    0  0.00000000000E+00  0.00000000000E+00  0.28460160795E+02  0.28460160795E+02  0.00000000000E+00 0.  1.
         -2   -1    0    0    0  501 -0.00000000000E+00 -0.00000000000E+00 -0.36724415262E+01  0.36724415262E+01  0.00000000000E+00 0. -1.
        -11    1    1    2    0    0 -0.90387371735E+01 -0.47695220251E+01  0.11974625145E+02  0.15742895458E+02  0.00000000000E+00 0.  1.
         11    1    1    2    0    0  0.90387371735E+01  0.47695220251E+01  0.12813094124E+02  0.16389706864E+02  0.00000000000E+00 0. -1.
<mgrwt>
<rscale>  0 0.20446836E+02</rscale>
<asrwt>0</asrwt>
<pdfrwt beam="1">  1        2 0.43784862E-02 0.20446836E+02</pdfrwt>
<pdfrwt beam="2">  1       -2 0.56499102E-03 0.20446836E+02</pdfrwt>
<totfact> 0.41035951E+06</totfact>
</mgrwt>
</event>
<event>
 4    1  0.2126213E+000  0.2106840E+02  0.7546771E-02  0.1724880E+00
         -2   -1    0    0    0  501 -0.00000000000E+00  0.00000000000E+00  0.35219490948E+01  0.35219490948E+01  0.00000000000E+00 0.  1.
          2   -1    0    0  501    0  0.00000000000E+00 -0.00000000000E+00 -0.31507954764E+02  0.31507954764E+02  0.00000000000E+00 0. -1.
        -11    1    1    2    0    0  0.10302640165E+02  0.93115049372E+00 -0.17300838666E+02  0.20157640094E+02  0.00000000000E+00 0. -1.
         11    1    1    2    0    0 -0.10302640165E+02 -0.93115049372E+00 -0.10685167003E+02  0.14872263765E+02  0.00000000000E+00 0.  1.
<mgrwt>
<rscale>  0 0.21068404E+02</rscale>
<asrwt>0</asrwt>
<pdfrwt beam="2">  1        2 0.48473778E-02 0.21068404E+02</pdfrwt>
<pdfrwt beam="1">  1       -2 0.54183830E-03 0.21068404E+02</pdfrwt>
<totfact> 0.38785357E+06</totfact>
</mgrwt>
</event>
<event>
 4    1  0.2126213E+000  0.4927023E+02  0.7546771E-02  0.1449318E+00
          4   -1    0    0  501    0  0.00000000000E+00  0.00000000000E+00  0.85363803070E+02  0.85363803070E+02  0.00000000000E+00 0.  1.
         -4   -1    0    0    0  501 -0.00000000000E+00 -0.00000000000E+00 -0.71094411112E+01  0.71094411112E+01  0.00000000000E+00 0. -1.
        -13    1    1    2    0    0  0.71077962321E+01  0.15852210233E+02  0.71909164160E+02  0.73977977985E+02  0.00000000000E+00 0.  1.
         13    1    1    2    0    0 -0.71077962321E+01 -0.15852210233E+02  0.63451977986E+01  0.18495266196E+02  0.00000000000E+00 0. -1.
<mgrwt>
<rscale>  0 0.49270232E+02</rscale>
<asrwt>0</asrwt>
<pdfrwt beam="1">  1        4 0.13132892E-01 0.49270232E+02</pdfrwt>
<pdfrwt beam="2">  1       -4 0.10937602E-02 0.49270232E+02</pdfrwt>
<totfact> 0.13242815E+05</totfact>
</mgrwt>
</event>
<event>
 4    1  0.2126213E+000  0.5789752E+02  0.7546771E-02  0.1406873E+00
          1   -1    0    0  501    0  0.00000000000E+00  0.00000000000E+00  0.20446808058E+03  0.20446808058E+03  0.00000000000E+00 0.  1.
         -1   -1    0    0    0  501 -0.00000000000E+00 -0.00000000000E+00 -0.40985888158E+01  0.40985888158E+01  0.00000000000E+00 0. -1.
        -13    1    1    2    0    0 -0.19228321902E+02  0.18925445622E+02  0.13798870355E+03  0.14060150484E+03  0.00000000000E+00 0.  1.
         13    1    1    2    0    0  0.19228321902E+02 -0.18925445622E+02  0.62380788212E+02  0.67965164556E+02  0.00000000000E+00 0. -1.
<mgrwt>
<rscale>  0 0.57897516E+02</rscale>
<asrwt>0</asrwt>
<pdfrwt beam="1">  1        1 0.31456620E-01 0.57897516E+02</pdfrwt>
<pdfrwt beam="2">  1       -1 0.63055228E-03 0.57897516E+02</pdfrwt>
<totfact> 0.38959642E+05</totfact>
</mgrwt>
</event>
<event>
 4    1  0.2126213E+000  0.3286846E+02  0.7546771E-02  0.1568387E+00
         -2   -1    0    0    0  501 -0.00000000000E+00  0.00000000000E+00  0.41772773125E+02  0.41772773125E+02  0.00000000000E+00 0.  1.
          2   -1    0    0  501    0  0.00000000000E+00 -0.00000000000E+00 -0.64655483850E+01  0.64655483850E+01  0.00000000000E+00 0. -1.
        -11    1    1    2    0    0  0.14854462730E+02 -0.59945446098E+01  0.12262388631E+02  0.20173145591E+02  0.00000000000E+00 0. -1.
         11    1    1    2    0    0 -0.14854462730E+02  0.59945446098E+01  0.23044836109E+02  0.28065175919E+02  0.00000000000E+00 0.  1.
<mgrwt>
<rscale>  0 0.32868458E+02</rscale>
<asrwt>0</asrwt>
<pdfrwt beam="2">  1        2 0.99469978E-03 0.32868458E+02</pdfrwt>
<pdfrwt beam="1">  1       -2 0.64265803E-02 0.32868458E+02</pdfrwt>
<totfact> 0.11304609E+06</totfact>
</mgrwt>
</event>
<event>
 4    1  0.2126213E+000  0.2613801E+02  0.7546771E-02  0.1645174E+00
          2   -1    0    0  501    0  0.00000000000E+00  0.00000000000E+00  0.45981720882E+01  0.45981720882E+01  0.00000000000E+00 0.  1.
         -2   -1    0    0    0  501 -0.00000000000E+00 -0.00000000000E+00 -0.37144951466E+02  0.37144951466E+02  0.00000000000E+00 0. -1.
        -11    1    1    2    0    0 -0.37075379265E+01 -0.12477603652E+02 -0.14409275494E+02  0.19418126857E+02  0.00000000000E+00 0. -1.
         11    1    1    2    0    0  0.37075379265E+01  0.12477603652E+02 -0.18137503884E+02  0.22324996697E+02  0.00000000000E+00 0.  1.
<mgrwt>
<rscale>  0 0.26138009E+02</rscale>
<asrwt>0</asrwt>
<pdfrwt beam="1">  1        2 0.70741106E-03 0.26138009E+02</pdfrwt>
<pdfrwt beam="2">  1       -2 0.57146082E-02 0.26138009E+02</pdfrwt>
<totfact> 0.19416316E+06</totfact>
</mgrwt>
</event>
<event>
 4    1  0.2126213E+000  0.3895422E+02  0.7546771E-02  0.1516051E+00
         -2   -1    0    0    0  501 -0.00000000000E+00  0.00000000000E+00  0.40399031290E+01  0.40399031290E+01  0.00000000000E+00 0.  1.
          2   -1    0    0  501    0  0.00000000000E+00 -0.00000000000E+00 -0.93902707701E+02  0.93902707701E+02  0.00000000000E+00 0. -1.
        -13    1    1    2    0    0 -0.77081711761E+01 -0.15993934299E+02 -0.65067165769E+02  0.67445962803E+02  0.00000000000E+00 0. -1.
         13    1    1    2    0    0  0.77081711761E+01  0.15993934299E+02 -0.24795638803E+02  0.30496648027E+02  0.00000000000E+00 0.  1.
<mgrwt>
<rscale>  0 0.38954221E+02</rscale>
<asrwt>0</asrwt>
<pdfrwt beam="2">  1        2 0.14446568E-01 0.38954221E+02</pdfrwt>
<pdfrwt beam="1">  1       -2 0.62152366E-03 0.38954221E+02</pdfrwt>
<totfact> 0.10978706E+06</totfact>
</mgrwt>
</event>
<event>
 4    1  0.2126213E+000  0.2861697E+02  0.7546771E-02  0.1613899E+00
         -2   -1    0    0    0  501 -0.00000000000E+00  0.00000000000E+00  0.73325741618E+01  0.73325741618E+01  0.00000000000E+00 0.  1.
          2   -1    0    0  501    0  0.00000000000E+00 -0.00000000000E+00 -0.27920987609E+02  0.27920987609E+02  0.00000000000E+00 0. -1.
        -11    1    1    2    0    0 -0.33456170120E+01  0.10916882664E+02 -0.20917341079E+02  0.23830791806E+02  0.00000000000E+00 0. -1.
         11    1    1    2    0    0  0.33456170120E+01 -0.10916882664E+02  0.32892763153E+00  0.11422769965E+02  0.00000000000E+00 0.  1.
<mgrwt>
<rscale>  0 0.28616968E+02</rscale>
<asrwt>0</asrwt>
<pdfrwt beam="2">  1        2 0.42955366E-02 0.28616968E+02</pdfrwt>
<pdfrwt beam="1">  1       -2 0.11280883E-02 0.28616968E+02</pdfrwt>
<totfact> 0.18763761E+06</totfact>
</mgrwt>
</event>
<event>
 4    1  0.2126213E+000  0.8772503E+02  0.7546771E-02  0.1308456E+00
         -2   -1    0    0    0  501 -0.00000000000E+00  0.00000000000E+00  0.47365991708E+01  0.47365991708E+01  0.00000000000E+00 0.  1.
          2   -1    0    0  501    0  0.00000000000E+00 -0.00000000000E+00 -0.40618177067E+03  0.40618177067E+03  0.00000000000E+00 0. -1.
        -11    1    1    2    0    0 -0.42519002376E+02  0.10517013668E+02 -0.18979020760E+03  0.19477883879E+03  0.00000000000E+00 0.  1.
         11    1    1    2    0    0  0.42519002376E+02 -0.10517013668E+02 -0.21165496390E+03  0.21613953105E+03  0.00000000000E+00 0. -1.
<mgrwt>
<rscale>  0 0.87725030E+02</rscale>
<asrwt>0</asrwt>
<pdfrwt beam="2">  1        2 0.62489501E-01 0.87725030E+02</pdfrwt>
<pdfrwt beam="1">  1       -2 0.72870759E-03 0.87725030E+02</pdfrwt>
<totfact> 0.22231461E+05</totfact>
</mgrwt>
</event>
<event>
 4    1  0.2126213E+000  0.3748400E+02  0.7546771E-02  0.1527587E+00
          2   -1    0    0  501    0  0.00000000000E+00  0.00000000000E+00  0.49417122049E+02  0.49417122049E+02  0.00000000000E+00 0.  1.
         -2   -1    0    0    0  501 -0.00000000000E+00 -0.00000000000E+00 -0.71081129149E+01  0.71081129149E+01  0.00000000000E+00 0. -1.
        -11    1    1    2    0    0 -0.44538909633E+01  0.10767013299E+02 -0.98239897663E+00  0.11693195792E+02  0.00000000000E+00 0. -1.
         11    1    1    2    0    0  0.44538909633E+01 -0.10767013299E+02  0.43291408110E+02  0.44832039171E+02  0.00000000000E+00 0.  1.
<mgrwt>
<rscale>  0 0.37483996E+02</rscale>
<asrwt>0</asrwt>
<pdfrwt beam="1">  1        2 0.76026339E-02 0.37483996E+02</pdfrwt>
<pdfrwt beam="2">  1       -2 0.10935559E-02 0.37483996E+02</pdfrwt>
<totfact> 0.10576308E+06</totfact>
</mgrwt>
</event>
<event>
 4    1  0.2126213E+000  0.2768942E+02  0.7546771E-02  0.1625130E+00
         -2   -1    0    0    0  501 -0.00000000000E+00  0.00000000000E+00  0.91641608770E+02  0.91641608770E+02  0.00000000000E+00 0.  1.
          2   -1    0    0  501    0  0.00000000000E+00 -0.00000000000E+00 -0.20915829147E+01  0.20915829147E+01  0.00000000000E+00 0. -1.
        -13    1    1    2    0    0  0.17904428508E+01  0.11886835762E+02  0.21524719368E+02  0.24653926541E+02  0.00000000000E+00 0. -1.
         13    1    1    2    0    0 -0.17904428508E+01 -0.11886835762E+02  0.68025306487E+02  0.69079265143E+02  0.00000000000E+00 0.  1.
<mgrwt>
<rscale>  0 0.27689422E+02</rscale>
<asrwt>0</asrwt>
<pdfrwt beam="2">  1        2 0.32178206E-03 0.27689422E+02</pdfrwt>
<pdfrwt beam="1">  1       -2 0.14098706E-01 0.27689422E+02</pdfrwt>
<totfact> 0.14645796E+06</totfact>
</mgrwt>
</event>
<event>
 4    1  0.2126213E+000  0.4058910E+02  0.7546771E-02  0.1503920E+00
          2   -1    0    0  501    0  0.00000000000E+00  0.00000000000E+00  0.54651411893E+02  0.54651411893E+02  0.00000000000E+00 0.  1.
         -2   -1    0    0    0  501 -0.00000000000E+00 -0.00000000000E+00 -0.75362888974E+01  0.75362888974E+01  0.00000000000E+00 0. -1.
        -13    1    1    2    0    0  0.57672639370E+01  0.13484833723E+02  0.45049268140E+02  0.47376562072E+02  0.00000000000E+00 0.  1.
         13    1    1    2    0    0 -0.57672639370E+01 -0.13484833723E+02  0.20658548563E+01  0.14811138719E+02  0.00000000000E+00 0. -1.
<mgrwt>
<rscale>  0 0.40589103E+02</rscale>
<asrwt>0</asrwt>
<pdfrwt beam="1">  1        2 0.84079093E-02 0.40589103E+02</pdfrwt>
<pdfrwt beam="2">  1       -2 0.11594291E-02 0.40589103E+02</pdfrwt>
<totfact> 0.88412286E+05</totfact>
</mgrwt>
</event>
<event>
 4    1  0.2126213E+000  0.2554591E+02  0.7546771E-02  0.1653282E+00
         -3   -1    0    0    0  501 -0.00000000000E+00  0.00000000000E+00  0.55575781918E+01  0.55575781918E+01  0.00000000000E+00 0. -1.
          3   -1    0    0  501    0  0.00000000000E+00 -0.00000000000E+00 -0.29356030515E+02  0.29356030515E+02  0.00000000000E+00 0.  1.
        -11    1    1    2    0    0  0.59333699202E+01 -0.10917888856E+02 -0.78580296633E+01  0.14702170107E+02  0.00000000000E+00 0.  1.
         11    1    1    2    0    0 -0.59333699202E+01  0.10917888856E+02 -0.15940422660E+02  0.20211438599E+02  0.00000000000E+00 0. -1.
<mgrwt>
<rscale>  0 0.25545914E+02</rscale>
<asrwt>0</asrwt>
<pdfrwt beam="2">  1        3 0.45163123E-02 0.25545914E+02</pdfrwt>
<pdfrwt beam="1">  1       -3 0.85501204E-03 0.25545914E+02</pdfrwt>
<totfact> 0.98908715E+05</totfact>
</mgrwt>
</event>
<event>
 4    1  0.2126213E+000  0.4460006E+02  0.7546771E-02  0.1476854E+00
         -2   -1    0    0    0  501 -0.00000000000E+00  0.00000000000E+00  0.76207161135E+02  0.76207161135E+02  0.00000000000E+00 0.  1.
          2   -1    0    0  501    0  0.00000000000E+00 -0.00000000000E+00 -0.65255199623E+01  0.65255199623E+01  0.00000000000E+00 0. -1.
        -13    1    1    2    0    0 -0.63646665562E+01  0.10739401400E+02  0.56374989117E+00  0.12496460968E+02  0.00000000000E+00 0. -1.
         13    1    1    2    0    0  0.63646665562E+01 -0.10739401400E+02  0.69117891282E+02  0.70236220129E+02  0.00000000000E+00 0.  1.
<mgrwt>
<rscale>  0 0.44600061E+02</rscale>
<asrwt>0</asrwt>
<pdfrwt beam="2">  1        2 0.10039262E-02 0.44600061E+02</pdfrwt>
<pdfrwt beam="1">  1       -2 0.11724178E-01 0.44600061E+02</pdfrwt>
<totfact> 0.49563811E+05</totfact>
</mgrwt>
</event>
<event>
 4    1  0.2126213E+000  0.3835863E+02  0.7546771E-02  0.1520650E+00
          2   -1    0    0  501    0  0.00000000000E+00  0.00000000000E+00  0.33105681631E+02  0.33105681631E+02  0.00000000000E+00 0. -1.
         -2   -1    0    0    0  501 -0.00000000000E+00 -0.00000000000E+00 -0.11111267917E+02  0.11111267917E+02  0.00000000000E+00 0.  1.
        -13    1    1    2    0    0 -0.10570699965E+02 -0.19877004214E+01  0.29301791685E+02  0.31213549088E+02  0.00000000000E+00 0. -1.
         13    1    1    2    0    0  0.10570699965E+02  0.19877004214E+01 -0.73073779704E+01  0.13003400460E+02  0.00000000000E+00 0.  1.
<mgrwt>
<rscale>  0 0.38358629E+02</rscale>
<asrwt>0</asrwt>
<pdfrwt beam="1">  1        2 0.50931817E-02 0.38358629E+02</pdfrwt>
<pdfrwt beam="2">  1       -2 0.17094259E-02 0.38358629E+02</pdfrwt>
<totfact> 0.93797165E+05</totfact>
</mgrwt>
</event>
<event>
 4    1  0.2126213E+000  0.2374815E+02  0.7546771E-02  0.1679662E+00
          1   -1    0    0  501    0  0.00000000000E+00  0.00000000000E+00  0.18996498540E+02  0.18996498540E+02  0.00000000000E+00 0. -1.
         -1   -1    0    0    0  501 -0.00000000000E+00 -0.00000000000E+00 -0.74220866649E+01  0.74220866649E+01  0.00000000000E+00 0.  1.
        -13    1    1    2    0    0  0.11864514685E+02  0.27081005081E+00  0.62232113810E+01  0.13400313679E+02  0.00000000000E+00 0. -1.
         13    1    1    2    0    0 -0.11864514685E+02 -0.27081005081E+00  0.53512004937E+01  0.13018271526E+02  0.00000000000E+00 0.  1.
<mgrwt>
<rscale>  0 0.23748150E+02</rscale>
<asrwt>0</asrwt>
<pdfrwt beam="1">  1        1 0.29225382E-02 0.23748150E+02</pdfrwt>
<pdfrwt beam="2">  1       -1 0.11418595E-02 0.23748150E+02</pdfrwt>
<totfact> 0.26776998E+06</totfact>
</mgrwt>
</event>
<event>
 4    1  0.2126213E+000  0.8140192E+02  0.7546771E-02  0.1325119E+00
         -2   -1    0    0    0  501 -0.00000000000E+00  0.00000000000E+00  0.10458497708E+03  0.10458497708E+03  0.00000000000E+00 0. -1.
          2   -1    0    0  501    0  0.00000000000E+00 -0.00000000000E+00 -0.15839445779E+02  0.15839445779E+02  0.00000000000E+00 0.  1.
        -11    1    1    2    0    0  0.31041154836E+02 -0.15311038798E+02  0.76053171969E+02  0.83558758782E+02  0.00000000000E+00 0. -1.
         11    1    1    2    0    0 -0.31041154836E+02  0.15311038798E+02  0.12692359335E+02  0.36865664081E+02  0.00000000000E+00 0.  1.
<mgrwt>
<rscale>  0 0.81401918E+02</rscale>
<asrwt>0</asrwt>
<pdfrwt beam="2">  1        2 0.24368379E-02 0.81401918E+02</pdfrwt>
<pdfrwt beam="1">  1       -2 0.16089996E-01 0.81401918E+02</pdfrwt>
<totfact> 0.10446717E+05</totfact>
</mgrwt>
</event>
<event>
 4    1  0.2126213E+000  0.2421433E+02  0.7546771E-02  0.1672550E+00
          1   -1    0    0  501    0  0.00000000000E+00  0.00000000000E+00  0.50805973435E+02  0.50805973435E+02  0.00000000000E+00 0.  1.
         -1   -1    0    0    0  501 -0.00000000000E+00 -0.00000000000E+00 -0.28851622908E+01  0.28851622908E+01  0.00000000000E+00 0. -1.
        -13    1    1    2    0    0 -0.68923484570E+01 -0.96851680656E+01  0.29053765060E+02  0.31391530894E+02  0.00000000000E+00 0.  1.
         13    1    1    2    0    0  0.68923484570E+01  0.96851680656E+01  0.18867046085E+02  0.22299604832E+02  0.00000000000E+00 0. -1.
<mgrwt>
<rscale>  0 0.24214333E+02</rscale>
<asrwt>0</asrwt>
<pdfrwt beam="1">  1        1 0.78163029E-02 0.24214333E+02</pdfrwt>
<pdfrwt beam="2">  1       -1 0.44387116E-03 0.24214333E+02</pdfrwt>
<totfact> 0.27108379E+06</totfact>
</mgrwt>
</event>
<event>
 4    1  0.2126213E+000  0.2685238E+02  0.7546771E-02  0.1635738E+00
         -2   -1    0    0    0  501 -0.00000000000E+00  0.00000000000E+00  0.12615640039E+02  0.12615640039E+02  0.00000000000E+00 0.  1.
          2   -1    0    0  501    0  0.00000000000E+00 -0.00000000000E+00 -0.14288816262E+02  0.14288816262E+02  0.00000000000E+00 0. -1.
        -11    1    1    2    0    0  0.74575623374E+01  0.11151313702E+02 -0.29190778286E+00  0.13418354722E+02  0.00000000000E+00 0.  1.
         11    1    1    2    0    0 -0.74575623374E+01 -0.11151313702E+02 -0.13812684402E+01  0.13486101579E+02  0.00000000000E+00 0. -1.
<mgrwt>
<rscale>  0 0.26852379E+02</rscale>
<asrwt>0</asrwt>
<pdfrwt beam="2">  1        2 0.21982794E-02 0.26852379E+02</pdfrwt>
<pdfrwt beam="1">  1       -2 0.19408677E-02 0.26852379E+02</pdfrwt>
<totfact> 0.20379236E+06</totfact>
</mgrwt>
</event>
<event>
 4    1  0.2126213E+000  0.3033926E+02  0.7546771E-02  0.1594369E+00
         -1   -1    0    0    0  501 -0.00000000000E+00  0.00000000000E+00  0.21524750517E+02  0.21524750517E+02  0.00000000000E+00 0. -1.
          1   -1    0    0  501    0  0.00000000000E+00 -0.00000000000E+00 -0.10690842094E+02  0.10690842094E+02  0.00000000000E+00 0.  1.
        -13    1    1    2    0    0  0.10588631575E+02  0.52819938009E+01 -0.46621378322E+01  0.12718258776E+02  0.00000000000E+00 0.  1.
         13    1    1    2    0    0 -0.10588631575E+02 -0.52819938009E+01  0.15496046255E+02  0.19497333835E+02  0.00000000000E+00 0. -1.
<mgrwt>
<rscale>  0 0.30339262E+02</rscale>
<asrwt>0</asrwt>
<pdfrwt beam="2">  1        1 0.16447449E-02 0.30339262E+02</pdfrwt>
<pdfrwt beam="1">  1       -1 0.33115001E-02 0.30339262E+02</pdfrwt>
<totfact> 0.14504385E+06</totfact>
</mgrwt>
</event>
<event>
 4    1  0.2126213E+000  0.2238818E+02  0.7546771E-02  0.1701624E+00
          1   -1    0    0  501    0  0.00000000000E+00  0.00000000000E+00  0.46132225147E+02  0.46132225147E+02  0.00000000000E+00 0.  1.
         -1   -1    0    0    0  501 -0.00000000000E+00 -0.00000000000E+00 -0.27162714748E+01  0.27162714748E+01  0.00000000000E+00 0. -1.
        -11    1    1    2    0    0  0.47779750734E+00  0.10555381685E+02  0.29773077856E+02  0.31592412665E+02  0.00000000000E+00 0.  1.
         11    1    1    2    0    0 -0.47779750734E+00 -0.10555381685E+02  0.13642875816E+02  0.17256083957E+02  0.00000000000E+00 0. -1.
<mgrwt>
<rscale>  0 0.22388180E+02</rscale>
<asrwt>0</asrwt>
<pdfrwt beam="1">  1        1 0.70972648E-02 0.22388180E+02</pdfrwt>
<pdfrwt beam="2">  1       -1 0.41788795E-03 0.22388180E+02</pdfrwt>
<totfact> 0.32193765E+06</totfact>
</mgrwt>
</event>
<event>
 4    1  0.2126213E+000  0.2400227E+02  0.7546771E-02  0.1675760E+00
         -2   -1    0    0    0  501 -0.00000000000E+00  0.00000000000E+00  0.31395900822E+01  0.31395900822E+01  0.00000000000E+00 0. -1.
          2   -1    0    0  501    0  0.00000000000E+00 -0.00000000000E+00 -0.45874550648E+02  0.45874550648E+02  0.00000000000E+00 0.  1.
        -11    1    1    2    0    0 -0.96227327114E+01  0.68055400496E+01 -0.25985849036E+02  0.28533781914E+02  0.00000000000E+00 0.  1.
         11    1    1    2    0    0  0.96227327114E+01 -0.68055400496E+01 -0.16749111531E+02  0.20480358817E+02  0.00000000000E+00 0. -1.
<mgrwt>
<rscale>  0 0.24002274E+02</rscale>
<asrwt>0</asrwt>
<pdfrwt beam="2">  1        2 0.70576228E-02 0.24002274E+02</pdfrwt>
<pdfrwt beam="1">  1       -2 0.48301389E-03 0.24002274E+02</pdfrwt>
<totfact> 0.30252962E+06</totfact>
</mgrwt>
</event>
<event>
 4    1  0.2126213E+000  0.4284989E+02  0.7546771E-02  0.1488229E+00
          3   -1    0    0  501    0  0.00000000000E+00  0.00000000000E+00  0.15075301381E+02  0.15075301381E+02  0.00000000000E+00 0. -1.
         -3   -1    0    0    0  501 -0.00000000000E+00 -0.00000000000E+00 -0.30449030683E+02  0.30449030683E+02  0.00000000000E+00 0.  1.
        -13    1    1    2    0    0  0.17617375569E+02 -0.11247928175E+02 -0.26878132515E+01  0.21073968545E+02  0.00000000000E+00 0. -1.
         13    1    1    2    0    0 -0.17617375569E+02  0.11247928175E+02 -0.12685916051E+02  0.24450363519E+02  0.00000000000E+00 0.  1.
<mgrwt>
<rscale>  0 0.42849892E+02</rscale>
<asrwt>0</asrwt>
<pdfrwt beam="1">  1        3 0.23192771E-02 0.42849892E+02</pdfrwt>
<pdfrwt beam="2">  1       -3 0.46844662E-02 0.42849892E+02</pdfrwt>
<totfact> 0.28144565E+05</totfact>
</mgrwt>
</event>
<event>
 4    1  0.2126213E+000  0.2441798E+02  0.7546771E-02  0.1669505E+00
         -2   -1    0    0    0  501 -0.00000000000E+00  0.00000000000E+00  0.57530012970E+02  0.57530012970E+02  0.00000000000E+00 0. -1.
          2   -1    0    0  501    0  0.00000000000E+00 -0.00000000000E+00 -0.25909848489E+01  0.25909848489E+01  0.00000000000E+00 0.  1.
        -13    1    1    2    0    0  0.30567210826E+01  0.10888279144E+02  0.38795784283E+02  0.40410531358E+02  0.00000000000E+00 0.  1.
         13    1    1    2    0    0 -0.30567210826E+01 -0.10888279144E+02  0.16143243838E+02  0.19710466461E+02  0.00000000000E+00 0. -1.
<mgrwt>
<rscale>  0 0.24417976E+02</rscale>
<asrwt>0</asrwt>
<pdfrwt beam="2">  1        2 0.39861310E-03 0.24417976E+02</pdfrwt>
<pdfrwt beam="1">  1       -2 0.88507703E-02 0.24417976E+02</pdfrwt>
<totfact> 0.21307998E+06</totfact>
</mgrwt>
</event>
<event>
 4    1  0.2126213E+000  0.2398217E+02  0.7546771E-02  0.1676067E+00
          4   -1    0    0  501    0  0.00000000000E+00  0.00000000000E+00  0.21626750366E+02  0.21626750366E+02  0.00000000000E+00 0.  1.
         -4   -1    0    0    0  501 -0.00000000000E+00 -0.00000000000E+00 -0.66485293860E+01  0.66485293860E+01  0.00000000000E+00 0. -1.
        -13    1    1    2    0    0 -0.74166239365E+01 -0.68304795197E+01  0.15141286634E+02  0.18191215517E+02  0.00000000000E+00 0.  1.
         13    1    1    2    0    0  0.74166239365E+01  0.68304795197E+01 -0.16306565333E+00  0.10084064235E+02  0.00000000000E+00 0. -1.
<mgrwt>
<rscale>  0 0.23982167E+02</rscale>
<asrwt>0</asrwt>
<pdfrwt beam="1">  1        4 0.33271923E-02 0.23982167E+02</pdfrwt>
<pdfrwt beam="2">  1       -4 0.10228507E-02 0.23982167E+02</pdfrwt>
<totfact> 0.85813559E+05</totfact>
</mgrwt>
</event>
<event>
 4    1  0.2126213E+000  0.3218490E+02  0.7546771E-02  0.1575122E+00
          2   -1    0    0  501    0  0.00000000000E+00  0.00000000000E+00  0.55188881089E+02  0.55188881089E+02  0.00000000000E+00 0. -1.
         -2   -1    0    0    0  501 -0.00000000000E+00 -0.00000000000E+00 -0.46923756121E+01  0.46923756121E+01  0.00000000000E+00 0.  1.
        -13    1    1    2    0    0  0.15046232549E+02  0.22459214644E+00  0.14637078787E+02  0.20992466053E+02  0.00000000000E+00 0.  1.
         13    1    1    2    0    0 -0.15046232549E+02 -0.22459214644E+00  0.35859426690E+02  0.38888790648E+02  0.00000000000E+00 0. -1.
<mgrwt>
<rscale>  0 0.32184901E+02</rscale>
<asrwt>0</asrwt>
<pdfrwt beam="1">  1        2 0.84905966E-02 0.32184901E+02</pdfrwt>
<pdfrwt beam="2">  1       -2 0.72190398E-03 0.32184901E+02</pdfrwt>
<totfact> 0.15624958E+06</totfact>
</mgrwt>
</event>
<event>
 4    1  0.2126213E+000  0.3125142E+02  0.7546771E-02  0.1584654E+00
         -2   -1    0    0    0  501 -0.00000000000E+00  0.00000000000E+00  0.11378670435E+02  0.11378670435E+02  0.00000000000E+00 0. -1.
          2   -1    0    0  501    0  0.00000000000E+00 -0.00000000000E+00 -0.21457945579E+02  0.21457945579E+02  0.00000000000E+00 0.  1.
        -11    1    1    2    0    0  0.12049058524E+02  0.94222111660E+01 -0.16830697850E+01  0.15388001770E+02  0.00000000000E+00 0. -1.
         11    1    1    2    0    0 -0.12049058524E+02 -0.94222111660E+01 -0.83962053594E+01  0.17448614243E+02  0.00000000000E+00 0.  1.
<mgrwt>
<rscale>  0 0.31251425E+02</rscale>
<asrwt>0</asrwt>
<pdfrwt beam="2">  1        2 0.33012224E-02 0.31251425E+02</pdfrwt>
<pdfrwt beam="1">  1       -2 0.17505647E-02 0.31251425E+02</pdfrwt>
<totfact> 0.14719333E+06</totfact>
</mgrwt>
</event>
<event>
 4    1  0.2126213E+000  0.2736199E+02  0.7546771E-02  0.1629224E+00
          4   -1    0    0  501    0  0.00000000000E+00  0.00000000000E+00  0.50442818037E+01  0.50442818037E+01  0.00000000000E+00 0.  1.
         -4   -1    0    0    0  501 -0.00000000000E+00 -0.00000000000E+00 -0.37105312948E+02  0.37105312948E+02  0.00000000000E+00 0. -1.
        -13    1    1    2    0    0  0.13571185838E+02 -0.17131713208E+01 -0.16400266505E+02  0.21356047913E+02  0.00000000000E+00 0.  1.
         13    1    1    2    0    0 -0.13571185838E+02  0.17131713208E+01 -0.15660764639E+02  0.20793546838E+02  0.00000000000E+00 0. -1.
<mgrwt>
<rscale>  0 0.27361992E+02</rscale>
<asrwt>0</asrwt>
<pdfrwt beam="1">  1        4 0.77604340E-03 0.27361992E+02</pdfrwt>
<pdfrwt beam="2">  1       -4 0.57085094E-02 0.27361992E+02</pdfrwt>
<totfact> 0.61061596E+05</totfact>
</mgrwt>
</event>
<event>
 4    1  0.2126213E+000  0.2524949E+02  0.7546771E-02  0.1657444E+00
         -2   -1    0    0    0  501 -0.00000000000E+00  0.00000000000E+00  0.83065555650E+02  0.83065555650E+02  0.00000000000E+00 0.  1.
          2   -1    0    0  501    0  0.00000000000E+00 -0.00000000000E+00 -0.19187755428E+01  0.19187755428E+01  0.00000000000E+00 0. -1.
        -13    1    1    2    0    0  0.32782503495E+01  0.12187734112E+02  0.41618239713E+02  0.43489834042E+02  0.00000000000E+00 0.  1.
         13    1    1    2    0    0 -0.32782503495E+01 -0.12187734112E+02  0.39528540393E+02  0.41494497151E+02  0.00000000000E+00 0. -1.
<mgrwt>
<rscale>  0 0.25249488E+02</rscale>
<asrwt>0</asrwt>
<pdfrwt beam="2">  1        2 0.29519630E-03 0.25249488E+02</pdfrwt>
<pdfrwt beam="1">  1       -2 0.12779313E-01 0.25249488E+02</pdfrwt>
<totfact> 0.18464956E+06</totfact>
</mgrwt>
</event>
<event>
 4    1  0.2126213E+000  0.1115261E+03  0.7546771E-02  0.1257770E+00
          2   -1    0    0  501    0  0.00000000000E+00  0.00000000000E+00  0.31666005987E+03  0.31666005987E+03  0.00000000000E+00 0.  1.
         -2   -1    0    0    0  501 -0.00000000000E+00 -0.00000000000E+00 -0.98197293725E+01  0.98197293725E+01  0.00000000000E+00 0. -1.
        -13    1    1    2    0    0  0.26390530945E+02 -0.35363301262E+02  0.25323039479E+03  0.25704601932E+03  0.00000000000E+00 0. -1.
         13    1    1    2    0    0 -0.26390530945E+02  0.35363301262E+02  0.53609935700E+02  0.69433769921E+02  0.00000000000E+00 0.  1.
<mgrwt>
<rscale>  0 0.11152607E+03</rscale>
<asrwt>0</asrwt>
<pdfrwt beam="1">  1        2 0.48716924E-01 0.11152607E+03</pdfrwt>
<pdfrwt beam="2">  1       -2 0.15107278E-02 0.11152607E+03</pdfrwt>
<totfact> 0.10648449E+05</totfact>
</mgrwt>
</event>
<event>
 4    1  0.2126213E+000  0.2594967E+02  0.7546771E-02  0.1647725E+00
          2   -1    0    0  501    0  0.00000000000E+00  0.00000000000E+00  0.38113409292E+02  0.38113409292E+02  0.00000000000E+00 0.  1.
         -2   -1    0    0    0  501 -0.00000000000E+00 -0.00000000000E+00 -0.44169834848E+01  0.44169834848E+01  0.00000000000E+00 0. -1.
        -13    1    1    2    0    0  0.52741177915E+01  0.98879066187E+01  0.27565449565E+02  0.29756361093E+02  0.00000000000E+00 0.  1.
         13    1    1    2    0    0 -0.52741177915E+01 -0.98879066187E+01  0.61309762426E+01  0.12774031684E+02  0.00000000000E+00 0. -1.
<mgrwt>
<rscale>  0 0.25949667E+02</rscale>
<asrwt>0</asrwt>
<pdfrwt beam="1">  1        2 0.58636012E-02 0.25949667E+02</pdfrwt>
<pdfrwt beam="2">  1       -2 0.67953595E-03 0.25949667E+02</pdfrwt>
<totfact> 0.24589145E+06</totfact>
</mgrwt>
</event>
<event>
 4    1  0.2126213E+000  0.4024580E+02  0.7546771E-02  0.1506410E+00
          4   -1    0    0  501    0  0.00000000000E+00  0.00000000000E+00  0.92339920048E+01  0.92339920048E+01  0.00000000000E+00 0.  1.
         -4   -1    0    0    0  501 -0.00000000000E+00 -0.00000000000E+00 -0.43852218645E+02  0.43852218645E+02  0.00000000000E+00 0. -1.
        -13    1    1    2    0    0  0.36756272918E+01 -0.17306590282E+02 -0.46639217945E+01  0.18297007124E+02  0.00000000000E+00 0.  1.
         13    1    1    2    0    0 -0.36756272918E+01  0.17306590282E+02 -0.29954304846E+02  0.34789203526E+02  0.00000000000E+00 0. -1.
<mgrwt>
<rscale>  0 0.40245797E+02</rscale>
<asrwt>0</asrwt>
<pdfrwt beam="1">  1        4 0.14206142E-02 0.40245797E+02</pdfrwt>
<pdfrwt beam="2">  1       -4 0.67464951E-02 0.40245797E+02</pdfrwt>
<totfact> 0.24233685E+05</totfact>
</mgrwt>
</event>
<event>
 4    1  0.2126213E+000  0.2470004E+02  0.7546771E-02  0.1665348E+00
         -2   -1    0    0    0  501 -0.00000000000E+00  0.00000000000E+00  0.61020122421E+01  0.61020122421E+01  0.00000000000E+00 0. -1.
          2   -1    0    0  501    0  0.00000000000E+00 -0.00000000000E+00 -0.24995517502E+02  0.24995517502E+02  0.00000000000E+00 0.  1.
        -13    1    1    2    0    0 -0.10482279585E+02  0.32070914246E+01 -0.22848555825E+01  0.11197508015E+02  0.00000000000E+00 0.  1.
         13    1    1    2    0    0  0.10482279585E+02 -0.32070914246E+01 -0.16608649677E+02  0.19900021729E+02  0.00000000000E+00 0. -1.
<mgrwt>
<rscale>  0 0.24700037E+02</rscale>
<asrwt>0</asrwt>
<pdfrwt beam="2">  1        2 0.38454642E-02 0.24700037E+02</pdfrwt>
<pdfrwt beam="1">  1       -2 0.93877112E-03 0.24700037E+02</pdfrwt>
<totfact> 0.26235740E+06</totfact>
</mgrwt>
</event>
<event>
 4    1  0.2126213E+000  0.3023549E+02  0.7546771E-02  0.1595500E+00
         -4   -1    0    0    0  501 -0.00000000000E+00  0.00000000000E+00  0.24921249270E+01  0.24921249270E+01  0.00000000000E+00 0.  1.
          4   -1    0    0  501    0  0.00000000000E+00 -0.00000000000E+00 -0.91707371901E+02  0.91707371901E+02  0.00000000000E+00 0. -1.
        -13    1    1    2    0    0  0.12436191792E+02 -0.85690015741E+01 -0.46719696507E+02  0.49100068187E+02  0.00000000000E+00 0.  1.
         13    1    1    2    0    0 -0.12436191792E+02  0.85690015741E+01 -0.42495550467E+02  0.45099428641E+02  0.00000000000E+00 0. -1.
<mgrwt>
<rscale>  0 0.30235491E+02</rscale>
<asrwt>0</asrwt>
<pdfrwt beam="2">  1        4 0.14108825E-01 0.30235491E+02</pdfrwt>
<pdfrwt beam="1">  1       -4 0.38340386E-03 0.30235491E+02</pdfrwt>
<totfact> 0.41504886E+05</totfact>
</mgrwt>
</event>
<event>
 4    1  0.2126213E+000  0.4588170E+02  0.7546771E-02  0.1468911E+00
          2   -1    0    0  501    0  0.00000000000E+00  0.00000000000E+00  0.23939273870E+03  0.23939273870E+03  0.00000000000E+00 0.  1.
         -2   -1    0    0    0  501 -0.00000000000E+00 -0.00000000000E+00 -0.21984065618E+01  0.21984065618E+01  0.00000000000E+00 0. -1.
        -13    1    1    2    0    0  0.98848996047E+00  0.22898142744E+02  0.12381113503E+03  0.12591465050E+03  0.00000000000E+00 0.  1.
         13    1    1    2    0    0 -0.98848996047E+00 -0.22898142744E+02  0.11338319711E+03  0.11567649476E+03  0.00000000000E+00 0. -1.
<mgrwt>
<rscale>  0 0.45881699E+02</rscale>
<asrwt>0</asrwt>
<pdfrwt beam="1">  1        2 0.36829632E-01 0.45881699E+02</pdfrwt>
<pdfrwt beam="2">  1       -2 0.33821658E-03 0.45881699E+02</pdfrwt>
<totfact> 0.96840038E+05</totfact>
</mgrwt>
</event>
<event>
 4    1  0.2126213E+000  0.2637237E+02  0.7546771E-02  0.1642038E+00
          3   -1    0    0  501    0  0.00000000000E+00  0.00000000000E+00  0.18070906900E+01  0.18070906900E+01  0.00000000000E+00 0. -1.
         -3   -1    0    0    0  501 -0.00000000000E+00 -0.00000000000E+00 -0.96218484634E+02  0.96218484634E+02  0.00000000000E+00 0.  1.
        -13    1    1    2    0    0 -0.63757161305E+01 -0.11080407455E+02 -0.35189821179E+02  0.37439934564E+02  0.00000000000E+00 0. -1.
         13    1    1    2    0    0  0.63757161305E+01  0.11080407455E+02 -0.59221572765E+02  0.60585640760E+02  0.00000000000E+00 0.  1.
<mgrwt>
<rscale>  0 0.26372374E+02</rscale>
<asrwt>0</asrwt>
<pdfrwt beam="1">  1        3 0.27801386E-03 0.26372374E+02</pdfrwt>
<pdfrwt beam="2">  1       -3 0.14802849E-01 0.26372374E+02</pdfrwt>
<totfact> 0.77367538E+05</totfact>
</mgrwt>
</event>
<event>
 4    1  0.2126213E+000  0.3429583E+02  0.7546771E-02  0.1554944E+00
          2   -1    0    0  501    0  0.00000000000E+00  0.00000000000E+00  0.25536584186E+02  0.25536584186E+02  0.00000000000E+00 0. -1.
         -2   -1    0    0    0  501 -0.00000000000E+00 -0.00000000000E+00 -0.11514892437E+02  0.11514892437E+02  0.00000000000E+00 0.  1.
        -11    1    1    2    0    0  0.16479040041E+02 -0.10365829226E+01  0.12010628878E+02  0.20417846872E+02  0.00000000000E+00 0. -1.
         11    1    1    2    0    0 -0.16479040041E+02  0.10365829226E+01  0.20110628707E+01  0.16633629751E+02  0.00000000000E+00 0.  1.
<mgrwt>
<rscale>  0 0.34295832E+02</rscale>
<asrwt>0</asrwt>
<pdfrwt beam="1">  1        2 0.39287052E-02 0.34295832E+02</pdfrwt>
<pdfrwt beam="2">  1       -2 0.17715219E-02 0.34295832E+02</pdfrwt>
<totfact> 0.11961794E+06</totfact>
</mgrwt>
</event>
<event>
 4    1  0.2126213E+000  0.2157951E+02  0.7546771E-02  0.1715627E+00
         -2   -1    0    0    0  501 -0.00000000000E+00  0.00000000000E+00  0.46301576309E+02  0.46301576309E+02  0.00000000000E+00 0.  1.
          2   -1    0    0  501    0  0.00000000000E+00 -0.00000000000E+00 -0.25143586216E+01  0.25143586216E+01  0.00000000000E+00 0. -1.
        -13    1    1    2    0    0 -0.37536102594E+01 -0.95607592498E+01  0.29369320070E+02  0.31113576920E+02  0.00000000000E+00 0.  1.
         13    1    1    2    0    0  0.37536102594E+01  0.95607592498E+01  0.14417897618E+02  0.17702358010E+02  0.00000000000E+00 0. -1.
<mgrwt>
<rscale>  0 0.21579506E+02</rscale>
<asrwt>0</asrwt>
<pdfrwt beam="2">  1        2 0.38682444E-03 0.21579506E+02</pdfrwt>
<pdfrwt beam="1">  1       -2 0.71233188E-02 0.21579506E+02</pdfrwt>
<totfact> 0.28989646E+06</totfact>
</mgrwt>
</event>
<event>
 4    1  0.2126213E+000  0.2871616E+02  0.7546771E-02  0.1612729E+00
          3   -1    0    0  501    0  0.00000000000E+00  0.00000000000E+00  0.25941745429E+01  0.25941745429E+01  0.00000000000E+00 0.  1.
         -3   -1    0    0    0  501 -0.00000000000E+00 -0.00000000000E+00 -0.79468230130E+02  0.79468230130E+02  0.00000000000E+00 0. -1.
        -13    1    1    2    0    0 -0.28144142852E+01 -0.11864803898E+02 -0.60099126824E+02  0.61323727417E+02  0.00000000000E+00 0. -1.
         13    1    1    2    0    0  0.28144142852E+01  0.11864803898E+02 -0.16774928763E+02  0.20738677255E+02  0.00000000000E+00 0.  1.
<mgrwt>
<rscale>  0 0.28716160E+02</rscale>
<asrwt>0</asrwt>
<pdfrwt beam="1">  1        3 0.39910378E-03 0.28716160E+02</pdfrwt>
<pdfrwt beam="2">  1       -3 0.12225881E-01 0.28716160E+02</pdfrwt>
<totfact> 0.66294522E+05</totfact>
</mgrwt>
</event>
<event>
 4    1  0.2126213E+000  0.2585693E+02  0.7546771E-02  0.1648990E+00
         -2   -1    0    0    0  501 -0.00000000000E+00  0.00000000000E+00  0.11748440451E+02  0.11748440451E+02  0.00000000000E+00 0.  1.
          2   -1    0    0  501    0  0.00000000000E+00 -0.00000000000E+00 -0.14227007392E+02  0.14227007392E+02  0.00000000000E+00 0. -1.
        -13    1    1    2    0    0 -0.23231377451E+01  0.11291544376E+02  0.46398241739E+01  0.12426741799E+02  0.00000000000E+00 0.  1.
         13    1    1    2    0    0  0.23231377451E+01 -0.11291544376E+02 -0.71183911149E+01  0.13548706043E+02  0.00000000000E+00 0. -1.
<mgrwt>
<rscale>  0 0.25856926E+02</rscale>
<asrwt>0</asrwt>
<pdfrwt beam="2">  1        2 0.21887704E-02 0.25856926E+02</pdfrwt>
<pdfrwt beam="1">  1       -2 0.18074524E-02 0.25856926E+02</pdfrwt>
<totfact> 0.22296891E+06</totfact>
</mgrwt>
</event>
<event>
 4    1  0.2126213E+000  0.2173463E+02  0.7546771E-02  0.1712882E+00
         -2   -1    0    0    0  501 -0.00000000000E+00  0.00000000000E+00  0.43983278763E+01  0.43983278763E+01  0.00000000000E+00 0.  1.
          2   -1    0    0  501    0  0.00000000000E+00 -0.00000000000E+00 -0.26850768531E+02  0.26850768531E+02  0.00000000000E+00 0. -1.
        -11    1    1    2    0    0 -0.31756879027E+01 -0.98061066653E+01 -0.16176313934E+02  0.19181184898E+02  0.00000000000E+00 0. -1.
         11    1    1    2    0    0  0.31756879027E+01  0.98061066653E+01 -0.62761267202E+01  0.12067911509E+02  0.00000000000E+00 0.  1.
<mgrwt>
<rscale>  0 0.21734625E+02</rscale>
<asrwt>0</asrwt>
<pdfrwt beam="2">  1        2 0.41308876E-02 0.21734625E+02</pdfrwt>
<pdfrwt beam="1">  1       -2 0.67666581E-03 0.21734625E+02</pdfrwt>
<totfact> 0.35506137E+06</totfact>
</mgrwt>
</event>
<event>
 4    1  0.2126213E+000  0.3414731E+02  0.7546771E-02  0.1556306E+00
         -4   -1    0    0    0  501 -0.00000000000E+00  0.00000000000E+00  0.16157620197E+02  0.16157620197E+02  0.00000000000E+00 0.  1.
          4   -1    0    0  501    0  0.00000000000E+00 -0.00000000000E+00 -0.18041625167E+02  0.18041625167E+02  0.00000000000E+00 0. -1.
        -11    1    1    2    0    0 -0.90237185507E+01 -0.11756344878E+02  0.75485430274E+01  0.16631886339E+02  0.00000000000E+00 0.  1.
         11    1    1    2    0    0  0.90237185507E+01  0.11756344878E+02 -0.94325479969E+01  0.17567359024E+02  0.00000000000E+00 0. -1.
<mgrwt>
<rscale>  0 0.34147312E+02</rscale>
<asrwt>0</asrwt>
<pdfrwt beam="2">  1        4 0.27756346E-02 0.34147312E+02</pdfrwt>
<pdfrwt beam="1">  1       -4 0.24857877E-02 0.34147312E+02</pdfrwt>
<totfact> 0.38059213E+05</totfact>
</mgrwt>
</event>
<event>
 4    1  0.2126213E+000  0.3859744E+02  0.7546771E-02  0.1518794E+00
         -2   -1    0    0    0  501 -0.00000000000E+00  0.00000000000E+00  0.22445084484E+02  0.22445084484E+02  0.00000000000E+00 0.  1.
          2   -1    0    0  501    0  0.00000000000E+00 -0.00000000000E+00 -0.16593414380E+02  0.16593414380E+02  0.00000000000E+00 0. -1.
        -11    1    1    2    0    0 -0.17485277805E+02 -0.35860853317E+01 -0.44959758137E+01  0.18406758173E+02  0.00000000000E+00 0. -1.
         11    1    1    2    0    0  0.17485277805E+02  0.35860853317E+01  0.10347645917E+02  0.20631740691E+02  0.00000000000E+00 0.  1.
<mgrwt>
<rscale>  0 0.38597440E+02</rscale>
<asrwt>0</asrwt>
<pdfrwt beam="2">  1        2 0.25528330E-02 0.38597440E+02</pdfrwt>
<pdfrwt beam="1">  1       -2 0.34530899E-02 0.38597440E+02</pdfrwt>
<totfact> 0.84317734E+05</totfact>
</mgrwt>
</event>
<event>
 4    1  0.2126213E+000  0.4151664E+02  0.7546771E-02  0.1497338E+00
         -2   -1    0    0    0  501 -0.00000000000E+00  0.00000000000E+00  0.62011581006E+01  0.62011581006E+01  0.00000000000E+00 0.  1.
          2   -1    0    0  501    0  0.00000000000E+00 -0.00000000000E+00 -0.69488290297E+02  0.69488290297E+02  0.00000000000E+00 0. -1.
        -13    1    1    2    0    0  0.16102156722E+02  0.71981999299E+01 -0.51599292040E+02  0.54530546232E+02  0.00000000000E+00 0. -1.
         13    1    1    2    0    0 -0.16102156722E+02 -0.71981999299E+01 -0.11687840157E+02  0.21158902166E+02  0.00000000000E+00 0.  1.
<mgrwt>
<rscale>  0 0.41516641E+02</rscale>
<asrwt>0</asrwt>
<pdfrwt beam="2">  1        2 0.10690505E-01 0.41516641E+02</pdfrwt>
<pdfrwt beam="1">  1       -2 0.95402439E-03 0.41516641E+02</pdfrwt>
<totfact> 0.87645346E+05</totfact>
</mgrwt>
</event>
<event>
 4    1  0.2126213E+000  0.2194456E+02  0.7546771E-02  0.1709213E+00
          3   -1    0    0  501    0  0.00000000000E+00  0.00000000000E+00  0.27274092203E+01  0.27274092203E+01  0.00000000000E+00 0. -1.
         -3   -1    0    0    0  501 -0.00000000000E+00 -0.00000000000E+00 -0.44141136679E+02  0.44141136679E+02  0.00000000000E+00 0.  1.
        -13    1    1    2    0    0 -0.10669197654E+02 -0.33887326163E+00 -0.15285064338E+02  0.18643492310E+02  0.00000000000E+00 0. -1.
         13    1    1    2    0    0  0.10669197654E+02  0.33887326163E+00 -0.26128663121E+02  0.28225053590E+02  0.00000000000E+00 0.  1.
<mgrwt>
<rscale>  0 0.21944561E+02</rscale>
<asrwt>0</asrwt>
<pdfrwt beam="1">  1        3 0.41960143E-03 0.21944561E+02</pdfrwt>
<pdfrwt beam="2">  1       -3 0.67909439E-02 0.21944561E+02</pdfrwt>
<totfact> 0.13373652E+06</totfact>
</mgrwt>
</event>
<event>
 4    1  0.2126213E+000  0.1075246E+03  0.7546771E-02  0.1265224E+00
         -1   -1    0    0    0  501 -0.00000000000E+00  0.00000000000E+00  0.83526912225E+01  0.83526912225E+01  0.00000000000E+00 0.  1.
          1   -1    0    0  501    0  0.00000000000E+00 -0.00000000000E+00 -0.34604227621E+03  0.34604227621E+03  0.00000000000E+00 0. -1.
        -11    1    1    2    0    0 -0.39575300105E+02 -0.28685398984E+02 -0.95047462951E+02  0.10687879447E+03  0.00000000000E+00 0.  1.
         11    1    1    2    0    0  0.39575300105E+02  0.28685398984E+02 -0.24264212204E+03  0.24751617296E+03  0.00000000000E+00 0. -1.
<mgrwt>
<rscale>  0 0.10752459E+03</rscale>
<asrwt>0</asrwt>
<pdfrwt beam="2">  1        1 0.53237263E-01 0.10752459E+03</pdfrwt>
<pdfrwt beam="1">  1       -1 0.12850297E-02 0.10752459E+03</pdfrwt>
<totfact> 0.84526942E+04</totfact>
</mgrwt>
</event>
<event>
 4    1  0.2126213E+000  0.3401436E+02  0.7546771E-02  0.1557532E+00
          2   -1    0    0  501    0  0.00000000000E+00  0.00000000000E+00  0.37340645345E+01  0.37340645345E+01  0.00000000000E+00 0. -1.
         -2   -1    0    0    0  501 -0.00000000000E+00 -0.00000000000E+00 -0.77460946833E+02  0.77460946833E+02  0.00000000000E+00 0.  1.
        -13    1    1    2    0    0 -0.11599491639E+01 -0.16770645093E+02 -0.43016441422E+02  0.46184567244E+02  0.00000000000E+00 0. -1.
         13    1    1    2    0    0  0.11599491639E+01  0.16770645093E+02 -0.30710440877E+02  0.35010444124E+02  0.00000000000E+00 0.  1.
<mgrwt>
<rscale>  0 0.34014360E+02</rscale>
<asrwt>0</asrwt>
<pdfrwt beam="1">  1        2 0.57447148E-03 0.34014360E+02</pdfrwt>
<pdfrwt beam="2">  1       -2 0.11917069E-01 0.34014360E+02</pdfrwt>
<totfact> 0.94145835E+05</totfact>
</mgrwt>
</event>
<event>
 4    1  0.2126213E+000  0.3010698E+02  0.7546771E-02  0.1596909E+00
          1   -1    0    0  501    0  0.00000000000E+00  0.00000000000E+00  0.41625712182E+01  0.41625712182E+01  0.00000000000E+00 0.  1.
         -1   -1    0    0    0  501 -0.00000000000E+00 -0.00000000000E+00 -0.54439326928E+02  0.54439326928E+02  0.00000000000E+00 0. -1.
        -11    1    1    2    0    0 -0.32173540313E+01 -0.12342996235E+02 -0.40698661517E+02  0.42650697208E+02  0.00000000000E+00 0. -1.
         11    1    1    2    0    0  0.32173540313E+01  0.12342996235E+02 -0.95780941922E+01  0.15951200938E+02  0.00000000000E+00 0.  1.
<mgrwt>
<rscale>  0 0.30106981E+02</rscale>
<asrwt>0</asrwt>
<pdfrwt beam="1">  1        1 0.64039560E-03 0.30106981E+02</pdfrwt>
<pdfrwt beam="2">  1       -1 0.83752807E-02 0.30106981E+02</pdfrwt>
<totfact> 0.13684955E+06</totfact>
</mgrwt>
</event>
<event>
 4    1  0.2126213E+000  0.2896569E+02  0.7546771E-02  0.1609811E+00
         -3   -1    0    0    0  501 -0.00000000000E+00  0.00000000000E+00  0.71206316838E+02  0.71206316838E+02  0.00000000000E+00 0.  1.
          3   -1    0    0  501    0  0.00000000000E+00 -0.00000000000E+00 -0.29457044013E+01  0.29457044013E+01  0.00000000000E+00 0. -1.
        -11    1    1    2    0    0 -0.12045386949E+02 -0.70198675690E+01  0.24089747300E+02  0.27833178266E+02  0.00000000000E+00 0. -1.
         11    1    1    2    0    0  0.12045386949E+02  0.70198675690E+01  0.44170865137E+02  0.46318842973E+02  0.00000000000E+00 0.  1.
<mgrwt>
<rscale>  0 0.28965687E+02</rscale>
<asrwt>0</asrwt>
<pdfrwt beam="2">  1        3 0.45318535E-03 0.28965687E+02</pdfrwt>
<pdfrwt beam="1">  1       -3 0.10954817E-01 0.28965687E+02</pdfrwt>
<totfact> 0.66333044E+05</totfact>
</mgrwt>
</event>
<event>
 4    1  0.2126213E+000  0.3086874E+02  0.7546771E-02  0.1588680E+00
          4   -1    0    0  501    0  0.00000000000E+00  0.00000000000E+00  0.85340700440E+01  0.85340700440E+01  0.00000000000E+00 0.  1.
         -4   -1    0    0    0  501 -0.00000000000E+00 -0.00000000000E+00 -0.27913966285E+02  0.27913966285E+02  0.00000000000E+00 0. -1.
        -11    1    1    2    0    0 -0.10900776002E+02 -0.90649510762E+01 -0.24864995366E+01  0.14393850611E+02  0.00000000000E+00 0.  1.
         11    1    1    2    0    0  0.10900776002E+02  0.90649510762E+01 -0.16893396704E+02  0.22054185718E+02  0.00000000000E+00 0. -1.
<mgrwt>
<rscale>  0 0.30868738E+02</rscale>
<asrwt>0</asrwt>
<pdfrwt beam="1">  1        4 0.13129339E-02 0.30868738E+02</pdfrwt>
<pdfrwt beam="2">  1       -4 0.42944564E-02 0.30868738E+02</pdfrwt>
<totfact> 0.47597841E+05</totfact>
</mgrwt>
</event>
<event>
 4    1  0.2126213E+000  0.5648339E+02  0.7546771E-02  0.1413211E+00
         -4   -1    0    0    0  501 -0.00000000000E+00  0.00000000000E+00  0.87274890696E+01  0.87274890696E+01  0.00000000000E+00 0. -1.
          4   -1    0    0  501    0  0.00000000000E+00 -0.00000000000E+00 -0.91388624106E+02  0.91388624106E+02  0.00000000000E+00 0.  1.
        -11    1    1    2    0    0 -0.25964145756E+02  0.81796817259E+01 -0.28001605272E+02  0.39052963470E+02  0.00000000000E+00 0.  1.
         11    1    1    2    0    0  0.25964145756E+02 -0.81796817259E+01 -0.54659529764E+02  0.61063149706E+02  0.00000000000E+00 0. -1.
<mgrwt>
<rscale>  0 0.56483386E+02</rscale>
<asrwt>0</asrwt>
<pdfrwt beam="2">  1        4 0.14059788E-01 0.56483386E+02</pdfrwt>
<pdfrwt beam="1">  1       -4 0.13426907E-02 0.56483386E+02</pdfrwt>
<totfact> 0.92415099E+04</totfact>
</mgrwt>
</event>
<event>
 4    1  0.2126213E+000  0.2872905E+02  0.7546771E-02  0.1612578E+00
         -2   -1    0    0    0  501 -0.00000000000E+00  0.00000000000E+00  0.36121437195E+01  0.36121437195E+01  0.00000000000E+00 0. -1.
          2   -1    0    0  501    0  0.00000000000E+00 -0.00000000000E+00 -0.57123863709E+02  0.57123863709E+02  0.00000000000E+00 0.  1.
        -11    1    1    2    0    0 -0.67102926881E+01  0.90849128001E+01 -0.45519700582E+02  0.46899965987E+02  0.00000000000E+00 0.  1.
         11    1    1    2    0    0  0.67102926881E+01 -0.90849128001E+01 -0.79920194072E+01  0.13836041441E+02  0.00000000000E+00 0. -1.
<mgrwt>
<rscale>  0 0.28729052E+02</rscale>
<asrwt>0</asrwt>
<pdfrwt beam="2">  1        2 0.87882869E-02 0.28729052E+02</pdfrwt>
<pdfrwt beam="1">  1       -2 0.55571441E-03 0.28729052E+02</pdfrwt>
<totfact> 0.20608872E+06</totfact>
</mgrwt>
</event>
<event>
 4    1  0.2126213E+000  0.2668501E+02  0.7546771E-02  0.1637916E+00
          2   -1    0    0  501    0  0.00000000000E+00  0.00000000000E+00  0.16727385724E+02  0.16727385724E+02  0.00000000000E+00 0.  1.
         -2   -1    0    0    0  501 -0.00000000000E+00 -0.00000000000E+00 -0.10642575698E+02  0.10642575698E+02  0.00000000000E+00 0. -1.
        -13    1    1    2    0    0  0.70377081017E+01  0.10064602788E+02  0.83913301002E+01  0.14874138142E+02  0.00000000000E+00 0.  1.
         13    1    1    2    0    0 -0.70377081017E+01 -0.10064602788E+02 -0.23065200743E+01  0.12495823281E+02  0.00000000000E+00 0. -1.
<mgrwt>
<rscale>  0 0.26685012E+02</rscale>
<asrwt>0</asrwt>
<pdfrwt beam="1">  1        2 0.25734440E-02 0.26685012E+02</pdfrwt>
<pdfrwt beam="2">  1       -2 0.16373193E-02 0.26685012E+02</pdfrwt>
<totfact> 0.20997797E+06</totfact>
</mgrwt>
</event>
<event>
 4    1  0.2126213E+000  0.2092176E+02  0.7546771E-02  0.1727596E+00
          4   -1    0    0  501    0  0.00000000000E+00  0.00000000000E+00  0.10388751128E+03  0.10388751128E+03  0.00000000000E+00 0.  1.
         -4   -1    0    0    0  501 -0.00000000000E+00 -0.00000000000E+00 -0.10533508283E+01  0.10533508283E+01  0.00000000000E+00 0. -1.
        -13    1    1    2    0    0  0.12204569194E+01 -0.10389095569E+02  0.50992232032E+02  0.52054111744E+02  0.00000000000E+00 0. -1.
         13    1    1    2    0    0 -0.12204569194E+01  0.10389095569E+02  0.51841928416E+02  0.52886750361E+02  0.00000000000E+00 0.  1.
<mgrwt>
<rscale>  0 0.20921759E+02</rscale>
<asrwt>0</asrwt>
<pdfrwt beam="1">  1        4 0.15982686E-01 0.20921759E+02</pdfrwt>
<pdfrwt beam="2">  1       -4 0.16205406E-03 0.20921759E+02</pdfrwt>
<totfact> 0.88252976E+05</totfact>
</mgrwt>
</event>
<event>
 4    1  0.2126213E+000  0.2453793E+02  0.7546771E-02  0.1667729E+00
         -3   -1    0    0    0  501 -0.00000000000E+00  0.00000000000E+00  0.30354748773E+01  0.30354748773E+01  0.00000000000E+00 0.  1.
          3   -1    0    0  501    0  0.00000000000E+00 -0.00000000000E+00 -0.49589460865E+02  0.49589460865E+02  0.00000000000E+00 0. -1.
        -11    1    1    2    0    0 -0.85275767687E+01 -0.85614641487E+01 -0.18722820080E+02  0.22283676215E+02  0.00000000000E+00 0.  1.
         11    1    1    2    0    0  0.85275767687E+01  0.85614641487E+01 -0.27831165908E+02  0.30341259528E+02  0.00000000000E+00 0. -1.
<mgrwt>
<rscale>  0 0.24537935E+02</rscale>
<asrwt>0</asrwt>
<pdfrwt beam="2">  1        3 0.76291478E-02 0.24537935E+02</pdfrwt>
<pdfrwt beam="1">  1       -3 0.46699614E-03 0.24537935E+02</pdfrwt>
<totfact> 0.10263458E+06</totfact>
</mgrwt>
</event>
<event>
 4    1  0.2126213E+000  0.2852233E+02  0.7546771E-02  0.1615021E+00
          2   -1    0    0  501    0  0.00000000000E+00  0.00000000000E+00  0.66483410352E+01  0.66483410352E+01  0.00000000000E+00 0. -1.
         -2   -1    0    0    0  501 -0.00000000000E+00 -0.00000000000E+00 -0.30591209595E+02  0.30591209595E+02  0.00000000000E+00 0.  1.
        -11    1    1    2    0    0  0.14259624508E+02  0.77943295334E-01 -0.11717497811E+02  0.18456508912E+02  0.00000000000E+00 0. -1.
         11    1    1    2    0    0 -0.14259624508E+02 -0.77943295334E-01 -0.12225370749E+02  0.18783041719E+02  0.00000000000E+00 0.  1.
<mgrwt>
<rscale>  0 0.28522328E+02</rscale>
<asrwt>0</asrwt>
<pdfrwt beam="1">  1        2 0.10228217E-02 0.28522328E+02</pdfrwt>
<pdfrwt beam="2">  1       -2 0.47063398E-02 0.28522328E+02</pdfrwt>
<totfact> 0.16290979E+06</totfact>
</mgrwt>
</event>
<event>
 4    1  0.2126213E+000  0.3228986E+02  0.7546771E-02  0.1574074E+00
         -2   -1    0    0    0  501 -0.00000000000E+00  0.00000000000E+00  0.34643446891E+02  0.34643446891E+02  0.00000000000E+00 0. -1.
          2   -1    0    0  501    0  0.00000000000E+00 -0.00000000000E+00 -0.75240401173E+01  0.75240401173E+01  0.00000000000E+00 0.  1.
        -13    1    1    2    0    0 -0.15748832825E+02 -0.14457890977E+01  0.93195031116E+01  0.18356720287E+02  0.00000000000E+00 0.  1.
         13    1    1    2    0    0  0.15748832825E+02  0.14457890977E+01  0.17799903662E+02  0.23810766721E+02  0.00000000000E+00 0. -1.
<mgrwt>
<rscale>  0 0.32289855E+02</rscale>
<asrwt>0</asrwt>
<pdfrwt beam="2">  1        2 0.11575447E-02 0.32289855E+02</pdfrwt>
<pdfrwt beam="1">  1       -2 0.53297610E-02 0.32289855E+02</pdfrwt>
<totfact> 0.12072786E+06</totfact>
</mgrwt>
</event>
<event>
 4    1  0.2126213E+000  0.2485501E+02  0.7546771E-02  0.1663093E+00
         -2   -1    0    0    0  501 -0.00000000000E+00  0.00000000000E+00  0.23246619752E+01  0.23246619752E+01  0.00000000000E+00 0.  1.
          2   -1    0    0  501    0  0.00000000000E+00 -0.00000000000E+00 -0.66436713666E+02  0.66436713666E+02  0.00000000000E+00 0. -1.
        -13    1    1    2    0    0 -0.93299986919E+01 -0.53110447706E+01 -0.49374142069E+02  0.50527833688E+02  0.00000000000E+00 0. -1.
         13    1    1    2    0    0  0.93299986919E+01  0.53110447706E+01 -0.14737909622E+02  0.18233541954E+02  0.00000000000E+00 0.  1.
<mgrwt>
<rscale>  0 0.24855012E+02</rscale>
<asrwt>0</asrwt>
<pdfrwt beam="2">  1        2 0.10221031E-01 0.24855012E+02</pdfrwt>
<pdfrwt beam="1">  1       -2 0.35764038E-03 0.24855012E+02</pdfrwt>
<totfact> 0.29696421E+06</totfact>
</mgrwt>
</event>
<event>
 4    1  0.2126213E+000  0.3193436E+02  0.7546771E-02  0.1577641E+00
          2   -1    0    0  501    0  0.00000000000E+00  0.00000000000E+00  0.10419980471E+02  0.10419980471E+02  0.00000000000E+00 0. -1.
         -2   -1    0    0    0  501 -0.00000000000E+00 -0.00000000000E+00 -0.24467496587E+02  0.24467496587E+02  0.00000000000E+00 0.  1.
        -11    1    1    2    0    0 -0.14822838431E+02  0.36925327591E+01 -0.12101062316E+02  0.19488125782E+02  0.00000000000E+00 0. -1.
         11    1    1    2    0    0  0.14822838431E+02 -0.36925327591E+01 -0.19464537998E+01  0.15399351276E+02  0.00000000000E+00 0.  1.
<mgrwt>
<rscale>  0 0.31934360E+02</rscale>
<asrwt>0</asrwt>
<pdfrwt beam="1">  1        2 0.16030739E-02 0.31934360E+02</pdfrwt>
<pdfrwt beam="2">  1       -2 0.37642303E-02 0.31934360E+02</pdfrwt>
<totfact> 0.12901981E+06</totfact>
</mgrwt>
</event>
<event>
 4    1  0.2126213E+000  0.3439438E+02  0.7546771E-02  0.1554045E+00
          2   -1    0    0  501    0  0.00000000000E+00  0.00000000000E+00  0.25987234221E+01  0.25987234221E+01  0.00000000000E+00 0. -1.
         -2   -1    0    0    0  501 -0.00000000000E+00 -0.00000000000E+00 -0.11380332716E+03  0.11380332716E+03  0.00000000000E+00 0.  1.
        -11    1    1    2    0    0 -0.82624671664E+01 -0.14445479818E+02 -0.70277639284E+02  0.72221096877E+02  0.00000000000E+00 0. -1.
         11    1    1    2    0    0  0.82624671664E+01  0.14445479818E+02 -0.40926964457E+02  0.44180953708E+02  0.00000000000E+00 0.  1.
<mgrwt>
<rscale>  0 0.34394382E+02</rscale>
<asrwt>0</asrwt>
<pdfrwt beam="1">  1        2 0.39980361E-03 0.34394382E+02</pdfrwt>
<pdfrwt beam="2">  1       -2 0.17508204E-01 0.34394382E+02</pdfrwt>
<totfact> 0.83846304E+05</totfact>
</mgrwt>
</event>
<event>
 4    1  0.2126213E+000  0.6868621E+02  0.7546771E-02  0.1364619E+00
         -2   -1    0    0    0  501 -0.00000000000E+00  0.00000000000E+00  0.49333050438E+02  0.49333050438E+02  0.00000000000E+00 0.  1.
          2   -1    0    0  501    0  0.00000000000E+00 -0.00000000000E+00 -0.23907881346E+02  0.23907881346E+02  0.00000000000E+00 0. -1.
        -13    1    1    2    0    0  0.16217397718E+02 -0.29875915702E+02  0.75024317148E+01  0.34811791241E+02  0.00000000000E+00 0. -1.
         13    1    1    2    0    0 -0.16217397718E+02  0.29875915702E+02  0.17922737377E+02  0.38429140543E+02  0.00000000000E+00 0.  1.
<mgrwt>
<rscale>  0 0.68686206E+02</rscale>
<asrwt>0</asrwt>
<pdfrwt beam="2">  1        2 0.36781356E-02 0.68686206E+02</pdfrwt>
<pdfrwt beam="1">  1       -2 0.75897000E-02 0.68686206E+02</pdfrwt>
<totfact> 0.19030395E+05</totfact>
</mgrwt>
</event>
<event>
 4    1  0.2126213E+000  0.3071650E+02  0.7546771E-02  0.1590301E+00
         -2   -1    0    0    0  501 -0.00000000000E+00  0.00000000000E+00  0.29370793040E+01  0.29370793040E+01  0.00000000000E+00 0. -1.
          2   -1    0    0  501    0  0.00000000000E+00 -0.00000000000E+00 -0.80309648967E+02  0.80309648967E+02  0.00000000000E+00 0.  1.
        -11    1    1    2    0    0 -0.10135823510E+01  0.13554378870E+02 -0.19307712022E+02  0.23612206150E+02  0.00000000000E+00 0.  1.
         11    1    1    2    0    0  0.10135823510E+01 -0.13554378870E+02 -0.58064857641E+02  0.59634522121E+02  0.00000000000E+00 0. -1.
<mgrwt>
<rscale>  0 0.30716498E+02</rscale>
<asrwt>0</asrwt>
<pdfrwt beam="2">  1        2 0.12355331E-01 0.30716498E+02</pdfrwt>
<pdfrwt beam="1">  1       -2 0.45185833E-03 0.30716498E+02</pdfrwt>
<totfact> 0.18796142E+06</totfact>
</mgrwt>
</event>
<event>
 4    1  0.2126213E+000  0.2094092E+02  0.7546771E-02  0.1727239E+00
          2   -1    0    0  501    0  0.00000000000E+00  0.00000000000E+00  0.48271561789E+02  0.48271561789E+02  0.00000000000E+00 0. -1.
         -2   -1    0    0    0  501 -0.00000000000E+00 -0.00000000000E+00 -0.22711212647E+01  0.22711212647E+01  0.00000000000E+00 0.  1.
        -13    1    1    2    0    0 -0.60853318993E+01  0.81242362250E+01  0.29198994347E+02  0.30913035268E+02  0.00000000000E+00 0.  1.
         13    1    1    2    0    0  0.60853318993E+01 -0.81242362250E+01  0.16801446177E+02  0.19629647786E+02  0.00000000000E+00 0. -1.
<mgrwt>
<rscale>  0 0.20940924E+02</rscale>
<asrwt>0</asrwt>
<pdfrwt beam="1">  1        2 0.74263934E-02 0.20940924E+02</pdfrwt>
<pdfrwt beam="2">  1       -2 0.34940331E-03 0.20940924E+02</pdfrwt>
<totfact> 0.41577521E+06</totfact>
</mgrwt>
</event>
<event>
 4    1  0.2126213E+000  0.2886047E+02  0.7546771E-02  0.1611037E+00
          4   -1    0    0  501    0  0.00000000000E+00  0.00000000000E+00  0.67811387176E+02  0.67811387176E+02  0.00000000000E+00 0.  1.
         -4   -1    0    0    0  501 -0.00000000000E+00 -0.00000000000E+00 -0.30707490036E+01  0.30707490036E+01  0.00000000000E+00 0. -1.
        -13    1    1    2    0    0  0.13765070084E+02 -0.56364460474E+00  0.21824573812E+02  0.25809046316E+02  0.00000000000E+00 0.  1.
         13    1    1    2    0    0 -0.13765070084E+02  0.56364460474E+00  0.42916064360E+02  0.45073089863E+02  0.00000000000E+00 0. -1.
<mgrwt>
<rscale>  0 0.28860475E+02</rscale>
<asrwt>0</asrwt>
<pdfrwt beam="1">  1        4 0.10432520E-01 0.28860475E+02</pdfrwt>
<pdfrwt beam="2">  1       -4 0.47242298E-03 0.28860475E+02</pdfrwt>
<totfact> 0.49313632E+05</totfact>
</mgrwt>
</event>
<event>
 4    1  0.2126213E+000  0.6605213E+02  0.7546771E-02  0.1374057E+00
          2   -1    0    0  501    0  0.00000000000E+00  0.00000000000E+00  0.32106928902E+02  0.32106928902E+02  0.00000000000E+00 0.  1.
         -2   -1    0    0    0  501 -0.00000000000E+00 -0.00000000000E+00 -0.33971515461E+02  0.33971515461E+02  0.00000000000E+00 0. -1.
        -13    1    1    2    0    0 -0.17298285718E+02  0.20393324302E+02  0.18455898382E+02  0.32492130586E+02  0.00000000000E+00 0.  1.
         13    1    1    2    0    0  0.17298285718E+02 -0.20393324302E+02 -0.20320484942E+02  0.33586313778E+02  0.00000000000E+00 0. -1.
<mgrwt>
<rscale>  0 0.66052132E+02</rscale>
<asrwt>0</asrwt>
<pdfrwt beam="1">  1        2 0.49395275E-02 0.66052132E+02</pdfrwt>
<pdfrwt beam="2">  1       -2 0.52263870E-02 0.66052132E+02</pdfrwt>
<totfact> 0.22523195E+05</totfact>
</mgrwt>
</event>
<event>
 4    1  0.2126213E+000  0.2729463E+02  0.7546771E-02  0.1630075E+00
         -2   -1    0    0    0  501 -0.00000000000E+00  0.00000000000E+00  0.76282987968E+02  0.76282987968E+02  0.00000000000E+00 0. -1.
          2   -1    0    0  501    0  0.00000000000E+00 -0.00000000000E+00 -0.24415561680E+01  0.24415561680E+01  0.00000000000E+00 0.  1.
        -13    1    1    2    0    0  0.34528504182E+01 -0.11269765847E+02  0.17080217723E+02  0.20752436863E+02  0.00000000000E+00 0.  1.
         13    1    1    2    0    0 -0.34528504182E+01  0.11269765847E+02  0.56761214076E+02  0.57972107273E+02  0.00000000000E+00 0. -1.
<mgrwt>
<rscale>  0 0.27294629E+02</rscale>
<asrwt>0</asrwt>
<pdfrwt beam="2">  1        2 0.37562408E-03 0.27294629E+02</pdfrwt>
<pdfrwt beam="1">  1       -2 0.11735842E-01 0.27294629E+02</pdfrwt>
<totfact> 0.15734530E+06</totfact>
</mgrwt>
</event>
<event>
 4    1  0.2126213E+000  0.5209126E+02  0.7546771E-02  0.1434378E+00
         -2   -1    0    0    0  501 -0.00000000000E+00  0.00000000000E+00  0.72085964837E+01  0.72085964837E+01  0.00000000000E+00 0. -1.
          2   -1    0    0  501    0  0.00000000000E+00 -0.00000000000E+00 -0.94106377034E+02  0.94106377034E+02  0.00000000000E+00 0.  1.
        -13    1    1    2    0    0  0.15095468466E+01  0.25988444575E+02 -0.45072564171E+02  0.52050110702E+02  0.00000000000E+00 0.  1.
         13    1    1    2    0    0 -0.15095468466E+01 -0.25988444575E+02 -0.41825216379E+02  0.49264862816E+02  0.00000000000E+00 0. -1.
<mgrwt>
<rscale>  0 0.52091262E+02</rscale>
<asrwt>0</asrwt>
<pdfrwt beam="2">  1        2 0.14477904E-01 0.52091262E+02</pdfrwt>
<pdfrwt beam="1">  1       -2 0.11090149E-02 0.52091262E+02</pdfrwt>
<totfact> 0.53118613E+05</totfact>
</mgrwt>
</event>
<event>
 4    1  0.2126213E+000  0.3420205E+02  0.7546771E-02  0.1555803E+00
          2   -1    0    0  501    0  0.00000000000E+00  0.00000000000E+00  0.81116682953E+01  0.81116682953E+01  0.00000000000E+00 0. -1.
         -2   -1    0    0    0  501 -0.00000000000E+00 -0.00000000000E+00 -0.36052394189E+02  0.36052394189E+02  0.00000000000E+00 0.  1.
        -11    1    1    2    0    0 -0.15859717354E+02  0.49241542823E+01 -0.19242022105E+02  0.25417186010E+02  0.00000000000E+00 0.  1.
         11    1    1    2    0    0  0.15859717354E+02 -0.49241542823E+01 -0.86987037889E+01  0.18746876475E+02  0.00000000000E+00 0. -1.
<mgrwt>
<rscale>  0 0.34202050E+02</rscale>
<asrwt>0</asrwt>
<pdfrwt beam="1">  1        2 0.12479490E-02 0.34202050E+02</pdfrwt>
<pdfrwt beam="2">  1       -2 0.55465221E-02 0.34202050E+02</pdfrwt>
<totfact> 0.10512644E+06</totfact>
</mgrwt>
</event>
<event>
 4    1  0.2126213E+000  0.3521524E+02  0.7546771E-02  0.1546697E+00
         -2   -1    0    0    0  501 -0.00000000000E+00  0.00000000000E+00  0.63417312307E+01  0.63417312307E+01  0.00000000000E+00 0. -1.
          2   -1    0    0  501    0  0.00000000000E+00 -0.00000000000E+00 -0.48887019510E+02  0.48887019510E+02  0.00000000000E+00 0.  1.
        -11    1    1    2    0    0  0.53165545473E+01 -0.16377784987E+02 -0.27041575657E+02  0.32058452978E+02  0.00000000000E+00 0. -1.
         11    1    1    2    0    0 -0.53165545473E+01  0.16377784987E+02 -0.15503712622E+02  0.23170297763E+02  0.00000000000E+00 0.  1.
<mgrwt>
<rscale>  0 0.35215243E+02</rscale>
<asrwt>0</asrwt>
<pdfrwt beam="2">  1        2 0.75210801E-02 0.35215243E+02</pdfrwt>
<pdfrwt beam="1">  1       -2 0.97565094E-03 0.35215243E+02</pdfrwt>
<totfact> 0.12305832E+06</totfact>
</mgrwt>
</event>
<event>
 4    1  0.2126213E+000  0.2183609E+02  0.7546771E-02  0.1711102E+00
          2   -1    0    0  501    0  0.00000000000E+00  0.00000000000E+00  0.20582484340E+02  0.20582484340E+02  0.00000000000E+00 0.  1.
         -2   -1    0    0    0  501 -0.00000000000E+00 -0.00000000000E+00 -0.57915140712E+01  0.57915140712E+01  0.00000000000E+00 0. -1.
        -13    1    1    2    0    0  0.71200615888E+01 -0.82645618366E+01  0.68479719628E+01  0.12879944852E+02  0.00000000000E+00 0.  1.
         13    1    1    2    0    0 -0.71200615888E+01  0.82645618366E+01  0.79429983064E+01  0.13494053560E+02  0.00000000000E+00 0. -1.
<mgrwt>
<rscale>  0 0.21836094E+02</rscale>
<asrwt>0</asrwt>
<pdfrwt beam="1">  1        2 0.31665360E-02 0.21836094E+02</pdfrwt>
<pdfrwt beam="2">  1       -2 0.89100217E-03 0.21836094E+02</pdfrwt>
<totfact> 0.34218413E+06</totfact>
</mgrwt>
</event>
<event>
 4    1  0.2126213E+000  0.5683732E+02  0.7546771E-02  0.1411605E+00
          1   -1    0    0  501    0  0.00000000000E+00  0.00000000000E+00  0.27429874206E+02  0.27429874206E+02  0.00000000000E+00 0. -1.
         -1   -1    0    0    0  501 -0.00000000000E+00 -0.00000000000E+00 -0.29443094489E+02  0.29443094489E+02  0.00000000000E+00 0.  1.
        -13    1    1    2    0    0  0.23528099244E+02  0.11252049331E+01  0.14902506320E+02  0.27873324789E+02  0.00000000000E+00 0. -1.
         13    1    1    2    0    0 -0.23528099244E+02 -0.11252049331E+01 -0.16915726602E+02  0.28999643906E+02  0.00000000000E+00 0.  1.
<mgrwt>
<rscale>  0 0.56837325E+02</rscale>
<asrwt>0</asrwt>
<pdfrwt beam="1">  1        1 0.42199807E-02 0.56837325E+02</pdfrwt>
<pdfrwt beam="2">  1       -1 0.45297068E-02 0.56837325E+02</pdfrwt>
<totfact> 0.31515039E+05</totfact>
</mgrwt>
</event>
<event>
 4    1  0.2126213E+000  0.9393654E+02  0.7546771E-02  0.1293589E+00
         -2   -1    0    0    0  501 -0.00000000000E+00  0.00000000000E+00  0.28227538222E+02  0.28227538222E+02  0.00000000000E+00 0. -1.
          2   -1    0    0  501    0  0.00000000000E+00 -0.00000000000E+00 -0.78151290945E+02  0.78151290945E+02  0.00000000000E+00 0.  1.
        -13    1    1    2    0    0  0.83901798495E+01 -0.32347054479E+02 -0.62337864882E+02  0.70730025091E+02  0.00000000000E+00 0.  1.
         13    1    1    2    0    0 -0.83901798495E+01  0.32347054479E+02  0.12414112159E+02  0.35648804076E+02  0.00000000000E+00 0. -1.
<mgrwt>
<rscale>  0 0.93936544E+02</rscale>
<asrwt>0</asrwt>
<pdfrwt beam="2">  1        2 0.12023275E-01 0.93936544E+02</pdfrwt>
<pdfrwt beam="1">  1       -2 0.43426982E-02 0.93936544E+02</pdfrwt>
<totfact> 0.10497956E+05</totfact>
</mgrwt>
</event>
<event>
 4    1  0.2126213E+000  0.3616432E+02  0.7546771E-02  0.1538498E+00
          2   -1    0    0  501    0  0.00000000000E+00  0.00000000000E+00  0.15517640288E+02  0.15517640288E+02  0.00000000000E+00 0.  1.
         -2   -1    0    0    0  501 -0.00000000000E+00 -0.00000000000E+00 -0.21070503616E+02  0.21070503616E+02  0.00000000000E+00 0. -1.
        -13    1    1    2    0    0 -0.15712393001E+02  0.81546926379E+01  0.95271038009E+00  0.17728112221E+02  0.00000000000E+00 0.  1.
         13    1    1    2    0    0  0.15712393001E+02 -0.81546926379E+01 -0.65055737083E+01  0.18860031684E+02  0.00000000000E+00 0. -1.
<mgrwt>
<rscale>  0 0.36164319E+02</rscale>
<asrwt>0</asrwt>
<pdfrwt beam="1">  1        2 0.23873293E-02 0.36164319E+02</pdfrwt>
<pdfrwt beam="2">  1       -2 0.32416159E-02 0.36164319E+02</pdfrwt>
<totfact> 0.98706538E+05</totfact>
</mgrwt>
</event>
<event>
 4    1  0.2126213E+000  0.3821576E+02  0.7546771E-02  0.1521768E+00
          3   -1    0    0  501    0  0.00000000000E+00  0.00000000000E+00  0.86670655437E+02  0.86670655437E+02  0.00000000000E+00 0. -1.
         -3   -1    0    0    0  501 -0.00000000000E+00 -0.00000000000E+00 -0.42126267212E+01  0.42126267212E+01  0.00000000000E+00 0.  1.
        -11    1    1    2    0    0 -0.17220708342E+02  0.70014101830E+01  0.30716951198E+02  0.35904089339E+02  0.00000000000E+00 0.  1.
         11    1    1    2    0    0  0.17220708342E+02 -0.70014101830E+01  0.51741077518E+02  0.54979192819E+02  0.00000000000E+00 0. -1.
<mgrwt>
<rscale>  0 0.38215762E+02</rscale>
<asrwt>0</asrwt>
<pdfrwt beam="1">  1        3 0.13333946E-01 0.38215762E+02</pdfrwt>
<pdfrwt beam="2">  1       -3 0.64809648E-03 0.38215762E+02</pdfrwt>
<totfact> 0.33055982E+05</totfact>
</mgrwt>
</event>
<event>
 4    1  0.2126213E+000  0.4646798E+02  0.7546771E-02  0.1465380E+00
          2   -1    0    0  501    0  0.00000000000E+00  0.00000000000E+00  0.10217586108E+02  0.10217586108E+02  0.00000000000E+00 0. -1.
         -2   -1    0    0    0  501 -0.00000000000E+00 -0.00000000000E+00 -0.52832280618E+02  0.52832280618E+02  0.00000000000E+00 0.  1.
        -11    1    1    2    0    0 -0.19196270576E+02 -0.10779499249E+02 -0.31381315613E+02  0.38333815068E+02  0.00000000000E+00 0.  1.
         11    1    1    2    0    0  0.19196270576E+02  0.10779499249E+02 -0.11233378898E+02  0.24716051658E+02  0.00000000000E+00 0. -1.
<mgrwt>
<rscale>  0 0.46467984E+02</rscale>
<asrwt>0</asrwt>
<pdfrwt beam="1">  1        2 0.15719363E-02 0.46467984E+02</pdfrwt>
<pdfrwt beam="2">  1       -2 0.81280431E-02 0.46467984E+02</pdfrwt>
<totfact> 0.48132984E+05</totfact>
</mgrwt>
</event>
<event>
 4    1  0.2126213E+000  0.3319704E+02  0.7546771E-02  0.1565220E+00
         -4   -1    0    0    0  501 -0.00000000000E+00  0.00000000000E+00  0.12087442970E+02  0.12087442970E+02  0.00000000000E+00 0. -1.
          4   -1    0    0  501    0  0.00000000000E+00 -0.00000000000E+00 -0.22793149817E+02  0.22793149817E+02  0.00000000000E+00 0.  1.
        -13    1    1    2    0    0 -0.63994684901E+01 -0.13726180673E+02 -0.12490725322E+02  0.19631083819E+02  0.00000000000E+00 0.  1.
         13    1    1    2    0    0  0.63994684901E+01  0.13726180673E+02  0.17850184756E+01  0.15249508968E+02  0.00000000000E+00 0. -1.
<mgrwt>
<rscale>  0 0.33197042E+02</rscale>
<asrwt>0</asrwt>
<pdfrwt beam="2">  1        4 0.35066384E-02 0.33197042E+02</pdfrwt>
<pdfrwt beam="1">  1       -4 0.18596066E-02 0.33197042E+02</pdfrwt>
<totfact> 0.40525484E+05</totfact>
</mgrwt>
</event>
<event>
 4    1  0.2126213E+000  0.7047082E+02  0.7546771E-02  0.1358499E+00
          2   -1    0    0  501    0  0.00000000000E+00  0.00000000000E+00  0.31229901474E+02  0.31229901474E+02  0.00000000000E+00 0.  1.
         -2   -1    0    0    0  501 -0.00000000000E+00 -0.00000000000E+00 -0.39754662877E+02  0.39754662877E+02  0.00000000000E+00 0. -1.
        -13    1    1    2    0    0 -0.34509955481E+02  0.25180690723E+01 -0.10963435066E+02  0.36297033041E+02  0.00000000000E+00 0.  1.
         13    1    1    2    0    0  0.34509955481E+02 -0.25180690723E+01  0.24386736627E+01  0.34687531310E+02  0.00000000000E+00 0. -1.
<mgrwt>
<rscale>  0 0.70470822E+02</rscale>
<asrwt>0</asrwt>
<pdfrwt beam="1">  1        2 0.48046002E-02 0.70470822E+02</pdfrwt>
<pdfrwt beam="2">  1       -2 0.61161020E-02 0.70470822E+02</pdfrwt>
<totfact> 0.18721735E+05</totfact>
</mgrwt>
</event>
<event>
 4    1  0.2126213E+000  0.6361700E+02  0.7546771E-02  0.1383251E+00
         -2   -1    0    0    0  501 -0.00000000000E+00  0.00000000000E+00  0.83804713464E+01  0.83804713464E+01  0.00000000000E+00 0. -1.
          2   -1    0    0  501    0  0.00000000000E+00 -0.00000000000E+00 -0.12073076093E+03  0.12073076093E+03  0.00000000000E+00 0.  1.
        -13    1    1    2    0    0 -0.18409699548E+02 -0.10381343653E+02 -0.10441990678E+03  0.10653734681E+03  0.00000000000E+00 0.  1.
         13    1    1    2    0    0  0.18409699548E+02  0.10381343653E+02 -0.79303827993E+01  0.22573885462E+02  0.00000000000E+00 0. -1.
<mgrwt>
<rscale>  0 0.63617000E+02</rscale>
<asrwt>0</asrwt>
<pdfrwt beam="2">  1        2 0.18573964E-01 0.63617000E+02</pdfrwt>
<pdfrwt beam="1">  1       -2 0.12893033E-02 0.63617000E+02</pdfrwt>
<totfact> 0.33980251E+05</totfact>
</mgrwt>
</event>
<event>
 4    1  0.2126213E+000  0.2792086E+02  0.7546771E-02  0.1622277E+00
         -3   -1    0    0    0  501 -0.00000000000E+00  0.00000000000E+00  0.65772048068E+01  0.65772048068E+01  0.00000000000E+00 0. -1.
          3   -1    0    0  501    0  0.00000000000E+00 -0.00000000000E+00 -0.29631683545E+02  0.29631683545E+02  0.00000000000E+00 0.  1.
        -13    1    1    2    0    0  0.96385929252E+01 -0.10092184194E+02 -0.12010729489E+02  0.18412286068E+02  0.00000000000E+00 0.  1.
         13    1    1    2    0    0 -0.96385929252E+01  0.10092184194E+02 -0.11043749249E+02  0.17796602284E+02  0.00000000000E+00 0. -1.
<mgrwt>
<rscale>  0 0.27920863E+02</rscale>
<asrwt>0</asrwt>
<pdfrwt beam="2">  1        3 0.45587206E-02 0.27920863E+02</pdfrwt>
<pdfrwt beam="1">  1       -3 0.10118777E-02 0.27920863E+02</pdfrwt>
<totfact> 0.80412310E+05</totfact>
</mgrwt>
</event>
<event>
 4    1  0.2126213E+000  0.2021124E+02  0.7546771E-02  0.1741160E+00
          1   -1    0    0  501    0  0.00000000000E+00  0.00000000000E+00  0.47489382375E+01  0.47489382375E+01  0.00000000000E+00 0.  1.
         -1   -1    0    0    0  501 -0.00000000000E+00 -0.00000000000E+00 -0.21504511672E+02  0.21504511672E+02  0.00000000000E+00 0. -1.
        -11    1    1    2    0    0 -0.92190327030E+01  0.40749050179E+01 -0.74337573800E+01  0.12524223076E+02  0.00000000000E+00 0.  1.
         11    1    1    2    0    0  0.92190327030E+01 -0.40749050179E+01 -0.93218160547E+01  0.13729226833E+02  0.00000000000E+00 0. -1.
<mgrwt>
<rscale>  0 0.20211244E+02</rscale>
<asrwt>0</asrwt>
<pdfrwt beam="1">  1        1 0.73060588E-03 0.20211244E+02</pdfrwt>
<pdfrwt beam="2">  1       -1 0.33083864E-02 0.20211244E+02</pdfrwt>
<totfact> 0.36414797E+06</totfact>
</mgrwt>
</event>
<event>
 4    1  0.2126213E+000  0.2698533E+02  0.7546771E-02  0.1634021E+00
         -2   -1    0    0    0  501 -0.00000000000E+00  0.00000000000E+00  0.22749322597E+02  0.22749322597E+02  0.00000000000E+00 0.  1.
          2   -1    0    0  501    0  0.00000000000E+00 -0.00000000000E+00 -0.80025249896E+01  0.80025249896E+01  0.00000000000E+00 0. -1.
        -11    1    1    2    0    0  0.99219100903E+01 -0.39669987029E+01  0.16761644543E+02  0.19877980439E+02  0.00000000000E+00 0.  1.
         11    1    1    2    0    0 -0.99219100903E+01  0.39669987029E+01 -0.20148469364E+01  0.10873867147E+02  0.00000000000E+00 0. -1.
<mgrwt>
<rscale>  0 0.26985331E+02</rscale>
<asrwt>0</asrwt>
<pdfrwt beam="2">  1        2 0.12311577E-02 0.26985331E+02</pdfrwt>
<pdfrwt beam="1">  1       -2 0.34998958E-02 0.26985331E+02</pdfrwt>
<totfact> 0.19058537E+06</totfact>
</mgrwt>
</event>
<event>
 4    1  0.2126213E+000  0.2808627E+02  0.7546771E-02  0.1620260E+00
          2   -1    0    0  501    0  0.00000000000E+00  0.00000000000E+00  0.69132369092E+01  0.69132369092E+01  0.00000000000E+00 0. -1.
         -2   -1    0    0    0  501 -0.00000000000E+00 -0.00000000000E+00 -0.28526376862E+02  0.28526376862E+02  0.00000000000E+00 0.  1.
        -13    1    1    2    0    0 -0.77040675463E+01  0.11263080168E+02 -0.14991524112E+02  0.20272035587E+02  0.00000000000E+00 0. -1.
         13    1    1    2    0    0  0.77040675463E+01 -0.11263080168E+02 -0.66216158402E+01  0.15167578184E+02  0.00000000000E+00 0.  1.
<mgrwt>
<rscale>  0 0.28086267E+02</rscale>
<asrwt>0</asrwt>
<pdfrwt beam="1">  1        2 0.10635749E-02 0.28086267E+02</pdfrwt>
<pdfrwt beam="2">  1       -2 0.43886734E-02 0.28086267E+02</pdfrwt>
<totfact> 0.17003973E+06</totfact>
</mgrwt>
</event>
<event>
 4    1  0.2126213E+000  0.3043402E+02  0.7546771E-02  0.1593340E+00
          2   -1    0    0  501    0  0.00000000000E+00  0.00000000000E+00  0.37027809340E+01  0.37027809340E+01  0.00000000000E+00 0.  1.
         -2   -1    0    0    0  501 -0.00000000000E+00 -0.00000000000E+00 -0.62536070253E+02  0.62536070253E+02  0.00000000000E+00 0. -1.
        -11    1    1    2    0    0 -0.22864764128E+01  0.12106041328E+02 -0.48856001164E+02  0.50385444930E+02  0.00000000000E+00 0. -1.
         11    1    1    2    0    0  0.22864764128E+01 -0.12106041328E+02 -0.99772881546E+01  0.15853406257E+02  0.00000000000E+00 0.  1.
<mgrwt>
<rscale>  0 0.30434018E+02</rscale>
<asrwt>0</asrwt>
<pdfrwt beam="1">  1        2 0.56965860E-03 0.30434018E+02</pdfrwt>
<pdfrwt beam="2">  1       -2 0.96209340E-02 0.30434018E+02</pdfrwt>
<totfact> 0.12703051E+06</totfact>
</mgrwt>
</event>
<event>
 4    1  0.2126213E+000  0.2912812E+02  0.7546771E-02  0.1607931E+00
          4   -1    0    0  501    0  0.00000000000E+00  0.00000000000E+00  0.44135539946E+02  0.44135539946E+02  0.00000000000E+00 0.  1.
         -4   -1    0    0    0  501 -0.00000000000E+00 -0.00000000000E+00 -0.48059196678E+01  0.48059196678E+01  0.00000000000E+00 0. -1.
        -11    1    1    2    0    0  0.92305031331E+01  0.97219393123E+01  0.29227803080E+02  0.32155602389E+02  0.00000000000E+00 0.  1.
         11    1    1    2    0    0 -0.92305031331E+01 -0.97219393123E+01  0.10101817198E+02  0.16785857225E+02  0.00000000000E+00 0. -1.
<mgrwt>
<rscale>  0 0.29128121E+02</rscale>
<asrwt>0</asrwt>
<pdfrwt beam="1">  1        4 0.67900828E-02 0.29128121E+02</pdfrwt>
<pdfrwt beam="2">  1       -4 0.73937229E-03 0.29128121E+02</pdfrwt>
<totfact> 0.51897424E+05</totfact>
</mgrwt>
</event>
<event>
 4    1  0.2126213E+000  0.2412217E+02  0.7546771E-02  0.1673940E+00
         -2   -1    0    0    0  501 -0.00000000000E+00  0.00000000000E+00  0.15172032984E+01  0.15172032984E+01  0.00000000000E+00 0. -1.
          2   -1    0    0  501    0  0.00000000000E+00 -0.00000000000E+00 -0.95880192711E+02  0.95880192711E+02  0.00000000000E+00 0.  1.
        -11    1    1    2    0    0  0.56061138807E+01  0.99359969763E+01 -0.62983807173E+02  0.64008690932E+02  0.00000000000E+00 0.  1.
         11    1    1    2    0    0 -0.56061138807E+01 -0.99359969763E+01 -0.31379182240E+02  0.33388705078E+02  0.00000000000E+00 0. -1.
<mgrwt>
<rscale>  0 0.24122168E+02</rscale>
<asrwt>0</asrwt>
<pdfrwt beam="2">  1        2 0.14750803E-01 0.24122168E+02</pdfrwt>
<pdfrwt beam="1">  1       -2 0.23341583E-03 0.24122168E+02</pdfrwt>
<totfact> 0.34317421E+06</totfact>
</mgrwt>
</event>
<event>
 4    1  0.2126213E+000  0.3975545E+02  0.7546771E-02  0.1510019E+00
          2   -1    0    0  501    0  0.00000000000E+00  0.00000000000E+00  0.47899404608E+02  0.47899404608E+02  0.00000000000E+00 0. -1.
         -2   -1    0    0    0  501 -0.00000000000E+00 -0.00000000000E+00 -0.82490368378E+01  0.82490368378E+01  0.00000000000E+00 0.  1.
        -11    1    1    2    0    0 -0.14228314927E+01  0.17120165088E+02  0.57017650373E+01  0.18100680281E+02  0.00000000000E+00 0.  1.
         11    1    1    2    0    0  0.14228314927E+01 -0.17120165088E+02  0.33948602733E+02  0.38047761164E+02  0.00000000000E+00 0. -1.
<mgrwt>
<rscale>  0 0.39755450E+02</rscale>
<asrwt>0</asrwt>
<pdfrwt beam="1">  1        2 0.73691390E-02 0.39755450E+02</pdfrwt>
<pdfrwt beam="2">  1       -2 0.12690826E-02 0.39755450E+02</pdfrwt>
<totfact> 0.90930600E+05</totfact>
</mgrwt>
</event>
<event>
 4    1  0.2126213E+000  0.6683511E+02  0.7546771E-02  0.1371199E+00
          2   -1    0    0  501    0  0.00000000000E+00  0.00000000000E+00  0.18899524587E+03  0.18899524587E+03  0.00000000000E+00 0.  1.
         -2   -1    0    0    0  501 -0.00000000000E+00 -0.00000000000E+00 -0.59087878662E+01  0.59087878662E+01  0.00000000000E+00 0. -1.
        -11    1    1    2    0    0 -0.84684276270E+01 -0.31762744010E+02  0.74010473682E+02  0.80982321454E+02  0.00000000000E+00 0. -1.
         11    1    1    2    0    0  0.84684276270E+01  0.31762744010E+02  0.10907598433E+03  0.11392171229E+03  0.00000000000E+00 0.  1.
<mgrwt>
<rscale>  0 0.66835105E+02</rscale>
<asrwt>0</asrwt>
<pdfrwt beam="1">  1        2 0.29076187E-01 0.66835105E+02</pdfrwt>
<pdfrwt beam="2">  1       -2 0.90904443E-03 0.66835105E+02</pdfrwt>
<totfact> 0.34463940E+05</totfact>
</mgrwt>
</event>
<event>
 4    1  0.2126213E+000  0.2281017E+02  0.7546771E-02  0.1694606E+00
         -4   -1    0    0    0  501 -0.00000000000E+00  0.00000000000E+00  0.21118142589E+01  0.21118142589E+01  0.00000000000E+00 0.  1.
          4   -1    0    0  501    0  0.00000000000E+00 -0.00000000000E+00 -0.61594395317E+02  0.61594395317E+02  0.00000000000E+00 0. -1.
        -11    1    1    2    0    0  0.61942274329E+00 -0.10581863267E+02 -0.41496791582E+02  0.42829233315E+02  0.00000000000E+00 0.  1.
         11    1    1    2    0    0 -0.61942274329E+00  0.10581863267E+02 -0.17985789476E+02  0.20876976261E+02  0.00000000000E+00 0. -1.
<mgrwt>
<rscale>  0 0.22810166E+02</rscale>
<asrwt>0</asrwt>
<pdfrwt beam="2">  1        4 0.94760611E-02 0.22810166E+02</pdfrwt>
<pdfrwt beam="1">  1       -4 0.32489449E-03 0.22810166E+02</pdfrwt>
<totfact> 0.83796550E+05</totfact>
</mgrwt>
</event>
<event>
 4    1  0.2126213E+000  0.2884833E+02  0.7546771E-02  0.1611179E+00
          2   -1    0    0  501    0  0.00000000000E+00  0.00000000000E+00  0.28185413971E+01  0.28185413971E+01  0.00000000000E+00 0. -1.
         -2   -1    0    0    0  501 -0.00000000000E+00 -0.00000000000E+00 -0.73817076468E+02  0.73817076468E+02  0.00000000000E+00 0.  1.
        -13    1    1    2    0    0 -0.11001931986E+02  0.10799354302E+01 -0.60112826557E+02  0.61120869469E+02  0.00000000000E+00 0.  1.
         13    1    1    2    0    0  0.11001931986E+02 -0.10799354302E+01 -0.10885708514E+02  0.15514748396E+02  0.00000000000E+00 0. -1.
<mgrwt>
<rscale>  0 0.28848327E+02</rscale>
<asrwt>0</asrwt>
<pdfrwt beam="1">  1        2 0.43362172E-03 0.28848327E+02</pdfrwt>
<pdfrwt beam="2">  1       -2 0.11356474E-01 0.28848327E+02</pdfrwt>
<totfact> 0.13946015E+06</totfact>
</mgrwt>
</event>
<event>
 4    1  0.2126213E+000  0.5517137E+02  0.7546771E-02  0.1419290E+00
         -2   -1    0    0    0  501 -0.00000000000E+00  0.00000000000E+00  0.41491700792E+02  0.41491700792E+02  0.00000000000E+00 0. -1.
          2   -1    0    0  501    0  0.00000000000E+00 -0.00000000000E+00 -0.18340297161E+02  0.18340297161E+02  0.00000000000E+00 0.  1.
        -13    1    1    2    0    0  0.15923753167E+02  0.68625075969E+01 -0.11691545422E+02  0.20912966308E+02  0.00000000000E+00 0.  1.
         13    1    1    2    0    0 -0.15923753167E+02 -0.68625075969E+01  0.34842949053E+02  0.38919031645E+02  0.00000000000E+00 0. -1.
<mgrwt>
<rscale>  0 0.55171374E+02</rscale>
<asrwt>0</asrwt>
<pdfrwt beam="2">  1        2 0.28215842E-02 0.55171374E+02</pdfrwt>
<pdfrwt beam="1">  1       -2 0.63833386E-02 0.55171374E+02</pdfrwt>
<totfact> 0.33270204E+05</totfact>
</mgrwt>
</event>
<event>
 4    1  0.2126213E+000  0.6280105E+02  0.7546771E-02  0.1386439E+00
         -3   -1    0    0    0  501 -0.00000000000E+00  0.00000000000E+00  0.46100730510E+02  0.46100730510E+02  0.00000000000E+00 0.  1.
          3   -1    0    0  501    0  0.00000000000E+00 -0.00000000000E+00 -0.21387797202E+02  0.21387797202E+02  0.00000000000E+00 0. -1.
        -13    1    1    2    0    0 -0.25125389390E+02  0.12596438683E+02 -0.26899377976E+01  0.28234574990E+02  0.00000000000E+00 0. -1.
         13    1    1    2    0    0  0.25125389390E+02 -0.12596438683E+02  0.27402871105E+02  0.39253952722E+02  0.00000000000E+00 0.  1.
<mgrwt>
<rscale>  0 0.62801053E+02</rscale>
<asrwt>0</asrwt>
<pdfrwt beam="2">  1        3 0.32904303E-02 0.62801053E+02</pdfrwt>
<pdfrwt beam="1">  1       -3 0.70924201E-02 0.62801053E+02</pdfrwt>
<totfact> 0.10076002E+05</totfact>
</mgrwt>
</event>
<event>
 4    1  0.2126213E+000  0.2169778E+02  0.7546771E-02  0.1713532E+00
          2   -1    0    0  501    0  0.00000000000E+00  0.00000000000E+00  0.27172642986E+01  0.27172642986E+01  0.00000000000E+00 0.  1.
         -2   -1    0    0    0  501 -0.00000000000E+00 -0.00000000000E+00 -0.43315041019E+02  0.43315041019E+02  0.00000000000E+00 0. -1.
        -13    1    1    2    0    0 -0.10840179020E+02 -0.21449265343E+00 -0.19496834629E+02  0.22308788601E+02  0.00000000000E+00 0.  1.
         13    1    1    2    0    0  0.10840179020E+02  0.21449265343E+00 -0.21100942091E+02  0.23723516716E+02  0.00000000000E+00 0. -1.
<mgrwt>
<rscale>  0 0.21697780E+02</rscale>
<asrwt>0</asrwt>
<pdfrwt beam="1">  1        2 0.41804069E-03 0.21697780E+02</pdfrwt>
<pdfrwt beam="2">  1       -2 0.66638520E-02 0.21697780E+02</pdfrwt>
<totfact> 0.28897249E+06</totfact>
</mgrwt>
</event>
<event>
 4    1  0.2126213E+000  0.2215829E+02  0.7546771E-02  0.1705529E+00
         -3   -1    0    0    0  501 -0.00000000000E+00  0.00000000000E+00  0.65479636814E+02  0.65479636814E+02  0.00000000000E+00 0.  1.
          3   -1    0    0  501    0  0.00000000000E+00 -0.00000000000E+00 -0.18745901034E+01  0.18745901034E+01  0.00000000000E+00 0. -1.
        -11    1    1    2    0    0  0.80809603135E+01  0.71135323954E+01  0.39754199916E+02  0.41186170903E+02  0.00000000000E+00 0.  1.
         11    1    1    2    0    0 -0.80809603135E+01 -0.71135323954E+01  0.23850846795E+02  0.26168056014E+02  0.00000000000E+00 0. -1.
<mgrwt>
<rscale>  0 0.22158292E+02</rscale>
<asrwt>0</asrwt>
<pdfrwt beam="2">  1        3 0.28839853E-03 0.22158292E+02</pdfrwt>
<pdfrwt beam="1">  1       -3 0.10073789E-01 0.22158292E+02</pdfrwt>
<totfact> 0.12345754E+06</totfact>
</mgrwt>
</event>
<event>
 4    1  0.2126213E+000  0.3636682E+02  0.7546771E-02  0.1536787E+00
          2   -1    0    0  501    0  0.00000000000E+00  0.00000000000E+00  0.79823545685E+02  0.79823545685E+02  0.00000000000E+00 0.  1.
         -2   -1    0    0    0  501 -0.00000000000E+00 -0.00000000000E+00 -0.41420903262E+01  0.41420903262E+01  0.00000000000E+00 0. -1.
        -11    1    1    2    0    0 -0.13386365061E+02 -0.29599410293E+01  0.10261739582E+02  0.17124815903E+02  0.00000000000E+00 0. -1.
         11    1    1    2    0    0  0.13386365061E+02  0.29599410293E+01  0.65419715776E+02  0.66840820108E+02  0.00000000000E+00 0.  1.
<mgrwt>
<rscale>  0 0.36366817E+02</rscale>
<asrwt>0</asrwt>
<pdfrwt beam="1">  1        2 0.12280544E-01 0.36366817E+02</pdfrwt>
<pdfrwt beam="2">  1       -2 0.63724472E-03 0.36366817E+02</pdfrwt>
<totfact> 0.12507646E+06</totfact>
</mgrwt>
</event>
<event>
 4    1  0.2126213E+000  0.2542047E+02  0.7546771E-02  0.1655035E+00
         -2   -1    0    0    0  501 -0.00000000000E+00  0.00000000000E+00  0.34361444920E+02  0.34361444920E+02  0.00000000000E+00 0. -1.
          2   -1    0    0  501    0  0.00000000000E+00 -0.00000000000E+00 -0.47014911773E+01  0.47014911773E+01  0.00000000000E+00 0.  1.
        -13    1    1    2    0    0 -0.11293831007E+02  0.45659599077E+01  0.20402703169E+02  0.23762762998E+02  0.00000000000E+00 0. -1.
         13    1    1    2    0    0  0.11293831007E+02 -0.45659599077E+01  0.92572505731E+01  0.15300173099E+02  0.00000000000E+00 0.  1.
<mgrwt>
<rscale>  0 0.25420467E+02</rscale>
<asrwt>0</asrwt>
<pdfrwt beam="2">  1        2 0.72330636E-03 0.25420467E+02</pdfrwt>
<pdfrwt beam="1">  1       -2 0.52863760E-02 0.25420467E+02</pdfrwt>
<totfact> 0.20869732E+06</totfact>
</mgrwt>
</event>
<event>
 4    1  0.2126213E+000  0.2606441E+02  0.7546771E-02  0.1646168E+00
          1   -1    0    0  501    0  0.00000000000E+00  0.00000000000E+00  0.22558207079E+02  0.22558207079E+02  0.00000000000E+00 0.  1.
         -1   -1    0    0    0  501 -0.00000000000E+00 -0.00000000000E+00 -0.75288967216E+01  0.75288967216E+01  0.00000000000E+00 0. -1.
        -11    1    1    2    0    0  0.22917377950E-01  0.10894692988E+02  0.15769860281E+02  0.19167246901E+02  0.00000000000E+00 0.  1.
         11    1    1    2    0    0 -0.22917377950E-01 -0.10894692988E+02 -0.74054992330E+00  0.10919856899E+02  0.00000000000E+00 0. -1.
<mgrwt>
<rscale>  0 0.26064413E+02</rscale>
<asrwt>0</asrwt>
<pdfrwt beam="1">  1        1 0.34704934E-02 0.26064413E+02</pdfrwt>
<pdfrwt beam="2">  1       -1 0.11582918E-02 0.26064413E+02</pdfrwt>
<totfact> 0.21737896E+06</totfact>
</mgrwt>
</event>
<event>
 4    1  0.2126213E+000  0.4879962E+02  0.7546771E-02  0.1451926E+00
         -2   -1    0    0    0  501 -0.00000000000E+00  0.00000000000E+00  0.15055573673E+02  0.15055573673E+02  0.00000000000E+00 0.  1.
          2   -1    0    0  501    0  0.00000000000E+00 -0.00000000000E+00 -0.39543544343E+02  0.39543544343E+02  0.00000000000E+00 0. -1.
        -11    1    1    2    0    0 -0.12819522778E+02 -0.84682993957E+00 -0.35452724809E+02  0.37708791834E+02  0.00000000000E+00 0. -1.
         11    1    1    2    0    0  0.12819522778E+02  0.84682993957E+00  0.10964754139E+02  0.16890326182E+02  0.00000000000E+00 0.  1.
<mgrwt>
<rscale>  0 0.48799621E+02</rscale>
<asrwt>0</asrwt>
<pdfrwt beam="2">  1        2 0.60836220E-02 0.48799621E+02</pdfrwt>
<pdfrwt beam="1">  1       -2 0.23162422E-02 0.48799621E+02</pdfrwt>
<totfact> 0.52347113E+05</totfact>
</mgrwt>
</event>
<event>
 4    1  0.2126213E+000  0.1228411E+03  0.7546771E-02  0.1238482E+00
         -1   -1    0    0    0  501 -0.00000000000E+00  0.00000000000E+00  0.38232370209E+02  0.38232370209E+02  0.00000000000E+00 0.  1.
          1   -1    0    0  501    0  0.00000000000E+00 -0.00000000000E+00 -0.98672470753E+02  0.98672470753E+02  0.00000000000E+00 0. -1.
        -11    1    1    2    0    0  0.52686646547E+02 -0.19865660155E+02 -0.28763489836E+01  0.56380852789E+02  0.00000000000E+00 0.  1.
         11    1    1    2    0    0 -0.52686646547E+02  0.19865660155E+02 -0.57563751560E+02  0.80523988173E+02  0.00000000000E+00 0. -1.
<mgrwt>
<rscale>  0 0.12284108E+03</rscale>
<asrwt>0</asrwt>
<pdfrwt beam="2">  1        1 0.15180380E-01 0.12284108E+03</pdfrwt>
<pdfrwt beam="1">  1       -1 0.58819031E-02 0.12284108E+03</pdfrwt>
<totfact> 0.45440191E+04</totfact>
</mgrwt>
</event>
<event>
 4    1  0.2126213E+000  0.2095076E+02  0.7546771E-02  0.1727056E+00
          2   -1    0    0  501    0  0.00000000000E+00  0.00000000000E+00  0.57801786458E+02  0.57801786458E+02  0.00000000000E+00 0. -1.
         -2   -1    0    0    0  501 -0.00000000000E+00 -0.00000000000E+00 -0.18984466390E+01  0.18984466390E+01  0.00000000000E+00 0.  1.
        -11    1    1    2    0    0 -0.41627544091E+01 -0.93215125014E+01  0.34643251648E+02  0.36116118346E+02  0.00000000000E+00 0. -1.
         11    1    1    2    0    0  0.41627544091E+01  0.93215125014E+01  0.21260088171E+02  0.23584114752E+02  0.00000000000E+00 0.  1.
<mgrwt>
<rscale>  0 0.20950762E+02</rscale>
<asrwt>0</asrwt>
<pdfrwt beam="1">  1        2 0.88925812E-02 0.20950762E+02</pdfrwt>
<pdfrwt beam="2">  1       -2 0.29206876E-03 0.20950762E+02</pdfrwt>
<totfact> 0.42730012E+06</totfact>
</mgrwt>
</event>
<event>
 4    1  0.2126213E+000  0.4665286E+02  0.7546771E-02  0.1464279E+00
         -2   -1    0    0    0  501 -0.00000000000E+00  0.00000000000E+00  0.55618775099E+01  0.55618775099E+01  0.00000000000E+00 0.  1.
          2   -1    0    0  501    0  0.00000000000E+00 -0.00000000000E+00 -0.97830714239E+02  0.97830714239E+02  0.00000000000E+00 0. -1.
        -13    1    1    2    0    0 -0.10170758353E+02  0.12928709403E+02 -0.82787533014E+02  0.84405991936E+02  0.00000000000E+00 0. -1.
         13    1    1    2    0    0  0.10170758353E+02 -0.12928709403E+02 -0.94813037159E+01  0.18986599813E+02  0.00000000000E+00 0.  1.
<mgrwt>
<rscale>  0 0.46652865E+02</rscale>
<asrwt>0</asrwt>
<pdfrwt beam="2">  1        2 0.15050879E-01 0.46652865E+02</pdfrwt>
<pdfrwt beam="1">  1       -2 0.85567345E-03 0.46652865E+02</pdfrwt>
<totfact> 0.70900345E+05</totfact>
</mgrwt>
</event>
<event>
 4    1  0.2126213E+000  0.4071565E+02  0.7546771E-02  0.1503010E+00
          2   -1    0    0  501    0  0.00000000000E+00  0.00000000000E+00  0.52374402593E+01  0.52374402593E+01  0.00000000000E+00 0. -1.
         -2   -1    0    0    0  501 -0.00000000000E+00 -0.00000000000E+00 -0.79130441937E+02  0.79130441937E+02  0.00000000000E+00 0.  1.
        -13    1    1    2    0    0 -0.51042088450E+01  0.10777881544E+02 -0.27580009942E+01  0.12240189867E+02  0.00000000000E+00 0. -1.
         13    1    1    2    0    0  0.51042088450E+01 -0.10777881544E+02 -0.71135000684E+02  0.72127692329E+02  0.00000000000E+00 0.  1.
<mgrwt>
<rscale>  0 0.40715646E+02</rscale>
<asrwt>0</asrwt>
<pdfrwt beam="1">  1        2 0.80576001E-03 0.40715646E+02</pdfrwt>
<pdfrwt beam="2">  1       -2 0.12173915E-01 0.40715646E+02</pdfrwt>
<totfact> 0.61195074E+05</totfact>
</mgrwt>
</event>
<event>
 4    1  0.2126213E+000  0.2530299E+02  0.7546771E-02  0.1656688E+00
          4   -1    0    0  501    0  0.00000000000E+00  0.00000000000E+00  0.23082379277E+02  0.23082379277E+02  0.00000000000E+00 0.  1.
         -4   -1    0    0    0  501 -0.00000000000E+00 -0.00000000000E+00 -0.69343086871E+01  0.69343086871E+01  0.00000000000E+00 0. -1.
        -13    1    1    2    0    0 -0.10423090394E+02  0.46360057326E+01  0.14563701423E+02  0.18499588148E+02  0.00000000000E+00 0.  1.
         13    1    1    2    0    0  0.10423090394E+02 -0.46360057326E+01  0.15843691669E+01  0.11517099816E+02  0.00000000000E+00 0. -1.
<mgrwt>
<rscale>  0 0.25302991E+02</rscale>
<asrwt>0</asrwt>
<pdfrwt beam="1">  1        4 0.35511352E-02 0.25302991E+02</pdfrwt>
<pdfrwt beam="2">  1       -4 0.10668167E-02 0.25302991E+02</pdfrwt>
<totfact> 0.75893842E+05</totfact>
</mgrwt>
</event>
<event>
 4    1  0.2126213E+000  0.2741821E+02  0.7546771E-02  0.1628516E+00
         -4   -1    0    0    0  501 -0.00000000000E+00  0.00000000000E+00  0.56614986969E+01  0.56614986969E+01  0.00000000000E+00 0.  1.
          4   -1    0    0  501    0  0.00000000000E+00 -0.00000000000E+00 -0.33196070127E+02  0.33196070127E+02  0.00000000000E+00 0. -1.
        -13    1    1    2    0    0 -0.10143009139E+02  0.57467420316E+01 -0.23990312085E+02  0.26672846723E+02  0.00000000000E+00 0. -1.
         13    1    1    2    0    0  0.10143009139E+02 -0.57467420316E+01 -0.35442593448E+01  0.12184722101E+02  0.00000000000E+00 0.  1.
<mgrwt>
<rscale>  0 0.27418206E+02</rscale>
<asrwt>0</asrwt>
<pdfrwt beam="2">  1        4 0.51070877E-02 0.27418206E+02</pdfrwt>
<pdfrwt beam="1">  1       -4 0.87099979E-03 0.27418206E+02</pdfrwt>
<totfact> 0.61522304E+05</totfact>
</mgrwt>
</event>
<event>
 4    1  0.2126213E+000  0.2693381E+02  0.7546771E-02  0.1634685E+00
          2   -1    0    0  501    0  0.00000000000E+00  0.00000000000E+00  0.13403614860E+02  0.13403614860E+02  0.00000000000E+00 0. -1.
         -2   -1    0    0    0  501 -0.00000000000E+00 -0.00000000000E+00 -0.13530493854E+02  0.13530493854E+02  0.00000000000E+00 0.  1.
        -13    1    1    2    0    0  0.14423407695E+01 -0.12808501540E+02 -0.39646966838E+01  0.13485432080E+02  0.00000000000E+00 0.  1.
         13    1    1    2    0    0 -0.14423407695E+01  0.12808501540E+02  0.38378176902E+01  0.13448676634E+02  0.00000000000E+00 0. -1.
<mgrwt>
<rscale>  0 0.26933810E+02</rscale>
<asrwt>0</asrwt>
<pdfrwt beam="1">  1        2 0.20620946E-02 0.26933810E+02</pdfrwt>
<pdfrwt beam="2">  1       -2 0.20816144E-02 0.26933810E+02</pdfrwt>
<totfact> 0.20110621E+06</totfact>
</mgrwt>
</event>
<event>
 4    1  0.2126213E+000  0.2631609E+02  0.7546771E-02  0.1642788E+00
         -1   -1    0    0    0  501 -0.00000000000E+00  0.00000000000E+00  0.29525495985E+02  0.29525495985E+02  0.00000000000E+00 0.  1.
          1   -1    0    0  501    0  0.00000000000E+00 -0.00000000000E+00 -0.58638840132E+01  0.58638840132E+01  0.00000000000E+00 0. -1.
        -13    1    1    2    0    0 -0.25868521670E+01 -0.12874114680E+02  0.10706122526E+02  0.16942717978E+02  0.00000000000E+00 0. -1.
         13    1    1    2    0    0  0.25868521670E+01  0.12874114680E+02  0.12955489445E+02  0.18446662020E+02  0.00000000000E+00 0.  1.
<mgrwt>
<rscale>  0 0.26316085E+02</rscale>
<asrwt>0</asrwt>
<pdfrwt beam="2">  1        1 0.90213602E-03 0.26316085E+02</pdfrwt>
<pdfrwt beam="1">  1       -1 0.45423839E-02 0.26316085E+02</pdfrwt>
<totfact> 0.19714521E+06</totfact>
</mgrwt>
</event>
<event>
 4    1  0.2126213E+000  0.2067008E+02  0.7546771E-02  0.1732322E+00
         -4   -1    0    0    0  501 -0.00000000000E+00  0.00000000000E+00  0.18468081896E+01  0.18468081896E+01  0.00000000000E+00 0. -1.
          4   -1    0    0  501    0  0.00000000000E+00 -0.00000000000E+00 -0.57836597373E+02  0.57836597373E+02  0.00000000000E+00 0.  1.
        -11    1    1    2    0    0 -0.56521113530E+01 -0.85922704193E+01 -0.25050809773E+02  0.27079818020E+02  0.00000000000E+00 0.  1.
         11    1    1    2    0    0  0.56521113530E+01  0.85922704193E+01 -0.30938979410E+02  0.32603587543E+02  0.00000000000E+00 0. -1.
<mgrwt>
<rscale>  0 0.20670085E+02</rscale>
<asrwt>0</asrwt>
<pdfrwt beam="2">  1        4 0.88979382E-02 0.20670085E+02</pdfrwt>
<pdfrwt beam="1">  1       -4 0.28412433E-03 0.20670085E+02</pdfrwt>
<totfact> 0.10411686E+06</totfact>
</mgrwt>
</event>
<event>
 4    1  0.2126213E+000  0.1034479E+03  0.7546771E-02  0.1273208E+00
          2   -1    0    0  501    0  0.00000000000E+00  0.00000000000E+00  0.17819750068E+02  0.17819750068E+02  0.00000000000E+00 0. -1.
         -2   -1    0    0    0  501 -0.00000000000E+00 -0.00000000000E+00 -0.15013493690E+03  0.15013493690E+03  0.00000000000E+00 0.  1.
        -13    1    1    2    0    0 -0.31259236416E+02 -0.18574982517E+02 -0.12588188302E+03  0.13102831110E+03  0.00000000000E+00 0.  1.
         13    1    1    2    0    0  0.31259236416E+02  0.18574982517E+02 -0.64333038107E+01  0.36926375868E+02  0.00000000000E+00 0. -1.
<mgrwt>
<rscale>  0 0.10344790E+03</rscale>
<asrwt>0</asrwt>
<pdfrwt beam="1">  1        2 0.27414999E-02 0.10344790E+03</pdfrwt>
<pdfrwt beam="2">  1       -2 0.23097684E-01 0.10344790E+03</pdfrwt>
<totfact> 0.50714397E+04</totfact>
</mgrwt>
</event>
<event>
 4    1  0.2126213E+000  0.2588670E+02  0.7546771E-02  0.1648583E+00
          2   -1    0    0  501    0  0.00000000000E+00  0.00000000000E+00  0.61109540391E+01  0.61109540391E+01  0.00000000000E+00 0. -1.
         -2   -1    0    0    0  501 -0.00000000000E+00 -0.00000000000E+00 -0.27414760932E+02  0.27414760932E+02  0.00000000000E+00 0.  1.
        -13    1    1    2    0    0 -0.95290987287E+01 -0.66566272526E+01 -0.32782862121E+01  0.12077316318E+02  0.00000000000E+00 0. -1.
         13    1    1    2    0    0  0.95290987287E+01  0.66566272526E+01 -0.18025520681E+02  0.21448398653E+02  0.00000000000E+00 0.  1.
<mgrwt>
<rscale>  0 0.25886703E+02</rscale>
<asrwt>0</asrwt>
<pdfrwt beam="1">  1        2 0.94014675E-03 0.25886703E+02</pdfrwt>
<pdfrwt beam="2">  1       -2 0.42176556E-02 0.25886703E+02</pdfrwt>
<totfact> 0.20535692E+06</totfact>
</mgrwt>
</event>
<event>
 4    1  0.2126213E+000  0.3080081E+02  0.7546771E-02  0.1589402E+00
          1   -1    0    0  501    0  0.00000000000E+00  0.00000000000E+00  0.46768001351E+02  0.46768001351E+02  0.00000000000E+00 0.  1.
         -1   -1    0    0    0  501 -0.00000000000E+00 -0.00000000000E+00 -0.50712564195E+01  0.50712564195E+01  0.00000000000E+00 0. -1.
        -13    1    1    2    0    0  0.15289202391E+02 -0.16945990333E+01  0.22086473233E+02  0.26915491367E+02  0.00000000000E+00 0.  1.
         13    1    1    2    0    0 -0.15289202391E+02  0.16945990333E+01  0.19610271698E+02  0.24923766403E+02  0.00000000000E+00 0. -1.
<mgrwt>
<rscale>  0 0.30800813E+02</rscale>
<asrwt>0</asrwt>
<pdfrwt beam="1">  1        1 0.71950768E-02 0.30800813E+02</pdfrwt>
<pdfrwt beam="2">  1       -1 0.78019333E-03 0.30800813E+02</pdfrwt>
<totfact> 0.15335894E+06</totfact>
</mgrwt>
</event>
<event>
 4    1  0.2126213E+000  0.3542767E+02  0.7546771E-02  0.1544835E+00
          2   -1    0    0  501    0  0.00000000000E+00  0.00000000000E+00  0.63774478013E+01  0.63774478013E+01  0.00000000000E+00 0. -1.
         -2   -1    0    0    0  501 -0.00000000000E+00 -0.00000000000E+00 -0.49201498607E+02  0.49201498607E+02  0.00000000000E+00 0.  1.
        -11    1    1    2    0    0  0.82660886199E+01  0.11579636611E+02 -0.48566252661E+01  0.15033396625E+02  0.00000000000E+00 0. -1.
         11    1    1    2    0    0 -0.82660886199E+01 -0.11579636611E+02 -0.37967425540E+02  0.40545549783E+02  0.00000000000E+00 0.  1.
<mgrwt>
<rscale>  0 0.35427672E+02</rscale>
<asrwt>0</asrwt>
<pdfrwt beam="1">  1        2 0.98114588E-03 0.35427672E+02</pdfrwt>
<pdfrwt beam="2">  1       -2 0.75694608E-02 0.35427672E+02</pdfrwt>
<totfact> 0.92675359E+05</totfact>
</mgrwt>
</event>
<event>
 4    1  0.2126213E+000  0.2357358E+02  0.7546771E-02  0.1682378E+00
          2   -1    0    0  501    0  0.00000000000E+00  0.00000000000E+00  0.10052550013E+03  0.10052550013E+03  0.00000000000E+00 0.  1.
         -2   -1    0    0    0  501 -0.00000000000E+00 -0.00000000000E+00 -0.13820214233E+01  0.13820214233E+01  0.00000000000E+00 0. -1.
        -11    1    1    2    0    0 -0.39431581209E+01  0.10627907932E+02  0.63531251681E+02  0.64534648548E+02  0.00000000000E+00 0.  1.
         11    1    1    2    0    0  0.39431581209E+01 -0.10627907932E+02  0.35612227026E+02  0.37372873006E+02  0.00000000000E+00 0. -1.
<mgrwt>
<rscale>  0 0.23573578E+02</rscale>
<asrwt>0</asrwt>
<pdfrwt beam="1">  1        2 0.15465456E-01 0.23573578E+02</pdfrwt>
<pdfrwt beam="2">  1       -2 0.21261876E-03 0.23573578E+02</pdfrwt>
<totfact> 0.36557900E+06</totfact>
</mgrwt>
</event>
<event>
 4    1  0.2126213E+000  0.2073632E+02  0.7546771E-02  0.1731070E+00
         -4   -1    0    0    0  501 -0.00000000000E+00  0.00000000000E+00  0.88390970536E+01  0.88390970536E+01  0.00000000000E+00 0.  1.
          4   -1    0    0  501    0  0.00000000000E+00 -0.00000000000E+00 -0.12161738581E+02  0.12161738581E+02  0.00000000000E+00 0. -1.
        -11    1    1    2    0    0 -0.22211886168E+01  0.98541592993E+01 -0.40279329611E+01  0.10874850726E+02  0.00000000000E+00 0. -1.
         11    1    1    2    0    0  0.22211886168E+01 -0.98541592993E+01  0.70529143368E+00  0.10125984909E+02  0.00000000000E+00 0.  1.
<mgrwt>
<rscale>  0 0.20736324E+02</rscale>
<asrwt>0</asrwt>
<pdfrwt beam="2">  1        4 0.18710367E-02 0.20736324E+02</pdfrwt>
<pdfrwt beam="1">  1       -4 0.13598611E-02 0.20736324E+02</pdfrwt>
<totfact> 0.12025932E+06</totfact>
</mgrwt>
</event>
<event>
 4    1  0.2126213E+000  0.2263397E+02  0.7546771E-02  0.1697513E+00
          2   -1    0    0  501    0  0.00000000000E+00  0.00000000000E+00  0.42456857652E+01  0.42456857652E+01  0.00000000000E+00 0. -1.
         -2   -1    0    0    0  501 -0.00000000000E+00 -0.00000000000E+00 -0.30165715987E+02  0.30165715987E+02  0.00000000000E+00 0.  1.
        -13    1    1    2    0    0  0.32298490596E+00  0.10264475745E+02 -0.57307283116E+01  0.11760315836E+02  0.00000000000E+00 0.  1.
         13    1    1    2    0    0 -0.32298490596E+00 -0.10264475745E+02 -0.20189301910E+02  0.22651085916E+02  0.00000000000E+00 0. -1.
<mgrwt>
<rscale>  0 0.22633970E+02</rscale>
<asrwt>0</asrwt>
<pdfrwt beam="1">  1        2 0.65318240E-03 0.22633970E+02</pdfrwt>
<pdfrwt beam="2">  1       -2 0.46408796E-02 0.22633970E+02</pdfrwt>
<totfact> 0.27450280E+06</totfact>
</mgrwt>
</event>
<event>
 4    1  0.2126213E+000  0.2247178E+02  0.7546771E-02  0.1700218E+00
         -4   -1    0    0    0  501 -0.00000000000E+00  0.00000000000E+00  0.26253445534E+02  0.26253445534E+02  0.00000000000E+00 0. -1.
          4   -1    0    0  501    0  0.00000000000E+00 -0.00000000000E+00 -0.48087110483E+01  0.48087110483E+01  0.00000000000E+00 0.  1.
        -13    1    1    2    0    0  0.92540446343E+01  0.48849359299E+01  0.50659624399E+01  0.11626001745E+02  0.00000000000E+00 0.  1.
         13    1    1    2    0    0 -0.92540446343E+01 -0.48849359299E+01  0.16378772046E+02  0.19436154838E+02  0.00000000000E+00 0. -1.
<mgrwt>
<rscale>  0 0.22471781E+02</rscale>
<asrwt>0</asrwt>
<pdfrwt beam="2">  1        4 0.73980172E-03 0.22471781E+02</pdfrwt>
<pdfrwt beam="1">  1       -4 0.40389915E-02 0.22471781E+02</pdfrwt>
<totfact> 0.97402127E+05</totfact>
</mgrwt>
</event>
<event>
 4    1  0.2126213E+000  0.2024156E+02  0.7546771E-02  0.1740567E+00
          2   -1    0    0  501    0  0.00000000000E+00  0.00000000000E+00  0.10347552160E+01  0.10347552160E+01  0.00000000000E+00 0. -1.
         -2   -1    0    0    0  501 -0.00000000000E+00 -0.00000000000E+00 -0.98989773185E+02  0.98989773185E+02  0.00000000000E+00 0.  1.
        -13    1    1    2    0    0  0.73751770965E+01  0.68453067605E+01 -0.43612526766E+02  0.44758283621E+02  0.00000000000E+00 0. -1.
         13    1    1    2    0    0 -0.73751770965E+01 -0.68453067605E+01 -0.54342491204E+02  0.55266244780E+02  0.00000000000E+00 0.  1.
<mgrwt>
<rscale>  0 0.20241560E+02</rscale>
<asrwt>0</asrwt>
<pdfrwt beam="1">  1        2 0.15919316E-03 0.20241560E+02</pdfrwt>
<pdfrwt beam="2">  1       -2 0.15229191E-01 0.20241560E+02</pdfrwt>
<totfact> 0.29033139E+06</totfact>
</mgrwt>
</event>
<event>
 4    1  0.2126213E+000  0.3299364E+02  0.7546771E-02  0.1567175E+00
         -4   -1    0    0    0  501 -0.00000000000E+00  0.00000000000E+00  0.42281924362E+02  0.42281924362E+02  0.00000000000E+00 0. -1.
          4   -1    0    0  501    0  0.00000000000E+00 -0.00000000000E+00 -0.64364405410E+01  0.64364405410E+01  0.00000000000E+00 0.  1.
        -13    1    1    2    0    0 -0.23282196946E+01  0.99937174928E+01  0.36996035124E+02  0.38392728623E+02  0.00000000000E+00 0. -1.
         13    1    1    2    0    0  0.23282196946E+01 -0.99937174928E+01 -0.11505513030E+01  0.10325636279E+02  0.00000000000E+00 0.  1.
<mgrwt>
<rscale>  0 0.32993641E+02</rscale>
<asrwt>0</asrwt>
<pdfrwt beam="2">  1        4 0.99022165E-03 0.32993641E+02</pdfrwt>
<pdfrwt beam="1">  1       -4 0.65049113E-02 0.32993641E+02</pdfrwt>
<totfact> 0.39155124E+05</totfact>
</mgrwt>
</event>
<event>
 4    1  0.2126213E+000  0.3097461E+02  0.7546771E-02  0.1587559E+00
          1   -1    0    0  501    0  0.00000000000E+00  0.00000000000E+00  0.23271689902E+01  0.23271689902E+01  0.00000000000E+00 0.  1.
         -1   -1    0    0    0  501 -0.00000000000E+00 -0.00000000000E+00 -0.10306798562E+03  0.10306798562E+03  0.00000000000E+00 0. -1.
        -11    1    1    2    0    0  0.75340448986E+01  0.13482195234E+02 -0.46453392092E+02  0.48953539787E+02  0.00000000000E+00 0.  1.
         11    1    1    2    0    0 -0.75340448986E+01 -0.13482195234E+02 -0.54287424543E+02  0.56441614828E+02  0.00000000000E+00 0. -1.
<mgrwt>
<rscale>  0 0.30974610E+02</rscale>
<asrwt>0</asrwt>
<pdfrwt beam="1">  1        1 0.35802604E-03 0.30974610E+02</pdfrwt>
<pdfrwt beam="2">  1       -1 0.15856611E-01 0.30974610E+02</pdfrwt>
<totfact> 0.11749797E+06</totfact>
</mgrwt>
</event>
<event>
 4    1  0.2126213E+000  0.2478877E+02  0.7546771E-02  0.1664055E+00
          2   -1    0    0  501    0  0.00000000000E+00  0.00000000000E+00  0.23001065119E+02  0.23001065119E+02  0.00000000000E+00 0. -1.
         -2   -1    0    0    0  501 -0.00000000000E+00 -0.00000000000E+00 -0.66788529683E+01  0.66788529683E+01  0.00000000000E+00 0.  1.
        -11    1    1    2    0    0 -0.36978014128E+01 -0.11829552105E+02  0.82727439045E+01  0.14901353294E+02  0.00000000000E+00 0. -1.
         11    1    1    2    0    0  0.36978014128E+01  0.11829552105E+02  0.80494682457E+01  0.14778564793E+02  0.00000000000E+00 0.  1.
<mgrwt>
<rscale>  0 0.24788766E+02</rscale>
<asrwt>0</asrwt>
<pdfrwt beam="1">  1        2 0.35386254E-02 0.24788766E+02</pdfrwt>
<pdfrwt beam="2">  1       -2 0.10275159E-02 0.24788766E+02</pdfrwt>
<totfact> 0.25791410E+06</totfact>
</mgrwt>
</event>
<event>
 4    1  0.2126213E+000  0.3319236E+02  0.7546771E-02  0.1565265E+00
          2   -1    0    0  501    0  0.00000000000E+00  0.00000000000E+00  0.14294683230E+03  0.14294683230E+03  0.00000000000E+00 0.  1.
         -2   -1    0    0    0  501 -0.00000000000E+00 -0.00000000000E+00 -0.19268222624E+01  0.19268222624E+01  0.00000000000E+00 0. -1.
        -11    1    1    2    0    0  0.87023078768E+01  0.13654737164E+02  0.86398317473E+02  0.87902510042E+02  0.00000000000E+00 0. -1.
         11    1    1    2    0    0 -0.87023078768E+01 -0.13654737164E+02  0.54621692560E+02  0.56971144516E+02  0.00000000000E+00 0.  1.
<mgrwt>
<rscale>  0 0.33192357E+02</rscale>
<asrwt>0</asrwt>
<pdfrwt beam="1">  1        2 0.21991812E-01 0.33192357E+02</pdfrwt>
<pdfrwt beam="2">  1       -2 0.29643431E-03 0.33192357E+02</pdfrwt>
<totfact> 0.18060895E+06</totfact>
</mgrwt>
</event>
<event>
 4    1  0.2126213E+000  0.2617448E+02  0.7546771E-02  0.1644684E+00
          2   -1    0    0  501    0  0.00000000000E+00  0.00000000000E+00  0.43740013355E+01  0.43740013355E+01  0.00000000000E+00 0. -1.
         -2   -1    0    0    0  501 -0.00000000000E+00 -0.00000000000E+00 -0.39157695042E+02  0.39157695042E+02  0.00000000000E+00 0.  1.
        -13    1    1    2    0    0 -0.11176168130E+02  0.49786054042E+01 -0.96654127549E+01  0.15592095740E+02  0.00000000000E+00 0. -1.
         13    1    1    2    0    0  0.11176168130E+02 -0.49786054042E+01 -0.25118280952E+02  0.27939600638E+02  0.00000000000E+00 0.  1.
<mgrwt>
<rscale>  0 0.26174477E+02</rscale>
<asrwt>0</asrwt>
<pdfrwt beam="1">  1        2 0.67292324E-03 0.26174477E+02</pdfrwt>
<pdfrwt beam="2">  1       -2 0.60242611E-02 0.26174477E+02</pdfrwt>
<totfact> 0.19229165E+06</totfact>
</mgrwt>
</event>
<event>
 4    1  0.2126213E+000  0.4594730E+02  0.7546771E-02  0.1468513E+00
          2   -1    0    0  501    0  0.00000000000E+00  0.00000000000E+00  0.76466104952E+01  0.76466104952E+01  0.00000000000E+00 0. -1.
         -2   -1    0    0    0  501 -0.00000000000E+00 -0.00000000000E+00 -0.69022544649E+02  0.69022544649E+02  0.00000000000E+00 0.  1.
        -13    1    1    2    0    0  0.63593039010E+01  0.21982558686E+02 -0.27303117312E+02  0.35624904876E+02  0.00000000000E+00 0. -1.
         13    1    1    2    0    0 -0.63593039010E+01 -0.21982558686E+02 -0.34072816842E+02  0.41044250268E+02  0.00000000000E+00 0.  1.
<mgrwt>
<rscale>  0 0.45947297E+02</rscale>
<asrwt>0</asrwt>
<pdfrwt beam="1">  1        2 0.11764016E-02 0.45947297E+02</pdfrwt>
<pdfrwt beam="2">  1       -2 0.10618853E-01 0.45947297E+02</pdfrwt>
<totfact> 0.47069938E+05</totfact>
</mgrwt>
</event>
<event>
 4    1  0.2126213E+000  0.4565546E+02  0.7546771E-02  0.1470291E+00
         -3   -1    0    0    0  501 -0.00000000000E+00  0.00000000000E+00  0.91694578895E+01  0.91694578895E+01  0.00000000000E+00 0. -1.
          3   -1    0    0  501    0  0.00000000000E+00 -0.00000000000E+00 -0.56830536554E+02  0.56830536554E+02  0.00000000000E+00 0.  1.
        -11    1    1    2    0    0 -0.48220034710E+01  0.17303114921E+02 -0.44195472661E+02  0.47706281632E+02  0.00000000000E+00 0.  1.
         11    1    1    2    0    0  0.48220034710E+01 -0.17303114921E+02 -0.34656060034E+01  0.18293712811E+02  0.00000000000E+00 0. -1.
<mgrwt>
<rscale>  0 0.45655458E+02</rscale>
<asrwt>0</asrwt>
<pdfrwt beam="2">  1        3 0.87431596E-02 0.45655458E+02</pdfrwt>
<pdfrwt beam="1">  1       -3 0.14106858E-02 0.45655458E+02</pdfrwt>
<totfact> 0.22758672E+05</totfact>
</mgrwt>
</event>
<event>
 4    1  0.2126213E+000  0.2678305E+02  0.7546771E-02  0.1636638E+00
          2   -1    0    0  501    0  0.00000000000E+00  0.00000000000E+00  0.29412542576E+02  0.29412542576E+02  0.00000000000E+00 0. -1.
         -2   -1    0    0    0  501 -0.00000000000E+00 -0.00000000000E+00 -0.60971605015E+01  0.60971605015E+01  0.00000000000E+00 0.  1.
        -13    1    1    2    0    0  0.53947635298E+01 -0.12086680131E+02  0.14355898625E+02  0.19526472684E+02  0.00000000000E+00 0.  1.
         13    1    1    2    0    0 -0.53947635298E+01  0.12086680131E+02  0.89594834496E+01  0.15983230394E+02  0.00000000000E+00 0. -1.
<mgrwt>
<rscale>  0 0.26783054E+02</rscale>
<asrwt>0</asrwt>
<pdfrwt beam="1">  1        2 0.45250065E-02 0.26783054E+02</pdfrwt>
<pdfrwt beam="2">  1       -2 0.93802471E-03 0.26783054E+02</pdfrwt>
<totfact> 0.22093114E+06</totfact>
</mgrwt>
</event>
<event>
 4    1  0.2126213E+000  0.2456168E+02  0.7546771E-02  0.1667379E+00
         -2   -1    0    0    0  501 -0.00000000000E+00  0.00000000000E+00  0.11661477051E+02  0.11661477051E+02  0.00000000000E+00 0.  1.
          2   -1    0    0  501    0  0.00000000000E+00 -0.00000000000E+00 -0.12933094600E+02  0.12933094600E+02  0.00000000000E+00 0. -1.
        -13    1    1    2    0    0  0.60477639201E+00 -0.12262564036E+02 -0.34775240387E+00  0.12282392395E+02  0.00000000000E+00 0. -1.
         13    1    1    2    0    0 -0.60477639201E+00  0.12262564036E+02 -0.92386514522E+00  0.12312179256E+02  0.00000000000E+00 0.  1.
<mgrwt>
<rscale>  0 0.24561676E+02</rscale>
<asrwt>0</asrwt>
<pdfrwt beam="2">  1        2 0.19897069E-02 0.24561676E+02</pdfrwt>
<pdfrwt beam="1">  1       -2 0.17940734E-02 0.24561676E+02</pdfrwt>
<totfact> 0.24979220E+06</totfact>
</mgrwt>
</event>
<event>
 4    1  0.2126213E+000  0.3787907E+02  0.7546771E-02  0.1524426E+00
         -2   -1    0    0    0  501 -0.00000000000E+00  0.00000000000E+00  0.72619616192E+02  0.72619616192E+02  0.00000000000E+00 0. -1.
          2   -1    0    0  501    0  0.00000000000E+00 -0.00000000000E+00 -0.49395189866E+01  0.49395189866E+01  0.00000000000E+00 0.  1.
        -13    1    1    2    0    0 -0.18437752908E+02 -0.21328402074E+01  0.41557486255E+02  0.45514002279E+02  0.00000000000E+00 0.  1.
         13    1    1    2    0    0  0.18437752908E+02  0.21328402074E+01  0.26122610951E+02  0.32045132900E+02  0.00000000000E+00 0. -1.
<mgrwt>
<rscale>  0 0.37879069E+02</rscale>
<asrwt>0</asrwt>
<pdfrwt beam="2">  1        2 0.75992605E-03 0.37879069E+02</pdfrwt>
<pdfrwt beam="1">  1       -2 0.11172248E-01 0.37879069E+02</pdfrwt>
<totfact> 0.73960648E+05</totfact>
</mgrwt>
</event>
<event>
 4    1  0.2126213E+000  0.3411529E+02  0.7546771E-02  0.1556600E+00
          4   -1    0    0  501    0  0.00000000000E+00  0.00000000000E+00  0.88601279886E+01  0.88601279886E+01  0.00000000000E+00 0. -1.
         -4   -1    0    0    0  501 -0.00000000000E+00 -0.00000000000E+00 -0.32839629600E+02  0.32839629600E+02  0.00000000000E+00 0.  1.
        -13    1    1    2    0    0 -0.10188541245E+02  0.10871691099E+02 -0.18391120921E+01  0.15012740368E+02  0.00000000000E+00 0. -1.
         13    1    1    2    0    0  0.10188541245E+02 -0.10871691099E+02 -0.22140389519E+02  0.26687017220E+02  0.00000000000E+00 0.  1.
<mgrwt>
<rscale>  0 0.34115294E+02</rscale>
<asrwt>0</asrwt>
<pdfrwt beam="1">  1        4 0.13630966E-02 0.34115294E+02</pdfrwt>
<pdfrwt beam="2">  1       -4 0.50522507E-02 0.34115294E+02</pdfrwt>
<totfact> 0.37134938E+05</totfact>
</mgrwt>
</event>
<event>
 4    1  0.2126213E+000  0.3963706E+02  0.7546771E-02  0.1510899E+00
          2   -1    0    0  501    0  0.00000000000E+00  0.00000000000E+00  0.92729033264E+02  0.92729033264E+02  0.00000000000E+00 0.  1.
         -2   -1    0    0    0  501 -0.00000000000E+00 -0.00000000000E+00 -0.42357199207E+01  0.42357199207E+01  0.00000000000E+00 0. -1.
        -11    1    1    2    0    0  0.70944161826E+01  0.13497238197E+02  0.75216276273E+02  0.76746298909E+02  0.00000000000E+00 0.  1.
         11    1    1    2    0    0 -0.70944161826E+01 -0.13497238197E+02  0.13277037070E+02  0.20218454275E+02  0.00000000000E+00 0. -1.
<mgrwt>
<rscale>  0 0.39637064E+02</rscale>
<asrwt>0</asrwt>
<pdfrwt beam="1">  1        2 0.14266004E-01 0.39637064E+02</pdfrwt>
<pdfrwt beam="2">  1       -2 0.65164929E-03 0.39637064E+02</pdfrwt>
<totfact> 0.10488345E+06</totfact>
</mgrwt>
</event>
<event>
 4    1  0.2126213E+000  0.2850204E+02  0.7546771E-02  0.1615262E+00
          2   -1    0    0  501    0  0.00000000000E+00  0.00000000000E+00  0.47162103720E+01  0.47162103720E+01  0.00000000000E+00 0.  1.
         -2   -1    0    0    0  501 -0.00000000000E+00 -0.00000000000E+00 -0.43062449153E+02  0.43062449153E+02  0.00000000000E+00 0. -1.
        -13    1    1    2    0    0 -0.17052965369E+01 -0.13366167190E+02 -0.26951174804E+02  0.30131848349E+02  0.00000000000E+00 0. -1.
         13    1    1    2    0    0  0.17052965369E+01  0.13366167190E+02 -0.11395063977E+02  0.17646811176E+02  0.00000000000E+00 0.  1.
<mgrwt>
<rscale>  0 0.28502040E+02</rscale>
<asrwt>0</asrwt>
<pdfrwt beam="1">  1        2 0.72557080E-03 0.28502040E+02</pdfrwt>
<pdfrwt beam="2">  1       -2 0.66249924E-02 0.28502040E+02</pdfrwt>
<totfact> 0.15642379E+06</totfact>
</mgrwt>
</event>
<event>
 4    1  0.2126213E+000  0.2888872E+02  0.7546771E-02  0.1610707E+00
          2   -1    0    0  501    0  0.00000000000E+00  0.00000000000E+00  0.10195182564E+03  0.10195182564E+03  0.00000000000E+00 0.  1.
         -2   -1    0    0    0  501 -0.00000000000E+00 -0.00000000000E+00 -0.20464521355E+01  0.20464521355E+01  0.00000000000E+00 0. -1.
        -13    1    1    2    0    0 -0.86221781023E+01 -0.94083487359E+01  0.74310503354E+02  0.75398341427E+02  0.00000000000E+00 0. -1.
         13    1    1    2    0    0  0.86221781023E+01  0.94083487359E+01  0.25594870155E+02  0.28599936354E+02  0.00000000000E+00 0.  1.
<mgrwt>
<rscale>  0 0.28888720E+02</rscale>
<asrwt>0</asrwt>
<pdfrwt beam="1">  1        2 0.15684892E-01 0.28888720E+02</pdfrwt>
<pdfrwt beam="2">  1       -2 0.31483887E-03 0.28888720E+02</pdfrwt>
<totfact> 0.22941423E+06</totfact>
</mgrwt>
</event>
<event>
 4    1  0.2126213E+000  0.1075720E+03  0.7546771E-02  0.1265133E+00
         -2   -1    0    0    0  501 -0.00000000000E+00  0.00000000000E+00  0.70512702061E+02  0.70512702061E+02  0.00000000000E+00 0.  1.
          2   -1    0    0  501    0  0.00000000000E+00 -0.00000000000E+00 -0.41027115306E+02  0.41027115306E+02  0.00000000000E+00 0. -1.
        -11    1    1    2    0    0 -0.31074778268E+02  0.40046153226E+02  0.33395106119E+02  0.60700653582E+02  0.00000000000E+00 0.  1.
         11    1    1    2    0    0  0.31074778268E+02 -0.40046153226E+02 -0.39095193641E+01  0.50839163784E+02  0.00000000000E+00 0. -1.
<mgrwt>
<rscale>  0 0.10757198E+03</rscale>
<asrwt>0</asrwt>
<pdfrwt beam="2">  1        2 0.63118639E-02 0.10757198E+03</pdfrwt>
<pdfrwt beam="1">  1       -2 0.10848108E-01 0.10757198E+03</pdfrwt>
<totfact> 0.58975414E+04</totfact>
</mgrwt>
</event>
<event>
 4    1  0.2126213E+000  0.2374372E+02  0.7546771E-02  0.1679731E+00
          2   -1    0    0  501    0  0.00000000000E+00  0.00000000000E+00  0.55576668457E+02  0.55576668457E+02  0.00000000000E+00 0. -1.
         -2   -1    0    0    0  501 -0.00000000000E+00 -0.00000000000E+00 -0.25359761359E+01  0.25359761359E+01  0.00000000000E+00 0.  1.
        -13    1    1    2    0    0  0.51278056576E+01  0.10688754911E+02  0.28062913744E+02  0.30464257749E+02  0.00000000000E+00 0. -1.
         13    1    1    2    0    0 -0.51278056576E+01 -0.10688754911E+02  0.24977778578E+02  0.27648386844E+02  0.00000000000E+00 0.  1.
<mgrwt>
<rscale>  0 0.23743724E+02</rscale>
<asrwt>0</asrwt>
<pdfrwt beam="1">  1        2 0.85502558E-02 0.23743724E+02</pdfrwt>
<pdfrwt beam="2">  1       -2 0.39015022E-03 0.23743724E+02</pdfrwt>
<totfact> 0.31964178E+06</totfact>
</mgrwt>
</event>
<event>
 4    1  0.2126213E+000  0.2373207E+02  0.7546771E-02  0.1679911E+00
         -2   -1    0    0    0  501 -0.00000000000E+00  0.00000000000E+00  0.14284225952E+02  0.14284225952E+02  0.00000000000E+00 0.  1.
          2   -1    0    0  501    0  0.00000000000E+00 -0.00000000000E+00 -0.98572242572E+01  0.98572242572E+01  0.00000000000E+00 0. -1.
        -13    1    1    2    0    0  0.67750195319E+01  0.81793242393E+01 -0.31693361540E+01  0.11083633264E+02  0.00000000000E+00 0. -1.
         13    1    1    2    0    0 -0.67750195319E+01 -0.81793242393E+01  0.75963378488E+01  0.13057816945E+02  0.00000000000E+00 0.  1.
<mgrwt>
<rscale>  0 0.23732073E+02</rscale>
<asrwt>0</asrwt>
<pdfrwt beam="2">  1        2 0.15164960E-02 0.23732073E+02</pdfrwt>
<pdfrwt beam="1">  1       -2 0.21975732E-02 0.23732073E+02</pdfrwt>
<totfact> 0.26471471E+06</totfact>
</mgrwt>
</event>
<event>
 4    1  0.2126213E+000  0.4118102E+02  0.7546771E-02  0.1499696E+00
          2   -1    0    0  501    0  0.00000000000E+00  0.00000000000E+00  0.13981730949E+02  0.13981730949E+02  0.00000000000E+00 0. -1.
         -2   -1    0    0    0  501 -0.00000000000E+00 -0.00000000000E+00 -0.30323082594E+02  0.30323082594E+02  0.00000000000E+00 0.  1.
        -11    1    1    2    0    0 -0.20038975340E+02  0.19557797726E+00 -0.13259185883E+02  0.24029248713E+02  0.00000000000E+00 0. -1.
         11    1    1    2    0    0  0.20038975340E+02 -0.19557797726E+00 -0.30821657623E+01  0.20275564831E+02  0.00000000000E+00 0.  1.
<mgrwt>
<rscale>  0 0.41181024E+02</rscale>
<asrwt>0</asrwt>
<pdfrwt beam="1">  1        2 0.21510355E-02 0.41181024E+02</pdfrwt>
<pdfrwt beam="2">  1       -2 0.46650897E-02 0.41181024E+02</pdfrwt>
<totfact> 0.69744519E+05</totfact>
</mgrwt>
</event>
<event>
 4    1  0.2126213E+000  0.6126677E+02  0.7546771E-02  0.1392591E+00
          2   -1    0    0  501    0  0.00000000000E+00  0.00000000000E+00  0.72685818804E+01  0.72685818804E+01  0.00000000000E+00 0.  1.
         -2   -1    0    0    0  501 -0.00000000000E+00 -0.00000000000E+00 -0.12910418285E+03  0.12910418285E+03  0.00000000000E+00 0. -1.
        -13    1    1    2    0    0 -0.18805182028E+02  0.88497014595E+01 -0.10825393979E+02  0.23433762861E+02  0.00000000000E+00 0.  1.
         13    1    1    2    0    0  0.18805182028E+02 -0.88497014595E+01 -0.11101020699E+03  0.11293900187E+03  0.00000000000E+00 0. -1.
<mgrwt>
<rscale>  0 0.61266772E+02</rscale>
<asrwt>0</asrwt>
<pdfrwt beam="1">  1        2 0.11182436E-02 0.61266772E+02</pdfrwt>
<pdfrwt beam="2">  1       -2 0.19862179E-01 0.61266772E+02</pdfrwt>
<totfact> 0.19929862E+05</totfact>
</mgrwt>
</event>
<event>
 4    1  0.2126213E+000  0.8033161E+02  0.7546771E-02  0.1328113E+00
         -2   -1    0    0    0  501 -0.00000000000E+00  0.00000000000E+00  0.25569647641E+02  0.25569647641E+02  0.00000000000E+00 0.  1.
          2   -1    0    0  501    0  0.00000000000E+00 -0.00000000000E+00 -0.63094023354E+02  0.63094023354E+02  0.00000000000E+00 0. -1.
        -13    1    1    2    0    0 -0.25679130289E+02 -0.89574306899E+01 -0.51385282002E+02  0.58138631764E+02  0.00000000000E+00 0. -1.
         13    1    1    2    0    0  0.25679130289E+02  0.89574306899E+01  0.13860906289E+02  0.30525039232E+02  0.00000000000E+00 0.  1.
<mgrwt>
<rscale>  0 0.80331611E+02</rscale>
<asrwt>0</asrwt>
<pdfrwt beam="2">  1        2 0.97067727E-02 0.80331611E+02</pdfrwt>
<pdfrwt beam="1">  1       -2 0.39337920E-02 0.80331611E+02</pdfrwt>
<totfact> 0.15290104E+05</totfact>
</mgrwt>
</event>
<event>
 4    1  0.2126213E+000  0.5149836E+02  0.7546771E-02  0.1437423E+00
         -2   -1    0    0    0  501 -0.00000000000E+00  0.00000000000E+00  0.88273875171E+02  0.88273875171E+02  0.00000000000E+00 0. -1.
          2   -1    0    0  501    0  0.00000000000E+00 -0.00000000000E+00 -0.75109442623E+01  0.75109442623E+01  0.00000000000E+00 0.  1.
        -13    1    1    2    0    0 -0.12845768848E+02 -0.12117753460E+02  0.55268881879E+01  0.18504059535E+02  0.00000000000E+00 0.  1.
         13    1    1    2    0    0  0.12845768848E+02  0.12117753460E+02  0.75236042721E+02  0.77280759898E+02  0.00000000000E+00 0. -1.
<mgrwt>
<rscale>  0 0.51498356E+02</rscale>
<asrwt>0</asrwt>
<pdfrwt beam="2">  1        2 0.11555299E-02 0.51498356E+02</pdfrwt>
<pdfrwt beam="1">  1       -2 0.13580595E-01 0.51498356E+02</pdfrwt>
<totfact> 0.33859614E+05</totfact>
</mgrwt>
</event>
<event>
 4    1  0.2126213E+000  0.1193701E+03  0.7546771E-02  0.1244140E+00
          2   -1    0    0  501    0  0.00000000000E+00  0.00000000000E+00  0.28142542555E+03  0.28142542555E+03  0.00000000000E+00 0.  1.
         -2   -1    0    0    0  501 -0.00000000000E+00 -0.00000000000E+00 -0.12658082976E+02  0.12658082976E+02  0.00000000000E+00 0. -1.
        -11    1    1    2    0    0  0.41294075602E+02  0.21961848138E+01  0.28353698471E+02  0.50139367014E+02  0.00000000000E+00 0. -1.
         11    1    1    2    0    0 -0.41294075602E+02 -0.21961848138E+01  0.24041364410E+03  0.24394414151E+03  0.00000000000E+00 0.  1.
<mgrwt>
<rscale>  0 0.11937012E+03</rscale>
<asrwt>0</asrwt>
<pdfrwt beam="1">  1        2 0.43296214E-01 0.11937012E+03</pdfrwt>
<pdfrwt beam="2">  1       -2 0.19473976E-02 0.11937012E+03</pdfrwt>
<totfact> 0.84432533E+04</totfact>
</mgrwt>
</event>
<event>
 4    1  0.2126213E+000  0.6383493E+02  0.7546771E-02  0.1382408E+00
         -2   -1    0    0    0  501 -0.00000000000E+00  0.00000000000E+00  0.17802077217E+03  0.17802077217E+03  0.00000000000E+00 0.  1.
          2   -1    0    0  501    0  0.00000000000E+00 -0.00000000000E+00 -0.57225037471E+01  0.57225037471E+01  0.00000000000E+00 0. -1.
        -13    1    1    2    0    0 -0.68301210086E+01  0.31063697120E+02  0.78468191167E+02  0.84669125759E+02  0.00000000000E+00 0. -1.
         13    1    1    2    0    0  0.68301210086E+01 -0.31063697120E+02  0.93830077254E+02  0.99074150157E+02  0.00000000000E+00 0.  1.
<mgrwt>
<rscale>  0 0.63834929E+02</rscale>
<asrwt>0</asrwt>
<pdfrwt beam="2">  1        2 0.88038533E-03 0.63834929E+02</pdfrwt>
<pdfrwt beam="1">  1       -2 0.27387807E-01 0.63834929E+02</pdfrwt>
<totfact> 0.16107218E+05</totfact>
</mgrwt>
</event>
<event>
 4    1  0.2126213E+000  0.4371425E+02  0.7546771E-02  0.1482532E+00
          2   -1    0    0  501    0  0.00000000000E+00  0.00000000000E+00  0.12608454785E+02  0.12608454785E+02  0.00000000000E+00 0. -1.
         -2   -1    0    0    0  501 -0.00000000000E+00 -0.00000000000E+00 -0.37889969577E+02  0.37889969577E+02  0.00000000000E+00 0.  1.
        -11    1    1    2    0    0  0.31642357644E+00  0.13844512232E+02  0.68940862848E+01  0.15469294377E+02  0.00000000000E+00 0. -1.
         11    1    1    2    0    0 -0.31642357644E+00 -0.13844512232E+02 -0.32175601077E+02  0.35029129985E+02  0.00000000000E+00 0.  1.
<mgrwt>
<rscale>  0 0.43714253E+02</rscale>
<asrwt>0</asrwt>
<pdfrwt beam="1">  1        2 0.19397623E-02 0.43714253E+02</pdfrwt>
<pdfrwt beam="2">  1       -2 0.58292261E-02 0.43714253E+02</pdfrwt>
<totfact> 0.58719812E+05</totfact>
</mgrwt>
</event>
<event>
 4    1  0.2126213E+000  0.4787579E+03  0.7546771E-02  0.1019477E+00
          2   -1    0    0  501    0  0.00000000000E+00  0.00000000000E+00  0.72596405083E+03  0.72596405083E+03  0.00000000000E+00 0. -1.
         -2   -1    0    0    0  501 -0.00000000000E+00 -0.00000000000E+00 -0.78932666277E+02  0.78932666277E+02  0.00000000000E+00 0.  1.
        -11    1    1    2    0    0  0.55005109099E+02 -0.12013821268E+03 -0.12069738910E+02  0.13268168966E+03  0.00000000000E+00 0.  1.
         11    1    1    2    0    0 -0.55005109099E+02  0.12013821268E+03  0.65910112346E+03  0.67221502744E+03  0.00000000000E+00 0. -1.
<mgrwt>
<rscale>  0 0.47875789E+03</rscale>
<asrwt>0</asrwt>
<pdfrwt beam="1">  1        2 0.11168677E+00 0.47875789E+03</pdfrwt>
<pdfrwt beam="2">  1       -2 0.12143488E-01 0.47875789E+03</pdfrwt>
<totfact> 0.19516329E+03</totfact>
</mgrwt>
</event>
<event>
 4    1  0.2126213E+000  0.2194158E+02  0.7546771E-02  0.1709264E+00
          2   -1    0    0  501    0  0.00000000000E+00  0.00000000000E+00  0.76220150114E+01  0.76220150114E+01  0.00000000000E+00 0. -1.
         -2   -1    0    0    0  501 -0.00000000000E+00 -0.00000000000E+00 -0.15790862634E+02  0.15790862634E+02  0.00000000000E+00 0.  1.
        -13    1    1    2    0    0  0.10481897673E+02  0.15456784250E+01 -0.71211089244E+01  0.12765950530E+02  0.00000000000E+00 0.  1.
         13    1    1    2    0    0 -0.10481897673E+02 -0.15456784250E+01 -0.10477386984E+01  0.10646927116E+02  0.00000000000E+00 0. -1.
<mgrwt>
<rscale>  0 0.21941576E+02</rscale>
<asrwt>0</asrwt>
<pdfrwt beam="1">  1        2 0.11726177E-02 0.21941576E+02</pdfrwt>
<pdfrwt beam="2">  1       -2 0.24293635E-02 0.21941576E+02</pdfrwt>
<totfact> 0.31180129E+06</totfact>
</mgrwt>
</event>
<event>
 4    1  0.2126213E+000  0.4813799E+02  0.7546771E-02  0.1455651E+00
         -2   -1    0    0    0  501 -0.00000000000E+00  0.00000000000E+00  0.27075782062E+01  0.27075782062E+01  0.00000000000E+00 0. -1.
          2   -1    0    0  501    0  0.00000000000E+00 -0.00000000000E+00 -0.21396110851E+03  0.21396110851E+03  0.00000000000E+00 0.  1.
        -11    1    1    2    0    0  0.70661445346E+01 -0.22674069126E+02 -0.12321673422E+03  0.12548468991E+03  0.00000000000E+00 0.  1.
         11    1    1    2    0    0 -0.70661445346E+01  0.22674069126E+02 -0.88036796085E+02  0.91183996810E+02  0.00000000000E+00 0. -1.
<mgrwt>
<rscale>  0 0.48137986E+02</rscale>
<asrwt>0</asrwt>
<pdfrwt beam="2">  1        2 0.32917105E-01 0.48137986E+02</pdfrwt>
<pdfrwt beam="1">  1       -2 0.41655035E-03 0.48137986E+02</pdfrwt>
<totfact> 0.82774362E+05</totfact>
</mgrwt>
</event>
<event>
 4    1  0.2126213E+000  0.3239997E+02  0.7546771E-02  0.1572981E+00
          2   -1    0    0  501    0  0.00000000000E+00  0.00000000000E+00  0.99319517717E+01  0.99319517717E+01  0.00000000000E+00 0. -1.
         -2   -1    0    0    0  501 -0.00000000000E+00 -0.00000000000E+00 -0.26423762370E+02  0.26423762370E+02  0.00000000000E+00 0.  1.
        -11    1    1    2    0    0  0.10830265441E+02  0.76480619126E+01 -0.18691121505E+02  0.22916053841E+02  0.00000000000E+00 0.  1.
         11    1    1    2    0    0 -0.10830265441E+02 -0.76480619126E+01  0.21993109066E+01  0.13439660301E+02  0.00000000000E+00 0. -1.
<mgrwt>
<rscale>  0 0.32399971E+02</rscale>
<asrwt>0</asrwt>
<pdfrwt beam="1">  1        2 0.15279926E-02 0.32399971E+02</pdfrwt>
<pdfrwt beam="2">  1       -2 0.40651942E-02 0.32399971E+02</pdfrwt>
<totfact> 0.12372825E+06</totfact>
</mgrwt>
</event>
<event>
 4    1  0.2126213E+000  0.8755051E+02  0.7546771E-02  0.1308894E+00
          4   -1    0    0  501    0  0.00000000000E+00  0.00000000000E+00  0.62013643157E+02  0.62013643157E+02  0.00000000000E+00 0. -1.
         -4   -1    0    0    0  501 -0.00000000000E+00 -0.00000000000E+00 -0.30900827137E+02  0.30900827137E+02  0.00000000000E+00 0.  1.
        -13    1    1    2    0    0 -0.24797398647E+02  0.25252434027E+02  0.42896683885E+02  0.55612245885E+02  0.00000000000E+00 0. -1.
         13    1    1    2    0    0  0.24797398647E+02 -0.25252434027E+02 -0.11783867865E+02  0.37302224409E+02  0.00000000000E+00 0.  1.
<mgrwt>
<rscale>  0 0.87550508E+02</rscale>
<asrwt>0</asrwt>
<pdfrwt beam="1">  1        4 0.95405605E-02 0.87550508E+02</pdfrwt>
<pdfrwt beam="2">  1       -4 0.47539734E-02 0.87550508E+02</pdfrwt>
<totfact> 0.30021753E+04</totfact>
</mgrwt>
</event>
<event>
 4    1  0.2126213E+000  0.5795917E+02  0.7546771E-02  0.1406601E+00
         -2   -1    0    0    0  501 -0.00000000000E+00  0.00000000000E+00  0.61387380392E+01  0.61387380392E+01  0.00000000000E+00 0.  1.
          2   -1    0    0  501    0  0.00000000000E+00 -0.00000000000E+00 -0.13680603469E+03  0.13680603469E+03  0.00000000000E+00 0. -1.
        -13    1    1    2    0    0  0.18694292674E+02 -0.12049434123E+02 -0.11115318070E+03  0.11335649528E+03  0.00000000000E+00 0. -1.
         13    1    1    2    0    0 -0.18694292674E+02  0.12049434123E+02 -0.19514115945E+02  0.29588277449E+02  0.00000000000E+00 0.  1.
<mgrwt>
<rscale>  0 0.57959172E+02</rscale>
<asrwt>0</asrwt>
<pdfrwt beam="2">  1        2 0.21047081E-01 0.57959172E+02</pdfrwt>
<pdfrwt beam="1">  1       -2 0.94442131E-03 0.57959172E+02</pdfrwt>
<totfact> 0.44869975E+05</totfact>
</mgrwt>
</event>
<event>
 4    1  0.2126213E+000  0.2400519E+02  0.7546771E-02  0.1675716E+00
          1   -1    0    0  501    0  0.00000000000E+00  0.00000000000E+00  0.71533455147E+02  0.71533455147E+02  0.00000000000E+00 0.  1.
         -1   -1    0    0    0  501 -0.00000000000E+00 -0.00000000000E+00 -0.20139154652E+01  0.20139154652E+01  0.00000000000E+00 0. -1.
        -13    1    1    2    0    0 -0.87672834537E+01  0.80491850273E+01  0.30005733730E+02  0.32280004576E+02  0.00000000000E+00 0. -1.
         13    1    1    2    0    0  0.87672834537E+01 -0.80491850273E+01  0.39513805951E+02  0.41267366036E+02  0.00000000000E+00 0.  1.
<mgrwt>
<rscale>  0 0.24005194E+02</rscale>
<asrwt>0</asrwt>
<pdfrwt beam="1">  1        1 0.11005145E-01 0.24005194E+02</pdfrwt>
<pdfrwt beam="2">  1       -1 0.30983320E-03 0.24005194E+02</pdfrwt>
<totfact> 0.28459864E+06</totfact>
</mgrwt>
</event>
<event>
 4    1  0.2126213E+000  0.2167403E+02  0.7546771E-02  0.1713951E+00
         -2   -1    0    0    0  501 -0.00000000000E+00  0.00000000000E+00  0.22896890810E+01  0.22896890810E+01  0.00000000000E+00 0.  1.
          2   -1    0    0  501    0  0.00000000000E+00 -0.00000000000E+00 -0.51291195281E+02  0.51291195281E+02  0.00000000000E+00 0. -1.
        -11    1    1    2    0    0  0.10674658975E+02  0.17628632248E+01 -0.22967121923E+02  0.25387885308E+02  0.00000000000E+00 0. -1.
         11    1    1    2    0    0 -0.10674658975E+02 -0.17628632248E+01 -0.26034384277E+02  0.28192999054E+02  0.00000000000E+00 0.  1.
<mgrwt>
<rscale>  0 0.21674030E+02</rscale>
<asrwt>0</asrwt>
<pdfrwt beam="2">  1        2 0.78909527E-02 0.21674030E+02</pdfrwt>
<pdfrwt beam="1">  1       -2 0.35225988E-03 0.21674030E+02</pdfrwt>
<totfact> 0.38831402E+06</totfact>
</mgrwt>
</event>
<event>
 4    1  0.2126213E+000  0.2967911E+02  0.7546771E-02  0.1601663E+00
         -3   -1    0    0    0  501 -0.00000000000E+00  0.00000000000E+00  0.16266739505E+02  0.16266739505E+02  0.00000000000E+00 0.  1.
          3   -1    0    0  501    0  0.00000000000E+00 -0.00000000000E+00 -0.13537582259E+02  0.13537582259E+02  0.00000000000E+00 0. -1.
        -11    1    1    2    0    0 -0.14231610725E+02 -0.17100344601E+01  0.52212715504E+01  0.15255315083E+02  0.00000000000E+00 0. -1.
         11    1    1    2    0    0  0.14231610725E+02  0.17100344601E+01 -0.24921143042E+01  0.14549006681E+02  0.00000000000E+00 0.  1.
<mgrwt>
<rscale>  0 0.29679105E+02</rscale>
<asrwt>0</asrwt>
<pdfrwt beam="2">  1        3 0.20827050E-02 0.29679105E+02</pdfrwt>
<pdfrwt beam="1">  1       -3 0.25025753E-02 0.29679105E+02</pdfrwt>
<totfact> 0.71257748E+05</totfact>
</mgrwt>
</event>
<event>
 4    1  0.2126213E+000  0.2692861E+02  0.7546771E-02  0.1634752E+00
         -2   -1    0    0    0  501 -0.00000000000E+00  0.00000000000E+00  0.25308348961E+01  0.25308348961E+01  0.00000000000E+00 0. -1.
          2   -1    0    0  501    0  0.00000000000E+00 -0.00000000000E+00 -0.71631505402E+02  0.71631505402E+02  0.00000000000E+00 0.  1.
        -13    1    1    2    0    0  0.32090307682E+01  0.13037389356E+02 -0.37326470802E+02  0.39667831075E+02  0.00000000000E+00 0.  1.
         13    1    1    2    0    0 -0.32090307682E+01 -0.13037389356E+02 -0.31774199704E+02  0.34494509222E+02  0.00000000000E+00 0. -1.
<mgrwt>
<rscale>  0 0.26928610E+02</rscale>
<asrwt>0</asrwt>
<pdfrwt beam="2">  1        2 0.11020228E-01 0.26928610E+02</pdfrwt>
<pdfrwt beam="1">  1       -2 0.38935934E-03 0.26928610E+02</pdfrwt>
<totfact> 0.25021426E+06</totfact>
</mgrwt>
</event>
<event>
 4    1  0.2126213E+000  0.2623754E+02  0.7546771E-02  0.1643838E+00
         -3   -1    0    0    0  501 -0.00000000000E+00  0.00000000000E+00  0.33894277605E+02  0.33894277605E+02  0.00000000000E+00 0.  1.
          3   -1    0    0  501    0  0.00000000000E+00 -0.00000000000E+00 -0.50776165540E+01  0.50776165540E+01  0.00000000000E+00 0. -1.
        -11    1    1    2    0    0 -0.11888651802E+02  0.53251629102E+01  0.16711695427E+02  0.21189104882E+02  0.00000000000E+00 0. -1.
         11    1    1    2    0    0  0.11888651802E+02 -0.53251629102E+01  0.12104965625E+02  0.17782789277E+02  0.00000000000E+00 0.  1.
<mgrwt>
<rscale>  0 0.26237541E+02</rscale>
<asrwt>0</asrwt>
<pdfrwt beam="2">  1        3 0.78117180E-03 0.26237541E+02</pdfrwt>
<pdfrwt beam="1">  1       -3 0.52145041E-02 0.26237541E+02</pdfrwt>
<totfact> 0.91916415E+05</totfact>
</mgrwt>
</event>
<event>
 4    1  0.2126213E+000  0.2375218E+02  0.7546771E-02  0.1679600E+00
          4   -1    0    0  501    0  0.00000000000E+00  0.00000000000E+00  0.40193520438E+02  0.40193520438E+02  0.00000000000E+00 0.  1.
         -4   -1    0    0    0  501 -0.00000000000E+00 -0.00000000000E+00 -0.35090600377E+01  0.35090600377E+01  0.00000000000E+00 0. -1.
        -13    1    1    2    0    0  0.10658742898E+02  0.35863258508E+01  0.25365631659E+02  0.27746816083E+02  0.00000000000E+00 0.  1.
         13    1    1    2    0    0 -0.10658742898E+02 -0.35863258508E+01  0.11318828741E+02  0.15955764393E+02  0.00000000000E+00 0. -1.
<mgrwt>
<rscale>  0 0.23752177E+02</rscale>
<asrwt>0</asrwt>
<pdfrwt beam="1">  1        4 0.61836182E-02 0.23752177E+02</pdfrwt>
<pdfrwt beam="2">  1       -4 0.53985542E-03 0.23752177E+02</pdfrwt>
<totfact> 0.82509019E+05</totfact>
</mgrwt>
</event>
<event>
 4    1  0.2126213E+000  0.2952843E+02  0.7546771E-02  0.1603360E+00
         -1   -1    0    0    0  501 -0.00000000000E+00  0.00000000000E+00  0.48162683751E+01  0.48162683751E+01  0.00000000000E+00 0.  1.
          1   -1    0    0  501    0  0.00000000000E+00 -0.00000000000E+00 -0.45259531412E+02  0.45259531412E+02  0.00000000000E+00 0. -1.
        -13    1    1    2    0    0  0.10061615992E+02 -0.62599125554E+01 -0.52866450990E+01  0.12975794310E+02  0.00000000000E+00 0. -1.
         13    1    1    2    0    0 -0.10061615992E+02  0.62599125554E+01 -0.35156617937E+02  0.37100005477E+02  0.00000000000E+00 0.  1.
<mgrwt>
<rscale>  0 0.29528430E+02</rscale>
<asrwt>0</asrwt>
<pdfrwt beam="2">  1        1 0.69630046E-02 0.29528430E+02</pdfrwt>
<pdfrwt beam="1">  1       -1 0.74096439E-03 0.29528430E+02</pdfrwt>
<totfact> 0.16913527E+06</totfact>
</mgrwt>
</event>
<event>
 4    1  0.2126213E+000  0.2420688E+02  0.7546771E-02  0.1672662E+00
          2   -1    0    0  501    0  0.00000000000E+00  0.00000000000E+00  0.46495933096E+02  0.46495933096E+02  0.00000000000E+00 0.  1.
         -2   -1    0    0    0  501 -0.00000000000E+00 -0.00000000000E+00 -0.31506694502E+01  0.31506694502E+01  0.00000000000E+00 0. -1.
        -13    1    1    2    0    0  0.78950603945E+01  0.86306380318E+01  0.28051457833E+02  0.30392502003E+02  0.00000000000E+00 0.  1.
         13    1    1    2    0    0 -0.78950603945E+01 -0.86306380318E+01  0.15293805813E+02  0.19254100543E+02  0.00000000000E+00 0. -1.
<mgrwt>
<rscale>  0 0.24206885E+02</rscale>
<asrwt>0</asrwt>
<pdfrwt beam="1">  1        2 0.71532200E-02 0.24206885E+02</pdfrwt>
<pdfrwt beam="2">  1       -2 0.48471841E-03 0.24206885E+02</pdfrwt>
<totfact> 0.29727183E+06</totfact>
</mgrwt>
</event>
<event>
 4    1  0.2126213E+000  0.2085172E+02  0.7546771E-02  0.1728902E+00
         -4   -1    0    0    0  501 -0.00000000000E+00  0.00000000000E+00  0.14609141693E+01  0.14609141693E+01  0.00000000000E+00 0. -1.
          4   -1    0    0  501    0  0.00000000000E+00 -0.00000000000E+00 -0.74404509264E+02  0.74404509264E+02  0.00000000000E+00 0.  1.
        -11    1    1    2    0    0 -0.71845157695E+01  0.74727364469E+01 -0.40522525337E+02  0.41827432584E+02  0.00000000000E+00 0.  1.
         11    1    1    2    0    0  0.71845157695E+01 -0.74727364469E+01 -0.32421069758E+02  0.34037990850E+02  0.00000000000E+00 0. -1.
<mgrwt>
<rscale>  0 0.20851724E+02</rscale>
<asrwt>0</asrwt>
<pdfrwt beam="2">  1        4 0.11446848E-01 0.20851724E+02</pdfrwt>
<pdfrwt beam="1">  1       -4 0.22475602E-03 0.20851724E+02</pdfrwt>
<totfact> 0.96953306E+05</totfact>
</mgrwt>
</event>
<event>
 4    1  0.2126213E+000  0.2766790E+02  0.7546771E-02  0.1625397E+00
         -4   -1    0    0    0  501 -0.00000000000E+00  0.00000000000E+00  0.37716637094E+01  0.37716637094E+01  0.00000000000E+00 0.  1.
          4   -1    0    0  501    0  0.00000000000E+00 -0.00000000000E+00 -0.50741040670E+02  0.50741040670E+02  0.00000000000E+00 0. -1.
        -13    1    1    2    0    0 -0.94422376846E+01 -0.54432891390E+01 -0.66978614126E+01  0.12792442951E+02  0.00000000000E+00 0.  1.
         13    1    1    2    0    0  0.94422376846E+01  0.54432891390E+01 -0.40271515548E+02  0.41720261429E+02  0.00000000000E+00 0. -1.
<mgrwt>
<rscale>  0 0.27667898E+02</rscale>
<asrwt>0</asrwt>
<pdfrwt beam="2">  1        4 0.78063137E-02 0.27667898E+02</pdfrwt>
<pdfrwt beam="1">  1       -4 0.58025597E-03 0.27667898E+02</pdfrwt>
<totfact> 0.57066581E+05</totfact>
</mgrwt>
</event>
<event>
 4    1  0.2126213E+000  0.2594686E+02  0.7546771E-02  0.1647763E+00
         -2   -1    0    0    0  501 -0.00000000000E+00  0.00000000000E+00  0.20762866090E+02  0.20762866090E+02  0.00000000000E+00 0.  1.
          2   -1    0    0  501    0  0.00000000000E+00 -0.00000000000E+00 -0.81062913832E+01  0.81062913832E+01  0.00000000000E+00 0. -1.
        -13    1    1    2    0    0  0.67715522711E+01  0.10490054498E+02  0.10248567501E+02  0.16153275190E+02  0.00000000000E+00 0.  1.
         13    1    1    2    0    0 -0.67715522711E+01 -0.10490054498E+02  0.24080072056E+01  0.12715882283E+02  0.00000000000E+00 0. -1.
<mgrwt>
<rscale>  0 0.25946857E+02</rscale>
<asrwt>0</asrwt>
<pdfrwt beam="2">  1        2 0.12471218E-02 0.25946857E+02</pdfrwt>
<pdfrwt beam="1">  1       -2 0.31942871E-02 0.25946857E+02</pdfrwt>
<totfact> 0.21001120E+06</totfact>
</mgrwt>
</event>
<event>
 4    1  0.2126213E+000  0.2249526E+02  0.7546771E-02  0.1699825E+00
         -2   -1    0    0    0  501 -0.00000000000E+00  0.00000000000E+00  0.46559333695E+02  0.46559333695E+02  0.00000000000E+00 0. -1.
          2   -1    0    0  501    0  0.00000000000E+00 -0.00000000000E+00 -0.27171596216E+01  0.27171596216E+01  0.00000000000E+00 0.  1.
        -13    1    1    2    0    0  0.10280764416E+02  0.17857900852E+01  0.12724525943E+02  0.16455902396E+02  0.00000000000E+00 0. -1.
         13    1    1    2    0    0 -0.10280764416E+02 -0.17857900852E+01  0.31117648130E+02  0.32820590921E+02  0.00000000000E+00 0.  1.
<mgrwt>
<rscale>  0 0.22495257E+02</rscale>
<asrwt>0</asrwt>
<pdfrwt beam="2">  1        2 0.41802459E-03 0.22495257E+02</pdfrwt>
<pdfrwt beam="1">  1       -2 0.71629738E-02 0.22495257E+02</pdfrwt>
<totfact> 0.26416314E+06</totfact>
</mgrwt>
</event>
<event>
 4    1  0.2126213E+000  0.4359558E+02  0.7546771E-02  0.1483305E+00
          1   -1    0    0  501    0  0.00000000000E+00  0.00000000000E+00  0.14428298371E+02  0.14428298371E+02  0.00000000000E+00 0. -1.
         -1   -1    0    0    0  501 -0.00000000000E+00 -0.00000000000E+00 -0.32931370904E+02  0.32931370904E+02  0.00000000000E+00 0.  1.
        -11    1    1    2    0    0  0.15430854627E+02 -0.13994977903E+02 -0.22809024344E+01  0.20956459551E+02  0.00000000000E+00 0. -1.
         11    1    1    2    0    0 -0.15430854627E+02  0.13994977903E+02 -0.16222170099E+02  0.26403209724E+02  0.00000000000E+00 0.  1.
<mgrwt>
<rscale>  0 0.43595580E+02</rscale>
<asrwt>0</asrwt>
<pdfrwt beam="1">  1        1 0.22197382E-02 0.43595580E+02</pdfrwt>
<pdfrwt beam="2">  1       -1 0.50663647E-02 0.43595580E+02</pdfrwt>
<totfact> 0.59483217E+05</totfact>
</mgrwt>
</event>
<event>
 4    1  0.2126213E+000  0.4059283E+02  0.7546771E-02  0.1503894E+00
          4   -1    0    0  501    0  0.00000000000E+00  0.00000000000E+00  0.97619074487E+01  0.97619074487E+01  0.00000000000E+00 0. -1.
         -4   -1    0    0    0  501 -0.00000000000E+00 -0.00000000000E+00 -0.42199177304E+02  0.42199177304E+02  0.00000000000E+00 0.  1.
        -11    1    1    2    0    0 -0.10161317560E+02  0.28309373742E+01  0.59776156813E+01  0.12124292566E+02  0.00000000000E+00 0. -1.
         11    1    1    2    0    0  0.10161317560E+02 -0.28309373742E+01 -0.38414885536E+02  0.39836792187E+02  0.00000000000E+00 0.  1.
<mgrwt>
<rscale>  0 0.40592830E+02</rscale>
<asrwt>0</asrwt>
<pdfrwt beam="1">  1        4 0.15018319E-02 0.40592830E+02</pdfrwt>
<pdfrwt beam="2">  1       -4 0.64921811E-02 0.40592830E+02</pdfrwt>
<totfact> 0.23827278E+05</totfact>
</mgrwt>
</event>
<event>
 4    1  0.2126213E+000  0.2315056E+02  0.7546771E-02  0.1689081E+00
         -4   -1    0    0    0  501 -0.00000000000E+00  0.00000000000E+00  0.12578395585E+02  0.12578395585E+02  0.00000000000E+00 0.  1.
          4   -1    0    0  501    0  0.00000000000E+00 -0.00000000000E+00 -0.10652165586E+02  0.10652165586E+02  0.00000000000E+00 0. -1.
        -11    1    1    2    0    0  0.38267539555E+01  0.94305328684E+01 -0.45702991049E+01  0.11156461353E+02  0.00000000000E+00 0. -1.
         11    1    1    2    0    0 -0.38267539555E+01 -0.94305328684E+01  0.64965291042E+01  0.12074099818E+02  0.00000000000E+00 0.  1.
<mgrwt>
<rscale>  0 0.23150564E+02</rscale>
<asrwt>0</asrwt>
<pdfrwt beam="2">  1        4 0.16387947E-02 0.23150564E+02</pdfrwt>
<pdfrwt beam="1">  1       -4 0.19351378E-02 0.23150564E+02</pdfrwt>
<totfact> 0.94503934E+05</totfact>
</mgrwt>
</event>
<event>
 4    1  0.2126213E+000  0.2397038E+02  0.7546771E-02  0.1676247E+00
         -4   -1    0    0    0  501 -0.00000000000E+00  0.00000000000E+00  0.13790909053E+02  0.13790909053E+02  0.00000000000E+00 0.  1.
          4   -1    0    0  501    0  0.00000000000E+00 -0.00000000000E+00 -0.10415900590E+02  0.10415900590E+02  0.00000000000E+00 0. -1.
        -13    1    1    2    0    0 -0.85690670763E+01  0.64814866860E+01  0.70508359972E+01  0.12851181599E+02  0.00000000000E+00 0.  1.
         13    1    1    2    0    0  0.85690670763E+01 -0.64814866860E+01 -0.36758275349E+01  0.11355628045E+02  0.00000000000E+00 0. -1.
<mgrwt>
<rscale>  0 0.23970377E+02</rscale>
<asrwt>0</asrwt>
<pdfrwt beam="2">  1        4 0.16024463E-02 0.23970377E+02</pdfrwt>
<pdfrwt beam="1">  1       -4 0.21216783E-02 0.23970377E+02</pdfrwt>
<totfact> 0.87373083E+05</totfact>
</mgrwt>
</event>
<event>
 4    1  0.2126213E+000  0.7784618E+02  0.7546771E-02  0.1335277E+00
          4   -1    0    0  501    0  0.00000000000E+00  0.00000000000E+00  0.35008600064E+02  0.35008600064E+02  0.00000000000E+00 0. -1.
         -4   -1    0    0    0  501 -0.00000000000E+00 -0.00000000000E+00 -0.43275280935E+02  0.43275280935E+02  0.00000000000E+00 0.  1.
        -13    1    1    2    0    0  0.21642607580E+02  0.55626820712E+01  0.27915287675E+02  0.35757645066E+02  0.00000000000E+00 0. -1.
         13    1    1    2    0    0 -0.21642607580E+02 -0.55626820712E+01 -0.36181968546E+02  0.42526235932E+02  0.00000000000E+00 0.  1.
<mgrwt>
<rscale>  0 0.77846182E+02</rscale>
<asrwt>0</asrwt>
<pdfrwt beam="1">  1        4 0.53859385E-02 0.77846182E+02</pdfrwt>
<pdfrwt beam="2">  1       -4 0.66577355E-02 0.77846182E+02</pdfrwt>
<totfact> 0.42633988E+04</totfact>
</mgrwt>
</event>
<event>
 4    1  0.2126213E+000  0.3497812E+02  0.7546771E-02  0.1548795E+00
          1   -1    0    0  501    0  0.00000000000E+00  0.00000000000E+00  0.39380893393E+02  0.39380893393E+02  0.00000000000E+00 0. -1.
         -1   -1    0    0    0  501 -0.00000000000E+00 -0.00000000000E+00 -0.77668948603E+01  0.77668948603E+01  0.00000000000E+00 0.  1.
        -11    1    1    2    0    0 -0.16783262018E+02 -0.38949860019E+01  0.19854910593E+02  0.26288139428E+02  0.00000000000E+00 0.  1.
         11    1    1    2    0    0  0.16783262018E+02  0.38949860019E+01  0.11759087939E+02  0.20859648825E+02  0.00000000000E+00 0. -1.
<mgrwt>
<rscale>  0 0.34978122E+02</rscale>
<asrwt>0</asrwt>
<pdfrwt beam="1">  1        1 0.60585989E-02 0.34978122E+02</pdfrwt>
<pdfrwt beam="2">  1       -1 0.11949069E-02 0.34978122E+02</pdfrwt>
<totfact> 0.11140164E+06</totfact>
</mgrwt>
</event>
<event>
 4    1  0.2126213E+000  0.3349250E+02  0.7546771E-02  0.1562410E+00
          2   -1    0    0  501    0  0.00000000000E+00  0.00000000000E+00  0.16154187064E+02  0.16154187064E+02  0.00000000000E+00 0. -1.
         -2   -1    0    0    0  501 -0.00000000000E+00 -0.00000000000E+00 -0.17360010630E+02  0.17360010630E+02  0.00000000000E+00 0.  1.
        -11    1    1    2    0    0  0.70160796718E+01  0.13040359127E+02  0.72226741610E+01  0.16475538297E+02  0.00000000000E+00 0. -1.
         11    1    1    2    0    0 -0.70160796718E+01 -0.13040359127E+02 -0.84284977261E+01  0.17038659397E+02  0.00000000000E+00 0.  1.
<mgrwt>
<rscale>  0 0.33492498E+02</rscale>
<asrwt>0</asrwt>
<pdfrwt beam="1">  1        2 0.24852596E-02 0.33492498E+02</pdfrwt>
<pdfrwt beam="2">  1       -2 0.26707708E-02 0.33492498E+02</pdfrwt>
<totfact> 0.12023618E+06</totfact>
</mgrwt>
</event>
<event>
 4    1  0.2126213E+000  0.3043416E+02  0.7546771E-02  0.1593339E+00
         -3   -1    0    0    0  501 -0.00000000000E+00  0.00000000000E+00  0.46283727831E+02  0.46283727831E+02  0.00000000000E+00 0. -1.
          3   -1    0    0  501    0  0.00000000000E+00 -0.00000000000E+00 -0.50030435188E+01  0.50030435188E+01  0.00000000000E+00 0.  1.
        -11    1    1    2    0    0 -0.11307227048E+02 -0.44914332618E+01  0.36042213217E+02  0.38040340296E+02  0.00000000000E+00 0. -1.
         11    1    1    2    0    0  0.11307227048E+02  0.44914332618E+01  0.52384710955E+01  0.13246431054E+02  0.00000000000E+00 0.  1.
<mgrwt>
<rscale>  0 0.30434159E+02</rscale>
<asrwt>0</asrwt>
<pdfrwt beam="2">  1        3 0.76969903E-03 0.30434159E+02</pdfrwt>
<pdfrwt beam="1">  1       -3 0.71205732E-02 0.30434159E+02</pdfrwt>
<totfact> 0.62964694E+05</totfact>
</mgrwt>
</event>
<event>
 4    1  0.2126213E+000  0.2365136E+02  0.7546771E-02  0.1681164E+00
         -2   -1    0    0    0  501 -0.00000000000E+00  0.00000000000E+00  0.20414983083E+01  0.20414983083E+01  0.00000000000E+00 0. -1.
          2   -1    0    0  501    0  0.00000000000E+00 -0.00000000000E+00 -0.68502012455E+02  0.68502012455E+02  0.00000000000E+00 0.  1.
        -13    1    1    2    0    0 -0.98762573455E+00  0.10989022134E+02 -0.20536421777E+02  0.23312628154E+02  0.00000000000E+00 0. -1.
         13    1    1    2    0    0  0.98762573455E+00 -0.10989022134E+02 -0.45924092370E+02  0.47230882610E+02  0.00000000000E+00 0.  1.
<mgrwt>
<rscale>  0 0.23651363E+02</rscale>
<asrwt>0</asrwt>
<pdfrwt beam="2">  1        2 0.10538769E-01 0.23651363E+02</pdfrwt>
<pdfrwt beam="1">  1       -2 0.31407672E-03 0.23651363E+02</pdfrwt>
<totfact> 0.33469405E+06</totfact>
</mgrwt>
</event>
<event>
 4    1  0.2126213E+000  0.3153693E+02  0.7546771E-02  0.1581696E+00
         -2   -1    0    0    0  501 -0.00000000000E+00  0.00000000000E+00  0.13109279401E+02  0.13109279401E+02  0.00000000000E+00 0. -1.
          2   -1    0    0  501    0  0.00000000000E+00 -0.00000000000E+00 -0.18967062172E+02  0.18967062172E+02  0.00000000000E+00 0.  1.
        -11    1    1    2    0    0  0.11024188109E+02 -0.38222490043E+01  0.78592321327E+01  0.14068043241E+02  0.00000000000E+00 0. -1.
         11    1    1    2    0    0 -0.11024188109E+02  0.38222490043E+01 -0.13717014904E+02  0.18008298331E+02  0.00000000000E+00 0.  1.
<mgrwt>
<rscale>  0 0.31536932E+02</rscale>
<asrwt>0</asrwt>
<pdfrwt beam="2">  1        2 0.29180096E-02 0.31536932E+02</pdfrwt>
<pdfrwt beam="1">  1       -2 0.20168122E-02 0.31536932E+02</pdfrwt>
<totfact> 0.14200336E+06</totfact>
</mgrwt>
</event>
<event>
 4    1  0.2126213E+000  0.2271638E+02  0.7546771E-02  0.1696149E+00
          2   -1    0    0  501    0  0.00000000000E+00  0.00000000000E+00  0.13907608668E+02  0.13907608668E+02  0.00000000000E+00 0. -1.
         -2   -1    0    0    0  501 -0.00000000000E+00 -0.00000000000E+00 -0.92761055157E+01  0.92761055157E+01  0.00000000000E+00 0.  1.
        -11    1    1    2    0    0  0.10432563487E+02  0.39801162084E+01  0.44391166734E+01  0.12016050216E+02  0.00000000000E+00 0. -1.
         11    1    1    2    0    0 -0.10432563487E+02 -0.39801162084E+01  0.19238647942E+00  0.11167663968E+02  0.00000000000E+00 0.  1.
<mgrwt>
<rscale>  0 0.22716377E+02</rscale>
<asrwt>0</asrwt>
<pdfrwt beam="1">  1        2 0.21396321E-02 0.22716377E+02</pdfrwt>
<pdfrwt beam="2">  1       -2 0.14270932E-02 0.22716377E+02</pdfrwt>
<totfact> 0.30183564E+06</totfact>
</mgrwt>
</event>
<event>
 4    1  0.2126213E+000  0.2541103E+02  0.7546771E-02  0.1655167E+00
          3   -1    0    0  501    0  0.00000000000E+00  0.00000000000E+00  0.13618966550E+02  0.13618966550E+02  0.00000000000E+00 0. -1.
         -3   -1    0    0    0  501 -0.00000000000E+00 -0.00000000000E+00 -0.11853328768E+02  0.11853328768E+02  0.00000000000E+00 0.  1.
        -13    1    1    2    0    0  0.96285067771E+01  0.79897537614E+01 -0.13328905127E+01  0.12582563532E+02  0.00000000000E+00 0. -1.
         13    1    1    2    0    0 -0.96285067771E+01 -0.79897537614E+01  0.30985282951E+01  0.12889731786E+02  0.00000000000E+00 0.  1.
<mgrwt>
<rscale>  0 0.25411028E+02</rscale>
<asrwt>0</asrwt>
<pdfrwt beam="1">  1        3 0.20952256E-02 0.25411028E+02</pdfrwt>
<pdfrwt beam="2">  1       -3 0.18235890E-02 0.25411028E+02</pdfrwt>
<totfact> 0.10326431E+06</totfact>
</mgrwt>
</event>
<event>
 4    1  0.2126213E+000  0.2687706E+02  0.7546771E-02  0.1635418E+00
         -1   -1    0    0    0  501 -0.00000000000E+00  0.00000000000E+00  0.88004981001E+02  0.88004981001E+02  0.00000000000E+00 0. -1.
          1   -1    0    0  501    0  0.00000000000E+00 -0.00000000000E+00 -0.20520896636E+01  0.20520896636E+01  0.00000000000E+00 0.  1.
        -13    1    1    2    0    0  0.11496180652E+01  0.12289905688E+02  0.25173293040E+02  0.28036727448E+02  0.00000000000E+00 0.  1.
         13    1    1    2    0    0 -0.11496180652E+01 -0.12289905688E+02  0.60779598297E+02  0.62020343216E+02  0.00000000000E+00 0. -1.
<mgrwt>
<rscale>  0 0.26877062E+02</rscale>
<asrwt>0</asrwt>
<pdfrwt beam="2">  1        1 0.31570617E-03 0.26877062E+02</pdfrwt>
<pdfrwt beam="1">  1       -1 0.13539225E-01 0.26877062E+02</pdfrwt>
<totfact> 0.16746557E+06</totfact>
</mgrwt>
</event>
<event>
 4    1  0.2126213E+000  0.2496504E+02  0.7546771E-02  0.1661505E+00
         -1   -1    0    0    0  501 -0.00000000000E+00  0.00000000000E+00  0.96699554323E+01  0.96699554323E+01  0.00000000000E+00 0. -1.
          1   -1    0    0  501    0  0.00000000000E+00 -0.00000000000E+00 -0.16113134847E+02  0.16113134847E+02  0.00000000000E+00 0.  1.
        -13    1    1    2    0    0  0.11620018776E+02  0.86994532374E+00 -0.78439216303E+01  0.14046663226E+02  0.00000000000E+00 0. -1.
         13    1    1    2    0    0 -0.11620018776E+02 -0.86994532374E+00  0.14007422157E+01  0.11736427054E+02  0.00000000000E+00 0.  1.
<mgrwt>
<rscale>  0 0.24965039E+02</rscale>
<asrwt>0</asrwt>
<pdfrwt beam="2">  1        1 0.24789438E-02 0.24965039E+02</pdfrwt>
<pdfrwt beam="1">  1       -1 0.14876855E-02 0.24965039E+02</pdfrwt>
<totfact> 0.23651952E+06</totfact>
</mgrwt>
</event>
<event>
 4    1  0.2126213E+000  0.6262601E+02  0.7546771E-02  0.1387131E+00
          2   -1    0    0  501    0  0.00000000000E+00  0.00000000000E+00  0.18082858597E+02  0.18082858597E+02  0.00000000000E+00 0. -1.
         -2   -1    0    0    0  501 -0.00000000000E+00 -0.00000000000E+00 -0.54222855201E+02  0.54222855201E+02  0.00000000000E+00 0.  1.
        -13    1    1    2    0    0  0.11362000911E+02  0.15664523671E+02  0.10352720263E+02  0.21946552881E+02  0.00000000000E+00 0. -1.
         13    1    1    2    0    0 -0.11362000911E+02 -0.15664523671E+02 -0.46492716867E+02  0.50359160916E+02  0.00000000000E+00 0.  1.
<mgrwt>
<rscale>  0 0.62626008E+02</rscale>
<asrwt>0</asrwt>
<pdfrwt beam="1">  1        2 0.27819783E-02 0.62626008E+02</pdfrwt>
<pdfrwt beam="2">  1       -2 0.83419775E-02 0.62626008E+02</pdfrwt>
<totfact> 0.23333638E+05</totfact>
</mgrwt>
</event>
<event>
 4    1  0.2126213E+000  0.3013196E+02  0.7546771E-02  0.1596635E+00
         -2   -1    0    0    0  501 -0.00000000000E+00  0.00000000000E+00  0.48325386038E+01  0.48325386038E+01  0.00000000000E+00 0.  1.
          2   -1    0    0  501    0  0.00000000000E+00 -0.00000000000E+00 -0.46969872014E+02  0.46969872014E+02  0.00000000000E+00 0. -1.
        -11    1    1    2    0    0 -0.95891741441E+01 -0.96696476564E+01 -0.99896731954E+01  0.16889284091E+02  0.00000000000E+00 0.  1.
         11    1    1    2    0    0  0.95891741441E+01  0.96696476564E+01 -0.32147660215E+02  0.34913126526E+02  0.00000000000E+00 0. -1.
<mgrwt>
<rscale>  0 0.30131958E+02</rscale>
<asrwt>0</asrwt>
<pdfrwt beam="2">  1        2 0.72261344E-02 0.30131958E+02</pdfrwt>
<pdfrwt beam="1">  1       -2 0.74346746E-03 0.30131958E+02</pdfrwt>
<totfact> 0.17813172E+06</totfact>
</mgrwt>
</event>
<event>
 4    1  0.2126213E+000  0.2818700E+02  0.7546771E-02  0.1619039E+00
          1   -1    0    0  501    0  0.00000000000E+00  0.00000000000E+00  0.54800537395E+02  0.54800537395E+02  0.00000000000E+00 0.  1.
         -1   -1    0    0    0  501 -0.00000000000E+00 -0.00000000000E+00 -0.36245403018E+01  0.36245403018E+01  0.00000000000E+00 0. -1.
        -13    1    1    2    0    0  0.10216937441E+02 -0.96151560033E+01  0.22815042027E+02  0.26783636391E+02  0.00000000000E+00 0. -1.
         13    1    1    2    0    0 -0.10216937441E+02  0.96151560033E+01  0.28360955066E+02  0.31641441306E+02  0.00000000000E+00 0.  1.
<mgrwt>
<rscale>  0 0.28187001E+02</rscale>
<asrwt>0</asrwt>
<pdfrwt beam="1">  1        1 0.84308513E-02 0.28187001E+02</pdfrwt>
<pdfrwt beam="2">  1       -1 0.55762162E-03 0.28187001E+02</pdfrwt>
<totfact> 0.19160370E+06</totfact>
</mgrwt>
</event>
<event>
 4    1  0.2126213E+000  0.4427906E+02  0.7546771E-02  0.1478893E+00
          3   -1    0    0  501    0  0.00000000000E+00  0.00000000000E+00  0.17853968745E+02  0.17853968745E+02  0.00000000000E+00 0. -1.
         -3   -1    0    0    0  501 -0.00000000000E+00 -0.00000000000E+00 -0.27453766762E+02  0.27453766762E+02  0.00000000000E+00 0.  1.
        -11    1    1    2    0    0  0.18706946244E+02 -0.70270812913E+01  0.49519335369E+01  0.20587650546E+02  0.00000000000E+00 0. -1.
         11    1    1    2    0    0 -0.18706946244E+02  0.70270812913E+01 -0.14551731554E+02  0.24720084961E+02  0.00000000000E+00 0.  1.
<mgrwt>
<rscale>  0 0.44279056E+02</rscale>
<asrwt>0</asrwt>
<pdfrwt beam="1">  1        3 0.27467644E-02 0.44279056E+02</pdfrwt>
<pdfrwt beam="2">  1       -3 0.42236564E-02 0.44279056E+02</pdfrwt>
<totfact> 0.25960932E+05</totfact>
</mgrwt>
</event>
<event>
 4    1  0.2126213E+000  0.3816026E+02  0.7546771E-02  0.1522203E+00
          1   -1    0    0  501    0  0.00000000000E+00  0.00000000000E+00  0.72008189335E+02  0.72008189335E+02  0.00000000000E+00 0.  1.
         -1   -1    0    0    0  501 -0.00000000000E+00 -0.00000000000E+00 -0.50556942352E+01  0.50556942352E+01  0.00000000000E+00 0. -1.
        -13    1    1    2    0    0 -0.37372961515E+01  0.11397577672E+02  0.63442174935E+02  0.64566103489E+02  0.00000000000E+00 0.  1.
         13    1    1    2    0    0  0.37372961515E+01 -0.11397577672E+02  0.35103201656E+01  0.12497780082E+02  0.00000000000E+00 0. -1.
<mgrwt>
<rscale>  0 0.38160261E+02</rscale>
<asrwt>0</asrwt>
<pdfrwt beam="1">  1        1 0.11078182E-01 0.38160261E+02</pdfrwt>
<pdfrwt beam="2">  1       -1 0.77779917E-03 0.38160261E+02</pdfrwt>
<totfact> 0.95043698E+05</totfact>
</mgrwt>
</event>
<event>
 4    1  0.2126213E+000  0.2810508E+02  0.7546771E-02  0.1620031E+00
          2   -1    0    0  501    0  0.00000000000E+00  0.00000000000E+00  0.52013752610E+02  0.52013752610E+02  0.00000000000E+00 0. -1.
         -2   -1    0    0    0  501 -0.00000000000E+00 -0.00000000000E+00 -0.37965700869E+01  0.37965700869E+01  0.00000000000E+00 0.  1.
        -13    1    1    2    0    0  0.71578753571E+01 -0.75073858942E+01  0.42934503671E+02  0.44169759203E+02  0.00000000000E+00 0. -1.
         13    1    1    2    0    0 -0.71578753571E+01  0.75073858942E+01  0.52826788516E+01  0.11640563493E+02  0.00000000000E+00 0.  1.
<mgrwt>
<rscale>  0 0.28105078E+02</rscale>
<asrwt>0</asrwt>
<pdfrwt beam="1">  1        2 0.80021153E-02 0.28105078E+02</pdfrwt>
<pdfrwt beam="2">  1       -2 0.58408774E-03 0.28105078E+02</pdfrwt>
<totfact> 0.21360728E+06</totfact>
</mgrwt>
</event>
<event>
 4    1  0.2126213E+000  0.4946206E+02  0.7546771E-02  0.1448265E+00
          3   -1    0    0  501    0  0.00000000000E+00  0.00000000000E+00  0.48379383155E+02  0.48379383155E+02  0.00000000000E+00 0. -1.
         -3   -1    0    0    0  501 -0.00000000000E+00 -0.00000000000E+00 -0.12642240263E+02  0.12642240263E+02  0.00000000000E+00 0.  1.
        -11    1    1    2    0    0 -0.22665431377E+02  0.30312872093E+01  0.29488566830E+02  0.37316029469E+02  0.00000000000E+00 0. -1.
         11    1    1    2    0    0  0.22665431377E+02 -0.30312872093E+01  0.62485760620E+01  0.23705593949E+02  0.00000000000E+00 0.  1.
<mgrwt>
<rscale>  0 0.49462058E+02</rscale>
<asrwt>0</asrwt>
<pdfrwt beam="1">  1        3 0.74429819E-02 0.49462058E+02</pdfrwt>
<pdfrwt beam="2">  1       -3 0.19449601E-02 0.49462058E+02</pdfrwt>
<totfact> 0.18868608E+05</totfact>
</mgrwt>
</event>
<event>
 4    1  0.2126213E+000  0.4661484E+02  0.7546771E-02  0.1464505E+00
          4   -1    0    0  501    0  0.00000000000E+00  0.00000000000E+00  0.11611397551E+03  0.11611397551E+03  0.00000000000E+00 0. -1.
         -4   -1    0    0    0  501 -0.00000000000E+00 -0.00000000000E+00 -0.46784707769E+01  0.46784707769E+01  0.00000000000E+00 0.  1.
        -13    1    1    2    0    0  0.17356790516E+02 -0.38269895494E+01  0.94787956734E+02  0.96439933470E+02  0.00000000000E+00 0. -1.
         13    1    1    2    0    0 -0.17356790516E+02  0.38269895494E+01  0.16647547994E+02  0.24352512812E+02  0.00000000000E+00 0.  1.
<mgrwt>
<rscale>  0 0.46614841E+02</rscale>
<asrwt>0</asrwt>
<pdfrwt beam="1">  1        4 0.17863686E-01 0.46614841E+02</pdfrwt>
<pdfrwt beam="2">  1       -4 0.71976482E-03 0.46614841E+02</pdfrwt>
<totfact> 0.14101441E+05</totfact>
</mgrwt>
</event>
<event>
 4    1  0.2126213E+000  0.2639010E+02  0.7546771E-02  0.1641802E+00
          2   -1    0    0  501    0  0.00000000000E+00  0.00000000000E+00  0.42141283807E+01  0.42141283807E+01  0.00000000000E+00 0.  1.
         -2   -1    0    0    0  501 -0.00000000000E+00 -0.00000000000E+00 -0.41315635983E+02  0.41315635983E+02  0.00000000000E+00 0. -1.
        -13    1    1    2    0    0  0.36226716748E+01 -0.11536368516E+02 -0.94382098133E+01  0.15339209663E+02  0.00000000000E+00 0.  1.
         13    1    1    2    0    0 -0.36226716748E+01  0.11536368516E+02 -0.27663297789E+02  0.30190554701E+02  0.00000000000E+00 0. -1.
<mgrwt>
<rscale>  0 0.26390104E+02</rscale>
<asrwt>0</asrwt>
<pdfrwt beam="1">  1        2 0.64832744E-03 0.26390104E+02</pdfrwt>
<pdfrwt beam="2">  1       -2 0.63562517E-02 0.26390104E+02</pdfrwt>
<totfact> 0.18745660E+06</totfact>
</mgrwt>
</event>
<event>
 4    1  0.2126213E+000  0.6346024E+02  0.7546771E-02  0.1383859E+00
         -2   -1    0    0    0  501 -0.00000000000E+00  0.00000000000E+00  0.62473402216E+01  0.62473402216E+01  0.00000000000E+00 0.  1.
          2   -1    0    0  501    0  0.00000000000E+00 -0.00000000000E+00 -0.16115667388E+03  0.16115667388E+03  0.00000000000E+00 0. -1.
        -11    1    1    2    0    0  0.88423270542E+01 -0.29983659783E+02 -0.91805124511E+02  0.96981377018E+02  0.00000000000E+00 0. -1.
         11    1    1    2    0    0 -0.88423270542E+01  0.29983659783E+02 -0.63104209143E+02  0.70422637080E+02  0.00000000000E+00 0.  1.
<mgrwt>
<rscale>  0 0.63460242E+02</rscale>
<asrwt>0</asrwt>
<pdfrwt beam="2">  1        2 0.24793332E-01 0.63460242E+02</pdfrwt>
<pdfrwt beam="1">  1       -2 0.96112938E-03 0.63460242E+02</pdfrwt>
<totfact> 0.37391018E+05</totfact>
</mgrwt>
</event>
<event>
 4    1  0.2126213E+000  0.5014851E+02  0.7546771E-02  0.1444542E+00
         -2   -1    0    0    0  501 -0.00000000000E+00  0.00000000000E+00  0.54556196316E+01  0.54556196316E+01  0.00000000000E+00 0. -1.
          2   -1    0    0  501    0  0.00000000000E+00 -0.00000000000E+00 -0.11524229757E+03  0.11524229757E+03  0.00000000000E+00 0.  1.
        -13    1    1    2    0    0  0.84161882501E+01  0.16173096377E+02 -0.96323819747E+02  0.98034073269E+02  0.00000000000E+00 0.  1.
         13    1    1    2    0    0 -0.84161882501E+01 -0.16173096377E+02 -0.13462858189E+02  0.22663843930E+02  0.00000000000E+00 0. -1.
<mgrwt>
<rscale>  0 0.50148505E+02</rscale>
<asrwt>0</asrwt>
<pdfrwt beam="2">  1        2 0.17729584E-01 0.50148505E+02</pdfrwt>
<pdfrwt beam="1">  1       -2 0.83932610E-03 0.50148505E+02</pdfrwt>
<totfact> 0.61731189E+05</totfact>
</mgrwt>
</event>
<event>
 4    1  0.2126213E+000  0.1053844E+03  0.7546771E-02  0.1269364E+00
          2   -1    0    0  501    0  0.00000000000E+00  0.00000000000E+00  0.44367857330E+02  0.44367857330E+02  0.00000000000E+00 0. -1.
         -2   -1    0    0    0  501 -0.00000000000E+00 -0.00000000000E+00 -0.62578355764E+02  0.62578355764E+02  0.00000000000E+00 0.  1.
        -11    1    1    2    0    0 -0.75730138411E+01  0.35808123457E+02 -0.47573432638E+02  0.60023359928E+02  0.00000000000E+00 0.  1.
         11    1    1    2    0    0  0.75730138411E+01 -0.35808123457E+02  0.29362934204E+02  0.46922853165E+02  0.00000000000E+00 0. -1.
<mgrwt>
<rscale>  0 0.10538439E+03</rscale>
<asrwt>0</asrwt>
<pdfrwt beam="1">  1        2 0.68258243E-02 0.10538439E+03</pdfrwt>
<pdfrwt beam="2">  1       -2 0.96274392E-02 0.10538439E+03</pdfrwt>
<totfact> 0.64176223E+04</totfact>
</mgrwt>
</event>
<event>
 4    1  0.2126213E+000  0.2808054E+02  0.7546771E-02  0.1620329E+00
         -4   -1    0    0    0  501 -0.00000000000E+00  0.00000000000E+00  0.14352680642E+02  0.14352680642E+02  0.00000000000E+00 0. -1.
          4   -1    0    0  501    0  0.00000000000E+00 -0.00000000000E+00 -0.13734662950E+02  0.13734662950E+02  0.00000000000E+00 0.  1.
        -11    1    1    2    0    0  0.75655065454E+01 -0.11711304601E+02  0.19640050380E+01  0.14080087377E+02  0.00000000000E+00 0. -1.
         11    1    1    2    0    0 -0.75655065454E+01  0.11711304601E+02 -0.13459873461E+01  0.14007256215E+02  0.00000000000E+00 0.  1.
<mgrwt>
<rscale>  0 0.28080544E+02</rscale>
<asrwt>0</asrwt>
<pdfrwt beam="2">  1        4 0.21130251E-02 0.28080544E+02</pdfrwt>
<pdfrwt beam="1">  1       -4 0.22081047E-02 0.28080544E+02</pdfrwt>
<totfact> 0.60808389E+05</totfact>
</mgrwt>
</event>
<event>
 4    1  0.2126213E+000  0.3060534E+02  0.7546771E-02  0.1591492E+00
         -2   -1    0    0    0  501 -0.00000000000E+00  0.00000000000E+00  0.29938197849E+01  0.29938197849E+01  0.00000000000E+00 0. -1.
          2   -1    0    0  501    0  0.00000000000E+00 -0.00000000000E+00 -0.78218384178E+02  0.78218384178E+02  0.00000000000E+00 0.  1.
        -13    1    1    2    0    0  0.97579713598E+01 -0.57836297647E+01 -0.64867974353E+02  0.65852277675E+02  0.00000000000E+00 0.  1.
         13    1    1    2    0    0 -0.97579713598E+01  0.57836297647E+01 -0.10356590040E+02  0.15359926288E+02  0.00000000000E+00 0. -1.
<mgrwt>
<rscale>  0 0.30605342E+02</rscale>
<asrwt>0</asrwt>
<pdfrwt beam="2">  1        2 0.12033597E-01 0.30605342E+02</pdfrwt>
<pdfrwt beam="1">  1       -2 0.46058769E-03 0.30605342E+02</pdfrwt>
<totfact> 0.18852255E+06</totfact>
</mgrwt>
</event>
<event>
 4    1  0.2126213E+000  0.2372045E+02  0.7546771E-02  0.1680091E+00
          2   -1    0    0  501    0  0.00000000000E+00  0.00000000000E+00  0.81689580700E+01  0.81689580700E+01  0.00000000000E+00 0.  1.
         -2   -1    0    0    0  501 -0.00000000000E+00 -0.00000000000E+00 -0.17219440720E+02  0.17219440720E+02  0.00000000000E+00 0. -1.
        -11    1    1    2    0    0  0.87350240320E+01 -0.57607599153E+01  0.14511058569E+01  0.10563744973E+02  0.00000000000E+00 0.  1.
         11    1    1    2    0    0 -0.87350240320E+01  0.57607599153E+01 -0.10501588507E+02  0.14824653818E+02  0.00000000000E+00 0. -1.
<mgrwt>
<rscale>  0 0.23720446E+02</rscale>
<asrwt>0</asrwt>
<pdfrwt beam="1">  1        2 0.12567628E-02 0.23720446E+02</pdfrwt>
<pdfrwt beam="2">  1       -2 0.26491447E-02 0.23720446E+02</pdfrwt>
<totfact> 0.26080812E+06</totfact>
</mgrwt>
</event>
<event>
 4    1  0.2126213E+000  0.2470567E+02  0.7546771E-02  0.1665266E+00
          1   -1    0    0  501    0  0.00000000000E+00  0.00000000000E+00  0.16844106055E+02  0.16844106055E+02  0.00000000000E+00 0.  1.
         -1   -1    0    0    0  501 -0.00000000000E+00 -0.00000000000E+00 -0.90591041404E+01  0.90591041404E+01  0.00000000000E+00 0. -1.
        -13    1    1    2    0    0 -0.74810814190E+00  0.11575299835E+02 -0.56138182365E+00  0.11613026377E+02  0.00000000000E+00 0. -1.
         13    1    1    2    0    0  0.74810814190E+00 -0.11575299835E+02  0.83463837383E+01  0.14290183819E+02  0.00000000000E+00 0.  1.
<mgrwt>
<rscale>  0 0.24705668E+02</rscale>
<asrwt>0</asrwt>
<pdfrwt beam="1">  1        1 0.25914009E-02 0.24705668E+02</pdfrwt>
<pdfrwt beam="2">  1       -1 0.13937083E-02 0.24705668E+02</pdfrwt>
<totfact> 0.24288714E+06</totfact>
</mgrwt>
</event>
<event>
 4    1  0.2126213E+000  0.2350780E+02  0.7546771E-02  0.1683409E+00
          4   -1    0    0  501    0  0.00000000000E+00  0.00000000000E+00  0.92695554378E+02  0.92695554378E+02  0.00000000000E+00 0.  1.
         -4   -1    0    0    0  501 -0.00000000000E+00 -0.00000000000E+00 -0.14904072352E+01  0.14904072352E+01  0.00000000000E+00 0. -1.
        -11    1    1    2    0    0  0.98806339451E+01  0.45932612180E+01  0.63262998272E+02  0.64194485169E+02  0.00000000000E+00 0.  1.
         11    1    1    2    0    0 -0.98806339451E+01 -0.45932612180E+01  0.27942148872E+02  0.29991476445E+02  0.00000000000E+00 0. -1.
<mgrwt>
<rscale>  0 0.23507797E+02</rscale>
<asrwt>0</asrwt>
<pdfrwt beam="1">  1        4 0.14260850E-01 0.23507797E+02</pdfrwt>
<pdfrwt beam="2">  1       -4 0.22929349E-03 0.23507797E+02</pdfrwt>
<totfact> 0.71588362E+05</totfact>
</mgrwt>
</event>
<event>
 4    1  0.2126213E+000  0.4596514E+02  0.7546771E-02  0.1468405E+00
          4   -1    0    0  501    0  0.00000000000E+00  0.00000000000E+00  0.36126664640E+02  0.36126664640E+02  0.00000000000E+00 0. -1.
         -4   -1    0    0    0  501 -0.00000000000E+00 -0.00000000000E+00 -0.14620737391E+02  0.14620737391E+02  0.00000000000E+00 0.  1.
        -11    1    1    2    0    0 -0.62072526141E+01 -0.13540956405E+02 -0.85696796544E+01  0.17185077677E+02  0.00000000000E+00 0.  1.
         11    1    1    2    0    0  0.62072526141E+01  0.13540956405E+02  0.30075606904E+02  0.33562324354E+02  0.00000000000E+00 0. -1.
<mgrwt>
<rscale>  0 0.45965138E+02</rscale>
<asrwt>0</asrwt>
<pdfrwt beam="1">  1        4 0.55579484E-02 0.45965138E+02</pdfrwt>
<pdfrwt beam="2">  1       -4 0.22493442E-02 0.45965138E+02</pdfrwt>
<totfact> 0.17702499E+05</totfact>
</mgrwt>
</event>
<event>
 4    1  0.2126213E+000  0.3499558E+02  0.7546771E-02  0.1548640E+00
         -4   -1    0    0    0  501 -0.00000000000E+00  0.00000000000E+00  0.33149613397E+02  0.33149613397E+02  0.00000000000E+00 0.  1.
          4   -1    0    0  501    0  0.00000000000E+00 -0.00000000000E+00 -0.92360835543E+01  0.92360835543E+01  0.00000000000E+00 0. -1.
        -13    1    1    2    0    0 -0.10010963056E+02 -0.10510945552E+02  0.12234415466E+00  0.14516002404E+02  0.00000000000E+00 0. -1.
         13    1    1    2    0    0  0.10010963056E+02  0.10510945552E+02  0.23791185688E+02  0.27869694547E+02  0.00000000000E+00 0.  1.
<mgrwt>
<rscale>  0 0.34995577E+02</rscale>
<asrwt>0</asrwt>
<pdfrwt beam="2">  1        4 0.14209359E-02 0.34995577E+02</pdfrwt>
<pdfrwt beam="1">  1       -4 0.50999405E-02 0.34995577E+02</pdfrwt>
<totfact> 0.34921704E+05</totfact>
</mgrwt>
</event>
<event>
 4    1  0.2126213E+000  0.4247144E+02  0.7546771E-02  0.1490774E+00
         -3   -1    0    0    0  501 -0.00000000000E+00  0.00000000000E+00  0.81329103034E+02  0.81329103034E+02  0.00000000000E+00 0.  1.
          3   -1    0    0  501    0  0.00000000000E+00 -0.00000000000E+00 -0.55448277138E+01  0.55448277138E+01  0.00000000000E+00 0. -1.
        -13    1    1    2    0    0  0.14994078653E+02  0.13450540006E+02  0.24137769135E+02  0.31438373366E+02  0.00000000000E+00 0. -1.
         13    1    1    2    0    0 -0.14994078653E+02 -0.13450540006E+02  0.51646506185E+02  0.55435557382E+02  0.00000000000E+00 0.  1.
<mgrwt>
<rscale>  0 0.42471443E+02</rscale>
<asrwt>0</asrwt>
<pdfrwt beam="2">  1        3 0.85305048E-03 0.42471443E+02</pdfrwt>
<pdfrwt beam="1">  1       -3 0.12512169E-01 0.42471443E+02</pdfrwt>
<totfact> 0.25827354E+05</totfact>
</mgrwt>
</event>
<event>
 4    1  0.2126213E+000  0.2441516E+02  0.7546771E-02  0.1669547E+00
          1   -1    0    0  501    0  0.00000000000E+00  0.00000000000E+00  0.26058097422E+01  0.26058097422E+01  0.00000000000E+00 0. -1.
         -1   -1    0    0    0  501 -0.00000000000E+00 -0.00000000000E+00 -0.57189516442E+02  0.57189516442E+02  0.00000000000E+00 0.  1.
        -13    1    1    2    0    0  0.22036864948E+01 -0.10871746976E+02 -0.39773621647E+02  0.41291549928E+02  0.00000000000E+00 0.  1.
         13    1    1    2    0    0 -0.22036864948E+01  0.10871746976E+02 -0.14810085053E+02  0.18503776256E+02  0.00000000000E+00 0. -1.
<mgrwt>
<rscale>  0 0.24415159E+02</rscale>
<asrwt>0</asrwt>
<pdfrwt beam="1">  1        1 0.40089377E-03 0.24415159E+02</pdfrwt>
<pdfrwt beam="2">  1       -1 0.87983880E-02 0.24415159E+02</pdfrwt>
<totfact> 0.22051806E+06</totfact>
</mgrwt>
</event>
<event>
 4    1  0.2126213E+000  0.2805153E+02  0.7546771E-02  0.1620682E+00
         -2   -1    0    0    0  501 -0.00000000000E+00  0.00000000000E+00  0.28831906073E+01  0.28831906073E+01  0.00000000000E+00 0. -1.
          2   -1    0    0  501    0  0.00000000000E+00 -0.00000000000E+00 -0.68230698431E+02  0.68230698431E+02  0.00000000000E+00 0.  1.
        -11    1    1    2    0    0  0.12628016436E+02 -0.37023692019E+01 -0.44975669984E+02  0.46861340435E+02  0.00000000000E+00 0.  1.
         11    1    1    2    0    0 -0.12628016436E+02  0.37023692019E+01 -0.20371837839E+02  0.24252548603E+02  0.00000000000E+00 0. -1.
<mgrwt>
<rscale>  0 0.28051532E+02</rscale>
<asrwt>0</asrwt>
<pdfrwt beam="2">  1        2 0.10497030E-01 0.28051532E+02</pdfrwt>
<pdfrwt beam="1">  1       -2 0.44356780E-03 0.28051532E+02</pdfrwt>
<totfact> 0.22525727E+06</totfact>
</mgrwt>
</event>
<event>
 4    1  0.2126213E+000  0.2301740E+02  0.7546771E-02  0.1691228E+00
          4   -1    0    0  501    0  0.00000000000E+00  0.00000000000E+00  0.27417527585E+02  0.27417527585E+02  0.00000000000E+00 0. -1.
         -4   -1    0    0    0  501 -0.00000000000E+00 -0.00000000000E+00 -0.48308596696E+01  0.48308596696E+01  0.00000000000E+00 0.  1.
        -13    1    1    2    0    0 -0.50293858659E+01  0.10327467836E+02  0.10303722853E+02  0.15431073155E+02  0.00000000000E+00 0. -1.
         13    1    1    2    0    0  0.50293858659E+01 -0.10327467836E+02  0.12282945063E+02  0.16817314099E+02  0.00000000000E+00 0.  1.
<mgrwt>
<rscale>  0 0.23017405E+02</rscale>
<asrwt>0</asrwt>
<pdfrwt beam="1">  1        4 0.42180811E-02 0.23017405E+02</pdfrwt>
<pdfrwt beam="2">  1       -4 0.74320920E-03 0.23017405E+02</pdfrwt>
<totfact> 0.92152778E+05</totfact>
</mgrwt>
</event>
<event>
 4    1  0.2126213E+000  0.2596368E+02  0.7546771E-02  0.1647534E+00
          1   -1    0    0  501    0  0.00000000000E+00  0.00000000000E+00  0.39482093262E+02  0.39482093262E+02  0.00000000000E+00 0.  1.
         -1   -1    0    0    0  501 -0.00000000000E+00 -0.00000000000E+00 -0.42684701152E+01  0.42684701152E+01  0.00000000000E+00 0. -1.
        -13    1    1    2    0    0  0.48030803856E+01  0.94620121720E+01  0.50049267383E+01  0.11732371763E+02  0.00000000000E+00 0. -1.
         13    1    1    2    0    0 -0.48030803856E+01 -0.94620121720E+01  0.30208696409E+02  0.32018191614E+02  0.00000000000E+00 0.  1.
<mgrwt>
<rscale>  0 0.25963677E+02</rscale>
<asrwt>0</asrwt>
<pdfrwt beam="1">  1        1 0.60741679E-02 0.25963677E+02</pdfrwt>
<pdfrwt beam="2">  1       -1 0.65668774E-03 0.25963677E+02</pdfrwt>
<totfact> 0.22661052E+06</totfact>
</mgrwt>
</event>
<event>
 4    1  0.2126213E+000  0.2654573E+02  0.7546771E-02  0.1639744E+00
         -2   -1    0    0    0  501 -0.00000000000E+00  0.00000000000E+00  0.19442349297E+02  0.19442349297E+02  0.00000000000E+00 0.  1.
          2   -1    0    0  501    0  0.00000000000E+00 -0.00000000000E+00 -0.90610950556E+01  0.90610950556E+01  0.00000000000E+00 0. -1.
        -11    1    1    2    0    0 -0.61525456929E+01 -0.90891426953E+01  0.13204464580E+02  0.17170446071E+02  0.00000000000E+00 0.  1.
         11    1    1    2    0    0  0.61525456929E+01  0.90891426953E+01 -0.28232103384E+01  0.11332998282E+02  0.00000000000E+00 0. -1.
<mgrwt>
<rscale>  0 0.26545732E+02</rscale>
<asrwt>0</asrwt>
<pdfrwt beam="2">  1        2 0.13940146E-02 0.26545732E+02</pdfrwt>
<pdfrwt beam="1">  1       -2 0.29911307E-02 0.26545732E+02</pdfrwt>
<totfact> 0.20079428E+06</totfact>
</mgrwt>
</event>
<event>
 4    1  0.2126213E+000  0.2096463E+02  0.7546771E-02  0.1726799E+00
         -1   -1    0    0    0  501 -0.00000000000E+00  0.00000000000E+00  0.26388798715E+01  0.26388798715E+01  0.00000000000E+00 0. -1.
          1   -1    0    0  501    0  0.00000000000E+00 -0.00000000000E+00 -0.41638464971E+02  0.41638464971E+02  0.00000000000E+00 0.  1.
        -11    1    1    2    0    0 -0.10103081471E+02  0.27940375310E+01 -0.19494551745E+02  0.22134056308E+02  0.00000000000E+00 0.  1.
         11    1    1    2    0    0  0.10103081471E+02 -0.27940375310E+01 -0.19505033355E+02  0.22143288534E+02  0.00000000000E+00 0. -1.
<mgrwt>
<rscale>  0 0.20964628E+02</rscale>
<asrwt>0</asrwt>
<pdfrwt beam="2">  1        1 0.64059178E-02 0.20964628E+02</pdfrwt>
<pdfrwt beam="1">  1       -1 0.40598151E-03 0.20964628E+02</pdfrwt>
<totfact> 0.37089288E+06</totfact>
</mgrwt>
</event>
<event>
 4    1  0.2126213E+000  0.3668878E+02  0.7546771E-02  0.1534096E+00
          2   -1    0    0  501    0  0.00000000000E+00  0.00000000000E+00  0.41623098675E+02  0.41623098675E+02  0.00000000000E+00 0.  1.
         -2   -1    0    0    0  501 -0.00000000000E+00 -0.00000000000E+00 -0.80848550454E+01  0.80848550454E+01  0.00000000000E+00 0. -1.
        -11    1    1    2    0    0  0.17100912133E+02  0.16512409098E+01  0.25481258661E+02  0.30732105936E+02  0.00000000000E+00 0.  1.
         11    1    1    2    0    0 -0.17100912133E+02 -0.16512409098E+01  0.80569849686E+01  0.18975847784E+02  0.00000000000E+00 0. -1.
<mgrwt>
<rscale>  0 0.36688784E+02</rscale>
<asrwt>0</asrwt>
<pdfrwt beam="1">  1        2 0.64035535E-02 0.36688784E+02</pdfrwt>
<pdfrwt beam="2">  1       -2 0.12438239E-02 0.36688784E+02</pdfrwt>
<totfact> 0.10841033E+06</totfact>
</mgrwt>
</event>
<event>
 4    1  0.2126213E+000  0.3210721E+02  0.7546771E-02  0.1575900E+00
         -2   -1    0    0    0  501 -0.00000000000E+00  0.00000000000E+00  0.30670463665E+02  0.30670463665E+02  0.00000000000E+00 0. -1.
          2   -1    0    0  501    0  0.00000000000E+00 -0.00000000000E+00 -0.84028166671E+01  0.84028166671E+01  0.00000000000E+00 0.  1.
        -11    1    1    2    0    0 -0.41555633485E+01 -0.15122985188E+02  0.69631917787E+01  0.17159820147E+02  0.00000000000E+00 0.  1.
         11    1    1    2    0    0  0.41555633485E+01  0.15122985188E+02  0.15304455219E+02  0.21913460185E+02  0.00000000000E+00 0. -1.
<mgrwt>
<rscale>  0 0.32107213E+02</rscale>
<asrwt>0</asrwt>
<pdfrwt beam="2">  1        2 0.12927410E-02 0.32107213E+02</pdfrwt>
<pdfrwt beam="1">  1       -2 0.47185328E-02 0.32107213E+02</pdfrwt>
<totfact> 0.12415666E+06</totfact>
</mgrwt>
</event>
<event>
 4    1  0.2126213E+000  0.2258964E+02  0.7546771E-02  0.1698250E+00
         -4   -1    0    0    0  501 -0.00000000000E+00  0.00000000000E+00  0.96627574401E+01  0.96627574401E+01  0.00000000000E+00 0.  1.
          4   -1    0    0  501    0  0.00000000000E+00 -0.00000000000E+00 -0.13202537393E+02  0.13202537393E+02  0.00000000000E+00 0. -1.
        -11    1    1    2    0    0  0.89207093254E+01  0.60400763373E+01  0.16643488769E+01  0.10900992350E+02  0.00000000000E+00 0. -1.
         11    1    1    2    0    0 -0.89207093254E+01 -0.60400763373E+01 -0.52041288292E+01  0.11964302483E+02  0.00000000000E+00 0.  1.
<mgrwt>
<rscale>  0 0.22589636E+02</rscale>
<asrwt>0</asrwt>
<pdfrwt beam="2">  1        4 0.20311596E-02 0.22589636E+02</pdfrwt>
<pdfrwt beam="1">  1       -4 0.14865781E-02 0.22589636E+02</pdfrwt>
<totfact> 0.99706787E+05</totfact>
</mgrwt>
</event>
<event>
 4    1  0.2126213E+000  0.5792967E+02  0.7546771E-02  0.1406731E+00
         -2   -1    0    0    0  501 -0.00000000000E+00  0.00000000000E+00  0.13826991451E+02  0.13826991451E+02  0.00000000000E+00 0.  1.
          2   -1    0    0  501    0  0.00000000000E+00 -0.00000000000E+00 -0.60675657395E+02  0.60675657395E+02  0.00000000000E+00 0. -1.
        -11    1    1    2    0    0  0.13004423893E+02 -0.25872029842E+02 -0.24319829872E+02  0.37814429705E+02  0.00000000000E+00 0.  1.
         11    1    1    2    0    0 -0.13004423893E+02  0.25872029842E+02 -0.22528836072E+02  0.36688219141E+02  0.00000000000E+00 0. -1.
<mgrwt>
<rscale>  0 0.57929674E+02</rscale>
<asrwt>0</asrwt>
<pdfrwt beam="2">  1        2 0.93347165E-02 0.57929674E+02</pdfrwt>
<pdfrwt beam="1">  1       -2 0.21272295E-02 0.57929674E+02</pdfrwt>
<totfact> 0.36414009E+05</totfact>
</mgrwt>
</event>
<event>
 4    1  0.2126213E+000  0.2483689E+02  0.7546771E-02  0.1663356E+00
         -4   -1    0    0    0  501 -0.00000000000E+00  0.00000000000E+00  0.95107735286E+01  0.95107735286E+01  0.00000000000E+00 0. -1.
          4   -1    0    0  501    0  0.00000000000E+00 -0.00000000000E+00 -0.16215066946E+02  0.16215066946E+02  0.00000000000E+00 0.  1.
        -13    1    1    2    0    0  0.94898010863E+00 -0.10973698397E+02 -0.92928602746E+01  0.14411102381E+02  0.00000000000E+00 0.  1.
         13    1    1    2    0    0 -0.94898010863E+00  0.10973698397E+02  0.25885668576E+01  0.11314738093E+02  0.00000000000E+00 0. -1.
<mgrwt>
<rscale>  0 0.24836894E+02</rscale>
<asrwt>0</asrwt>
<pdfrwt beam="2">  1        4 0.24946257E-02 0.24836894E+02</pdfrwt>
<pdfrwt beam="1">  1       -4 0.14631959E-02 0.24836894E+02</pdfrwt>
<totfact> 0.80417433E+05</totfact>
</mgrwt>
</event>
<event>
 4    1  0.2126213E+000  0.5294434E+02  0.7546771E-02  0.1430078E+00
         -2   -1    0    0    0  501 -0.00000000000E+00  0.00000000000E+00  0.63105197810E+01  0.63105197810E+01  0.00000000000E+00 0. -1.
          2   -1    0    0  501    0  0.00000000000E+00 -0.00000000000E+00 -0.11104883444E+03  0.11104883444E+03  0.00000000000E+00 0.  1.
        -13    1    1    2    0    0 -0.16568299702E+02 -0.13174407874E+02 -0.87606466297E+02  0.90127501435E+02  0.00000000000E+00 0.  1.
         13    1    1    2    0    0  0.16568299702E+02  0.13174407874E+02 -0.17131848361E+02  0.27231852785E+02  0.00000000000E+00 0. -1.
<mgrwt>
<rscale>  0 0.52944343E+02</rscale>
<asrwt>0</asrwt>
<pdfrwt beam="2">  1        2 0.17084436E-01 0.52944343E+02</pdfrwt>
<pdfrwt beam="1">  1       -2 0.97084923E-03 0.52944343E+02</pdfrwt>
<totfact> 0.53248405E+05</totfact>
</mgrwt>
</event>
<event>
 4    1  0.2126213E+000  0.2259466E+02  0.7546771E-02  0.1698166E+00
          2   -1    0    0  501    0  0.00000000000E+00  0.00000000000E+00  0.10952530482E+02  0.10952530482E+02  0.00000000000E+00 0.  1.
         -2   -1    0    0    0  501 -0.00000000000E+00 -0.00000000000E+00 -0.11652984942E+02  0.11652984942E+02  0.00000000000E+00 0. -1.
        -13    1    1    2    0    0 -0.63054274561E+01  0.93720274829E+01 -0.54099720643E+00  0.11308668910E+02  0.00000000000E+00 0.  1.
         13    1    1    2    0    0  0.63054274561E+01 -0.93720274829E+01 -0.15945725386E+00  0.11296846514E+02  0.00000000000E+00 0. -1.
<mgrwt>
<rscale>  0 0.22594661E+02</rscale>
<asrwt>0</asrwt>
<pdfrwt beam="1">  1        2 0.16850047E-02 0.22594661E+02</pdfrwt>
<pdfrwt beam="2">  1       -2 0.17927669E-02 0.22594661E+02</pdfrwt>
<totfact> 0.29971338E+06</totfact>
</mgrwt>
</event>
<event>
 4    1  0.2126213E+000  0.3537014E+02  0.7546771E-02  0.1545338E+00
          1   -1    0    0  501    0  0.00000000000E+00  0.00000000000E+00  0.48366674863E+02  0.48366674863E+02  0.00000000000E+00 0.  1.
         -1   -1    0    0    0  501 -0.00000000000E+00 -0.00000000000E+00 -0.64664704027E+01  0.64664704027E+01  0.00000000000E+00 0. -1.
        -11    1    1    2    0    0 -0.17288553120E+02 -0.25438394327E+01  0.25166281265E+02  0.30638324053E+02  0.00000000000E+00 0.  1.
         11    1    1    2    0    0  0.17288553120E+02  0.25438394327E+01  0.16733923195E+02  0.24194821213E+02  0.00000000000E+00 0. -1.
<mgrwt>
<rscale>  0 0.35370138E+02</rscale>
<asrwt>0</asrwt>
<pdfrwt beam="1">  1        1 0.74410267E-02 0.35370138E+02</pdfrwt>
<pdfrwt beam="2">  1       -1 0.99484163E-03 0.35370138E+02</pdfrwt>
<totfact> 0.11020147E+06</totfact>
</mgrwt>
</event>
<event>
 4    1  0.2126213E+000  0.5753650E+03  0.7546771E-02  0.9957876E-01
         -2   -1    0    0    0  501 -0.00000000000E+00  0.00000000000E+00  0.67178486071E+02  0.67178486071E+02  0.00000000000E+00 0.  1.
          2   -1    0    0  501    0  0.00000000000E+00 -0.00000000000E+00 -0.12319602309E+04  0.12319602309E+04  0.00000000000E+00 0. -1.
        -13    1    1    2    0    0 -0.41803971473E+02 -0.26302686131E+03 -0.33679898165E+03  0.42937658977E+03  0.00000000000E+00 0.  1.
         13    1    1    2    0    0  0.41803971473E+02  0.26302686131E+03 -0.82798276318E+03  0.86976212721E+03  0.00000000000E+00 0. -1.
<mgrwt>
<rscale>  0 0.57536501E+03</rscale>
<asrwt>0</asrwt>
<pdfrwt beam="2">  1        2 0.18953235E+00 0.57536501E+03</pdfrwt>
<pdfrwt beam="1">  1       -2 0.10335151E-01 0.57536501E+03</pdfrwt>
<totfact> 0.11941090E+03</totfact>
</mgrwt>
</event>
<event>
 4    1  0.2126213E+000  0.6017651E+02  0.7546771E-02  0.1397093E+00
         -1   -1    0    0    0  501 -0.00000000000E+00  0.00000000000E+00  0.27800892560E+02  0.27800892560E+02  0.00000000000E+00 0.  1.
          1   -1    0    0  501    0  0.00000000000E+00 -0.00000000000E+00 -0.32563813937E+02  0.32563813937E+02  0.00000000000E+00 0. -1.
        -13    1    1    2    0    0  0.90061682306E+01 -0.19704432804E+02 -0.23325630797E+02  0.31834898938E+02  0.00000000000E+00 0. -1.
         13    1    1    2    0    0 -0.90061682306E+01  0.19704432804E+02  0.18562709420E+02  0.28529807559E+02  0.00000000000E+00 0.  1.
<mgrwt>
<rscale>  0 0.60176510E+02</rscale>
<asrwt>0</asrwt>
<pdfrwt beam="2">  1        1 0.50098175E-02 0.60176510E+02</pdfrwt>
<pdfrwt beam="1">  1       -1 0.42770604E-02 0.60176510E+02</pdfrwt>
<totfact> 0.27570020E+05</totfact>
</mgrwt>
</event>
<event>
 4    1  0.2126213E+000  0.3710727E+02  0.7546771E-02  0.1530646E+00
          2   -1    0    0  501    0  0.00000000000E+00  0.00000000000E+00  0.34712430458E+02  0.34712430458E+02  0.00000000000E+00 0. -1.
         -2   -1    0    0    0  501 -0.00000000000E+00 -0.00000000000E+00 -0.99168306029E+01  0.99168306029E+01  0.00000000000E+00 0.  1.
        -11    1    1    2    0    0 -0.13422197055E+02 -0.12606789511E+02  0.15127388053E+02  0.23831164152E+02  0.00000000000E+00 0. -1.
         11    1    1    2    0    0  0.13422197055E+02  0.12606789511E+02  0.96682118021E+01  0.20798096908E+02  0.00000000000E+00 0.  1.
<mgrwt>
<rscale>  0 0.37107266E+02</rscale>
<asrwt>0</asrwt>
<pdfrwt beam="1">  1        2 0.53403739E-02 0.37107266E+02</pdfrwt>
<pdfrwt beam="2">  1       -2 0.15256663E-02 0.37107266E+02</pdfrwt>
<totfact> 0.10256907E+06</totfact>
</mgrwt>
</event>
<event>
 4    1  0.2126213E+000  0.5377455E+02  0.7546771E-02  0.1425985E+00
          2   -1    0    0  501    0  0.00000000000E+00  0.00000000000E+00  0.74751022834E+01  0.74751022834E+01  0.00000000000E+00 0.  1.
         -2   -1    0    0    0  501 -0.00000000000E+00 -0.00000000000E+00 -0.96711139804E+02  0.96711139804E+02  0.00000000000E+00 0. -1.
        -11    1    1    2    0    0 -0.15914176732E+02  0.30637028029E+01 -0.30514822672E+01  0.16491174608E+02  0.00000000000E+00 0.  1.
         11    1    1    2    0    0  0.15914176732E+02 -0.30637028029E+01 -0.86184555253E+02  0.87695067479E+02  0.00000000000E+00 0. -1.
<mgrwt>
<rscale>  0 0.53774554E+02</rscale>
<asrwt>0</asrwt>
<pdfrwt beam="1">  1        2 0.11500158E-02 0.53774554E+02</pdfrwt>
<pdfrwt beam="2">  1       -2 0.14878636E-01 0.53774554E+02</pdfrwt>
<totfact> 0.29792779E+05</totfact>
</mgrwt>
</event>
<event>
 4    1  0.2126213E+000  0.3385271E+02  0.7546771E-02  0.1559031E+00
         -3   -1    0    0    0  501 -0.00000000000E+00  0.00000000000E+00  0.73365194841E+02  0.73365194841E+02  0.00000000000E+00 0. -1.
          3   -1    0    0  501    0  0.00000000000E+00 -0.00000000000E+00 -0.39051425929E+01  0.39051425929E+01  0.00000000000E+00 0.  1.
        -11    1    1    2    0    0 -0.16888971096E+02  0.86124243554E+00  0.33080164543E+02  0.37152070863E+02  0.00000000000E+00 0.  1.
         11    1    1    2    0    0  0.16888971096E+02 -0.86124243554E+00  0.36379887705E+02  0.40118266571E+02  0.00000000000E+00 0. -1.
<mgrwt>
<rscale>  0 0.33852713E+02</rscale>
<asrwt>0</asrwt>
<pdfrwt beam="2">  1        3 0.60079122E-03 0.33852713E+02</pdfrwt>
<pdfrwt beam="1">  1       -3 0.11286952E-01 0.33852713E+02</pdfrwt>
<totfact> 0.45699620E+05</totfact>
</mgrwt>
</event>
<event>
 4    1  0.2126213E+000  0.2057544E+02  0.7546771E-02  0.1734121E+00
         -4   -1    0    0    0  501 -0.00000000000E+00  0.00000000000E+00  0.42356777497E+01  0.42356777497E+01  0.00000000000E+00 0. -1.
          4   -1    0    0  501    0  0.00000000000E+00 -0.00000000000E+00 -0.24987066448E+02  0.24987066448E+02  0.00000000000E+00 0.  1.
        -13    1    1    2    0    0 -0.24547012152E+01 -0.99794564607E+01 -0.11044961221E+02  0.15086625788E+02  0.00000000000E+00 0.  1.
         13    1    1    2    0    0  0.24547012152E+01  0.99794564607E+01 -0.97064274774E+01  0.14136118409E+02  0.00000000000E+00 0. -1.
<mgrwt>
<rscale>  0 0.20575438E+02</rscale>
<asrwt>0</asrwt>
<pdfrwt beam="2">  1        4 0.38441641E-02 0.20575438E+02</pdfrwt>
<pdfrwt beam="1">  1       -4 0.65164273E-03 0.20575438E+02</pdfrwt>
<totfact> 0.11791714E+06</totfact>
</mgrwt>
</event>
<event>
 4    1  0.2126213E+000  0.3974295E+02  0.7546771E-02  0.1510112E+00
         -2   -1    0    0    0  501 -0.00000000000E+00  0.00000000000E+00  0.20916814324E+02  0.20916814324E+02  0.00000000000E+00 0.  1.
          2   -1    0    0  501    0  0.00000000000E+00 -0.00000000000E+00 -0.18878374393E+02  0.18878374393E+02  0.00000000000E+00 0. -1.
        -13    1    1    2    0    0 -0.18701104356E+02  0.13513095517E+01 -0.55710811202E+01  0.19560017548E+02  0.00000000000E+00 0. -1.
         13    1    1    2    0    0  0.18701104356E+02 -0.13513095517E+01  0.76095210510E+01  0.20235171169E+02  0.00000000000E+00 0.  1.
<mgrwt>
<rscale>  0 0.39742947E+02</rscale>
<asrwt>0</asrwt>
<pdfrwt beam="2">  1        2 0.29043653E-02 0.39742947E+02</pdfrwt>
<pdfrwt beam="1">  1       -2 0.32179714E-02 0.39742947E+02</pdfrwt>
<totfact> 0.79541566E+05</totfact>
</mgrwt>
</event>
<event>
 4    1  0.2126213E+000  0.2380921E+02  0.7546771E-02  0.1678719E+00
         -2   -1    0    0    0  501 -0.00000000000E+00  0.00000000000E+00  0.18750568201E+02  0.18750568201E+02  0.00000000000E+00 0. -1.
          2   -1    0    0  501    0  0.00000000000E+00 -0.00000000000E+00 -0.75581481461E+01  0.75581481461E+01  0.00000000000E+00 0.  1.
        -13    1    1    2    0    0 -0.10216140037E+02  0.38768119668E+01  0.10816631622E+02  0.15375262857E+02  0.00000000000E+00 0. -1.
         13    1    1    2    0    0  0.10216140037E+02 -0.38768119668E+01  0.37578843293E+00  0.10933453490E+02  0.00000000000E+00 0.  1.
<mgrwt>
<rscale>  0 0.23809206E+02</rscale>
<asrwt>0</asrwt>
<pdfrwt beam="2">  1        2 0.11627920E-02 0.23809206E+02</pdfrwt>
<pdfrwt beam="1">  1       -2 0.28847028E-02 0.23809206E+02</pdfrwt>
<totfact> 0.25674442E+06</totfact>
</mgrwt>
</event>
<event>
 4    1  0.2126213E+000  0.3019813E+02  0.7546771E-02  0.1595909E+00
          1   -1    0    0  501    0  0.00000000000E+00  0.00000000000E+00  0.21176910509E+02  0.21176910509E+02  0.00000000000E+00 0.  1.
         -1   -1    0    0    0  501 -0.00000000000E+00 -0.00000000000E+00 -0.10765584380E+02  0.10765584380E+02  0.00000000000E+00 0. -1.
        -11    1    1    2    0    0 -0.96015831188E+01 -0.39834092949E+01  0.16789209625E+02  0.19746784747E+02  0.00000000000E+00 0.  1.
         11    1    1    2    0    0  0.96015831188E+01  0.39834092949E+01 -0.63778834957E+01  0.12195710143E+02  0.00000000000E+00 0. -1.
<mgrwt>
<rscale>  0 0.30198134E+02</rscale>
<asrwt>0</asrwt>
<pdfrwt beam="1">  1        1 0.32579862E-02 0.30198134E+02</pdfrwt>
<pdfrwt beam="2">  1       -1 0.16562438E-02 0.30198134E+02</pdfrwt>
<totfact> 0.15270582E+06</totfact>
</mgrwt>
</event>
<event>
 4    1  0.2126213E+000  0.2433452E+02  0.7546771E-02  0.1670749E+00
          2   -1    0    0  501    0  0.00000000000E+00  0.00000000000E+00  0.16379136584E+02  0.16379136584E+02  0.00000000000E+00 0.  1.
         -2   -1    0    0    0  501 -0.00000000000E+00 -0.00000000000E+00 -0.90384618747E+01  0.90384618747E+01  0.00000000000E+00 0. -1.
        -13    1    1    2    0    0 -0.10662399396E+02 -0.53256188182E+01  0.11132707614E+01  0.11970311126E+02  0.00000000000E+00 0. -1.
         13    1    1    2    0    0  0.10662399396E+02  0.53256188182E+01  0.62274039482E+01  0.13447287333E+02  0.00000000000E+00 0.  1.
<mgrwt>
<rscale>  0 0.24334519E+02</rscale>
<asrwt>0</asrwt>
<pdfrwt beam="1">  1        2 0.25198672E-02 0.24334519E+02</pdfrwt>
<pdfrwt beam="2">  1       -2 0.13905326E-02 0.24334519E+02</pdfrwt>
<totfact> 0.26071352E+06</totfact>
</mgrwt>
</event>
<event>
 4    1  0.2126213E+000  0.3070556E+02  0.7546771E-02  0.1590418E+00
          1   -1    0    0  501    0  0.00000000000E+00  0.00000000000E+00  0.12017759041E+03  0.12017759041E+03  0.00000000000E+00 0. -1.
         -1   -1    0    0    0  501 -0.00000000000E+00 -0.00000000000E+00 -0.19613293555E+01  0.19613293555E+01  0.00000000000E+00 0.  1.
        -11    1    1    2    0    0 -0.51769325494E+01 -0.14428302773E+02  0.55706554178E+02  0.57777129818E+02  0.00000000000E+00 0.  1.
         11    1    1    2    0    0  0.51769325494E+01  0.14428302773E+02  0.62509706878E+02  0.64361789949E+02  0.00000000000E+00 0. -1.
<mgrwt>
<rscale>  0 0.30705559E+02</rscale>
<asrwt>0</asrwt>
<pdfrwt beam="1">  1        1 0.18488854E-01 0.30705559E+02</pdfrwt>
<pdfrwt beam="2">  1       -1 0.30174307E-03 0.30705559E+02</pdfrwt>
<totfact> 0.17028645E+06</totfact>
</mgrwt>
</event>
<event>
 4    1  0.2126213E+000  0.2833785E+02  0.7546771E-02  0.1617223E+00
          2   -1    0    0  501    0  0.00000000000E+00  0.00000000000E+00  0.43542104563E+02  0.43542104563E+02  0.00000000000E+00 0. -1.
         -2   -1    0    0    0  501 -0.00000000000E+00 -0.00000000000E+00 -0.46106751220E+01  0.46106751220E+01  0.00000000000E+00 0.  1.
        -13    1    1    2    0    0  0.40770446157E+01 -0.13037138595E+02  0.13069435542E+02  0.18905010472E+02  0.00000000000E+00 0.  1.
         13    1    1    2    0    0 -0.40770446157E+01  0.13037138595E+02  0.25861993899E+02  0.29247769213E+02  0.00000000000E+00 0. -1.
<mgrwt>
<rscale>  0 0.28337854E+02</rscale>
<asrwt>0</asrwt>
<pdfrwt beam="1">  1        2 0.66987850E-02 0.28337854E+02</pdfrwt>
<pdfrwt beam="2">  1       -2 0.70933467E-03 0.28337854E+02</pdfrwt>
<totfact> 0.20371966E+06</totfact>
</mgrwt>
</event>
<event>
 4    1  0.2126213E+000  0.4385260E+02  0.7546771E-02  0.1481634E+00
         -2   -1    0    0    0  501 -0.00000000000E+00  0.00000000000E+00  0.77364175378E+01  0.77364175378E+01  0.00000000000E+00 0.  1.
          2   -1    0    0  501    0  0.00000000000E+00 -0.00000000000E+00 -0.62142797106E+02  0.62142797106E+02  0.00000000000E+00 0. -1.
        -11    1    1    2    0    0  0.11104512804E+02  0.36902306171E+01  0.23447680965E+01  0.11934234120E+02  0.00000000000E+00 0.  1.
         11    1    1    2    0    0 -0.11104512804E+02 -0.36902306171E+01 -0.56751147665E+02  0.57944980524E+02  0.00000000000E+00 0. -1.
<mgrwt>
<rscale>  0 0.43852600E+02</rscale>
<asrwt>0</asrwt>
<pdfrwt beam="2">  1        2 0.95604302E-02 0.43852600E+02</pdfrwt>
<pdfrwt beam="1">  1       -2 0.11902181E-02 0.43852600E+02</pdfrwt>
<totfact> 0.74705566E+05</totfact>
</mgrwt>
</event>
<event>
 4    1  0.2126213E+000  0.3322615E+02  0.7546771E-02  0.1564942E+00
          3   -1    0    0  501    0  0.00000000000E+00  0.00000000000E+00  0.17232927482E+02  0.17232927482E+02  0.00000000000E+00 0. -1.
         -3   -1    0    0    0  501 -0.00000000000E+00 -0.00000000000E+00 -0.16015516861E+02  0.16015516861E+02  0.00000000000E+00 0.  1.
        -13    1    1    2    0    0 -0.41577547987E+01 -0.11175850142E+02  0.12183994769E+02  0.17048057951E+02  0.00000000000E+00 0. -1.
         13    1    1    2    0    0  0.41577547987E+01  0.11175850142E+02 -0.10966584148E+02  0.16200386392E+02  0.00000000000E+00 0.  1.
<mgrwt>
<rscale>  0 0.33226149E+02</rscale>
<asrwt>0</asrwt>
<pdfrwt beam="1">  1        3 0.26512196E-02 0.33226149E+02</pdfrwt>
<pdfrwt beam="2">  1       -3 0.24639257E-02 0.33226149E+02</pdfrwt>
<totfact> 0.54033082E+05</totfact>
</mgrwt>
</event>
<event>
 4    1  0.2126213E+000  0.2347365E+02  0.7546771E-02  0.1683945E+00
          1   -1    0    0  501    0  0.00000000000E+00  0.00000000000E+00  0.97373303628E+01  0.97373303628E+01  0.00000000000E+00 0. -1.
         -1   -1    0    0    0  501 -0.00000000000E+00 -0.00000000000E+00 -0.14146900548E+02  0.14146900548E+02  0.00000000000E+00 0.  1.
        -13    1    1    2    0    0 -0.45686042043E+01  0.10235726092E+02 -0.57457145973E+01  0.12595851271E+02  0.00000000000E+00 0. -1.
         13    1    1    2    0    0  0.45686042043E+01 -0.10235726092E+02  0.13361444122E+01  0.11288379640E+02  0.00000000000E+00 0.  1.
<mgrwt>
<rscale>  0 0.23473649E+02</rscale>
<asrwt>0</asrwt>
<pdfrwt beam="1">  1        1 0.14980508E-02 0.23473649E+02</pdfrwt>
<pdfrwt beam="2">  1       -1 0.21764462E-02 0.23473649E+02</pdfrwt>
<totfact> 0.26673477E+06</totfact>
</mgrwt>
</event>
<event>
 4    1  0.2126213E+000  0.2667108E+02  0.7546771E-02  0.1638098E+00
         -4   -1    0    0    0  501 -0.00000000000E+00  0.00000000000E+00  0.12228553317E+02  0.12228553317E+02  0.00000000000E+00 0. -1.
          4   -1    0    0  501    0  0.00000000000E+00 -0.00000000000E+00 -0.14542741490E+02  0.14542741490E+02  0.00000000000E+00 0.  1.
        -11    1    1    2    0    0  0.96478890711E+01 -0.71009213115E+01  0.47242590279E+01  0.12877246226E+02  0.00000000000E+00 0. -1.
         11    1    1    2    0    0 -0.96478890711E+01  0.71009213115E+01 -0.70384472008E+01  0.13894048582E+02  0.00000000000E+00 0.  1.
<mgrwt>
<rscale>  0 0.26671085E+02</rscale>
<asrwt>0</asrwt>
<pdfrwt beam="2">  1        4 0.22373448E-02 0.26671085E+02</pdfrwt>
<pdfrwt beam="1">  1       -4 0.18813159E-02 0.26671085E+02</pdfrwt>
<totfact> 0.68516960E+05</totfact>
</mgrwt>
</event>
<event>
 4    1  0.2126213E+000  0.1245676E+03  0.7546771E-02  0.1235747E+00
          2   -1    0    0  501    0  0.00000000000E+00  0.00000000000E+00  0.97017974429E+02  0.97017974429E+02  0.00000000000E+00 0. -1.
         -2   -1    0    0    0  501 -0.00000000000E+00 -0.00000000000E+00 -0.39985114213E+02  0.39985114213E+02  0.00000000000E+00 0.  1.
        -13    1    1    2    0    0 -0.21930480668E+02  0.35814887396E+02 -0.22071183668E+02  0.47442484020E+02  0.00000000000E+00 0.  1.
         13    1    1    2    0    0  0.21930480668E+02 -0.35814887396E+02  0.79104043884E+02  0.89560604622E+02  0.00000000000E+00 0. -1.
<mgrwt>
<rscale>  0 0.12456765E+03</rscale>
<asrwt>0</asrwt>
<pdfrwt beam="1">  1        2 0.14925842E-01 0.12456765E+03</pdfrwt>
<pdfrwt beam="2">  1       -2 0.61515560E-02 0.12456765E+03</pdfrwt>
<totfact> 0.50295880E+04</totfact>
</mgrwt>
</event>
<event>
 4    1  0.2126213E+000  0.6072620E+02  0.7546771E-02  0.1394809E+00
          2   -1    0    0  501    0  0.00000000000E+00  0.00000000000E+00  0.87455563774E+01  0.87455563774E+01  0.00000000000E+00 0.  1.
         -2   -1    0    0    0  501 -0.00000000000E+00 -0.00000000000E+00 -0.10541557335E+03  0.10541557335E+03  0.00000000000E+00 0. -1.
        -13    1    1    2    0    0  0.22050665028E+02 -0.11307444141E+02 -0.15351563456E+02  0.29150653881E+02  0.00000000000E+00 0.  1.
         13    1    1    2    0    0 -0.22050665028E+02  0.11307444141E+02 -0.81318453512E+02  0.85010475841E+02  0.00000000000E+00 0. -1.
<mgrwt>
<rscale>  0 0.60726200E+02</rscale>
<asrwt>0</asrwt>
<pdfrwt beam="1">  1        2 0.13454702E-02 0.60726200E+02</pdfrwt>
<pdfrwt beam="2">  1       -2 0.16217780E-01 0.60726200E+02</pdfrwt>
<totfact> 0.21598087E+05</totfact>
</mgrwt>
</event>
<event>
 4    1  0.2126213E+000  0.3338079E+02  0.7546771E-02  0.1563468E+00
          2   -1    0    0  501    0  0.00000000000E+00  0.00000000000E+00  0.13640113853E+02  0.13640113853E+02  0.00000000000E+00 0.  1.
         -2   -1    0    0    0  501 -0.00000000000E+00 -0.00000000000E+00 -0.20422799286E+02  0.20422799286E+02  0.00000000000E+00 0. -1.
        -13    1    1    2    0    0  0.12843638277E+02  0.29267733089E+01  0.70672036159E+01  0.14948926823E+02  0.00000000000E+00 0.  1.
         13    1    1    2    0    0 -0.12843638277E+02 -0.29267733089E+01 -0.13849889050E+02  0.19113986316E+02  0.00000000000E+00 0. -1.
<mgrwt>
<rscale>  0 0.33380791E+02</rscale>
<asrwt>0</asrwt>
<pdfrwt beam="1">  1        2 0.20984791E-02 0.33380791E+02</pdfrwt>
<pdfrwt beam="2">  1       -2 0.31419691E-02 0.33380791E+02</pdfrwt>
<totfact> 0.11897065E+06</totfact>
</mgrwt>
</event>
<event>
 4    1  0.2126213E+000  0.5636824E+02  0.7546771E-02  0.1413737E+00
         -2   -1    0    0    0  501 -0.00000000000E+00  0.00000000000E+00  0.39790869137E+01  0.39790869137E+01  0.00000000000E+00 0. -1.
          2   -1    0    0  501    0  0.00000000000E+00 -0.00000000000E+00 -0.19962989955E+03  0.19962989955E+03  0.00000000000E+00 0.  1.
        -13    1    1    2    0    0 -0.20647069306E+01 -0.24517089104E+02 -0.14748309520E+03  0.14952128291E+03  0.00000000000E+00 0.  1.
         13    1    1    2    0    0  0.20647069306E+01  0.24517089104E+02 -0.48167717434E+02  0.54087703553E+02  0.00000000000E+00 0. -1.
<mgrwt>
<rscale>  0 0.56368244E+02</rscale>
<asrwt>0</asrwt>
<pdfrwt beam="2">  1        2 0.30712299E-01 0.56368244E+02</pdfrwt>
<pdfrwt beam="1">  1       -2 0.61216708E-03 0.56368244E+02</pdfrwt>
<totfact> 0.54372373E+05</totfact>
</mgrwt>
</event>
<event>
 4    1  0.2126213E+000  0.2624723E+02  0.7546771E-02  0.1643708E+00
         -2   -1    0    0    0  501 -0.00000000000E+00  0.00000000000E+00  0.23813540397E+02  0.23813540397E+02  0.00000000000E+00 0.  1.
          2   -1    0    0  501    0  0.00000000000E+00 -0.00000000000E+00 -0.72324097037E+01  0.72324097037E+01  0.00000000000E+00 0. -1.
        -13    1    1    2    0    0 -0.12458342562E+02  0.29329801908E+01  0.48590177475E+01  0.13690241987E+02  0.00000000000E+00 0. -1.
         13    1    1    2    0    0  0.12458342562E+02 -0.29329801908E+01  0.11722112946E+02  0.17355708113E+02  0.00000000000E+00 0.  1.
<mgrwt>
<rscale>  0 0.26247231E+02</rscale>
<asrwt>0</asrwt>
<pdfrwt beam="2">  1        2 0.11126784E-02 0.26247231E+02</pdfrwt>
<pdfrwt beam="1">  1       -2 0.36636216E-02 0.26247231E+02</pdfrwt>
<totfact> 0.20194008E+06</totfact>
</mgrwt>
</event>
<event>
 4    1  0.2126213E+000  0.3855192E+02  0.7546771E-02  0.1519146E+00
          3   -1    0    0  501    0  0.00000000000E+00  0.00000000000E+00  0.60001609263E+01  0.60001609263E+01  0.00000000000E+00 0. -1.
         -3   -1    0    0    0  501 -0.00000000000E+00 -0.00000000000E+00 -0.61925436155E+02  0.61925436155E+02  0.00000000000E+00 0.  1.
        -11    1    1    2    0    0 -0.18336176460E+02  0.45295726126E+01 -0.21177466598E+02  0.28376354360E+02  0.00000000000E+00 0. -1.
         11    1    1    2    0    0  0.18336176460E+02 -0.45295726126E+01 -0.34747808631E+02  0.39549242722E+02  0.00000000000E+00 0.  1.
<mgrwt>
<rscale>  0 0.38551917E+02</rscale>
<asrwt>0</asrwt>
<pdfrwt beam="1">  1        3 0.92310172E-03 0.38551917E+02</pdfrwt>
<pdfrwt beam="2">  1       -3 0.95269898E-02 0.38551917E+02</pdfrwt>
<totfact> 0.34294060E+05</totfact>
</mgrwt>
</event>
<event>
 4    1  0.2126213E+000  0.3595761E+02  0.7546771E-02  0.1540258E+00
          2   -1    0    0  501    0  0.00000000000E+00  0.00000000000E+00  0.47832698190E+01  0.47832698190E+01  0.00000000000E+00 0. -1.
         -2   -1    0    0    0  501 -0.00000000000E+00 -0.00000000000E+00 -0.67576652052E+02  0.67576652052E+02  0.00000000000E+00 0.  1.
        -13    1    1    2    0    0 -0.70665538569E+01  0.15150072809E+02 -0.44711277838E+02  0.47734256623E+02  0.00000000000E+00 0.  1.
         13    1    1    2    0    0  0.70665538569E+01 -0.15150072809E+02 -0.18082104396E+02  0.24625665248E+02  0.00000000000E+00 0. -1.
<mgrwt>
<rscale>  0 0.35957606E+02</rscale>
<asrwt>0</asrwt>
<pdfrwt beam="1">  1        2 0.73588770E-03 0.35957606E+02</pdfrwt>
<pdfrwt beam="2">  1       -2 0.10396407E-01 0.35957606E+02</pdfrwt>
<totfact> 0.84823760E+05</totfact>
</mgrwt>
</event>
<event>
 4    1  0.2126213E+000  0.4035907E+02  0.7546771E-02  0.1505586E+00
          4   -1    0    0  501    0  0.00000000000E+00  0.00000000000E+00  0.23861732706E+03  0.23861732706E+03  0.00000000000E+00 0.  1.
         -4   -1    0    0    0  501 -0.00000000000E+00 -0.00000000000E+00 -0.17065548152E+01  0.17065548152E+01  0.00000000000E+00 0. -1.
        -11    1    1    2    0    0 -0.22168465384E+01 -0.20053582746E+02  0.12078424571E+03  0.12245772577E+03  0.00000000000E+00 0.  1.
         11    1    1    2    0    0  0.22168465384E+01  0.20053582746E+02  0.11612652653E+03  0.11786615610E+03  0.00000000000E+00 0. -1.
<mgrwt>
<rscale>  0 0.40359066E+02</rscale>
<asrwt>0</asrwt>
<pdfrwt beam="1">  1        4 0.36710332E-01 0.40359066E+02</pdfrwt>
<pdfrwt beam="2">  1       -4 0.26254708E-03 0.40359066E+02</pdfrwt>
<totfact> 0.15288877E+05</totfact>
</mgrwt>
</event>
<event>
 4    1  0.2126213E+000  0.3265331E+02  0.7546771E-02  0.1570485E+00
         -2   -1    0    0    0  501 -0.00000000000E+00  0.00000000000E+00  0.18506211405E+02  0.18506211405E+02  0.00000000000E+00 0.  1.
          2   -1    0    0  501    0  0.00000000000E+00 -0.00000000000E+00 -0.14403793413E+02  0.14403793413E+02  0.00000000000E+00 0. -1.
        -11    1    1    2    0    0 -0.12789998326E+02 -0.79064451924E+01 -0.43599067183E+01  0.15655820622E+02  0.00000000000E+00 0.  1.
         11    1    1    2    0    0  0.12789998326E+02  0.79064451924E+01  0.84623247102E+01  0.17254184196E+02  0.00000000000E+00 0. -1.
<mgrwt>
<rscale>  0 0.32653309E+02</rscale>
<asrwt>0</asrwt>
<pdfrwt beam="2">  1        2 0.22159682E-02 0.32653309E+02</pdfrwt>
<pdfrwt beam="1">  1       -2 0.28471094E-02 0.32653309E+02</pdfrwt>
<totfact> 0.12645978E+06</totfact>
</mgrwt>
</event>
<event>
 4    1  0.2126213E+000  0.2785159E+02  0.7546771E-02  0.1623127E+00
         -3   -1    0    0    0  501 -0.00000000000E+00  0.00000000000E+00  0.27222678632E+02  0.27222678632E+02  0.00000000000E+00 0. -1.
          3   -1    0    0  501    0  0.00000000000E+00 -0.00000000000E+00 -0.71237583875E+01  0.71237583875E+01  0.00000000000E+00 0.  1.
        -13    1    1    2    0    0  0.86402460356E+01  0.81940957698E+01  0.18953325249E+02  0.22383601029E+02  0.00000000000E+00 0. -1.
         13    1    1    2    0    0 -0.86402460356E+01 -0.81940957698E+01  0.11455949957E+01  0.11962835990E+02  0.00000000000E+00 0.  1.
<mgrwt>
<rscale>  0 0.27851591E+02</rscale>
<asrwt>0</asrwt>
<pdfrwt beam="2">  1        3 0.10959628E-02 0.27851591E+02</pdfrwt>
<pdfrwt beam="1">  1       -3 0.41881044E-02 0.27851591E+02</pdfrwt>
<totfact> 0.81354395E+05</totfact>
</mgrwt>
</event>
<event>
 4    1  0.2126213E+000  0.2109844E+02  0.7546771E-02  0.1724327E+00
          2   -1    0    0  501    0  0.00000000000E+00  0.00000000000E+00  0.56894339948E+01  0.56894339948E+01  0.00000000000E+00 0. -1.
         -2   -1    0    0    0  501 -0.00000000000E+00 -0.00000000000E+00 -0.19560129202E+02  0.19560129202E+02  0.00000000000E+00 0.  1.
        -13    1    1    2    0    0  0.82316003354E+01 -0.58585305342E+01 -0.10566146261E+02  0.14619338936E+02  0.00000000000E+00 0. -1.
         13    1    1    2    0    0 -0.82316003354E+01  0.58585305342E+01 -0.33045489457E+01  0.10630224261E+02  0.00000000000E+00 0.  1.
<mgrwt>
<rscale>  0 0.21098442E+02</rscale>
<asrwt>0</asrwt>
<pdfrwt beam="1">  1        2 0.87529753E-03 0.21098442E+02</pdfrwt>
<pdfrwt beam="2">  1       -2 0.30092507E-02 0.21098442E+02</pdfrwt>
<totfact> 0.33376980E+06</totfact>
</mgrwt>
</event>
<event>
 4    1  0.2126213E+000  0.2672109E+02  0.7546771E-02  0.1637445E+00
         -2   -1    0    0    0  501 -0.00000000000E+00  0.00000000000E+00  0.11942351265E+02  0.11942351265E+02  0.00000000000E+00 0.  1.
          2   -1    0    0  501    0  0.00000000000E+00 -0.00000000000E+00 -0.14947149350E+02  0.14947149350E+02  0.00000000000E+00 0. -1.
        -13    1    1    2    0    0  0.87777995048E+01  0.59585908605E+01 -0.96745148935E+01  0.14357952765E+02  0.00000000000E+00 0. -1.
         13    1    1    2    0    0 -0.87777995048E+01 -0.59585908605E+01  0.66697168085E+01  0.12531547849E+02  0.00000000000E+00 0.  1.
<mgrwt>
<rscale>  0 0.26721086E+02</rscale>
<asrwt>0</asrwt>
<pdfrwt beam="2">  1        2 0.22995614E-02 0.26721086E+02</pdfrwt>
<pdfrwt beam="1">  1       -2 0.18372848E-02 0.26721086E+02</pdfrwt>
<totfact> 0.20707511E+06</totfact>
</mgrwt>
</event>
<event>
 4    1  0.2126213E+000  0.2597735E+02  0.7546771E-02  0.1647348E+00
         -2   -1    0    0    0  501 -0.00000000000E+00  0.00000000000E+00  0.45223754907E+01  0.45223754907E+01  0.00000000000E+00 0. -1.
          2   -1    0    0  501    0  0.00000000000E+00 -0.00000000000E+00 -0.37304659347E+02  0.37304659347E+02  0.00000000000E+00 0.  1.
        -11    1    1    2    0    0 -0.89765535097E+01  0.66548443537E+01 -0.27052156840E+02  0.29269175868E+02  0.00000000000E+00 0.  1.
         11    1    1    2    0    0  0.89765535097E+01 -0.66548443537E+01 -0.57301270162E+01  0.12557858970E+02  0.00000000000E+00 0. -1.
<mgrwt>
<rscale>  0 0.25977350E+02</rscale>
<asrwt>0</asrwt>
<pdfrwt beam="2">  1        2 0.57391785E-02 0.25977350E+02</pdfrwt>
<pdfrwt beam="1">  1       -2 0.69575006E-03 0.25977350E+02</pdfrwt>
<totfact> 0.24457272E+06</totfact>
</mgrwt>
</event>
<event>
 4    1  0.2126213E+000  0.7184261E+02  0.7546771E-02  0.1353937E+00
          2   -1    0    0  501    0  0.00000000000E+00  0.00000000000E+00  0.70510779987E+01  0.70510779987E+01  0.00000000000E+00 0. -1.
         -2   -1    0    0    0  501 -0.00000000000E+00 -0.00000000000E+00 -0.18299897004E+03  0.18299897004E+03  0.00000000000E+00 0.  1.
        -11    1    1    2    0    0 -0.20766568623E+02  0.26648288876E+02 -0.12026024889E+03  0.12491560805E+03  0.00000000000E+00 0. -1.
         11    1    1    2    0    0  0.20766568623E+02 -0.26648288876E+02 -0.55687643153E+02  0.65134439986E+02  0.00000000000E+00 0.  1.
<mgrwt>
<rscale>  0 0.71842606E+02</rscale>
<asrwt>0</asrwt>
<pdfrwt beam="1">  1        2 0.10847815E-02 0.71842606E+02</pdfrwt>
<pdfrwt beam="2">  1       -2 0.28153681E-01 0.71842606E+02</pdfrwt>
<totfact> 0.11840093E+05</totfact>
</mgrwt>
</event>
<event>
 4    1  0.2126213E+000  0.5297668E+02  0.7546771E-02  0.1429917E+00
          2   -1    0    0  501    0  0.00000000000E+00  0.00000000000E+00  0.28636385467E+01  0.28636385467E+01  0.00000000000E+00 0.  1.
         -2   -1    0    0    0  501 -0.00000000000E+00 -0.00000000000E+00 -0.24501425199E+03  0.24501425199E+03  0.00000000000E+00 0. -1.
        -11    1    1    2    0    0 -0.23929175360E+02  0.93772570565E+01 -0.15106980215E+03  0.15324041081E+03  0.00000000000E+00 0.  1.
         11    1    1    2    0    0  0.23929175360E+02 -0.93772570565E+01 -0.91080811286E+02  0.94637479721E+02  0.00000000000E+00 0. -1.
<mgrwt>
<rscale>  0 0.52976684E+02</rscale>
<asrwt>0</asrwt>
<pdfrwt beam="1">  1        2 0.44055943E-03 0.52976684E+02</pdfrwt>
<pdfrwt beam="2">  1       -2 0.37694530E-01 0.52976684E+02</pdfrwt>
<totfact> 0.22343420E+05</totfact>
</mgrwt>
</event>
<event>
 4    1  0.2126213E+000  0.6687555E+02  0.7546771E-02  0.1371052E+00
         -2   -1    0    0    0  501 -0.00000000000E+00  0.00000000000E+00  0.21946421144E+02  0.21946421144E+02  0.00000000000E+00 0.  1.
          2   -1    0    0  501    0  0.00000000000E+00 -0.00000000000E+00 -0.50946105567E+02  0.50946105567E+02  0.00000000000E+00 0. -1.
        -13    1    1    2    0    0 -0.14851489088E+02  0.10566928593E+02 -0.45055222472E+02  0.48602466809E+02  0.00000000000E+00 0. -1.
         13    1    1    2    0    0  0.14851489088E+02 -0.10566928593E+02  0.16055538049E+02  0.24290059902E+02  0.00000000000E+00 0.  1.
<mgrwt>
<rscale>  0 0.66875547E+02</rscale>
<asrwt>0</asrwt>
<pdfrwt beam="2">  1        2 0.78378623E-02 0.66875547E+02</pdfrwt>
<pdfrwt beam="1">  1       -2 0.33763725E-02 0.66875547E+02</pdfrwt>
<totfact> 0.23950582E+05</totfact>
</mgrwt>
</event>
<event>
 4    1  0.2126213E+000  0.2791183E+02  0.7546771E-02  0.1622388E+00
          4   -1    0    0  501    0  0.00000000000E+00  0.00000000000E+00  0.13281556112E+02  0.13281556112E+02  0.00000000000E+00 0. -1.
         -4   -1    0    0    0  501 -0.00000000000E+00 -0.00000000000E+00 -0.14664513702E+02  0.14664513702E+02  0.00000000000E+00 0.  1.
        -11    1    1    2    0    0  0.13310951164E+02 -0.12253339456E+01  0.33240142534E+01  0.13774321577E+02  0.00000000000E+00 0. -1.
         11    1    1    2    0    0 -0.13310951164E+02  0.12253339456E+01 -0.47069718436E+01  0.14171748237E+02  0.00000000000E+00 0.  1.
<mgrwt>
<rscale>  0 0.27911830E+02</rscale>
<asrwt>0</asrwt>
<pdfrwt beam="1">  1        4 0.20433163E-02 0.27911830E+02</pdfrwt>
<pdfrwt beam="2">  1       -4 0.22560790E-02 0.27911830E+02</pdfrwt>
<totfact> 0.61663965E+05</totfact>
</mgrwt>
</event>
<event>
 4    1  0.2126213E+000  0.3702538E+02  0.7546771E-02  0.1531317E+00
         -2   -1    0    0    0  501 -0.00000000000E+00  0.00000000000E+00  0.28177308937E+02  0.28177308937E+02  0.00000000000E+00 0.  1.
          2   -1    0    0  501    0  0.00000000000E+00 -0.00000000000E+00 -0.12162966155E+02  0.12162966155E+02  0.00000000000E+00 0. -1.
        -11    1    1    2    0    0 -0.18034014021E+02  0.41708598998E+01  0.83481107070E+01  0.20305484146E+02  0.00000000000E+00 0.  1.
         11    1    1    2    0    0  0.18034014021E+02 -0.41708598998E+01  0.76662320756E+01  0.20034790946E+02  0.00000000000E+00 0. -1.
<mgrwt>
<rscale>  0 0.37025378E+02</rscale>
<asrwt>0</asrwt>
<pdfrwt beam="2">  1        2 0.18712256E-02 0.37025378E+02</pdfrwt>
<pdfrwt beam="1">  1       -2 0.43349706E-02 0.37025378E+02</pdfrwt>
<totfact> 0.90226249E+05</totfact>
</mgrwt>
</event>
<event>
 4    1  0.2126213E+000  0.2368352E+02  0.7546771E-02  0.1680664E+00
         -2   -1    0    0    0  501 -0.00000000000E+00  0.00000000000E+00  0.19656152020E+01  0.19656152020E+01  0.00000000000E+00 0. -1.
          2   -1    0    0  501    0  0.00000000000E+00 -0.00000000000E+00 -0.71340168830E+02  0.71340168830E+02  0.00000000000E+00 0.  1.
        -13    1    1    2    0    0 -0.42188271026E+01  0.98021916548E+01 -0.50574503600E+02  0.51688121244E+02  0.00000000000E+00 0.  1.
         13    1    1    2    0    0  0.42188271026E+01 -0.98021916548E+01 -0.18800050028E+02  0.21617662788E+02  0.00000000000E+00 0. -1.
<mgrwt>
<rscale>  0 0.23683523E+02</rscale>
<asrwt>0</asrwt>
<pdfrwt beam="2">  1        2 0.10975410E-01 0.23683523E+02</pdfrwt>
<pdfrwt beam="1">  1       -2 0.30240235E-03 0.23683523E+02</pdfrwt>
<totfact> 0.33625318E+06</totfact>
</mgrwt>
</event>
<event>
 4    1  0.2126213E+000  0.2389926E+02  0.7546771E-02  0.1677335E+00
         -2   -1    0    0    0  501 -0.00000000000E+00  0.00000000000E+00  0.10416723261E+02  0.10416723261E+02  0.00000000000E+00 0.  1.
          2   -1    0    0  501    0  0.00000000000E+00 -0.00000000000E+00 -0.13708113787E+02  0.13708113787E+02  0.00000000000E+00 0. -1.
        -13    1    1    2    0    0  0.11067465867E+02 -0.24546854170E+01  0.21687742317E+01  0.11542004283E+02  0.00000000000E+00 0. -1.
         13    1    1    2    0    0 -0.11067465867E+02  0.24546854170E+01 -0.54601647569E+01  0.12582832765E+02  0.00000000000E+00 0.  1.
<mgrwt>
<rscale>  0 0.23899258E+02</rscale>
<asrwt>0</asrwt>
<pdfrwt beam="2">  1        2 0.21089406E-02 0.23899258E+02</pdfrwt>
<pdfrwt beam="1">  1       -2 0.16025728E-02 0.23899258E+02</pdfrwt>
<totfact> 0.26775465E+06</totfact>
</mgrwt>
</event>
<event>
 4    1  0.2126213E+000  0.2519801E+02  0.7546771E-02  0.1658174E+00
         -2   -1    0    0    0  501 -0.00000000000E+00  0.00000000000E+00  0.20989160688E+02  0.20989160688E+02  0.00000000000E+00 0.  1.
          2   -1    0    0  501    0  0.00000000000E+00 -0.00000000000E+00 -0.75627075448E+01  0.75627075448E+01  0.00000000000E+00 0. -1.
        -13    1    1    2    0    0  0.11808802416E+02  0.40534012018E+01  0.86284704434E+01  0.15176573328E+02  0.00000000000E+00 0. -1.
         13    1    1    2    0    0 -0.11808802416E+02 -0.40534012018E+01  0.47979826994E+01  0.13375294904E+02  0.00000000000E+00 0.  1.
<mgrwt>
<rscale>  0 0.25198007E+02</rscale>
<asrwt>0</asrwt>
<pdfrwt beam="2">  1        2 0.11634935E-02 0.25198007E+02</pdfrwt>
<pdfrwt beam="1">  1       -2 0.32291016E-02 0.25198007E+02</pdfrwt>
<totfact> 0.22400763E+06</totfact>
</mgrwt>
</event>
<event>
 4    1  0.2126213E+000  0.3242976E+02  0.7546771E-02  0.1572686E+00
         -1   -1    0    0    0  501 -0.00000000000E+00  0.00000000000E+00  0.12798841916E+02  0.12798841916E+02  0.00000000000E+00 0.  1.
          1   -1    0    0  501    0  0.00000000000E+00 -0.00000000000E+00 -0.20542660966E+02  0.20542660966E+02  0.00000000000E+00 0. -1.
        -11    1    1    2    0    0  0.87466074718E+01  0.12956092714E+02  0.55719891217E+00  0.15642057132E+02  0.00000000000E+00 0.  1.
         11    1    1    2    0    0 -0.87466074718E+01 -0.12956092714E+02 -0.83010179618E+01  0.17699445751E+02  0.00000000000E+00 0. -1.
<mgrwt>
<rscale>  0 0.32429756E+02</rscale>
<asrwt>0</asrwt>
<pdfrwt beam="2">  1        1 0.31604093E-02 0.32429756E+02</pdfrwt>
<pdfrwt beam="1">  1       -1 0.19690526E-02 0.32429756E+02</pdfrwt>
<totfact> 0.12825446E+06</totfact>
</mgrwt>
</event>
<event>
 4    1  0.2126213E+000  0.2346521E+02  0.7546771E-02  0.1684078E+00
         -2   -1    0    0    0  501 -0.00000000000E+00  0.00000000000E+00  0.31627576374E+01  0.31627576374E+01  0.00000000000E+00 0. -1.
          2   -1    0    0  501    0  0.00000000000E+00 -0.00000000000E+00 -0.43523403847E+02  0.43523403847E+02  0.00000000000E+00 0.  1.
        -13    1    1    2    0    0 -0.11219591546E+02  0.29607519616E+01 -0.16729262367E+02  0.20359604760E+02  0.00000000000E+00 0.  1.
         13    1    1    2    0    0  0.11219591546E+02 -0.29607519616E+01 -0.23631383842E+02  0.26326556724E+02  0.00000000000E+00 0. -1.
<mgrwt>
<rscale>  0 0.23465206E+02</rscale>
<asrwt>0</asrwt>
<pdfrwt beam="2">  1        2 0.66959078E-02 0.23465206E+02</pdfrwt>
<pdfrwt beam="1">  1       -2 0.48657813E-03 0.23465206E+02</pdfrwt>
<totfact> 0.31623979E+06</totfact>
</mgrwt>
</event>
<event>
 4    1  0.2126213E+000  0.5820149E+02  0.7546771E-02  0.1405538E+00
         -1   -1    0    0    0  501 -0.00000000000E+00  0.00000000000E+00  0.71717994858E+01  0.71717994858E+01  0.00000000000E+00 0.  1.
          1   -1    0    0  501    0  0.00000000000E+00 -0.00000000000E+00 -0.11808102727E+03  0.11808102727E+03  0.00000000000E+00 0. -1.
        -11    1    1    2    0    0 -0.39752397025E+01 -0.19884579888E+02 -0.10037303303E+03  0.10240090238E+03  0.00000000000E+00 0. -1.
         11    1    1    2    0    0  0.39752397025E+01  0.19884579888E+02 -0.10536194759E+02  0.22851924383E+02  0.00000000000E+00 0.  1.
<mgrwt>
<rscale>  0 0.58201493E+02</rscale>
<asrwt>0</asrwt>
<pdfrwt beam="2">  1        1 0.18166311E-01 0.58201493E+02</pdfrwt>
<pdfrwt beam="1">  1       -1 0.11033538E-02 0.58201493E+02</pdfrwt>
<totfact> 0.35116173E+05</totfact>
</mgrwt>
</event>
<event>
 4    1  0.2126213E+000  0.2343363E+02  0.7546771E-02  0.1684576E+00
          4   -1    0    0  501    0  0.00000000000E+00  0.00000000000E+00  0.62563462415E+02  0.62563462415E+02  0.00000000000E+00 0. -1.
         -4   -1    0    0    0  501 -0.00000000000E+00 -0.00000000000E+00 -0.21943121015E+01  0.21943121015E+01  0.00000000000E+00 0.  1.
        -13    1    1    2    0    0  0.10286179935E+02  0.48993992034E+01  0.22629595326E+02  0.25335907223E+02  0.00000000000E+00 0.  1.
         13    1    1    2    0    0 -0.10286179935E+02 -0.48993992034E+01  0.37739554988E+02  0.39421867293E+02  0.00000000000E+00 0. -1.
<mgrwt>
<rscale>  0 0.23433631E+02</rscale>
<asrwt>0</asrwt>
<pdfrwt beam="1">  1        4 0.96251467E-02 0.23433631E+02</pdfrwt>
<pdfrwt beam="2">  1       -4 0.33758652E-03 0.23433631E+02</pdfrwt>
<totfact> 0.78912841E+05</totfact>
</mgrwt>
</event>
<event>
 4    1  0.2126213E+000  0.2857587E+02  0.7546771E-02  0.1614386E+00
          2   -1    0    0  501    0  0.00000000000E+00  0.00000000000E+00  0.36504507650E+01  0.36504507650E+01  0.00000000000E+00 0. -1.
         -2   -1    0    0    0  501 -0.00000000000E+00 -0.00000000000E+00 -0.55923239757E+02  0.55923239757E+02  0.00000000000E+00 0.  1.
        -11    1    1    2    0    0  0.10186477716E+02 -0.81877806005E+01 -0.14098678004E+02  0.19224380377E+02  0.00000000000E+00 0. -1.
         11    1    1    2    0    0 -0.10186477716E+02  0.81877806005E+01 -0.38174110989E+02  0.40349310146E+02  0.00000000000E+00 0.  1.
<mgrwt>
<rscale>  0 0.28575866E+02</rscale>
<asrwt>0</asrwt>
<pdfrwt beam="1">  1        2 0.56160782E-03 0.28575866E+02</pdfrwt>
<pdfrwt beam="2">  1       -2 0.86035751E-02 0.28575866E+02</pdfrwt>
<totfact> 0.14965405E+06</totfact>
</mgrwt>
</event>
<event>
 4    1  0.2126213E+000  0.2227326E+02  0.7546771E-02  0.1703569E+00
         -4   -1    0    0    0  501 -0.00000000000E+00  0.00000000000E+00  0.75791030543E+01  0.75791030543E+01  0.00000000000E+00 0. -1.
          4   -1    0    0  501    0  0.00000000000E+00 -0.00000000000E+00 -0.16364012061E+02  0.16364012061E+02  0.00000000000E+00 0.  1.
        -11    1    1    2    0    0  0.90885747679E+01 -0.62775078558E+01 -0.59184736579E+01  0.12531465462E+02  0.00000000000E+00 0.  1.
         11    1    1    2    0    0 -0.90885747679E+01  0.62775078558E+01 -0.28664353484E+01  0.11411649653E+02  0.00000000000E+00 0. -1.
<mgrwt>
<rscale>  0 0.22273261E+02</rscale>
<asrwt>0</asrwt>
<pdfrwt beam="2">  1        4 0.25175403E-02 0.22273261E+02</pdfrwt>
<pdfrwt beam="1">  1       -4 0.11660159E-02 0.22273261E+02</pdfrwt>
<totfact> 0.10223962E+06</totfact>
</mgrwt>
</event>
<event>
 4    1  0.2126213E+000  0.2353482E+02  0.7546771E-02  0.1682985E+00
          4   -1    0    0  501    0  0.00000000000E+00  0.00000000000E+00  0.39002246050E+02  0.39002246050E+02  0.00000000000E+00 0.  1.
         -4   -1    0    0    0  501 -0.00000000000E+00 -0.00000000000E+00 -0.35503586266E+01  0.35503586266E+01  0.00000000000E+00 0. -1.
        -13    1    1    2    0    0 -0.11545056920E+02 -0.13841559014E+01  0.14457518352E+02  0.18553276361E+02  0.00000000000E+00 0. -1.
         13    1    1    2    0    0  0.11545056920E+02  0.13841559014E+01  0.20994369072E+02  0.23999328315E+02  0.00000000000E+00 0.  1.
<mgrwt>
<rscale>  0 0.23534822E+02</rscale>
<asrwt>0</asrwt>
<pdfrwt beam="1">  1        4 0.60003452E-02 0.23534822E+02</pdfrwt>
<pdfrwt beam="2">  1       -4 0.54620905E-03 0.23534822E+02</pdfrwt>
<totfact> 0.84492205E+05</totfact>
</mgrwt>
</event>
<event>
 4    1  0.2126213E+000  0.2771478E+02  0.7546771E-02  0.1624815E+00
          2   -1    0    0  501    0  0.00000000000E+00  0.00000000000E+00  0.46618215607E+01  0.46618215607E+01  0.00000000000E+00 0.  1.
         -2   -1    0    0    0  501 -0.00000000000E+00 -0.00000000000E+00 -0.41191453638E+02  0.41191453638E+02  0.00000000000E+00 0. -1.
        -13    1    1    2    0    0 -0.44638217368E+01  0.10891869759E+02 -0.61669520854E+01  0.13288710598E+02  0.00000000000E+00 0.  1.
         13    1    1    2    0    0  0.44638217368E+01 -0.10891869759E+02 -0.30362679992E+02  0.32564564601E+02  0.00000000000E+00 0. -1.
<mgrwt>
<rscale>  0 0.27714776E+02</rscale>
<asrwt>0</asrwt>
<pdfrwt beam="1">  1        2 0.71720330E-03 0.27714776E+02</pdfrwt>
<pdfrwt beam="2">  1       -2 0.63371469E-02 0.27714776E+02</pdfrwt>
<totfact> 0.16775192E+06</totfact>
</mgrwt>
</event>
<event>
 4    1  0.2126213E+000  0.7099551E+02  0.7546771E-02  0.1356740E+00
          2   -1    0    0  501    0  0.00000000000E+00  0.00000000000E+00  0.13955563995E+03  0.13955563995E+03  0.00000000000E+00 0.  1.
         -2   -1    0    0    0  501 -0.00000000000E+00 -0.00000000000E+00 -0.90293067633E+01  0.90293067633E+01  0.00000000000E+00 0. -1.
        -11    1    1    2    0    0  0.22223433252E+02  0.27643998509E+02  0.62289331551E+02  0.71680070201E+02  0.00000000000E+00 0.  1.
         11    1    1    2    0    0 -0.22223433252E+02 -0.27643998509E+02  0.68237001635E+02  0.76904876511E+02  0.00000000000E+00 0. -1.
<mgrwt>
<rscale>  0 0.70995512E+02</rscale>
<asrwt>0</asrwt>
<pdfrwt beam="1">  1        2 0.21470097E-01 0.70995512E+02</pdfrwt>
<pdfrwt beam="2">  1       -2 0.13891242E-02 0.70995512E+02</pdfrwt>
<totfact> 0.26645778E+05</totfact>
</mgrwt>
</event>
<event>
 4    1  0.2126213E+000  0.2699251E+02  0.7546771E-02  0.1633929E+00
          3   -1    0    0  501    0  0.00000000000E+00  0.00000000000E+00  0.32898050990E+02  0.32898050990E+02  0.00000000000E+00 0. -1.
         -3   -1    0    0    0  501 -0.00000000000E+00 -0.00000000000E+00 -0.55367697409E+01  0.55367697409E+01  0.00000000000E+00 0.  1.
        -13    1    1    2    0    0  0.54238951927E+01  0.93466447377E+01  0.25193217385E+02  0.27413073690E+02  0.00000000000E+00 0. -1.
         13    1    1    2    0    0 -0.54238951927E+01 -0.93466447377E+01  0.21680638639E+01  0.11021747041E+02  0.00000000000E+00 0.  1.
<mgrwt>
<rscale>  0 0.26992513E+02</rscale>
<asrwt>0</asrwt>
<pdfrwt beam="1">  1        3 0.50612385E-02 0.26992513E+02</pdfrwt>
<pdfrwt beam="2">  1       -3 0.85181074E-03 0.26992513E+02</pdfrwt>
<totfact> 0.86293205E+05</totfact>
</mgrwt>
</event>
<event>
 4    1  0.2126213E+000  0.4239491E+02  0.7546771E-02  0.1491292E+00
          2   -1    0    0  501    0  0.00000000000E+00  0.00000000000E+00  0.16194286617E+02  0.16194286617E+02  0.00000000000E+00 0. -1.
         -2   -1    0    0    0  501 -0.00000000000E+00 -0.00000000000E+00 -0.27746335208E+02  0.27746335208E+02  0.00000000000E+00 0.  1.
        -11    1    1    2    0    0 -0.12941829852E+02 -0.49019967453E+01  0.10865905365E+02  0.17595125217E+02  0.00000000000E+00 0. -1.
         11    1    1    2    0    0  0.12941829852E+02  0.49019967453E+01 -0.22417953956E+02  0.26345496609E+02  0.00000000000E+00 0.  1.
<mgrwt>
<rscale>  0 0.42394910E+02</rscale>
<asrwt>0</asrwt>
<pdfrwt beam="1">  1        2 0.24914287E-02 0.42394910E+02</pdfrwt>
<pdfrwt beam="2">  1       -2 0.42686669E-02 0.42394910E+02</pdfrwt>
<totfact> 0.65970299E+05</totfact>
</mgrwt>
</event>
<event>
 4    1  0.2126213E+000  0.2191197E+02  0.7546771E-02  0.1709779E+00
         -4   -1    0    0    0  501 -0.00000000000E+00  0.00000000000E+00  0.21037610226E+02  0.21037610226E+02  0.00000000000E+00 0. -1.
          4   -1    0    0  501    0  0.00000000000E+00 -0.00000000000E+00 -0.57056675277E+01  0.57056675277E+01  0.00000000000E+00 0.  1.
        -13    1    1    2    0    0 -0.68489477175E+01 -0.76519859088E+01  0.30068687969E+01  0.10700571627E+02  0.00000000000E+00 0.  1.
         13    1    1    2    0    0  0.68489477175E+01  0.76519859088E+01  0.12325073901E+02  0.16042706126E+02  0.00000000000E+00 0. -1.
<mgrwt>
<rscale>  0 0.21911970E+02</rscale>
<asrwt>0</asrwt>
<pdfrwt beam="2">  1        4 0.87779502E-03 0.21911970E+02</pdfrwt>
<pdfrwt beam="1">  1       -4 0.32365554E-02 0.21911970E+02</pdfrwt>
<totfact> 0.10455459E+06</totfact>
</mgrwt>
</event>
<event>
 4    1  0.2126213E+000  0.3238721E+02  0.7546771E-02  0.1573107E+00
          4   -1    0    0  501    0  0.00000000000E+00  0.00000000000E+00  0.36919934278E+02  0.36919934278E+02  0.00000000000E+00 0.  1.
         -4   -1    0    0    0  501 -0.00000000000E+00 -0.00000000000E+00 -0.71027438460E+01  0.71027438460E+01  0.00000000000E+00 0. -1.
        -13    1    1    2    0    0  0.15542164421E+02 -0.16674283606E+01  0.91588007415E+01  0.18116920910E+02  0.00000000000E+00 0.  1.
         13    1    1    2    0    0 -0.15542164421E+02  0.16674283606E+01  0.20658389690E+02  0.25905757214E+02  0.00000000000E+00 0. -1.
<mgrwt>
<rscale>  0 0.32387210E+02</rscale>
<asrwt>0</asrwt>
<pdfrwt beam="1">  1        4 0.56799898E-02 0.32387210E+02</pdfrwt>
<pdfrwt beam="2">  1       -4 0.10927298E-02 0.32387210E+02</pdfrwt>
<totfact> 0.41518188E+05</totfact>
</mgrwt>
</event>
<event>
 4    1  0.2126213E+000  0.2455515E+02  0.7546771E-02  0.1667475E+00
          2   -1    0    0  501    0  0.00000000000E+00  0.00000000000E+00  0.42732346432E+02  0.42732346432E+02  0.00000000000E+00 0.  1.
         -2   -1    0    0    0  501 -0.00000000000E+00 -0.00000000000E+00 -0.35275124598E+01  0.35275124598E+01  0.00000000000E+00 0. -1.
        -13    1    1    2    0    0 -0.86830866389E+01  0.57915479547E+01  0.31782613201E+02  0.33452541356E+02  0.00000000000E+00 0.  1.
         13    1    1    2    0    0  0.86830866389E+01 -0.57915479547E+01  0.74222207715E+01  0.12807317536E+02  0.00000000000E+00 0. -1.
<mgrwt>
<rscale>  0 0.24555153E+02</rscale>
<asrwt>0</asrwt>
<pdfrwt beam="1">  1        2 0.65742068E-02 0.24555153E+02</pdfrwt>
<pdfrwt beam="2">  1       -2 0.54269425E-03 0.24555153E+02</pdfrwt>
<totfact> 0.28410001E+06</totfact>
</mgrwt>
</event>
<event>
 4    1  0.2126213E+000  0.3957016E+02  0.7546771E-02  0.1511399E+00
         -2   -1    0    0    0  501 -0.00000000000E+00  0.00000000000E+00  0.11957052858E+02  0.11957052858E+02  0.00000000000E+00 0.  1.
          2   -1    0    0  501    0  0.00000000000E+00 -0.00000000000E+00 -0.32737942260E+02  0.32737942260E+02  0.00000000000E+00 0. -1.
        -13    1    1    2    0    0 -0.10184908666E+02  0.16524399105E+02 -0.14715339368E+02  0.24358352634E+02  0.00000000000E+00 0. -1.
         13    1    1    2    0    0  0.10184908666E+02 -0.16524399105E+02 -0.60655500342E+01  0.20336642485E+02  0.00000000000E+00 0.  1.
<mgrwt>
<rscale>  0 0.39570156E+02</rscale>
<asrwt>0</asrwt>
<pdfrwt beam="2">  1        2 0.50366065E-02 0.39570156E+02</pdfrwt>
<pdfrwt beam="1">  1       -2 0.18395466E-02 0.39570156E+02</pdfrwt>
<totfact> 0.86633772E+05</totfact>
</mgrwt>
</event>
<event>
 4    1  0.2126213E+000  0.3314531E+02  0.7546771E-02  0.1565716E+00
          1   -1    0    0  501    0  0.00000000000E+00  0.00000000000E+00  0.39415089784E+02  0.39415089784E+02  0.00000000000E+00 0. -1.
         -1   -1    0    0    0  501 -0.00000000000E+00 -0.00000000000E+00 -0.69682149114E+01  0.69682149114E+01  0.00000000000E+00 0.  1.
        -13    1    1    2    0    0 -0.13136307372E+02  0.22156799917E+01  0.30018712416E+02  0.32841968642E+02  0.00000000000E+00 0. -1.
         13    1    1    2    0    0  0.13136307372E+02 -0.22156799917E+01  0.24281624570E+01  0.13541336053E+02  0.00000000000E+00 0.  1.
<mgrwt>
<rscale>  0 0.33145305E+02</rscale>
<asrwt>0</asrwt>
<pdfrwt beam="1">  1        1 0.60638598E-02 0.33145305E+02</pdfrwt>
<pdfrwt beam="2">  1       -1 0.10720331E-02 0.33145305E+02</pdfrwt>
<totfact> 0.12693996E+06</totfact>
</mgrwt>
</event>
<event>
 4    1  0.2126213E+000  0.2621465E+02  0.7546771E-02  0.1644144E+00
         -2   -1    0    0    0  501 -0.00000000000E+00  0.00000000000E+00  0.27725455822E+01  0.27725455822E+01  0.00000000000E+00 0.  1.
          2   -1    0    0  501    0  0.00000000000E+00 -0.00000000000E+00 -0.61965446741E+02  0.61965446741E+02  0.00000000000E+00 0. -1.
        -13    1    1    2    0    0 -0.11228277518E+02  0.23655249772E+00 -0.46285799900E+02  0.47628829982E+02  0.00000000000E+00 0. -1.
         13    1    1    2    0    0  0.11228277518E+02 -0.23655249772E+00 -0.12907101259E+02  0.17109162341E+02  0.00000000000E+00 0.  1.
<mgrwt>
<rscale>  0 0.26214654E+02</rscale>
<asrwt>0</asrwt>
<pdfrwt beam="2">  1        2 0.95331458E-02 0.26214654E+02</pdfrwt>
<pdfrwt beam="1">  1       -2 0.42654547E-03 0.26214654E+02</pdfrwt>
<totfact> 0.25916108E+06</totfact>
</mgrwt>
</event>
<event>
 4    1  0.2126213E+000  0.4736184E+02  0.7546771E-02  0.1460114E+00
         -2   -1    0    0    0  501 -0.00000000000E+00  0.00000000000E+00  0.70068524487E+02  0.70068524487E+02  0.00000000000E+00 0. -1.
          2   -1    0    0  501    0  0.00000000000E+00 -0.00000000000E+00 -0.80033936881E+01  0.80033936881E+01  0.00000000000E+00 0.  1.
        -11    1    1    2    0    0  0.12710174022E+02 -0.13610518490E+02  0.69188414402E+01  0.19866179907E+02  0.00000000000E+00 0.  1.
         11    1    1    2    0    0 -0.12710174022E+02  0.13610518490E+02  0.55146289358E+02  0.58205738267E+02  0.00000000000E+00 0. -1.
<mgrwt>
<rscale>  0 0.47361841E+02</rscale>
<asrwt>0</asrwt>
<pdfrwt beam="2">  1        2 0.12312914E-02 0.47361841E+02</pdfrwt>
<pdfrwt beam="1">  1       -2 0.10779773E-01 0.47361841E+02</pdfrwt>
<totfact> 0.43619131E+05</totfact>
</mgrwt>
</event>
<event>
 4    1  0.2126213E+000  0.2445801E+02  0.7546771E-02  0.1668911E+00
         -2   -1    0    0    0  501 -0.00000000000E+00  0.00000000000E+00  0.11853739812E+02  0.11853739812E+02  0.00000000000E+00 0. -1.
          2   -1    0    0  501    0  0.00000000000E+00 -0.00000000000E+00 -0.12616151100E+02  0.12616151100E+02  0.00000000000E+00 0.  1.
        -13    1    1    2    0    0  0.83507444716E+01 -0.87060779005E+01  0.16242247596E+01  0.12172462023E+02  0.00000000000E+00 0. -1.
         13    1    1    2    0    0 -0.83507444716E+01  0.87060779005E+01 -0.23866360472E+01  0.12297428888E+02  0.00000000000E+00 0.  1.
<mgrwt>
<rscale>  0 0.24458011E+02</rscale>
<asrwt>0</asrwt>
<pdfrwt beam="2">  1        2 0.19409463E-02 0.24458011E+02</pdfrwt>
<pdfrwt beam="1">  1       -2 0.18236523E-02 0.24458011E+02</pdfrwt>
<totfact> 0.25176294E+06</totfact>
</mgrwt>
</event>
<event>
 4    1  0.2126213E+000  0.6764062E+02  0.7546771E-02  0.1368305E+00
          4   -1    0    0  501    0  0.00000000000E+00  0.00000000000E+00  0.53790847043E+02  0.53790847043E+02  0.00000000000E+00 0.  1.
         -4   -1    0    0    0  501 -0.00000000000E+00 -0.00000000000E+00 -0.21264091172E+02  0.21264091172E+02  0.00000000000E+00 0. -1.
        -13    1    1    2    0    0 -0.14927103568E+02 -0.25731641117E+02  0.34116698074E+02  0.45264609387E+02  0.00000000000E+00 0.  1.
         13    1    1    2    0    0  0.14927103568E+02  0.25731641117E+02 -0.15899422030E+01  0.29790328828E+02  0.00000000000E+00 0. -1.
<mgrwt>
<rscale>  0 0.67640623E+02</rscale>
<asrwt>0</asrwt>
<pdfrwt beam="1">  1        4 0.82755149E-02 0.67640623E+02</pdfrwt>
<pdfrwt beam="2">  1       -4 0.32713987E-02 0.67640623E+02</pdfrwt>
<totfact> 0.62201640E+04</totfact>
</mgrwt>
</event>
<event>
 4    1  0.2126213E+000  0.5431214E+02  0.7546771E-02  0.1423380E+00
         -2   -1    0    0    0  501 -0.00000000000E+00  0.00000000000E+00  0.16655034924E+03  0.16655034924E+03  0.00000000000E+00 0.  1.
          2   -1    0    0  501    0  0.00000000000E+00 -0.00000000000E+00 -0.44278022894E+01  0.44278022894E+01  0.00000000000E+00 0. -1.
        -13    1    1    2    0    0 -0.12997415274E+02  0.23170663092E+02  0.63353696750E+02  0.68698641354E+02  0.00000000000E+00 0.  1.
         13    1    1    2    0    0  0.12997415274E+02 -0.23170663092E+02  0.98768850201E+02  0.10227951018E+03  0.00000000000E+00 0. -1.
<mgrwt>
<rscale>  0 0.54312136E+02</rscale>
<asrwt>0</asrwt>
<pdfrwt beam="2">  1        2 0.68120048E-03 0.54312136E+02</pdfrwt>
<pdfrwt beam="1">  1       -2 0.25623126E-01 0.54312136E+02</pdfrwt>
<totfact> 0.24677793E+05</totfact>
</mgrwt>
</event>
<event>
 4    1  0.2126213E+000  0.2397778E+02  0.7546771E-02  0.1676134E+00
         -2   -1    0    0    0  501 -0.00000000000E+00  0.00000000000E+00  0.35786523595E+01  0.35786523595E+01  0.00000000000E+00 0.  1.
          2   -1    0    0  501    0  0.00000000000E+00 -0.00000000000E+00 -0.40164134050E+02  0.40164134050E+02  0.00000000000E+00 0. -1.
        -13    1    1    2    0    0 -0.24500649744E+01  0.10475899247E+02 -0.86418061899E+01  0.13799568748E+02  0.00000000000E+00 0.  1.
         13    1    1    2    0    0  0.24500649744E+01 -0.10475899247E+02 -0.27943675501E+02  0.29943217661E+02  0.00000000000E+00 0. -1.
<mgrwt>
<rscale>  0 0.23977779E+02</rscale>
<asrwt>0</asrwt>
<pdfrwt beam="2">  1        2 0.61790975E-02 0.23977779E+02</pdfrwt>
<pdfrwt beam="1">  1       -2 0.55056190E-03 0.23977779E+02</pdfrwt>
<totfact> 0.29755222E+06</totfact>
</mgrwt>
</event>
<event>
 4    1  0.2126213E+000  0.3802795E+02  0.7546771E-02  0.1523246E+00
          2   -1    0    0  501    0  0.00000000000E+00  0.00000000000E+00  0.88982670023E+02  0.88982670023E+02  0.00000000000E+00 0. -1.
         -2   -1    0    0    0  501 -0.00000000000E+00 -0.00000000000E+00 -0.40629393005E+01  0.40629393005E+01  0.00000000000E+00 0.  1.
        -13    1    1    2    0    0 -0.18054035279E+02  0.10562199540E+01  0.28095142679E+02  0.33412584943E+02  0.00000000000E+00 0. -1.
         13    1    1    2    0    0  0.18054035279E+02 -0.10562199540E+01  0.56824588044E+02  0.59633024380E+02  0.00000000000E+00 0.  1.
<mgrwt>
<rscale>  0 0.38027947E+02</rscale>
<asrwt>0</asrwt>
<pdfrwt beam="1">  1        2 0.13689640E-01 0.38027947E+02</pdfrwt>
<pdfrwt beam="2">  1       -2 0.62506765E-03 0.38027947E+02</pdfrwt>
<totfact> 0.11496538E+06</totfact>
</mgrwt>
</event>
<event>
 4    1  0.2126213E+000  0.4809055E+02  0.7546771E-02  0.1455921E+00
         -2   -1    0    0    0  501 -0.00000000000E+00  0.00000000000E+00  0.43857836345E+02  0.43857836345E+02  0.00000000000E+00 0. -1.
          2   -1    0    0  501    0  0.00000000000E+00 -0.00000000000E+00 -0.13182938675E+02  0.13182938675E+02  0.00000000000E+00 0.  1.
        -13    1    1    2    0    0 -0.11399646206E+02  0.36446353032E+01  0.40074066318E+02  0.41823033025E+02  0.00000000000E+00 0. -1.
         13    1    1    2    0    0  0.11399646206E+02 -0.36446353032E+01 -0.93991686489E+01  0.15217741995E+02  0.00000000000E+00 0.  1.
<mgrwt>
<rscale>  0 0.48090547E+02</rscale>
<asrwt>0</asrwt>
<pdfrwt beam="2">  1        2 0.20281444E-02 0.48090547E+02</pdfrwt>
<pdfrwt beam="1">  1       -2 0.67473594E-02 0.48090547E+02</pdfrwt>
<totfact> 0.45752007E+05</totfact>
</mgrwt>
</event>
<event>
 4    1  0.2126213E+000  0.2449691E+02  0.7546771E-02  0.1668335E+00
          2   -1    0    0  501    0  0.00000000000E+00  0.00000000000E+00  0.10232315397E+02  0.10232315397E+02  0.00000000000E+00 0.  1.
         -2   -1    0    0    0  501 -0.00000000000E+00 -0.00000000000E+00 -0.14661849258E+02  0.14661849258E+02  0.00000000000E+00 0. -1.
        -11    1    1    2    0    0 -0.11062418175E+02 -0.44450038653E+01 -0.50691434600E+01  0.12954974746E+02  0.00000000000E+00 0.  1.
         11    1    1    2    0    0  0.11062418175E+02  0.44450038653E+01  0.63960959854E+00  0.11939189909E+02  0.00000000000E+00 0. -1.
<mgrwt>
<rscale>  0 0.24496911E+02</rscale>
<asrwt>0</asrwt>
<pdfrwt beam="1">  1        2 0.15742024E-02 0.24496911E+02</pdfrwt>
<pdfrwt beam="2">  1       -2 0.22556691E-02 0.24496911E+02</pdfrwt>
<totfact> 0.24631347E+06</totfact>
</mgrwt>
</event>
<event>
 4    1  0.2126213E+000  0.2650411E+02  0.7546771E-02  0.1640293E+00
          4   -1    0    0  501    0  0.00000000000E+00  0.00000000000E+00  0.92451579321E+01  0.92451579321E+01  0.00000000000E+00 0. -1.
         -4   -1    0    0    0  501 -0.00000000000E+00 -0.00000000000E+00 -0.18995555947E+02  0.18995555947E+02  0.00000000000E+00 0.  1.
        -11    1    1    2    0    0 -0.75236497144E+00  0.11038224936E+02  0.28971593353E+01  0.11436869982E+02  0.00000000000E+00 0. -1.
         11    1    1    2    0    0  0.75236497144E+00 -0.11038224936E+02 -0.12647557350E+02  0.16803843896E+02  0.00000000000E+00 0.  1.
<mgrwt>
<rscale>  0 0.26504106E+02</rscale>
<asrwt>0</asrwt>
<pdfrwt beam="1">  1        4 0.14223320E-02 0.26504106E+02</pdfrwt>
<pdfrwt beam="2">  1       -4 0.29223932E-02 0.26504106E+02</pdfrwt>
<totfact> 0.69061083E+05</totfact>
</mgrwt>
</event>
<event>
 4    1  0.2126213E+000  0.2986074E+02  0.7546771E-02  0.1599633E+00
          2   -1    0    0  501    0  0.00000000000E+00  0.00000000000E+00  0.80862324204E+01  0.80862324204E+01  0.00000000000E+00 0.  1.
         -2   -1    0    0    0  501 -0.00000000000E+00 -0.00000000000E+00 -0.27567346912E+02  0.27567346912E+02  0.00000000000E+00 0. -1.
        -11    1    1    2    0    0  0.50901202907E+01 -0.12555168519E+02 -0.22483551812E+01  0.13733050722E+02  0.00000000000E+00 0.  1.
         11    1    1    2    0    0 -0.50901202907E+01  0.12555168519E+02 -0.17232759310E+02  0.21920528610E+02  0.00000000000E+00 0. -1.
<mgrwt>
<rscale>  0 0.29860742E+02</rscale>
<asrwt>0</asrwt>
<pdfrwt beam="1">  1        2 0.12440357E-02 0.29860742E+02</pdfrwt>
<pdfrwt beam="2">  1       -2 0.42411304E-02 0.29860742E+02</pdfrwt>
<totfact> 0.14846245E+06</totfact>
</mgrwt>
</event>
<event>
 4    1  0.2126213E+000  0.2523464E+02  0.7546771E-02  0.1657654E+00
          1   -1    0    0  501    0  0.00000000000E+00  0.00000000000E+00  0.41155212187E+02  0.41155212187E+02  0.00000000000E+00 0. -1.
         -1   -1    0    0    0  501 -0.00000000000E+00 -0.00000000000E+00 -0.38682054258E+01  0.38682054258E+01  0.00000000000E+00 0.  1.
        -11    1    1    2    0    0 -0.10323078182E+02  0.18918707393E+00  0.31582894360E+02  0.33227713599E+02  0.00000000000E+00 0. -1.
         11    1    1    2    0    0  0.10323078182E+02 -0.18918707393E+00  0.57041124018E+01  0.11795704014E+02  0.00000000000E+00 0.  1.
<mgrwt>
<rscale>  0 0.25234644E+02</rscale>
<asrwt>0</asrwt>
<pdfrwt beam="1">  1        1 0.63315708E-02 0.25234644E+02</pdfrwt>
<pdfrwt beam="2">  1       -1 0.59510856E-03 0.25234644E+02</pdfrwt>
<totfact> 0.24278723E+06</totfact>
</mgrwt>
</event>
<event>
 4    1  0.2126213E+000  0.3404714E+02  0.7546771E-02  0.1557229E+00
         -3   -1    0    0    0  501 -0.00000000000E+00  0.00000000000E+00  0.15552431560E+02  0.15552431560E+02  0.00000000000E+00 0. -1.
          3   -1    0    0  501    0  0.00000000000E+00 -0.00000000000E+00 -0.18633862903E+02  0.18633862903E+02  0.00000000000E+00 0.  1.
        -11    1    1    2    0    0  0.13569382278E+02  0.24265509746E+01 -0.11570817824E+02  0.17997225068E+02  0.00000000000E+00 0.  1.
         11    1    1    2    0    0 -0.13569382278E+02 -0.24265509746E+01  0.84893864815E+01  0.16189069395E+02  0.00000000000E+00 0. -1.
<mgrwt>
<rscale>  0 0.34047137E+02</rscale>
<asrwt>0</asrwt>
<pdfrwt beam="2">  1        3 0.28667481E-02 0.34047137E+02</pdfrwt>
<pdfrwt beam="1">  1       -3 0.23926818E-02 0.34047137E+02</pdfrwt>
<totfact> 0.50839272E+05</totfact>
</mgrwt>
</event>
<event>
 4    1  0.2126213E+000  0.3065773E+02  0.7546771E-02  0.1590930E+00
         -2   -1    0    0    0  501 -0.00000000000E+00  0.00000000000E+00  0.56254820164E+02  0.56254820164E+02  0.00000000000E+00 0.  1.
          2   -1    0    0  501    0  0.00000000000E+00 -0.00000000000E+00 -0.41769594189E+01  0.41769594189E+01  0.00000000000E+00 0. -1.
        -13    1    1    2    0    0 -0.65592411544E+01 -0.13647163716E+02  0.30747268423E+02  0.34273360464E+02  0.00000000000E+00 0.  1.
         13    1    1    2    0    0  0.65592411544E+01  0.13647163716E+02  0.21330592322E+02  0.26158419119E+02  0.00000000000E+00 0. -1.
<mgrwt>
<rscale>  0 0.30657730E+02</rscale>
<asrwt>0</asrwt>
<pdfrwt beam="2">  1        2 0.64260918E-03 0.30657730E+02</pdfrwt>
<pdfrwt beam="1">  1       -2 0.86545872E-02 0.30657730E+02</pdfrwt>
<totfact> 0.12712084E+06</totfact>
</mgrwt>
</event>
<event>
 4    1  0.2126213E+000  0.3825190E+02  0.7546771E-02  0.1521484E+00
          2   -1    0    0  501    0  0.00000000000E+00  0.00000000000E+00  0.29289396694E+02  0.29289396694E+02  0.00000000000E+00 0.  1.
         -2   -1    0    0    0  501 -0.00000000000E+00 -0.00000000000E+00 -0.12489228123E+02  0.12489228123E+02  0.00000000000E+00 0. -1.
        -13    1    1    2    0    0 -0.11252827071E+02 -0.57571957176E+01 -0.72770590943E+01  0.14585163992E+02  0.00000000000E+00 0. -1.
         13    1    1    2    0    0  0.11252827071E+02  0.57571957176E+01  0.24077227665E+02  0.27193460825E+02  0.00000000000E+00 0.  1.
<mgrwt>
<rscale>  0 0.38251900E+02</rscale>
<asrwt>0</asrwt>
<pdfrwt beam="1">  1        2 0.45060610E-02 0.38251900E+02</pdfrwt>
<pdfrwt beam="2">  1       -2 0.19214197E-02 0.38251900E+02</pdfrwt>
<totfact> 0.92840543E+05</totfact>
</mgrwt>
</event>
<event>
 4    1  0.2126213E+000  0.3426189E+02  0.7546771E-02  0.1555255E+00
          3   -1    0    0  501    0  0.00000000000E+00  0.00000000000E+00  0.16670902303E+02  0.16670902303E+02  0.00000000000E+00 0. -1.
         -3   -1    0    0    0  501 -0.00000000000E+00 -0.00000000000E+00 -0.17603680366E+02  0.17603680366E+02  0.00000000000E+00 0.  1.
        -11    1    1    2    0    0  0.10284330232E+02  0.78643966038E+01  0.10756192458E+02  0.16831870319E+02  0.00000000000E+00 0. -1.
         11    1    1    2    0    0 -0.10284330232E+02 -0.78643966038E+01 -0.11688970521E+02  0.17442712350E+02  0.00000000000E+00 0.  1.
<mgrwt>
<rscale>  0 0.34261888E+02</rscale>
<asrwt>0</asrwt>
<pdfrwt beam="1">  1        3 0.25647542E-02 0.34261888E+02</pdfrwt>
<pdfrwt beam="2">  1       -3 0.27082585E-02 0.34261888E+02</pdfrwt>
<totfact> 0.50069858E+05</totfact>
</mgrwt>
</event>
<event>
 4    1  0.2126213E+000  0.7129955E+02  0.7546771E-02  0.1355729E+00
         -4   -1    0    0    0  501 -0.00000000000E+00  0.00000000000E+00  0.21496744677E+02  0.21496744677E+02  0.00000000000E+00 0.  1.
          4   -1    0    0  501    0  0.00000000000E+00 -0.00000000000E+00 -0.59120887829E+02  0.59120887829E+02  0.00000000000E+00 0. -1.
        -13    1    1    2    0    0 -0.25538927529E+02 -0.10150776248E+02 -0.44487220082E+02  0.52291374321E+02  0.00000000000E+00 0. -1.
         13    1    1    2    0    0  0.25538927529E+02  0.10150776248E+02  0.68630769297E+01  0.28326258184E+02  0.00000000000E+00 0.  1.
<mgrwt>
<rscale>  0 0.71299555E+02</rscale>
<asrwt>0</asrwt>
<pdfrwt beam="2">  1        4 0.90955211E-02 0.71299555E+02</pdfrwt>
<pdfrwt beam="1">  1       -4 0.33071915E-02 0.71299555E+02</pdfrwt>
<totfact> 0.53428820E+04</totfact>
</mgrwt>
</event>
<event>
 4    1  0.2126213E+000  0.2751749E+02  0.7546771E-02  0.1627271E+00
         -1   -1    0    0    0  501 -0.00000000000E+00  0.00000000000E+00  0.29273408905E+01  0.29273408905E+01  0.00000000000E+00 0.  1.
          1   -1    0    0  501    0  0.00000000000E+00 -0.00000000000E+00 -0.64667238913E+02  0.64667238913E+02  0.00000000000E+00 0. -1.
        -13    1    1    2    0    0 -0.10645769144E+02  0.16626646141E+01 -0.51887252509E+02  0.52994186731E+02  0.00000000000E+00 0. -1.
         13    1    1    2    0    0  0.10645769144E+02 -0.16626646141E+01 -0.98526455136E+01  0.14600393073E+02  0.00000000000E+00 0.  1.
<mgrwt>
<rscale>  0 0.27517489E+02</rscale>
<asrwt>0</asrwt>
<pdfrwt beam="2">  1        1 0.99488050E-02 0.27517489E+02</pdfrwt>
<pdfrwt beam="1">  1       -1 0.45036018E-03 0.27517489E+02</pdfrwt>
<totfact> 0.20563732E+06</totfact>
</mgrwt>
</event>
<event>
 4    1  0.2126213E+000  0.2199586E+02  0.7546771E-02  0.1708324E+00
          4   -1    0    0  501    0  0.00000000000E+00  0.00000000000E+00  0.43442764763E+02  0.43442764763E+02  0.00000000000E+00 0. -1.
         -4   -1    0    0    0  501 -0.00000000000E+00 -0.00000000000E+00 -0.27842267648E+01  0.27842267648E+01  0.00000000000E+00 0.  1.
        -13    1    1    2    0    0 -0.22364619441E+01 -0.10134432511E+02  0.27978140654E+02  0.29840992591E+02  0.00000000000E+00 0.  1.
         13    1    1    2    0    0  0.22364619441E+01  0.10134432511E+02  0.12680397344E+02  0.16385998937E+02  0.00000000000E+00 0. -1.
<mgrwt>
<rscale>  0 0.21995864E+02</rscale>
<asrwt>0</asrwt>
<pdfrwt beam="1">  1        4 0.66835018E-02 0.21995864E+02</pdfrwt>
<pdfrwt beam="2">  1       -4 0.42834261E-03 0.21995864E+02</pdfrwt>
<totfact> 0.96077942E+05</totfact>
</mgrwt>
</event>
<event>
 4    1  0.2126213E+000  0.5038522E+02  0.7546771E-02  0.1443275E+00
         -1   -1    0    0    0  501 -0.00000000000E+00  0.00000000000E+00  0.10903265629E+03  0.10903265629E+03  0.00000000000E+00 0.  1.
          1   -1    0    0  501    0  0.00000000000E+00 -0.00000000000E+00 -0.58208952297E+01  0.58208952297E+01  0.00000000000E+00 0. -1.
        -11    1    1    2    0    0  0.24571094676E+02 -0.43772963163E+01  0.43786051998E+02  0.50399581012E+02  0.00000000000E+00 0. -1.
         11    1    1    2    0    0 -0.24571094676E+02  0.43772963163E+01  0.59425709057E+02  0.64453970503E+02  0.00000000000E+00 0.  1.
<mgrwt>
<rscale>  0 0.50385223E+02</rscale>
<asrwt>0</asrwt>
<pdfrwt beam="2">  1        1 0.89552242E-03 0.50385223E+02</pdfrwt>
<pdfrwt beam="1">  1       -1 0.16774253E-01 0.50385223E+02</pdfrwt>
<totfact> 0.35984692E+05</totfact>
</mgrwt>
</event>
<event>
 4    1  0.2126213E+000  0.2734639E+02  0.7546771E-02  0.1629420E+00
         -4   -1    0    0    0  501 -0.00000000000E+00  0.00000000000E+00  0.84475357255E+01  0.84475357255E+01  0.00000000000E+00 0.  1.
          4   -1    0    0  501    0  0.00000000000E+00 -0.00000000000E+00 -0.22131448594E+02  0.22131448594E+02  0.00000000000E+00 0. -1.
        -13    1    1    2    0    0 -0.30554602511E+01 -0.12181435369E+02 -0.79607261534E+00  0.12583995256E+02  0.00000000000E+00 0.  1.
         13    1    1    2    0    0  0.30554602511E+01  0.12181435369E+02 -0.12887840253E+02  0.17994989063E+02  0.00000000000E+00 0. -1.
<mgrwt>
<rscale>  0 0.27346386E+02</rscale>
<asrwt>0</asrwt>
<pdfrwt beam="2">  1        4 0.34048382E-02 0.27346386E+02</pdfrwt>
<pdfrwt beam="1">  1       -4 0.12996209E-02 0.27346386E+02</pdfrwt>
<totfact> 0.63859946E+05</totfact>
</mgrwt>
</event>
<event>
 4    1  0.2126213E+000  0.3874607E+02  0.7546771E-02  0.1517647E+00
          2   -1    0    0  501    0  0.00000000000E+00  0.00000000000E+00  0.42502025361E+01  0.42502025361E+01  0.00000000000E+00 0.  1.
         -2   -1    0    0    0  501 -0.00000000000E+00 -0.00000000000E+00 -0.88305083869E+02  0.88305083869E+02  0.00000000000E+00 0. -1.
        -13    1    1    2    0    0 -0.98977321142E+01  0.14754420284E+02 -0.60477694759E+02  0.63033400529E+02  0.00000000000E+00 0.  1.
         13    1    1    2    0    0  0.98977321142E+01 -0.14754420284E+02 -0.23577186574E+02  0.29521885876E+02  0.00000000000E+00 0. -1.
<mgrwt>
<rscale>  0 0.38746070E+02</rscale>
<asrwt>0</asrwt>
<pdfrwt beam="1">  1        2 0.65387732E-03 0.38746070E+02</pdfrwt>
<pdfrwt beam="2">  1       -2 0.13585397E-01 0.38746070E+02</pdfrwt>
<totfact> 0.67262943E+05</totfact>
</mgrwt>
</event>
<event>
 4    1  0.2126213E+000  0.2683965E+02  0.7546771E-02  0.1635903E+00
          1   -1    0    0  501    0  0.00000000000E+00  0.00000000000E+00  0.11989200280E+02  0.11989200280E+02  0.00000000000E+00 0. -1.
         -1   -1    0    0    0  501 -0.00000000000E+00 -0.00000000000E+00 -0.15021155408E+02  0.15021155408E+02  0.00000000000E+00 0.  1.
        -13    1    1    2    0    0 -0.94045190150E+01 -0.84670586709E+01  0.29796022226E+01  0.13000541906E+02  0.00000000000E+00 0. -1.
         13    1    1    2    0    0  0.94045190150E+01  0.84670586709E+01 -0.60115573497E+01  0.14009813782E+02  0.00000000000E+00 0.  1.
<mgrwt>
<rscale>  0 0.26839645E+02</rscale>
<asrwt>0</asrwt>
<pdfrwt beam="1">  1        1 0.18444923E-02 0.26839645E+02</pdfrwt>
<pdfrwt beam="2">  1       -1 0.23109470E-02 0.26839645E+02</pdfrwt>
<totfact> 0.19637101E+06</totfact>
</mgrwt>
</event>
<event>
 4    1  0.2126213E+000  0.3989588E+02  0.7546771E-02  0.1508979E+00
         -1   -1    0    0    0  501 -0.00000000000E+00  0.00000000000E+00  0.67838654383E+02  0.67838654383E+02  0.00000000000E+00 0. -1.
          1   -1    0    0  501    0  0.00000000000E+00 -0.00000000000E+00 -0.58656877295E+01  0.58656877295E+01  0.00000000000E+00 0.  1.
        -13    1    1    2    0    0  0.13818659459E+02 -0.10887889191E+02  0.13614975876E+02  0.22245652348E+02  0.00000000000E+00 0.  1.
         13    1    1    2    0    0 -0.13818659459E+02  0.10887889191E+02  0.48357990778E+02  0.51458689765E+02  0.00000000000E+00 0. -1.
<mgrwt>
<rscale>  0 0.39895883E+02</rscale>
<asrwt>0</asrwt>
<pdfrwt beam="2">  1        1 0.90241354E-03 0.39895883E+02</pdfrwt>
<pdfrwt beam="1">  1       -1 0.10436716E-01 0.39895883E+02</pdfrwt>
<totfact> 0.68354878E+05</totfact>
</mgrwt>
</event>
<event>
 4    1  0.2126213E+000  0.2609662E+02  0.7546771E-02  0.1645733E+00
         -2   -1    0    0    0  501 -0.00000000000E+00  0.00000000000E+00  0.97734132822E+01  0.97734132822E+01  0.00000000000E+00 0.  1.
          2   -1    0    0  501    0  0.00000000000E+00 -0.00000000000E+00 -0.17420569907E+02  0.17420569907E+02  0.00000000000E+00 0. -1.
        -13    1    1    2    0    0  0.78983296639E+01 -0.10110746713E+02 -0.62999806378E+01  0.14293374920E+02  0.00000000000E+00 0. -1.
         13    1    1    2    0    0 -0.78983296639E+01  0.10110746713E+02 -0.13471759867E+01  0.12900608269E+02  0.00000000000E+00 0.  1.
<mgrwt>
<rscale>  0 0.26096623E+02</rscale>
<asrwt>0</asrwt>
<pdfrwt beam="2">  1        2 0.26800877E-02 0.26096623E+02</pdfrwt>
<pdfrwt beam="1">  1       -2 0.15036021E-02 0.26096623E+02</pdfrwt>
<totfact> 0.22228901E+06</totfact>
</mgrwt>
</event>
<event>
 4    1  0.2126213E+000  0.2391606E+02  0.7546771E-02  0.1677077E+00
         -2   -1    0    0    0  501 -0.00000000000E+00  0.00000000000E+00  0.24575181061E+01  0.24575181061E+01  0.00000000000E+00 0.  1.
          2   -1    0    0  501    0  0.00000000000E+00 -0.00000000000E+00 -0.58186529672E+02  0.58186529672E+02  0.00000000000E+00 0. -1.
        -13    1    1    2    0    0 -0.43810711512E+01  0.10056640431E+02 -0.39936335293E+02  0.41415464235E+02  0.00000000000E+00 0. -1.
         13    1    1    2    0    0  0.43810711512E+01 -0.10056640431E+02 -0.15792676273E+02  0.19228583543E+02  0.00000000000E+00 0.  1.
<mgrwt>
<rscale>  0 0.23916057E+02</rscale>
<asrwt>0</asrwt>
<pdfrwt beam="2">  1        2 0.89517746E-02 0.23916057E+02</pdfrwt>
<pdfrwt beam="1">  1       -2 0.37807967E-03 0.23916057E+02</pdfrwt>
<totfact> 0.31683454E+06</totfact>
</mgrwt>
</event>
<event>
 4    1  0.2126213E+000  0.4323442E+02  0.7546771E-02  0.1485675E+00
          2   -1    0    0  501    0  0.00000000000E+00  0.00000000000E+00  0.62412192373E+01  0.62412192373E+01  0.00000000000E+00 0.  1.
         -2   -1    0    0    0  501 -0.00000000000E+00 -0.00000000000E+00 -0.74873804194E+02  0.74873804194E+02  0.00000000000E+00 0. -1.
        -11    1    1    2    0    0  0.43045996152E+01  0.11582612386E+02 -0.10378524039E+01  0.12400146174E+02  0.00000000000E+00 0.  1.
         11    1    1    2    0    0 -0.43045996152E+01 -0.11582612386E+02 -0.67594732553E+02  0.68714877257E+02  0.00000000000E+00 0. -1.
<mgrwt>
<rscale>  0 0.43234423E+02</rscale>
<asrwt>0</asrwt>
<pdfrwt beam="1">  1        2 0.96018756E-03 0.43234423E+02</pdfrwt>
<pdfrwt beam="2">  1       -2 0.11519047E-01 0.43234423E+02</pdfrwt>
<totfact> 0.53611642E+05</totfact>
</mgrwt>
</event>
<event>
 4    1  0.2126213E+000  0.2078560E+02  0.7546771E-02  0.1730142E+00
          2   -1    0    0  501    0  0.00000000000E+00  0.00000000000E+00  0.33534882433E+01  0.33534882433E+01  0.00000000000E+00 0. -1.
         -2   -1    0    0    0  501 -0.00000000000E+00 -0.00000000000E+00 -0.32208337957E+02  0.32208337957E+02  0.00000000000E+00 0.  1.
        -11    1    1    2    0    0 -0.93561118263E+01 -0.39512305520E+01 -0.18199624334E+02  0.20841674052E+02  0.00000000000E+00 0.  1.
         11    1    1    2    0    0  0.93561118263E+01  0.39512305520E+01 -0.10655225380E+02  0.14720152148E+02  0.00000000000E+00 0. -1.
<mgrwt>
<rscale>  0 0.20785599E+02</rscale>
<asrwt>0</asrwt>
<pdfrwt beam="1">  1        2 0.51592127E-03 0.20785599E+02</pdfrwt>
<pdfrwt beam="2">  1       -2 0.49551289E-02 0.20785599E+02</pdfrwt>
<totfact> 0.32901429E+06</totfact>
</mgrwt>
</event>
<event>
 4    1  0.2126213E+000  0.2495059E+02  0.7546771E-02  0.1661713E+00
         -2   -1    0    0    0  501 -0.00000000000E+00  0.00000000000E+00  0.63295384678E+02  0.63295384678E+02  0.00000000000E+00 0. -1.
          2   -1    0    0  501    0  0.00000000000E+00 -0.00000000000E+00 -0.24588370198E+01  0.24588370198E+01  0.00000000000E+00 0.  1.
        -11    1    1    2    0    0 -0.53707841340E+00  0.12241792440E+02  0.36589277751E+02  0.38586593290E+02  0.00000000000E+00 0.  1.
         11    1    1    2    0    0  0.53707841340E+00 -0.12241792440E+02  0.24247269907E+02  0.27167628408E+02  0.00000000000E+00 0. -1.
<mgrwt>
<rscale>  0 0.24950594E+02</rscale>
<asrwt>0</asrwt>
<pdfrwt beam="2">  1        2 0.37828267E-03 0.24950594E+02</pdfrwt>
<pdfrwt beam="1">  1       -2 0.97377503E-02 0.24950594E+02</pdfrwt>
<totfact> 0.19975463E+06</totfact>
</mgrwt>
</event>
<event>
 4    1  0.2126213E+000  0.2372283E+02  0.7546771E-02  0.1680054E+00
         -1   -1    0    0    0  501 -0.00000000000E+00  0.00000000000E+00  0.86841528531E+01  0.86841528531E+01  0.00000000000E+00 0.  1.
          1   -1    0    0  501    0  0.00000000000E+00 -0.00000000000E+00 -0.16201141200E+02  0.16201141200E+02  0.00000000000E+00 0. -1.
        -13    1    1    2    0    0  0.10699407509E+02  0.39515430016E+01 -0.34300260177E+00  0.11410944918E+02  0.00000000000E+00 0.  1.
         13    1    1    2    0    0 -0.10699407509E+02 -0.39515430016E+01 -0.71739857454E+01  0.13474349135E+02  0.00000000000E+00 0. -1.
<mgrwt>
<rscale>  0 0.23722832E+02</rscale>
<asrwt>0</asrwt>
<pdfrwt beam="2">  1        1 0.24924832E-02 0.23722832E+02</pdfrwt>
<pdfrwt beam="1">  1       -1 0.13360235E-02 0.23722832E+02</pdfrwt>
<totfact> 0.26646560E+06</totfact>
</mgrwt>
</event>
<event>
 4    1  0.2126213E+000  0.2269599E+02  0.7546771E-02  0.1696486E+00
         -3   -1    0    0    0  501 -0.00000000000E+00  0.00000000000E+00  0.43577119904E+01  0.43577119904E+01  0.00000000000E+00 0. -1.
          3   -1    0    0  501    0  0.00000000000E+00 -0.00000000000E+00 -0.29551505861E+02  0.29551505861E+02  0.00000000000E+00 0.  1.
        -13    1    1    2    0    0 -0.10253694712E+02 -0.47245080182E+01 -0.10881833046E+02  0.15680354642E+02  0.00000000000E+00 0.  1.
         13    1    1    2    0    0  0.10253694712E+02  0.47245080182E+01 -0.14311960825E+02  0.18228863209E+02  0.00000000000E+00 0. -1.
<mgrwt>
<rscale>  0 0.22695987E+02</rscale>
<asrwt>0</asrwt>
<pdfrwt beam="2">  1        3 0.45463855E-02 0.22695987E+02</pdfrwt>
<pdfrwt beam="1">  1       -3 0.67041723E-03 0.22695987E+02</pdfrwt>
<totfact> 0.12929749E+06</totfact>
</mgrwt>
</event>
<event>
 4    1  0.2126213E+000  0.2675304E+02  0.7546771E-02  0.1637028E+00
         -2   -1    0    0    0  501 -0.00000000000E+00  0.00000000000E+00  0.63257894761E+01  0.63257894761E+01  0.00000000000E+00 0. -1.
          2   -1    0    0  501    0  0.00000000000E+00 -0.00000000000E+00 -0.28286000644E+02  0.28286000644E+02  0.00000000000E+00 0.  1.
        -11    1    1    2    0    0 -0.21515304598E+01 -0.10054318582E+02  0.89819200498E-01  0.10282337913E+02  0.00000000000E+00 0. -1.
         11    1    1    2    0    0  0.21515304598E+01  0.10054318582E+02 -0.22050030369E+02  0.24329452208E+02  0.00000000000E+00 0.  1.
<mgrwt>
<rscale>  0 0.26753040E+02</rscale>
<asrwt>0</asrwt>
<pdfrwt beam="2">  1        2 0.43516924E-02 0.26753040E+02</pdfrwt>
<pdfrwt beam="1">  1       -2 0.97319838E-03 0.26753040E+02</pdfrwt>
<totfact> 0.22050335E+06</totfact>
</mgrwt>
</event>
<event>
 4    1  0.2126213E+000  0.3284884E+02  0.7546771E-02  0.1568577E+00
         -2   -1    0    0    0  501 -0.00000000000E+00  0.00000000000E+00  0.80723113697E+02  0.80723113697E+02  0.00000000000E+00 0.  1.
          2   -1    0    0  501    0  0.00000000000E+00 -0.00000000000E+00 -0.33418137298E+01  0.33418137298E+01  0.00000000000E+00 0. -1.
        -11    1    1    2    0    0  0.16127384646E+02  0.27160669696E+01  0.34816225232E+02  0.38466077194E+02  0.00000000000E+00 0.  1.
         11    1    1    2    0    0 -0.16127384646E+02 -0.27160669696E+01  0.42565074735E+02  0.45598850232E+02  0.00000000000E+00 0. -1.
<mgrwt>
<rscale>  0 0.32848842E+02</rscale>
<asrwt>0</asrwt>
<pdfrwt beam="2">  1        2 0.51412525E-03 0.32848842E+02</pdfrwt>
<pdfrwt beam="1">  1       -2 0.12418939E-01 0.32848842E+02</pdfrwt>
<totfact> 0.10130458E+06</totfact>
</mgrwt>
</event>
<event>
 4    1  0.2126213E+000  0.2610674E+02  0.7546771E-02  0.1645596E+00
          4   -1    0    0  501    0  0.00000000000E+00  0.00000000000E+00  0.20671324800E+02  0.20671324800E+02  0.00000000000E+00 0.  1.
         -4   -1    0    0    0  501 -0.00000000000E+00 -0.00000000000E+00 -0.82428404069E+01  0.82428404069E+01  0.00000000000E+00 0. -1.
        -11    1    1    2    0    0 -0.84976259689E+01 -0.67034232389E+01 -0.18673526392E+01  0.10983284395E+02  0.00000000000E+00 0. -1.
         11    1    1    2    0    0  0.84976259689E+01  0.67034232389E+01  0.14295837032E+02  0.17930880811E+02  0.00000000000E+00 0.  1.
<mgrwt>
<rscale>  0 0.26106737E+02</rscale>
<asrwt>0</asrwt>
<pdfrwt beam="1">  1        4 0.31802038E-02 0.26106737E+02</pdfrwt>
<pdfrwt beam="2">  1       -4 0.12681293E-02 0.26106737E+02</pdfrwt>
<totfact> 0.71197118E+05</totfact>
</mgrwt>
</event>
<event>
 4    1  0.2126213E+000  0.2219952E+02  0.7546771E-02  0.1704824E+00
         -2   -1    0    0    0  501 -0.00000000000E+00  0.00000000000E+00  0.72833862872E+01  0.72833862872E+01  0.00000000000E+00 0.  1.
          2   -1    0    0  501    0  0.00000000000E+00 -0.00000000000E+00 -0.16915854478E+02  0.16915854478E+02  0.00000000000E+00 0. -1.
        -13    1    1    2    0    0 -0.78692478720E+00  0.10861883571E+02 -0.24770200708E+01  0.11168500068E+02  0.00000000000E+00 0.  1.
         13    1    1    2    0    0  0.78692478720E+00 -0.10861883571E+02 -0.71554481197E+01  0.13030740697E+02  0.00000000000E+00 0. -1.
<mgrwt>
<rscale>  0 0.22199523E+02</rscale>
<asrwt>0</asrwt>
<pdfrwt beam="2">  1        2 0.26024391E-02 0.22199523E+02</pdfrwt>
<pdfrwt beam="1">  1       -2 0.11205210E-02 0.22199523E+02</pdfrwt>
<totfact> 0.32369796E+06</totfact>
</mgrwt>
</event>
<event>
 4    1  0.2126213E+000  0.1494495E+03  0.7546771E-02  0.1201151E+00
         -1   -1    0    0    0  501 -0.00000000000E+00  0.00000000000E+00  0.13447710927E+02  0.13447710927E+02  0.00000000000E+00 0.  1.
          1   -1    0    0  501    0  0.00000000000E+00 -0.00000000000E+00 -0.41522247560E+03  0.41522247560E+03  0.00000000000E+00 0. -1.
        -13    1    1    2    0    0 -0.59493413343E+02  0.43342114984E+02 -0.16395532799E+03  0.17972021239E+03  0.00000000000E+00 0. -1.
         13    1    1    2    0    0  0.59493413343E+02 -0.43342114984E+02 -0.23781943668E+03  0.24894997415E+03  0.00000000000E+00 0.  1.
<mgrwt>
<rscale>  0 0.14944955E+03</rscale>
<asrwt>0</asrwt>
<pdfrwt beam="2">  1        1 0.63880393E-01 0.14944955E+03</pdfrwt>
<pdfrwt beam="1">  1       -1 0.20688782E-02 0.14944955E+03</pdfrwt>
<totfact> 0.35349297E+04</totfact>
</mgrwt>
</event>
<event>
 4    1  0.2126213E+000  0.2716452E+02  0.7546771E-02  0.1631727E+00
         -1   -1    0    0    0  501 -0.00000000000E+00  0.00000000000E+00  0.17078814523E+02  0.17078814523E+02  0.00000000000E+00 0. -1.
          1   -1    0    0  501    0  0.00000000000E+00 -0.00000000000E+00 -0.10801557014E+02  0.10801557014E+02  0.00000000000E+00 0.  1.
        -11    1    1    2    0    0  0.30408939822E+01 -0.11596434645E+02  0.96907019686E+01  0.15415383139E+02  0.00000000000E+00 0. -1.
         11    1    1    2    0    0 -0.30408939822E+01  0.11596434645E+02 -0.34134444592E+01  0.12464988398E+02  0.00000000000E+00 0.  1.
<mgrwt>
<rscale>  0 0.27164520E+02</rscale>
<asrwt>0</asrwt>
<pdfrwt beam="2">  1        1 0.16617780E-02 0.27164520E+02</pdfrwt>
<pdfrwt beam="1">  1       -1 0.26275099E-02 0.27164520E+02</pdfrwt>
<totfact> 0.18971923E+06</totfact>
</mgrwt>
</event>
<event>
 4    1  0.2126213E+000  0.2833274E+02  0.7546771E-02  0.1617284E+00
         -4   -1    0    0    0  501 -0.00000000000E+00  0.00000000000E+00  0.39071172351E+02  0.39071172351E+02  0.00000000000E+00 0.  1.
          4   -1    0    0  501    0  0.00000000000E+00 -0.00000000000E+00 -0.51364236657E+01  0.51364236657E+01  0.00000000000E+00 0. -1.
        -13    1    1    2    0    0  0.90081499729E+01  0.10192748280E+02  0.23139385898E+02  0.26841573411E+02  0.00000000000E+00 0.  1.
         13    1    1    2    0    0 -0.90081499729E+01 -0.10192748280E+02  0.10795362787E+02  0.17366022605E+02  0.00000000000E+00 0. -1.
<mgrwt>
<rscale>  0 0.28332744E+02</rscale>
<asrwt>0</asrwt>
<pdfrwt beam="2">  1        4 0.79021905E-03 0.28332744E+02</pdfrwt>
<pdfrwt beam="1">  1       -4 0.60109494E-02 0.28332744E+02</pdfrwt>
<totfact> 0.56114924E+05</totfact>
</mgrwt>
</event>
<event>
 4    1  0.2126213E+000  0.2567273E+02  0.7546771E-02  0.1651523E+00
          2   -1    0    0  501    0  0.00000000000E+00  0.00000000000E+00  0.22781581327E+01  0.22781581327E+01  0.00000000000E+00 0. -1.
         -2   -1    0    0    0  501 -0.00000000000E+00 -0.00000000000E+00 -0.72326961214E+02  0.72326961214E+02  0.00000000000E+00 0.  1.
        -11    1    1    2    0    0  0.71714542758E+01  0.85320911133E+01 -0.16520207699E+02  0.19928461998E+02  0.00000000000E+00 0. -1.
         11    1    1    2    0    0 -0.71714542758E+01 -0.85320911133E+01 -0.53528595383E+02  0.54676657349E+02  0.00000000000E+00 0.  1.
<mgrwt>
<rscale>  0 0.25672729E+02</rscale>
<asrwt>0</asrwt>
<pdfrwt beam="1">  1        2 0.35048594E-03 0.25672729E+02</pdfrwt>
<pdfrwt beam="2">  1       -2 0.11127222E-01 0.25672729E+02</pdfrwt>
<totfact> 0.18279546E+06</totfact>
</mgrwt>
</event>
<event>
 4    1  0.2126213E+000  0.3892419E+02  0.7546771E-02  0.1516281E+00
         -2   -1    0    0    0  501 -0.00000000000E+00  0.00000000000E+00  0.27536200554E+02  0.27536200554E+02  0.00000000000E+00 0. -1.
          2   -1    0    0  501    0  0.00000000000E+00 -0.00000000000E+00 -0.13755461564E+02  0.13755461564E+02  0.00000000000E+00 0.  1.
        -13    1    1    2    0    0  0.72682887782E+01  0.12028199910E+02 -0.73920830601E+01  0.15879184702E+02  0.00000000000E+00 0.  1.
         13    1    1    2    0    0 -0.72682887782E+01 -0.12028199910E+02  0.21172822050E+02  0.25412477415E+02  0.00000000000E+00 0. -1.
<mgrwt>
<rscale>  0 0.38924190E+02</rscale>
<asrwt>0</asrwt>
<pdfrwt beam="2">  1        2 0.21162249E-02 0.38924190E+02</pdfrwt>
<pdfrwt beam="1">  1       -2 0.42363385E-02 0.38924190E+02</pdfrwt>
<totfact> 0.80562476E+05</totfact>
</mgrwt>
</event>
<event>
 4    1  0.2126213E+000  0.3971173E+02  0.7546771E-02  0.1510344E+00
          2   -1    0    0  501    0  0.00000000000E+00  0.00000000000E+00  0.15537376308E+03  0.15537376308E+03  0.00000000000E+00 0. -1.
         -2   -1    0    0    0  501 -0.00000000000E+00 -0.00000000000E+00 -0.25374640413E+01  0.25374640413E+01  0.00000000000E+00 0.  1.
        -13    1    1    2    0    0  0.21418136898E+01 -0.18985991136E+02  0.54930620459E+02  0.58158647588E+02  0.00000000000E+00 0. -1.
         13    1    1    2    0    0 -0.21418136898E+01  0.18985991136E+02  0.97905678577E+02  0.99752579530E+02  0.00000000000E+00 0.  1.
<mgrwt>
<rscale>  0 0.39711728E+02</rscale>
<asrwt>0</asrwt>
<pdfrwt beam="1">  1        2 0.23903648E-01 0.39711728E+02</pdfrwt>
<pdfrwt beam="2">  1       -2 0.39037920E-03 0.39711728E+02</pdfrwt>
<totfact> 0.12010520E+06</totfact>
</mgrwt>
</event>
<event>
 4    1  0.2126213E+000  0.4117885E+02  0.7546771E-02  0.1499711E+00
         -2   -1    0    0    0  501 -0.00000000000E+00  0.00000000000E+00  0.10189574848E+02  0.10189574848E+02  0.00000000000E+00 0.  1.
          2   -1    0    0  501    0  0.00000000000E+00 -0.00000000000E+00 -0.41603748941E+02  0.41603748941E+02  0.00000000000E+00 0. -1.
        -11    1    1    2    0    0  0.15311256371E+02  0.31008140802E+01  0.11617365651E+01  0.15665224271E+02  0.00000000000E+00 0.  1.
         11    1    1    2    0    0 -0.15311256371E+02 -0.31008140802E+01 -0.32575910658E+02  0.36128099518E+02  0.00000000000E+00 0. -1.
<mgrwt>
<rscale>  0 0.41178854E+02</rscale>
<asrwt>0</asrwt>
<pdfrwt beam="2">  1        2 0.64005767E-02 0.41178854E+02</pdfrwt>
<pdfrwt beam="1">  1       -2 0.15676269E-02 0.41178854E+02</pdfrwt>
<totfact> 0.81338138E+05</totfact>
</mgrwt>
</event>
<event>
 4    1  0.2126213E+000  0.6041157E+02  0.7546771E-02  0.1396113E+00
          4   -1    0    0  501    0  0.00000000000E+00  0.00000000000E+00  0.62689406241E+02  0.62689406241E+02  0.00000000000E+00 0.  1.
         -4   -1    0    0    0  501 -0.00000000000E+00 -0.00000000000E+00 -0.14554123995E+02  0.14554123995E+02  0.00000000000E+00 0. -1.
        -11    1    1    2    0    0 -0.16231645961E+02 -0.19270279457E+02  0.45370388331E+02  0.51896841313E+02  0.00000000000E+00 0.  1.
         11    1    1    2    0    0  0.16231645961E+02  0.19270279457E+02  0.27648939142E+01  0.25346688922E+02  0.00000000000E+00 0. -1.
<mgrwt>
<rscale>  0 0.60411568E+02</rscale>
<asrwt>0</asrwt>
<pdfrwt beam="1">  1        4 0.96445239E-02 0.60411568E+02</pdfrwt>
<pdfrwt beam="2">  1       -4 0.22390960E-02 0.60411568E+02</pdfrwt>
<totfact> 0.82755973E+04</totfact>
</mgrwt>
</event>
<event>
 4    1  0.2126213E+000  0.2616709E+02  0.7546771E-02  0.1644783E+00
         -3   -1    0    0    0  501 -0.00000000000E+00  0.00000000000E+00  0.33278050710E+02  0.33278050710E+02  0.00000000000E+00 0.  1.
          3   -1    0    0  501    0  0.00000000000E+00 -0.00000000000E+00 -0.51439049628E+01  0.51439049628E+01  0.00000000000E+00 0. -1.
        -11    1    1    2    0    0  0.12061154031E+02  0.45555327250E+00  0.66523391840E+01  0.13781603026E+02  0.00000000000E+00 0. -1.
         11    1    1    2    0    0 -0.12061154031E+02 -0.45555327250E+00  0.21481806563E+02  0.24640352647E+02  0.00000000000E+00 0.  1.
<mgrwt>
<rscale>  0 0.26167089E+02</rscale>
<asrwt>0</asrwt>
<pdfrwt beam="2">  1        3 0.79137002E-03 0.26167089E+02</pdfrwt>
<pdfrwt beam="1">  1       -3 0.51197000E-02 0.26167089E+02</pdfrwt>
<totfact> 0.92638213E+05</totfact>
</mgrwt>
</event>
<event>
 4    1  0.2126213E+000  0.2261230E+02  0.7546771E-02  0.1697873E+00
         -2   -1    0    0    0  501 -0.00000000000E+00  0.00000000000E+00  0.11259243172E+01  0.11259243172E+01  0.00000000000E+00 0. -1.
          2   -1    0    0  501    0  0.00000000000E+00 -0.00000000000E+00 -0.11353252004E+03  0.11353252004E+03  0.00000000000E+00 0.  1.
        -13    1    1    2    0    0  0.99916285797E+01  0.52885467497E+01 -0.55360037812E+02  0.56502523439E+02  0.00000000000E+00 0. -1.
         13    1    1    2    0    0 -0.99916285797E+01 -0.52885467497E+01 -0.57046557913E+02  0.58155920920E+02  0.00000000000E+00 0.  1.
<mgrwt>
<rscale>  0 0.22612300E+02</rscale>
<asrwt>0</asrwt>
<pdfrwt beam="2">  1        2 0.17466552E-01 0.22612300E+02</pdfrwt>
<pdfrwt beam="1">  1       -2 0.17321902E-03 0.22612300E+02</pdfrwt>
<totfact> 0.41351492E+06</totfact>
</mgrwt>
</event>
<event>
 4    1  0.2126213E+000  0.5880439E+02  0.7546771E-02  0.1402919E+00
         -1   -1    0    0    0  501 -0.00000000000E+00  0.00000000000E+00  0.57745084811E+01  0.57745084811E+01  0.00000000000E+00 0.  1.
          1   -1    0    0  501    0  0.00000000000E+00 -0.00000000000E+00 -0.14970780990E+03  0.14970780990E+03  0.00000000000E+00 0. -1.
        -13    1    1    2    0    0  0.20575924639E+02  0.20743904917E+02 -0.80660242112E+02  0.85789002346E+02  0.00000000000E+00 0. -1.
         13    1    1    2    0    0 -0.20575924639E+02 -0.20743904917E+02 -0.63273059311E+02  0.69693316039E+02  0.00000000000E+00 0.  1.
<mgrwt>
<rscale>  0 0.58804388E+02</rscale>
<asrwt>0</asrwt>
<pdfrwt beam="2">  1        1 0.23031968E-01 0.58804388E+02</pdfrwt>
<pdfrwt beam="1">  1       -1 0.88838604E-03 0.58804388E+02</pdfrwt>
<totfact> 0.35498246E+05</totfact>
</mgrwt>
</event>
<event>
 4    1  0.2126213E+000  0.4837929E+02  0.7546771E-02  0.1454284E+00
          2   -1    0    0  501    0  0.00000000000E+00  0.00000000000E+00  0.56148798013E+01  0.56148798013E+01  0.00000000000E+00 0. -1.
         -2   -1    0    0    0  501 -0.00000000000E+00 -0.00000000000E+00 -0.10421219943E+03  0.10421219943E+03  0.00000000000E+00 0.  1.
        -13    1    1    2    0    0  0.15636329333E+02 -0.17207763339E+01 -0.75824739883E+01  0.17462811285E+02  0.00000000000E+00 0. -1.
         13    1    1    2    0    0 -0.15636329333E+02  0.17207763339E+01 -0.91014845639E+02  0.92364267944E+02  0.00000000000E+00 0.  1.
<mgrwt>
<rscale>  0 0.48379292E+02</rscale>
<asrwt>0</asrwt>
<pdfrwt beam="1">  1        2 0.86382777E-03 0.48379292E+02</pdfrwt>
<pdfrwt beam="2">  1       -2 0.16032644E-01 0.48379292E+02</pdfrwt>
<totfact> 0.37847406E+05</totfact>
</mgrwt>
</event>
<event>
 4    1  0.2126213E+000  0.2052943E+02  0.7546771E-02  0.1735000E+00
          3   -1    0    0  501    0  0.00000000000E+00  0.00000000000E+00  0.88172553199E+02  0.88172553199E+02  0.00000000000E+00 0.  1.
         -3   -1    0    0    0  501 -0.00000000000E+00 -0.00000000000E+00 -0.11949795392E+01  0.11949795392E+01  0.00000000000E+00 0. -1.
        -11    1    1    2    0    0  0.96650903025E+01  0.32411777472E+01  0.38255605411E+02  0.39590536105E+02  0.00000000000E+00 0.  1.
         11    1    1    2    0    0 -0.96650903025E+01 -0.32411777472E+01  0.48721968249E+02  0.49776996633E+02  0.00000000000E+00 0. -1.
<mgrwt>
<rscale>  0 0.20529432E+02</rscale>
<asrwt>0</asrwt>
<pdfrwt beam="1">  1        3 0.13565003E-01 0.20529432E+02</pdfrwt>
<pdfrwt beam="2">  1       -3 0.18384308E-03 0.20529432E+02</pdfrwt>
<totfact> 0.13760269E+06</totfact>
</mgrwt>
</event>
<event>
 4    1  0.2126213E+000  0.2029197E+02  0.7546771E-02  0.1739584E+00
          4   -1    0    0  501    0  0.00000000000E+00  0.00000000000E+00  0.26197586278E+02  0.26197586278E+02  0.00000000000E+00 0. -1.
         -4   -1    0    0    0  501 -0.00000000000E+00 -0.00000000000E+00 -0.39294069154E+01  0.39294069154E+01  0.00000000000E+00 0.  1.
        -11    1    1    2    0    0 -0.76785358543E+01 -0.65291074967E+01  0.94078903514E+01  0.13787587114E+02  0.00000000000E+00 0.  1.
         11    1    1    2    0    0  0.76785358543E+01  0.65291074967E+01  0.12860289011E+02  0.16339406079E+02  0.00000000000E+00 0. -1.
<mgrwt>
<rscale>  0 0.20291967E+02</rscale>
<asrwt>0</asrwt>
<pdfrwt beam="1">  1        4 0.40303978E-02 0.20291967E+02</pdfrwt>
<pdfrwt beam="2">  1       -4 0.60452416E-03 0.20291967E+02</pdfrwt>
<totfact> 0.12086819E+06</totfact>
</mgrwt>
</event>
<event>
 4    1  0.2126213E+000  0.5869228E+02  0.7546771E-02  0.1403403E+00
         -3   -1    0    0    0  501 -0.00000000000E+00  0.00000000000E+00  0.10150277258E+03  0.10150277258E+03  0.00000000000E+00 0. -1.
          3   -1    0    0  501    0  0.00000000000E+00 -0.00000000000E+00 -0.84844576992E+01  0.84844576992E+01  0.00000000000E+00 0.  1.
        -13    1    1    2    0    0  0.23475031934E+02  0.50022959900E+01  0.14867680146E+02  0.28233809562E+02  0.00000000000E+00 0.  1.
         13    1    1    2    0    0 -0.23475031934E+02 -0.50022959900E+01  0.78150634733E+02  0.81753420716E+02  0.00000000000E+00 0. -1.
<mgrwt>
<rscale>  0 0.58692282E+02</rscale>
<asrwt>0</asrwt>
<pdfrwt beam="2">  1        3 0.13053013E-02 0.58692282E+02</pdfrwt>
<pdfrwt beam="1">  1       -3 0.15615810E-01 0.58692282E+02</pdfrwt>
<totfact> 0.10868230E+05</totfact>
</mgrwt>
</event>
<event>
 4    1  0.2126213E+000  0.3860344E+02  0.7546771E-02  0.1518748E+00
          2   -1    0    0  501    0  0.00000000000E+00  0.00000000000E+00  0.48737156293E+01  0.48737156293E+01  0.00000000000E+00 0. -1.
         -2   -1    0    0    0  501 -0.00000000000E+00 -0.00000000000E+00 -0.76441970865E+02  0.76441970865E+02  0.00000000000E+00 0.  1.
        -11    1    1    2    0    0 -0.12425035243E+02 -0.11406283502E+02 -0.16015964824E+02  0.23259319280E+02  0.00000000000E+00 0. -1.
         11    1    1    2    0    0  0.12425035243E+02  0.11406283502E+02 -0.55552290412E+02  0.58056367214E+02  0.00000000000E+00 0.  1.
<mgrwt>
<rscale>  0 0.38603442E+02</rscale>
<asrwt>0</asrwt>
<pdfrwt beam="1">  1        2 0.74980238E-03 0.38603442E+02</pdfrwt>
<pdfrwt beam="2">  1       -2 0.11760304E-01 0.38603442E+02</pdfrwt>
<totfact> 0.69982986E+05</totfact>
</mgrwt>
</event>
<event>
 4    1  0.2126213E+000  0.3561108E+02  0.7546771E-02  0.1543240E+00
         -4   -1    0    0    0  501 -0.00000000000E+00  0.00000000000E+00  0.88132692613E+01  0.88132692613E+01  0.00000000000E+00 0.  1.
          4   -1    0    0  501    0  0.00000000000E+00 -0.00000000000E+00 -0.35972718064E+02  0.35972718064E+02  0.00000000000E+00 0. -1.
        -11    1    1    2    0    0  0.88112339512E+01  0.12736598984E+02 -0.24628268291E+02  0.29093133149E+02  0.00000000000E+00 0. -1.
         11    1    1    2    0    0 -0.88112339512E+01 -0.12736598984E+02 -0.25311805126E+01  0.15692854177E+02  0.00000000000E+00 0.  1.
<mgrwt>
<rscale>  0 0.35611080E+02</rscale>
<asrwt>0</asrwt>
<pdfrwt beam="2">  1        4 0.55342644E-02 0.35611080E+02</pdfrwt>
<pdfrwt beam="1">  1       -4 0.13558876E-02 0.35611080E+02</pdfrwt>
<totfact> 0.33258355E+05</totfact>
</mgrwt>
</event>
<event>
 4    1  0.2126213E+000  0.4193283E+02  0.7546771E-02  0.1494451E+00
         -4   -1    0    0    0  501 -0.00000000000E+00  0.00000000000E+00  0.10855561737E+03  0.10855561737E+03  0.00000000000E+00 0.  1.
          4   -1    0    0  501    0  0.00000000000E+00 -0.00000000000E+00 -0.40494498394E+01  0.40494498394E+01  0.00000000000E+00 0. -1.
        -13    1    1    2    0    0 -0.10665201295E+02  0.17764044856E+02  0.43642001067E+02  0.48310786222E+02  0.00000000000E+00 0. -1.
         13    1    1    2    0    0  0.10665201295E+02 -0.17764044856E+02  0.60864166465E+02  0.64294280988E+02  0.00000000000E+00 0.  1.
<mgrwt>
<rscale>  0 0.41932829E+02</rscale>
<asrwt>0</asrwt>
<pdfrwt beam="2">  1        4 0.62299237E-03 0.41932829E+02</pdfrwt>
<pdfrwt beam="1">  1       -4 0.16700862E-01 0.41932829E+02</pdfrwt>
<totfact> 0.18568222E+05</totfact>
</mgrwt>
</event>
<event>
 4    1  0.2126213E+000  0.3708820E+02  0.7546771E-02  0.1530802E+00
          2   -1    0    0  501    0  0.00000000000E+00  0.00000000000E+00  0.81417706942E+02  0.81417706942E+02  0.00000000000E+00 0. -1.
         -2   -1    0    0    0  501 -0.00000000000E+00 -0.00000000000E+00 -0.42236953673E+01  0.42236953673E+01  0.00000000000E+00 0.  1.
        -11    1    1    2    0    0 -0.28023522363E+00 -0.12096163311E+02  0.61467379723E+01  0.13571222727E+02  0.00000000000E+00 0.  1.
         11    1    1    2    0    0  0.28023522363E+00  0.12096163311E+02  0.71047273603E+02  0.72070179582E+02  0.00000000000E+00 0. -1.
<mgrwt>
<rscale>  0 0.37088197E+02</rscale>
<asrwt>0</asrwt>
<pdfrwt beam="1">  1        2 0.12525800E-01 0.37088197E+02</pdfrwt>
<pdfrwt beam="2">  1       -2 0.64979935E-03 0.37088197E+02</pdfrwt>
<totfact> 0.11975057E+06</totfact>
</mgrwt>
</event>
<event>
 4    1  0.2126213E+000  0.3511493E+02  0.7546771E-02  0.1547582E+00
          3   -1    0    0  501    0  0.00000000000E+00  0.00000000000E+00  0.44381030132E+01  0.44381030132E+01  0.00000000000E+00 0.  1.
         -3   -1    0    0    0  501 -0.00000000000E+00 -0.00000000000E+00 -0.69458623383E+02  0.69458623383E+02  0.00000000000E+00 0. -1.
        -11    1    1    2    0    0  0.31266533493E+01  0.15734998424E+02 -0.17496639203E+02  0.23738123767E+02  0.00000000000E+00 0.  1.
         11    1    1    2    0    0 -0.31266533493E+01 -0.15734998424E+02 -0.47523881166E+02  0.50158602629E+02  0.00000000000E+00 0. -1.
<mgrwt>
<rscale>  0 0.35114927E+02</rscale>
<asrwt>0</asrwt>
<pdfrwt beam="1">  1        3 0.68278502E-03 0.35114927E+02</pdfrwt>
<pdfrwt beam="2">  1       -3 0.10685943E-01 0.35114927E+02</pdfrwt>
<totfact> 0.42263835E+05</totfact>
</mgrwt>
</event>
<event>
 4    1  0.2126213E+000  0.2402606E+02  0.7546771E-02  0.1675398E+00
         -2   -1    0    0    0  501 -0.00000000000E+00  0.00000000000E+00  0.84802927346E+01  0.84802927346E+01  0.00000000000E+00 0. -1.
          2   -1    0    0  501    0  0.00000000000E+00 -0.00000000000E+00 -0.17017443539E+02  0.17017443539E+02  0.00000000000E+00 0.  1.
        -11    1    1    2    0    0  0.80459041384E+01  0.82528097834E+01 -0.67478564598E+00  0.11545595628E+02  0.00000000000E+00 0.  1.
         11    1    1    2    0    0 -0.80459041384E+01 -0.82528097834E+01 -0.78623651586E+01  0.13952140646E+02  0.00000000000E+00 0. -1.
<mgrwt>
<rscale>  0 0.24026061E+02</rscale>
<asrwt>0</asrwt>
<pdfrwt beam="2">  1        2 0.26180682E-02 0.24026061E+02</pdfrwt>
<pdfrwt beam="1">  1       -2 0.13046604E-02 0.24026061E+02</pdfrwt>
<totfact> 0.26954736E+06</totfact>
</mgrwt>
</event>
<event>
 4    1  0.2126213E+000  0.2603657E+02  0.7546771E-02  0.1646545E+00
          4   -1    0    0  501    0  0.00000000000E+00  0.00000000000E+00  0.10258122463E+02  0.10258122463E+02  0.00000000000E+00 0. -1.
         -4   -1    0    0    0  501 -0.00000000000E+00 -0.00000000000E+00 -0.16521126781E+02  0.16521126781E+02  0.00000000000E+00 0.  1.
        -11    1    1    2    0    0 -0.10715565213E+02 -0.73103384847E+01 -0.42635124548E+01  0.13654373843E+02  0.00000000000E+00 0.  1.
         11    1    1    2    0    0  0.10715565213E+02  0.73103384847E+01 -0.19994918633E+01  0.13124875401E+02  0.00000000000E+00 0. -1.
<mgrwt>
<rscale>  0 0.26036570E+02</rscale>
<asrwt>0</asrwt>
<pdfrwt beam="1">  1        4 0.15781727E-02 0.26036570E+02</pdfrwt>
<pdfrwt beam="2">  1       -4 0.25417118E-02 0.26036570E+02</pdfrwt>
<totfact> 0.72238589E+05</totfact>
</mgrwt>
</event>
<event>
 4    1  0.2126213E+000  0.3174335E+02  0.7546771E-02  0.1579581E+00
          1   -1    0    0  501    0  0.00000000000E+00  0.00000000000E+00  0.25813610579E+02  0.25813610579E+02  0.00000000000E+00 0.  1.
         -1   -1    0    0    0  501 -0.00000000000E+00 -0.00000000000E+00 -0.97588051868E+01  0.97588051868E+01  0.00000000000E+00 0. -1.
        -11    1    1    2    0    0 -0.68892155694E+01 -0.13638155812E+02  0.32140030269E+01  0.15613788796E+02  0.00000000000E+00 0. -1.
         11    1    1    2    0    0  0.68892155694E+01  0.13638155812E+02  0.12840802365E+02  0.19958626969E+02  0.00000000000E+00 0.  1.
<mgrwt>
<rscale>  0 0.31743346E+02</rscale>
<asrwt>0</asrwt>
<pdfrwt beam="1">  1        1 0.39713247E-02 0.31743346E+02</pdfrwt>
<pdfrwt beam="2">  1       -1 0.15013547E-02 0.31743346E+02</pdfrwt>
<totfact> 0.13698066E+06</totfact>
</mgrwt>
</event>
<event>
 4    1  0.2126213E+000  0.2359485E+02  0.7546771E-02  0.1682045E+00
         -4   -1    0    0    0  501 -0.00000000000E+00  0.00000000000E+00  0.55008528401E+02  0.55008528401E+02  0.00000000000E+00 0. -1.
          4   -1    0    0  501    0  0.00000000000E+00 -0.00000000000E+00 -0.25301382326E+01  0.25301382326E+01  0.00000000000E+00 0.  1.
        -13    1    1    2    0    0 -0.87495827185E+01  0.69774149613E+01  0.35343961441E+02  0.37073374916E+02  0.00000000000E+00 0.  1.
         13    1    1    2    0    0  0.87495827185E+01 -0.69774149613E+01  0.17134428727E+02  0.20465291718E+02  0.00000000000E+00 0. -1.
<mgrwt>
<rscale>  0 0.23594845E+02</rscale>
<asrwt>0</asrwt>
<pdfrwt beam="2">  1        4 0.38925208E-03 0.23594845E+02</pdfrwt>
<pdfrwt beam="1">  1       -4 0.84628497E-02 0.23594845E+02</pdfrwt>
<totfact> 0.79681632E+05</totfact>
</mgrwt>
</event>
<event>
 4    1  0.2126213E+000  0.4952577E+02  0.7546771E-02  0.1447916E+00
         -1   -1    0    0    0  501 -0.00000000000E+00  0.00000000000E+00  0.67572084227E+01  0.67572084227E+01  0.00000000000E+00 0.  1.
          1   -1    0    0  501    0  0.00000000000E+00 -0.00000000000E+00 -0.90747605036E+02  0.90747605036E+02  0.00000000000E+00 0. -1.
        -11    1    1    2    0    0 -0.17818563079E+02 -0.11345337903E+02 -0.67435978428E+02  0.70667029575E+02  0.00000000000E+00 0. -1.
         11    1    1    2    0    0  0.17818563079E+02  0.11345337903E+02 -0.16554418185E+02  0.26837783884E+02  0.00000000000E+00 0.  1.
<mgrwt>
<rscale>  0 0.49525770E+02</rscale>
<asrwt>0</asrwt>
<pdfrwt beam="2">  1        1 0.13961171E-01 0.49525770E+02</pdfrwt>
<pdfrwt beam="1">  1       -1 0.10395705E-02 0.49525770E+02</pdfrwt>
<totfact> 0.51067826E+05</totfact>
</mgrwt>
</event>
<event>
 4    1  0.2126213E+000  0.2371513E+02  0.7546771E-02  0.1680174E+00
          1   -1    0    0  501    0  0.00000000000E+00  0.00000000000E+00  0.48577958816E+02  0.48577958816E+02  0.00000000000E+00 0. -1.
         -1   -1    0    0    0  501 -0.00000000000E+00 -0.00000000000E+00 -0.28943538323E+01  0.28943538323E+01  0.00000000000E+00 0.  1.
        -13    1    1    2    0    0 -0.46319008322E+01 -0.10537708529E+02  0.29020512652E+02  0.31219992969E+02  0.00000000000E+00 0. -1.
         13    1    1    2    0    0  0.46319008322E+01  0.10537708529E+02  0.16663092332E+02  0.20252319680E+02  0.00000000000E+00 0.  1.
<mgrwt>
<rscale>  0 0.23715126E+02</rscale>
<asrwt>0</asrwt>
<pdfrwt beam="1">  1        1 0.74735315E-02 0.23715126E+02</pdfrwt>
<pdfrwt beam="2">  1       -1 0.44528524E-03 0.23715126E+02</pdfrwt>
<totfact> 0.28339181E+06</totfact>
</mgrwt>
</event>
<event>
 4    1  0.2126213E+000  0.2082638E+02  0.7546771E-02  0.1729377E+00
          2   -1    0    0  501    0  0.00000000000E+00  0.00000000000E+00  0.16302466290E+01  0.16302466290E+01  0.00000000000E+00 0. -1.
         -2   -1    0    0    0  501 -0.00000000000E+00 -0.00000000000E+00 -0.66514203976E+02  0.66514203976E+02  0.00000000000E+00 0.  1.
        -11    1    1    2    0    0 -0.10402385152E+02  0.63417730275E-01 -0.33979893740E+02  0.35536556069E+02  0.00000000000E+00 0. -1.
         11    1    1    2    0    0  0.10402385152E+02 -0.63417730275E-01 -0.30904063607E+02  0.32607894536E+02  0.00000000000E+00 0.  1.
<mgrwt>
<rscale>  0 0.20826383E+02</rscale>
<asrwt>0</asrwt>
<pdfrwt beam="1">  1        2 0.25080727E-03 0.20826383E+02</pdfrwt>
<pdfrwt beam="2">  1       -2 0.10232951E-01 0.20826383E+02</pdfrwt>
<totfact> 0.29631121E+06</totfact>
</mgrwt>
</event>
<event>
 4    1  0.2126213E+000  0.3470827E+02  0.7546771E-02  0.1551207E+00
         -2   -1    0    0    0  501 -0.00000000000E+00  0.00000000000E+00  0.20161205825E+01  0.20161205825E+01  0.00000000000E+00 0.  1.
          2   -1    0    0  501    0  0.00000000000E+00 -0.00000000000E+00 -0.14937896123E+03  0.14937896123E+03  0.00000000000E+00 0. -1.
        -11    1    1    2    0    0 -0.16937024557E+02 -0.37374090799E+01 -0.71156880012E+02  0.73240238944E+02  0.00000000000E+00 0. -1.
         11    1    1    2    0    0  0.16937024557E+02  0.37374090799E+01 -0.76205960635E+02  0.78154842869E+02  0.00000000000E+00 0.  1.
<mgrwt>
<rscale>  0 0.34708270E+02</rscale>
<asrwt>0</asrwt>
<pdfrwt beam="2">  1        2 0.22981376E-01 0.34708270E+02</pdfrwt>
<pdfrwt beam="1">  1       -2 0.31017244E-03 0.34708270E+02</pdfrwt>
<totfact> 0.16441088E+06</totfact>
</mgrwt>
</event>
<event>
 4    1  0.2126213E+000  0.3143227E+02  0.7546771E-02  0.1582776E+00
          2   -1    0    0  501    0  0.00000000000E+00  0.00000000000E+00  0.23749011002E+02  0.23749011002E+02  0.00000000000E+00 0.  1.
         -2   -1    0    0    0  501 -0.00000000000E+00 -0.00000000000E+00 -0.10400301833E+02  0.10400301833E+02  0.00000000000E+00 0. -1.
        -13    1    1    2    0    0 -0.14196831829E+02  0.14277766019E+01  0.13832370169E+02  0.19872670794E+02  0.00000000000E+00 0.  1.
         13    1    1    2    0    0  0.14196831829E+02 -0.14277766019E+01 -0.48366099920E+00  0.14276642041E+02  0.00000000000E+00 0. -1.
<mgrwt>
<rscale>  0 0.31432269E+02</rscale>
<asrwt>0</asrwt>
<pdfrwt beam="1">  1        2 0.36536940E-02 0.31432269E+02</pdfrwt>
<pdfrwt beam="2">  1       -2 0.16000464E-02 0.31432269E+02</pdfrwt>
<totfact> 0.14682525E+06</totfact>
</mgrwt>
</event>
<event>
 4    1  0.2126213E+000  0.2386167E+02  0.7546771E-02  0.1677912E+00
         -2   -1    0    0    0  501 -0.00000000000E+00  0.00000000000E+00  0.15610234473E+01  0.15610234473E+01  0.00000000000E+00 0. -1.
          2   -1    0    0  501    0  0.00000000000E+00 -0.00000000000E+00 -0.91186880726E+02  0.91186880726E+02  0.00000000000E+00 0.  1.
        -11    1    1    2    0    0  0.39323363406E+01  0.10630151632E+02 -0.59294673239E+02  0.60368217361E+02  0.00000000000E+00 0.  1.
         11    1    1    2    0    0 -0.39323363406E+01 -0.10630151632E+02 -0.30331184040E+02  0.32379686813E+02  0.00000000000E+00 0. -1.
<mgrwt>
<rscale>  0 0.23861673E+02</rscale>
<asrwt>0</asrwt>
<pdfrwt beam="2">  1        2 0.14028752E-01 0.23861673E+02</pdfrwt>
<pdfrwt beam="1">  1       -2 0.24015744E-03 0.23861673E+02</pdfrwt>
<totfact> 0.34781931E+06</totfact>
</mgrwt>
</event>
<event>
 4    1  0.2126213E+000  0.2584723E+02  0.7546771E-02  0.1649123E+00
         -4   -1    0    0    0  501 -0.00000000000E+00  0.00000000000E+00  0.97753169799E+01  0.97753169799E+01  0.00000000000E+00 0.  1.
          4   -1    0    0  501    0  0.00000000000E+00 -0.00000000000E+00 -0.17085874900E+02  0.17085874900E+02  0.00000000000E+00 0. -1.
        -11    1    1    2    0    0 -0.96973156644E+01 -0.58996940776E+01 -0.10076294758E+02  0.15178143410E+02  0.00000000000E+00 0. -1.
         11    1    1    2    0    0  0.96973156644E+01  0.58996940776E+01  0.27657368382E+01  0.11683048470E+02  0.00000000000E+00 0.  1.
<mgrwt>
<rscale>  0 0.25847231E+02</rscale>
<asrwt>0</asrwt>
<pdfrwt beam="2">  1        4 0.26285961E-02 0.25847231E+02</pdfrwt>
<pdfrwt beam="1">  1       -4 0.15038949E-02 0.25847231E+02</pdfrwt>
<totfact> 0.73378669E+05</totfact>
</mgrwt>
</event>
<event>
 4    1  0.2126213E+000  0.4627786E+02  0.7546771E-02  0.1466518E+00
         -2   -1    0    0    0  501 -0.00000000000E+00  0.00000000000E+00  0.58755525176E+02  0.58755525176E+02  0.00000000000E+00 0. -1.
          2   -1    0    0  501    0  0.00000000000E+00 -0.00000000000E+00 -0.91125076872E+01  0.91125076872E+01  0.00000000000E+00 0.  1.
        -13    1    1    2    0    0  0.20347655958E+02 -0.58448876465E+01  0.11125283372E+02  0.23915721706E+02  0.00000000000E+00 0.  1.
         13    1    1    2    0    0 -0.20347655958E+02  0.58448876465E+01  0.38517734117E+02  0.43952311158E+02  0.00000000000E+00 0. -1.
<mgrwt>
<rscale>  0 0.46277864E+02</rscale>
<asrwt>0</asrwt>
<pdfrwt beam="2">  1        2 0.14019243E-02 0.46277864E+02</pdfrwt>
<pdfrwt beam="1">  1       -2 0.90393114E-02 0.46277864E+02</pdfrwt>
<totfact> 0.47700974E+05</totfact>
</mgrwt>
</event>
<event>
 4    1  0.2126213E+000  0.3140939E+02  0.7546771E-02  0.1583013E+00
         -2   -1    0    0    0  501 -0.00000000000E+00  0.00000000000E+00  0.14032055643E+01  0.14032055643E+01  0.00000000000E+00 0. -1.
          2   -1    0    0  501    0  0.00000000000E+00 -0.00000000000E+00 -0.17576714595E+03  0.17576714595E+03  0.00000000000E+00 0.  1.
        -13    1    1    2    0    0  0.11453711958E+02 -0.10671527341E+02 -0.80117765655E+02  0.81632869526E+02  0.00000000000E+00 0. -1.
         13    1    1    2    0    0 -0.11453711958E+02  0.10671527341E+02 -0.94246174730E+02  0.95537481988E+02  0.00000000000E+00 0.  1.
<mgrwt>
<rscale>  0 0.31409390E+02</rscale>
<asrwt>0</asrwt>
<pdfrwt beam="2">  1        2 0.27041084E-01 0.31409390E+02</pdfrwt>
<pdfrwt beam="1">  1       -2 0.21587790E-03 0.31409390E+02</pdfrwt>
<totfact> 0.21878479E+06</totfact>
</mgrwt>
</event>
<event>
 4    1  0.2126213E+000  0.2278809E+02  0.7546771E-02  0.1694968E+00
         -4   -1    0    0    0  501 -0.00000000000E+00  0.00000000000E+00  0.22346647440E+02  0.22346647440E+02  0.00000000000E+00 0.  1.
          4   -1    0    0  501    0  0.00000000000E+00 -0.00000000000E+00 -0.58095629029E+01  0.58095629029E+01  0.00000000000E+00 0. -1.
        -11    1    1    2    0    0  0.11054604725E+02  0.92390263509E+00  0.11482530126E+02  0.15965787791E+02  0.00000000000E+00 0. -1.
         11    1    1    2    0    0 -0.11054604725E+02 -0.92390263509E+00  0.50545544110E+01  0.12190422552E+02  0.00000000000E+00 0.  1.
<mgrwt>
<rscale>  0 0.22788089E+02</rscale>
<asrwt>0</asrwt>
<pdfrwt beam="2">  1        4 0.89377892E-03 0.22788089E+02</pdfrwt>
<pdfrwt beam="1">  1       -4 0.34379457E-02 0.22788089E+02</pdfrwt>
<totfact> 0.95706405E+05</totfact>
</mgrwt>
</event>
<event>
 4    1  0.2126213E+000  0.3269298E+02  0.7546771E-02  0.1570097E+00
         -4   -1    0    0    0  501 -0.00000000000E+00  0.00000000000E+00  0.64945664631E+01  0.64945664631E+01  0.00000000000E+00 0. -1.
          4   -1    0    0  501    0  0.00000000000E+00 -0.00000000000E+00 -0.41143283276E+02  0.41143283276E+02  0.00000000000E+00 0.  1.
        -11    1    1    2    0    0 -0.17207702232E+01 -0.14467609714E+02 -0.65243973383E+01  0.15963725806E+02  0.00000000000E+00 0.  1.
         11    1    1    2    0    0  0.17207702232E+01  0.14467609714E+02 -0.28124319474E+02  0.31674123932E+02  0.00000000000E+00 0. -1.
<mgrwt>
<rscale>  0 0.32692983E+02</rscale>
<asrwt>0</asrwt>
<pdfrwt beam="2">  1        4 0.63297359E-02 0.32692983E+02</pdfrwt>
<pdfrwt beam="1">  1       -4 0.99916407E-03 0.32692983E+02</pdfrwt>
<totfact> 0.40132605E+05</totfact>
</mgrwt>
</event>
<event>
 4    1  0.2126213E+000  0.3092819E+02  0.7546771E-02  0.1588050E+00
          2   -1    0    0  501    0  0.00000000000E+00  0.00000000000E+00  0.12492928402E+03  0.12492928402E+03  0.00000000000E+00 0.  1.
         -2   -1    0    0    0  501 -0.00000000000E+00 -0.00000000000E+00 -0.19141891716E+01  0.19141891716E+01  0.00000000000E+00 0. -1.
        -13    1    1    2    0    0  0.59040277378E+01  0.14281354900E+02  0.59174381608E+02  0.61158990182E+02  0.00000000000E+00 0. -1.
         13    1    1    2    0    0 -0.59040277378E+01 -0.14281354900E+02  0.63840713241E+02  0.65684483011E+02  0.00000000000E+00 0.  1.
<mgrwt>
<rscale>  0 0.30928193E+02</rscale>
<asrwt>0</asrwt>
<pdfrwt beam="1">  1        2 0.19219883E-01 0.30928193E+02</pdfrwt>
<pdfrwt beam="2">  1       -2 0.29449074E-03 0.30928193E+02</pdfrwt>
<totfact> 0.20574892E+06</totfact>
</mgrwt>
</event>
<event>
 4    1  0.2126213E+000  0.2346447E+02  0.7546771E-02  0.1684090E+00
         -2   -1    0    0    0  501 -0.00000000000E+00  0.00000000000E+00  0.48955416002E+01  0.48955416002E+01  0.00000000000E+00 0. -1.
          2   -1    0    0  501    0  0.00000000000E+00 -0.00000000000E+00 -0.28116468328E+02  0.28116468328E+02  0.00000000000E+00 0.  1.
        -11    1    1    2    0    0 -0.33338472866E+00  0.10633167166E+02 -0.18569958957E+02  0.21401372970E+02  0.00000000000E+00 0.  1.
         11    1    1    2    0    0  0.33338472866E+00 -0.10633167166E+02 -0.46509677707E+01  0.11610636958E+02  0.00000000000E+00 0. -1.
<mgrwt>
<rscale>  0 0.23464470E+02</rscale>
<asrwt>0</asrwt>
<pdfrwt beam="2">  1        2 0.43256105E-02 0.23464470E+02</pdfrwt>
<pdfrwt beam="1">  1       -2 0.75316024E-03 0.23464470E+02</pdfrwt>
<totfact> 0.29933709E+06</totfact>
</mgrwt>
</event>
<event>
 4    1  0.2126213E+000  0.2605231E+02  0.7546771E-02  0.1646332E+00
          2   -1    0    0  501    0  0.00000000000E+00  0.00000000000E+00  0.20563975735E+02  0.20563975735E+02  0.00000000000E+00 0. -1.
         -2   -1    0    0    0  501 -0.00000000000E+00 -0.00000000000E+00 -0.82513565753E+01  0.82513565753E+01  0.00000000000E+00 0.  1.
        -13    1    1    2    0    0  0.13205686040E+01  0.11228635535E+02 -0.99933397864E+00  0.11350102459E+02  0.00000000000E+00 0.  1.
         13    1    1    2    0    0 -0.13205686040E+01 -0.11228635535E+02  0.13311953138E+02  0.17465229852E+02  0.00000000000E+00 0. -1.
<mgrwt>
<rscale>  0 0.26052309E+02</rscale>
<asrwt>0</asrwt>
<pdfrwt beam="1">  1        2 0.31636886E-02 0.26052309E+02</pdfrwt>
<pdfrwt beam="2">  1       -2 0.12694395E-02 0.26052309E+02</pdfrwt>
<totfact> 0.22684126E+06</totfact>
</mgrwt>
</event>
<event>
 4    1  0.2126213E+000  0.3456094E+02  0.7546771E-02  0.1552534E+00
         -4   -1    0    0    0  501 -0.00000000000E+00  0.00000000000E+00  0.11945105122E+02  0.11945105122E+02  0.00000000000E+00 0. -1.
          4   -1    0    0  501    0  0.00000000000E+00 -0.00000000000E+00 -0.24998907070E+02  0.24998907070E+02  0.00000000000E+00 0.  1.
        -13    1    1    2    0    0 -0.72104159928E+01  0.14966206968E+02 -0.11612816943E+02  0.20269064289E+02  0.00000000000E+00 0. -1.
         13    1    1    2    0    0  0.72104159928E+01 -0.14966206968E+02 -0.14409850047E+01  0.16674947903E+02  0.00000000000E+00 0.  1.
<mgrwt>
<rscale>  0 0.34560936E+02</rscale>
<asrwt>0</asrwt>
<pdfrwt beam="2">  1        4 0.38459857E-02 0.34560936E+02</pdfrwt>
<pdfrwt beam="1">  1       -4 0.18377085E-02 0.34560936E+02</pdfrwt>
<totfact> 0.36645044E+05</totfact>
</mgrwt>
</event>
<event>
 4    1  0.2126213E+000  0.2707572E+02  0.7546771E-02  0.1632861E+00
          2   -1    0    0  501    0  0.00000000000E+00  0.00000000000E+00  0.21079394315E+02  0.21079394315E+02  0.00000000000E+00 0. -1.
         -2   -1    0    0    0  501 -0.00000000000E+00 -0.00000000000E+00 -0.86944484848E+01  0.86944484848E+01  0.00000000000E+00 0.  1.
        -13    1    1    2    0    0 -0.87718419190E+01  0.73572066336E+01 -0.17524574726E+01  0.11582089936E+02  0.00000000000E+00 0.  1.
         13    1    1    2    0    0  0.87718419190E+01 -0.73572066336E+01  0.14137403303E+02  0.18191752864E+02  0.00000000000E+00 0. -1.
<mgrwt>
<rscale>  0 0.27075724E+02</rscale>
<asrwt>0</asrwt>
<pdfrwt beam="1">  1        2 0.32429837E-02 0.27075724E+02</pdfrwt>
<pdfrwt beam="2">  1       -2 0.13376075E-02 0.27075724E+02</pdfrwt>
<totfact> 0.20754663E+06</totfact>
</mgrwt>
</event>
<event>
 4    1  0.2126213E+000  0.2357201E+02  0.7546771E-02  0.1682402E+00
          4   -1    0    0  501    0  0.00000000000E+00  0.00000000000E+00  0.15428034891E+02  0.15428034891E+02  0.00000000000E+00 0. -1.
         -4   -1    0    0    0  501 -0.00000000000E+00 -0.00000000000E+00 -0.90037317508E+01  0.90037317508E+01  0.00000000000E+00 0.  1.
        -11    1    1    2    0    0  0.33735049170E+01  0.10865711287E+02  0.23302347145E-01  0.11377379320E+02  0.00000000000E+00 0.  1.
         11    1    1    2    0    0 -0.33735049170E+01 -0.10865711287E+02  0.64010007927E+01  0.13054387321E+02  0.00000000000E+00 0. -1.
<mgrwt>
<rscale>  0 0.23572008E+02</rscale>
<asrwt>0</asrwt>
<pdfrwt beam="1">  1        4 0.23735438E-02 0.23572008E+02</pdfrwt>
<pdfrwt beam="2">  1       -4 0.13851895E-02 0.23572008E+02</pdfrwt>
<totfact> 0.90474861E+05</totfact>
</mgrwt>
</event>
<event>
 4    1  0.2126213E+000  0.4605884E+02  0.7546771E-02  0.1467838E+00
         -1   -1    0    0    0  501 -0.00000000000E+00  0.00000000000E+00  0.57076890874E+01  0.57076890874E+01  0.00000000000E+00 0. -1.
          1   -1    0    0  501    0  0.00000000000E+00 -0.00000000000E+00 -0.92919230193E+02  0.92919230193E+02  0.00000000000E+00 0.  1.
        -13    1    1    2    0    0 -0.16235813820E+02  0.11367293465E+02 -0.68718411817E+02  0.71519487790E+02  0.00000000000E+00 0.  1.
         13    1    1    2    0    0  0.16235813820E+02 -0.11367293465E+02 -0.18493129289E+02  0.27107431490E+02  0.00000000000E+00 0. -1.
<mgrwt>
<rscale>  0 0.46058835E+02</rscale>
<asrwt>0</asrwt>
<pdfrwt beam="2">  1        1 0.14295267E-01 0.46058835E+02</pdfrwt>
<pdfrwt beam="1">  1       -1 0.87810599E-03 0.46058835E+02</pdfrwt>
<totfact> 0.61466540E+05</totfact>
</mgrwt>
</event>
<event>
 4    1  0.2126213E+000  0.2570151E+02  0.7546771E-02  0.1651126E+00
         -2   -1    0    0    0  501 -0.00000000000E+00  0.00000000000E+00  0.11304302624E+02  0.11304302624E+02  0.00000000000E+00 0. -1.
          2   -1    0    0  501    0  0.00000000000E+00 -0.00000000000E+00 -0.14608760320E+02  0.14608760320E+02  0.00000000000E+00 0.  1.
        -13    1    1    2    0    0  0.44482037258E+01 -0.94730949686E+01  0.58667574005E+01  0.11997703408E+02  0.00000000000E+00 0. -1.
         13    1    1    2    0    0 -0.44482037258E+01  0.94730949686E+01 -0.91712150970E+01  0.13915359536E+02  0.00000000000E+00 0.  1.
<mgrwt>
<rscale>  0 0.25701506E+02</rscale>
<asrwt>0</asrwt>
<pdfrwt beam="2">  1        2 0.22475016E-02 0.25701506E+02</pdfrwt>
<pdfrwt beam="1">  1       -2 0.17391235E-02 0.25701506E+02</pdfrwt>
<totfact> 0.22674114E+06</totfact>
</mgrwt>
</event>
<event>
 4    1  0.2126213E+000  0.8705924E+02  0.7546771E-02  0.1310134E+00
         -2   -1    0    0    0  501 -0.00000000000E+00  0.00000000000E+00  0.43343241256E+02  0.43343241256E+02  0.00000000000E+00 0.  1.
          2   -1    0    0  501    0  0.00000000000E+00 -0.00000000000E+00 -0.43716797674E+02  0.43716797674E+02  0.00000000000E+00 0. -1.
        -11    1    1    2    0    0  0.27825256494E+02  0.13157330002E+02 -0.30968021212E+02  0.43662095341E+02  0.00000000000E+00 0. -1.
         11    1    1    2    0    0 -0.27825256494E+02 -0.13157330002E+02  0.30594464793E+02  0.43397943589E+02  0.00000000000E+00 0.  1.
<mgrwt>
<rscale>  0 0.87059237E+02</rscale>
<asrwt>0</asrwt>
<pdfrwt beam="2">  1        2 0.67256612E-02 0.87059237E+02</pdfrwt>
<pdfrwt beam="1">  1       -2 0.66681910E-02 0.87059237E+02</pdfrwt>
<totfact> 0.11141052E+05</totfact>
</mgrwt>
</event>
<event>
 4    1  0.2126213E+000  0.2203529E+02  0.7546771E-02  0.1707642E+00
          2   -1    0    0  501    0  0.00000000000E+00  0.00000000000E+00  0.14092721573E+02  0.14092721573E+02  0.00000000000E+00 0.  1.
         -2   -1    0    0    0  501 -0.00000000000E+00 -0.00000000000E+00 -0.86135595508E+01  0.86135595508E+01  0.00000000000E+00 0. -1.
        -11    1    1    2    0    0  0.71702676581E+01  0.70095753075E+01  0.74438582068E+01  0.12488310906E+02  0.00000000000E+00 0.  1.
         11    1    1    2    0    0 -0.71702676581E+01 -0.70095753075E+01 -0.19646961843E+01  0.10217970218E+02  0.00000000000E+00 0. -1.
<mgrwt>
<rscale>  0 0.22035290E+02</rscale>
<asrwt>0</asrwt>
<pdfrwt beam="1">  1        2 0.21681110E-02 0.22035290E+02</pdfrwt>
<pdfrwt beam="2">  1       -2 0.13251630E-02 0.22035290E+02</pdfrwt>
<totfact> 0.32426586E+06</totfact>
</mgrwt>
</event>
<event>
 4    1  0.2126213E+000  0.8342346E+02  0.7546771E-02  0.1319608E+00
         -2   -1    0    0    0  501 -0.00000000000E+00  0.00000000000E+00  0.82346776619E+02  0.82346776619E+02  0.00000000000E+00 0.  1.
          2   -1    0    0  501    0  0.00000000000E+00 -0.00000000000E+00 -0.21128555728E+02  0.21128555728E+02  0.00000000000E+00 0. -1.
        -13    1    1    2    0    0  0.28650841308E+02  0.30200375273E+02  0.27342671790E+02  0.49805171166E+02  0.00000000000E+00 0. -1.
         13    1    1    2    0    0 -0.28650841308E+02 -0.30200375273E+02  0.33875549101E+02  0.53670161181E+02  0.00000000000E+00 0.  1.
<mgrwt>
<rscale>  0 0.83423461E+02</rscale>
<asrwt>0</asrwt>
<pdfrwt beam="2">  1        2 0.32505471E-02 0.83423461E+02</pdfrwt>
<pdfrwt beam="1">  1       -2 0.12668735E-01 0.83423461E+02</pdfrwt>
<totfact> 0.10505203E+05</totfact>
</mgrwt>
</event>
<event>
 4    1  0.2126213E+000  0.2430459E+02  0.7546771E-02  0.1671196E+00
          1   -1    0    0  501    0  0.00000000000E+00  0.00000000000E+00  0.30069662674E+01  0.30069662674E+01  0.00000000000E+00 0.  1.
         -1   -1    0    0    0  501 -0.00000000000E+00 -0.00000000000E+00 -0.49112031859E+02  0.49112031859E+02  0.00000000000E+00 0. -1.
        -11    1    1    2    0    0 -0.85994523121E+01 -0.52248952749E+01 -0.84409135179E+01  0.13133892482E+02  0.00000000000E+00 0.  1.
         11    1    1    2    0    0  0.85994523121E+01  0.52248952749E+01 -0.37664152074E+02  0.38985105645E+02  0.00000000000E+00 0. -1.
<mgrwt>
<rscale>  0 0.24304586E+02</rscale>
<asrwt>0</asrwt>
<pdfrwt beam="1">  1        1 0.46261023E-03 0.24304586E+02</pdfrwt>
<pdfrwt beam="2">  1       -1 0.75556967E-02 0.24304586E+02</pdfrwt>
<totfact> 0.22639049E+06</totfact>
</mgrwt>
</event>
<event>
 4    1  0.2126213E+000  0.3316640E+02  0.7546771E-02  0.1565513E+00
         -2   -1    0    0    0  501 -0.00000000000E+00  0.00000000000E+00  0.48286167308E+02  0.48286167308E+02  0.00000000000E+00 0. -1.
          2   -1    0    0  501    0  0.00000000000E+00 -0.00000000000E+00 -0.56952635994E+01  0.56952635994E+01  0.00000000000E+00 0.  1.
        -11    1    1    2    0    0  0.13544799719E+02 -0.78269183008E+01  0.12339216553E+02  0.19924319679E+02  0.00000000000E+00 0.  1.
         11    1    1    2    0    0 -0.13544799719E+02  0.78269183008E+01  0.30251687155E+02  0.34057111229E+02  0.00000000000E+00 0. -1.
<mgrwt>
<rscale>  0 0.33166396E+02</rscale>
<asrwt>0</asrwt>
<pdfrwt beam="2">  1        2 0.87619443E-03 0.33166396E+02</pdfrwt>
<pdfrwt beam="1">  1       -2 0.74286409E-02 0.33166396E+02</pdfrwt>
<totfact> 0.10842006E+06</totfact>
</mgrwt>
</event>
<event>
 4    1  0.2126213E+000  0.2244606E+02  0.7546771E-02  0.1700650E+00
         -2   -1    0    0    0  501 -0.00000000000E+00  0.00000000000E+00  0.14024916970E+02  0.14024916970E+02  0.00000000000E+00 0. -1.
          2   -1    0    0  501    0  0.00000000000E+00 -0.00000000000E+00 -0.89809041911E+01  0.89809041911E+01  0.00000000000E+00 0.  1.
        -11    1    1    2    0    0  0.22686937814E+00 -0.10461083616E+02  0.66816251790E+01  0.12414904557E+02  0.00000000000E+00 0. -1.
         11    1    1    2    0    0 -0.22686937814E+00  0.10461083616E+02 -0.16376124001E+01  0.10590916604E+02  0.00000000000E+00 0.  1.
<mgrwt>
<rscale>  0 0.22446063E+02</rscale>
<asrwt>0</asrwt>
<pdfrwt beam="2">  1        2 0.13816776E-02 0.22446063E+02</pdfrwt>
<pdfrwt beam="1">  1       -2 0.21576795E-02 0.22446063E+02</pdfrwt>
<totfact> 0.29954384E+06</totfact>
</mgrwt>
</event>
<event>
 4    1  0.2126213E+000  0.3035839E+02  0.7546771E-02  0.1594161E+00
          3   -1    0    0  501    0  0.00000000000E+00  0.00000000000E+00  0.46395173477E+01  0.46395173477E+01  0.00000000000E+00 0. -1.
         -3   -1    0    0    0  501 -0.00000000000E+00 -0.00000000000E+00 -0.49662069198E+02  0.49662069198E+02  0.00000000000E+00 0.  1.
        -11    1    1    2    0    0  0.24520022572E+01  0.13459392610E+02 -0.34273214429E+02  0.36902856147E+02  0.00000000000E+00 0.  1.
         11    1    1    2    0    0 -0.24520022572E+01 -0.13459392610E+02 -0.10749337421E+02  0.17398730398E+02  0.00000000000E+00 0. -1.
<mgrwt>
<rscale>  0 0.30358395E+02</rscale>
<asrwt>0</asrwt>
<pdfrwt beam="1">  1        3 0.71377193E-03 0.30358395E+02</pdfrwt>
<pdfrwt beam="2">  1       -3 0.76403180E-02 0.30358395E+02</pdfrwt>
<totfact> 0.62791322E+05</totfact>
</mgrwt>
</event>
<event>
 4    1  0.2126213E+000  0.5455775E+02  0.7546771E-02  0.1422202E+00
          2   -1    0    0  501    0  0.00000000000E+00  0.00000000000E+00  0.17808058993E+02  0.17808058993E+02  0.00000000000E+00 0. -1.
         -2   -1    0    0    0  501 -0.00000000000E+00 -0.00000000000E+00 -0.41786528598E+02  0.41786528598E+02  0.00000000000E+00 0.  1.
        -13    1    1    2    0    0  0.35103190520E+01  0.26882602407E+02 -0.86868251105E+01  0.28468536712E+02  0.00000000000E+00 0. -1.
         13    1    1    2    0    0 -0.35103190520E+01 -0.26882602407E+02 -0.15291644495E+02  0.31126050880E+02  0.00000000000E+00 0.  1.
<mgrwt>
<rscale>  0 0.54557748E+02</rscale>
<asrwt>0</asrwt>
<pdfrwt beam="1">  1        2 0.27397014E-02 0.54557748E+02</pdfrwt>
<pdfrwt beam="2">  1       -2 0.64286967E-02 0.54557748E+02</pdfrwt>
<totfact> 0.34129124E+05</totfact>
</mgrwt>
</event>
<event>
 4    1  0.2126213E+000  0.2424173E+02  0.7546771E-02  0.1672138E+00
         -3   -1    0    0    0  501 -0.00000000000E+00  0.00000000000E+00  0.17578176568E+01  0.17578176568E+01  0.00000000000E+00 0.  1.
          3   -1    0    0  501    0  0.00000000000E+00 -0.00000000000E+00 -0.83578257971E+02  0.83578257971E+02  0.00000000000E+00 0. -1.
        -11    1    1    2    0    0 -0.11573529502E+01 -0.11990346145E+02 -0.36177565906E+02  0.38130357216E+02  0.00000000000E+00 0. -1.
         11    1    1    2    0    0  0.11573529502E+01  0.11990346145E+02 -0.45642874408E+02  0.47205718412E+02  0.00000000000E+00 0.  1.
<mgrwt>
<rscale>  0 0.24241727E+02</rscale>
<asrwt>0</asrwt>
<pdfrwt beam="2">  1        3 0.12858197E-01 0.24241727E+02</pdfrwt>
<pdfrwt beam="1">  1       -3 0.27043341E-03 0.24241727E+02</pdfrwt>
<totfact> 0.96502122E+05</totfact>
</mgrwt>
</event>
<event>
 4    1  0.2126213E+000  0.2079010E+02  0.7546771E-02  0.1730057E+00
         -2   -1    0    0    0  501 -0.00000000000E+00  0.00000000000E+00  0.19149491113E+02  0.19149491113E+02  0.00000000000E+00 0.  1.
          2   -1    0    0  501    0  0.00000000000E+00 -0.00000000000E+00 -0.56428187934E+01  0.56428187934E+01  0.00000000000E+00 0. -1.
        -13    1    1    2    0    0  0.10168453484E+02  0.20305480188E+01  0.76268304895E+01  0.12872028388E+02  0.00000000000E+00 0.  1.
         13    1    1    2    0    0 -0.10168453484E+02 -0.20305480188E+01  0.58798418301E+01  0.11920281518E+02  0.00000000000E+00 0. -1.
<mgrwt>
<rscale>  0 0.20790104E+02</rscale>
<asrwt>0</asrwt>
<pdfrwt beam="2">  1        2 0.86812598E-03 0.20790104E+02</pdfrwt>
<pdfrwt beam="1">  1       -2 0.29460755E-02 0.20790104E+02</pdfrwt>
<totfact> 0.34529839E+06</totfact>
</mgrwt>
</event>
<event>
 4    1  0.2126213E+000  0.2884149E+02  0.7546771E-02  0.1611259E+00
          2   -1    0    0  501    0  0.00000000000E+00  0.00000000000E+00  0.30355108574E+02  0.30355108574E+02  0.00000000000E+00 0.  1.
         -2   -1    0    0    0  501 -0.00000000000E+00 -0.00000000000E+00 -0.68508346550E+01  0.68508346550E+01  0.00000000000E+00 0. -1.
        -13    1    1    2    0    0 -0.90180422833E+01 -0.11188869045E+02  0.13301203900E+02  0.19581570476E+02  0.00000000000E+00 0.  1.
         13    1    1    2    0    0  0.90180422833E+01  0.11188869045E+02  0.10203070020E+02  0.17624372753E+02  0.00000000000E+00 0. -1.
<mgrwt>
<rscale>  0 0.28841486E+02</rscale>
<asrwt>0</asrwt>
<pdfrwt beam="1">  1        2 0.46700166E-02 0.28841486E+02</pdfrwt>
<pdfrwt beam="2">  1       -2 0.10539746E-02 0.28841486E+02</pdfrwt>
<totfact> 0.18604364E+06</totfact>
</mgrwt>
</event>
<event>
 4    1  0.2126213E+000  0.4125002E+02  0.7546771E-02  0.1499209E+00
         -2   -1    0    0    0  501 -0.00000000000E+00  0.00000000000E+00  0.34886672587E+02  0.34886672587E+02  0.00000000000E+00 0. -1.
          2   -1    0    0  501    0  0.00000000000E+00 -0.00000000000E+00 -0.12193513741E+02  0.12193513741E+02  0.00000000000E+00 0.  1.
        -11    1    1    2    0    0  0.15360024392E+02 -0.35619274599E+01  0.26521362076E+02  0.30854502474E+02  0.00000000000E+00 0. -1.
         11    1    1    2    0    0 -0.15360024392E+02  0.35619274599E+01 -0.38282032300E+01  0.16225683854E+02  0.00000000000E+00 0.  1.
<mgrwt>
<rscale>  0 0.41250024E+02</rscale>
<asrwt>0</asrwt>
<pdfrwt beam="2">  1        2 0.18759252E-02 0.41250024E+02</pdfrwt>
<pdfrwt beam="1">  1       -2 0.53671804E-02 0.41250024E+02</pdfrwt>
<totfact> 0.68133835E+05</totfact>
</mgrwt>
</event>
<event>
 4    1  0.2126213E+000  0.2336259E+02  0.7546771E-02  0.1685699E+00
          2   -1    0    0  501    0  0.00000000000E+00  0.00000000000E+00  0.21785533428E+01  0.21785533428E+01  0.00000000000E+00 0.  1.
         -2   -1    0    0    0  501 -0.00000000000E+00 -0.00000000000E+00 -0.62634502736E+02  0.62634502736E+02  0.00000000000E+00 0. -1.
        -11    1    1    2    0    0  0.10624702831E+02 -0.19185106346E+01 -0.42599775172E+02  0.43946624877E+02  0.00000000000E+00 0. -1.
         11    1    1    2    0    0 -0.10624702831E+02  0.19185106346E+01 -0.17856174221E+02  0.20866431203E+02  0.00000000000E+00 0.  1.
<mgrwt>
<rscale>  0 0.23362586E+02</rscale>
<asrwt>0</asrwt>
<pdfrwt beam="1">  1        2 0.33516208E-03 0.23362586E+02</pdfrwt>
<pdfrwt beam="2">  1       -2 0.96360765E-02 0.23362586E+02</pdfrwt>
<totfact> 0.23201008E+06</totfact>
</mgrwt>
</event>
<event>
 4    1  0.2126213E+000  0.2978323E+02  0.7546771E-02  0.1600497E+00
         -2   -1    0    0    0  501 -0.00000000000E+00  0.00000000000E+00  0.11303094472E+02  0.11303094472E+02  0.00000000000E+00 0. -1.
          2   -1    0    0  501    0  0.00000000000E+00 -0.00000000000E+00 -0.19619429166E+02  0.19619429166E+02  0.00000000000E+00 0.  1.
        -11    1    1    2    0    0 -0.12878049266E+02 -0.45039614940E+01  0.20392916294E+01  0.13794510951E+02  0.00000000000E+00 0. -1.
         11    1    1    2    0    0  0.12878049266E+02  0.45039614940E+01 -0.10355626324E+02  0.17128012687E+02  0.00000000000E+00 0.  1.
<mgrwt>
<rscale>  0 0.29783234E+02</rscale>
<asrwt>0</asrwt>
<pdfrwt beam="2">  1        2 0.30183737E-02 0.29783234E+02</pdfrwt>
<pdfrwt beam="1">  1       -2 0.17389376E-02 0.29783234E+02</pdfrwt>
<totfact> 0.16386895E+06</totfact>
</mgrwt>
</event>
<event>
 4    1  0.2126213E+000  0.4842079E+02  0.7546771E-02  0.1454050E+00
          2   -1    0    0  501    0  0.00000000000E+00  0.00000000000E+00  0.12060718851E+02  0.12060718851E+02  0.00000000000E+00 0.  1.
         -2   -1    0    0    0  501 -0.00000000000E+00 -0.00000000000E+00 -0.48599370023E+02  0.48599370023E+02  0.00000000000E+00 0. -1.
        -13    1    1    2    0    0  0.16995180178E+02 -0.10947980711E+02 -0.15811909620E+01  0.20277933716E+02  0.00000000000E+00 0.  1.
         13    1    1    2    0    0 -0.16995180178E+02  0.10947980711E+02 -0.34957460210E+02  0.40382155159E+02  0.00000000000E+00 0. -1.
<mgrwt>
<rscale>  0 0.48420795E+02</rscale>
<asrwt>0</asrwt>
<pdfrwt beam="1">  1        2 0.18554952E-02 0.48420795E+02</pdfrwt>
<pdfrwt beam="2">  1       -2 0.74768260E-02 0.48420795E+02</pdfrwt>
<totfact> 0.44244318E+05</totfact>
</mgrwt>
</event>
<event>
 4    1  0.2126213E+000  0.2791741E+02  0.7546771E-02  0.1622320E+00
          4   -1    0    0  501    0  0.00000000000E+00  0.00000000000E+00  0.33086185764E+01  0.33086185764E+01  0.00000000000E+00 0.  1.
         -4   -1    0    0    0  501 -0.00000000000E+00 -0.00000000000E+00 -0.58890260779E+02  0.58890260779E+02  0.00000000000E+00 0. -1.
        -11    1    1    2    0    0 -0.47943669323E+01  0.10031494065E+02 -0.89874972045E+01  0.14296570689E+02  0.00000000000E+00 0.  1.
         11    1    1    2    0    0  0.47943669323E+01 -0.10031494065E+02 -0.46594144998E+02  0.47902308666E+02  0.00000000000E+00 0. -1.
<mgrwt>
<rscale>  0 0.27917408E+02</rscale>
<asrwt>0</asrwt>
<pdfrwt beam="1">  1        4 0.50901825E-03 0.27917408E+02</pdfrwt>
<pdfrwt beam="2">  1       -4 0.90600401E-02 0.27917408E+02</pdfrwt>
<totfact> 0.54547265E+05</totfact>
</mgrwt>
</event>
<event>
 4    1  0.2126213E+000  0.2696337E+02  0.7546771E-02  0.1634304E+00
         -2   -1    0    0    0  501 -0.00000000000E+00  0.00000000000E+00  0.13011573596E+02  0.13011573596E+02  0.00000000000E+00 0. -1.
          2   -1    0    0  501    0  0.00000000000E+00 -0.00000000000E+00 -0.13968777772E+02  0.13968777772E+02  0.00000000000E+00 0.  1.
        -11    1    1    2    0    0  0.11299467838E+02 -0.71181241163E+00  0.68452386651E+01  0.13230341746E+02  0.00000000000E+00 0. -1.
         11    1    1    2    0    0 -0.11299467838E+02  0.71181241163E+00 -0.78024428411E+01  0.13750009622E+02  0.00000000000E+00 0.  1.
<mgrwt>
<rscale>  0 0.26963366E+02</rscale>
<asrwt>0</asrwt>
<pdfrwt beam="2">  1        2 0.21490427E-02 0.26963366E+02</pdfrwt>
<pdfrwt beam="1">  1       -2 0.20017806E-02 0.26963366E+02</pdfrwt>
<totfact> 0.20135557E+06</totfact>
</mgrwt>
</event>
<event>
 4    1  0.2126213E+000  0.2561333E+02  0.7546771E-02  0.1652346E+00
          2   -1    0    0  501    0  0.00000000000E+00  0.00000000000E+00  0.42328025160E+01  0.42328025160E+01  0.00000000000E+00 0. -1.
         -2   -1    0    0    0  501 -0.00000000000E+00 -0.00000000000E+00 -0.38747538841E+02  0.38747538841E+02  0.00000000000E+00 0.  1.
        -13    1    1    2    0    0 -0.93517235700E+01  0.72551961091E+01 -0.90506991645E+01  0.14899924821E+02  0.00000000000E+00 0.  1.
         13    1    1    2    0    0  0.93517235700E+01 -0.72551961091E+01 -0.25464037161E+02  0.28080416536E+02  0.00000000000E+00 0. -1.
<mgrwt>
<rscale>  0 0.25613331E+02</rscale>
<asrwt>0</asrwt>
<pdfrwt beam="1">  1        2 0.65120040E-03 0.25613331E+02</pdfrwt>
<pdfrwt beam="2">  1       -2 0.59611597E-02 0.25613331E+02</pdfrwt>
<totfact> 0.20222721E+06</totfact>
</mgrwt>
</event>
<event>
 4    1  0.2126213E+000  0.2649623E+02  0.7546771E-02  0.1640397E+00
          1   -1    0    0  501    0  0.00000000000E+00  0.00000000000E+00  0.28171475603E+01  0.28171475603E+01  0.00000000000E+00 0. -1.
         -1   -1    0    0    0  501 -0.00000000000E+00 -0.00000000000E+00 -0.62301530285E+02  0.62301530285E+02  0.00000000000E+00 0.  1.
        -13    1    1    2    0    0 -0.54747021115E+01  0.11262436080E+02 -0.19115051870E+02  0.22851696604E+02  0.00000000000E+00 0. -1.
         13    1    1    2    0    0  0.54747021115E+01 -0.11262436080E+02 -0.40369330855E+02  0.42266981242E+02  0.00000000000E+00 0.  1.
<mgrwt>
<rscale>  0 0.26496234E+02</rscale>
<asrwt>0</asrwt>
<pdfrwt beam="1">  1        1 0.43340740E-03 0.26496234E+02</pdfrwt>
<pdfrwt beam="2">  1       -1 0.95848491E-02 0.26496234E+02</pdfrwt>
<totfact> 0.18117425E+06</totfact>
</mgrwt>
</event>
<event>
 4    1  0.2126213E+000  0.2701645E+02  0.7546771E-02  0.1633621E+00
         -1   -1    0    0    0  501 -0.00000000000E+00  0.00000000000E+00  0.95969598866E+01  0.95969598866E+01  0.00000000000E+00 0. -1.
          1   -1    0    0  501    0  0.00000000000E+00 -0.00000000000E+00 -0.19013538555E+02  0.19013538555E+02  0.00000000000E+00 0.  1.
        -13    1    1    2    0    0 -0.13389646612E+02  0.17838054549E+01 -0.48004197124E+01  0.14335572109E+02  0.00000000000E+00 0. -1.
         13    1    1    2    0    0  0.13389646612E+02 -0.17838054549E+01 -0.46161589564E+01  0.14274926333E+02  0.00000000000E+00 0.  1.
<mgrwt>
<rscale>  0 0.27016452E+02</rscale>
<asrwt>0</asrwt>
<pdfrwt beam="2">  1        1 0.29251597E-02 0.27016452E+02</pdfrwt>
<pdfrwt beam="1">  1       -1 0.14764554E-02 0.27016452E+02</pdfrwt>
<totfact> 0.19799916E+06</totfact>
</mgrwt>
</event>
<event>
 4    1  0.2126213E+000  0.3540593E+02  0.7546771E-02  0.1545025E+00
         -4   -1    0    0    0  501 -0.00000000000E+00  0.00000000000E+00  0.17796737148E+03  0.17796737148E+03  0.00000000000E+00 0.  1.
          4   -1    0    0  501    0  0.00000000000E+00 -0.00000000000E+00 -0.17609682741E+01  0.17609682741E+01  0.00000000000E+00 0. -1.
        -13    1    1    2    0    0  0.13825003079E+02  0.11031981202E+02  0.84305944488E+02  0.86141323390E+02  0.00000000000E+00 0.  1.
         13    1    1    2    0    0 -0.13825003079E+02 -0.11031981202E+02  0.91900458723E+02  0.93587016369E+02  0.00000000000E+00 0. -1.
<mgrwt>
<rscale>  0 0.35405926E+02</rscale>
<asrwt>0</asrwt>
<pdfrwt beam="2">  1        4 0.27091834E-03 0.35405926E+02</pdfrwt>
<pdfrwt beam="1">  1       -4 0.27379581E-01 0.35405926E+02</pdfrwt>
<totfact> 0.23498588E+05</totfact>
</mgrwt>
</event>
<event>
 4    1  0.2126213E+000  0.4228515E+02  0.7546771E-02  0.1492038E+00
         -2   -1    0    0    0  501 -0.00000000000E+00  0.00000000000E+00  0.53064372002E+02  0.53064372002E+02  0.00000000000E+00 0. -1.
          2   -1    0    0  501    0  0.00000000000E+00 -0.00000000000E+00 -0.84238910519E+01  0.84238910519E+01  0.00000000000E+00 0.  1.
        -13    1    1    2    0    0  0.67960389000E+01 -0.19149688763E+02  0.30813148754E+02  0.36909983210E+02  0.00000000000E+00 0. -1.
         13    1    1    2    0    0 -0.67960389000E+01  0.19149688763E+02  0.13827332197E+02  0.24578279844E+02  0.00000000000E+00 0.  1.
<mgrwt>
<rscale>  0 0.42285151E+02</rscale>
<asrwt>0</asrwt>
<pdfrwt beam="2">  1        2 0.12959833E-02 0.42285151E+02</pdfrwt>
<pdfrwt beam="1">  1       -2 0.81637494E-02 0.42285151E+02</pdfrwt>
<totfact> 0.60258887E+05</totfact>
</mgrwt>
</event>
<event>
 4    1  0.2126213E+000  0.2662094E+02  0.7546771E-02  0.1638755E+00
         -2   -1    0    0    0  501 -0.00000000000E+00  0.00000000000E+00  0.71807940502E+01  0.71807940502E+01  0.00000000000E+00 0.  1.
          2   -1    0    0  501    0  0.00000000000E+00 -0.00000000000E+00 -0.24672559677E+02  0.24672559677E+02  0.00000000000E+00 0. -1.
        -11    1    1    2    0    0  0.98605800885E+01 -0.88558356178E+01 -0.72747040920E+01  0.15118802327E+02  0.00000000000E+00 0. -1.
         11    1    1    2    0    0 -0.98605800885E+01  0.88558356178E+01 -0.10217061535E+02  0.16734551401E+02  0.00000000000E+00 0.  1.
<mgrwt>
<rscale>  0 0.26620937E+02</rscale>
<asrwt>0</asrwt>
<pdfrwt beam="2">  1        2 0.37957785E-02 0.26620937E+02</pdfrwt>
<pdfrwt beam="1">  1       -2 0.11047375E-02 0.26620937E+02</pdfrwt>
<totfact> 0.21969105E+06</totfact>
</mgrwt>
</event>
<event>
 4    1  0.2126213E+000  0.2100688E+02  0.7546771E-02  0.1726016E+00
          2   -1    0    0  501    0  0.00000000000E+00  0.00000000000E+00  0.10148446655E+03  0.10148446655E+03  0.00000000000E+00 0. -1.
         -2   -1    0    0    0  501 -0.00000000000E+00 -0.00000000000E+00 -0.10870848874E+01  0.10870848874E+01  0.00000000000E+00 0.  1.
        -13    1    1    2    0    0 -0.44696503438E+01  0.94634906641E+01  0.54529785038E+02  0.55525065385E+02  0.00000000000E+00 0. -1.
         13    1    1    2    0    0  0.44696503438E+01 -0.94634906641E+01  0.45867596624E+02  0.47046486051E+02  0.00000000000E+00 0.  1.
<mgrwt>
<rscale>  0 0.21006878E+02</rscale>
<asrwt>0</asrwt>
<pdfrwt beam="1">  1        2 0.15612987E-01 0.21006878E+02</pdfrwt>
<pdfrwt beam="2">  1       -2 0.16724391E-03 0.21006878E+02</pdfrwt>
<totfact> 0.47476421E+06</totfact>
</mgrwt>
</event>
<event>
 4    1  0.2126213E+000  0.2091027E+02  0.7546771E-02  0.1727809E+00
         -2   -1    0    0    0  501 -0.00000000000E+00  0.00000000000E+00  0.89257713949E+01  0.89257713949E+01  0.00000000000E+00 0.  1.
          2   -1    0    0  501    0  0.00000000000E+00 -0.00000000000E+00 -0.12246546425E+02  0.12246546425E+02  0.00000000000E+00 0. -1.
        -11    1    1    2    0    0 -0.18998787255E+01 -0.10235811491E+02 -0.26360489369E+01  0.10739186656E+02  0.00000000000E+00 0. -1.
         11    1    1    2    0    0  0.18998787255E+01  0.10235811491E+02 -0.68472609283E+00  0.10433131163E+02  0.00000000000E+00 0.  1.
<mgrwt>
<rscale>  0 0.20910272E+02</rscale>
<asrwt>0</asrwt>
<pdfrwt beam="2">  1        2 0.18840841E-02 0.20910272E+02</pdfrwt>
<pdfrwt beam="1">  1       -2 0.13731956E-02 0.20910272E+02</pdfrwt>
<totfact> 0.36182858E+06</totfact>
</mgrwt>
</event>
<event>
 4    1  0.2126213E+000  0.3684490E+02  0.7546771E-02  0.1532802E+00
          2   -1    0    0  501    0  0.00000000000E+00  0.00000000000E+00  0.67946434310E+02  0.67946434310E+02  0.00000000000E+00 0. -1.
         -2   -1    0    0    0  501 -0.00000000000E+00 -0.00000000000E+00 -0.49949158737E+01  0.49949158737E+01  0.00000000000E+00 0.  1.
        -11    1    1    2    0    0 -0.41767629883E+01  0.11558649576E+02  0.43072066592E+01  0.13023047196E+02  0.00000000000E+00 0.  1.
         11    1    1    2    0    0  0.41767629883E+01 -0.11558649576E+02  0.58644311777E+02  0.59918302988E+02  0.00000000000E+00 0. -1.
<mgrwt>
<rscale>  0 0.36844903E+02</rscale>
<asrwt>0</asrwt>
<pdfrwt beam="1">  1        2 0.10453297E-01 0.36844903E+02</pdfrwt>
<pdfrwt beam="2">  1       -2 0.76844865E-03 0.36844903E+02</pdfrwt>
<totfact> 0.11709249E+06</totfact>
</mgrwt>
</event>
<event>
 4    1  0.2126213E+000  0.1924088E+03  0.7546771E-02  0.1156307E+00
          2   -1    0    0  501    0  0.00000000000E+00  0.00000000000E+00  0.41412588112E+02  0.41412588112E+02  0.00000000000E+00 0. -1.
         -2   -1    0    0    0  501 -0.00000000000E+00 -0.00000000000E+00 -0.22348963388E+03  0.22348963388E+03  0.00000000000E+00 0.  1.
        -13    1    1    2    0    0 -0.50520567854E+02  0.53994189752E+02 -0.17576942985E+03  0.19068978151E+03  0.00000000000E+00 0.  1.
         13    1    1    2    0    0  0.50520567854E+02 -0.53994189752E+02 -0.63076159162E+01  0.74212440479E+02  0.00000000000E+00 0. -1.
<mgrwt>
<rscale>  0 0.19240877E+03</rscale>
<asrwt>0</asrwt>
<pdfrwt beam="1">  1        2 0.63711674E-02 0.19240877E+03</pdfrwt>
<pdfrwt beam="2">  1       -2 0.34383020E-01 0.19240877E+03</pdfrwt>
<totfact> 0.87732793E+03</totfact>
</mgrwt>
</event>
<event>
 4    1  0.2126213E+000  0.3496887E+02  0.7546771E-02  0.1548877E+00
          2   -1    0    0  501    0  0.00000000000E+00  0.00000000000E+00  0.56857654756E+02  0.56857654756E+02  0.00000000000E+00 0. -1.
         -2   -1    0    0    0  501 -0.00000000000E+00 -0.00000000000E+00 -0.53766809246E+01  0.53766809246E+01  0.00000000000E+00 0.  1.
        -11    1    1    2    0    0  0.10913569313E+02  0.13325401836E+02  0.20391546088E+02  0.26692461129E+02  0.00000000000E+00 0. -1.
         11    1    1    2    0    0 -0.10913569313E+02 -0.13325401836E+02  0.31089427743E+02  0.35541874552E+02  0.00000000000E+00 0.  1.
<mgrwt>
<rscale>  0 0.34968870E+02</rscale>
<asrwt>0</asrwt>
<pdfrwt beam="1">  1        2 0.87473311E-02 0.34968870E+02</pdfrwt>
<pdfrwt beam="2">  1       -2 0.82718172E-03 0.34968870E+02</pdfrwt>
<totfact> 0.12853238E+06</totfact>
</mgrwt>
</event>
<event>
 4    1  0.2126213E+000  0.4352856E+02  0.7546771E-02  0.1483742E+00
          2   -1    0    0  501    0  0.00000000000E+00  0.00000000000E+00  0.42434361708E+02  0.42434361708E+02  0.00000000000E+00 0.  1.
         -2   -1    0    0    0  501 -0.00000000000E+00 -0.00000000000E+00 -0.11162744075E+02  0.11162744075E+02  0.00000000000E+00 0. -1.
        -13    1    1    2    0    0  0.15657859841E+02  0.24705970555E+01  0.33998893491E+02  0.37512626984E+02  0.00000000000E+00 0.  1.
         13    1    1    2    0    0 -0.15657859841E+02 -0.24705970555E+01 -0.27272758578E+01  0.16084478799E+02  0.00000000000E+00 0. -1.
<mgrwt>
<rscale>  0 0.43528562E+02</rscale>
<asrwt>0</asrwt>
<pdfrwt beam="1">  1        2 0.65283633E-02 0.43528562E+02</pdfrwt>
<pdfrwt beam="2">  1       -2 0.17173453E-02 0.43528562E+02</pdfrwt>
<totfact> 0.70958929E+05</totfact>
</mgrwt>
</event>
<event>
 4    1  0.2126213E+000  0.2563913E+02  0.7546771E-02  0.1651988E+00
          2   -1    0    0  501    0  0.00000000000E+00  0.00000000000E+00  0.72622240764E+01  0.72622240764E+01  0.00000000000E+00 0. -1.
         -2   -1    0    0    0  501 -0.00000000000E+00 -0.00000000000E+00 -0.22629607685E+02  0.22629607685E+02  0.00000000000E+00 0.  1.
        -13    1    1    2    0    0  0.12045174688E+02  0.42366135334E+01 -0.63512555684E+01  0.14260910728E+02  0.00000000000E+00 0. -1.
         13    1    1    2    0    0 -0.12045174688E+02 -0.42366135334E+01 -0.90161280397E+01  0.15630921033E+02  0.00000000000E+00 0.  1.
<mgrwt>
<rscale>  0 0.25639133E+02</rscale>
<asrwt>0</asrwt>
<pdfrwt beam="1">  1        2 0.11172653E-02 0.25639133E+02</pdfrwt>
<pdfrwt beam="2">  1       -2 0.34814780E-02 0.25639133E+02</pdfrwt>
<totfact> 0.21392707E+06</totfact>
</mgrwt>
</event>
<event>
 4    1  0.2126213E+000  0.2298731E+02  0.7546771E-02  0.1691716E+00
          3   -1    0    0  501    0  0.00000000000E+00  0.00000000000E+00  0.45768194457E+02  0.45768194457E+02  0.00000000000E+00 0. -1.
         -3   -1    0    0    0  501 -0.00000000000E+00 -0.00000000000E+00 -0.28863736557E+01  0.28863736557E+01  0.00000000000E+00 0.  1.
        -13    1    1    2    0    0  0.42233930466E+01 -0.10284719378E+02  0.27608712925E+02  0.29763291668E+02  0.00000000000E+00 0. -1.
         13    1    1    2    0    0 -0.42233930466E+01  0.10284719378E+02  0.15273107876E+02  0.18891276444E+02  0.00000000000E+00 0.  1.
<mgrwt>
<rscale>  0 0.22987310E+02</rscale>
<asrwt>0</asrwt>
<pdfrwt beam="1">  1        3 0.70412602E-02 0.22987310E+02</pdfrwt>
<pdfrwt beam="2">  1       -3 0.44405752E-03 0.22987310E+02</pdfrwt>
<totfact> 0.12007334E+06</totfact>
</mgrwt>
</event>
<event>
 4    1  0.2126213E+000  0.4682623E+02  0.7546771E-02  0.1463253E+00
          2   -1    0    0  501    0  0.00000000000E+00  0.00000000000E+00  0.66640492262E+02  0.66640492262E+02  0.00000000000E+00 0.  1.
         -2   -1    0    0    0  501 -0.00000000000E+00 -0.00000000000E+00 -0.82258405919E+01  0.82258405919E+01  0.00000000000E+00 0. -1.
        -13    1    1    2    0    0  0.19606655545E+02  0.77344019369E+01  0.45506750720E+02  0.50150835248E+02  0.00000000000E+00 0.  1.
         13    1    1    2    0    0 -0.19606655545E+02 -0.77344019369E+01  0.12907900950E+02  0.24715497606E+02  0.00000000000E+00 0. -1.
<mgrwt>
<rscale>  0 0.46826235E+02</rscale>
<asrwt>0</asrwt>
<pdfrwt beam="1">  1        2 0.10252383E-01 0.46826235E+02</pdfrwt>
<pdfrwt beam="2">  1       -2 0.12655140E-02 0.46826235E+02</pdfrwt>
<totfact> 0.64234240E+05</totfact>
</mgrwt>
</event>
<event>
 4    1  0.2126213E+000  0.2964411E+02  0.7546771E-02  0.1602056E+00
         -1   -1    0    0    0  501 -0.00000000000E+00  0.00000000000E+00  0.11038103540E+02  0.11038103540E+02  0.00000000000E+00 0.  1.
          1   -1    0    0  501    0  0.00000000000E+00 -0.00000000000E+00 -0.19903175726E+02  0.19903175726E+02  0.00000000000E+00 0. -1.
        -11    1    1    2    0    0 -0.14472120559E+02 -0.19744137124E+01 -0.70632892364E+01  0.16224384050E+02  0.00000000000E+00 0. -1.
         11    1    1    2    0    0  0.14472120559E+02  0.19744137124E+01 -0.18017829493E+01  0.14716895215E+02  0.00000000000E+00 0.  1.
<mgrwt>
<rscale>  0 0.29644110E+02</rscale>
<asrwt>0</asrwt>
<pdfrwt beam="2">  1        1 0.30620270E-02 0.29644110E+02</pdfrwt>
<pdfrwt beam="1">  1       -1 0.16981698E-02 0.29644110E+02</pdfrwt>
<totfact> 0.15910537E+06</totfact>
</mgrwt>
</event>
<event>
 4    1  0.2126213E+000  0.2144001E+02  0.7546771E-02  0.1718121E+00
          1   -1    0    0  501    0  0.00000000000E+00  0.00000000000E+00  0.29928271964E+01  0.29928271964E+01  0.00000000000E+00 0.  1.
         -1   -1    0    0    0  501 -0.00000000000E+00 -0.00000000000E+00 -0.38397974723E+02  0.38397974723E+02  0.00000000000E+00 0. -1.
        -13    1    1    2    0    0  0.10686450564E+02 -0.77868632040E+00 -0.18348439720E+02  0.21247866204E+02  0.00000000000E+00 0.  1.
         13    1    1    2    0    0 -0.10686450564E+02  0.77868632040E+00 -0.17056707806E+02  0.20142935715E+02  0.00000000000E+00 0. -1.
<mgrwt>
<rscale>  0 0.21440010E+02</rscale>
<asrwt>0</asrwt>
<pdfrwt beam="1">  1        1 0.46043499E-03 0.21440010E+02</pdfrwt>
<pdfrwt beam="2">  1       -1 0.59073803E-02 0.21440010E+02</pdfrwt>
<totfact> 0.30688471E+06</totfact>
</mgrwt>
</event>
<event>
 4    1  0.2126213E+000  0.3957696E+02  0.7546771E-02  0.1511348E+00
          1   -1    0    0  501    0  0.00000000000E+00  0.00000000000E+00  0.20961058252E+02  0.20961058252E+02  0.00000000000E+00 0. -1.
         -1   -1    0    0    0  501 -0.00000000000E+00 -0.00000000000E+00 -0.18681497437E+02  0.18681497437E+02  0.00000000000E+00 0.  1.
        -11    1    1    2    0    0  0.13127326096E+02  0.39437752574E+01  0.15435923251E+02  0.20643347120E+02  0.00000000000E+00 0. -1.
         11    1    1    2    0    0 -0.13127326096E+02 -0.39437752574E+01 -0.13156362436E+02  0.18999208569E+02  0.00000000000E+00 0.  1.
<mgrwt>
<rscale>  0 0.39576961E+02</rscale>
<asrwt>0</asrwt>
<pdfrwt beam="1">  1        1 0.32247782E-02 0.39576961E+02</pdfrwt>
<pdfrwt beam="2">  1       -1 0.28740765E-02 0.39576961E+02</pdfrwt>
<totfact> 0.78426975E+05</totfact>
</mgrwt>
</event>
<event>
 4    1  0.2126213E+000  0.2392661E+02  0.7546771E-02  0.1676916E+00
          1   -1    0    0  501    0  0.00000000000E+00  0.00000000000E+00  0.28824007304E+01  0.28824007304E+01  0.00000000000E+00 0.  1.
         -1   -1    0    0    0  501 -0.00000000000E+00 -0.00000000000E+00 -0.49653304898E+02  0.49653304898E+02  0.00000000000E+00 0. -1.
        -11    1    1    2    0    0 -0.63291270651E+01 -0.92378959486E+01 -0.14141535042E+02  0.18038281080E+02  0.00000000000E+00 0.  1.
         11    1    1    2    0    0  0.63291270651E+01  0.92378959486E+01 -0.32629369125E+02  0.34497424548E+02  0.00000000000E+00 0. -1.
<mgrwt>
<rscale>  0 0.23926615E+02</rscale>
<asrwt>0</asrwt>
<pdfrwt beam="1">  1        1 0.44344627E-03 0.23926615E+02</pdfrwt>
<pdfrwt beam="2">  1       -1 0.76389700E-02 0.23926615E+02</pdfrwt>
<totfact> 0.23430675E+06</totfact>
</mgrwt>
</event>
<event>
 4    1  0.2126213E+000  0.4988170E+02  0.7546771E-02  0.1445981E+00
         -2   -1    0    0    0  501 -0.00000000000E+00  0.00000000000E+00  0.31313187737E+02  0.31313187737E+02  0.00000000000E+00 0. -1.
          2   -1    0    0  501    0  0.00000000000E+00 -0.00000000000E+00 -0.19865304528E+02  0.19865304528E+02  0.00000000000E+00 0.  1.
        -13    1    1    2    0    0 -0.18200078471E+02 -0.28129659219E+01 -0.11532662034E+02  0.21729195273E+02  0.00000000000E+00 0.  1.
         13    1    1    2    0    0  0.18200078471E+02  0.28129659219E+01  0.22980545243E+02  0.29449296991E+02  0.00000000000E+00 0. -1.
<mgrwt>
<rscale>  0 0.49881700E+02</rscale>
<asrwt>0</asrwt>
<pdfrwt beam="2">  1        2 0.30562007E-02 0.49881700E+02</pdfrwt>
<pdfrwt beam="1">  1       -2 0.48174135E-02 0.49881700E+02</pdfrwt>
<totfact> 0.44265867E+05</totfact>
</mgrwt>
</event>
<event>
 4    1  0.2126213E+000  0.3120671E+02  0.7546771E-02  0.1585121E+00
         -2   -1    0    0    0  501 -0.00000000000E+00  0.00000000000E+00  0.55581041452E+01  0.55581041452E+01  0.00000000000E+00 0.  1.
          2   -1    0    0  501    0  0.00000000000E+00 -0.00000000000E+00 -0.43803562669E+02  0.43803562669E+02  0.00000000000E+00 0. -1.
        -13    1    1    2    0    0  0.25585020066E+01 -0.13731925420E+02 -0.30121742443E+02  0.33202877527E+02  0.00000000000E+00 0. -1.
         13    1    1    2    0    0 -0.25585020066E+01  0.13731925420E+02 -0.81237160806E+01  0.16158789287E+02  0.00000000000E+00 0.  1.
<mgrwt>
<rscale>  0 0.31206715E+02</rscale>
<asrwt>0</asrwt>
<pdfrwt beam="2">  1        2 0.67390098E-02 0.31206715E+02</pdfrwt>
<pdfrwt beam="1">  1       -2 0.85509292E-03 0.31206715E+02</pdfrwt>
<totfact> 0.16201277E+06</totfact>
</mgrwt>
</event>
<event>
 4    1  0.2126213E+000  0.2986612E+02  0.7546771E-02  0.1599573E+00
         -2   -1    0    0    0  501 -0.00000000000E+00  0.00000000000E+00  0.21209902308E+02  0.21209902308E+02  0.00000000000E+00 0. -1.
          2   -1    0    0  501    0  0.00000000000E+00 -0.00000000000E+00 -0.10513780244E+02  0.10513780244E+02  0.00000000000E+00 0.  1.
        -11    1    1    2    0    0  0.11435540522E+01  0.11415138656E+02  0.15502077637E+02  0.19285422409E+02  0.00000000000E+00 0. -1.
         11    1    1    2    0    0 -0.11435540522E+01 -0.11415138656E+02 -0.48059555731E+01  0.12438260143E+02  0.00000000000E+00 0.  1.
<mgrwt>
<rscale>  0 0.29866118E+02</rscale>
<asrwt>0</asrwt>
<pdfrwt beam="2">  1        2 0.16175047E-02 0.29866118E+02</pdfrwt>
<pdfrwt beam="1">  1       -2 0.32630619E-02 0.29866118E+02</pdfrwt>
<totfact> 0.15263210E+06</totfact>
</mgrwt>
</event>
<event>
 4    1  0.2126213E+000  0.7483246E+02  0.7546771E-02  0.1344391E+00
          4   -1    0    0  501    0  0.00000000000E+00  0.00000000000E+00  0.11500394338E+03  0.11500394338E+03  0.00000000000E+00 0. -1.
         -4   -1    0    0    0  501 -0.00000000000E+00 -0.00000000000E+00 -0.12173272784E+02  0.12173272784E+02  0.00000000000E+00 0.  1.
        -11    1    1    2    0    0 -0.18367499434E+02  0.62522635797E+00  0.10680467550E+03  0.10837432653E+03  0.00000000000E+00 0. -1.
         11    1    1    2    0    0  0.18367499434E+02 -0.62522635797E+00 -0.39740049028E+01  0.18802889630E+02  0.00000000000E+00 0.  1.
<mgrwt>
<rscale>  0 0.74832463E+02</rscale>
<asrwt>0</asrwt>
<pdfrwt beam="1">  1        4 0.17692914E-01 0.74832463E+02</pdfrwt>
<pdfrwt beam="2">  1       -4 0.18728113E-02 0.74832463E+02</pdfrwt>
<totfact> 0.42058901E+04</totfact>
</mgrwt>
</event>
<event>
 4    1  0.2126213E+000  0.2854962E+02  0.7546771E-02  0.1614697E+00
          2   -1    0    0  501    0  0.00000000000E+00  0.00000000000E+00  0.19140048987E+02  0.19140048987E+02  0.00000000000E+00 0.  1.
         -2   -1    0    0    0  501 -0.00000000000E+00 -0.00000000000E+00 -0.10646275163E+02  0.10646275163E+02  0.00000000000E+00 0. -1.
        -13    1    1    2    0    0 -0.11108366333E+02 -0.19987678677E+01  0.13364990804E+02  0.17493251692E+02  0.00000000000E+00 0.  1.
         13    1    1    2    0    0  0.11108366333E+02  0.19987678677E+01 -0.48712169802E+01  0.12293072458E+02  0.00000000000E+00 0. -1.
<mgrwt>
<rscale>  0 0.28549622E+02</rscale>
<asrwt>0</asrwt>
<pdfrwt beam="1">  1        2 0.29446229E-02 0.28549622E+02</pdfrwt>
<pdfrwt beam="2">  1       -2 0.16378885E-02 0.28549622E+02</pdfrwt>
<totfact> 0.18101973E+06</totfact>
</mgrwt>
</event>
<event>
 4    1  0.2126213E+000  0.2045886E+02  0.7546771E-02  0.1736354E+00
          2   -1    0    0  501    0  0.00000000000E+00  0.00000000000E+00  0.17035361746E+01  0.17035361746E+01  0.00000000000E+00 0. -1.
         -2   -1    0    0    0  501 -0.00000000000E+00 -0.00000000000E+00 -0.61425920783E+02  0.61425920783E+02  0.00000000000E+00 0.  1.
        -11    1    1    2    0    0 -0.22708103642E+01 -0.99467841417E+01 -0.32141638778E+02  0.33722100139E+02  0.00000000000E+00 0.  1.
         11    1    1    2    0    0  0.22708103642E+01  0.99467841417E+01 -0.27580745830E+02  0.29407356818E+02  0.00000000000E+00 0. -1.
<mgrwt>
<rscale>  0 0.20458864E+02</rscale>
<asrwt>0</asrwt>
<pdfrwt beam="1">  1        2 0.26208254E-03 0.20458864E+02</pdfrwt>
<pdfrwt beam="2">  1       -2 0.94501399E-02 0.20458864E+02</pdfrwt>
<totfact> 0.31240429E+06</totfact>
</mgrwt>
</event>
<event>
 4    1  0.2126213E+000  0.2170680E+02  0.7546771E-02  0.1713373E+00
          4   -1    0    0  501    0  0.00000000000E+00  0.00000000000E+00  0.90101284024E+01  0.90101284024E+01  0.00000000000E+00 0.  1.
         -4   -1    0    0    0  501 -0.00000000000E+00 -0.00000000000E+00 -0.13073758250E+02  0.13073758250E+02  0.00000000000E+00 0. -1.
        -13    1    1    2    0    0 -0.10150369419E+02  0.38259254921E+01 -0.16670685087E+01  0.10974826770E+02  0.00000000000E+00 0.  1.
         13    1    1    2    0    0  0.10150369419E+02 -0.38259254921E+01 -0.23965613393E+01  0.11109059883E+02  0.00000000000E+00 0. -1.
<mgrwt>
<rscale>  0 0.21706795E+02</rscale>
<asrwt>0</asrwt>
<pdfrwt beam="1">  1        4 0.13861736E-02 0.21706795E+02</pdfrwt>
<pdfrwt beam="2">  1       -4 0.20113474E-02 0.21706795E+02</pdfrwt>
<totfact> 0.10880480E+06</totfact>
</mgrwt>
</event>
<event>
 4    1  0.2126213E+000  0.3104190E+02  0.7546771E-02  0.1586849E+00
         -2   -1    0    0    0  501 -0.00000000000E+00  0.00000000000E+00  0.41854504493E+02  0.41854504493E+02  0.00000000000E+00 0.  1.
          2   -1    0    0  501    0  0.00000000000E+00 -0.00000000000E+00 -0.57556486202E+01  0.57556486202E+01  0.00000000000E+00 0. -1.
        -13    1    1    2    0    0 -0.13512097987E+02 -0.56460688369E+01  0.25936623362E+02  0.29785286917E+02  0.00000000000E+00 0.  1.
         13    1    1    2    0    0  0.13512097987E+02  0.56460688369E+01  0.10162232511E+02  0.17824866196E+02  0.00000000000E+00 0. -1.
<mgrwt>
<rscale>  0 0.31041896E+02</rscale>
<asrwt>0</asrwt>
<pdfrwt beam="2">  1        2 0.88548443E-03 0.31041896E+02</pdfrwt>
<pdfrwt beam="1">  1       -2 0.64391543E-02 0.31041896E+02</pdfrwt>
<totfact> 0.12902519E+06</totfact>
</mgrwt>
</event>
<event>
 4    1  0.2126213E+000  0.2412637E+02  0.7546771E-02  0.1673877E+00
         -4   -1    0    0    0  501 -0.00000000000E+00  0.00000000000E+00  0.21218561176E+01  0.21218561176E+01  0.00000000000E+00 0. -1.
          4   -1    0    0  501    0  0.00000000000E+00 -0.00000000000E+00 -0.68581664269E+02  0.68581664269E+02  0.00000000000E+00 0.  1.
        -13    1    1    2    0    0  0.56649587550E-01  0.12038124246E+02 -0.35501371788E+02  0.37486891620E+02  0.00000000000E+00 0. -1.
         13    1    1    2    0    0 -0.56649587550E-01 -0.12038124246E+02 -0.30958436364E+02  0.33216628767E+02  0.00000000000E+00 0.  1.
<mgrwt>
<rscale>  0 0.24126369E+02</rscale>
<asrwt>0</asrwt>
<pdfrwt beam="2">  1        4 0.10551024E-01 0.24126369E+02</pdfrwt>
<pdfrwt beam="1">  1       -4 0.32643946E-03 0.24126369E+02</pdfrwt>
<totfact> 0.72792589E+05</totfact>
</mgrwt>
</event>
<event>
 4    1  0.2126213E+000  0.2405616E+02  0.7546771E-02  0.1674941E+00
         -2   -1    0    0    0  501 -0.00000000000E+00  0.00000000000E+00  0.26940236434E+02  0.26940236434E+02  0.00000000000E+00 0. -1.
          2   -1    0    0  501    0  0.00000000000E+00 -0.00000000000E+00 -0.53702090592E+01  0.53702090592E+01  0.00000000000E+00 0.  1.
        -13    1    1    2    0    0  0.29377761825E+01  0.11133498779E+02  0.61149949062E+01  0.13037579786E+02  0.00000000000E+00 0.  1.
         13    1    1    2    0    0 -0.29377761825E+01 -0.11133498779E+02  0.15455032468E+02  0.19272865707E+02  0.00000000000E+00 0. -1.
<mgrwt>
<rscale>  0 0.24056159E+02</rscale>
<asrwt>0</asrwt>
<pdfrwt beam="2">  1        2 0.82618602E-03 0.24056159E+02</pdfrwt>
<pdfrwt beam="1">  1       -2 0.41446517E-02 0.24056159E+02</pdfrwt>
<totfact> 0.24251292E+06</totfact>
</mgrwt>
</event>
<event>
 4    1  0.2126213E+000  0.4745055E+02  0.7546771E-02  0.1459599E+00
         -2   -1    0    0    0  501 -0.00000000000E+00  0.00000000000E+00  0.20277656746E+02  0.20277656746E+02  0.00000000000E+00 0. -1.
          2   -1    0    0  501    0  0.00000000000E+00 -0.00000000000E+00 -0.27759055549E+02  0.27759055549E+02  0.00000000000E+00 0.  1.
        -11    1    1    2    0    0  0.17285368393E+02  0.68249173725E+01  0.11190228025E+02  0.21692963396E+02  0.00000000000E+00 0.  1.
         11    1    1    2    0    0 -0.17285368393E+02 -0.68249173725E+01 -0.18671626828E+02  0.26343748899E+02  0.00000000000E+00 0. -1.
<mgrwt>
<rscale>  0 0.47450547E+02</rscale>
<asrwt>0</asrwt>
<pdfrwt beam="2">  1        2 0.42706239E-02 0.47450547E+02</pdfrwt>
<pdfrwt beam="1">  1       -2 0.31196395E-02 0.47450547E+02</pdfrwt>
<totfact> 0.53157492E+05</totfact>
</mgrwt>
</event>
<event>
 4    1  0.2126213E+000  0.2338043E+02  0.7546771E-02  0.1685417E+00
          1   -1    0    0  501    0  0.00000000000E+00  0.00000000000E+00  0.15610439679E+02  0.15610439679E+02  0.00000000000E+00 0.  1.
         -1   -1    0    0    0  501 -0.00000000000E+00 -0.00000000000E+00 -0.87544732844E+01  0.87544732844E+01  0.00000000000E+00 0. -1.
        -13    1    1    2    0    0 -0.23203683574E+01 -0.97776901077E+01 -0.27962699031E+01  0.10431033435E+02  0.00000000000E+00 0. -1.
         13    1    1    2    0    0  0.23203683574E+01  0.97776901077E+01  0.96522362973E+01  0.13933879528E+02  0.00000000000E+00 0.  1.
<mgrwt>
<rscale>  0 0.23380434E+02</rscale>
<asrwt>0</asrwt>
<pdfrwt beam="1">  1        1 0.24016061E-02 0.23380434E+02</pdfrwt>
<pdfrwt beam="2">  1       -1 0.13468420E-02 0.23380434E+02</pdfrwt>
<totfact> 0.27512762E+06</totfact>
</mgrwt>
</event>
<event>
 4    1  0.2126213E+000  0.2500354E+02  0.7546771E-02  0.1660951E+00
          4   -1    0    0  501    0  0.00000000000E+00  0.00000000000E+00  0.34843426566E+02  0.34843426566E+02  0.00000000000E+00 0. -1.
         -4   -1    0    0    0  501 -0.00000000000E+00 -0.00000000000E+00 -0.44856158056E+01  0.44856158056E+01  0.00000000000E+00 0.  1.
        -13    1    1    2    0    0 -0.67633673841E+01 -0.99445917155E+01  0.20549100600E+02  0.23809737047E+02  0.00000000000E+00 0. -1.
         13    1    1    2    0    0  0.67633673841E+01  0.99445917155E+01  0.98087101604E+01  0.15519305325E+02  0.00000000000E+00 0.  1.
<mgrwt>
<rscale>  0 0.25003538E+02</rscale>
<asrwt>0</asrwt>
<pdfrwt beam="1">  1        4 0.53605270E-02 0.25003538E+02</pdfrwt>
<pdfrwt beam="2">  1       -4 0.69009476E-03 0.25003538E+02</pdfrwt>
<totfact> 0.75123227E+05</totfact>
</mgrwt>
</event>
<event>
 4    1  0.2126213E+000  0.2307933E+02  0.7546771E-02  0.1690227E+00
         -1   -1    0    0    0  501 -0.00000000000E+00  0.00000000000E+00  0.16661110749E+01  0.16661110749E+01  0.00000000000E+00 0. -1.
          1   -1    0    0  501    0  0.00000000000E+00 -0.00000000000E+00 -0.79924977272E+02  0.79924977272E+02  0.00000000000E+00 0.  1.
        -13    1    1    2    0    0 -0.32562011679E+01 -0.11069909864E+02 -0.38653297796E+02  0.40338854482E+02  0.00000000000E+00 0.  1.
         13    1    1    2    0    0  0.32562011679E+01  0.11069909864E+02 -0.39605568401E+02  0.41252233864E+02  0.00000000000E+00 0. -1.
<mgrwt>
<rscale>  0 0.23079332E+02</rscale>
<asrwt>0</asrwt>
<pdfrwt beam="2">  1        1 0.12296154E-01 0.23079332E+02</pdfrwt>
<pdfrwt beam="1">  1       -1 0.25632470E-03 0.23079332E+02</pdfrwt>
<totfact> 0.31458213E+06</totfact>
</mgrwt>
</event>
<event>
 4    1  0.2126213E+000  0.3916170E+02  0.7546771E-02  0.1514473E+00
         -2   -1    0    0    0  501 -0.00000000000E+00  0.00000000000E+00  0.42484117163E+02  0.42484117163E+02  0.00000000000E+00 0.  1.
          2   -1    0    0  501    0  0.00000000000E+00 -0.00000000000E+00 -0.90247754513E+01  0.90247754513E+01  0.00000000000E+00 0. -1.
        -13    1    1    2    0    0  0.98394030889E+01  0.11200660165E+02  0.33426104333E+02  0.36600178854E+02  0.00000000000E+00 0.  1.
         13    1    1    2    0    0 -0.98394030889E+01 -0.11200660165E+02  0.33237379064E-01  0.14908713761E+02  0.00000000000E+00 0. -1.
<mgrwt>
<rscale>  0 0.39161696E+02</rscale>
<asrwt>0</asrwt>
<pdfrwt beam="2">  1        2 0.13884270E-02 0.39161696E+02</pdfrwt>
<pdfrwt beam="1">  1       -2 0.65360179E-02 0.39161696E+02</pdfrwt>
<totfact> 0.74841578E+05</totfact>
</mgrwt>
</event>
<event>
 4    1  0.2126213E+000  0.4779400E+02  0.7546771E-02  0.1457617E+00
         -2   -1    0    0    0  501 -0.00000000000E+00  0.00000000000E+00  0.13223180511E+03  0.13223180511E+03  0.00000000000E+00 0. -1.
          2   -1    0    0  501    0  0.00000000000E+00 -0.00000000000E+00 -0.43186780860E+01  0.43186780860E+01  0.00000000000E+00 0.  1.
        -13    1    1    2    0    0 -0.76434831620E+01 -0.22089725828E+02  0.78152395760E+02  0.81573131514E+02  0.00000000000E+00 0.  1.
         13    1    1    2    0    0  0.76434831620E+01  0.22089725828E+02  0.49760731263E+02  0.54977351680E+02  0.00000000000E+00 0. -1.
<mgrwt>
<rscale>  0 0.47794000E+02</rscale>
<asrwt>0</asrwt>
<pdfrwt beam="2">  1        2 0.66441211E-03 0.47794000E+02</pdfrwt>
<pdfrwt beam="1">  1       -2 0.20343352E-01 0.47794000E+02</pdfrwt>
<totfact> 0.36469632E+05</totfact>
</mgrwt>
</event>
<event>
 4    1  0.2126213E+000  0.3443331E+02  0.7546771E-02  0.1553691E+00
         -3   -1    0    0    0  501 -0.00000000000E+00  0.00000000000E+00  0.33329478155E+01  0.33329478155E+01  0.00000000000E+00 0.  1.
          3   -1    0    0  501    0  0.00000000000E+00 -0.00000000000E+00 -0.88934235572E+02  0.88934235572E+02  0.00000000000E+00 0. -1.
        -13    1    1    2    0    0 -0.12796070284E+02 -0.11318694915E+02 -0.48523247298E+02  0.51442762344E+02  0.00000000000E+00 0. -1.
         13    1    1    2    0    0  0.12796070284E+02  0.11318694915E+02 -0.37078040459E+02  0.40824421044E+02  0.00000000000E+00 0.  1.
<mgrwt>
<rscale>  0 0.34433307E+02</rscale>
<asrwt>0</asrwt>
<pdfrwt beam="2">  1        3 0.13682192E-01 0.34433307E+02</pdfrwt>
<pdfrwt beam="1">  1       -3 0.51276115E-03 0.34433307E+02</pdfrwt>
<totfact> 0.42274325E+05</totfact>
</mgrwt>
</event>
<event>
 4    1  0.2126213E+000  0.2716469E+02  0.7546771E-02  0.1631725E+00
          2   -1    0    0  501    0  0.00000000000E+00  0.00000000000E+00  0.74272963311E+02  0.74272963311E+02  0.00000000000E+00 0. -1.
         -2   -1    0    0    0  501 -0.00000000000E+00 -0.00000000000E+00 -0.24838113785E+01  0.24838113785E+01  0.00000000000E+00 0.  1.
        -11    1    1    2    0    0 -0.87865653739E+01  0.74962623564E+01  0.56089744337E+02  0.57266544336E+02  0.00000000000E+00 0. -1.
         11    1    1    2    0    0  0.87865653739E+01 -0.74962623564E+01  0.15699407595E+02  0.19490230353E+02  0.00000000000E+00 0.  1.
<mgrwt>
<rscale>  0 0.27164685E+02</rscale>
<asrwt>0</asrwt>
<pdfrwt beam="1">  1        2 0.11426608E-01 0.27164685E+02</pdfrwt>
<pdfrwt beam="2">  1       -2 0.38212488E-03 0.27164685E+02</pdfrwt>
<totfact> 0.24695385E+06</totfact>
</mgrwt>
</event>
<event>
 4    1  0.2126213E+000  0.4792243E+02  0.7546771E-02  0.1456881E+00
         -2   -1    0    0    0  501 -0.00000000000E+00  0.00000000000E+00  0.12089554101E+02  0.12089554101E+02  0.00000000000E+00 0. -1.
          2   -1    0    0  501    0  0.00000000000E+00 -0.00000000000E+00 -0.47490576459E+02  0.47490576459E+02  0.00000000000E+00 0.  1.
        -11    1    1    2    0    0  0.23246881563E+02 -0.87608968596E-01 -0.10481589276E+02  0.25500762567E+02  0.00000000000E+00 0.  1.
         11    1    1    2    0    0 -0.23246881563E+02  0.87608968596E-01 -0.24919433081E+02  0.34079367993E+02  0.00000000000E+00 0. -1.
<mgrwt>
<rscale>  0 0.47922433E+02</rscale>
<asrwt>0</asrwt>
<pdfrwt beam="2">  1        2 0.73062423E-02 0.47922433E+02</pdfrwt>
<pdfrwt beam="1">  1       -2 0.18599314E-02 0.47922433E+02</pdfrwt>
<totfact> 0.56653602E+05</totfact>
</mgrwt>
</event>
<event>
 4    1  0.2126213E+000  0.2161754E+02  0.7546771E-02  0.1714952E+00
         -2   -1    0    0    0  501 -0.00000000000E+00  0.00000000000E+00  0.39991114932E+02  0.39991114932E+02  0.00000000000E+00 0.  1.
          2   -1    0    0  501    0  0.00000000000E+00 -0.00000000000E+00 -0.29213873669E+01  0.29213873669E+01  0.00000000000E+00 0. -1.
        -13    1    1    2    0    0 -0.52106524031E+01  0.94604480695E+01  0.19373689626E+02  0.22180866211E+02  0.00000000000E+00 0. -1.
         13    1    1    2    0    0  0.52106524031E+01 -0.94604480695E+01  0.17696037940E+02  0.20731636088E+02  0.00000000000E+00 0.  1.
<mgrwt>
<rscale>  0 0.21617543E+02</rscale>
<asrwt>0</asrwt>
<pdfrwt beam="2">  1        2 0.44944424E-03 0.21617543E+02</pdfrwt>
<pdfrwt beam="1">  1       -2 0.61524788E-02 0.21617543E+02</pdfrwt>
<totfact> 0.29432225E+06</totfact>
</mgrwt>
</event>
<event>
 4    1  0.2126213E+000  0.2590501E+02  0.7546771E-02  0.1648333E+00
          3   -1    0    0  501    0  0.00000000000E+00  0.00000000000E+00  0.18846904177E+02  0.18846904177E+02  0.00000000000E+00 0. -1.
         -3   -1    0    0    0  501 -0.00000000000E+00 -0.00000000000E+00 -0.89015882194E+01  0.89015882194E+01  0.00000000000E+00 0.  1.
        -13    1    1    2    0    0 -0.12103388817E+02  0.15886368613E+01  0.33418841681E+00  0.12211775867E+02  0.00000000000E+00 0. -1.
         13    1    1    2    0    0  0.12103388817E+02 -0.15886368613E+01  0.96111275410E+01  0.15536716530E+02  0.00000000000E+00 0.  1.
<mgrwt>
<rscale>  0 0.25905010E+02</rscale>
<asrwt>0</asrwt>
<pdfrwt beam="1">  1        3 0.28995237E-02 0.25905010E+02</pdfrwt>
<pdfrwt beam="2">  1       -3 0.13694751E-02 0.25905010E+02</pdfrwt>
<totfact> 0.98089389E+05</totfact>
</mgrwt>
</event>
<event>
 4    1  0.2126213E+000  0.3915740E+02  0.7546771E-02  0.1514505E+00
         -2   -1    0    0    0  501 -0.00000000000E+00  0.00000000000E+00  0.13836691243E+02  0.13836691243E+02  0.00000000000E+00 0. -1.
          2   -1    0    0  501    0  0.00000000000E+00 -0.00000000000E+00 -0.27703548832E+02  0.27703548832E+02  0.00000000000E+00 0.  1.
        -11    1    1    2    0    0  0.10857354767E+02 -0.60265682562E+01  0.91245269115E+01  0.15409693989E+02  0.00000000000E+00 0. -1.
         11    1    1    2    0    0 -0.10857354767E+02  0.60265682562E+01 -0.22991384501E+02  0.26130546086E+02  0.00000000000E+00 0.  1.
<mgrwt>
<rscale>  0 0.39157398E+02</rscale>
<asrwt>0</asrwt>
<pdfrwt beam="2">  1        2 0.42620844E-02 0.39157398E+02</pdfrwt>
<pdfrwt beam="1">  1       -2 0.21287217E-02 0.39157398E+02</pdfrwt>
<totfact> 0.86879180E+05</totfact>
</mgrwt>
</event>
<event>
 4    1  0.2126213E+000  0.6749291E+02  0.7546771E-02  0.1368832E+00
          1   -1    0    0  501    0  0.00000000000E+00  0.00000000000E+00  0.48489537328E+02  0.48489537328E+02  0.00000000000E+00 0. -1.
         -1   -1    0    0    0  501 -0.00000000000E+00 -0.00000000000E+00 -0.23485957287E+02  0.23485957287E+02  0.00000000000E+00 0.  1.
        -13    1    1    2    0    0  0.25547732557E+02  0.45683628169E+01  0.35504418179E+02  0.43978634448E+02  0.00000000000E+00 0. -1.
         13    1    1    2    0    0 -0.25547732557E+02 -0.45683628169E+01 -0.10500838138E+02  0.27996860168E+02  0.00000000000E+00 0.  1.
<mgrwt>
<rscale>  0 0.67492909E+02</rscale>
<asrwt>0</asrwt>
<pdfrwt beam="1">  1        1 0.74599288E-02 0.67492909E+02</pdfrwt>
<pdfrwt beam="2">  1       -1 0.36132242E-02 0.67492909E+02</pdfrwt>
<totfact> 0.21230599E+05</totfact>
</mgrwt>
</event>
<event>
 4    1  0.2126213E+000  0.5116191E+02  0.7546771E-02  0.1439173E+00
          2   -1    0    0  501    0  0.00000000000E+00  0.00000000000E+00  0.73897303690E+01  0.73897303690E+01  0.00000000000E+00 0. -1.
         -2   -1    0    0    0  501 -0.00000000000E+00 -0.00000000000E+00 -0.88553348332E+02  0.88553348332E+02  0.00000000000E+00 0.  1.
        -13    1    1    2    0    0 -0.14543366874E+02  0.37532924475E+01 -0.17499213745E+01  0.15121473111E+02  0.00000000000E+00 0. -1.
         13    1    1    2    0    0  0.14543366874E+02 -0.37532924475E+01 -0.79413696588E+02  0.80821605590E+02  0.00000000000E+00 0.  1.
<mgrwt>
<rscale>  0 0.51161914E+02</rscale>
<asrwt>0</asrwt>
<pdfrwt beam="1">  1        2 0.11368815E-02 0.51161914E+02</pdfrwt>
<pdfrwt beam="2">  1       -2 0.13623593E-01 0.51161914E+02</pdfrwt>
<totfact> 0.34379055E+05</totfact>
</mgrwt>
</event>
<event>
 4    1  0.2126213E+000  0.6375211E+02  0.7546771E-02  0.1382728E+00
         -4   -1    0    0    0  501 -0.00000000000E+00  0.00000000000E+00  0.67943422438E+02  0.67943422438E+02  0.00000000000E+00 0.  1.
          4   -1    0    0  501    0  0.00000000000E+00 -0.00000000000E+00 -0.14954839926E+02  0.14954839926E+02  0.00000000000E+00 0. -1.
        -11    1    1    2    0    0 -0.25247736141E+02  0.59870550651E+01  0.24193681657E+01  0.26060436506E+02  0.00000000000E+00 0. -1.
         11    1    1    2    0    0  0.25247736141E+02 -0.59870550651E+01  0.50569214347E+02  0.56837825858E+02  0.00000000000E+00 0.  1.
<mgrwt>
<rscale>  0 0.63752114E+02</rscale>
<asrwt>0</asrwt>
<pdfrwt beam="2">  1        4 0.23007447E-02 0.63752114E+02</pdfrwt>
<pdfrwt beam="1">  1       -4 0.10452834E-01 0.63752114E+02</pdfrwt>
<totfact> 0.71023336E+04</totfact>
</mgrwt>
</event>
<event>
 4    1  0.2126213E+000  0.2728023E+02  0.7546771E-02  0.1630257E+00
         -4   -1    0    0    0  501 -0.00000000000E+00  0.00000000000E+00  0.23746160676E+02  0.23746160676E+02  0.00000000000E+00 0.  1.
          4   -1    0    0  501    0  0.00000000000E+00 -0.00000000000E+00 -0.78350669783E+01  0.78350669783E+01  0.00000000000E+00 0. -1.
        -11    1    1    2    0    0 -0.96290854547E+00  0.12344129541E+02  0.14580358882E+02  0.19128292975E+02  0.00000000000E+00 0. -1.
         11    1    1    2    0    0  0.96290854547E+00 -0.12344129541E+02  0.13307348163E+01  0.12452934680E+02  0.00000000000E+00 0.  1.
<mgrwt>
<rscale>  0 0.27280232E+02</rscale>
<asrwt>0</asrwt>
<pdfrwt beam="2">  1        4 0.12053949E-02 0.27280232E+02</pdfrwt>
<pdfrwt beam="1">  1       -4 0.36532555E-02 0.27280232E+02</pdfrwt>
<totfact> 0.63951998E+05</totfact>
</mgrwt>
</event>
<event>
 4    1  0.2126213E+000  0.5430871E+02  0.7546771E-02  0.1423397E+00
          4   -1    0    0  501    0  0.00000000000E+00  0.00000000000E+00  0.98620237699E+01  0.98620237699E+01  0.00000000000E+00 0. -1.
         -4   -1    0    0    0  501 -0.00000000000E+00 -0.00000000000E+00 -0.74767511495E+02  0.74767511495E+02  0.00000000000E+00 0.  1.
        -13    1    1    2    0    0  0.63578652004E+01 -0.22078199030E+02 -0.98982147857E+01  0.25016873870E+02  0.00000000000E+00 0. -1.
         13    1    1    2    0    0 -0.63578652004E+01  0.22078199030E+02 -0.55007272939E+02  0.59612661395E+02  0.00000000000E+00 0.  1.
<mgrwt>
<rscale>  0 0.54308709E+02</rscale>
<asrwt>0</asrwt>
<pdfrwt beam="1">  1        4 0.15172345E-02 0.54308709E+02</pdfrwt>
<pdfrwt beam="2">  1       -4 0.11502694E-01 0.54308709E+02</pdfrwt>
<totfact> 0.10619660E+05</totfact>
</mgrwt>
</event>
<event>
 4    1  0.2126213E+000  0.2181213E+02  0.7546771E-02  0.1711521E+00
          1   -1    0    0  501    0  0.00000000000E+00  0.00000000000E+00  0.10777935419E+03  0.10777935419E+03  0.00000000000E+00 0.  1.
         -1   -1    0    0    0  501 -0.00000000000E+00 -0.00000000000E+00 -0.11035722088E+01  0.11035722088E+01  0.00000000000E+00 0. -1.
        -13    1    1    2    0    0  0.10751546772E+02  0.41183964864E+00  0.44440443125E+02  0.45724373752E+02  0.00000000000E+00 0. -1.
         13    1    1    2    0    0 -0.10751546772E+02 -0.41183964864E+00  0.62235338855E+02  0.63158552646E+02  0.00000000000E+00 0.  1.
<mgrwt>
<rscale>  0 0.21812134E+02</rscale>
<asrwt>0</asrwt>
<pdfrwt beam="1">  1        1 0.16581431E-01 0.21812134E+02</pdfrwt>
<pdfrwt beam="2">  1       -1 0.16978043E-03 0.21812134E+02</pdfrwt>
<totfact> 0.36894193E+06</totfact>
</mgrwt>
</event>
<event>
 4    1  0.2126213E+000  0.2070554E+02  0.7546771E-02  0.1731651E+00
         -4   -1    0    0    0  501 -0.00000000000E+00  0.00000000000E+00  0.28309072150E+01  0.28309072150E+01  0.00000000000E+00 0.  1.
          4   -1    0    0  501    0  0.00000000000E+00 -0.00000000000E+00 -0.37860595808E+02  0.37860595808E+02  0.00000000000E+00 0. -1.
        -11    1    1    2    0    0 -0.15901625673E+01 -0.10226572455E+02 -0.17000742759E+02  0.19903182045E+02  0.00000000000E+00 0.  1.
         11    1    1    2    0    0  0.15901625673E+01  0.10226572455E+02 -0.18028945834E+02  0.20788320977E+02  0.00000000000E+00 0. -1.
<mgrwt>
<rscale>  0 0.20705539E+02</rscale>
<asrwt>0</asrwt>
<pdfrwt beam="2">  1        4 0.58247065E-02 0.20705539E+02</pdfrwt>
<pdfrwt beam="1">  1       -4 0.43552422E-03 0.20705539E+02</pdfrwt>
<totfact> 0.11115938E+06</totfact>
</mgrwt>
</event>
<event>
 4    1  0.2126213E+000  0.3498696E+02  0.7546771E-02  0.1548716E+00
         -2   -1    0    0    0  501 -0.00000000000E+00  0.00000000000E+00  0.18555697619E+02  0.18555697619E+02  0.00000000000E+00 0. -1.
          2   -1    0    0  501    0  0.00000000000E+00 -0.00000000000E+00 -0.16492066779E+02  0.16492066779E+02  0.00000000000E+00 0.  1.
        -13    1    1    2    0    0 -0.57538198871E+01  0.16444775169E+02 -0.54722698926E+00  0.17430907349E+02  0.00000000000E+00 0.  1.
         13    1    1    2    0    0  0.57538198871E+01 -0.16444775169E+02  0.26108578293E+01  0.17616857048E+02  0.00000000000E+00 0. -1.
<mgrwt>
<rscale>  0 0.34986958E+02</rscale>
<asrwt>0</asrwt>
<pdfrwt beam="2">  1        2 0.25372410E-02 0.34986958E+02</pdfrwt>
<pdfrwt beam="1">  1       -2 0.28547227E-02 0.34986958E+02</pdfrwt>
<totfact> 0.10806792E+06</totfact>
</mgrwt>
</event>
<event>
 4    1  0.2126213E+000  0.5853562E+02  0.7546771E-02  0.1404082E+00
          1   -1    0    0  501    0  0.00000000000E+00  0.00000000000E+00  0.61576869289E+01  0.61576869289E+01  0.00000000000E+00 0. -1.
         -1   -1    0    0    0  501 -0.00000000000E+00 -0.00000000000E+00 -0.13911145018E+03  0.13911145018E+03  0.00000000000E+00 0.  1.
        -13    1    1    2    0    0  0.87131681443E+01 -0.20677233106E+02 -0.19840480070E+02  0.29951826613E+02  0.00000000000E+00 0. -1.
         13    1    1    2    0    0 -0.87131681443E+01  0.20677233106E+02 -0.11311328318E+03  0.11531731050E+03  0.00000000000E+00 0.  1.
<mgrwt>
<rscale>  0 0.58535622E+02</rscale>
<asrwt>0</asrwt>
<pdfrwt beam="1">  1        1 0.94733648E-03 0.58535622E+02</pdfrwt>
<pdfrwt beam="2">  1       -1 0.21401761E-01 0.58535622E+02</pdfrwt>
<totfact> 0.23616259E+05</totfact>
</mgrwt>
</event>
<event>
 4    1  0.2126213E+000  0.3190825E+02  0.7546771E-02  0.1577905E+00
         -3   -1    0    0    0  501 -0.00000000000E+00  0.00000000000E+00  0.17517832163E+02  0.17517832163E+02  0.00000000000E+00 0. -1.
          3   -1    0    0  501    0  0.00000000000E+00 -0.00000000000E+00 -0.14529999303E+02  0.14529999303E+02  0.00000000000E+00 0.  1.
        -13    1    1    2    0    0 -0.55133187292E+01 -0.10721985983E+02 -0.90005437579E+01  0.15045512778E+02  0.00000000000E+00 0.  1.
         13    1    1    2    0    0  0.55133187292E+01  0.10721985983E+02  0.11988376618E+02  0.17002318688E+02  0.00000000000E+00 0. -1.
<mgrwt>
<rscale>  0 0.31908249E+02</rscale>
<asrwt>0</asrwt>
<pdfrwt beam="2">  1        3 0.22353845E-02 0.31908249E+02</pdfrwt>
<pdfrwt beam="1">  1       -3 0.26950511E-02 0.31908249E+02</pdfrwt>
<totfact> 0.59688935E+05</totfact>
</mgrwt>
</event>
<event>
 4    1  0.2126213E+000  0.2767638E+02  0.7546771E-02  0.1625291E+00
          4   -1    0    0  501    0  0.00000000000E+00  0.00000000000E+00  0.14026915643E+01  0.14026915643E+01  0.00000000000E+00 0. -1.
         -4   -1    0    0    0  501 -0.00000000000E+00 -0.00000000000E+00 -0.13652003313E+03  0.13652003313E+03  0.00000000000E+00 0.  1.
        -13    1    1    2    0    0  0.56617922742E+01  0.12621660602E+02 -0.65739277898E+02  0.67178976374E+02  0.00000000000E+00 0.  1.
         13    1    1    2    0    0 -0.56617922742E+01 -0.12621660602E+02 -0.69378063666E+02  0.70743748319E+02  0.00000000000E+00 0. -1.
<mgrwt>
<rscale>  0 0.27676380E+02</rscale>
<asrwt>0</asrwt>
<pdfrwt beam="1">  1        4 0.21579868E-03 0.27676380E+02</pdfrwt>
<pdfrwt beam="2">  1       -4 0.21003084E-01 0.27676380E+02</pdfrwt>
<totfact> 0.44912122E+05</totfact>
</mgrwt>
</event>
<event>
 4    1  0.2126213E+000  0.4097622E+02  0.7546771E-02  0.1501148E+00
          2   -1    0    0  501    0  0.00000000000E+00  0.00000000000E+00  0.37828486456E+02  0.37828486456E+02  0.00000000000E+00 0. -1.
         -2   -1    0    0    0  501 -0.00000000000E+00 -0.00000000000E+00 -0.11096471585E+02  0.11096471585E+02  0.00000000000E+00 0.  1.
        -11    1    1    2    0    0 -0.19610001355E+02  0.34441430492E+01  0.75966484384E+01  0.21310169919E+02  0.00000000000E+00 0.  1.
         11    1    1    2    0    0  0.19610001355E+02 -0.34441430492E+01  0.19135366432E+02  0.27614788121E+02  0.00000000000E+00 0. -1.
<mgrwt>
<rscale>  0 0.40976224E+02</rscale>
<asrwt>0</asrwt>
<pdfrwt beam="1">  1        2 0.58197671E-02 0.40976224E+02</pdfrwt>
<pdfrwt beam="2">  1       -2 0.17071495E-02 0.40976224E+02</pdfrwt>
<totfact> 0.81110093E+05</totfact>
</mgrwt>
</event>
<event>
 4    1  0.2126213E+000  0.2430074E+02  0.7546771E-02  0.1671254E+00
          2   -1    0    0  501    0  0.00000000000E+00  0.00000000000E+00  0.13916743298E+02  0.13916743298E+02  0.00000000000E+00 0. -1.
         -2   -1    0    0    0  501 -0.00000000000E+00 -0.00000000000E+00 -0.10608193055E+02  0.10608193055E+02  0.00000000000E+00 0.  1.
        -11    1    1    2    0    0  0.99599452411E+01 -0.20119610407E+01  0.83777954202E+01  0.13169508440E+02  0.00000000000E+00 0. -1.
         11    1    1    2    0    0 -0.99599452411E+01  0.20119610407E+01 -0.50692451776E+01  0.11355427914E+02  0.00000000000E+00 0.  1.
<mgrwt>
<rscale>  0 0.24300741E+02</rscale>
<asrwt>0</asrwt>
<pdfrwt beam="1">  1        2 0.21410374E-02 0.24300741E+02</pdfrwt>
<pdfrwt beam="2">  1       -2 0.16320297E-02 0.24300741E+02</pdfrwt>
<totfact> 0.25781237E+06</totfact>
</mgrwt>
</event>
<event>
 4    1  0.2126213E+000  0.2971926E+02  0.7546771E-02  0.1601213E+00
          4   -1    0    0  501    0  0.00000000000E+00  0.00000000000E+00  0.23445679683E+01  0.23445679683E+01  0.00000000000E+00 0. -1.
         -4   -1    0    0    0  501 -0.00000000000E+00 -0.00000000000E+00 -0.94178812416E+02  0.94178812416E+02  0.00000000000E+00 0.  1.
        -11    1    1    2    0    0  0.69531308486E+01  0.10701531289E+02 -0.21195150601E+02  0.24740719664E+02  0.00000000000E+00 0. -1.
         11    1    1    2    0    0 -0.69531308486E+01 -0.10701531289E+02 -0.70639093848E+02  0.71782660721E+02  0.00000000000E+00 0.  1.
<mgrwt>
<rscale>  0 0.29719262E+02</rscale>
<asrwt>0</asrwt>
<pdfrwt beam="1">  1        4 0.36070276E-03 0.29719262E+02</pdfrwt>
<pdfrwt beam="2">  1       -4 0.14489048E-01 0.29719262E+02</pdfrwt>
<totfact> 0.42850428E+05</totfact>
</mgrwt>
</event>
<event>
 4    1  0.2126213E+000  0.3203199E+02  0.7546771E-02  0.1576656E+00
          4   -1    0    0  501    0  0.00000000000E+00  0.00000000000E+00  0.57311320306E+01  0.57311320306E+01  0.00000000000E+00 0.  1.
         -4   -1    0    0    0  501 -0.00000000000E+00 -0.00000000000E+00 -0.44757679242E+02  0.44757679242E+02  0.00000000000E+00 0. -1.
        -11    1    1    2    0    0 -0.11198686908E+02  0.77158006036E+01 -0.61789617199E+01  0.14937326915E+02  0.00000000000E+00 0.  1.
         11    1    1    2    0    0  0.11198686908E+02 -0.77158006036E+01 -0.32847585491E+02  0.35551484358E+02  0.00000000000E+00 0. -1.
<mgrwt>
<rscale>  0 0.32031995E+02</rscale>
<asrwt>0</asrwt>
<pdfrwt beam="1">  1        4 0.88171262E-03 0.32031995E+02</pdfrwt>
<pdfrwt beam="2">  1       -4 0.68857968E-02 0.32031995E+02</pdfrwt>
<totfact> 0.41648092E+05</totfact>
</mgrwt>
</event>
<event>
 4    1  0.2126213E+000  0.2490942E+02  0.7546771E-02  0.1662306E+00
         -2   -1    0    0    0  501 -0.00000000000E+00  0.00000000000E+00  0.22436161722E+01  0.22436161722E+01  0.00000000000E+00 0.  1.
          2   -1    0    0  501    0  0.00000000000E+00 -0.00000000000E+00 -0.69138318185E+02  0.69138318185E+02  0.00000000000E+00 0. -1.
        -13    1    1    2    0    0  0.96255900996E+01  0.65407263397E+01 -0.20732485025E+02  0.23775386877E+02  0.00000000000E+00 0.  1.
         13    1    1    2    0    0 -0.96255900996E+01 -0.65407263397E+01 -0.46162216988E+02  0.47606547481E+02  0.00000000000E+00 0. -1.
<mgrwt>
<rscale>  0 0.24909424E+02</rscale>
<asrwt>0</asrwt>
<pdfrwt beam="2">  1        2 0.10636663E-01 0.24909424E+02</pdfrwt>
<pdfrwt beam="1">  1       -2 0.34517177E-03 0.24909424E+02</pdfrwt>
<totfact> 0.29770594E+06</totfact>
</mgrwt>
</event>
<event>
 4    1  0.2126213E+000  0.2642602E+02  0.7546771E-02  0.1641326E+00
         -2   -1    0    0    0  501 -0.00000000000E+00  0.00000000000E+00  0.13865296749E+02  0.13865296749E+02  0.00000000000E+00 0. -1.
          2   -1    0    0  501    0  0.00000000000E+00 -0.00000000000E+00 -0.12591411652E+02  0.12591411652E+02  0.00000000000E+00 0.  1.
        -11    1    1    2    0    0  0.30748912221E+01 -0.96950922187E+01 -0.78069422283E+01  0.12821782876E+02  0.00000000000E+00 0.  1.
         11    1    1    2    0    0 -0.30748912221E+01  0.96950922187E+01  0.90808273258E+01  0.13634925525E+02  0.00000000000E+00 0. -1.
<mgrwt>
<rscale>  0 0.26426022E+02</rscale>
<asrwt>0</asrwt>
<pdfrwt beam="2">  1        2 0.19371402E-02 0.26426022E+02</pdfrwt>
<pdfrwt beam="1">  1       -2 0.21331226E-02 0.26426022E+02</pdfrwt>
<totfact> 0.20929929E+06</totfact>
</mgrwt>
</event>
<event>
 4    1  0.2126213E+000  0.7425514E+02  0.7546771E-02  0.1346193E+00
         -1   -1    0    0    0  501 -0.00000000000E+00  0.00000000000E+00  0.45977863971E+02  0.45977863971E+02  0.00000000000E+00 0.  1.
          1   -1    0    0  501    0  0.00000000000E+00 -0.00000000000E+00 -0.29980867954E+02  0.29980867954E+02  0.00000000000E+00 0. -1.
        -11    1    1    2    0    0  0.76867314892E+01 -0.36057195221E+02  0.35104609738E+01  0.37034180218E+02  0.00000000000E+00 0. -1.
         11    1    1    2    0    0 -0.76867314892E+01  0.36057195221E+02  0.12486535044E+02  0.38924551707E+02  0.00000000000E+00 0.  1.
<mgrwt>
<rscale>  0 0.74255135E+02</rscale>
<asrwt>0</asrwt>
<pdfrwt beam="2">  1        1 0.46124412E-02 0.74255135E+02</pdfrwt>
<pdfrwt beam="1">  1       -1 0.70735175E-02 0.74255135E+02</pdfrwt>
<totfact> 0.15449753E+05</totfact>
</mgrwt>
</event>
<event>
 4    1  0.2126213E+000  0.3424116E+02  0.7546771E-02  0.1555444E+00
         -2   -1    0    0    0  501 -0.00000000000E+00  0.00000000000E+00  0.47804406949E+02  0.47804406949E+02  0.00000000000E+00 0.  1.
          2   -1    0    0  501    0  0.00000000000E+00 -0.00000000000E+00 -0.61315313795E+01  0.61315313795E+01  0.00000000000E+00 0. -1.
        -11    1    1    2    0    0 -0.90591765268E+01  0.12276341205E+02  0.33071934739E+02  0.36421560924E+02  0.00000000000E+00 0.  1.
         11    1    1    2    0    0  0.90591765268E+01 -0.12276341205E+02  0.86009408303E+01  0.17514377405E+02  0.00000000000E+00 0. -1.
<mgrwt>
<rscale>  0 0.34241158E+02</rscale>
<asrwt>0</asrwt>
<pdfrwt beam="2">  1        2 0.94331255E-03 0.34241158E+02</pdfrwt>
<pdfrwt beam="1">  1       -2 0.73545239E-02 0.34241158E+02</pdfrwt>
<totfact> 0.10079953E+06</totfact>
</mgrwt>
</event>
<event>
 4    1  0.2126213E+000  0.3841456E+02  0.7546771E-02  0.1520214E+00
         -4   -1    0    0    0  501 -0.00000000000E+00  0.00000000000E+00  0.17689001272E+02  0.17689001272E+02  0.00000000000E+00 0. -1.
          4   -1    0    0  501    0  0.00000000000E+00 -0.00000000000E+00 -0.20855878201E+02  0.20855878201E+02  0.00000000000E+00 0.  1.
        -11    1    1    2    0    0 -0.15660335198E+02  0.10370907166E+02  0.24448841723E+01  0.18941469652E+02  0.00000000000E+00 0.  1.
         11    1    1    2    0    0  0.15660335198E+02 -0.10370907166E+02 -0.56117611019E+01  0.19603409821E+02  0.00000000000E+00 0. -1.
<mgrwt>
<rscale>  0 0.38414563E+02</rscale>
<asrwt>0</asrwt>
<pdfrwt beam="2">  1        4 0.32085966E-02 0.38414563E+02</pdfrwt>
<pdfrwt beam="1">  1       -4 0.27213848E-02 0.38414563E+02</pdfrwt>
<totfact> 0.28415281E+05</totfact>
</mgrwt>
</event>
<event>
 4    1  0.2126213E+000  0.8750087E+02  0.7546771E-02  0.1309019E+00
          4   -1    0    0  501    0  0.00000000000E+00  0.00000000000E+00  0.11062122021E+03  0.11062122021E+03  0.00000000000E+00 0.  1.
         -4   -1    0    0    0  501 -0.00000000000E+00 -0.00000000000E+00 -0.17303194556E+02  0.17303194556E+02  0.00000000000E+00 0. -1.
        -11    1    1    2    0    0 -0.42217069858E+01  0.23779122556E+02  0.99992813349E+02  0.10286803294E+03  0.00000000000E+00 0.  1.
         11    1    1    2    0    0  0.42217069858E+01 -0.23779122556E+02 -0.66747876964E+01  0.25056381825E+02  0.00000000000E+00 0. -1.
<mgrwt>
<rscale>  0 0.87500868E+02</rscale>
<asrwt>0</asrwt>
<pdfrwt beam="1">  1        4 0.17018649E-01 0.87500868E+02</pdfrwt>
<pdfrwt beam="2">  1       -4 0.26620300E-02 0.87500868E+02</pdfrwt>
<totfact> 0.27733149E+04</totfact>
</mgrwt>
</event>
<event>
 4    1  0.2126213E+000  0.2833609E+02  0.7546771E-02  0.1617244E+00
         -2   -1    0    0    0  501 -0.00000000000E+00  0.00000000000E+00  0.17940782230E+01  0.17940782230E+01  0.00000000000E+00 0.  1.
          2   -1    0    0  501    0  0.00000000000E+00 -0.00000000000E+00 -0.11188669706E+03  0.11188669706E+03  0.00000000000E+00 0. -1.
        -11    1    1    2    0    0 -0.90136294910E+01  0.98884276301E+01 -0.73737919400E+02  0.74942026094E+02  0.00000000000E+00 0. -1.
         11    1    1    2    0    0  0.90136294910E+01 -0.98884276301E+01 -0.36354699439E+02  0.38738749191E+02  0.00000000000E+00 0.  1.
<mgrwt>
<rscale>  0 0.28336089E+02</rscale>
<asrwt>0</asrwt>
<pdfrwt beam="2">  1        2 0.17213334E-01 0.28336089E+02</pdfrwt>
<pdfrwt beam="1">  1       -2 0.27601210E-03 0.28336089E+02</pdfrwt>
<totfact> 0.24558121E+06</totfact>
</mgrwt>
</event>
<event>
 4    1  0.2126213E+000  0.2665634E+02  0.7546771E-02  0.1638291E+00
         -2   -1    0    0    0  501 -0.00000000000E+00  0.00000000000E+00  0.28723514643E+02  0.28723514643E+02  0.00000000000E+00 0. -1.
          2   -1    0    0  501    0  0.00000000000E+00 -0.00000000000E+00 -0.61844851007E+01  0.61844851007E+01  0.00000000000E+00 0.  1.
        -11    1    1    2    0    0 -0.19133098525E+01  0.12561788462E+02  0.60017634601E+01  0.14052773697E+02  0.00000000000E+00 0. -1.
         11    1    1    2    0    0  0.19133098525E+01 -0.12561788462E+02  0.16537266082E+02  0.20855226046E+02  0.00000000000E+00 0.  1.
<mgrwt>
<rscale>  0 0.26656342E+02</rscale>
<asrwt>0</asrwt>
<pdfrwt beam="2">  1        2 0.95145927E-03 0.26656342E+02</pdfrwt>
<pdfrwt beam="1">  1       -2 0.44190022E-02 0.26656342E+02</pdfrwt>
<totfact> 0.19126830E+06</totfact>
</mgrwt>
</event>
<event>
 4    1  0.2126213E+000  0.7039008E+02  0.7546771E-02  0.1358772E+00
         -2   -1    0    0    0  501 -0.00000000000E+00  0.00000000000E+00  0.66040173834E+02  0.66040173834E+02  0.00000000000E+00 0.  1.
          2   -1    0    0  501    0  0.00000000000E+00 -0.00000000000E+00 -0.18756623946E+02  0.18756623946E+02  0.00000000000E+00 0. -1.
        -13    1    1    2    0    0 -0.26615880392E+02 -0.10652071299E+02 -0.95293852869E+00  0.28684138541E+02  0.00000000000E+00 0. -1.
         13    1    1    2    0    0  0.26615880392E+02  0.10652071299E+02  0.48236488417E+02  0.56112659238E+02  0.00000000000E+00 0.  1.
<mgrwt>
<rscale>  0 0.70390076E+02</rscale>
<asrwt>0</asrwt>
<pdfrwt beam="2">  1        2 0.28856345E-02 0.70390076E+02</pdfrwt>
<pdfrwt beam="1">  1       -2 0.10160027E-01 0.70390076E+02</pdfrwt>
<totfact> 0.16833201E+05</totfact>
</mgrwt>
</event>
<event>
 4    1  0.2126213E+000  0.3128654E+02  0.7546771E-02  0.1584288E+00
          4   -1    0    0  501    0  0.00000000000E+00  0.00000000000E+00  0.14327101787E+02  0.14327101787E+02  0.00000000000E+00 0.  1.
         -4   -1    0    0    0  501 -0.00000000000E+00 -0.00000000000E+00 -0.17080345557E+02  0.17080345557E+02  0.00000000000E+00 0. -1.
        -11    1    1    2    0    0  0.53037579336E+01  0.14474152209E+02  0.12946614615E+01  0.15469553280E+02  0.00000000000E+00 0.  1.
         11    1    1    2    0    0 -0.53037579336E+01 -0.14474152209E+02 -0.40479052316E+01  0.15937894063E+02  0.00000000000E+00 0. -1.
<mgrwt>
<rscale>  0 0.31286537E+02</rscale>
<asrwt>0</asrwt>
<pdfrwt beam="1">  1        4 0.22041695E-02 0.31286537E+02</pdfrwt>
<pdfrwt beam="2">  1       -4 0.26277455E-02 0.31286537E+02</pdfrwt>
<totfact> 0.47036745E+05</totfact>
</mgrwt>
</event>
<event>
 4    1  0.2126213E+000  0.3680524E+02  0.7546771E-02  0.1533130E+00
         -2   -1    0    0    0  501 -0.00000000000E+00  0.00000000000E+00  0.38398677222E+01  0.38398677222E+01  0.00000000000E+00 0.  1.
          2   -1    0    0  501    0  0.00000000000E+00 -0.00000000000E+00 -0.88194810661E+02  0.88194810661E+02  0.00000000000E+00 0. -1.
        -11    1    1    2    0    0 -0.11892271349E+02  0.79899891848E+01 -0.71057929751E+02  0.72487898477E+02  0.00000000000E+00 0. -1.
         11    1    1    2    0    0  0.11892271349E+02 -0.79899891848E+01 -0.13297013187E+02  0.19546779906E+02  0.00000000000E+00 0.  1.
<mgrwt>
<rscale>  0 0.36805239E+02</rscale>
<asrwt>0</asrwt>
<pdfrwt beam="2">  1        2 0.13568433E-01 0.36805239E+02</pdfrwt>
<pdfrwt beam="1">  1       -2 0.59074886E-03 0.36805239E+02</pdfrwt>
<totfact> 0.12425351E+06</totfact>
</mgrwt>
</event>
<event>
 4    1  0.2126213E+000  0.2200633E+02  0.7546771E-02  0.1708143E+00
          3   -1    0    0  501    0  0.00000000000E+00  0.00000000000E+00  0.43144790456E+01  0.43144790456E+01  0.00000000000E+00 0. -1.
         -3   -1    0    0    0  501 -0.00000000000E+00 -0.00000000000E+00 -0.28061240212E+02  0.28061240212E+02  0.00000000000E+00 0.  1.
        -11    1    1    2    0    0  0.10548289746E+02  0.51655203014E+00 -0.73301599670E+01  0.12855523626E+02  0.00000000000E+00 0.  1.
         11    1    1    2    0    0 -0.10548289746E+02 -0.51655203014E+00 -0.16416601199E+02  0.19520195631E+02  0.00000000000E+00 0. -1.
<mgrwt>
<rscale>  0 0.22006329E+02</rscale>
<asrwt>0</asrwt>
<pdfrwt beam="1">  1        3 0.66376601E-03 0.22006329E+02</pdfrwt>
<pdfrwt beam="2">  1       -3 0.43171139E-02 0.22006329E+02</pdfrwt>
<totfact> 0.13911096E+06</totfact>
</mgrwt>
</event>
<event>
 4    1  0.2126213E+000  0.3687794E+02  0.7546771E-02  0.1532529E+00
          1   -1    0    0  501    0  0.00000000000E+00  0.00000000000E+00  0.60695505310E+02  0.60695505310E+02  0.00000000000E+00 0. -1.
         -1   -1    0    0    0  501 -0.00000000000E+00 -0.00000000000E+00 -0.56016613575E+01  0.56016613575E+01  0.00000000000E+00 0.  1.
        -11    1    1    2    0    0  0.70755647827E+01  0.97338000237E+01  0.52662993382E+02  0.54020379042E+02  0.00000000000E+00 0. -1.
         11    1    1    2    0    0 -0.70755647827E+01 -0.97338000237E+01  0.24308505700E+01  0.12276787625E+02  0.00000000000E+00 0.  1.
<mgrwt>
<rscale>  0 0.36877943E+02</rscale>
<asrwt>0</asrwt>
<pdfrwt beam="1">  1        1 0.93377696E-02 0.36877943E+02</pdfrwt>
<pdfrwt beam="2">  1       -1 0.86179410E-03 0.36877943E+02</pdfrwt>
<totfact> 0.10157038E+06</totfact>
</mgrwt>
</event>
<event>
 4    1  0.2126213E+000  0.2418538E+02  0.7546771E-02  0.1672986E+00
         -1   -1    0    0    0  501 -0.00000000000E+00  0.00000000000E+00  0.24134809473E+02  0.24134809473E+02  0.00000000000E+00 0.  1.
          1   -1    0    0  501    0  0.00000000000E+00 -0.00000000000E+00 -0.60590143779E+01  0.60590143779E+01  0.00000000000E+00 0. -1.
        -13    1    1    2    0    0 -0.83510777739E+01  0.84089740736E+01  0.60359907801E+01  0.13299794346E+02  0.00000000000E+00 0. -1.
         13    1    1    2    0    0  0.83510777739E+01 -0.84089740736E+01  0.12039804315E+02  0.16894029505E+02  0.00000000000E+00 0.  1.
<mgrwt>
<rscale>  0 0.24185381E+02</rscale>
<asrwt>0</asrwt>
<pdfrwt beam="2">  1        1 0.93215607E-03 0.24185381E+02</pdfrwt>
<pdfrwt beam="1">  1       -1 0.37130476E-02 0.24185381E+02</pdfrwt>
<totfact> 0.24219998E+06</totfact>
</mgrwt>
</event>
<event>
 4    1  0.2126213E+000  0.2760298E+02  0.7546771E-02  0.1626204E+00
          2   -1    0    0  501    0  0.00000000000E+00  0.00000000000E+00  0.74736375439E+01  0.74736375439E+01  0.00000000000E+00 0. -1.
         -2   -1    0    0    0  501 -0.00000000000E+00 -0.00000000000E+00 -0.25487076165E+02  0.25487076165E+02  0.00000000000E+00 0.  1.
        -11    1    1    2    0    0  0.11249366162E+02  0.13320494438E+01 -0.18421086007E+02  0.21625424954E+02  0.00000000000E+00 0.  1.
         11    1    1    2    0    0 -0.11249366162E+02 -0.13320494438E+01  0.40764738582E+00  0.11335288755E+02  0.00000000000E+00 0. -1.
<mgrwt>
<rscale>  0 0.27602983E+02</rscale>
<asrwt>0</asrwt>
<pdfrwt beam="1">  1        2 0.11497904E-02 0.27602983E+02</pdfrwt>
<pdfrwt beam="2">  1       -2 0.39210885E-02 0.27602983E+02</pdfrwt>
<totfact> 0.17900735E+06</totfact>
</mgrwt>
</event>
<event>
 4    1  0.2126213E+000  0.2839717E+02  0.7546771E-02  0.1616513E+00
         -4   -1    0    0    0  501 -0.00000000000E+00  0.00000000000E+00  0.56778749338E+02  0.56778749338E+02  0.00000000000E+00 0.  1.
          4   -1    0    0  501    0  0.00000000000E+00 -0.00000000000E+00 -0.35506206563E+01  0.35506206563E+01  0.00000000000E+00 0. -1.
        -13    1    1    2    0    0 -0.10696303702E+02 -0.90672688768E+01  0.31351963229E+02  0.34344895924E+02  0.00000000000E+00 0.  1.
         13    1    1    2    0    0  0.10696303702E+02  0.90672688768E+01  0.21876165453E+02  0.25984474070E+02  0.00000000000E+00 0. -1.
<mgrwt>
<rscale>  0 0.28397169E+02</rscale>
<asrwt>0</asrwt>
<pdfrwt beam="2">  1        4 0.54624937E-03 0.28397169E+02</pdfrwt>
<pdfrwt beam="1">  1       -4 0.87351915E-02 0.28397169E+02</pdfrwt>
<totfact> 0.52854727E+05</totfact>
</mgrwt>
</event>
<event>
 4    1  0.2126213E+000  0.2328946E+02  0.7546771E-02  0.1686861E+00
          2   -1    0    0  501    0  0.00000000000E+00  0.00000000000E+00  0.37507915432E+02  0.37507915432E+02  0.00000000000E+00 0.  1.
         -2   -1    0    0    0  501 -0.00000000000E+00 -0.00000000000E+00 -0.36152307611E+01  0.36152307611E+01  0.00000000000E+00 0. -1.
        -11    1    1    2    0    0  0.10112453818E+02 -0.56341341247E+01  0.19176060807E+02  0.22399252167E+02  0.00000000000E+00 0.  1.
         11    1    1    2    0    0 -0.10112453818E+02  0.56341341247E+01  0.14716623864E+02  0.18723894026E+02  0.00000000000E+00 0. -1.
<mgrwt>
<rscale>  0 0.23289463E+02</rscale>
<asrwt>0</asrwt>
<pdfrwt beam="1">  1        2 0.57704483E-02 0.23289463E+02</pdfrwt>
<pdfrwt beam="2">  1       -2 0.55618937E-03 0.23289463E+02</pdfrwt>
<totfact> 0.31527232E+06</totfact>
</mgrwt>
</event>
<event>
 4    1  0.2126213E+000  0.4339855E+02  0.7546771E-02  0.1484594E+00
         -2   -1    0    0    0  501 -0.00000000000E+00  0.00000000000E+00  0.62148261309E+02  0.62148261309E+02  0.00000000000E+00 0.  1.
          2   -1    0    0  501    0  0.00000000000E+00 -0.00000000000E+00 -0.75763751668E+01  0.75763751668E+01  0.00000000000E+00 0. -1.
        -11    1    1    2    0    0 -0.13358118646E+02 -0.16169880895E+02  0.18347321337E+02  0.27866262436E+02  0.00000000000E+00 0. -1.
         11    1    1    2    0    0  0.13358118646E+02  0.16169880895E+02  0.36224564806E+02  0.41858374040E+02  0.00000000000E+00 0.  1.
<mgrwt>
<rscale>  0 0.43398550E+02</rscale>
<asrwt>0</asrwt>
<pdfrwt beam="2">  1        2 0.11655962E-02 0.43398550E+02</pdfrwt>
<pdfrwt beam="1">  1       -2 0.95612706E-02 0.43398550E+02</pdfrwt>
<totfact> 0.55081778E+05</totfact>
</mgrwt>
</event>
<event>
 4    1  0.2126213E+000  0.3385869E+02  0.7546771E-02  0.1558976E+00
          2   -1    0    0  501    0  0.00000000000E+00  0.00000000000E+00  0.55356657288E+02  0.55356657288E+02  0.00000000000E+00 0.  1.
         -2   -1    0    0    0  501 -0.00000000000E+00 -0.00000000000E+00 -0.51773848499E+01  0.51773848499E+01  0.00000000000E+00 0. -1.
        -11    1    1    2    0    0  0.15485400491E+02 -0.24849455854E+01  0.36485668302E+02  0.39713682459E+02  0.00000000000E+00 0.  1.
         11    1    1    2    0    0 -0.15485400491E+02  0.24849455854E+01  0.13693604135E+02  0.20820359679E+02  0.00000000000E+00 0. -1.
<mgrwt>
<rscale>  0 0.33858690E+02</rscale>
<asrwt>0</asrwt>
<pdfrwt beam="1">  1        2 0.85164084E-02 0.33858690E+02</pdfrwt>
<pdfrwt beam="2">  1       -2 0.79652078E-03 0.33858690E+02</pdfrwt>
<totfact> 0.13833014E+06</totfact>
</mgrwt>
</event>
<event>
 4    1  0.2126213E+000  0.2299754E+02  0.7546771E-02  0.1691550E+00
          4   -1    0    0  501    0  0.00000000000E+00  0.00000000000E+00  0.25813513441E+01  0.25813513441E+01  0.00000000000E+00 0. -1.
         -4   -1    0    0    0  501 -0.00000000000E+00 -0.00000000000E+00 -0.51221882967E+02  0.51221882967E+02  0.00000000000E+00 0.  1.
        -13    1    1    2    0    0 -0.62685337740E+01  0.83457025055E+01 -0.13033095928E+02  0.16697510457E+02  0.00000000000E+00 0. -1.
         13    1    1    2    0    0  0.62685337740E+01 -0.83457025055E+01 -0.35607435695E+02  0.37105723855E+02  0.00000000000E+00 0.  1.
<mgrwt>
<rscale>  0 0.22997537E+02</rscale>
<asrwt>0</asrwt>
<pdfrwt beam="1">  1        4 0.39713103E-03 0.22997537E+02</pdfrwt>
<pdfrwt beam="2">  1       -4 0.78802887E-02 0.22997537E+02</pdfrwt>
<totfact> 0.85192435E+05</totfact>
</mgrwt>
</event>
<event>
 4    1  0.2126213E+000  0.2022209E+02  0.7546771E-02  0.1740947E+00
         -4   -1    0    0    0  501 -0.00000000000E+00  0.00000000000E+00  0.18586866054E+02  0.18586866054E+02  0.00000000000E+00 0.  1.
          4   -1    0    0  501    0  0.00000000000E+00 -0.00000000000E+00 -0.55002955750E+01  0.55002955750E+01  0.00000000000E+00 0. -1.
        -13    1    1    2    0    0 -0.76834033989E+01  0.65050427914E+01  0.76625603214E+01  0.12651683690E+02  0.00000000000E+00 0.  1.
         13    1    1    2    0    0  0.76834033989E+01 -0.65050427914E+01  0.54240101576E+01  0.11435477939E+02  0.00000000000E+00 0. -1.
<mgrwt>
<rscale>  0 0.20222093E+02</rscale>
<asrwt>0</asrwt>
<pdfrwt beam="2">  1        4 0.84619933E-03 0.20222093E+02</pdfrwt>
<pdfrwt beam="1">  1       -4 0.28595178E-02 0.20222093E+02</pdfrwt>
<totfact> 0.12492168E+06</totfact>
</mgrwt>
</event>
<event>
 4    1  0.2126213E+000  0.2737210E+02  0.7546771E-02  0.1629096E+00
          1   -1    0    0  501    0  0.00000000000E+00  0.00000000000E+00  0.29554070142E+01  0.29554070142E+01  0.00000000000E+00 0. -1.
         -1   -1    0    0    0  501 -0.00000000000E+00 -0.00000000000E+00 -0.63378070272E+02  0.63378070272E+02  0.00000000000E+00 0.  1.
        -13    1    1    2    0    0  0.91002371516E+01 -0.89763714964E+01 -0.42063313140E+02  0.43962619051E+02  0.00000000000E+00 0. -1.
         13    1    1    2    0    0 -0.91002371516E+01  0.89763714964E+01 -0.18359350117E+02  0.22370858235E+02  0.00000000000E+00 0.  1.
<mgrwt>
<rscale>  0 0.27372102E+02</rscale>
<asrwt>0</asrwt>
<pdfrwt beam="1">  1        1 0.45467802E-03 0.27372102E+02</pdfrwt>
<pdfrwt beam="2">  1       -1 0.97504720E-02 0.27372102E+02</pdfrwt>
<totfact> 0.16777588E+06</totfact>
</mgrwt>
</event>
<event>
 4    1  0.2126213E+000  0.4422920E+02  0.7546771E-02  0.1479212E+00
          2   -1    0    0  501    0  0.00000000000E+00  0.00000000000E+00  0.12784181054E+03  0.12784181054E+03  0.00000000000E+00 0. -1.
         -2   -1    0    0    0  501 -0.00000000000E+00 -0.00000000000E+00 -0.38254746083E+01  0.38254746083E+01  0.00000000000E+00 0.  1.
        -11    1    1    2    0    0 -0.17015421185E+02  0.75448455285E+01  0.97558052635E+02  0.99317787360E+02  0.00000000000E+00 0. -1.
         11    1    1    2    0    0  0.17015421185E+02 -0.75448455285E+01  0.26458283296E+02  0.32349497788E+02  0.00000000000E+00 0.  1.
<mgrwt>
<rscale>  0 0.44229203E+02</rscale>
<asrwt>0</asrwt>
<pdfrwt beam="1">  1        2 0.19667968E-01 0.44229203E+02</pdfrwt>
<pdfrwt beam="2">  1       -2 0.58853466E-03 0.44229203E+02</pdfrwt>
<totfact> 0.87039913E+05</totfact>
</mgrwt>
</event>
<event>
 4    1  0.2126213E+000  0.2378244E+02  0.7546771E-02  0.1679132E+00
         -2   -1    0    0    0  501 -0.00000000000E+00  0.00000000000E+00  0.11142604612E+02  0.11142604612E+02  0.00000000000E+00 0.  1.
          2   -1    0    0  501    0  0.00000000000E+00 -0.00000000000E+00 -0.12690136045E+02  0.12690136045E+02  0.00000000000E+00 0. -1.
        -11    1    1    2    0    0 -0.26004476428E+01 -0.10282332709E+02 -0.61621693970E+01  0.12266255564E+02  0.00000000000E+00 0. -1.
         11    1    1    2    0    0  0.26004476428E+01  0.10282332709E+02  0.46146379639E+01  0.11566485094E+02  0.00000000000E+00 0.  1.
<mgrwt>
<rscale>  0 0.23782445E+02</rscale>
<asrwt>0</asrwt>
<pdfrwt beam="2">  1        2 0.19523286E-02 0.23782445E+02</pdfrwt>
<pdfrwt beam="1">  1       -2 0.17142468E-02 0.23782445E+02</pdfrwt>
<totfact> 0.26907179E+06</totfact>
</mgrwt>
</event>
<event>
 4    1  0.2126213E+000  0.2233435E+02  0.7546771E-02  0.1702533E+00
         -2   -1    0    0    0  501 -0.00000000000E+00  0.00000000000E+00  0.15028901623E+01  0.15028901623E+01  0.00000000000E+00 0.  1.
          2   -1    0    0  501    0  0.00000000000E+00 -0.00000000000E+00 -0.82977323238E+02  0.82977323238E+02  0.00000000000E+00 0. -1.
        -11    1    1    2    0    0  0.10153258052E+02  0.69532529982E+00 -0.58126000118E+02  0.59010202644E+02  0.00000000000E+00 0.  1.
         11    1    1    2    0    0 -0.10153258052E+02 -0.69532529982E+00 -0.23348432957E+02  0.25470010756E+02  0.00000000000E+00 0. -1.
<mgrwt>
<rscale>  0 0.22334350E+02</rscale>
<asrwt>0</asrwt>
<pdfrwt beam="2">  1        2 0.12765744E-01 0.22334350E+02</pdfrwt>
<pdfrwt beam="1">  1       -2 0.23121384E-03 0.22334350E+02</pdfrwt>
<totfact> 0.39595952E+06</totfact>
</mgrwt>
</event>
<event>
 4    1  0.2126213E+000  0.3797150E+02  0.7546771E-02  0.1523693E+00
         -4   -1    0    0    0  501 -0.00000000000E+00  0.00000000000E+00  0.61542781013E+02  0.61542781013E+02  0.00000000000E+00 0. -1.
          4   -1    0    0  501    0  0.00000000000E+00 -0.00000000000E+00 -0.58570419430E+01  0.58570419430E+01  0.00000000000E+00 0.  1.
        -11    1    1    2    0    0  0.88516619019E+01 -0.16347521502E+02  0.20999224676E+02  0.28045691553E+02  0.00000000000E+00 0.  1.
         11    1    1    2    0    0 -0.88516619019E+01  0.16347521502E+02  0.34686514394E+02  0.39354131403E+02  0.00000000000E+00 0. -1.
<mgrwt>
<rscale>  0 0.37971497E+02</rscale>
<asrwt>0</asrwt>
<pdfrwt beam="2">  1        4 0.90108342E-03 0.37971497E+02</pdfrwt>
<pdfrwt beam="1">  1       -4 0.94681197E-02 0.37971497E+02</pdfrwt>
<totfact> 0.26610177E+05</totfact>
</mgrwt>
</event>
<event>
 4    1  0.2126213E+000  0.4387872E+02  0.7546771E-02  0.1481465E+00
          2   -1    0    0  501    0  0.00000000000E+00  0.00000000000E+00  0.16272386893E+02  0.16272386893E+02  0.00000000000E+00 0. -1.
         -2   -1    0    0    0  501 -0.00000000000E+00 -0.00000000000E+00 -0.29579894026E+02  0.29579894026E+02  0.00000000000E+00 0.  1.
        -13    1    1    2    0    0 -0.20353288595E+02  0.27594005424E+01 -0.14711936249E+02  0.25264831608E+02  0.00000000000E+00 0.  1.
         13    1    1    2    0    0  0.20353288595E+02 -0.27594005424E+01  0.14044291163E+01  0.20587449311E+02  0.00000000000E+00 0. -1.
<mgrwt>
<rscale>  0 0.43878718E+02</rscale>
<asrwt>0</asrwt>
<pdfrwt beam="1">  1        2 0.25034442E-02 0.43878718E+02</pdfrwt>
<pdfrwt beam="2">  1       -2 0.45507529E-02 0.43878718E+02</pdfrwt>
<totfact> 0.60329676E+05</totfact>
</mgrwt>
</event>
<event>
 4    1  0.2126213E+000  0.3687820E+02  0.7546771E-02  0.1532527E+00
          1   -1    0    0  501    0  0.00000000000E+00  0.00000000000E+00  0.52876509192E+01  0.52876509192E+01  0.00000000000E+00 0.  1.
         -1   -1    0    0    0  501 -0.00000000000E+00 -0.00000000000E+00 -0.64300858767E+02  0.64300858767E+02  0.00000000000E+00 0. -1.
        -13    1    1    2    0    0 -0.11531493650E+01  0.15133379177E+02 -0.49266069981E+02  0.51550893010E+02  0.00000000000E+00 0. -1.
         13    1    1    2    0    0  0.11531493650E+01 -0.15133379177E+02 -0.97471378670E+01  0.18037616676E+02  0.00000000000E+00 0.  1.
<mgrwt>
<rscale>  0 0.36878205E+02</rscale>
<asrwt>0</asrwt>
<pdfrwt beam="1">  1        1 0.81348477E-03 0.36878205E+02</pdfrwt>
<pdfrwt beam="2">  1       -1 0.98924397E-02 0.36878205E+02</pdfrwt>
<totfact> 0.83126839E+05</totfact>
</mgrwt>
</event>
<event>
 4    1  0.2126213E+000  0.2346199E+02  0.7546771E-02  0.1684129E+00
          2   -1    0    0  501    0  0.00000000000E+00  0.00000000000E+00  0.17800881240E+02  0.17800881240E+02  0.00000000000E+00 0. -1.
         -2   -1    0    0    0  501 -0.00000000000E+00 -0.00000000000E+00 -0.77308660554E+01  0.77308660554E+01  0.00000000000E+00 0.  1.
        -13    1    1    2    0    0 -0.10334520600E+02 -0.43590730455E+01  0.87751203097E+01  0.14241017179E+02  0.00000000000E+00 0. -1.
         13    1    1    2    0    0  0.10334520600E+02  0.43590730455E+01  0.12948948753E+01  0.11290730117E+02  0.00000000000E+00 0.  1.
<mgrwt>
<rscale>  0 0.23461989E+02</rscale>
<asrwt>0</asrwt>
<pdfrwt beam="1">  1        2 0.27385971E-02 0.23461989E+02</pdfrwt>
<pdfrwt beam="2">  1       -2 0.11893640E-02 0.23461989E+02</pdfrwt>
<totfact> 0.28606594E+06</totfact>
</mgrwt>
</event>
<event>
 4    1  0.2126213E+000  0.2777956E+02  0.7546771E-02  0.1624015E+00
          4   -1    0    0  501    0  0.00000000000E+00  0.00000000000E+00  0.28403042528E+02  0.28403042528E+02  0.00000000000E+00 0. -1.
         -4   -1    0    0    0  501 -0.00000000000E+00 -0.00000000000E+00 -0.67924426278E+01  0.67924426278E+01  0.00000000000E+00 0.  1.
        -13    1    1    2    0    0  0.31833572844E+01  0.12124383843E+02  0.18385000230E+02  0.22251801739E+02  0.00000000000E+00 0.  1.
         13    1    1    2    0    0 -0.31833572844E+01 -0.12124383843E+02  0.32255996704E+01  0.12943683417E+02  0.00000000000E+00 0. -1.
<mgrwt>
<rscale>  0 0.27779563E+02</rscale>
<asrwt>0</asrwt>
<pdfrwt beam="1">  1        4 0.43696988E-02 0.27779563E+02</pdfrwt>
<pdfrwt beam="2">  1       -4 0.10449912E-02 0.27779563E+02</pdfrwt>
<totfact> 0.60590628E+05</totfact>
</mgrwt>
</event>
<event>
 4    1  0.2126213E+000  0.2153581E+02  0.7546771E-02  0.1716406E+00
         -3   -1    0    0    0  501 -0.00000000000E+00  0.00000000000E+00  0.47685445332E+01  0.47685445332E+01  0.00000000000E+00 0. -1.
          3   -1    0    0  501    0  0.00000000000E+00 -0.00000000000E+00 -0.24315135394E+02  0.24315135394E+02  0.00000000000E+00 0.  1.
        -11    1    1    2    0    0  0.10372238425E+02 -0.28909799474E+01 -0.98839273054E+01  0.14616193553E+02  0.00000000000E+00 0.  1.
         11    1    1    2    0    0 -0.10372238425E+02  0.28909799474E+01 -0.96626635555E+01  0.14467486374E+02  0.00000000000E+00 0. -1.
<mgrwt>
<rscale>  0 0.21535813E+02</rscale>
<asrwt>0</asrwt>
<pdfrwt beam="2">  1        3 0.37407900E-02 0.21535813E+02</pdfrwt>
<pdfrwt beam="1">  1       -3 0.73362224E-03 0.21535813E+02</pdfrwt>
<totfact> 0.14746382E+06</totfact>
</mgrwt>
</event>
<event>
 4    1  0.2126213E+000  0.3763448E+02  0.7546771E-02  0.1526377E+00
         -2   -1    0    0    0  501 -0.00000000000E+00  0.00000000000E+00  0.60952515210E+02  0.60952515210E+02  0.00000000000E+00 0.  1.
          2   -1    0    0  501    0  0.00000000000E+00 -0.00000000000E+00 -0.58092534792E+01  0.58092534792E+01  0.00000000000E+00 0. -1.
        -13    1    1    2    0    0  0.11050635818E+02 -0.10796697631E+01  0.54522064437E+02  0.55641151581E+02  0.00000000000E+00 0.  1.
         13    1    1    2    0    0 -0.11050635818E+02  0.10796697631E+01  0.62119729340E+00  0.11120617108E+02  0.00000000000E+00 0. -1.
<mgrwt>
<rscale>  0 0.37634485E+02</rscale>
<asrwt>0</asrwt>
<pdfrwt beam="2">  1        2 0.89373134E-03 0.37634485E+02</pdfrwt>
<pdfrwt beam="1">  1       -2 0.93773096E-02 0.37634485E+02</pdfrwt>
<totfact> 0.77591476E+05</totfact>
</mgrwt>
</event>
<event>
 4    1  0.2126213E+000  0.6129880E+02  0.7546771E-02  0.1392461E+00
          2   -1    0    0  501    0  0.00000000000E+00  0.00000000000E+00  0.25641082264E+02  0.25641082264E+02  0.00000000000E+00 0. -1.
         -2   -1    0    0    0  501 -0.00000000000E+00 -0.00000000000E+00 -0.36635964280E+02  0.36635964280E+02  0.00000000000E+00 0.  1.
        -13    1    1    2    0    0 -0.15831832362E+02  0.87151831541E+01  0.19652089832E+02  0.26698426323E+02  0.00000000000E+00 0. -1.
         13    1    1    2    0    0  0.15831832362E+02 -0.87151831541E+01 -0.30646971848E+02  0.35578620221E+02  0.00000000000E+00 0.  1.
<mgrwt>
<rscale>  0 0.61298802E+02</rscale>
<asrwt>0</asrwt>
<pdfrwt beam="1">  1        2 0.39447819E-02 0.61298802E+02</pdfrwt>
<pdfrwt beam="2">  1       -2 0.56363022E-02 0.61298802E+02</pdfrwt>
<totfact> 0.26481762E+05</totfact>
</mgrwt>
</event>
<event>
 4    1  0.2126213E+000  0.2343649E+02  0.7546771E-02  0.1684531E+00
          2   -1    0    0  501    0  0.00000000000E+00  0.00000000000E+00  0.52290156984E+02  0.52290156984E+02  0.00000000000E+00 0. -1.
         -2   -1    0    0    0  501 -0.00000000000E+00 -0.00000000000E+00 -0.26260623062E+01  0.26260623062E+01  0.00000000000E+00 0.  1.
        -13    1    1    2    0    0  0.39720351610E+01  0.92992731722E+01  0.38707169187E+02  0.40006230656E+02  0.00000000000E+00 0. -1.
         13    1    1    2    0    0 -0.39720351610E+01 -0.92992731722E+01  0.10956925491E+02  0.14909988634E+02  0.00000000000E+00 0.  1.
<mgrwt>
<rscale>  0 0.23436485E+02</rscale>
<asrwt>0</asrwt>
<pdfrwt beam="1">  1        2 0.80446388E-02 0.23436485E+02</pdfrwt>
<pdfrwt beam="2">  1       -2 0.40400962E-03 0.23436485E+02</pdfrwt>
<totfact> 0.32605722E+06</totfact>
</mgrwt>
</event>
<event>
 4    1  0.2126213E+000  0.2140324E+02  0.7546771E-02  0.1718782E+00
          2   -1    0    0  501    0  0.00000000000E+00  0.00000000000E+00  0.11271355563E+02  0.11271355563E+02  0.00000000000E+00 0.  1.
         -2   -1    0    0    0  501 -0.00000000000E+00 -0.00000000000E+00 -0.10160687626E+02  0.10160687626E+02  0.00000000000E+00 0. -1.
        -13    1    1    2    0    0 -0.77212802292E+01  0.64270830105E+01 -0.31373315783E+01  0.10524657421E+02  0.00000000000E+00 0. -1.
         13    1    1    2    0    0  0.77212802292E+01 -0.64270830105E+01  0.42479995153E+01  0.10907385768E+02  0.00000000000E+00 0.  1.
<mgrwt>
<rscale>  0 0.21403245E+02</rscale>
<asrwt>0</asrwt>
<pdfrwt beam="1">  1        2 0.17340547E-02 0.21403245E+02</pdfrwt>
<pdfrwt beam="2">  1       -2 0.15631827E-02 0.21403245E+02</pdfrwt>
<totfact> 0.34070764E+06</totfact>
</mgrwt>
</event>
<event>
 4    1  0.2126213E+000  0.3632559E+02  0.7546771E-02  0.1537134E+00
         -2   -1    0    0    0  501 -0.00000000000E+00  0.00000000000E+00  0.17369184541E+02  0.17369184541E+02  0.00000000000E+00 0.  1.
          2   -1    0    0  501    0  0.00000000000E+00 -0.00000000000E+00 -0.18992667583E+02  0.18992667583E+02  0.00000000000E+00 0. -1.
        -13    1    1    2    0    0  0.43138782725E+01  0.16466582878E+02 -0.71528302162E+01  0.18464042827E+02  0.00000000000E+00 0. -1.
         13    1    1    2    0    0 -0.43138782725E+01 -0.16466582878E+02  0.55293471740E+01  0.17897809296E+02  0.00000000000E+00 0.  1.
<mgrwt>
<rscale>  0 0.36325591E+02</rscale>
<asrwt>0</asrwt>
<pdfrwt beam="2">  1        2 0.29219489E-02 0.36325591E+02</pdfrwt>
<pdfrwt beam="1">  1       -2 0.26721822E-02 0.36325591E+02</pdfrwt>
<totfact> 0.99996742E+05</totfact>
</mgrwt>
</event>
<event>
 4    1  0.2126213E+000  0.3303661E+02  0.7546771E-02  0.1566761E+00
          2   -1    0    0  501    0  0.00000000000E+00  0.00000000000E+00  0.96316906187E+01  0.96316906187E+01  0.00000000000E+00 0.  1.
         -2   -1    0    0    0  501 -0.00000000000E+00 -0.00000000000E+00 -0.28328815410E+02  0.28328815410E+02  0.00000000000E+00 0. -1.
        -13    1    1    2    0    0  0.95726295973E+01 -0.51610988786E+01 -0.23634747710E+02  0.26016792238E+02  0.00000000000E+00 0. -1.
         13    1    1    2    0    0 -0.95726295973E+01  0.51610988786E+01  0.49376229182E+01  0.11943713791E+02  0.00000000000E+00 0.  1.
<mgrwt>
<rscale>  0 0.33036609E+02</rscale>
<asrwt>0</asrwt>
<pdfrwt beam="1">  1        2 0.14817986E-02 0.33036609E+02</pdfrwt>
<pdfrwt beam="2">  1       -2 0.43582793E-02 0.33036609E+02</pdfrwt>
<totfact> 0.11735961E+06</totfact>
</mgrwt>
</event>
<event>
 4    1  0.2126213E+000  0.4467014E+02  0.7546771E-02  0.1476411E+00
         -1   -1    0    0    0  501 -0.00000000000E+00  0.00000000000E+00  0.14965761030E+02  0.14965761030E+02  0.00000000000E+00 0. -1.
          1   -1    0    0  501    0  0.00000000000E+00 -0.00000000000E+00 -0.33333114521E+02  0.33333114521E+02  0.00000000000E+00 0.  1.
        -13    1    1    2    0    0 -0.11226533458E+02 -0.12117063920E+02  0.70707306527E+01  0.17968125208E+02  0.00000000000E+00 0. -1.
         13    1    1    2    0    0  0.11226533458E+02  0.12117063920E+02 -0.25438084143E+02  0.30330750343E+02  0.00000000000E+00 0.  1.
<mgrwt>
<rscale>  0 0.44670143E+02</rscale>
<asrwt>0</asrwt>
<pdfrwt beam="2">  1        1 0.51281714E-02 0.44670143E+02</pdfrwt>
<pdfrwt beam="1">  1       -1 0.23024248E-02 0.44670143E+02</pdfrwt>
<totfact> 0.59875015E+05</totfact>
</mgrwt>
</event>
<event>
 4    1  0.2126213E+000  0.5315786E+02  0.7546771E-02  0.1429017E+00
         -1   -1    0    0    0  501 -0.00000000000E+00  0.00000000000E+00  0.71968738542E+01  0.71968738542E+01  0.00000000000E+00 0.  1.
          1   -1    0    0  501    0  0.00000000000E+00 -0.00000000000E+00 -0.98159202835E+02  0.98159202835E+02  0.00000000000E+00 0. -1.
        -13    1    1    2    0    0 -0.17778364756E+02  0.19673349372E+02 -0.49097049087E+02  0.55799920770E+02  0.00000000000E+00 0. -1.
         13    1    1    2    0    0  0.17778364756E+02 -0.19673349372E+02 -0.41865279894E+02  0.49556155919E+02  0.00000000000E+00 0.  1.
<mgrwt>
<rscale>  0 0.53157856E+02</rscale>
<asrwt>0</asrwt>
<pdfrwt beam="2">  1        1 0.15101415E-01 0.53157856E+02</pdfrwt>
<pdfrwt beam="1">  1       -1 0.11072114E-02 0.53157856E+02</pdfrwt>
<totfact> 0.43125136E+05</totfact>
</mgrwt>
</event>
<event>
 4    1  0.2126213E+000  0.3895855E+02  0.7546771E-02  0.1516018E+00
         -2   -1    0    0    0  501 -0.00000000000E+00  0.00000000000E+00  0.10534144622E+02  0.10534144622E+02  0.00000000000E+00 0. -1.
          2   -1    0    0  501    0  0.00000000000E+00 -0.00000000000E+00 -0.36020213573E+02  0.36020213573E+02  0.00000000000E+00 0.  1.
        -11    1    1    2    0    0 -0.16738263503E+02 -0.10630052372E+01 -0.90481041998E+00  0.16796372439E+02  0.00000000000E+00 0. -1.
         11    1    1    2    0    0  0.16738263503E+02  0.10630052372E+01 -0.24581258532E+02  0.29757985756E+02  0.00000000000E+00 0.  1.
<mgrwt>
<rscale>  0 0.38958549E+02</rscale>
<asrwt>0</asrwt>
<pdfrwt beam="2">  1        2 0.55415712E-02 0.38958549E+02</pdfrwt>
<pdfrwt beam="1">  1       -2 0.16206377E-02 0.38958549E+02</pdfrwt>
<totfact> 0.91357611E+05</totfact>
</mgrwt>
</event>
<event>
 4    1  0.2126213E+000  0.2445033E+02  0.7546771E-02  0.1669025E+00
         -3   -1    0    0    0  501 -0.00000000000E+00  0.00000000000E+00  0.27954359556E+01  0.27954359556E+01  0.00000000000E+00 0.  1.
          3   -1    0    0  501    0  0.00000000000E+00 -0.00000000000E+00 -0.53463831326E+02  0.53463831326E+02  0.00000000000E+00 0. -1.
        -11    1    1    2    0    0 -0.98683207663E+01  0.19329556919E+01 -0.93371983971E+01  0.13722366646E+02  0.00000000000E+00 0.  1.
         11    1    1    2    0    0  0.98683207663E+01 -0.19329556919E+01 -0.41331196973E+02  0.42536900636E+02  0.00000000000E+00 0. -1.
<mgrwt>
<rscale>  0 0.24450335E+02</rscale>
<asrwt>0</asrwt>
<pdfrwt beam="2">  1        3 0.82252057E-02 0.24450335E+02</pdfrwt>
<pdfrwt beam="1">  1       -3 0.43006703E-03 0.24450335E+02</pdfrwt>
<totfact> 0.10238364E+06</totfact>
</mgrwt>
</event>
<event>
 4    1  0.2126213E+000  0.2817335E+02  0.7546771E-02  0.1619204E+00
         -1   -1    0    0    0  501 -0.00000000000E+00  0.00000000000E+00  0.36345441533E+02  0.36345441533E+02  0.00000000000E+00 0. -1.
          1   -1    0    0  501    0  0.00000000000E+00 -0.00000000000E+00 -0.54596790717E+01  0.54596790717E+01  0.00000000000E+00 0.  1.
        -11    1    1    2    0    0 -0.12870859249E+02  0.30182248480E+01  0.82243130014E+01  0.15569458031E+02  0.00000000000E+00 0.  1.
         11    1    1    2    0    0  0.12870859249E+02 -0.30182248480E+01  0.22661449460E+02  0.26235662573E+02  0.00000000000E+00 0. -1.
<mgrwt>
<rscale>  0 0.28173352E+02</rscale>
<asrwt>0</asrwt>
<pdfrwt beam="2">  1        1 0.83995065E-03 0.28173352E+02</pdfrwt>
<pdfrwt beam="1">  1       -1 0.55916062E-02 0.28173352E+02</pdfrwt>
<totfact> 0.16584786E+06</totfact>
</mgrwt>
</event>
<event>
 4    1  0.2126213E+000  0.3067889E+02  0.7546771E-02  0.1590703E+00
          2   -1    0    0  501    0  0.00000000000E+00  0.00000000000E+00  0.45159139305E+02  0.45159139305E+02  0.00000000000E+00 0. -1.
         -2   -1    0    0    0  501 -0.00000000000E+00 -0.00000000000E+00 -0.52104308285E+01  0.52104308285E+01  0.00000000000E+00 0.  1.
        -11    1    1    2    0    0 -0.42473139606E+01  0.11983277441E+02  0.34065436020E+02  0.36360590552E+02  0.00000000000E+00 0. -1.
         11    1    1    2    0    0  0.42473139606E+01 -0.11983277441E+02  0.58832724574E+01  0.14008979582E+02  0.00000000000E+00 0.  1.
<mgrwt>
<rscale>  0 0.30678890E+02</rscale>
<asrwt>0</asrwt>
<pdfrwt beam="1">  1        2 0.69475596E-02 0.30678890E+02</pdfrwt>
<pdfrwt beam="2">  1       -2 0.80160477E-03 0.30678890E+02</pdfrwt>
<totfact> 0.16957938E+06</totfact>
</mgrwt>
</event>
<event>
 4    1  0.2126213E+000  0.2486628E+02  0.7546771E-02  0.1662930E+00
         -2   -1    0    0    0  501 -0.00000000000E+00  0.00000000000E+00  0.21405027622E+01  0.21405027622E+01  0.00000000000E+00 0.  1.
          2   -1    0    0  501    0  0.00000000000E+00 -0.00000000000E+00 -0.72218049858E+02  0.72218049858E+02  0.00000000000E+00 0. -1.
        -13    1    1    2    0    0 -0.69384123903E+01  0.95894730579E+01 -0.23658438515E+02  0.26454135272E+02  0.00000000000E+00 0.  1.
         13    1    1    2    0    0  0.69384123903E+01 -0.95894730579E+01 -0.46419108580E+02  0.47904417348E+02  0.00000000000E+00 0. -1.
<mgrwt>
<rscale>  0 0.24866277E+02</rscale>
<asrwt>0</asrwt>
<pdfrwt beam="2">  1        2 0.11110468E-01 0.24866277E+02</pdfrwt>
<pdfrwt beam="1">  1       -2 0.32930815E-03 0.24866277E+02</pdfrwt>
<totfact> 0.30143072E+06</totfact>
</mgrwt>
</event>
<event>
 4    1  0.2126213E+000  0.2475615E+02  0.7546771E-02  0.1664529E+00
          4   -1    0    0  501    0  0.00000000000E+00  0.00000000000E+00  0.44112146449E+02  0.44112146449E+02  0.00000000000E+00 0.  1.
         -4   -1    0    0    0  501 -0.00000000000E+00 -0.00000000000E+00 -0.34733467744E+01  0.34733467744E+01  0.00000000000E+00 0. -1.
        -13    1    1    2    0    0  0.58756122159E+01 -0.87981948175E+01  0.79687047785E+01  0.13245048388E+02  0.00000000000E+00 0. -1.
         13    1    1    2    0    0 -0.58756122159E+01  0.87981948175E+01  0.32670094896E+02  0.34340444835E+02  0.00000000000E+00 0.  1.
<mgrwt>
<rscale>  0 0.24756153E+02</rscale>
<asrwt>0</asrwt>
<pdfrwt beam="1">  1        4 0.67864837E-02 0.24756153E+02</pdfrwt>
<pdfrwt beam="2">  1       -4 0.53436107E-03 0.24756153E+02</pdfrwt>
<totfact> 0.74469588E+05</totfact>
</mgrwt>
</event>
<event>
 4    1  0.2126213E+000  0.2975641E+02  0.7546771E-02  0.1600797E+00
         -2   -1    0    0    0  501 -0.00000000000E+00  0.00000000000E+00  0.53861416303E+02  0.53861416303E+02  0.00000000000E+00 0.  1.
          2   -1    0    0  501    0  0.00000000000E+00 -0.00000000000E+00 -0.41098251618E+01  0.41098251618E+01  0.00000000000E+00 0. -1.
        -11    1    1    2    0    0  0.14015376526E+02  0.34074638803E+01  0.31985877710E+02  0.35087575609E+02  0.00000000000E+00 0. -1.
         11    1    1    2    0    0 -0.14015376526E+02 -0.34074638803E+01  0.17765713431E+02  0.22883665856E+02  0.00000000000E+00 0.  1.
<mgrwt>
<rscale>  0 0.29756411E+02</rscale>
<asrwt>0</asrwt>
<pdfrwt beam="2">  1        2 0.63228084E-03 0.29756411E+02</pdfrwt>
<pdfrwt beam="1">  1       -2 0.82863712E-02 0.29756411E+02</pdfrwt>
<totfact> 0.13715095E+06</totfact>
</mgrwt>
</event>
<event>
 4    1  0.2126213E+000  0.2551297E+02  0.7546771E-02  0.1653741E+00
         -1   -1    0    0    0  501 -0.00000000000E+00  0.00000000000E+00  0.10354047372E+02  0.10354047372E+02  0.00000000000E+00 0. -1.
          1   -1    0    0  501    0  0.00000000000E+00 -0.00000000000E+00 -0.15716358969E+02  0.15716358969E+02  0.00000000000E+00 0.  1.
        -11    1    1    2    0    0 -0.42364126988E+01  0.11810729167E+02 -0.33147847936E+00  0.12551907983E+02  0.00000000000E+00 0. -1.
         11    1    1    2    0    0  0.42364126988E+01 -0.11810729167E+02 -0.50308331178E+01  0.13518498359E+02  0.00000000000E+00 0.  1.
<mgrwt>
<rscale>  0 0.25512971E+02</rscale>
<asrwt>0</asrwt>
<pdfrwt beam="2">  1        1 0.24179014E-02 0.25512971E+02</pdfrwt>
<pdfrwt beam="1">  1       -1 0.15929304E-02 0.25512971E+02</pdfrwt>
<totfact> 0.22449065E+06</totfact>
</mgrwt>
</event>
<event>
 4    1  0.2126213E+000  0.2157176E+02  0.7546771E-02  0.1715765E+00
         -2   -1    0    0    0  501 -0.00000000000E+00  0.00000000000E+00  0.31449851956E+02  0.31449851956E+02  0.00000000000E+00 0.  1.
          2   -1    0    0  501    0  0.00000000000E+00 -0.00000000000E+00 -0.36990714217E+01  0.36990714217E+01  0.00000000000E+00 0. -1.
        -13    1    1    2    0    0  0.38888100902E+01  0.92573276348E+01  0.20293281004E+02  0.22641515249E+02  0.00000000000E+00 0.  1.
         13    1    1    2    0    0 -0.38888100902E+01 -0.92573276348E+01  0.74574995298E+01  0.12507408128E+02  0.00000000000E+00 0. -1.
<mgrwt>
<rscale>  0 0.21571764E+02</rscale>
<asrwt>0</asrwt>
<pdfrwt beam="2">  1        2 0.56908793E-03 0.21571764E+02</pdfrwt>
<pdfrwt beam="1">  1       -2 0.48384386E-02 0.21571764E+02</pdfrwt>
<totfact> 0.30396412E+06</totfact>
</mgrwt>
</event>
<event>
 4    1  0.2126213E+000  0.3969781E+02  0.7546771E-02  0.1510447E+00
         -2   -1    0    0    0  501 -0.00000000000E+00  0.00000000000E+00  0.78606757914E+01  0.78606757914E+01  0.00000000000E+00 0. -1.
          2   -1    0    0  501    0  0.00000000000E+00 -0.00000000000E+00 -0.50120245504E+02  0.50120245504E+02  0.00000000000E+00 0.  1.
        -13    1    1    2    0    0 -0.13893176922E+02 -0.84542431918E+01 -0.45099265765E+01  0.16877026713E+02  0.00000000000E+00 0. -1.
         13    1    1    2    0    0  0.13893176922E+02  0.84542431918E+01 -0.37749643136E+02  0.41103894583E+02  0.00000000000E+00 0.  1.
<mgrwt>
<rscale>  0 0.39697809E+02</rscale>
<asrwt>0</asrwt>
<pdfrwt beam="2">  1        2 0.77108068E-02 0.39697809E+02</pdfrwt>
<pdfrwt beam="1">  1       -2 0.12093348E-02 0.39697809E+02</pdfrwt>
<totfact> 0.91982346E+05</totfact>
</mgrwt>
</event>
<event>
 4    1  0.2126213E+000  0.3066084E+02  0.7546771E-02  0.1590897E+00
         -4   -1    0    0    0  501 -0.00000000000E+00  0.00000000000E+00  0.65171495605E+01  0.65171495605E+01  0.00000000000E+00 0.  1.
          4   -1    0    0  501    0  0.00000000000E+00 -0.00000000000E+00 -0.36062049540E+02  0.36062049540E+02  0.00000000000E+00 0. -1.
        -11    1    1    2    0    0  0.70910981793E+00 -0.14289546208E+02 -0.22420204158E+02  0.26596231350E+02  0.00000000000E+00 0. -1.
         11    1    1    2    0    0 -0.70910981793E+00  0.14289546208E+02 -0.71246958218E+01  0.15982967750E+02  0.00000000000E+00 0.  1.
<mgrwt>
<rscale>  0 0.30660840E+02</rscale>
<asrwt>0</asrwt>
<pdfrwt beam="2">  1        4 0.55480076E-02 0.30660840E+02</pdfrwt>
<pdfrwt beam="1">  1       -4 0.10026384E-02 0.30660840E+02</pdfrwt>
<totfact> 0.47277144E+05</totfact>
</mgrwt>
</event>
<event>
 4    1  0.2126213E+000  0.2391473E+02  0.7546771E-02  0.1677098E+00
         -2   -1    0    0    0  501 -0.00000000000E+00  0.00000000000E+00  0.31076057799E+02  0.31076057799E+02  0.00000000000E+00 0.  1.
          2   -1    0    0  501    0  0.00000000000E+00 -0.00000000000E+00 -0.46009254772E+01  0.46009254772E+01  0.00000000000E+00 0. -1.
        -11    1    1    2    0    0 -0.94922478971E+01 -0.61184191515E+01  0.73754082828E+01  0.13488308656E+02  0.00000000000E+00 0. -1.
         11    1    1    2    0    0  0.94922478971E+01  0.61184191515E+01  0.19099724039E+02  0.22188674621E+02  0.00000000000E+00 0.  1.
<mgrwt>
<rscale>  0 0.23914734E+02</rscale>
<asrwt>0</asrwt>
<pdfrwt beam="2">  1        2 0.70783471E-03 0.23914734E+02</pdfrwt>
<pdfrwt beam="1">  1       -2 0.47809318E-02 0.23914734E+02</pdfrwt>
<totfact> 0.24207990E+06</totfact>
</mgrwt>
</event>
<event>
 4    1  0.2126213E+000  0.4045843E+02  0.7546771E-02  0.1504865E+00
         -1   -1    0    0    0  501 -0.00000000000E+00  0.00000000000E+00  0.19817580326E+02  0.19817580326E+02  0.00000000000E+00 0. -1.
          1   -1    0    0  501    0  0.00000000000E+00 -0.00000000000E+00 -0.20649404354E+02  0.20649404354E+02  0.00000000000E+00 0.  1.
        -13    1    1    2    0    0  0.90884668920E+00  0.15326991078E+02 -0.13589821956E+02  0.20504290249E+02  0.00000000000E+00 0.  1.
         13    1    1    2    0    0 -0.90884668920E+00 -0.15326991078E+02  0.12757997928E+02  0.19962694431E+02  0.00000000000E+00 0. -1.
<mgrwt>
<rscale>  0 0.40458434E+02</rscale>
<asrwt>0</asrwt>
<pdfrwt beam="2">  1        1 0.31768314E-02 0.40458434E+02</pdfrwt>
<pdfrwt beam="1">  1       -1 0.30488585E-02 0.40458434E+02</pdfrwt>
<totfact> 0.74108417E+05</totfact>
</mgrwt>
</event>
<event>
 4    1  0.2126213E+000  0.3472286E+02  0.7546771E-02  0.1551075E+00
         -2   -1    0    0    0  501 -0.00000000000E+00  0.00000000000E+00  0.89399477194E+02  0.89399477194E+02  0.00000000000E+00 0. -1.
          2   -1    0    0  501    0  0.00000000000E+00 -0.00000000000E+00 -0.33716003960E+01  0.33716003960E+01  0.00000000000E+00 0.  1.
        -13    1    1    2    0    0 -0.77333067606E+01 -0.13438701896E+02  0.63883867098E+02  0.65738506352E+02  0.00000000000E+00 0. -1.
         13    1    1    2    0    0  0.77333067606E+01  0.13438701896E+02  0.22144009700E+02  0.27032571237E+02  0.00000000000E+00 0.  1.
<mgrwt>
<rscale>  0 0.34722864E+02</rscale>
<asrwt>0</asrwt>
<pdfrwt beam="2">  1        2 0.51870782E-03 0.34722864E+02</pdfrwt>
<pdfrwt beam="1">  1       -2 0.13753764E-01 0.34722864E+02</pdfrwt>
<totfact> 0.86990579E+05</totfact>
</mgrwt>
</event>
<event>
 4    1  0.2126213E+000  0.2561995E+02  0.7546771E-02  0.1652254E+00
          4   -1    0    0  501    0  0.00000000000E+00  0.00000000000E+00  0.68041157295E+02  0.68041157295E+02  0.00000000000E+00 0. -1.
         -4   -1    0    0    0  501 -0.00000000000E+00 -0.00000000000E+00 -0.24117096325E+01  0.24117096325E+01  0.00000000000E+00 0.  1.
        -13    1    1    2    0    0  0.98352775730E+00  0.10373103747E+02  0.53306143997E+02  0.54314948182E+02  0.00000000000E+00 0. -1.
         13    1    1    2    0    0 -0.98352775730E+00 -0.10373103747E+02  0.12323303665E+02  0.16137918745E+02  0.00000000000E+00 0.  1.
<mgrwt>
<rscale>  0 0.25619954E+02</rscale>
<asrwt>0</asrwt>
<pdfrwt beam="1">  1        4 0.10467869E-01 0.25619954E+02</pdfrwt>
<pdfrwt beam="2">  1       -4 0.37103230E-03 0.25619954E+02</pdfrwt>
<totfact> 0.64062340E+05</totfact>
</mgrwt>
</event>
<event>
 4    1  0.2126213E+000  0.2919579E+02  0.7546771E-02  0.1607152E+00
          2   -1    0    0  501    0  0.00000000000E+00  0.00000000000E+00  0.81422592855E+01  0.81422592855E+01  0.00000000000E+00 0. -1.
         -2   -1    0    0    0  501 -0.00000000000E+00 -0.00000000000E+00 -0.26171922931E+02  0.26171922931E+02  0.00000000000E+00 0.  1.
        -13    1    1    2    0    0 -0.72616659004E+01 -0.86009830956E+01 -0.19938910367E+02  0.22896917881E+02  0.00000000000E+00 0.  1.
         13    1    1    2    0    0  0.72616659004E+01  0.86009830956E+01  0.19092467210E+01  0.11417264335E+02  0.00000000000E+00 0. -1.
<mgrwt>
<rscale>  0 0.29195793E+02</rscale>
<asrwt>0</asrwt>
<pdfrwt beam="1">  1        2 0.12526553E-02 0.29195793E+02</pdfrwt>
<pdfrwt beam="2">  1       -2 0.40264496E-02 0.29195793E+02</pdfrwt>
<totfact> 0.15717914E+06</totfact>
</mgrwt>
</event>
<event>
 4    1  0.2126213E+000  0.5134561E+02  0.7546771E-02  0.1438216E+00
          1   -1    0    0  501    0  0.00000000000E+00  0.00000000000E+00  0.21393376306E+02  0.21393376306E+02  0.00000000000E+00 0. -1.
         -1   -1    0    0    0  501 -0.00000000000E+00 -0.00000000000E+00 -0.30808274016E+02  0.30808274016E+02  0.00000000000E+00 0.  1.
        -13    1    1    2    0    0 -0.23298308694E+02  0.99069118476E-01  0.62552744632E+01  0.24123628693E+02  0.00000000000E+00 0. -1.
         13    1    1    2    0    0  0.23298308694E+02 -0.99069118476E-01 -0.15670172173E+02  0.28078021630E+02  0.00000000000E+00 0.  1.
<mgrwt>
<rscale>  0 0.51345613E+02</rscale>
<asrwt>0</asrwt>
<pdfrwt beam="1">  1        1 0.32912887E-02 0.51345613E+02</pdfrwt>
<pdfrwt beam="2">  1       -1 0.47397345E-02 0.51345613E+02</pdfrwt>
<totfact> 0.40223892E+05</totfact>
</mgrwt>
</event>
<event>
 4    1  0.2126213E+000  0.5509399E+02  0.7546771E-02  0.1419655E+00
          4   -1    0    0  501    0  0.00000000000E+00  0.00000000000E+00  0.81418812418E+02  0.81418812418E+02  0.00000000000E+00 0. -1.
         -4   -1    0    0    0  501 -0.00000000000E+00 -0.00000000000E+00 -0.93201655890E+01  0.93201655890E+01  0.00000000000E+00 0.  1.
        -13    1    1    2    0    0 -0.20348925715E+02 -0.17037717028E+02  0.48205171388E+02  0.55028184849E+02  0.00000000000E+00 0. -1.
         13    1    1    2    0    0  0.20348925715E+02  0.17037717028E+02  0.23893475441E+02  0.35710793157E+02  0.00000000000E+00 0.  1.
<mgrwt>
<rscale>  0 0.55093986E+02</rscale>
<asrwt>0</asrwt>
<pdfrwt beam="1">  1        4 0.12525971E-01 0.55093986E+02</pdfrwt>
<pdfrwt beam="2">  1       -4 0.14338717E-02 0.55093986E+02</pdfrwt>
<totfact> 0.10079573E+05</totfact>
</mgrwt>
</event>
<event>
 4    1  0.2126213E+000  0.2115743E+02  0.7546771E-02  0.1723245E+00
          2   -1    0    0  501    0  0.00000000000E+00  0.00000000000E+00  0.97469295038E+02  0.97469295038E+02  0.00000000000E+00 0. -1.
         -2   -1    0    0    0  501 -0.00000000000E+00 -0.00000000000E+00 -0.11481479621E+01  0.11481479621E+01  0.00000000000E+00 0.  1.
        -13    1    1    2    0    0 -0.10297446199E+02 -0.22933819598E+01  0.44513637583E+02  0.45746704033E+02  0.00000000000E+00 0. -1.
         13    1    1    2    0    0  0.10297446199E+02  0.22933819598E+01  0.51807509493E+02  0.52870738967E+02  0.00000000000E+00 0.  1.
<mgrwt>
<rscale>  0 0.21157426E+02</rscale>
<asrwt>0</asrwt>
<pdfrwt beam="1">  1        2 0.14995270E-01 0.21157426E+02</pdfrwt>
<pdfrwt beam="2">  1       -2 0.17663822E-03 0.21157426E+02</pdfrwt>
<totfact> 0.46299007E+06</totfact>
</mgrwt>
</event>
<event>
 4    1  0.2126213E+000  0.2918574E+02  0.7546771E-02  0.1607268E+00
          2   -1    0    0  501    0  0.00000000000E+00  0.00000000000E+00  0.37067321069E+01  0.37067321069E+01  0.00000000000E+00 0.  1.
         -2   -1    0    0    0  501 -0.00000000000E+00 -0.00000000000E+00 -0.57450007759E+02  0.57450007759E+02  0.00000000000E+00 0. -1.
        -11    1    1    2    0    0  0.63906692390E+01 -0.11808303602E+02 -0.38849578402E+02  0.41104335894E+02  0.00000000000E+00 0. -1.
         11    1    1    2    0    0 -0.63906692390E+01  0.11808303602E+02 -0.14893697250E+02  0.20052403972E+02  0.00000000000E+00 0.  1.
<mgrwt>
<rscale>  0 0.29185735E+02</rscale>
<asrwt>0</asrwt>
<pdfrwt beam="1">  1        2 0.57026647E-03 0.29185735E+02</pdfrwt>
<pdfrwt beam="2">  1       -2 0.88384629E-02 0.29185735E+02</pdfrwt>
<totfact> 0.14194767E+06</totfact>
</mgrwt>
</event>
<event>
 4    1  0.2126213E+000  0.3454098E+02  0.7546771E-02  0.1552715E+00
          2   -1    0    0  501    0  0.00000000000E+00  0.00000000000E+00  0.44205431796E+02  0.44205431796E+02  0.00000000000E+00 0.  1.
         -2   -1    0    0    0  501 -0.00000000000E+00 -0.00000000000E+00 -0.67473587804E+01  0.67473587804E+01  0.00000000000E+00 0. -1.
        -13    1    1    2    0    0 -0.50683707443E+01 -0.11885941076E+02  0.18255835171E+01  0.13049779019E+02  0.00000000000E+00 0. -1.
         13    1    1    2    0    0  0.50683707443E+01  0.11885941076E+02  0.35632489498E+02  0.37903011557E+02  0.00000000000E+00 0.  1.
<mgrwt>
<rscale>  0 0.34540985E+02</rscale>
<asrwt>0</asrwt>
<pdfrwt beam="1">  1        2 0.68008355E-02 0.34540985E+02</pdfrwt>
<pdfrwt beam="2">  1       -2 0.10380552E-02 0.34540985E+02</pdfrwt>
<totfact> 0.12689601E+06</totfact>
</mgrwt>
</event>
<event>
 4    1  0.2126213E+000  0.2390592E+02  0.7546771E-02  0.1677233E+00
          2   -1    0    0  501    0  0.00000000000E+00  0.00000000000E+00  0.18869819574E+02  0.18869819574E+02  0.00000000000E+00 0. -1.
         -2   -1    0    0    0  501 -0.00000000000E+00 -0.00000000000E+00 -0.75715216393E+01  0.75715216393E+01  0.00000000000E+00 0.  1.
        -13    1    1    2    0    0 -0.11546471897E+02  0.10750205555E+01  0.88541549772E+01  0.14590159109E+02  0.00000000000E+00 0. -1.
         13    1    1    2    0    0  0.11546471897E+02 -0.10750205555E+01  0.24441429576E+01  0.11851182104E+02  0.00000000000E+00 0.  1.
<mgrwt>
<rscale>  0 0.23905920E+02</rscale>
<asrwt>0</asrwt>
<pdfrwt beam="1">  1        2 0.29030492E-02 0.23905920E+02</pdfrwt>
<pdfrwt beam="2">  1       -2 0.11648495E-02 0.23905920E+02</pdfrwt>
<totfact> 0.27532592E+06</totfact>
</mgrwt>
</event>
<event>
 4    1  0.2126213E+000  0.2231688E+02  0.7546771E-02  0.1702829E+00
         -2   -1    0    0    0  501 -0.00000000000E+00  0.00000000000E+00  0.17471330844E+02  0.17471330844E+02  0.00000000000E+00 0.  1.
          2   -1    0    0  501    0  0.00000000000E+00 -0.00000000000E+00 -0.71265770958E+01  0.71265770958E+01  0.00000000000E+00 0. -1.
        -11    1    1    2    0    0  0.50007521602E+01 -0.92577885211E+01  0.92664064233E+01  0.14020715334E+02  0.00000000000E+00 0.  1.
         11    1    1    2    0    0 -0.50007521602E+01  0.92577885211E+01  0.10783473248E+01  0.10577192606E+02  0.00000000000E+00 0. -1.
<mgrwt>
<rscale>  0 0.22316880E+02</rscale>
<asrwt>0</asrwt>
<pdfrwt beam="2">  1        2 0.10963965E-02 0.22316880E+02</pdfrwt>
<pdfrwt beam="1">  1       -2 0.26878970E-02 0.22316880E+02</pdfrwt>
<totfact> 0.29792906E+06</totfact>
</mgrwt>
</event>
<event>
 4    1  0.2126213E+000  0.2899467E+02  0.7546771E-02  0.1609475E+00
          4   -1    0    0  501    0  0.00000000000E+00  0.00000000000E+00  0.14021902489E+02  0.14021902489E+02  0.00000000000E+00 0. -1.
         -4   -1    0    0    0  501 -0.00000000000E+00 -0.00000000000E+00 -0.14988892410E+02  0.14988892410E+02  0.00000000000E+00 0.  1.
        -13    1    1    2    0    0 -0.29471017376E+01 -0.11946821938E+02 -0.81533177880E+01  0.14761048541E+02  0.00000000000E+00 0.  1.
         13    1    1    2    0    0  0.29471017376E+01  0.11946821938E+02  0.71863278670E+01  0.14249746359E+02  0.00000000000E+00 0. -1.
<mgrwt>
<rscale>  0 0.28994675E+02</rscale>
<asrwt>0</asrwt>
<pdfrwt beam="1">  1        4 0.21572158E-02 0.28994675E+02</pdfrwt>
<pdfrwt beam="2">  1       -4 0.23059834E-02 0.28994675E+02</pdfrwt>
<totfact> 0.56404181E+05</totfact>
</mgrwt>
</event>
<event>
 4    1  0.2126213E+000  0.4015033E+02  0.7546771E-02  0.1507108E+00
          2   -1    0    0  501    0  0.00000000000E+00  0.00000000000E+00  0.59414192069E+01  0.59414192069E+01  0.00000000000E+00 0. -1.
         -2   -1    0    0    0  501 -0.00000000000E+00 -0.00000000000E+00 -0.67830961328E+02  0.67830961328E+02  0.00000000000E+00 0.  1.
        -13    1    1    2    0    0 -0.92847577670E+01  0.15579645824E+02 -0.46759270715E+02  0.50153379632E+02  0.00000000000E+00 0. -1.
         13    1    1    2    0    0  0.92847577670E+01 -0.15579645824E+02 -0.15130271407E+02  0.23619000903E+02  0.00000000000E+00 0.  1.
<mgrwt>
<rscale>  0 0.40150326E+02</rscale>
<asrwt>0</asrwt>
<pdfrwt beam="1">  1        2 0.91406448E-03 0.40150326E+02</pdfrwt>
<pdfrwt beam="2">  1       -2 0.10435533E-01 0.40150326E+02</pdfrwt>
<totfact> 0.65249088E+05</totfact>
</mgrwt>
</event>
<event>
 4    1  0.2126213E+000  0.2130638E+02  0.7546771E-02  0.1720531E+00
         -2   -1    0    0    0  501 -0.00000000000E+00  0.00000000000E+00  0.34466084267E+01  0.34466084267E+01  0.00000000000E+00 0. -1.
          2   -1    0    0  501    0  0.00000000000E+00 -0.00000000000E+00 -0.32928166024E+02  0.32928166024E+02  0.00000000000E+00 0.  1.
        -11    1    1    2    0    0  0.11581575373E+01  0.10109391827E+02 -0.20125809660E+02  0.22551925560E+02  0.00000000000E+00 0.  1.
         11    1    1    2    0    0 -0.11581575373E+01 -0.10109391827E+02 -0.93557479375E+01  0.13822848891E+02  0.00000000000E+00 0. -1.
<mgrwt>
<rscale>  0 0.21306384E+02</rscale>
<asrwt>0</asrwt>
<pdfrwt beam="2">  1        2 0.50658715E-02 0.21306384E+02</pdfrwt>
<pdfrwt beam="1">  1       -2 0.53024747E-03 0.21306384E+02</pdfrwt>
<totfact> 0.38005199E+06</totfact>
</mgrwt>
</event>
<event>
 4    1  0.2126213E+000  0.2945990E+02  0.7546771E-02  0.1604137E+00
          4   -1    0    0  501    0  0.00000000000E+00  0.00000000000E+00  0.65289528160E+01  0.65289528160E+01  0.00000000000E+00 0. -1.
         -4   -1    0    0    0  501 -0.00000000000E+00 -0.00000000000E+00 -0.33232184967E+02  0.33232184967E+02  0.00000000000E+00 0.  1.
        -13    1    1    2    0    0  0.13104631628E+02 -0.92848199919E+00 -0.43605526847E+01  0.13842249407E+02  0.00000000000E+00 0. -1.
         13    1    1    2    0    0 -0.13104631628E+02  0.92848199919E+00 -0.22342679467E+02  0.25918888377E+02  0.00000000000E+00 0.  1.
<mgrwt>
<rscale>  0 0.29459896E+02</rscale>
<asrwt>0</asrwt>
<pdfrwt beam="1">  1        4 0.10044543E-02 0.29459896E+02</pdfrwt>
<pdfrwt beam="2">  1       -4 0.51126438E-02 0.29459896E+02</pdfrwt>
<totfact> 0.52269039E+05</totfact>
</mgrwt>
</event>
<event>
 4    1  0.2126213E+000  0.3424289E+02  0.7546771E-02  0.1555429E+00
          2   -1    0    0  501    0  0.00000000000E+00  0.00000000000E+00  0.39167536864E+01  0.39167536864E+01  0.00000000000E+00 0. -1.
         -2   -1    0    0    0  501 -0.00000000000E+00 -0.00000000000E+00 -0.74843570882E+02  0.74843570882E+02  0.00000000000E+00 0.  1.
        -11    1    1    2    0    0 -0.96700595313E+01  0.10944642305E+02 -0.56016196239E+02  0.57888768233E+02  0.00000000000E+00 0.  1.
         11    1    1    2    0    0  0.96700595313E+01 -0.10944642305E+02 -0.14910620957E+02  0.20871556335E+02  0.00000000000E+00 0. -1.
<mgrwt>
<rscale>  0 0.34242887E+02</rscale>
<asrwt>0</asrwt>
<pdfrwt beam="1">  1        2 0.60257750E-03 0.34242887E+02</pdfrwt>
<pdfrwt beam="2">  1       -2 0.11514395E-01 0.34242887E+02</pdfrwt>
<totfact> 0.93316540E+05</totfact>
</mgrwt>
</event>
<event>
 4    1  0.2126213E+000  0.4407189E+02  0.7546771E-02  0.1480220E+00
         -4   -1    0    0    0  501 -0.00000000000E+00  0.00000000000E+00  0.95009293195E+01  0.95009293195E+01  0.00000000000E+00 0.  1.
          4   -1    0    0  501    0  0.00000000000E+00 -0.00000000000E+00 -0.51108982111E+02  0.51108982111E+02  0.00000000000E+00 0. -1.
        -13    1    1    2    0    0  0.12791974962E+02 -0.37311587206E+01  0.33325765428E+01  0.13735437206E+02  0.00000000000E+00 0.  1.
         13    1    1    2    0    0 -0.12791974962E+02  0.37311587206E+01 -0.44940629334E+02  0.46874474224E+02  0.00000000000E+00 0. -1.
<mgrwt>
<rscale>  0 0.44071888E+02</rscale>
<asrwt>0</asrwt>
<pdfrwt beam="2">  1        4 0.78629201E-02 0.44071888E+02</pdfrwt>
<pdfrwt beam="1">  1       -4 0.14616815E-02 0.44071888E+02</pdfrwt>
<totfact> 0.19028541E+05</totfact>
</mgrwt>
</event>
<event>
 4    1  0.2126213E+000  0.4248465E+02  0.7546771E-02  0.1490684E+00
          4   -1    0    0  501    0  0.00000000000E+00  0.00000000000E+00  0.22379607205E+02  0.22379607205E+02  0.00000000000E+00 0. -1.
         -4   -1    0    0    0  501 -0.00000000000E+00 -0.00000000000E+00 -0.20162836542E+02  0.20162836542E+02  0.00000000000E+00 0.  1.
        -13    1    1    2    0    0  0.28591356910E+01 -0.10088362181E+02 -0.17390691049E+02  0.20307285480E+02  0.00000000000E+00 0.  1.
         13    1    1    2    0    0 -0.28591356910E+01  0.10088362181E+02  0.19607461712E+02  0.22235158267E+02  0.00000000000E+00 0. -1.
<mgrwt>
<rscale>  0 0.42484650E+02</rscale>
<asrwt>0</asrwt>
<pdfrwt beam="1">  1        4 0.34430165E-02 0.42484650E+02</pdfrwt>
<pdfrwt beam="2">  1       -4 0.31019749E-02 0.42484650E+02</pdfrwt>
<totfact> 0.22023784E+05</totfact>
</mgrwt>
</event>
<event>
 4    1  0.2126213E+000  0.3266615E+02  0.7546771E-02  0.1570359E+00
         -2   -1    0    0    0  501 -0.00000000000E+00  0.00000000000E+00  0.60714926756E+01  0.60714926756E+01  0.00000000000E+00 0.  1.
          2   -1    0    0  501    0  0.00000000000E+00 -0.00000000000E+00 -0.43938008964E+02  0.43938008964E+02  0.00000000000E+00 0. -1.
        -13    1    1    2    0    0 -0.13243746905E+02  0.73036563852E+01 -0.28374137860E+02  0.32153256880E+02  0.00000000000E+00 0. -1.
         13    1    1    2    0    0  0.13243746905E+02 -0.73036563852E+01 -0.94923784280E+01  0.17856244759E+02  0.00000000000E+00 0.  1.
<mgrwt>
<rscale>  0 0.32666148E+02</rscale>
<asrwt>0</asrwt>
<pdfrwt beam="2">  1        2 0.67596936E-02 0.32666148E+02</pdfrwt>
<pdfrwt beam="1">  1       -2 0.93407580E-03 0.32666148E+02</pdfrwt>
<totfact> 0.14517488E+06</totfact>
</mgrwt>
</event>
<event>
 4    1  0.2126213E+000  0.6261785E+02  0.7546771E-02  0.1387163E+00
         -2   -1    0    0    0  501 -0.00000000000E+00  0.00000000000E+00  0.38117233035E+02  0.38117233035E+02  0.00000000000E+00 0.  1.
          2   -1    0    0  501    0  0.00000000000E+00 -0.00000000000E+00 -0.25716679025E+02  0.25716679025E+02  0.00000000000E+00 0. -1.
        -13    1    1    2    0    0 -0.31586370275E+01 -0.26840154974E+02 -0.99142337451E+01  0.28786506173E+02  0.00000000000E+00 0. -1.
         13    1    1    2    0    0  0.31586370275E+01  0.26840154974E+02  0.22314787755E+02  0.35047405888E+02  0.00000000000E+00 0.  1.
<mgrwt>
<rscale>  0 0.62617846E+02</rscale>
<asrwt>0</asrwt>
<pdfrwt beam="2">  1        2 0.39564121E-02 0.62617846E+02</pdfrwt>
<pdfrwt beam="1">  1       -2 0.58641897E-02 0.62617846E+02</pdfrwt>
<totfact> 0.24992167E+05</totfact>
</mgrwt>
</event>
<event>
 4    1  0.2126213E+000  0.2105356E+02  0.7546771E-02  0.1725153E+00
         -2   -1    0    0    0  501 -0.00000000000E+00  0.00000000000E+00  0.34093942110E+02  0.34093942110E+02  0.00000000000E+00 0. -1.
          2   -1    0    0  501    0  0.00000000000E+00 -0.00000000000E+00 -0.32502296943E+01  0.32502296943E+01  0.00000000000E+00 0.  1.
        -11    1    1    2    0    0  0.10265633639E+02  0.19584257852E+01  0.17661641535E+02  0.20521994233E+02  0.00000000000E+00 0. -1.
         11    1    1    2    0    0 -0.10265633639E+02 -0.19584257852E+01  0.13182070880E+02  0.16822177572E+02  0.00000000000E+00 0.  1.
<mgrwt>
<rscale>  0 0.21053564E+02</rscale>
<asrwt>0</asrwt>
<pdfrwt beam="2">  1        2 0.50003536E-03 0.21053564E+02</pdfrwt>
<pdfrwt beam="1">  1       -2 0.52452216E-02 0.21053564E+02</pdfrwt>
<totfact> 0.31789210E+06</totfact>
</mgrwt>
</event>
<event>
 4    1  0.2126213E+000  0.2032681E+02  0.7546771E-02  0.1738906E+00
          4   -1    0    0  501    0  0.00000000000E+00  0.00000000000E+00  0.59438105678E+01  0.59438105678E+01  0.00000000000E+00 0.  1.
         -4   -1    0    0    0  501 -0.00000000000E+00 -0.00000000000E+00 -0.17378545248E+02  0.17378545248E+02  0.00000000000E+00 0. -1.
        -13    1    1    2    0    0 -0.91944852037E+01  0.43062926914E+01 -0.62457380638E+01  0.11920233172E+02  0.00000000000E+00 0. -1.
         13    1    1    2    0    0  0.91944852037E+01 -0.43062926914E+01 -0.51889966162E+01  0.11402122644E+02  0.00000000000E+00 0.  1.
<mgrwt>
<rscale>  0 0.20326808E+02</rscale>
<asrwt>0</asrwt>
<pdfrwt beam="1">  1        4 0.91443240E-03 0.20326808E+02</pdfrwt>
<pdfrwt beam="2">  1       -4 0.26736223E-02 0.20326808E+02</pdfrwt>
<totfact> 0.12402097E+06</totfact>
</mgrwt>
</event>
<event>
 4    1  0.2126213E+000  0.3014986E+02  0.7546771E-02  0.1596438E+00
         -2   -1    0    0    0  501 -0.00000000000E+00  0.00000000000E+00  0.90170537203E+01  0.90170537203E+01  0.00000000000E+00 0. -1.
          2   -1    0    0  501    0  0.00000000000E+00 -0.00000000000E+00 -0.25202638520E+02  0.25202638520E+02  0.00000000000E+00 0.  1.
        -13    1    1    2    0    0  0.12877163303E+02  0.10210764115E+01  0.72727483171E+00  0.12938039281E+02  0.00000000000E+00 0. -1.
         13    1    1    2    0    0 -0.12877163303E+02 -0.10210764115E+01 -0.16912859632E+02  0.21281652960E+02  0.00000000000E+00 0.  1.
<mgrwt>
<rscale>  0 0.30149862E+02</rscale>
<asrwt>0</asrwt>
<pdfrwt beam="2">  1        2 0.38773290E-02 0.30149862E+02</pdfrwt>
<pdfrwt beam="1">  1       -2 0.13872391E-02 0.30149862E+02</pdfrwt>
<totfact> 0.16356615E+06</totfact>
</mgrwt>
</event>
<event>
 4    1  0.2126213E+000  0.3975345E+02  0.7546771E-02  0.1510034E+00
          1   -1    0    0  501    0  0.00000000000E+00  0.00000000000E+00  0.15607526677E+02  0.15607526677E+02  0.00000000000E+00 0.  1.
         -1   -1    0    0    0  501 -0.00000000000E+00 -0.00000000000E+00 -0.25313702365E+02  0.25313702365E+02  0.00000000000E+00 0. -1.
        -11    1    1    2    0    0 -0.35483063242E+01  0.96446704146E+01 -0.22366819115E+02  0.24614726131E+02  0.00000000000E+00 0. -1.
         11    1    1    2    0    0  0.35483063242E+01 -0.96446704146E+01  0.12660643428E+02  0.16306502911E+02  0.00000000000E+00 0.  1.
<mgrwt>
<rscale>  0 0.39753454E+02</rscale>
<asrwt>0</asrwt>
<pdfrwt beam="1">  1        1 0.24011579E-02 0.39753454E+02</pdfrwt>
<pdfrwt beam="2">  1       -1 0.38944158E-02 0.39753454E+02</pdfrwt>
<totfact> 0.75859462E+05</totfact>
</mgrwt>
</event>
<event>
 4    1  0.2126213E+000  0.3046396E+02  0.7546771E-02  0.1593016E+00
          2   -1    0    0  501    0  0.00000000000E+00  0.00000000000E+00  0.18673885422E+02  0.18673885422E+02  0.00000000000E+00 0. -1.
         -2   -1    0    0    0  501 -0.00000000000E+00 -0.00000000000E+00 -0.12424472864E+02  0.12424472864E+02  0.00000000000E+00 0.  1.
        -11    1    1    2    0    0  0.12246227625E+02 -0.12542884697E+01  0.12282012512E+02  0.17389397975E+02  0.00000000000E+00 0. -1.
         11    1    1    2    0    0 -0.12246227625E+02  0.12542884697E+01 -0.60325999537E+01  0.13708960311E+02  0.00000000000E+00 0.  1.
<mgrwt>
<rscale>  0 0.30463958E+02</rscale>
<asrwt>0</asrwt>
<pdfrwt beam="1">  1        2 0.28729055E-02 0.30463958E+02</pdfrwt>
<pdfrwt beam="2">  1       -2 0.19114574E-02 0.30463958E+02</pdfrwt>
<totfact> 0.15428781E+06</totfact>
</mgrwt>
</event>
<event>
 4    1  0.2126213E+000  0.3509511E+02  0.7546771E-02  0.1547758E+00
          2   -1    0    0  501    0  0.00000000000E+00  0.00000000000E+00  0.10584442782E+03  0.10584442782E+03  0.00000000000E+00 0. -1.
         -2   -1    0    0    0  501 -0.00000000000E+00 -0.00000000000E+00 -0.29091432952E+01  0.29091432952E+01  0.00000000000E+00 0.  1.
        -11    1    1    2    0    0 -0.13853902580E+02 -0.81924938248E+01  0.29804878714E+02  0.33872973990E+02  0.00000000000E+00 0.  1.
         11    1    1    2    0    0  0.13853902580E+02  0.81924938248E+01  0.73130405814E+02  0.74880597128E+02  0.00000000000E+00 0. -1.
<mgrwt>
<rscale>  0 0.35095106E+02</rscale>
<asrwt>0</asrwt>
<pdfrwt beam="1">  1        2 0.16283755E-01 0.35095106E+02</pdfrwt>
<pdfrwt beam="2">  1       -2 0.44756059E-03 0.35095106E+02</pdfrwt>
<totfact> 0.14574900E+06</totfact>
</mgrwt>
</event>
<event>
 4    1  0.2126213E+000  0.8100329E+02  0.7546771E-02  0.1326228E+00
          3   -1    0    0  501    0  0.00000000000E+00  0.00000000000E+00  0.85777777269E+02  0.85777777269E+02  0.00000000000E+00 0. -1.
         -3   -1    0    0    0  501 -0.00000000000E+00 -0.00000000000E+00 -0.19123641101E+02  0.19123641101E+02  0.00000000000E+00 0.  1.
        -11    1    1    2    0    0 -0.26001788289E+02 -0.21918302753E+02  0.61814074465E+02  0.70551291922E+02  0.00000000000E+00 0. -1.
         11    1    1    2    0    0  0.26001788289E+02  0.21918302753E+02  0.48400617028E+01  0.34350126449E+02  0.00000000000E+00 0.  1.
<mgrwt>
<rscale>  0 0.81003294E+02</rscale>
<asrwt>0</asrwt>
<pdfrwt beam="1">  1        3 0.13196581E-01 0.81003294E+02</pdfrwt>
<pdfrwt beam="2">  1       -3 0.29420987E-02 0.81003294E+02</pdfrwt>
<totfact> 0.47213245E+04</totfact>
</mgrwt>
</event>
<event>
 4    1  0.2126213E+000  0.2423345E+02  0.7546771E-02  0.1672263E+00
         -2   -1    0    0    0  501 -0.00000000000E+00  0.00000000000E+00  0.73804876598E+02  0.73804876598E+02  0.00000000000E+00 0. -1.
          2   -1    0    0  501    0  0.00000000000E+00 -0.00000000000E+00 -0.19892318428E+01  0.19892318428E+01  0.00000000000E+00 0.  1.
        -13    1    1    2    0    0 -0.26578979176E+01 -0.10311578589E+02  0.53989387774E+02  0.55029510870E+02  0.00000000000E+00 0. -1.
         13    1    1    2    0    0  0.26578979176E+01  0.10311578589E+02  0.17826256981E+02  0.20764597571E+02  0.00000000000E+00 0.  1.
<mgrwt>
<rscale>  0 0.24233449E+02</rscale>
<asrwt>0</asrwt>
<pdfrwt beam="2">  1        2 0.30603573E-03 0.24233449E+02</pdfrwt>
<pdfrwt beam="1">  1       -2 0.11354594E-01 0.24233449E+02</pdfrwt>
<totfact> 0.20746756E+06</totfact>
</mgrwt>
</event>
<event>
 4    1  0.2126213E+000  0.2524340E+02  0.7546771E-02  0.1657530E+00
          2   -1    0    0  501    0  0.00000000000E+00  0.00000000000E+00  0.13349321620E+02  0.13349321620E+02  0.00000000000E+00 0.  1.
         -2   -1    0    0    0  501 -0.00000000000E+00 -0.00000000000E+00 -0.11933736091E+02  0.11933736091E+02  0.00000000000E+00 0. -1.
        -13    1    1    2    0    0 -0.10996260534E+02 -0.61871442297E+01  0.37745378669E+00  0.12623033344E+02  0.00000000000E+00 0.  1.
         13    1    1    2    0    0  0.10996260534E+02  0.61871442297E+01  0.10381317430E+01  0.12660024367E+02  0.00000000000E+00 0. -1.
<mgrwt>
<rscale>  0 0.25243398E+02</rscale>
<asrwt>0</asrwt>
<pdfrwt beam="1">  1        2 0.20537418E-02 0.25243398E+02</pdfrwt>
<pdfrwt beam="2">  1       -2 0.18359594E-02 0.25243398E+02</pdfrwt>
<totfact> 0.23473458E+06</totfact>
</mgrwt>
</event>
<event>
 4    1  0.2126213E+000  0.2100182E+02  0.7546771E-02  0.1726110E+00
         -2   -1    0    0    0  501 -0.00000000000E+00  0.00000000000E+00  0.49631713120E+01  0.49631713120E+01  0.00000000000E+00 0.  1.
          2   -1    0    0  501    0  0.00000000000E+00 -0.00000000000E+00 -0.22217461518E+02  0.22217461518E+02  0.00000000000E+00 0. -1.
        -13    1    1    2    0    0 -0.62782676411E+01  0.83419812275E+01 -0.71722317616E+01  0.12666736115E+02  0.00000000000E+00 0.  1.
         13    1    1    2    0    0  0.62782676411E+01 -0.83419812275E+01 -0.10082058445E+02  0.14513896715E+02  0.00000000000E+00 0. -1.
<mgrwt>
<rscale>  0 0.21001816E+02</rscale>
<asrwt>0</asrwt>
<pdfrwt beam="2">  1        2 0.34180710E-02 0.21001816E+02</pdfrwt>
<pdfrwt beam="1">  1       -2 0.76356482E-03 0.21001816E+02</pdfrwt>
<totfact> 0.37670225E+06</totfact>
</mgrwt>
</event>
<event>
 4    1  0.2126213E+000  0.3347161E+02  0.7546771E-02  0.1562608E+00
          4   -1    0    0  501    0  0.00000000000E+00  0.00000000000E+00  0.10810488806E+03  0.10810488806E+03  0.00000000000E+00 0.  1.
         -4   -1    0    0    0  501 -0.00000000000E+00 -0.00000000000E+00 -0.25908831857E+01  0.25908831857E+01  0.00000000000E+00 0. -1.
        -11    1    1    2    0    0 -0.63487897312E+01 -0.14772235387E+02  0.68113408283E+02  0.69985444611E+02  0.00000000000E+00 0.  1.
         11    1    1    2    0    0  0.63487897312E+01  0.14772235387E+02  0.37400596592E+02  0.40710326636E+02  0.00000000000E+00 0. -1.
<mgrwt>
<rscale>  0 0.33471608E+02</rscale>
<asrwt>0</asrwt>
<pdfrwt beam="1">  1        4 0.16631518E-01 0.33471608E+02</pdfrwt>
<pdfrwt beam="2">  1       -4 0.39859750E-03 0.33471608E+02</pdfrwt>
<totfact> 0.31546139E+05</totfact>
</mgrwt>
</event>
<event>
 4    1  0.2126213E+000  0.3645516E+02  0.7546771E-02  0.1536045E+00
         -3   -1    0    0    0  501 -0.00000000000E+00  0.00000000000E+00  0.15253498866E+03  0.15253498866E+03  0.00000000000E+00 0. -1.
          3   -1    0    0  501    0  0.00000000000E+00 -0.00000000000E+00 -0.21781535662E+01  0.21781535662E+01  0.00000000000E+00 0.  1.
        -11    1    1    2    0    0  0.17301819673E+02  0.50867685993E+01  0.63936847622E+02  0.66431533647E+02  0.00000000000E+00 0. -1.
         11    1    1    2    0    0 -0.17301819673E+02 -0.50867685993E+01  0.86419987468E+02  0.88281608576E+02  0.00000000000E+00 0.  1.
<mgrwt>
<rscale>  0 0.36455158E+02</rscale>
<asrwt>0</asrwt>
<pdfrwt beam="2">  1        3 0.33510067E-03 0.36455158E+02</pdfrwt>
<pdfrwt beam="1">  1       -3 0.23466913E-01 0.36455158E+02</pdfrwt>
<totfact> 0.32073940E+05</totfact>
</mgrwt>
</event>
<event>
 4    1  0.2126213E+000  0.4308964E+02  0.7546771E-02  0.1486633E+00
         -2   -1    0    0    0  501 -0.00000000000E+00  0.00000000000E+00  0.19028362590E+01  0.19028362590E+01  0.00000000000E+00 0.  1.
          2   -1    0    0  501    0  0.00000000000E+00 -0.00000000000E+00 -0.24394074945E+03  0.24394074945E+03  0.00000000000E+00 0. -1.
        -11    1    1    2    0    0 -0.19205041220E+02  0.96438246376E+01 -0.11228700986E+03  0.11432501714E+03  0.00000000000E+00 0. -1.
         11    1    1    2    0    0  0.19205041220E+02 -0.96438246376E+01 -0.12975090333E+03  0.13151856856E+03  0.00000000000E+00 0.  1.
<mgrwt>
<rscale>  0 0.43089642E+02</rscale>
<asrwt>0</asrwt>
<pdfrwt beam="2">  1        2 0.37529336E-01 0.43089642E+02</pdfrwt>
<pdfrwt beam="1">  1       -2 0.29274412E-03 0.43089642E+02</pdfrwt>
<totfact> 0.11374358E+06</totfact>
</mgrwt>
</event>
<event>
 4    1  0.2126213E+000  0.4892879E+02  0.7546771E-02  0.1451206E+00
          2   -1    0    0  501    0  0.00000000000E+00  0.00000000000E+00  0.10926385997E+03  0.10926385997E+03  0.00000000000E+00 0.  1.
         -2   -1    0    0    0  501 -0.00000000000E+00 -0.00000000000E+00 -0.54776276759E+01  0.54776276759E+01  0.00000000000E+00 0. -1.
        -11    1    1    2    0    0  0.81702606884E+01 -0.18938228543E+02  0.21039872296E+02  0.29463297275E+02  0.00000000000E+00 0.  1.
         11    1    1    2    0    0 -0.81702606884E+01  0.18938228543E+02  0.82746359997E+02  0.85278190370E+02  0.00000000000E+00 0. -1.
<mgrwt>
<rscale>  0 0.48928795E+02</rscale>
<asrwt>0</asrwt>
<pdfrwt beam="1">  1        2 0.16809823E-01 0.48928795E+02</pdfrwt>
<pdfrwt beam="2">  1       -2 0.84271203E-03 0.48928795E+02</pdfrwt>
<totfact> 0.64740393E+05</totfact>
</mgrwt>
</event>
<event>
 4    1  0.2126213E+000  0.3570697E+02  0.7546771E-02  0.1542411E+00
         -2   -1    0    0    0  501 -0.00000000000E+00  0.00000000000E+00  0.56264269271E+01  0.56264269271E+01  0.00000000000E+00 0. -1.
          2   -1    0    0  501    0  0.00000000000E+00 -0.00000000000E+00 -0.56651737100E+02  0.56651737100E+02  0.00000000000E+00 0.  1.
        -11    1    1    2    0    0  0.13406915780E+02  0.10674420717E+02 -0.16781777951E+02  0.23985760767E+02  0.00000000000E+00 0. -1.
         11    1    1    2    0    0 -0.13406915780E+02 -0.10674420717E+02 -0.34243532222E+02  0.38292403260E+02  0.00000000000E+00 0.  1.
<mgrwt>
<rscale>  0 0.35706966E+02</rscale>
<asrwt>0</asrwt>
<pdfrwt beam="2">  1        2 0.87156522E-02 0.35706966E+02</pdfrwt>
<pdfrwt beam="1">  1       -2 0.86560411E-03 0.35706966E+02</pdfrwt>
<totfact> 0.12207592E+06</totfact>
</mgrwt>
</event>
<event>
 4    1  0.2126213E+000  0.2733051E+02  0.7546771E-02  0.1629621E+00
          2   -1    0    0  501    0  0.00000000000E+00  0.00000000000E+00  0.14793567738E+02  0.14793567738E+02  0.00000000000E+00 0. -1.
         -2   -1    0    0    0  501 -0.00000000000E+00 -0.00000000000E+00 -0.12623000598E+02  0.12623000598E+02  0.00000000000E+00 0.  1.
        -11    1    1    2    0    0  0.86607023811E+01 -0.63000274356E+01 -0.74291451020E+01  0.13034197650E+02  0.00000000000E+00 0.  1.
         11    1    1    2    0    0 -0.86607023811E+01  0.63000274356E+01  0.95997122424E+01  0.14382370686E+02  0.00000000000E+00 0. -1.
<mgrwt>
<rscale>  0 0.27330511E+02</rscale>
<asrwt>0</asrwt>
<pdfrwt beam="1">  1        2 0.22759335E-02 0.27330511E+02</pdfrwt>
<pdfrwt beam="2">  1       -2 0.19420001E-02 0.27330511E+02</pdfrwt>
<totfact> 0.19597850E+06</totfact>
</mgrwt>
</event>
<event>
 4    1  0.2126213E+000  0.4952831E+02  0.7546771E-02  0.1447902E+00
         -2   -1    0    0    0  501 -0.00000000000E+00  0.00000000000E+00  0.29644298497E+02  0.29644298497E+02  0.00000000000E+00 0.  1.
          2   -1    0    0  501    0  0.00000000000E+00 -0.00000000000E+00 -0.20687395605E+02  0.20687395605E+02  0.00000000000E+00 0. -1.
        -13    1    1    2    0    0  0.61750977060E+01 -0.12786279983E+02  0.25096529547E+02  0.28834988864E+02  0.00000000000E+00 0.  1.
         13    1    1    2    0    0 -0.61750977060E+01  0.12786279983E+02 -0.16139626656E+02  0.21496705238E+02  0.00000000000E+00 0. -1.
<mgrwt>
<rscale>  0 0.49528308E+02</rscale>
<asrwt>0</asrwt>
<pdfrwt beam="2">  1        2 0.31826763E-02 0.49528308E+02</pdfrwt>
<pdfrwt beam="1">  1       -2 0.45606613E-02 0.49528308E+02</pdfrwt>
<totfact> 0.45397791E+05</totfact>
</mgrwt>
</event>
<event>
 4    1  0.2126213E+000  0.8001752E+02  0.7546771E-02  0.1329002E+00
         -1   -1    0    0    0  501 -0.00000000000E+00  0.00000000000E+00  0.21798368162E+02  0.21798368162E+02  0.00000000000E+00 0.  1.
          1   -1    0    0  501    0  0.00000000000E+00 -0.00000000000E+00 -0.73432142808E+02  0.73432142808E+02  0.00000000000E+00 0. -1.
        -11    1    1    2    0    0  0.14021956757E+02  0.78279147643E+00 -0.70402325011E+02  0.71789382229E+02  0.00000000000E+00 0. -1.
         11    1    1    2    0    0 -0.14021956757E+02 -0.78279147643E+00  0.18768550366E+02  0.23441128740E+02  0.00000000000E+00 0.  1.
<mgrwt>
<rscale>  0 0.80017520E+02</rscale>
<asrwt>0</asrwt>
<pdfrwt beam="2">  1        1 0.11297253E-01 0.80017520E+02</pdfrwt>
<pdfrwt beam="1">  1       -1 0.33535952E-02 0.80017520E+02</pdfrwt>
<totfact> 0.14189815E+05</totfact>
</mgrwt>
</event>
<event>
 4    1  0.2126213E+000  0.2703023E+02  0.7546771E-02  0.1633444E+00
         -2   -1    0    0    0  501 -0.00000000000E+00  0.00000000000E+00  0.44772989596E+02  0.44772989596E+02  0.00000000000E+00 0.  1.
          2   -1    0    0  501    0  0.00000000000E+00 -0.00000000000E+00 -0.40796531203E+01  0.40796531203E+01  0.00000000000E+00 0. -1.
        -11    1    1    2    0    0 -0.63379107260E+01  0.94277542536E+01  0.33579340258E+02  0.35448889331E+02  0.00000000000E+00 0.  1.
         11    1    1    2    0    0  0.63379107260E+01 -0.94277542536E+01  0.71139962184E+01  0.13403753386E+02  0.00000000000E+00 0. -1.
<mgrwt>
<rscale>  0 0.27030225E+02</rscale>
<asrwt>0</asrwt>
<pdfrwt beam="2">  1        2 0.62763897E-03 0.27030225E+02</pdfrwt>
<pdfrwt beam="1">  1       -2 0.68881519E-02 0.27030225E+02</pdfrwt>
<totfact> 0.17562046E+06</totfact>
</mgrwt>
</event>
<event>
 4    1  0.2126213E+000  0.2718226E+02  0.7546771E-02  0.1631501E+00
          2   -1    0    0  501    0  0.00000000000E+00  0.00000000000E+00  0.85322310310E+02  0.85322310310E+02  0.00000000000E+00 0. -1.
         -2   -1    0    0    0  501 -0.00000000000E+00 -0.00000000000E+00 -0.21649524938E+01  0.21649524938E+01  0.00000000000E+00 0.  1.
        -13    1    1    2    0    0  0.25164163269E-01 -0.13315580124E+02  0.50342010969E+02  0.52073250098E+02  0.00000000000E+00 0. -1.
         13    1    1    2    0    0 -0.25164163269E-01  0.13315580124E+02  0.32815346847E+02  0.35414012706E+02  0.00000000000E+00 0.  1.
<mgrwt>
<rscale>  0 0.27182255E+02</rscale>
<asrwt>0</asrwt>
<pdfrwt beam="1">  1        2 0.13126507E-01 0.27182255E+02</pdfrwt>
<pdfrwt beam="2">  1       -2 0.33306968E-03 0.27182255E+02</pdfrwt>
<totfact> 0.25387305E+06</totfact>
</mgrwt>
</event>
<event>
 4    1  0.2126213E+000  0.2652579E+02  0.7546771E-02  0.1640006E+00
          3   -1    0    0  501    0  0.00000000000E+00  0.00000000000E+00  0.29895894008E+01  0.29895894008E+01  0.00000000000E+00 0. -1.
         -3   -1    0    0    0  501 -0.00000000000E+00 -0.00000000000E+00 -0.58838992471E+02  0.58838992471E+02  0.00000000000E+00 0.  1.
        -13    1    1    2    0    0 -0.10737124770E+02  0.16220110980E+01 -0.10175096438E+02  0.14881174545E+02  0.00000000000E+00 0. -1.
         13    1    1    2    0    0  0.10737124770E+02 -0.16220110980E+01 -0.45674306632E+02  0.46947407326E+02  0.00000000000E+00 0.  1.
<mgrwt>
<rscale>  0 0.26525793E+02</rscale>
<asrwt>0</asrwt>
<pdfrwt beam="1">  1        3 0.45993682E-03 0.26525793E+02</pdfrwt>
<pdfrwt beam="2">  1       -3 0.90521529E-02 0.26525793E+02</pdfrwt>
<totfact> 0.83868108E+05</totfact>
</mgrwt>
</event>
<event>
 4    1  0.2126213E+000  0.2350575E+02  0.7546771E-02  0.1683441E+00
         -2   -1    0    0    0  501 -0.00000000000E+00  0.00000000000E+00  0.55223466470E+02  0.55223466470E+02  0.00000000000E+00 0. -1.
          2   -1    0    0  501    0  0.00000000000E+00 -0.00000000000E+00 -0.25012933670E+01  0.25012933670E+01  0.00000000000E+00 0.  1.
        -13    1    1    2    0    0 -0.96100145553E+01  0.67359089016E+01  0.27924396757E+02  0.30290209355E+02  0.00000000000E+00 0. -1.
         13    1    1    2    0    0  0.96100145553E+01 -0.67359089016E+01  0.24797776346E+02  0.27434550482E+02  0.00000000000E+00 0.  1.
<mgrwt>
<rscale>  0 0.23505752E+02</rscale>
<asrwt>0</asrwt>
<pdfrwt beam="2">  1        2 0.38481440E-03 0.23505752E+02</pdfrwt>
<pdfrwt beam="1">  1       -2 0.84959170E-02 0.23505752E+02</pdfrwt>
<totfact> 0.23359175E+06</totfact>
</mgrwt>
</event>
<event>
 4    1  0.2126213E+000  0.3046634E+02  0.7546771E-02  0.1592990E+00
          2   -1    0    0  501    0  0.00000000000E+00  0.00000000000E+00  0.66168558716E+01  0.66168558716E+01  0.00000000000E+00 0. -1.
         -2   -1    0    0    0  501 -0.00000000000E+00 -0.00000000000E+00 -0.35069439625E+02  0.35069439625E+02  0.00000000000E+00 0.  1.
        -11    1    1    2    0    0 -0.10244017850E+01 -0.11648648679E+02 -0.86833487472E+00  0.11725801487E+02  0.00000000000E+00 0. -1.
         11    1    1    2    0    0  0.10244017850E+01  0.11648648679E+02 -0.27584248879E+02  0.29960494009E+02  0.00000000000E+00 0.  1.
<mgrwt>
<rscale>  0 0.30466337E+02</rscale>
<asrwt>0</asrwt>
<pdfrwt beam="1">  1        2 0.10179778E-02 0.30466337E+02</pdfrwt>
<pdfrwt beam="2">  1       -2 0.53952985E-02 0.30466337E+02</pdfrwt>
<totfact> 0.13783759E+06</totfact>
</mgrwt>
</event>
<event>
 4    1  0.2126213E+000  0.2708364E+02  0.7546771E-02  0.1632760E+00
         -4   -1    0    0    0  501 -0.00000000000E+00  0.00000000000E+00  0.11689244849E+02  0.11689244849E+02  0.00000000000E+00 0. -1.
          4   -1    0    0  501    0  0.00000000000E+00 -0.00000000000E+00 -0.15687997406E+02  0.15687997406E+02  0.00000000000E+00 0.  1.
        -11    1    1    2    0    0  0.65527708791E+01  0.95822764112E+01  0.50491642220E+01  0.12659102921E+02  0.00000000000E+00 0. -1.
         11    1    1    2    0    0 -0.65527708791E+01 -0.95822764112E+01 -0.90479167794E+01  0.14718139334E+02  0.00000000000E+00 0.  1.
<mgrwt>
<rscale>  0 0.27083637E+02</rscale>
<asrwt>0</asrwt>
<pdfrwt beam="2">  1        4 0.24135381E-02 0.27083637E+02</pdfrwt>
<pdfrwt beam="1">  1       -4 0.17983454E-02 0.27083637E+02</pdfrwt>
<totfact> 0.66072346E+05</totfact>
</mgrwt>
</event>
<event>
 4    1  0.2126213E+000  0.6370922E+02  0.7546771E-02  0.1382894E+00
         -2   -1    0    0    0  501 -0.00000000000E+00  0.00000000000E+00  0.32275784994E+02  0.32275784994E+02  0.00000000000E+00 0. -1.
          2   -1    0    0  501    0  0.00000000000E+00 -0.00000000000E+00 -0.31438932455E+02  0.31438932455E+02  0.00000000000E+00 0.  1.
        -13    1    1    2    0    0  0.24904723750E+02 -0.19055301737E+02  0.60194839388E+01  0.31930925077E+02  0.00000000000E+00 0. -1.
         13    1    1    2    0    0 -0.24904723750E+02  0.19055301737E+02 -0.51826313992E+01  0.31783792373E+02  0.00000000000E+00 0.  1.
<mgrwt>
<rscale>  0 0.63709221E+02</rscale>
<asrwt>0</asrwt>
<pdfrwt beam="2">  1        2 0.48367588E-02 0.63709221E+02</pdfrwt>
<pdfrwt beam="1">  1       -2 0.49655054E-02 0.63709221E+02</pdfrwt>
<totfact> 0.24765342E+05</totfact>
</mgrwt>
</event>
<event>
 4    1  0.2126213E+000  0.2976140E+02  0.7546771E-02  0.1600741E+00
         -2   -1    0    0    0  501 -0.00000000000E+00  0.00000000000E+00  0.23571820816E+01  0.23571820816E+01  0.00000000000E+00 0. -1.
          2   -1    0    0  501    0  0.00000000000E+00 -0.00000000000E+00 -0.93940635638E+02  0.93940635638E+02  0.00000000000E+00 0.  1.
        -11    1    1    2    0    0 -0.12080290622E+02 -0.55067246453E+01 -0.24043421882E+02  0.27465315830E+02  0.00000000000E+00 0. -1.
         11    1    1    2    0    0  0.12080290622E+02  0.55067246453E+01 -0.67540031674E+02  0.68832501889E+02  0.00000000000E+00 0.  1.
<mgrwt>
<rscale>  0 0.29761397E+02</rscale>
<asrwt>0</asrwt>
<pdfrwt beam="2">  1        2 0.14452406E-01 0.29761397E+02</pdfrwt>
<pdfrwt beam="1">  1       -2 0.36264339E-03 0.29761397E+02</pdfrwt>
<totfact> 0.20979959E+06</totfact>
</mgrwt>
</event>
<event>
 4    1  0.2126213E+000  0.4251825E+02  0.7546771E-02  0.1490457E+00
          2   -1    0    0  501    0  0.00000000000E+00  0.00000000000E+00  0.40652618197E+02  0.40652618197E+02  0.00000000000E+00 0.  1.
         -2   -1    0    0    0  501 -0.00000000000E+00 -0.00000000000E+00 -0.11117372543E+02  0.11117372543E+02  0.00000000000E+00 0. -1.
        -11    1    1    2    0    0  0.18104922622E+02 -0.96301083447E+01  0.79422370011E+01  0.21991051327E+02  0.00000000000E+00 0.  1.
         11    1    1    2    0    0 -0.18104922622E+02  0.96301083447E+01  0.21593008652E+02  0.29778939413E+02  0.00000000000E+00 0. -1.
<mgrwt>
<rscale>  0 0.42518246E+02</rscale>
<asrwt>0</asrwt>
<pdfrwt beam="1">  1        2 0.62542489E-02 0.42518246E+02</pdfrwt>
<pdfrwt beam="2">  1       -2 0.17103650E-02 0.42518246E+02</pdfrwt>
<totfact> 0.74765083E+05</totfact>
</mgrwt>
</event>
<event>
 4    1  0.2126213E+000  0.2312794E+02  0.7546771E-02  0.1689445E+00
          2   -1    0    0  501    0  0.00000000000E+00  0.00000000000E+00  0.10758739572E+02  0.10758739572E+02  0.00000000000E+00 0. -1.
         -2   -1    0    0    0  501 -0.00000000000E+00 -0.00000000000E+00 -0.12429470746E+02  0.12429470746E+02  0.00000000000E+00 0.  1.
        -11    1    1    2    0    0 -0.82219467397E+01 -0.69537060504E+01  0.33911861191E+01  0.11289578350E+02  0.00000000000E+00 0. -1.
         11    1    1    2    0    0  0.82219467397E+01  0.69537060504E+01 -0.50619172932E+01  0.11898631968E+02  0.00000000000E+00 0.  1.
<mgrwt>
<rscale>  0 0.23127943E+02</rscale>
<asrwt>0</asrwt>
<pdfrwt beam="1">  1        2 0.16551907E-02 0.23127943E+02</pdfrwt>
<pdfrwt beam="2">  1       -2 0.19122263E-02 0.23127943E+02</pdfrwt>
<totfact> 0.28336122E+06</totfact>
</mgrwt>
</event>
<event>
 4    1  0.2126213E+000  0.5328025E+02  0.7546771E-02  0.1428411E+00
         -2   -1    0    0    0  501 -0.00000000000E+00  0.00000000000E+00  0.10250276502E+03  0.10250276502E+03  0.00000000000E+00 0. -1.
          2   -1    0    0  501    0  0.00000000000E+00 -0.00000000000E+00 -0.69236797278E+01  0.69236797278E+01  0.00000000000E+00 0.  1.
        -11    1    1    2    0    0  0.89998961826E+01 -0.16889297788E+02  0.97278887938E+01  0.21468077032E+02  0.00000000000E+00 0.  1.
         11    1    1    2    0    0 -0.89998961826E+01  0.16889297788E+02  0.85851196498E+02  0.87958367716E+02  0.00000000000E+00 0. -1.
<mgrwt>
<rscale>  0 0.53280252E+02</rscale>
<asrwt>0</asrwt>
<pdfrwt beam="2">  1        2 0.10651816E-02 0.53280252E+02</pdfrwt>
<pdfrwt beam="1">  1       -2 0.15769655E-01 0.53280252E+02</pdfrwt>
<totfact> 0.30027185E+05</totfact>
</mgrwt>
</event>
<event>
 4    1  0.2126213E+000  0.2209673E+02  0.7546771E-02  0.1706584E+00
          2   -1    0    0  501    0  0.00000000000E+00  0.00000000000E+00  0.82765159387E+02  0.82765159387E+02  0.00000000000E+00 0.  1.
         -2   -1    0    0    0  501 -0.00000000000E+00 -0.00000000000E+00 -0.14748524718E+01  0.14748524718E+01  0.00000000000E+00 0. -1.
        -11    1    1    2    0    0 -0.91174645797E+01 -0.51615005230E+01  0.27276347363E+02  0.29219315075E+02  0.00000000000E+00 0. -1.
         11    1    1    2    0    0  0.91174645797E+01  0.51615005230E+01  0.54013959553E+02  0.55020696784E+02  0.00000000000E+00 0.  1.
<mgrwt>
<rscale>  0 0.22096733E+02</rscale>
<asrwt>0</asrwt>
<pdfrwt beam="1">  1        2 0.12733098E-01 0.22096733E+02</pdfrwt>
<pdfrwt beam="2">  1       -2 0.22690045E-03 0.22096733E+02</pdfrwt>
<totfact> 0.40540612E+06</totfact>
</mgrwt>
</event>
<event>
 4    1  0.2126213E+000  0.3661859E+02  0.7546771E-02  0.1534680E+00
          1   -1    0    0  501    0  0.00000000000E+00  0.00000000000E+00  0.21943558104E+02  0.21943558104E+02  0.00000000000E+00 0.  1.
         -1   -1    0    0    0  501 -0.00000000000E+00 -0.00000000000E+00 -0.15276930576E+02  0.15276930576E+02  0.00000000000E+00 0. -1.
        -11    1    1    2    0    0 -0.13963727811E+02  0.11826796610E+02  0.27138695185E+01  0.18499294586E+02  0.00000000000E+00 0. -1.
         11    1    1    2    0    0  0.13963727811E+02 -0.11826796610E+02  0.39527580091E+01  0.18721194094E+02  0.00000000000E+00 0.  1.
<mgrwt>
<rscale>  0 0.36618586E+02</rscale>
<asrwt>0</asrwt>
<pdfrwt beam="1">  1        1 0.33759320E-02 0.36618586E+02</pdfrwt>
<pdfrwt beam="2">  1       -1 0.23502970E-02 0.36618586E+02</pdfrwt>
<totfact> 0.95545938E+05</totfact>
</mgrwt>
</event>
<event>
 4    1  0.2126213E+000  0.4527399E+02  0.7546771E-02  0.1472638E+00
         -1   -1    0    0    0  501 -0.00000000000E+00  0.00000000000E+00  0.12209916741E+03  0.12209916741E+03  0.00000000000E+00 0. -1.
          1   -1    0    0  501    0  0.00000000000E+00 -0.00000000000E+00 -0.41968631795E+01  0.41968631795E+01  0.00000000000E+00 0.  1.
        -13    1    1    2    0    0 -0.20510713539E+02  0.47424820972E+01  0.82165699706E+02  0.84819707111E+02  0.00000000000E+00 0.  1.
         13    1    1    2    0    0  0.20510713539E+02 -0.47424820972E+01  0.35736604528E+02  0.41476323482E+02  0.00000000000E+00 0. -1.
<mgrwt>
<rscale>  0 0.45273988E+02</rscale>
<asrwt>0</asrwt>
<pdfrwt beam="2">  1        1 0.64567135E-03 0.45273988E+02</pdfrwt>
<pdfrwt beam="1">  1       -1 0.18784485E-01 0.45273988E+02</pdfrwt>
<totfact> 0.45872690E+05</totfact>
</mgrwt>
</event>
<event>
 4    1  0.2126213E+000  0.4805896E+02  0.7546771E-02  0.1456101E+00
          2   -1    0    0  501    0  0.00000000000E+00  0.00000000000E+00  0.11544011362E+02  0.11544011362E+02  0.00000000000E+00 0.  1.
         -2   -1    0    0    0  501 -0.00000000000E+00 -0.00000000000E+00 -0.50018649874E+02  0.50018649874E+02  0.00000000000E+00 0. -1.
        -11    1    1    2    0    0 -0.14333956554E+02  0.12032617796E+02  0.69832017435E-01  0.18714996073E+02  0.00000000000E+00 0.  1.
         11    1    1    2    0    0  0.14333956554E+02 -0.12032617796E+02 -0.38544470530E+02  0.42847665163E+02  0.00000000000E+00 0. -1.
<mgrwt>
<rscale>  0 0.48058958E+02</rscale>
<asrwt>0</asrwt>
<pdfrwt beam="1">  1        2 0.17760017E-02 0.48058958E+02</pdfrwt>
<pdfrwt beam="2">  1       -2 0.76951769E-02 0.48058958E+02</pdfrwt>
<totfact> 0.44824717E+05</totfact>
</mgrwt>
</event>
<event>
 4    1  0.2126213E+000  0.2580332E+02  0.7546771E-02  0.1649725E+00
         -3   -1    0    0    0  501 -0.00000000000E+00  0.00000000000E+00  0.55889830355E+01  0.55889830355E+01  0.00000000000E+00 0.  1.
          3   -1    0    0  501    0  0.00000000000E+00 -0.00000000000E+00 -0.29782310576E+02  0.29782310576E+02  0.00000000000E+00 0. -1.
        -13    1    1    2    0    0 -0.12821580939E+02 -0.57078572110E+00 -0.13901807269E+02  0.18920332435E+02  0.00000000000E+00 0. -1.
         13    1    1    2    0    0  0.12821580939E+02  0.57078572110E+00 -0.10291520272E+02  0.16450961177E+02  0.00000000000E+00 0.  1.
<mgrwt>
<rscale>  0 0.25803320E+02</rscale>
<asrwt>0</asrwt>
<pdfrwt beam="2">  1        3 0.45818939E-02 0.25803320E+02</pdfrwt>
<pdfrwt beam="1">  1       -3 0.85984355E-03 0.25803320E+02</pdfrwt>
<totfact> 0.96544191E+05</totfact>
</mgrwt>
</event>
<event>
 4    1  0.2126213E+000  0.3109880E+02  0.7546771E-02  0.1586251E+00
         -4   -1    0    0    0  501 -0.00000000000E+00  0.00000000000E+00  0.29613650931E+01  0.29613650931E+01  0.00000000000E+00 0. -1.
          4   -1    0    0  501    0  0.00000000000E+00 -0.00000000000E+00 -0.81646073315E+02  0.81646073315E+02  0.00000000000E+00 0.  1.
        -11    1    1    2    0    0 -0.13782941548E+02  0.55934364244E+01 -0.27015950967E+02  0.30840194802E+02  0.00000000000E+00 0. -1.
         11    1    1    2    0    0  0.13782941548E+02 -0.55934364244E+01 -0.51668757254E+02  0.53767243606E+02  0.00000000000E+00 0.  1.
<mgrwt>
<rscale>  0 0.31098799E+02</rscale>
<asrwt>0</asrwt>
<pdfrwt beam="2">  1        4 0.12560936E-01 0.31098799E+02</pdfrwt>
<pdfrwt beam="1">  1       -4 0.45559458E-03 0.31098799E+02</pdfrwt>
<totfact> 0.40047775E+05</totfact>
</mgrwt>
</event>
<event>
 4    1  0.2126213E+000  0.2174367E+02  0.7546771E-02  0.1712723E+00
          4   -1    0    0  501    0  0.00000000000E+00  0.00000000000E+00  0.13696098266E+02  0.13696098266E+02  0.00000000000E+00 0. -1.
         -4   -1    0    0    0  501 -0.00000000000E+00 -0.00000000000E+00 -0.86299642820E+01  0.86299642820E+01  0.00000000000E+00 0.  1.
        -13    1    1    2    0    0 -0.72861151797E+01 -0.76595304412E+01  0.51389471509E+01  0.11754346380E+02  0.00000000000E+00 0. -1.
         13    1    1    2    0    0  0.72861151797E+01  0.76595304412E+01 -0.72813166647E-01  0.10571716169E+02  0.00000000000E+00 0.  1.
<mgrwt>
<rscale>  0 0.21743674E+02</rscale>
<asrwt>0</asrwt>
<pdfrwt beam="1">  1        4 0.21070920E-02 0.21743674E+02</pdfrwt>
<pdfrwt beam="2">  1       -4 0.13276868E-02 0.21743674E+02</pdfrwt>
<totfact> 0.10830230E+06</totfact>
</mgrwt>
</event>
<event>
 4    1  0.2126213E+000  0.2119024E+02  0.7546771E-02  0.1722645E+00
          2   -1    0    0  501    0  0.00000000000E+00  0.00000000000E+00  0.24178356099E+02  0.24178356099E+02  0.00000000000E+00 0.  1.
         -2   -1    0    0    0  501 -0.00000000000E+00 -0.00000000000E+00 -0.46428542391E+01  0.46428542391E+01  0.00000000000E+00 0. -1.
        -11    1    1    2    0    0  0.11618687935E+01 -0.10146899253E+02  0.13601997966E+02  0.17009522398E+02  0.00000000000E+00 0.  1.
         11    1    1    2    0    0 -0.11618687935E+01  0.10146899253E+02  0.59335038936E+01  0.11811687940E+02  0.00000000000E+00 0. -1.
<mgrwt>
<rscale>  0 0.21190241E+02</rscale>
<asrwt>0</asrwt>
<pdfrwt beam="1">  1        2 0.37197470E-02 0.21190241E+02</pdfrwt>
<pdfrwt beam="2">  1       -2 0.71428529E-03 0.21190241E+02</pdfrwt>
<totfact> 0.37216452E+06</totfact>
</mgrwt>
</event>
<event>
 4    1  0.2126213E+000  0.7858841E+02  0.7546771E-02  0.1333106E+00
          2   -1    0    0  501    0  0.00000000000E+00  0.00000000000E+00  0.17768074467E+03  0.17768074467E+03  0.00000000000E+00 0.  1.
         -2   -1    0    0    0  501 -0.00000000000E+00 -0.00000000000E+00 -0.86899364699E+01  0.86899364699E+01  0.00000000000E+00 0. -1.
        -11    1    1    2    0    0  0.19195315969E+02  0.25429008900E+02  0.13903629273E+03  0.14264005519E+03  0.00000000000E+00 0.  1.
         11    1    1    2    0    0 -0.19195315969E+02 -0.25429008900E+02  0.29954515470E+02  0.43730625948E+02  0.00000000000E+00 0. -1.
<mgrwt>
<rscale>  0 0.78588406E+02</rscale>
<asrwt>0</asrwt>
<pdfrwt beam="1">  1        2 0.27335496E-01 0.78588406E+02</pdfrwt>
<pdfrwt beam="2">  1       -2 0.13369134E-02 0.78588406E+02</pdfrwt>
<totfact> 0.22062466E+05</totfact>
</mgrwt>
</event>
<event>
 4    1  0.2126213E+000  0.2610507E+02  0.7546771E-02  0.1645618E+00
         -2   -1    0    0    0  501 -0.00000000000E+00  0.00000000000E+00  0.70988740156E+02  0.70988740156E+02  0.00000000000E+00 0.  1.
          2   -1    0    0  501    0  0.00000000000E+00 -0.00000000000E+00 -0.23999401225E+01  0.23999401225E+01  0.00000000000E+00 0. -1.
        -13    1    1    2    0    0  0.10152917748E+02  0.33072736583E+01  0.13191265194E+02  0.16971425257E+02  0.00000000000E+00 0. -1.
         13    1    1    2    0    0 -0.10152917748E+02 -0.33072736583E+01  0.55397534840E+02  0.56417255022E+02  0.00000000000E+00 0.  1.
<mgrwt>
<rscale>  0 0.26105074E+02</rscale>
<asrwt>0</asrwt>
<pdfrwt beam="2">  1        2 0.36922161E-03 0.26105074E+02</pdfrwt>
<pdfrwt beam="1">  1       -2 0.10921343E-01 0.26105074E+02</pdfrwt>
<totfact> 0.17660689E+06</totfact>
</mgrwt>
</event>
<event>
 4    1  0.2126213E+000  0.2575444E+02  0.7546771E-02  0.1650396E+00
          2   -1    0    0  501    0  0.00000000000E+00  0.00000000000E+00  0.10204202693E+02  0.10204202693E+02  0.00000000000E+00 0. -1.
         -2   -1    0    0    0  501 -0.00000000000E+00 -0.00000000000E+00 -0.16250444651E+02  0.16250444651E+02  0.00000000000E+00 0.  1.
        -11    1    1    2    0    0  0.12558091180E+02  0.24510747710E+01 -0.45149885118E+01  0.13568291818E+02  0.00000000000E+00 0.  1.
         11    1    1    2    0    0 -0.12558091180E+02 -0.24510747710E+01 -0.15312534469E+01  0.12886355525E+02  0.00000000000E+00 0. -1.
<mgrwt>
<rscale>  0 0.25754443E+02</rscale>
<asrwt>0</asrwt>
<pdfrwt beam="1">  1        2 0.15698774E-02 0.25754443E+02</pdfrwt>
<pdfrwt beam="2">  1       -2 0.25000684E-02 0.25754443E+02</pdfrwt>
<totfact> 0.21843149E+06</totfact>
</mgrwt>
</event>
<event>
 4    1  0.2126213E+000  0.2762241E+02  0.7546771E-02  0.1625962E+00
          2   -1    0    0  501    0  0.00000000000E+00  0.00000000000E+00  0.17180920043E+01  0.17180920043E+01  0.00000000000E+00 0.  1.
         -2   -1    0    0    0  501 -0.00000000000E+00 -0.00000000000E+00 -0.11102395587E+03  0.11102395587E+03  0.00000000000E+00 0. -1.
        -13    1    1    2    0    0  0.29139104355E+01 -0.13498564693E+02 -0.53765742485E+02  0.55510874500E+02  0.00000000000E+00 0. -1.
         13    1    1    2    0    0 -0.29139104355E+01  0.13498564693E+02 -0.55540121376E+02  0.57231173370E+02  0.00000000000E+00 0.  1.
<mgrwt>
<rscale>  0 0.27622409E+02</rscale>
<asrwt>0</asrwt>
<pdfrwt beam="1">  1        2 0.26432177E-03 0.27622409E+02</pdfrwt>
<pdfrwt beam="2">  1       -2 0.17080613E-01 0.27622409E+02</pdfrwt>
<totfact> 0.14054076E+06</totfact>
</mgrwt>
</event>
<event>
 4    1  0.2126213E+000  0.3362644E+02  0.7546771E-02  0.1561148E+00
         -2   -1    0    0    0  501 -0.00000000000E+00  0.00000000000E+00  0.66107023607E+01  0.66107023607E+01  0.00000000000E+00 0.  1.
          2   -1    0    0  501    0  0.00000000000E+00 -0.00000000000E+00 -0.42761629289E+02  0.42761629289E+02  0.00000000000E+00 0. -1.
        -13    1    1    2    0    0  0.78033998958E+01 -0.12880596020E+02 -0.29051287448E+02  0.32722776566E+02  0.00000000000E+00 0. -1.
         13    1    1    2    0    0 -0.78033998958E+01  0.12880596020E+02 -0.70996394800E+01  0.16649555084E+02  0.00000000000E+00 0.  1.
<mgrwt>
<rscale>  0 0.33626442E+02</rscale>
<asrwt>0</asrwt>
<pdfrwt beam="2">  1        2 0.65787120E-02 0.33626442E+02</pdfrwt>
<pdfrwt beam="1">  1       -2 0.10170312E-02 0.33626442E+02</pdfrwt>
<totfact> 0.13475797E+06</totfact>
</mgrwt>
</event>
<event>
 4    1  0.2126213E+000  0.3785515E+02  0.7546771E-02  0.1524616E+00
         -2   -1    0    0    0  501 -0.00000000000E+00  0.00000000000E+00  0.14494381658E+02  0.14494381658E+02  0.00000000000E+00 0. -1.
          2   -1    0    0  501    0  0.00000000000E+00 -0.00000000000E+00 -0.24716687234E+02  0.24716687234E+02  0.00000000000E+00 0.  1.
        -13    1    1    2    0    0  0.83135735086E+01 -0.10404860313E+02  0.88196053343E+01  0.15973792939E+02  0.00000000000E+00 0. -1.
         13    1    1    2    0    0 -0.83135735086E+01  0.10404860313E+02 -0.19041910910E+02  0.23237275953E+02  0.00000000000E+00 0.  1.
<mgrwt>
<rscale>  0 0.37855150E+02</rscale>
<asrwt>0</asrwt>
<pdfrwt beam="2">  1        2 0.38025672E-02 0.37855150E+02</pdfrwt>
<pdfrwt beam="1">  1       -2 0.22299049E-02 0.37855150E+02</pdfrwt>
<totfact> 0.93162838E+05</totfact>
</mgrwt>
</event>
<event>
 4    1  0.2126213E+000  0.3000693E+02  0.7546771E-02  0.1598012E+00
          2   -1    0    0  501    0  0.00000000000E+00  0.00000000000E+00  0.30260887868E+01  0.30260887868E+01  0.00000000000E+00 0.  1.
         -2   -1    0    0    0  501 -0.00000000000E+00 -0.00000000000E+00 -0.74387765379E+02  0.74387765379E+02  0.00000000000E+00 0. -1.
        -11    1    1    2    0    0  0.13311920527E+02  0.91765744444E+00 -0.17983888376E+02  0.22393516125E+02  0.00000000000E+00 0.  1.
         11    1    1    2    0    0 -0.13311920527E+02 -0.91765744444E+00 -0.53377788215E+02  0.55020338040E+02  0.00000000000E+00 0. -1.
<mgrwt>
<rscale>  0 0.30006931E+02</rscale>
<asrwt>0</asrwt>
<pdfrwt beam="1">  1        2 0.46555210E-03 0.30006931E+02</pdfrwt>
<pdfrwt beam="2">  1       -2 0.11444272E-01 0.30006931E+02</pdfrwt>
<totfact> 0.12714571E+06</totfact>
</mgrwt>
</event>
<event>
 4    1  0.2126213E+000  0.2079159E+02  0.7546771E-02  0.1730029E+00
         -4   -1    0    0    0  501 -0.00000000000E+00  0.00000000000E+00  0.15670368938E+02  0.15670368938E+02  0.00000000000E+00 0. -1.
          4   -1    0    0  501    0  0.00000000000E+00 -0.00000000000E+00 -0.68966211014E+01  0.68966211014E+01  0.00000000000E+00 0.  1.
        -11    1    1    2    0    0 -0.13953550772E+01 -0.10097015472E+02  0.21688878945E+01  0.10421171332E+02  0.00000000000E+00 0.  1.
         11    1    1    2    0    0  0.13953550772E+01  0.10097015472E+02  0.66048599421E+01  0.12145818708E+02  0.00000000000E+00 0. -1.
<mgrwt>
<rscale>  0 0.20791594E+02</rscale>
<asrwt>0</asrwt>
<pdfrwt beam="2">  1        4 0.10610186E-02 0.20791594E+02</pdfrwt>
<pdfrwt beam="1">  1       -4 0.24108260E-02 0.20791594E+02</pdfrwt>
<totfact> 0.11876224E+06</totfact>
</mgrwt>
</event>
<event>
 4    1  0.2126213E+000  0.2793136E+02  0.7546771E-02  0.1622149E+00
         -2   -1    0    0    0  501 -0.00000000000E+00  0.00000000000E+00  0.14788942982E+02  0.14788942982E+02  0.00000000000E+00 0.  1.
          2   -1    0    0  501    0  0.00000000000E+00 -0.00000000000E+00 -0.13188248382E+02  0.13188248382E+02  0.00000000000E+00 0. -1.
        -13    1    1    2    0    0  0.61812826900E+01 -0.11756750497E+02  0.51214510349E+01  0.14235824481E+02  0.00000000000E+00 0.  1.
         13    1    1    2    0    0 -0.61812826900E+01  0.11756750497E+02 -0.35207564341E+01  0.13741366883E+02  0.00000000000E+00 0. -1.
<mgrwt>
<rscale>  0 0.27931363E+02</rscale>
<asrwt>0</asrwt>
<pdfrwt beam="2">  1        2 0.20289613E-02 0.27931363E+02</pdfrwt>
<pdfrwt beam="1">  1       -2 0.22752220E-02 0.27931363E+02</pdfrwt>
<totfact> 0.18392588E+06</totfact>
</mgrwt>
</event>
<event>
 4    1  0.2126213E+000  0.2827433E+02  0.7546771E-02  0.1617986E+00
         -4   -1    0    0    0  501 -0.00000000000E+00  0.00000000000E+00  0.25819336649E+02  0.25819336649E+02  0.00000000000E+00 0.  1.
          4   -1    0    0  501    0  0.00000000000E+00 -0.00000000000E+00 -0.77406876531E+01  0.77406876531E+01  0.00000000000E+00 0. -1.
        -11    1    1    2    0    0  0.65029905500E+01 -0.99096902649E+01 -0.10619257665E+00  0.11853359191E+02  0.00000000000E+00 0. -1.
         11    1    1    2    0    0 -0.65029905500E+01  0.99096902649E+01  0.18184841572E+02  0.21706665111E+02  0.00000000000E+00 0.  1.
<mgrwt>
<rscale>  0 0.28274329E+02</rscale>
<asrwt>0</asrwt>
<pdfrwt beam="2">  1        4 0.11908750E-02 0.28274329E+02</pdfrwt>
<pdfrwt beam="1">  1       -4 0.39722056E-02 0.28274329E+02</pdfrwt>
<totfact> 0.58623786E+05</totfact>
</mgrwt>
</event>
<event>
 4    1  0.2126213E+000  0.3146073E+02  0.7546771E-02  0.1582482E+00
          1   -1    0    0  501    0  0.00000000000E+00  0.00000000000E+00  0.11602062657E+02  0.11602062657E+02  0.00000000000E+00 0. -1.
         -1   -1    0    0    0  501 -0.00000000000E+00 -0.00000000000E+00 -0.21327626085E+02  0.21327626085E+02  0.00000000000E+00 0.  1.
        -11    1    1    2    0    0  0.36219465632E+01  0.15001463298E+02 -0.16738819800E+01  0.15523024153E+02  0.00000000000E+00 0. -1.
         11    1    1    2    0    0 -0.36219465632E+01 -0.15001463298E+02 -0.80516814475E+01  0.17406664589E+02  0.00000000000E+00 0.  1.
<mgrwt>
<rscale>  0 0.31460735E+02</rscale>
<asrwt>0</asrwt>
<pdfrwt beam="1">  1        1 0.17849328E-02 0.31460735E+02</pdfrwt>
<pdfrwt beam="2">  1       -1 0.32811732E-02 0.31460735E+02</pdfrwt>
<totfact> 0.13336845E+06</totfact>
</mgrwt>
</event>
<event>
 4    1  0.2126213E+000  0.2940548E+02  0.7546771E-02  0.1604755E+00
         -2   -1    0    0    0  501 -0.00000000000E+00  0.00000000000E+00  0.22601025060E+02  0.22601025060E+02  0.00000000000E+00 0. -1.
          2   -1    0    0  501    0  0.00000000000E+00 -0.00000000000E+00 -0.95646364988E+01  0.95646364988E+01  0.00000000000E+00 0.  1.
        -13    1    1    2    0    0 -0.33553772356E+01  0.10775083202E+02 -0.37902750328E+01  0.11904921639E+02  0.00000000000E+00 0.  1.
         13    1    1    2    0    0  0.33553772356E+01 -0.10775083202E+02  0.16826663594E+02  0.20260739920E+02  0.00000000000E+00 0. -1.
<mgrwt>
<rscale>  0 0.29405482E+02</rscale>
<asrwt>0</asrwt>
<pdfrwt beam="2">  1        2 0.14714825E-02 0.29405482E+02</pdfrwt>
<pdfrwt beam="1">  1       -2 0.34770808E-02 0.29405482E+02</pdfrwt>
<totfact> 0.15707340E+06</totfact>
</mgrwt>
</event>
<event>
 4    1  0.2126213E+000  0.3541780E+02  0.7546771E-02  0.1544921E+00
         -3   -1    0    0    0  501 -0.00000000000E+00  0.00000000000E+00  0.78816672377E+02  0.78816672377E+02  0.00000000000E+00 0.  1.
          3   -1    0    0  501    0  0.00000000000E+00 -0.00000000000E+00 -0.39789182390E+01  0.39789182390E+01  0.00000000000E+00 0. -1.
        -13    1    1    2    0    0 -0.14415221017E+02 -0.21938650436E+01  0.60911541293E+02  0.62632479621E+02  0.00000000000E+00 0. -1.
         13    1    1    2    0    0  0.14415221017E+02  0.21938650436E+01  0.13926212845E+02  0.20163110995E+02  0.00000000000E+00 0.  1.
<mgrwt>
<rscale>  0 0.35417798E+02</rscale>
<asrwt>0</asrwt>
<pdfrwt beam="2">  1        3 0.61214133E-03 0.35417798E+02</pdfrwt>
<pdfrwt beam="1">  1       -3 0.12125641E-01 0.35417798E+02</pdfrwt>
<totfact> 0.40481591E+05</totfact>
</mgrwt>
</event>
<event>
 4    1  0.2126213E+000  0.2526735E+02  0.7546771E-02  0.1657191E+00
         -2   -1    0    0    0  501 -0.00000000000E+00  0.00000000000E+00  0.85538373784E+02  0.85538373784E+02  0.00000000000E+00 0.  1.
          2   -1    0    0  501    0  0.00000000000E+00 -0.00000000000E+00 -0.18659432601E+01  0.18659432601E+01  0.00000000000E+00 0. -1.
        -11    1    1    2    0    0  0.62506744035E+01  0.98930818018E+01  0.25367555317E+02  0.27936658011E+02  0.00000000000E+00 0.  1.
         11    1    1    2    0    0 -0.62506744035E+01 -0.98930818018E+01  0.58304875207E+02  0.59467659034E+02  0.00000000000E+00 0. -1.
<mgrwt>
<rscale>  0 0.25267351E+02</rscale>
<asrwt>0</asrwt>
<pdfrwt beam="2">  1        2 0.28706826E-03 0.25267351E+02</pdfrwt>
<pdfrwt beam="1">  1       -2 0.13159747E-01 0.25267351E+02</pdfrwt>
<totfact> 0.18320752E+06</totfact>
</mgrwt>
</event>
<event>
 4    1  0.2126213E+000  0.2396642E+02  0.7546771E-02  0.1676307E+00
          2   -1    0    0  501    0  0.00000000000E+00  0.00000000000E+00  0.54153986840E+02  0.54153986840E+02  0.00000000000E+00 0.  1.
         -2   -1    0    0    0  501 -0.00000000000E+00 -0.00000000000E+00 -0.26516472620E+01  0.26516472620E+01  0.00000000000E+00 0. -1.
        -13    1    1    2    0    0  0.10193961208E+02 -0.46841321710E+01  0.15768264528E+02  0.19351901859E+02  0.00000000000E+00 0. -1.
         13    1    1    2    0    0 -0.10193961208E+02  0.46841321710E+01  0.35734075049E+02  0.37453732243E+02  0.00000000000E+00 0.  1.
<mgrwt>
<rscale>  0 0.23966416E+02</rscale>
<asrwt>0</asrwt>
<pdfrwt beam="1">  1        2 0.83313818E-02 0.23966416E+02</pdfrwt>
<pdfrwt beam="2">  1       -2 0.40794577E-03 0.23966416E+02</pdfrwt>
<totfact> 0.31153471E+06</totfact>
</mgrwt>
</event>
<event>
 4    1  0.2126213E+000  0.5412575E+02  0.7546771E-02  0.1424279E+00
         -2   -1    0    0    0  501 -0.00000000000E+00  0.00000000000E+00  0.23435144200E+02  0.23435144200E+02  0.00000000000E+00 0.  1.
          2   -1    0    0  501    0  0.00000000000E+00 -0.00000000000E+00 -0.31252177747E+02  0.31252177747E+02  0.00000000000E+00 0. -1.
        -11    1    1    2    0    0 -0.15967286139E+02 -0.45845894893E+01 -0.25494318238E+02  0.30429146387E+02  0.00000000000E+00 0. -1.
         11    1    1    2    0    0  0.15967286139E+02  0.45845894893E+01  0.17677284691E+02  0.24258175559E+02  0.00000000000E+00 0.  1.
<mgrwt>
<rscale>  0 0.54125753E+02</rscale>
<asrwt>0</asrwt>
<pdfrwt beam="2">  1        2 0.48080273E-02 0.54125753E+02</pdfrwt>
<pdfrwt beam="1">  1       -2 0.36054068E-02 0.54125753E+02</pdfrwt>
<totfact> 0.38354839E+05</totfact>
</mgrwt>
</event>
<event>
 4    1  0.2126213E+000  0.1028290E+03  0.7546771E-02  0.1274457E+00
          4   -1    0    0  501    0  0.00000000000E+00  0.00000000000E+00  0.22974175547E+03  0.22974175547E+03  0.00000000000E+00 0. -1.
         -4   -1    0    0    0  501 -0.00000000000E+00 -0.00000000000E+00 -0.11506183386E+02  0.11506183386E+02  0.00000000000E+00 0.  1.
        -13    1    1    2    0    0 -0.37699956426E+01  0.51121384614E+02  0.11845574922E+03  0.12907119491E+03  0.00000000000E+00 0.  1.
         13    1    1    2    0    0  0.37699956426E+01 -0.51121384614E+02  0.99779822862E+02  0.11217674395E+03  0.00000000000E+00 0. -1.
<mgrwt>
<rscale>  0 0.10282900E+03</rscale>
<asrwt>0</asrwt>
<pdfrwt beam="1">  1        4 0.35344882E-01 0.10282900E+03</pdfrwt>
<pdfrwt beam="2">  1       -4 0.17701822E-02 0.10282900E+03</pdfrwt>
<totfact> 0.14306654E+04</totfact>
</mgrwt>
</event>
<event>
 4    1  0.2126213E+000  0.3430809E+02  0.7546771E-02  0.1554832E+00
          2   -1    0    0  501    0  0.00000000000E+00  0.00000000000E+00  0.94753569454E+01  0.94753569454E+01  0.00000000000E+00 0.  1.
         -2   -1    0    0    0  501 -0.00000000000E+00 -0.00000000000E+00 -0.31055419086E+02  0.31055419086E+02  0.00000000000E+00 0. -1.
        -13    1    1    2    0    0 -0.39529945590E+00 -0.12316398661E+02 -0.24888130711E+02  0.27771730013E+02  0.00000000000E+00 0. -1.
         13    1    1    2    0    0  0.39529945590E+00  0.12316398661E+02  0.33080685700E+01  0.12759046019E+02  0.00000000000E+00 0.  1.
<mgrwt>
<rscale>  0 0.34308085E+02</rscale>
<asrwt>0</asrwt>
<pdfrwt beam="1">  1        2 0.14577472E-02 0.34308085E+02</pdfrwt>
<pdfrwt beam="2">  1       -2 0.47777568E-02 0.34308085E+02</pdfrwt>
<totfact> 0.10637242E+06</totfact>
</mgrwt>
</event>
<event>
 4    1  0.2126213E+000  0.2307816E+02  0.7546771E-02  0.1690246E+00
         -2   -1    0    0    0  501 -0.00000000000E+00  0.00000000000E+00  0.16243949010E+02  0.16243949010E+02  0.00000000000E+00 0.  1.
          2   -1    0    0  501    0  0.00000000000E+00 -0.00000000000E+00 -0.81969230755E+01  0.81969230755E+01  0.00000000000E+00 0. -1.
        -11    1    1    2    0    0 -0.97158247885E+01  0.54414503529E+01  0.72259311600E+01  0.13274815042E+02  0.00000000000E+00 0.  1.
         11    1    1    2    0    0  0.97158247885E+01 -0.54414503529E+01  0.82109477407E+00  0.11166057043E+02  0.00000000000E+00 0. -1.
<mgrwt>
<rscale>  0 0.23078163E+02</rscale>
<asrwt>0</asrwt>
<pdfrwt beam="2">  1        2 0.12610651E-02 0.23078163E+02</pdfrwt>
<pdfrwt beam="1">  1       -2 0.24990691E-02 0.23078163E+02</pdfrwt>
<totfact> 0.27845278E+06</totfact>
</mgrwt>
</event>
<event>
 4    1  0.2126213E+000  0.1320072E+03  0.7546771E-02  0.1224507E+00
          2   -1    0    0  501    0  0.00000000000E+00  0.00000000000E+00  0.16052469596E+03  0.16052469596E+03  0.00000000000E+00 0. -1.
         -2   -1    0    0    0  501 -0.00000000000E+00 -0.00000000000E+00 -0.27138972515E+02  0.27138972515E+02  0.00000000000E+00 0.  1.
        -13    1    1    2    0    0  0.11332769218E+02  0.44319189074E+02 -0.94762154439E+00  0.45755001529E+02  0.00000000000E+00 0.  1.
         13    1    1    2    0    0 -0.11332769218E+02 -0.44319189074E+02  0.13433334499E+03  0.14190866694E+03  0.00000000000E+00 0. -1.
<mgrwt>
<rscale>  0 0.13200720E+03</rscale>
<asrwt>0</asrwt>
<pdfrwt beam="1">  1        2 0.24696106E-01 0.13200720E+03</pdfrwt>
<pdfrwt beam="2">  1       -2 0.41752266E-02 0.13200720E+03</pdfrwt>
<totfact> 0.51173328E+04</totfact>
</mgrwt>
</event>
<event>
 4    1  0.2126213E+000  0.3497628E+02  0.7546771E-02  0.1548811E+00
         -2   -1    0    0    0  501 -0.00000000000E+00  0.00000000000E+00  0.54767211493E+02  0.54767211493E+02  0.00000000000E+00 0.  1.
          2   -1    0    0  501    0  0.00000000000E+00 -0.00000000000E+00 -0.55842740978E+01  0.55842740978E+01  0.00000000000E+00 0. -1.
        -11    1    1    2    0    0 -0.11785256396E+02 -0.10434745049E+02  0.37739141043E+02  0.40890328187E+02  0.00000000000E+00 0. -1.
         11    1    1    2    0    0  0.11785256396E+02  0.10434745049E+02  0.11443796352E+02  0.19461157404E+02  0.00000000000E+00 0.  1.
<mgrwt>
<rscale>  0 0.34976285E+02</rscale>
<asrwt>0</asrwt>
<pdfrwt beam="2">  1        2 0.85911913E-03 0.34976285E+02</pdfrwt>
<pdfrwt beam="1">  1       -2 0.84257245E-02 0.34976285E+02</pdfrwt>
<totfact> 0.93900332E+05</totfact>
</mgrwt>
</event>
<event>
 4    1  0.2126213E+000  0.2333311E+02  0.7546771E-02  0.1686167E+00
          2   -1    0    0  501    0  0.00000000000E+00  0.00000000000E+00  0.27335924656E+01  0.27335924656E+01  0.00000000000E+00 0.  1.
         -2   -1    0    0    0  501 -0.00000000000E+00 -0.00000000000E+00 -0.49791082730E+02  0.49791082730E+02  0.00000000000E+00 0. -1.
        -13    1    1    2    0    0  0.11216212550E+02 -0.29670545680E+00 -0.30724127962E+02  0.32708767894E+02  0.00000000000E+00 0. -1.
         13    1    1    2    0    0 -0.11216212550E+02  0.29670545680E+00 -0.16333362302E+02  0.19815907301E+02  0.00000000000E+00 0.  1.
<mgrwt>
<rscale>  0 0.23333112E+02</rscale>
<asrwt>0</asrwt>
<pdfrwt beam="1">  1        2 0.42055270E-03 0.23333112E+02</pdfrwt>
<pdfrwt beam="2">  1       -2 0.76601663E-02 0.23333112E+02</pdfrwt>
<totfact> 0.24118409E+06</totfact>
</mgrwt>
</event>
<event>
 4    1  0.2126213E+000  0.2641555E+02  0.7546771E-02  0.1641465E+00
          4   -1    0    0  501    0  0.00000000000E+00  0.00000000000E+00  0.38482234463E+02  0.38482234463E+02  0.00000000000E+00 0.  1.
         -4   -1    0    0    0  501 -0.00000000000E+00 -0.00000000000E+00 -0.45331375202E+01  0.45331375202E+01  0.00000000000E+00 0. -1.
        -11    1    1    2    0    0  0.11456915518E+02  0.61629043019E+01  0.13260143329E+02  0.18576159553E+02  0.00000000000E+00 0. -1.
         11    1    1    2    0    0 -0.11456915518E+02 -0.61629043019E+01  0.20688953613E+02  0.24439212431E+02  0.00000000000E+00 0.  1.
<mgrwt>
<rscale>  0 0.26415545E+02</rscale>
<asrwt>0</asrwt>
<pdfrwt beam="1">  1        4 0.59203435E-02 0.26415545E+02</pdfrwt>
<pdfrwt beam="2">  1       -4 0.69740580E-03 0.26415545E+02</pdfrwt>
<totfact> 0.65762157E+05</totfact>
</mgrwt>
</event>
<event>
 4    1  0.2126213E+000  0.2509446E+02  0.7546771E-02  0.1659649E+00
          1   -1    0    0  501    0  0.00000000000E+00  0.00000000000E+00  0.12791432788E+02  0.12791432788E+02  0.00000000000E+00 0. -1.
         -1   -1    0    0    0  501 -0.00000000000E+00 -0.00000000000E+00 -0.12307689370E+02  0.12307689370E+02  0.00000000000E+00 0.  1.
        -13    1    1    2    0    0  0.11998303924E+02 -0.73236080364E+00  0.38393902210E+01  0.12618897205E+02  0.00000000000E+00 0. -1.
         13    1    1    2    0    0 -0.11998303924E+02  0.73236080364E+00 -0.33556468025E+01  0.12480224953E+02  0.00000000000E+00 0.  1.
<mgrwt>
<rscale>  0 0.25094460E+02</rscale>
<asrwt>0</asrwt>
<pdfrwt beam="1">  1        1 0.19679128E-02 0.25094460E+02</pdfrwt>
<pdfrwt beam="2">  1       -1 0.18934907E-02 0.25094460E+02</pdfrwt>
<totfact> 0.23108339E+06</totfact>
</mgrwt>
</event>
<event>
 4    1  0.2126213E+000  0.2569578E+02  0.7546771E-02  0.1651205E+00
         -1   -1    0    0    0  501 -0.00000000000E+00  0.00000000000E+00  0.11871988254E+02  0.11871988254E+02  0.00000000000E+00 0. -1.
          1   -1    0    0  501    0  0.00000000000E+00 -0.00000000000E+00 -0.13904007844E+02  0.13904007844E+02  0.00000000000E+00 0.  1.
        -13    1    1    2    0    0 -0.45498065606E+01  0.99870772096E+01 -0.77171171675E+01  0.13416271774E+02  0.00000000000E+00 0.  1.
         13    1    1    2    0    0  0.45498065606E+01 -0.99870772096E+01  0.56850975773E+01  0.12359724325E+02  0.00000000000E+00 0. -1.
<mgrwt>
<rscale>  0 0.25695775E+02</rscale>
<asrwt>0</asrwt>
<pdfrwt beam="2">  1        1 0.21390781E-02 0.25695775E+02</pdfrwt>
<pdfrwt beam="1">  1       -1 0.18264597E-02 0.25695775E+02</pdfrwt>
<totfact> 0.21942282E+06</totfact>
</mgrwt>
</event>
<event>
 4    1  0.2126213E+000  0.2157425E+02  0.7546771E-02  0.1715721E+00
         -4   -1    0    0    0  501 -0.00000000000E+00  0.00000000000E+00  0.21763967252E+01  0.21763967252E+01  0.00000000000E+00 0. -1.
          4   -1    0    0  501    0  0.00000000000E+00 -0.00000000000E+00 -0.53465445382E+02  0.53465445382E+02  0.00000000000E+00 0.  1.
        -11    1    1    2    0    0  0.88887194967E+01 -0.56664231540E+01 -0.31550764096E+02  0.33265122887E+02  0.00000000000E+00 0. -1.
         11    1    1    2    0    0 -0.88887194967E+01  0.56664231540E+01 -0.19738284561E+02  0.22376719220E+02  0.00000000000E+00 0.  1.
<mgrwt>
<rscale>  0 0.21574246E+02</rscale>
<asrwt>0</asrwt>
<pdfrwt beam="2">  1        4 0.82254531E-02 0.21574246E+02</pdfrwt>
<pdfrwt beam="1">  1       -4 0.33483027E-03 0.21574246E+02</pdfrwt>
<totfact> 0.96699566E+05</totfact>
</mgrwt>
</event>
<event>
 4    1  0.2126213E+000  0.2245216E+02  0.7546771E-02  0.1700547E+00
         -2   -1    0    0    0  501 -0.00000000000E+00  0.00000000000E+00  0.39877023128E+01  0.39877023128E+01  0.00000000000E+00 0. -1.
          2   -1    0    0  501    0  0.00000000000E+00 -0.00000000000E+00 -0.31603392910E+02  0.31603392910E+02  0.00000000000E+00 0.  1.
        -13    1    1    2    0    0 -0.10543791067E+02 -0.16233732450E+01 -0.19348793945E+02  0.22094856820E+02  0.00000000000E+00 0.  1.
         13    1    1    2    0    0  0.10543791067E+02  0.16233732450E+01 -0.82668966517E+01  0.13496238403E+02  0.00000000000E+00 0. -1.
<mgrwt>
<rscale>  0 0.22452165E+02</rscale>
<asrwt>0</asrwt>
<pdfrwt beam="2">  1        2 0.48620603E-02 0.22452165E+02</pdfrwt>
<pdfrwt beam="1">  1       -2 0.61349269E-03 0.22452165E+02</pdfrwt>
<totfact> 0.33569352E+06</totfact>
</mgrwt>
</event>
<event>
 4    1  0.2126213E+000  0.3399982E+02  0.7546771E-02  0.1557666E+00
          2   -1    0    0  501    0  0.00000000000E+00  0.00000000000E+00  0.52787010225E+02  0.52787010225E+02  0.00000000000E+00 0. -1.
         -2   -1    0    0    0  501 -0.00000000000E+00 -0.00000000000E+00 -0.54747749300E+01  0.54747749300E+01  0.00000000000E+00 0.  1.
        -11    1    1    2    0    0  0.90115347306E+01 -0.13076742334E+02  0.34049586524E+02  0.37571043248E+02  0.00000000000E+00 0. -1.
         11    1    1    2    0    0 -0.90115347306E+01  0.13076742334E+02  0.13262648771E+02  0.20690741907E+02  0.00000000000E+00 0.  1.
<mgrwt>
<rscale>  0 0.33999824E+02</rscale>
<asrwt>0</asrwt>
<pdfrwt beam="1">  1        2 0.81210782E-02 0.33999824E+02</pdfrwt>
<pdfrwt beam="2">  1       -2 0.84227310E-03 0.33999824E+02</pdfrwt>
<totfact> 0.13580255E+06</totfact>
</mgrwt>
</event>
<event>
 4    1  0.2126213E+000  0.3305870E+02  0.7546771E-02  0.1566548E+00
          4   -1    0    0  501    0  0.00000000000E+00  0.00000000000E+00  0.17005524942E+03  0.17005524942E+03  0.00000000000E+00 0.  1.
         -4   -1    0    0    0  501 -0.00000000000E+00 -0.00000000000E+00 -0.16066511502E+01  0.16066511502E+01  0.00000000000E+00 0. -1.
        -13    1    1    2    0    0 -0.98242702324E+01 -0.13190242166E+02  0.75659296874E+02  0.77426274465E+02  0.00000000000E+00 0.  1.
         13    1    1    2    0    0  0.98242702324E+01  0.13190242166E+02  0.92789301393E+02  0.94235626103E+02  0.00000000000E+00 0. -1.
<mgrwt>
<rscale>  0 0.33058703E+02</rscale>
<asrwt>0</asrwt>
<pdfrwt beam="1">  1        4 0.26162332E-01 0.33058703E+02</pdfrwt>
<pdfrwt beam="2">  1       -4 0.24717723E-03 0.33058703E+02</pdfrwt>
<totfact> 0.27957657E+05</totfact>
</mgrwt>
</event>
<event>
 4    1  0.2126213E+000  0.3029262E+02  0.7546771E-02  0.1594876E+00
         -2   -1    0    0    0  501 -0.00000000000E+00  0.00000000000E+00  0.68264345564E+01  0.68264345564E+01  0.00000000000E+00 0. -1.
          2   -1    0    0  501    0  0.00000000000E+00 -0.00000000000E+00 -0.33606233812E+02  0.33606233812E+02  0.00000000000E+00 0.  1.
        -13    1    1    2    0    0 -0.14177267772E+02  0.33278860207E+01 -0.18948080836E+02  0.23897688470E+02  0.00000000000E+00 0.  1.
         13    1    1    2    0    0  0.14177267772E+02 -0.33278860207E+01 -0.78317184205E+01  0.16534979899E+02  0.00000000000E+00 0. -1.
<mgrwt>
<rscale>  0 0.30292623E+02</rscale>
<asrwt>0</asrwt>
<pdfrwt beam="2">  1        2 0.51701897E-02 0.30292623E+02</pdfrwt>
<pdfrwt beam="1">  1       -2 0.10502207E-02 0.30292623E+02</pdfrwt>
<totfact> 0.16757010E+06</totfact>
</mgrwt>
</event>
<event>
 4    1  0.2126213E+000  0.2076561E+02  0.7546771E-02  0.1730518E+00
          2   -1    0    0  501    0  0.00000000000E+00  0.00000000000E+00  0.12025599686E+02  0.12025599686E+02  0.00000000000E+00 0. -1.
         -2   -1    0    0    0  501 -0.00000000000E+00 -0.00000000000E+00 -0.89644331604E+01  0.89644331604E+01  0.00000000000E+00 0.  1.
        -13    1    1    2    0    0  0.92042622207E+01  0.45508985326E+01  0.30878708381E+01  0.10722129769E+02  0.00000000000E+00 0. -1.
         13    1    1    2    0    0 -0.92042622207E+01 -0.45508985326E+01 -0.26704312357E-01  0.10267903077E+02  0.00000000000E+00 0.  1.
<mgrwt>
<rscale>  0 0.20765614E+02</rscale>
<asrwt>0</asrwt>
<pdfrwt beam="1">  1        2 0.18500923E-02 0.20765614E+02</pdfrwt>
<pdfrwt beam="2">  1       -2 0.13791436E-02 0.20765614E+02</pdfrwt>
<totfact> 0.36712841E+06</totfact>
</mgrwt>
</event>
<event>
 4    1  0.2126213E+000  0.3218501E+02  0.7546771E-02  0.1575120E+00
         -2   -1    0    0    0  501 -0.00000000000E+00  0.00000000000E+00  0.61223120924E+02  0.61223120924E+02  0.00000000000E+00 0.  1.
          2   -1    0    0  501    0  0.00000000000E+00 -0.00000000000E+00 -0.42299180472E+01  0.42299180472E+01  0.00000000000E+00 0. -1.
        -11    1    1    2    0    0 -0.16091977152E+02 -0.10464284800E+00  0.28337699310E+02  0.32588155532E+02  0.00000000000E+00 0.  1.
         11    1    1    2    0    0  0.16091977152E+02  0.10464284800E+00  0.28655503567E+02  0.32864883439E+02  0.00000000000E+00 0. -1.
<mgrwt>
<rscale>  0 0.32185014E+02</rscale>
<asrwt>0</asrwt>
<pdfrwt beam="2">  1        2 0.65075667E-03 0.32185014E+02</pdfrwt>
<pdfrwt beam="1">  1       -2 0.94189410E-02 0.32185014E+02</pdfrwt>
<totfact> 0.11195010E+06</totfact>
</mgrwt>
</event>
<event>
 4    1  0.2126213E+000  0.4431360E+02  0.7546771E-02  0.1478673E+00
          4   -1    0    0  501    0  0.00000000000E+00  0.00000000000E+00  0.99934371567E+02  0.99934371567E+02  0.00000000000E+00 0.  1.
         -4   -1    0    0    0  501 -0.00000000000E+00 -0.00000000000E+00 -0.49124613389E+01  0.49124613389E+01  0.00000000000E+00 0. -1.
        -11    1    1    2    0    0 -0.50358843804E+01  0.13851437432E+02  0.83677192917E+01  0.16948190952E+02  0.00000000000E+00 0. -1.
         11    1    1    2    0    0  0.50358843804E+01 -0.13851437432E+02  0.86654190937E+02  0.87898641954E+02  0.00000000000E+00 0.  1.
<mgrwt>
<rscale>  0 0.44313598E+02</rscale>
<asrwt>0</asrwt>
<pdfrwt beam="1">  1        4 0.15374517E-01 0.44313598E+02</pdfrwt>
<pdfrwt beam="2">  1       -4 0.75576336E-03 0.44313598E+02</pdfrwt>
<totfact> 0.16595366E+05</totfact>
</mgrwt>
</event>
<event>
 4    1  0.2126213E+000  0.8599501E+02  0.7546771E-02  0.1312851E+00
          3   -1    0    0  501    0  0.00000000000E+00  0.00000000000E+00  0.14949081830E+03  0.14949081830E+03  0.00000000000E+00 0. -1.
         -3   -1    0    0    0  501 -0.00000000000E+00 -0.00000000000E+00 -0.12367216435E+02  0.12367216435E+02  0.00000000000E+00 0.  1.
        -13    1    1    2    0    0 -0.20754991317E+02 -0.23067901743E+02  0.12540869411E+02  0.33468958170E+02  0.00000000000E+00 0.  1.
         13    1    1    2    0    0  0.20754991317E+02  0.23067901743E+02  0.12458273245E+03  0.12838907657E+03  0.00000000000E+00 0. -1.
<mgrwt>
<rscale>  0 0.85995007E+02</rscale>
<asrwt>0</asrwt>
<pdfrwt beam="1">  1        3 0.22998586E-01 0.85995007E+02</pdfrwt>
<pdfrwt beam="2">  1       -3 0.19026488E-02 0.85995007E+02</pdfrwt>
<totfact> 0.35817544E+04</totfact>
</mgrwt>
</event>
<event>
 4    1  0.2126213E+000  0.2365623E+02  0.7546771E-02  0.1681088E+00
          2   -1    0    0  501    0  0.00000000000E+00  0.00000000000E+00  0.48203636397E+02  0.48203636397E+02  0.00000000000E+00 0. -1.
         -2   -1    0    0    0  501 -0.00000000000E+00 -0.00000000000E+00 -0.29023607730E+01  0.29023607730E+01  0.00000000000E+00 0.  1.
        -11    1    1    2    0    0  0.93467232349E+01 -0.58989539491E+01  0.31751232787E+02  0.33619929750E+02  0.00000000000E+00 0. -1.
         11    1    1    2    0    0 -0.93467232349E+01  0.58989539491E+01  0.13550042837E+02  0.17486067420E+02  0.00000000000E+00 0.  1.
<mgrwt>
<rscale>  0 0.23656233E+02</rscale>
<asrwt>0</asrwt>
<pdfrwt beam="1">  1        2 0.74159434E-02 0.23656233E+02</pdfrwt>
<pdfrwt beam="2">  1       -2 0.44651708E-03 0.23656233E+02</pdfrwt>
<totfact> 0.31512946E+06</totfact>
</mgrwt>
</event>
<event>
 4    1  0.2126213E+000  0.2984434E+02  0.7546771E-02  0.1599816E+00
         -1   -1    0    0    0  501 -0.00000000000E+00  0.00000000000E+00  0.39570582577E+02  0.39570582577E+02  0.00000000000E+00 0. -1.
          1   -1    0    0  501    0  0.00000000000E+00 -0.00000000000E+00 -0.56271908888E+01  0.56271908888E+01  0.00000000000E+00 0.  1.
        -11    1    1    2    0    0 -0.10496366585E+02 -0.43215481772E+01  0.31640905699E+02  0.33615419134E+02  0.00000000000E+00 0. -1.
         11    1    1    2    0    0  0.10496366585E+02  0.43215481772E+01  0.23024859898E+01  0.11582354332E+02  0.00000000000E+00 0.  1.
<mgrwt>
<rscale>  0 0.29844344E+02</rscale>
<asrwt>0</asrwt>
<pdfrwt beam="2">  1        1 0.86572170E-03 0.29844344E+02</pdfrwt>
<pdfrwt beam="1">  1       -1 0.60877818E-02 0.29844344E+02</pdfrwt>
<totfact> 0.14405891E+06</totfact>
</mgrwt>
</event>
<event>
 4    1  0.2126213E+000  0.2936103E+02  0.7546771E-02  0.1605261E+00
          2   -1    0    0  501    0  0.00000000000E+00  0.00000000000E+00  0.66423539518E+02  0.66423539518E+02  0.00000000000E+00 0.  1.
         -2   -1    0    0    0  501 -0.00000000000E+00 -0.00000000000E+00 -0.32445956526E+01  0.32445956526E+01  0.00000000000E+00 0. -1.
        -13    1    1    2    0    0 -0.26920262698E+01  0.14329392822E+02  0.35657317138E+02  0.38523016102E+02  0.00000000000E+00 0.  1.
         13    1    1    2    0    0  0.26920262698E+01 -0.14329392822E+02  0.27521626727E+02  0.31145119069E+02  0.00000000000E+00 0. -1.
<mgrwt>
<rscale>  0 0.29361030E+02</rscale>
<asrwt>0</asrwt>
<pdfrwt beam="1">  1        2 0.10219005E-01 0.29361030E+02</pdfrwt>
<pdfrwt beam="2">  1       -2 0.49916861E-03 0.29361030E+02</pdfrwt>
<totfact> 0.20126640E+06</totfact>
</mgrwt>
</event>
<event>
 4    1  0.2126213E+000  0.2031298E+02  0.7546771E-02  0.1739175E+00
          2   -1    0    0  501    0  0.00000000000E+00  0.00000000000E+00  0.66193033853E+02  0.66193033853E+02  0.00000000000E+00 0. -1.
         -2   -1    0    0    0  501 -0.00000000000E+00 -0.00000000000E+00 -0.15583865714E+01  0.15583865714E+01  0.00000000000E+00 0.  1.
        -11    1    1    2    0    0 -0.99692329266E+01  0.11260863631E+01  0.37591710025E+02  0.38907458645E+02  0.00000000000E+00 0. -1.
         11    1    1    2    0    0  0.99692329266E+01 -0.11260863631E+01  0.27042937256E+02  0.28843961779E+02  0.00000000000E+00 0.  1.
<mgrwt>
<rscale>  0 0.20312985E+02</rscale>
<asrwt>0</asrwt>
<pdfrwt beam="1">  1        2 0.10183541E-01 0.20312985E+02</pdfrwt>
<pdfrwt beam="2">  1       -2 0.23975183E-03 0.20312985E+02</pdfrwt>
<totfact> 0.46875777E+06</totfact>
</mgrwt>
</event>
<event>
 4    1  0.2126213E+000  0.6658972E+02  0.7546771E-02  0.1372089E+00
         -1   -1    0    0    0  501 -0.00000000000E+00  0.00000000000E+00  0.15338415769E+02  0.15338415769E+02  0.00000000000E+00 0.  1.
          1   -1    0    0  501    0  0.00000000000E+00 -0.00000000000E+00 -0.72272627166E+02  0.72272627166E+02  0.00000000000E+00 0. -1.
        -13    1    1    2    0    0 -0.10427357023E+02  0.31610163505E+02 -0.29499220304E+02  0.44476243208E+02  0.00000000000E+00 0. -1.
         13    1    1    2    0    0  0.10427357023E+02 -0.31610163505E+02 -0.27434991092E+02  0.43134799727E+02  0.00000000000E+00 0.  1.
<mgrwt>
<rscale>  0 0.66589717E+02</rscale>
<asrwt>0</asrwt>
<pdfrwt beam="2">  1        1 0.11118866E-01 0.66589717E+02</pdfrwt>
<pdfrwt beam="1">  1       -1 0.23597563E-02 0.66589717E+02</pdfrwt>
<totfact> 0.23116131E+05</totfact>
</mgrwt>
</event>
<event>
 4    1  0.2126213E+000  0.2216964E+02  0.7546771E-02  0.1705335E+00
         -4   -1    0    0    0  501 -0.00000000000E+00  0.00000000000E+00  0.93522458401E+01  0.93522458401E+01  0.00000000000E+00 0.  1.
          4   -1    0    0  501    0  0.00000000000E+00 -0.00000000000E+00 -0.13138369579E+02  0.13138369579E+02  0.00000000000E+00 0. -1.
        -13    1    1    2    0    0 -0.83930865899E+01 -0.66521994576E+01 -0.47941146974E+01  0.11733677849E+02  0.00000000000E+00 0. -1.
         13    1    1    2    0    0  0.83930865899E+01  0.66521994576E+01  0.10079909580E+01  0.10756937571E+02  0.00000000000E+00 0.  1.
<mgrwt>
<rscale>  0 0.22169643E+02</rscale>
<asrwt>0</asrwt>
<pdfrwt beam="2">  1        4 0.20212876E-02 0.22169643E+02</pdfrwt>
<pdfrwt beam="1">  1       -4 0.14388071E-02 0.22169643E+02</pdfrwt>
<totfact> 0.10390354E+06</totfact>
</mgrwt>
</event>
<event>
 4    1  0.2126213E+000  0.2650089E+02  0.7546771E-02  0.1640335E+00
          1   -1    0    0  501    0  0.00000000000E+00  0.00000000000E+00  0.14717999959E+02  0.14717999959E+02  0.00000000000E+00 0. -1.
         -1   -1    0    0    0  501 -0.00000000000E+00 -0.00000000000E+00 -0.11929220318E+02  0.11929220318E+02  0.00000000000E+00 0.  1.
        -11    1    1    2    0    0  0.84499081722E+01 -0.79973474011E+01 -0.49822160883E+01  0.12656262905E+02  0.00000000000E+00 0.  1.
         11    1    1    2    0    0 -0.84499081722E+01  0.79973474011E+01  0.77709957296E+01  0.13990957373E+02  0.00000000000E+00 0. -1.
<mgrwt>
<rscale>  0 0.26500888E+02</rscale>
<asrwt>0</asrwt>
<pdfrwt beam="1">  1        1 0.22643077E-02 0.26500888E+02</pdfrwt>
<pdfrwt beam="2">  1       -1 0.18352647E-02 0.26500888E+02</pdfrwt>
<totfact> 0.20455518E+06</totfact>
</mgrwt>
</event>
<event>
 4    1  0.2126213E+000  0.2700426E+02  0.7546771E-02  0.1633778E+00
         -2   -1    0    0    0  501 -0.00000000000E+00  0.00000000000E+00  0.11559435149E+03  0.11559435149E+03  0.00000000000E+00 0.  1.
          2   -1    0    0  501    0  0.00000000000E+00 -0.00000000000E+00 -0.15771322342E+01  0.15771322342E+01  0.00000000000E+00 0. -1.
        -13    1    1    2    0    0 -0.70702576886E+01  0.11369170319E+02  0.64599998858E+02  0.65972770368E+02  0.00000000000E+00 0. -1.
         13    1    1    2    0    0  0.70702576886E+01 -0.11369170319E+02  0.49417220402E+02  0.51198713361E+02  0.00000000000E+00 0.  1.
<mgrwt>
<rscale>  0 0.27004265E+02</rscale>
<asrwt>0</asrwt>
<pdfrwt beam="2">  1        2 0.24263582E-03 0.27004265E+02</pdfrwt>
<pdfrwt beam="1">  1       -2 0.17783740E-01 0.27004265E+02</pdfrwt>
<totfact> 0.14643195E+06</totfact>
</mgrwt>
</event>
<event>
 4    1  0.2126213E+000  0.3905360E+02  0.7546771E-02  0.1515294E+00
         -4   -1    0    0    0  501 -0.00000000000E+00  0.00000000000E+00  0.38050030670E+02  0.38050030670E+02  0.00000000000E+00 0. -1.
          4   -1    0    0  501    0  0.00000000000E+00 -0.00000000000E+00 -0.10020910919E+02  0.10020910919E+02  0.00000000000E+00 0.  1.
        -11    1    1    2    0    0 -0.10735484462E+02 -0.66250817258E+01 -0.43317294086E+01  0.13338148829E+02  0.00000000000E+00 0.  1.
         11    1    1    2    0    0  0.10735484462E+02  0.66250817258E+01  0.32360849160E+02  0.34732792760E+02  0.00000000000E+00 0. -1.
<mgrwt>
<rscale>  0 0.39053603E+02</rscale>
<asrwt>0</asrwt>
<pdfrwt beam="2">  1        4 0.15416786E-02 0.39053603E+02</pdfrwt>
<pdfrwt beam="1">  1       -4 0.58538508E-02 0.39053603E+02</pdfrwt>
<totfact> 0.26458430E+05</totfact>
</mgrwt>
</event>
<event>
 4    1  0.2126213E+000  0.2503452E+02  0.7546771E-02  0.1660507E+00
         -1   -1    0    0    0  501 -0.00000000000E+00  0.00000000000E+00  0.32518870941E+01  0.32518870941E+01  0.00000000000E+00 0.  1.
          1   -1    0    0  501    0  0.00000000000E+00 -0.00000000000E+00 -0.48181819423E+02  0.48181819423E+02  0.00000000000E+00 0. -1.
        -13    1    1    2    0    0 -0.67814885710E+00 -0.11493242257E+02 -0.32556638977E+02  0.34532437576E+02  0.00000000000E+00 0. -1.
         13    1    1    2    0    0  0.67814885710E+00  0.11493242257E+02 -0.12373293351E+02  0.16901268941E+02  0.00000000000E+00 0.  1.
<mgrwt>
<rscale>  0 0.25034523E+02</rscale>
<asrwt>0</asrwt>
<pdfrwt beam="2">  1        1 0.74125868E-02 0.25034523E+02</pdfrwt>
<pdfrwt beam="1">  1       -1 0.50029037E-03 0.25034523E+02</pdfrwt>
<totfact> 0.25006578E+06</totfact>
</mgrwt>
</event>
<event>
 4    1  0.2126213E+000  0.3533358E+02  0.7546771E-02  0.1545658E+00
         -2   -1    0    0    0  501 -0.00000000000E+00  0.00000000000E+00  0.11671839368E+03  0.11671839368E+03  0.00000000000E+00 0. -1.
          2   -1    0    0  501    0  0.00000000000E+00 -0.00000000000E+00 -0.26740902114E+01  0.26740902114E+01  0.00000000000E+00 0.  1.
        -13    1    1    2    0    0  0.13674571660E+02 -0.10966243282E+02  0.64473699005E+02  0.66813997525E+02  0.00000000000E+00 0.  1.
         13    1    1    2    0    0 -0.13674571660E+02  0.10966243282E+02  0.49570604467E+02  0.52578486370E+02  0.00000000000E+00 0. -1.
<mgrwt>
<rscale>  0 0.35333583E+02</rscale>
<asrwt>0</asrwt>
<pdfrwt beam="2">  1        2 0.41139859E-03 0.35333583E+02</pdfrwt>
<pdfrwt beam="1">  1       -2 0.17956672E-01 0.35333583E+02</pdfrwt>
<totfact> 0.78146520E+05</totfact>
</mgrwt>
</event>
<event>
 4    1  0.2126213E+000  0.4533919E+02  0.7546771E-02  0.1472235E+00
          2   -1    0    0  501    0  0.00000000000E+00  0.00000000000E+00  0.48387497805E+02  0.48387497805E+02  0.00000000000E+00 0. -1.
         -2   -1    0    0    0  501 -0.00000000000E+00 -0.00000000000E+00 -0.10620729111E+02  0.10620729111E+02  0.00000000000E+00 0.  1.
        -13    1    1    2    0    0  0.49547176244E+01 -0.17398263691E+02  0.36664803927E+02  0.40884675041E+02  0.00000000000E+00 0. -1.
         13    1    1    2    0    0 -0.49547176244E+01  0.17398263691E+02  0.11019647675E+01  0.18123551875E+02  0.00000000000E+00 0.  1.
<mgrwt>
<rscale>  0 0.45339189E+02</rscale>
<asrwt>0</asrwt>
<pdfrwt beam="1">  1        2 0.74442303E-02 0.45339189E+02</pdfrwt>
<pdfrwt beam="2">  1       -2 0.16339584E-02 0.45339189E+02</pdfrwt>
<totfact> 0.65472376E+05</totfact>
</mgrwt>
</event>
<event>
 4    1  0.2126213E+000  0.6974836E+02  0.7546771E-02  0.1360951E+00
         -2   -1    0    0    0  501 -0.00000000000E+00  0.00000000000E+00  0.38898999605E+01  0.38898999605E+01  0.00000000000E+00 0. -1.
          2   -1    0    0  501    0  0.00000000000E+00 -0.00000000000E+00 -0.31265798771E+03  0.31265798771E+03  0.00000000000E+00 0.  1.
        -11    1    1    2    0    0 -0.33771901520E+02  0.84270056533E+01 -0.14459477213E+03  0.14872526310E+03  0.00000000000E+00 0. -1.
         11    1    1    2    0    0  0.33771901520E+02 -0.84270056533E+01 -0.16417331562E+03  0.16782262457E+03  0.00000000000E+00 0.  1.
<mgrwt>
<rscale>  0 0.69748356E+02</rscale>
<asrwt>0</asrwt>
<pdfrwt beam="2">  1        2 0.48101243E-01 0.69748356E+02</pdfrwt>
<pdfrwt beam="1">  1       -2 0.59844598E-03 0.69748356E+02</pdfrwt>
<totfact> 0.36870302E+05</totfact>
</mgrwt>
</event>
<event>
 4    1  0.2126213E+000  0.2745864E+02  0.7546771E-02  0.1628008E+00
         -2   -1    0    0    0  501 -0.00000000000E+00  0.00000000000E+00  0.62567639007E+01  0.62567639007E+01  0.00000000000E+00 0. -1.
          2   -1    0    0  501    0  0.00000000000E+00 -0.00000000000E+00 -0.30126480788E+02  0.30126480788E+02  0.00000000000E+00 0.  1.
        -11    1    1    2    0    0  0.44911188550E+01  0.12586115534E+02 -0.77628712874E+01  0.15454534074E+02  0.00000000000E+00 0.  1.
         11    1    1    2    0    0 -0.44911188550E+01 -0.12586115534E+02 -0.16106845600E+02  0.20928710614E+02  0.00000000000E+00 0. -1.
<mgrwt>
<rscale>  0 0.27458644E+02</rscale>
<asrwt>0</asrwt>
<pdfrwt beam="2">  1        2 0.46348431E-02 0.27458644E+02</pdfrwt>
<pdfrwt beam="1">  1       -2 0.96257907E-03 0.27458644E+02</pdfrwt>
<totfact> 0.20889523E+06</totfact>
</mgrwt>
</event>
<event>
 4    1  0.2126213E+000  0.2358463E+02  0.7546771E-02  0.1682205E+00
          2   -1    0    0  501    0  0.00000000000E+00  0.00000000000E+00  0.26951077544E+02  0.26951077544E+02  0.00000000000E+00 0.  1.
         -2   -1    0    0    0  501 -0.00000000000E+00 -0.00000000000E+00 -0.51596689320E+01  0.51596689320E+01  0.00000000000E+00 0. -1.
        -11    1    1    2    0    0  0.87040637676E+01  0.58816148880E+01  0.18190221434E+02  0.21005672462E+02  0.00000000000E+00 0.  1.
         11    1    1    2    0    0 -0.87040637676E+01 -0.58816148880E+01  0.36011871778E+01  0.11105074014E+02  0.00000000000E+00 0. -1.
<mgrwt>
<rscale>  0 0.23584625E+02</rscale>
<asrwt>0</asrwt>
<pdfrwt beam="1">  1        2 0.41463195E-02 0.23584625E+02</pdfrwt>
<pdfrwt beam="2">  1       -2 0.79379524E-03 0.23584625E+02</pdfrwt>
<totfact> 0.29445526E+06</totfact>
</mgrwt>
</event>
<event>
 4    1  0.2126213E+000  0.2575724E+02  0.7546771E-02  0.1650358E+00
          3   -1    0    0  501    0  0.00000000000E+00  0.00000000000E+00  0.79035362999E+01  0.79035362999E+01  0.00000000000E+00 0. -1.
         -3   -1    0    0    0  501 -0.00000000000E+00 -0.00000000000E+00 -0.20985402324E+02  0.20985402324E+02  0.00000000000E+00 0.  1.
        -13    1    1    2    0    0  0.10543776947E+02  0.24457355007E+00 -0.14830640971E+02  0.18198323004E+02  0.00000000000E+00 0.  1.
         13    1    1    2    0    0 -0.10543776947E+02 -0.24457355007E+00  0.17487749470E+01  0.10690615620E+02  0.00000000000E+00 0. -1.
<mgrwt>
<rscale>  0 0.25757243E+02</rscale>
<asrwt>0</asrwt>
<pdfrwt beam="1">  1        3 0.12159287E-02 0.25757243E+02</pdfrwt>
<pdfrwt beam="2">  1       -3 0.32285234E-02 0.25757243E+02</pdfrwt>
<totfact> 0.99000595E+05</totfact>
</mgrwt>
</event>
<event>
 4    1  0.2126213E+000  0.3746888E+02  0.7546771E-02  0.1527709E+00
         -4   -1    0    0    0  501 -0.00000000000E+00  0.00000000000E+00  0.59536564708E+01  0.59536564708E+01  0.00000000000E+00 0. -1.
          4   -1    0    0  501    0  0.00000000000E+00 -0.00000000000E+00 -0.58951872951E+02  0.58951872951E+02  0.00000000000E+00 0.  1.
        -13    1    1    2    0    0 -0.62016389869E+01  0.99337908335E+01 -0.11680031273E+01  0.11768804432E+02  0.00000000000E+00 0. -1.
         13    1    1    2    0    0  0.62016389869E+01 -0.99337908335E+01 -0.51830213353E+02  0.53136724990E+02  0.00000000000E+00 0.  1.
<mgrwt>
<rscale>  0 0.37468878E+02</rscale>
<asrwt>0</asrwt>
<pdfrwt beam="2">  1        4 0.90695187E-02 0.37468878E+02</pdfrwt>
<pdfrwt beam="1">  1       -4 0.91594717E-03 0.37468878E+02</pdfrwt>
<totfact> 0.27666923E+05</totfact>
</mgrwt>
</event>
<event>
 4    1  0.2126213E+000  0.5087988E+02  0.7546771E-02  0.1440653E+00
          4   -1    0    0  501    0  0.00000000000E+00  0.00000000000E+00  0.81927407792E+02  0.81927407792E+02  0.00000000000E+00 0.  1.
         -4   -1    0    0    0  501 -0.00000000000E+00 -0.00000000000E+00 -0.78995599781E+01  0.78995599781E+01  0.00000000000E+00 0. -1.
        -13    1    1    2    0    0 -0.20489388814E+01 -0.12636288877E+02  0.75826861026E+02  0.76899849156E+02  0.00000000000E+00 0.  1.
         13    1    1    2    0    0  0.20489388814E+01  0.12636288877E+02 -0.17990132128E+01  0.12927118614E+02  0.00000000000E+00 0. -1.
<mgrwt>
<rscale>  0 0.50879877E+02</rscale>
<asrwt>0</asrwt>
<pdfrwt beam="1">  1        4 0.12604216E-01 0.50879877E+02</pdfrwt>
<pdfrwt beam="2">  1       -4 0.12153170E-02 0.50879877E+02</pdfrwt>
<totfact> 0.12321035E+05</totfact>
</mgrwt>
</event>
<event>
 4    1  0.2126213E+000  0.3078559E+02  0.7546771E-02  0.1589564E+00
          2   -1    0    0  501    0  0.00000000000E+00  0.00000000000E+00  0.56030534932E+02  0.56030534932E+02  0.00000000000E+00 0.  1.
         -2   -1    0    0    0  501 -0.00000000000E+00 -0.00000000000E+00 -0.42287333230E+01  0.42287333230E+01  0.00000000000E+00 0. -1.
        -13    1    1    2    0    0  0.14271218194E+02 -0.47849052831E+01  0.19596052774E+02  0.24709679715E+02  0.00000000000E+00 0. -1.
         13    1    1    2    0    0 -0.14271218194E+02  0.47849052831E+01  0.32205748835E+02  0.35549588540E+02  0.00000000000E+00 0.  1.
<mgrwt>
<rscale>  0 0.30785593E+02</rscale>
<asrwt>0</asrwt>
<pdfrwt beam="1">  1        2 0.86200818E-02 0.30785593E+02</pdfrwt>
<pdfrwt beam="2">  1       -2 0.65057440E-03 0.30785593E+02</pdfrwt>
<totfact> 0.17428171E+06</totfact>
</mgrwt>
</event>
<event>
 4    1  0.2126213E+000  0.2422066E+02  0.7546771E-02  0.1672455E+00
         -2   -1    0    0    0  501 -0.00000000000E+00  0.00000000000E+00  0.25377229217E+02  0.25377229217E+02  0.00000000000E+00 0. -1.
          2   -1    0    0  501    0  0.00000000000E+00 -0.00000000000E+00 -0.57791981943E+01  0.57791981943E+01  0.00000000000E+00 0.  1.
        -11    1    1    2    0    0  0.11694247134E+02  0.23252744022E+01  0.70709300038E+01  0.13862192042E+02  0.00000000000E+00 0.  1.
         11    1    1    2    0    0 -0.11694247134E+02 -0.23252744022E+01  0.12527101019E+02  0.17294235370E+02  0.00000000000E+00 0. -1.
<mgrwt>
<rscale>  0 0.24220655E+02</rscale>
<asrwt>0</asrwt>
<pdfrwt beam="2">  1        2 0.88910743E-03 0.24220655E+02</pdfrwt>
<pdfrwt beam="1">  1       -2 0.39041890E-02 0.24220655E+02</pdfrwt>
<totfact> 0.24028655E+06</totfact>
</mgrwt>
</event>
<event>
 4    1  0.2126213E+000  0.3214701E+02  0.7546771E-02  0.1575501E+00
          2   -1    0    0  501    0  0.00000000000E+00  0.00000000000E+00  0.10935963786E+03  0.10935963786E+03  0.00000000000E+00 0.  1.
         -2   -1    0    0    0  501 -0.00000000000E+00 -0.00000000000E+00 -0.23624574638E+01  0.23624574638E+01  0.00000000000E+00 0. -1.
        -13    1    1    2    0    0 -0.24782084161E+01 -0.14572324847E+02  0.31556130855E+02  0.34846571753E+02  0.00000000000E+00 0. -1.
         13    1    1    2    0    0  0.24782084161E+01  0.14572324847E+02  0.75441049539E+02  0.76875523568E+02  0.00000000000E+00 0.  1.
<mgrwt>
<rscale>  0 0.32147006E+02</rscale>
<asrwt>0</asrwt>
<pdfrwt beam="1">  1        2 0.16824556E-01 0.32147006E+02</pdfrwt>
<pdfrwt beam="2">  1       -2 0.36345508E-03 0.32147006E+02</pdfrwt>
<totfact> 0.18132928E+06</totfact>
</mgrwt>
</event>
<event>
 4    1  0.2126213E+000  0.3062292E+02  0.7546771E-02  0.1591303E+00
         -4   -1    0    0    0  501 -0.00000000000E+00  0.00000000000E+00  0.71092669452E+02  0.71092669452E+02  0.00000000000E+00 0.  1.
          4   -1    0    0  501    0  0.00000000000E+00 -0.00000000000E+00 -0.32976798945E+01  0.32976798945E+01  0.00000000000E+00 0. -1.
        -13    1    1    2    0    0 -0.82438083351E+01  0.87228423601E+01  0.10801526670E+02  0.16146867594E+02  0.00000000000E+00 0. -1.
         13    1    1    2    0    0  0.82438083351E+01 -0.87228423601E+01  0.56993462888E+02  0.58243481753E+02  0.00000000000E+00 0.  1.
<mgrwt>
<rscale>  0 0.30622924E+02</rscale>
<asrwt>0</asrwt>
<pdfrwt beam="2">  1        4 0.50733542E-03 0.30622924E+02</pdfrwt>
<pdfrwt beam="1">  1       -4 0.10937333E-01 0.30622924E+02</pdfrwt>
<totfact> 0.42737189E+05</totfact>
</mgrwt>
</event>
<event>
 4    1  0.2126213E+000  0.3163014E+02  0.7546771E-02  0.1580738E+00
          1   -1    0    0  501    0  0.00000000000E+00  0.00000000000E+00  0.17736612274E+01  0.17736612274E+01  0.00000000000E+00 0. -1.
         -1   -1    0    0    0  501 -0.00000000000E+00 -0.00000000000E+00 -0.14101699731E+03  0.14101699731E+03  0.00000000000E+00 0.  1.
        -13    1    1    2    0    0 -0.58008325145E+01 -0.14293409245E+02 -0.85367220753E+02  0.86749718067E+02  0.00000000000E+00 0.  1.
         13    1    1    2    0    0  0.58008325145E+01  0.14293409245E+02 -0.53876115327E+02  0.56040940467E+02  0.00000000000E+00 0. -1.
<mgrwt>
<rscale>  0 0.31630136E+02</rscale>
<asrwt>0</asrwt>
<pdfrwt beam="1">  1        1 0.27287092E-03 0.31630136E+02</pdfrwt>
<pdfrwt beam="2">  1       -1 0.21694926E-01 0.31630136E+02</pdfrwt>
<totfact> 0.10543527E+06</totfact>
</mgrwt>
</event>
<event>
 4    1  0.2126213E+000  0.3410054E+02  0.7546771E-02  0.1556736E+00
         -1   -1    0    0    0  501 -0.00000000000E+00  0.00000000000E+00  0.80829823891E+01  0.80829823891E+01  0.00000000000E+00 0. -1.
          1   -1    0    0  501    0  0.00000000000E+00 -0.00000000000E+00 -0.35965896176E+02  0.35965896176E+02  0.00000000000E+00 0.  1.
        -11    1    1    2    0    0  0.55075228712E+01  0.90112861323E+01 -0.31232176115E+02  0.32969454209E+02  0.00000000000E+00 0.  1.
         11    1    1    2    0    0 -0.55075228712E+01 -0.90112861323E+01  0.33492623278E+01  0.11079424357E+02  0.00000000000E+00 0. -1.
<mgrwt>
<rscale>  0 0.34100540E+02</rscale>
<asrwt>0</asrwt>
<pdfrwt beam="2">  1        1 0.55332148E-02 0.34100540E+02</pdfrwt>
<pdfrwt beam="1">  1       -1 0.12435358E-02 0.34100540E+02</pdfrwt>
<totfact> 0.11771340E+06</totfact>
</mgrwt>
</event>
<event>
 4    1  0.2126213E+000  0.2297698E+02  0.7546771E-02  0.1691883E+00
          1   -1    0    0  501    0  0.00000000000E+00  0.00000000000E+00  0.92653548155E+01  0.92653548155E+01  0.00000000000E+00 0.  1.
         -1   -1    0    0    0  501 -0.00000000000E+00 -0.00000000000E+00 -0.14245050886E+02  0.14245050886E+02  0.00000000000E+00 0. -1.
        -13    1    1    2    0    0 -0.31674156230E+01  0.10276766564E+02  0.16463982225E+01  0.10879112089E+02  0.00000000000E+00 0. -1.
         13    1    1    2    0    0  0.31674156230E+01 -0.10276766564E+02 -0.66260942931E+01  0.12631293612E+02  0.00000000000E+00 0.  1.
<mgrwt>
<rscale>  0 0.22976984E+02</rscale>
<asrwt>0</asrwt>
<pdfrwt beam="1">  1        1 0.14254392E-02 0.22976984E+02</pdfrwt>
<pdfrwt beam="2">  1       -1 0.21915463E-02 0.22976984E+02</pdfrwt>
<totfact> 0.27972340E+06</totfact>
</mgrwt>
</event>
<event>
 4    1  0.2126213E+000  0.2439116E+02  0.7546771E-02  0.1669904E+00
          4   -1    0    0  501    0  0.00000000000E+00  0.00000000000E+00  0.21650981031E+01  0.21650981031E+01  0.00000000000E+00 0. -1.
         -4   -1    0    0    0  501 -0.00000000000E+00 -0.00000000000E+00 -0.68695341519E+02  0.68695341519E+02  0.00000000000E+00 0.  1.
        -11    1    1    2    0    0  0.96712040631E+01 -0.45936202916E+01 -0.16300670946E+02  0.19502446224E+02  0.00000000000E+00 0. -1.
         11    1    1    2    0    0 -0.96712040631E+01  0.45936202916E+01 -0.50229572469E+02  0.51357993398E+02  0.00000000000E+00 0.  1.
<mgrwt>
<rscale>  0 0.24391159E+02</rscale>
<asrwt>0</asrwt>
<pdfrwt beam="1">  1        4 0.33309200E-03 0.24391159E+02</pdfrwt>
<pdfrwt beam="2">  1       -4 0.10568514E-01 0.24391159E+02</pdfrwt>
<totfact> 0.71092501E+05</totfact>
</mgrwt>
</event>
<event>
 4    1  0.2126213E+000  0.2581512E+02  0.7546771E-02  0.1649563E+00
         -4   -1    0    0    0  501 -0.00000000000E+00  0.00000000000E+00  0.39565384725E+02  0.39565384725E+02  0.00000000000E+00 0. -1.
          4   -1    0    0  501    0  0.00000000000E+00 -0.00000000000E+00 -0.42108788486E+01  0.42108788486E+01  0.00000000000E+00 0.  1.
        -13    1    1    2    0    0 -0.13468865332E+01  0.12245622933E+02  0.11145676378E+02  0.16613111878E+02  0.00000000000E+00 0.  1.
         13    1    1    2    0    0  0.13468865332E+01 -0.12245622933E+02  0.24208829498E+02  0.27163151695E+02  0.00000000000E+00 0. -1.
<mgrwt>
<rscale>  0 0.25815115E+02</rscale>
<asrwt>0</asrwt>
<pdfrwt beam="2">  1        4 0.64782754E-03 0.25815115E+02</pdfrwt>
<pdfrwt beam="1">  1       -4 0.60869820E-02 0.25815115E+02</pdfrwt>
<totfact> 0.68954550E+05</totfact>
</mgrwt>
</event>
<event>
 4    1  0.2126213E+000  0.3545095E+02  0.7546771E-02  0.1544632E+00
          4   -1    0    0  501    0  0.00000000000E+00  0.00000000000E+00  0.12520823853E+02  0.12520823853E+02  0.00000000000E+00 0. -1.
         -4   -1    0    0    0  501 -0.00000000000E+00 -0.00000000000E+00 -0.25093594660E+02  0.25093594660E+02  0.00000000000E+00 0.  1.
        -11    1    1    2    0    0 -0.42740743565E+01  0.10464763393E+02  0.82001702095E+01  0.13965019726E+02  0.00000000000E+00 0. -1.
         11    1    1    2    0    0  0.42740743565E+01 -0.10464763393E+02 -0.20772941016E+02  0.23649398786E+02  0.00000000000E+00 0.  1.
<mgrwt>
<rscale>  0 0.35450951E+02</rscale>
<asrwt>0</asrwt>
<pdfrwt beam="1">  1        4 0.19262806E-02 0.35450951E+02</pdfrwt>
<pdfrwt beam="2">  1       -4 0.38605530E-02 0.35450951E+02</pdfrwt>
<totfact> 0.34457406E+05</totfact>
</mgrwt>
</event>
<event>
 4    1  0.2126213E+000  0.3722613E+02  0.7546771E-02  0.1529676E+00
         -1   -1    0    0    0  501 -0.00000000000E+00  0.00000000000E+00  0.16930246816E+02  0.16930246816E+02  0.00000000000E+00 0. -1.
          1   -1    0    0  501    0  0.00000000000E+00 -0.00000000000E+00 -0.20463147208E+02  0.20463147208E+02  0.00000000000E+00 0.  1.
        -11    1    1    2    0    0  0.18529792295E+02  0.17406664478E+01 -0.15143030116E+01  0.18672874331E+02  0.00000000000E+00 0. -1.
         11    1    1    2    0    0 -0.18529792295E+02 -0.17406664478E+01 -0.20185973811E+01  0.18720519693E+02  0.00000000000E+00 0.  1.
<mgrwt>
<rscale>  0 0.37226127E+02</rscale>
<asrwt>0</asrwt>
<pdfrwt beam="2">  1        1 0.31481765E-02 0.37226127E+02</pdfrwt>
<pdfrwt beam="1">  1       -1 0.26046534E-02 0.37226127E+02</pdfrwt>
<totfact> 0.91275500E+05</totfact>
</mgrwt>
</event>
<event>
 4    1  0.2126213E+000  0.2709013E+02  0.7546771E-02  0.1632677E+00
          1   -1    0    0  501    0  0.00000000000E+00  0.00000000000E+00  0.64846871541E+02  0.64846871541E+02  0.00000000000E+00 0. -1.
         -1   -1    0    0    0  501 -0.00000000000E+00 -0.00000000000E+00 -0.28292613633E+01  0.28292613633E+01  0.00000000000E+00 0.  1.
        -11    1    1    2    0    0 -0.85755564888E+01  0.93707549528E+01  0.42757586116E+02  0.44604510847E+02  0.00000000000E+00 0. -1.
         11    1    1    2    0    0  0.85755564888E+01 -0.93707549528E+01  0.19260024062E+02  0.23071622057E+02  0.00000000000E+00 0.  1.
<mgrwt>
<rscale>  0 0.27090127E+02</rscale>
<asrwt>0</asrwt>
<pdfrwt beam="1">  1        1 0.99764406E-02 0.27090127E+02</pdfrwt>
<pdfrwt beam="2">  1       -1 0.43527103E-03 0.27090127E+02</pdfrwt>
<totfact> 0.21334238E+06</totfact>
</mgrwt>
</event>
<event>
 4    1  0.2126213E+000  0.3872645E+02  0.7546771E-02  0.1517798E+00
          1   -1    0    0  501    0  0.00000000000E+00  0.00000000000E+00  0.33188303011E+02  0.33188303011E+02  0.00000000000E+00 0.  1.
         -1   -1    0    0    0  501 -0.00000000000E+00 -0.00000000000E+00 -0.11297185204E+02  0.11297185204E+02  0.00000000000E+00 0. -1.
        -11    1    1    2    0    0  0.16423908302E+02  0.10208981517E+02  0.98163474064E+01  0.21687063977E+02  0.00000000000E+00 0.  1.
         11    1    1    2    0    0 -0.16423908302E+02 -0.10208981517E+02  0.12074770400E+02  0.22798424238E+02  0.00000000000E+00 0. -1.
<mgrwt>
<rscale>  0 0.38726446E+02</rscale>
<asrwt>0</asrwt>
<pdfrwt beam="1">  1        1 0.51058927E-02 0.38726446E+02</pdfrwt>
<pdfrwt beam="2">  1       -1 0.17380285E-02 0.38726446E+02</pdfrwt>
<totfact> 0.85623069E+05</totfact>
</mgrwt>
</event>
<event>
 4    1  0.2126213E+000  0.2375446E+02  0.7546771E-02  0.1679564E+00
         -2   -1    0    0    0  501 -0.00000000000E+00  0.00000000000E+00  0.88973639644E+02  0.88973639644E+02  0.00000000000E+00 0.  1.
          2   -1    0    0  501    0  0.00000000000E+00 -0.00000000000E+00 -0.15855104946E+01  0.15855104946E+01  0.00000000000E+00 0. -1.
        -11    1    1    2    0    0 -0.61790678312E+01 -0.91204766734E+01  0.60616841742E+02  0.61609783937E+02  0.00000000000E+00 0.  1.
         11    1    1    2    0    0  0.61790678312E+01  0.91204766734E+01  0.26771287408E+02  0.28949366202E+02  0.00000000000E+00 0. -1.
<mgrwt>
<rscale>  0 0.23754464E+02</rscale>
<asrwt>0</asrwt>
<pdfrwt beam="2">  1        2 0.24392476E-03 0.23754464E+02</pdfrwt>
<pdfrwt beam="1">  1       -2 0.13688248E-01 0.23754464E+02</pdfrwt>
<totfact> 0.20876674E+06</totfact>
</mgrwt>
</event>
<event>
 4    1  0.2126213E+000  0.5742762E+02  0.7546771E-02  0.1408955E+00
          2   -1    0    0  501    0  0.00000000000E+00  0.00000000000E+00  0.94662975947E+01  0.94662975947E+01  0.00000000000E+00 0.  1.
         -2   -1    0    0    0  501 -0.00000000000E+00 -0.00000000000E+00 -0.87096652814E+02  0.87096652814E+02  0.00000000000E+00 0. -1.
        -13    1    1    2    0    0 -0.26112059175E+02  0.11741529805E+02 -0.42491292399E+02  0.51236833297E+02  0.00000000000E+00 0. -1.
         13    1    1    2    0    0  0.26112059175E+02 -0.11741529805E+02 -0.35139062820E+02  0.45326117112E+02  0.00000000000E+00 0.  1.
<mgrwt>
<rscale>  0 0.57427618E+02</rscale>
<asrwt>0</asrwt>
<pdfrwt beam="1">  1        2 0.14563535E-02 0.57427618E+02</pdfrwt>
<pdfrwt beam="2">  1       -2 0.13399485E-01 0.57427618E+02</pdfrwt>
<totfact> 0.26013656E+05</totfact>
</mgrwt>
</event>
<event>
 4    1  0.2126213E+000  0.3820950E+02  0.7546771E-02  0.1521817E+00
         -2   -1    0    0    0  501 -0.00000000000E+00  0.00000000000E+00  0.90005773443E+01  0.90005773443E+01  0.00000000000E+00 0.  1.
          2   -1    0    0  501    0  0.00000000000E+00 -0.00000000000E+00 -0.40552005608E+02  0.40552005608E+02  0.00000000000E+00 0. -1.
        -11    1    1    2    0    0  0.12614573073E+02 -0.52804697956E+01  0.15256895743E+01  0.13760034293E+02  0.00000000000E+00 0.  1.
         11    1    1    2    0    0 -0.12614573073E+02  0.52804697956E+01 -0.33077117838E+02  0.35792548660E+02  0.00000000000E+00 0. -1.
<mgrwt>
<rscale>  0 0.38209499E+02</rscale>
<asrwt>0</asrwt>
<pdfrwt beam="2">  1        2 0.62387701E-02 0.38209499E+02</pdfrwt>
<pdfrwt beam="1">  1       -2 0.13847042E-02 0.38209499E+02</pdfrwt>
<totfact> 0.97641496E+05</totfact>
</mgrwt>
</event>
<event>
 4    1  0.2126213E+000  0.4502154E+02  0.7546771E-02  0.1474207E+00
          2   -1    0    0  501    0  0.00000000000E+00  0.00000000000E+00  0.60954898575E+02  0.60954898575E+02  0.00000000000E+00 0.  1.
         -2   -1    0    0    0  501 -0.00000000000E+00 -0.00000000000E+00 -0.83132726518E+01  0.83132726518E+01  0.00000000000E+00 0. -1.
        -13    1    1    2    0    0  0.13200393615E+02 -0.11880511560E+01 -0.16738459775E+01  0.13359027565E+02  0.00000000000E+00 0. -1.
         13    1    1    2    0    0 -0.13200393615E+02  0.11880511560E+01  0.54315471901E+02  0.55909143662E+02  0.00000000000E+00 0.  1.
<mgrwt>
<rscale>  0 0.45021537E+02</rscale>
<asrwt>0</asrwt>
<pdfrwt beam="1">  1        2 0.93776764E-02 0.45021537E+02</pdfrwt>
<pdfrwt beam="2">  1       -2 0.12789651E-02 0.45021537E+02</pdfrwt>
<totfact> 0.69646081E+05</totfact>
</mgrwt>
</event>
<event>
 4    1  0.2126213E+000  0.1117705E+03  0.7546771E-02  0.1257326E+00
          2   -1    0    0  501    0  0.00000000000E+00  0.00000000000E+00  0.51754702791E+02  0.51754702791E+02  0.00000000000E+00 0. -1.
         -2   -1    0    0    0  501 -0.00000000000E+00 -0.00000000000E+00 -0.60345496695E+02  0.60345496695E+02  0.00000000000E+00 0.  1.
        -13    1    1    2    0    0  0.39760141793E+02  0.34012100581E+02 -0.23986730071E+02  0.57559144199E+02  0.00000000000E+00 0.  1.
         13    1    1    2    0    0 -0.39760141793E+02 -0.34012100581E+02  0.15395936167E+02  0.54541055287E+02  0.00000000000E+00 0. -1.
<mgrwt>
<rscale>  0 0.11177054E+03</rscale>
<asrwt>0</asrwt>
<pdfrwt beam="1">  1        2 0.79622619E-02 0.11177054E+03</pdfrwt>
<pdfrwt beam="2">  1       -2 0.92839226E-02 0.11177054E+03</pdfrwt>
<totfact> 0.56422125E+04</totfact>
</mgrwt>
</event>
<event>
 4    1  0.2126213E+000  0.1208876E+03  0.7546771E-02  0.1241640E+00
          2   -1    0    0  501    0  0.00000000000E+00  0.00000000000E+00  0.14911667576E+02  0.14911667576E+02  0.00000000000E+00 0. -1.
         -2   -1    0    0    0  501 -0.00000000000E+00 -0.00000000000E+00 -0.24500638723E+03  0.24500638723E+03  0.00000000000E+00 0.  1.
        -13    1    1    2    0    0  0.22460243711E+02  0.40341187619E+02 -0.19891646598E+03  0.20420488340E+03  0.00000000000E+00 0.  1.
         13    1    1    2    0    0 -0.22460243711E+02 -0.40341187619E+02 -0.31178253674E+02  0.55713171407E+02  0.00000000000E+00 0. -1.
<mgrwt>
<rscale>  0 0.12088761E+03</rscale>
<asrwt>0</asrwt>
<pdfrwt beam="1">  1        2 0.22941030E-02 0.12088761E+03</pdfrwt>
<pdfrwt beam="2">  1       -2 0.37693286E-01 0.12088761E+03</pdfrwt>
<totfact> 0.27433696E+04</totfact>
</mgrwt>
</event>
<event>
 4    1  0.2126213E+000  0.6581419E+02  0.7546771E-02  0.1374935E+00
          2   -1    0    0  501    0  0.00000000000E+00  0.00000000000E+00  0.23073285291E+02  0.23073285291E+02  0.00000000000E+00 0.  1.
         -2   -1    0    0    0  501 -0.00000000000E+00 -0.00000000000E+00 -0.46932058401E+02  0.46932058401E+02  0.00000000000E+00 0. -1.
        -11    1    1    2    0    0  0.23593793547E+02 -0.55877522620E+01  0.11735718880E+02  0.26937282100E+02  0.00000000000E+00 0.  1.
         11    1    1    2    0    0 -0.23593793547E+02  0.55877522620E+01 -0.35594491990E+02  0.43068061593E+02  0.00000000000E+00 0. -1.
<mgrwt>
<rscale>  0 0.65814186E+02</rscale>
<asrwt>0</asrwt>
<pdfrwt beam="1">  1        2 0.35497362E-02 0.65814186E+02</pdfrwt>
<pdfrwt beam="2">  1       -2 0.72203166E-02 0.65814186E+02</pdfrwt>
<totfact> 0.21305781E+05</totfact>
</mgrwt>
</event>
<event>
 4    1  0.2126213E+000  0.2458017E+02  0.7546771E-02  0.1667106E+00
         -2   -1    0    0    0  501 -0.00000000000E+00  0.00000000000E+00  0.21401386443E+01  0.21401386443E+01  0.00000000000E+00 0.  1.
          2   -1    0    0  501    0  0.00000000000E+00 -0.00000000000E+00 -0.70577732289E+02  0.70577732289E+02  0.00000000000E+00 0. -1.
        -13    1    1    2    0    0  0.81906829308E+01  0.91329737864E+01 -0.36408080554E+02  0.38419354844E+02  0.00000000000E+00 0. -1.
         13    1    1    2    0    0 -0.81906829308E+01 -0.91329737864E+01 -0.32029513091E+02  0.34298516089E+02  0.00000000000E+00 0.  1.
<mgrwt>
<rscale>  0 0.24580165E+02</rscale>
<asrwt>0</asrwt>
<pdfrwt beam="2">  1        2 0.10858111E-01 0.24580165E+02</pdfrwt>
<pdfrwt beam="1">  1       -2 0.32925214E-03 0.24580165E+02</pdfrwt>
<totfact> 0.30818451E+06</totfact>
</mgrwt>
</event>
<event>
 4    1  0.2126213E+000  0.4271981E+02  0.7546771E-02  0.1489100E+00
         -2   -1    0    0    0  501 -0.00000000000E+00  0.00000000000E+00  0.48109934392E+02  0.48109934392E+02  0.00000000000E+00 0. -1.
          2   -1    0    0  501    0  0.00000000000E+00 -0.00000000000E+00 -0.94833963973E+01  0.94833963973E+01  0.00000000000E+00 0.  1.
        -13    1    1    2    0    0  0.35111095432E+01 -0.20478669779E+02  0.25992028844E+02  0.33275957831E+02  0.00000000000E+00 0.  1.
         13    1    1    2    0    0 -0.35111095432E+01  0.20478669779E+02  0.12634509151E+02  0.24317372959E+02  0.00000000000E+00 0. -1.
<mgrwt>
<rscale>  0 0.42719812E+02</rscale>
<asrwt>0</asrwt>
<pdfrwt beam="2">  1        2 0.14589841E-02 0.42719812E+02</pdfrwt>
<pdfrwt beam="1">  1       -2 0.74015282E-02 0.42719812E+02</pdfrwt>
<totfact> 0.59767622E+05</totfact>
</mgrwt>
</event>
<event>
 4    1  0.2126213E+000  0.3101258E+02  0.7546771E-02  0.1587158E+00
          1   -1    0    0  501    0  0.00000000000E+00  0.00000000000E+00  0.11216998685E+02  0.11216998685E+02  0.00000000000E+00 0.  1.
         -1   -1    0    0    0  501 -0.00000000000E+00 -0.00000000000E+00 -0.21435774442E+02  0.21435774442E+02  0.00000000000E+00 0. -1.
        -11    1    1    2    0    0 -0.15239477375E+02  0.75600027199E+00 -0.22007010205E+01  0.15416104958E+02  0.00000000000E+00 0. -1.
         11    1    1    2    0    0  0.15239477375E+02 -0.75600027199E+00 -0.80180747372E+01  0.17236668169E+02  0.00000000000E+00 0.  1.
<mgrwt>
<rscale>  0 0.31012582E+02</rscale>
<asrwt>0</asrwt>
<pdfrwt beam="1">  1        1 0.17256921E-02 0.31012582E+02</pdfrwt>
<pdfrwt beam="2">  1       -1 0.32978114E-02 0.31012582E+02</pdfrwt>
<totfact> 0.13785813E+06</totfact>
</mgrwt>
</event>
<event>
 4    1  0.2126213E+000  0.2658094E+02  0.7546771E-02  0.1639280E+00
          2   -1    0    0  501    0  0.00000000000E+00  0.00000000000E+00  0.64631929602E+02  0.64631929602E+02  0.00000000000E+00 0.  1.
         -2   -1    0    0    0  501 -0.00000000000E+00 -0.00000000000E+00 -0.27329627932E+01  0.27329627932E+01  0.00000000000E+00 0. -1.
        -13    1    1    2    0    0 -0.10611526603E+02 -0.18409722317E+01  0.11213740323E+02  0.15548043209E+02  0.00000000000E+00 0. -1.
         13    1    1    2    0    0  0.10611526603E+02  0.18409722317E+01  0.50685226486E+02  0.51816849186E+02  0.00000000000E+00 0.  1.
<mgrwt>
<rscale>  0 0.26580945E+02</rscale>
<asrwt>0</asrwt>
<pdfrwt beam="1">  1        2 0.99433726E-02 0.26580945E+02</pdfrwt>
<pdfrwt beam="2">  1       -2 0.42045586E-03 0.26580945E+02</pdfrwt>
<totfact> 0.25286999E+06</totfact>
</mgrwt>
</event>
<event>
 4    1  0.2126213E+000  0.2568743E+02  0.7546771E-02  0.1651320E+00
         -4   -1    0    0    0  501 -0.00000000000E+00  0.00000000000E+00  0.64975742277E+01  0.64975742277E+01  0.00000000000E+00 0.  1.
          4   -1    0    0  501    0  0.00000000000E+00 -0.00000000000E+00 -0.25388096950E+02  0.25388096950E+02  0.00000000000E+00 0. -1.
        -11    1    1    2    0    0 -0.10371048452E+02 -0.39522039807E+01 -0.14216111640E+01  0.11189260056E+02  0.00000000000E+00 0. -1.
         11    1    1    2    0    0  0.10371048452E+02  0.39522039807E+01 -0.17468911558E+02  0.20696411122E+02  0.00000000000E+00 0.  1.
<mgrwt>
<rscale>  0 0.25687432E+02</rscale>
<asrwt>0</asrwt>
<pdfrwt beam="2">  1        4 0.39058610E-02 0.25687432E+02</pdfrwt>
<pdfrwt beam="1">  1       -4 0.99962682E-03 0.25687432E+02</pdfrwt>
<totfact> 0.72898992E+05</totfact>
</mgrwt>
</event>
<event>
 4    1  0.2126213E+000  0.6776795E+02  0.7546771E-02  0.1367852E+00
         -4   -1    0    0    0  501 -0.00000000000E+00  0.00000000000E+00  0.22783538787E+02  0.22783538787E+02  0.00000000000E+00 0.  1.
          4   -1    0    0  501    0  0.00000000000E+00 -0.00000000000E+00 -0.50392693764E+02  0.50392693764E+02  0.00000000000E+00 0. -1.
        -13    1    1    2    0    0 -0.55488173164E+01 -0.11679949419E+02 -0.47623594867E+02  0.49347921740E+02  0.00000000000E+00 0. -1.
         13    1    1    2    0    0  0.55488173164E+01  0.11679949419E+02  0.20014439889E+02  0.23828310811E+02  0.00000000000E+00 0.  1.
<mgrwt>
<rscale>  0 0.67767954E+02</rscale>
<asrwt>0</asrwt>
<pdfrwt beam="2">  1        4 0.77527221E-02 0.67767954E+02</pdfrwt>
<pdfrwt beam="1">  1       -4 0.35051598E-02 0.67767954E+02</pdfrwt>
<totfact> 0.62207542E+04</totfact>
</mgrwt>
</event>
<event>
 4    1  0.2126213E+000  0.2645328E+02  0.7546771E-02  0.1640965E+00
         -2   -1    0    0    0  501 -0.00000000000E+00  0.00000000000E+00  0.19557275776E+01  0.19557275776E+01  0.00000000000E+00 0.  1.
          2   -1    0    0  501    0  0.00000000000E+00 -0.00000000000E+00 -0.89452146377E+02  0.89452146377E+02  0.00000000000E+00 0. -1.
        -13    1    1    2    0    0  0.11118529635E+02 -0.63485329290E+01 -0.55218236895E+02  0.56683147913E+02  0.00000000000E+00 0. -1.
         13    1    1    2    0    0 -0.11118529635E+02  0.63485329290E+01 -0.32278181905E+02  0.34724726042E+02  0.00000000000E+00 0.  1.
<mgrwt>
<rscale>  0 0.26453282E+02</rscale>
<asrwt>0</asrwt>
<pdfrwt beam="2">  1        2 0.13761866E-01 0.26453282E+02</pdfrwt>
<pdfrwt beam="1">  1       -2 0.30088122E-03 0.26453282E+02</pdfrwt>
<totfact> 0.27326179E+06</totfact>
</mgrwt>
</event>
<event>
 4    1  0.2126213E+000  0.4132344E+02  0.7546771E-02  0.1498692E+00
         -2   -1    0    0    0  501 -0.00000000000E+00  0.00000000000E+00  0.88571484267E+01  0.88571484267E+01  0.00000000000E+00 0.  1.
          2   -1    0    0  501    0  0.00000000000E+00 -0.00000000000E+00 -0.48199120629E+02  0.48199120629E+02  0.00000000000E+00 0. -1.
        -13    1    1    2    0    0 -0.67518585017E+00  0.11260574363E+02  0.42299138007E+01  0.12047762518E+02  0.00000000000E+00 0.  1.
         13    1    1    2    0    0  0.67518585017E+00 -0.11260574363E+02 -0.43571886003E+02  0.45008506538E+02  0.00000000000E+00 0. -1.
<mgrwt>
<rscale>  0 0.41323444E+02</rscale>
<asrwt>0</asrwt>
<pdfrwt beam="2">  1        2 0.74152494E-02 0.41323444E+02</pdfrwt>
<pdfrwt beam="1">  1       -2 0.13626382E-02 0.41323444E+02</pdfrwt>
<totfact> 0.82656364E+05</totfact>
</mgrwt>
</event>
<event>
 4    1  0.2126213E+000  0.2693739E+02  0.7546771E-02  0.1634639E+00
          1   -1    0    0  501    0  0.00000000000E+00  0.00000000000E+00  0.25996721853E+01  0.25996721853E+01  0.00000000000E+00 0. -1.
         -1   -1    0    0    0  501 -0.00000000000E+00 -0.00000000000E+00 -0.69780263037E+02  0.69780263037E+02  0.00000000000E+00 0.  1.
        -11    1    1    2    0    0  0.12159905006E+02 -0.71804327651E+00 -0.18148538127E+02  0.21857454381E+02  0.00000000000E+00 0. -1.
         11    1    1    2    0    0 -0.12159905006E+02  0.71804327651E+00 -0.49032052725E+02  0.50522480841E+02  0.00000000000E+00 0.  1.
<mgrwt>
<rscale>  0 0.26937395E+02</rscale>
<asrwt>0</asrwt>
<pdfrwt beam="1">  1        1 0.39994962E-03 0.26937395E+02</pdfrwt>
<pdfrwt beam="2">  1       -1 0.10735424E-01 0.26937395E+02</pdfrwt>
<totfact> 0.17203118E+06</totfact>
</mgrwt>
</event>
<event>
 4    1  0.2126213E+000  0.6313843E+02  0.7546771E-02  0.1385114E+00
         -2   -1    0    0    0  501 -0.00000000000E+00  0.00000000000E+00  0.95143042211E+01  0.95143042211E+01  0.00000000000E+00 0.  1.
          2   -1    0    0  501    0  0.00000000000E+00 -0.00000000000E+00 -0.10474914553E+03  0.10474914553E+03  0.00000000000E+00 0. -1.
        -11    1    1    2    0    0 -0.61907928560E+00 -0.31562246222E+02 -0.47186903956E+02  0.56772903313E+02  0.00000000000E+00 0. -1.
         11    1    1    2    0    0  0.61907928560E+00  0.31562246222E+02 -0.48047937348E+02  0.57490546433E+02  0.00000000000E+00 0.  1.
<mgrwt>
<rscale>  0 0.63138427E+02</rscale>
<asrwt>0</asrwt>
<pdfrwt beam="2">  1        2 0.16115252E-01 0.63138427E+02</pdfrwt>
<pdfrwt beam="1">  1       -2 0.14637392E-02 0.63138427E+02</pdfrwt>
<totfact> 0.33277972E+05</totfact>
</mgrwt>
</event>
<event>
 4    1  0.2126213E+000  0.2556053E+02  0.7546771E-02  0.1653079E+00
         -2   -1    0    0    0  501 -0.00000000000E+00  0.00000000000E+00  0.49197643188E+01  0.49197643188E+01  0.00000000000E+00 0.  1.
          2   -1    0    0  501    0  0.00000000000E+00 -0.00000000000E+00 -0.33199794183E+02  0.33199794183E+02  0.00000000000E+00 0. -1.
        -13    1    1    2    0    0  0.71286455568E+01 -0.84968164437E+01 -0.23609957851E+02  0.26085313625E+02  0.00000000000E+00 0. -1.
         13    1    1    2    0    0 -0.71286455568E+01  0.84968164437E+01 -0.46700720124E+01  0.12034244877E+02  0.00000000000E+00 0.  1.
<mgrwt>
<rscale>  0 0.25560529E+02</rscale>
<asrwt>0</asrwt>
<pdfrwt beam="2">  1        2 0.51076604E-02 0.25560529E+02</pdfrwt>
<pdfrwt beam="1">  1       -2 0.75688686E-03 0.25560529E+02</pdfrwt>
<totfact> 0.25021323E+06</totfact>
</mgrwt>
</event>
<event>
 4    1  0.2126213E+000  0.3676337E+02  0.7546771E-02  0.1533477E+00
          2   -1    0    0  501    0  0.00000000000E+00  0.00000000000E+00  0.14466253112E+03  0.14466253112E+03  0.00000000000E+00 0. -1.
         -2   -1    0    0    0  501 -0.00000000000E+00 -0.00000000000E+00 -0.23356868638E+01  0.23356868638E+01  0.00000000000E+00 0.  1.
        -11    1    1    2    0    0 -0.16336696010E+02  0.78703914312E+01  0.59130886153E+02  0.61848948213E+02  0.00000000000E+00 0. -1.
         11    1    1    2    0    0  0.16336696010E+02 -0.78703914312E+01  0.83195958103E+02  0.85149269771E+02  0.00000000000E+00 0.  1.
<mgrwt>
<rscale>  0 0.36763372E+02</rscale>
<asrwt>0</asrwt>
<pdfrwt beam="1">  1        2 0.22255767E-01 0.36763372E+02</pdfrwt>
<pdfrwt beam="2">  1       -2 0.35933655E-03 0.36763372E+02</pdfrwt>
<totfact> 0.14182797E+06</totfact>
</mgrwt>
</event>
<event>
 4    1  0.2126213E+000  0.2695010E+02  0.7546771E-02  0.1634475E+00
          4   -1    0    0  501    0  0.00000000000E+00  0.00000000000E+00  0.31456086428E+02  0.31456086428E+02  0.00000000000E+00 0.  1.
         -4   -1    0    0    0  501 -0.00000000000E+00 -0.00000000000E+00 -0.57723963005E+01  0.57723963005E+01  0.00000000000E+00 0. -1.
        -11    1    1    2    0    0 -0.99780447845E+01 -0.52320924416E+01  0.23052969340E+02  0.25658830145E+02  0.00000000000E+00 0.  1.
         11    1    1    2    0    0  0.99780447845E+01  0.52320924416E+01  0.26307207880E+01  0.11569652584E+02  0.00000000000E+00 0. -1.
<mgrwt>
<rscale>  0 0.26950102E+02</rscale>
<asrwt>0</asrwt>
<pdfrwt beam="1">  1        4 0.48393978E-02 0.26950102E+02</pdfrwt>
<pdfrwt beam="2">  1       -4 0.88806099E-03 0.26950102E+02</pdfrwt>
<totfact> 0.64291012E+05</totfact>
</mgrwt>
</event>
<event>
 4    1  0.2126213E+000  0.2640956E+02  0.7546771E-02  0.1641544E+00
         -2   -1    0    0    0  501 -0.00000000000E+00  0.00000000000E+00  0.20394123246E+02  0.20394123246E+02  0.00000000000E+00 0. -1.
          2   -1    0    0  501    0  0.00000000000E+00 -0.00000000000E+00 -0.85498237925E+01  0.85498237925E+01  0.00000000000E+00 0.  1.
        -13    1    1    2    0    0  0.96617254531E+01 -0.60538309588E+01 -0.13780258742E+01  0.11484631614E+02  0.00000000000E+00 0.  1.
         13    1    1    2    0    0 -0.96617254531E+01  0.60538309588E+01  0.13222325328E+02  0.17459315424E+02  0.00000000000E+00 0. -1.
<mgrwt>
<rscale>  0 0.26409556E+02</rscale>
<asrwt>0</asrwt>
<pdfrwt beam="2">  1        2 0.13153575E-02 0.26409556E+02</pdfrwt>
<pdfrwt beam="1">  1       -2 0.31375574E-02 0.26409556E+02</pdfrwt>
<totfact> 0.20219855E+06</totfact>
</mgrwt>
</event>
<event>
 4    1  0.2126213E+000  0.2806574E+02  0.7546771E-02  0.1620509E+00
         -4   -1    0    0    0  501 -0.00000000000E+00  0.00000000000E+00  0.38008304416E+01  0.38008304416E+01  0.00000000000E+00 0. -1.
          4   -1    0    0  501    0  0.00000000000E+00 -0.00000000000E+00 -0.51810117457E+02  0.51810117457E+02  0.00000000000E+00 0.  1.
        -11    1    1    2    0    0  0.70445321054E+01 -0.11445224473E+02 -0.16004166607E+02  0.20898611069E+02  0.00000000000E+00 0. -1.
         11    1    1    2    0    0 -0.70445321054E+01  0.11445224473E+02 -0.32005120408E+02  0.34712336830E+02  0.00000000000E+00 0.  1.
<mgrwt>
<rscale>  0 0.28065742E+02</rscale>
<asrwt>0</asrwt>
<pdfrwt beam="2">  1        4 0.79707868E-02 0.28065742E+02</pdfrwt>
<pdfrwt beam="1">  1       -4 0.58474318E-03 0.28065742E+02</pdfrwt>
<totfact> 0.55094682E+05</totfact>
</mgrwt>
</event>
<event>
 4    1  0.2126213E+000  0.2321273E+02  0.7546771E-02  0.1688085E+00
         -2   -1    0    0    0  501 -0.00000000000E+00  0.00000000000E+00  0.48114699052E+02  0.48114699052E+02  0.00000000000E+00 0. -1.
          2   -1    0    0  501    0  0.00000000000E+00 -0.00000000000E+00 -0.27997215770E+01  0.27997215770E+01  0.00000000000E+00 0.  1.
        -11    1    1    2    0    0 -0.43174185328E+01  0.10485048483E+02  0.28088677731E+02  0.30291090458E+02  0.00000000000E+00 0. -1.
         11    1    1    2    0    0  0.43174185328E+01 -0.10485048483E+02  0.17226299744E+02  0.20623330171E+02  0.00000000000E+00 0.  1.
<mgrwt>
<rscale>  0 0.23212735E+02</rscale>
<asrwt>0</asrwt>
<pdfrwt beam="2">  1        2 0.43072643E-03 0.23212735E+02</pdfrwt>
<pdfrwt beam="1">  1       -2 0.74022608E-02 0.23212735E+02</pdfrwt>
<totfact> 0.24518253E+06</totfact>
</mgrwt>
</event>
<event>
 4    1  0.2126213E+000  0.6110391E+02  0.7546771E-02  0.1393257E+00
         -2   -1    0    0    0  501 -0.00000000000E+00  0.00000000000E+00  0.79430328387E+01  0.79430328387E+01  0.00000000000E+00 0. -1.
          2   -1    0    0  501    0  0.00000000000E+00 -0.00000000000E+00 -0.11751455861E+03  0.11751455861E+03  0.00000000000E+00 0.  1.
        -11    1    1    2    0    0 -0.24455353167E+02  0.89808513038E+00 -0.17231504256E+02  0.29929844543E+02  0.00000000000E+00 0. -1.
         11    1    1    2    0    0  0.24455353167E+02 -0.89808513038E+00 -0.92340021512E+02  0.95527746903E+02  0.00000000000E+00 0.  1.
<mgrwt>
<rscale>  0 0.61103911E+02</rscale>
<asrwt>0</asrwt>
<pdfrwt beam="2">  1        2 0.18079161E-01 0.61103911E+02</pdfrwt>
<pdfrwt beam="1">  1       -2 0.12220051E-02 0.61103911E+02</pdfrwt>
<totfact> 0.37435409E+05</totfact>
</mgrwt>
</event>
<event>
 4    1  0.2126213E+000  0.3356928E+02  0.7546771E-02  0.1561685E+00
          2   -1    0    0  501    0  0.00000000000E+00  0.00000000000E+00  0.14561451566E+02  0.14561451566E+02  0.00000000000E+00 0. -1.
         -2   -1    0    0    0  501 -0.00000000000E+00 -0.00000000000E+00 -0.19347257681E+02  0.19347257681E+02  0.00000000000E+00 0.  1.
        -11    1    1    2    0    0  0.11353622336E+02 -0.92394668599E+01  0.59030362386E+01  0.15783482659E+02  0.00000000000E+00 0. -1.
         11    1    1    2    0    0 -0.11353622336E+02  0.92394668599E+01 -0.10688842353E+02  0.18125226588E+02  0.00000000000E+00 0.  1.
<mgrwt>
<rscale>  0 0.33569281E+02</rscale>
<asrwt>0</asrwt>
<pdfrwt beam="1">  1        2 0.22402233E-02 0.33569281E+02</pdfrwt>
<pdfrwt beam="2">  1       -2 0.29765012E-02 0.33569281E+02</pdfrwt>
<totfact> 0.11816860E+06</totfact>
</mgrwt>
</event>
<event>
 4    1  0.2126213E+000  0.7543415E+02  0.7546771E-02  0.1342532E+00
          1   -1    0    0  501    0  0.00000000000E+00  0.00000000000E+00  0.23874211055E+02  0.23874211055E+02  0.00000000000E+00 0. -1.
         -1   -1    0    0    0  501 -0.00000000000E+00 -0.00000000000E+00 -0.59586371162E+02  0.59586371162E+02  0.00000000000E+00 0.  1.
        -13    1    1    2    0    0  0.20021071949E+02 -0.13735184150E+02 -0.49790315542E+02  0.55394712089E+02  0.00000000000E+00 0.  1.
         13    1    1    2    0    0 -0.20021071949E+02  0.13735184150E+02  0.14078155434E+02  0.28065870129E+02  0.00000000000E+00 0. -1.
<mgrwt>
<rscale>  0 0.75434146E+02</rscale>
<asrwt>0</asrwt>
<pdfrwt beam="1">  1        1 0.36729555E-02 0.75434146E+02</pdfrwt>
<pdfrwt beam="2">  1       -1 0.91671340E-02 0.75434146E+02</pdfrwt>
<totfact> 0.14341898E+05</totfact>
</mgrwt>
</event>
<event>
 4    1  0.2126213E+000  0.2126782E+02  0.7546771E-02  0.1721231E+00
          2   -1    0    0  501    0  0.00000000000E+00  0.00000000000E+00  0.14195813173E+02  0.14195813173E+02  0.00000000000E+00 0. -1.
         -2   -1    0    0    0  501 -0.00000000000E+00 -0.00000000000E+00 -0.79657324985E+01  0.79657324985E+01  0.00000000000E+00 0.  1.
        -11    1    1    2    0    0 -0.78757909032E+01  0.63280257650E+01 -0.34222257766E+00  0.10108862880E+02  0.00000000000E+00 0.  1.
         11    1    1    2    0    0  0.78757909032E+01 -0.63280257650E+01  0.65723032521E+01  0.12052682791E+02  0.00000000000E+00 0. -1.
<mgrwt>
<rscale>  0 0.21267821E+02</rscale>
<asrwt>0</asrwt>
<pdfrwt beam="1">  1        2 0.21839713E-02 0.21267821E+02</pdfrwt>
<pdfrwt beam="2">  1       -2 0.12254973E-02 0.21267821E+02</pdfrwt>
<totfact> 0.35208166E+06</totfact>
</mgrwt>
</event>
<event>
 4    1  0.2126213E+000  0.6538710E+02  0.7546771E-02  0.1376521E+00
         -2   -1    0    0    0  501 -0.00000000000E+00  0.00000000000E+00  0.73655615008E+01  0.73655615008E+01  0.00000000000E+00 0.  1.
          2   -1    0    0  501    0  0.00000000000E+00 -0.00000000000E+00 -0.14511698218E+03  0.14511698218E+03  0.00000000000E+00 0. -1.
        -11    1    1    2    0    0 -0.17303760615E+02 -0.13780116930E+02 -0.12501616170E+03  0.12695807355E+03  0.00000000000E+00 0. -1.
         11    1    1    2    0    0  0.17303760615E+02  0.13780116930E+02 -0.12735258978E+02  0.25524470127E+02  0.00000000000E+00 0.  1.
<mgrwt>
<rscale>  0 0.65387095E+02</rscale>
<asrwt>0</asrwt>
<pdfrwt beam="2">  1        2 0.22325688E-01 0.65387095E+02</pdfrwt>
<pdfrwt beam="1">  1       -2 0.11331634E-02 0.65387095E+02</pdfrwt>
<totfact> 0.33459564E+05</totfact>
</mgrwt>
</event>
<event>
 4    1  0.2126213E+000  0.3533053E+02  0.7546771E-02  0.1545685E+00
          1   -1    0    0  501    0  0.00000000000E+00  0.00000000000E+00  0.50013967417E+01  0.50013967417E+01  0.00000000000E+00 0. -1.
         -1   -1    0    0    0  501 -0.00000000000E+00 -0.00000000000E+00 -0.62394886152E+02  0.62394886152E+02  0.00000000000E+00 0.  1.
        -11    1    1    2    0    0  0.13204019376E+02 -0.37068642984E+01 -0.74568591677E+01  0.15610628407E+02  0.00000000000E+00 0. -1.
         11    1    1    2    0    0 -0.13204019376E+02  0.37068642984E+01 -0.49936630243E+02  0.51785654487E+02  0.00000000000E+00 0.  1.
<mgrwt>
<rscale>  0 0.35330530E+02</rscale>
<asrwt>0</asrwt>
<pdfrwt beam="1">  1        1 0.76944564E-03 0.35330530E+02</pdfrwt>
<pdfrwt beam="2">  1       -1 0.95992135E-02 0.35330530E+02</pdfrwt>
<totfact> 0.92420695E+05</totfact>
</mgrwt>
</event>
<event>
 4    1  0.2126213E+000  0.2839494E+02  0.7546771E-02  0.1616540E+00
         -2   -1    0    0    0  501 -0.00000000000E+00  0.00000000000E+00  0.30358531512E+01  0.30358531512E+01  0.00000000000E+00 0.  1.
          2   -1    0    0  501    0  0.00000000000E+00 -0.00000000000E+00 -0.66395897484E+02  0.66395897484E+02  0.00000000000E+00 0. -1.
        -11    1    1    2    0    0 -0.82612782788E+01  0.57049662690E+01 -0.71335628416E+01  0.12315968405E+02  0.00000000000E+00 0.  1.
         11    1    1    2    0    0  0.82612782788E+01 -0.57049662690E+01 -0.56226481491E+02  0.57115782230E+02  0.00000000000E+00 0. -1.
<mgrwt>
<rscale>  0 0.28394943E+02</rscale>
<asrwt>0</asrwt>
<pdfrwt beam="2">  1        2 0.10214754E-01 0.28394943E+02</pdfrwt>
<pdfrwt beam="1">  1       -2 0.46705433E-03 0.28394943E+02</pdfrwt>
<totfact> 0.21776490E+06</totfact>
</mgrwt>
</event>
<event>
 4    1  0.2126213E+000  0.4234946E+02  0.7546771E-02  0.1491601E+00
          2   -1    0    0  501    0  0.00000000000E+00  0.00000000000E+00  0.11267156669E+03  0.11267156669E+03  0.00000000000E+00 0. -1.
         -2   -1    0    0    0  501 -0.00000000000E+00 -0.00000000000E+00 -0.39794342483E+01  0.39794342483E+01  0.00000000000E+00 0.  1.
        -11    1    1    2    0    0  0.12972869314E+01  0.19297612066E+02  0.78087167997E+02  0.80446793538E+02  0.00000000000E+00 0. -1.
         11    1    1    2    0    0 -0.12972869314E+01 -0.19297612066E+02  0.30604964449E+02  0.36204207404E+02  0.00000000000E+00 0.  1.
<mgrwt>
<rscale>  0 0.42349455E+02</rscale>
<asrwt>0</asrwt>
<pdfrwt beam="1">  1        2 0.17334085E-01 0.42349455E+02</pdfrwt>
<pdfrwt beam="2">  1       -2 0.61222074E-03 0.42349455E+02</pdfrwt>
<totfact> 0.93619750E+05</totfact>
</mgrwt>
</event>
<event>
 4    1  0.2126213E+000  0.3686524E+02  0.7546771E-02  0.1532634E+00
          2   -1    0    0  501    0  0.00000000000E+00  0.00000000000E+00  0.17764229174E+03  0.17764229174E+03  0.00000000000E+00 0. -1.
         -2   -1    0    0    0  501 -0.00000000000E+00 -0.00000000000E+00 -0.19126159700E+01  0.19126159700E+01  0.00000000000E+00 0.  1.
        -11    1    1    2    0    0 -0.33941122858E+01 -0.18082954574E+02  0.82423205176E+02  0.84451749513E+02  0.00000000000E+00 0. -1.
         11    1    1    2    0    0  0.33941122858E+01  0.18082954574E+02  0.93306470598E+02  0.95103158201E+02  0.00000000000E+00 0.  1.
<mgrwt>
<rscale>  0 0.36865240E+02</rscale>
<asrwt>0</asrwt>
<pdfrwt beam="1">  1        2 0.27329570E-01 0.36865240E+02</pdfrwt>
<pdfrwt beam="2">  1       -2 0.29424875E-03 0.36865240E+02</pdfrwt>
<totfact> 0.14985217E+06</totfact>
</mgrwt>
</event>
<event>
 4    1  0.2126213E+000  0.2049806E+02  0.7546771E-02  0.1735601E+00
          2   -1    0    0  501    0  0.00000000000E+00  0.00000000000E+00  0.90193548105E+02  0.90193548105E+02  0.00000000000E+00 0. -1.
         -2   -1    0    0    0  501 -0.00000000000E+00 -0.00000000000E+00 -0.11646352842E+01  0.11646352842E+01  0.00000000000E+00 0.  1.
        -11    1    1    2    0    0  0.10036254725E+02  0.20763401465E+01  0.44829331154E+02  0.45985938384E+02  0.00000000000E+00 0. -1.
         11    1    1    2    0    0 -0.10036254725E+02 -0.20763401465E+01  0.44199581667E+02  0.45372245005E+02  0.00000000000E+00 0.  1.
<mgrwt>
<rscale>  0 0.20498057E+02</rscale>
<asrwt>0</asrwt>
<pdfrwt beam="1">  1        2 0.13875925E-01 0.20498057E+02</pdfrwt>
<pdfrwt beam="2">  1       -2 0.17917473E-03 0.20498057E+02</pdfrwt>
<totfact> 0.48834392E+06</totfact>
</mgrwt>
</event>
<event>
 4    1  0.2126213E+000  0.2739409E+02  0.7546771E-02  0.1628819E+00
          2   -1    0    0  501    0  0.00000000000E+00  0.00000000000E+00  0.54500484544E+02  0.54500484544E+02  0.00000000000E+00 0. -1.
         -2   -1    0    0    0  501 -0.00000000000E+00 -0.00000000000E+00 -0.34423377804E+01  0.34423377804E+01  0.00000000000E+00 0.  1.
        -11    1    1    2    0    0  0.11150767782E+02  0.79122583957E+01  0.23803408173E+02  0.27450786796E+02  0.00000000000E+00 0.  1.
         11    1    1    2    0    0 -0.11150767782E+02 -0.79122583957E+01  0.27254738590E+02  0.30492035528E+02  0.00000000000E+00 0. -1.
<mgrwt>
<rscale>  0 0.27394093E+02</rscale>
<asrwt>0</asrwt>
<pdfrwt beam="1">  1        2 0.83846893E-02 0.27394093E+02</pdfrwt>
<pdfrwt beam="2">  1       -2 0.52959047E-03 0.27394093E+02</pdfrwt>
<totfact> 0.22864730E+06</totfact>
</mgrwt>
</event>
<event>
 4    1  0.2126213E+000  0.2319203E+02  0.7546771E-02  0.1688416E+00
         -2   -1    0    0    0  501 -0.00000000000E+00  0.00000000000E+00  0.74559226173E+01  0.74559226173E+01  0.00000000000E+00 0.  1.
          2   -1    0    0  501    0  0.00000000000E+00 -0.00000000000E+00 -0.18034998199E+02  0.18034998199E+02  0.00000000000E+00 0. -1.
        -11    1    1    2    0    0  0.98223755834E+01 -0.58255135351E+01 -0.75019962114E+01  0.13663660461E+02  0.00000000000E+00 0. -1.
         11    1    1    2    0    0 -0.98223755834E+01  0.58255135351E+01 -0.30770793703E+01  0.11827260355E+02  0.00000000000E+00 0.  1.
<mgrwt>
<rscale>  0 0.23192029E+02</rscale>
<asrwt>0</asrwt>
<pdfrwt beam="2">  1        2 0.27746151E-02 0.23192029E+02</pdfrwt>
<pdfrwt beam="1">  1       -2 0.11470650E-02 0.23192029E+02</pdfrwt>
<totfact> 0.29421101E+06</totfact>
</mgrwt>
</event>
<event>
 4    1  0.2126213E+000  0.2258282E+02  0.7546771E-02  0.1698363E+00
          1   -1    0    0  501    0  0.00000000000E+00  0.00000000000E+00  0.85857617881E+01  0.85857617881E+01  0.00000000000E+00 0.  1.
         -1   -1    0    0    0  501 -0.00000000000E+00 -0.00000000000E+00 -0.14849694212E+02  0.14849694212E+02  0.00000000000E+00 0. -1.
        -13    1    1    2    0    0 -0.74694123204E+01 -0.83100430773E+01 -0.48203542776E+01  0.12169007836E+02  0.00000000000E+00 0.  1.
         13    1    1    2    0    0  0.74694123204E+01  0.83100430773E+01 -0.14435781462E+01  0.11266448164E+02  0.00000000000E+00 0. -1.
<mgrwt>
<rscale>  0 0.22582820E+02</rscale>
<asrwt>0</asrwt>
<pdfrwt beam="1">  1        1 0.13208864E-02 0.22582820E+02</pdfrwt>
<pdfrwt beam="2">  1       -1 0.22845683E-02 0.22582820E+02</pdfrwt>
<totfact> 0.29016855E+06</totfact>
</mgrwt>
</event>
<event>
 4    1  0.2126213E+000  0.2285760E+02  0.7546771E-02  0.1693829E+00
          2   -1    0    0  501    0  0.00000000000E+00  0.00000000000E+00  0.20380297931E+01  0.20380297931E+01  0.00000000000E+00 0. -1.
         -2   -1    0    0    0  501 -0.00000000000E+00 -0.00000000000E+00 -0.64090072254E+02  0.64090072254E+02  0.00000000000E+00 0.  1.
        -13    1    1    2    0    0  0.53569081884E+01  0.95810317192E+01 -0.21820475140E+02  0.24425924127E+02  0.00000000000E+00 0. -1.
         13    1    1    2    0    0 -0.53569081884E+01 -0.95810317192E+01 -0.40231567321E+02  0.41702177920E+02  0.00000000000E+00 0.  1.
<mgrwt>
<rscale>  0 0.22857601E+02</rscale>
<asrwt>0</asrwt>
<pdfrwt beam="1">  1        2 0.31354310E-03 0.22857601E+02</pdfrwt>
<pdfrwt beam="2">  1       -2 0.98600093E-02 0.22857601E+02</pdfrwt>
<totfact> 0.24266210E+06</totfact>
</mgrwt>
</event>
<event>
 4    1  0.2126213E+000  0.2446509E+02  0.7546771E-02  0.1668806E+00
          2   -1    0    0  501    0  0.00000000000E+00  0.00000000000E+00  0.86774341280E+02  0.86774341280E+02  0.00000000000E+00 0. -1.
         -2   -1    0    0    0  501 -0.00000000000E+00 -0.00000000000E+00 -0.17244166356E+01  0.17244166356E+01  0.00000000000E+00 0.  1.
        -13    1    1    2    0    0 -0.85140993929E+01  0.81910852758E+01  0.31056567436E+02  0.33227912173E+02  0.00000000000E+00 0.  1.
         13    1    1    2    0    0  0.85140993929E+01 -0.81910852758E+01  0.53993357208E+02  0.55270845742E+02  0.00000000000E+00 0. -1.
<mgrwt>
<rscale>  0 0.24465087E+02</rscale>
<asrwt>0</asrwt>
<pdfrwt beam="1">  1        2 0.13349895E-01 0.24465087E+02</pdfrwt>
<pdfrwt beam="2">  1       -2 0.26529494E-03 0.24465087E+02</pdfrwt>
<totfact> 0.32498538E+06</totfact>
</mgrwt>
</event>
<event>
 4    1  0.2126213E+000  0.2362526E+02  0.7546771E-02  0.1681571E+00
          1   -1    0    0  501    0  0.00000000000E+00  0.00000000000E+00  0.40867323703E+01  0.40867323703E+01  0.00000000000E+00 0. -1.
         -1   -1    0    0    0  501 -0.00000000000E+00 -0.00000000000E+00 -0.34144214348E+02  0.34144214348E+02  0.00000000000E+00 0.  1.
        -13    1    1    2    0    0  0.92842613181E+01 -0.70062546996E+01 -0.11691451399E+02  0.16491669077E+02  0.00000000000E+00 0. -1.
         13    1    1    2    0    0 -0.92842613181E+01  0.70062546996E+01 -0.18366030579E+02  0.21739277642E+02  0.00000000000E+00 0.  1.
<mgrwt>
<rscale>  0 0.23625263E+02</rscale>
<asrwt>0</asrwt>
<pdfrwt beam="1">  1        1 0.62872808E-03 0.23625263E+02</pdfrwt>
<pdfrwt beam="2">  1       -1 0.52529559E-02 0.23625263E+02</pdfrwt>
<totfact> 0.24923932E+06</totfact>
</mgrwt>
</event>
<event>
 4    1  0.2126213E+000  0.2496382E+02  0.7546771E-02  0.1661522E+00
          1   -1    0    0  501    0  0.00000000000E+00  0.00000000000E+00  0.35216754727E+01  0.35216754727E+01  0.00000000000E+00 0.  1.
         -1   -1    0    0    0  501 -0.00000000000E+00 -0.00000000000E+00 -0.44239756844E+02  0.44239756844E+02  0.00000000000E+00 0. -1.
        -13    1    1    2    0    0 -0.12374071312E+01  0.10004992168E+02 -0.62780310986E+01  0.11876224954E+02  0.00000000000E+00 0.  1.
         13    1    1    2    0    0  0.12374071312E+01 -0.10004992168E+02 -0.34440050273E+02  0.35885207363E+02  0.00000000000E+00 0. -1.
<mgrwt>
<rscale>  0 0.24963819E+02</rscale>
<asrwt>0</asrwt>
<pdfrwt beam="1">  1        1 0.54179621E-03 0.24963819E+02</pdfrwt>
<pdfrwt beam="2">  1       -1 0.68061166E-02 0.24963819E+02</pdfrwt>
<totfact> 0.21517931E+06</totfact>
</mgrwt>
</event>
<event>
 4    1  0.2126213E+000  0.3449637E+02  0.7546771E-02  0.1553119E+00
         -1   -1    0    0    0  501 -0.00000000000E+00  0.00000000000E+00  0.59069683775E+02  0.59069683775E+02  0.00000000000E+00 0. -1.
          1   -1    0    0  501    0  0.00000000000E+00 -0.00000000000E+00 -0.50364224107E+01  0.50364224107E+01  0.00000000000E+00 0.  1.
        -13    1    1    2    0    0 -0.29857253086E+01  0.15159519415E+02  0.41263509129E+02  0.44061352342E+02  0.00000000000E+00 0. -1.
         13    1    1    2    0    0  0.29857253086E+01 -0.15159519415E+02  0.12769752236E+02  0.20044753844E+02  0.00000000000E+00 0.  1.
<mgrwt>
<rscale>  0 0.34496370E+02</rscale>
<asrwt>0</asrwt>
<pdfrwt beam="2">  1        1 0.77483426E-03 0.34496370E+02</pdfrwt>
<pdfrwt beam="1">  1       -1 0.90876432E-02 0.34496370E+02</pdfrwt>
<totfact> 0.98440495E+05</totfact>
</mgrwt>
</event>
<event>
 4    1  0.2126213E+000  0.3480652E+02  0.7546771E-02  0.1550325E+00
         -2   -1    0    0    0  501 -0.00000000000E+00  0.00000000000E+00  0.73088885828E+01  0.73088885828E+01  0.00000000000E+00 0. -1.
          2   -1    0    0  501    0  0.00000000000E+00 -0.00000000000E+00 -0.41439046195E+02  0.41439046195E+02  0.00000000000E+00 0.  1.
        -11    1    1    2    0    0 -0.12282719866E+02  0.55963599808E+01 -0.16789494702E+01  0.13601592689E+02  0.00000000000E+00 0. -1.
         11    1    1    2    0    0  0.12282719866E+02 -0.55963599808E+01 -0.32451208142E+02  0.35146342089E+02  0.00000000000E+00 0.  1.
<mgrwt>
<rscale>  0 0.34806515E+02</rscale>
<asrwt>0</asrwt>
<pdfrwt beam="2">  1        2 0.63752378E-02 0.34806515E+02</pdfrwt>
<pdfrwt beam="1">  1       -2 0.11244444E-02 0.34806515E+02</pdfrwt>
<totfact> 0.12329602E+06</totfact>
</mgrwt>
</event>
<event>
 4    1  0.2126213E+000  0.3165068E+02  0.7546771E-02  0.1580528E+00
          2   -1    0    0  501    0  0.00000000000E+00  0.00000000000E+00  0.25363875087E+01  0.25363875087E+01  0.00000000000E+00 0.  1.
         -2   -1    0    0    0  501 -0.00000000000E+00 -0.00000000000E+00 -0.98739376401E+02  0.98739376401E+02  0.00000000000E+00 0. -1.
        -13    1    1    2    0    0 -0.11011863345E+02 -0.92869410439E+01 -0.27135391424E+02  0.30721944535E+02  0.00000000000E+00 0.  1.
         13    1    1    2    0    0  0.11011863345E+02  0.92869410439E+01 -0.69067597468E+02  0.70553819374E+02  0.00000000000E+00 0. -1.
<mgrwt>
<rscale>  0 0.31650676E+02</rscale>
<asrwt>0</asrwt>
<pdfrwt beam="1">  1        2 0.39021344E-03 0.31650676E+02</pdfrwt>
<pdfrwt beam="2">  1       -2 0.15190674E-01 0.31650676E+02</pdfrwt>
<totfact> 0.10563101E+06</totfact>
</mgrwt>
</event>
<event>
 4    1  0.2126213E+000  0.2547451E+02  0.7546771E-02  0.1654278E+00
         -1   -1    0    0    0  501 -0.00000000000E+00  0.00000000000E+00  0.19460837646E+02  0.19460837646E+02  0.00000000000E+00 0.  1.
          1   -1    0    0  501    0  0.00000000000E+00 -0.00000000000E+00 -0.83366217668E+01  0.83366217668E+01  0.00000000000E+00 0. -1.
        -11    1    1    2    0    0 -0.12474064345E+02 -0.24795940161E+01  0.48006382663E+01  0.13593998511E+02  0.00000000000E+00 0.  1.
         11    1    1    2    0    0  0.12474064345E+02  0.24795940161E+01  0.63235776128E+01  0.14203460902E+02  0.00000000000E+00 0. -1.
<mgrwt>
<rscale>  0 0.25474508E+02</rscale>
<asrwt>0</asrwt>
<pdfrwt beam="2">  1        1 0.12825572E-02 0.25474508E+02</pdfrwt>
<pdfrwt beam="1">  1       -1 0.29939750E-02 0.25474508E+02</pdfrwt>
<totfact> 0.21805979E+06</totfact>
</mgrwt>
</event>
<event>
 4    1  0.2126213E+000  0.2855060E+02  0.7546771E-02  0.1614686E+00
         -4   -1    0    0    0  501 -0.00000000000E+00  0.00000000000E+00  0.39374695185E+01  0.39374695185E+01  0.00000000000E+00 0.  1.
          4   -1    0    0  501    0  0.00000000000E+00 -0.00000000000E+00 -0.51755101069E+02  0.51755101069E+02  0.00000000000E+00 0. -1.
        -13    1    1    2    0    0 -0.39706358482E+01 -0.92497954011E+01 -0.43653861126E+02  0.44799377844E+02  0.00000000000E+00 0. -1.
         13    1    1    2    0    0  0.39706358482E+01  0.92497954011E+01 -0.41637704249E+01  0.10893192744E+02  0.00000000000E+00 0.  1.
<mgrwt>
<rscale>  0 0.28550596E+02</rscale>
<asrwt>0</asrwt>
<pdfrwt beam="2">  1        4 0.79623220E-02 0.28550596E+02</pdfrwt>
<pdfrwt beam="1">  1       -4 0.60576463E-03 0.28550596E+02</pdfrwt>
<totfact> 0.53032091E+05</totfact>
</mgrwt>
</event>
<event>
 4    1  0.2126213E+000  0.3571438E+02  0.7546771E-02  0.1542347E+00
          2   -1    0    0  501    0  0.00000000000E+00  0.00000000000E+00  0.84547758450E+02  0.84547758450E+02  0.00000000000E+00 0.  1.
         -2   -1    0    0    0  501 -0.00000000000E+00 -0.00000000000E+00 -0.37715878668E+01  0.37715878668E+01  0.00000000000E+00 0. -1.
        -11    1    1    2    0    0 -0.46754625102E-02  0.12120769988E+02  0.72817137067E+02  0.73819025580E+02  0.00000000000E+00 0.  1.
         11    1    1    2    0    0  0.46754625102E-02 -0.12120769988E+02  0.79590335161E+01  0.14500320737E+02  0.00000000000E+00 0. -1.
<mgrwt>
<rscale>  0 0.35714384E+02</rscale>
<asrwt>0</asrwt>
<pdfrwt beam="1">  1        2 0.13007346E-01 0.35714384E+02</pdfrwt>
<pdfrwt beam="2">  1       -2 0.58024435E-03 0.35714384E+02</pdfrwt>
<totfact> 0.13239514E+06</totfact>
</mgrwt>
</event>
<event>
 4    1  0.2126213E+000  0.7041712E+02  0.7546771E-02  0.1358680E+00
         -2   -1    0    0    0  501 -0.00000000000E+00  0.00000000000E+00  0.19474866137E+02  0.19474866137E+02  0.00000000000E+00 0.  1.
          2   -1    0    0  501    0  0.00000000000E+00 -0.00000000000E+00 -0.63653466918E+02  0.63653466918E+02  0.00000000000E+00 0. -1.
        -13    1    1    2    0    0  0.25192204089E+02 -0.11575334670E+01 -0.51093805730E+02  0.56978627700E+02  0.00000000000E+00 0. -1.
         13    1    1    2    0    0 -0.25192204089E+02  0.11575334670E+01  0.69152049491E+01  0.26149705354E+02  0.00000000000E+00 0.  1.
<mgrwt>
<rscale>  0 0.70417121E+02</rscale>
<asrwt>0</asrwt>
<pdfrwt beam="2">  1        2 0.97928412E-02 0.70417121E+02</pdfrwt>
<pdfrwt beam="1">  1       -2 0.29961332E-02 0.70417121E+02</pdfrwt>
<totfact> 0.21929272E+05</totfact>
</mgrwt>
</event>
<event>
 4    1  0.2126213E+000  0.2988674E+02  0.7546771E-02  0.1599344E+00
         -3   -1    0    0    0  501 -0.00000000000E+00  0.00000000000E+00  0.92254362404E+02  0.92254362404E+02  0.00000000000E+00 0.  1.
          3   -1    0    0  501    0  0.00000000000E+00 -0.00000000000E+00 -0.24205289795E+01  0.24205289795E+01  0.00000000000E+00 0. -1.
        -11    1    1    2    0    0  0.12411417537E+02 -0.33219714696E+01  0.20744886697E+02  0.24401416020E+02  0.00000000000E+00 0. -1.
         11    1    1    2    0    0 -0.12411417537E+02  0.33219714696E+01  0.69088946727E+02  0.70273475363E+02  0.00000000000E+00 0.  1.
<mgrwt>
<rscale>  0 0.29886743E+02</rscale>
<asrwt>0</asrwt>
<pdfrwt beam="2">  1        3 0.37238914E-03 0.29886743E+02</pdfrwt>
<pdfrwt beam="1">  1       -3 0.14192976E-01 0.29886743E+02</pdfrwt>
<totfact> 0.58578719E+05</totfact>
</mgrwt>
</event>
<event>
 4    1  0.2126213E+000  0.6628604E+02  0.7546771E-02  0.1373198E+00
         -2   -1    0    0    0  501 -0.00000000000E+00  0.00000000000E+00  0.29423846729E+02  0.29423846729E+02  0.00000000000E+00 0.  1.
          2   -1    0    0  501    0  0.00000000000E+00 -0.00000000000E+00 -0.37332292250E+02  0.37332292250E+02  0.00000000000E+00 0. -1.
        -11    1    1    2    0    0  0.81466438552E+01  0.20638457622E+02 -0.28748859465E+02  0.36315432803E+02  0.00000000000E+00 0. -1.
         11    1    1    2    0    0 -0.81466438552E+01 -0.20638457622E+02  0.20840413944E+02  0.30440706176E+02  0.00000000000E+00 0.  1.
<mgrwt>
<rscale>  0 0.66286036E+02</rscale>
<asrwt>0</asrwt>
<pdfrwt beam="2">  1        2 0.57434295E-02 0.66286036E+02</pdfrwt>
<pdfrwt beam="1">  1       -2 0.45267457E-02 0.66286036E+02</pdfrwt>
<totfact> 0.22989243E+05</totfact>
</mgrwt>
</event>
<event>
 4    1  0.2126213E+000  0.2285425E+02  0.7546771E-02  0.1693884E+00
          2   -1    0    0  501    0  0.00000000000E+00  0.00000000000E+00  0.58244767074E+02  0.58244767074E+02  0.00000000000E+00 0.  1.
         -2   -1    0    0    0  501 -0.00000000000E+00 -0.00000000000E+00 -0.22419041785E+01  0.22419041785E+01  0.00000000000E+00 0. -1.
        -11    1    1    2    0    0  0.66263141272E+01 -0.91671405477E+01  0.32297357598E+02  0.34220809642E+02  0.00000000000E+00 0.  1.
         11    1    1    2    0    0 -0.66263141272E+01  0.91671405477E+01  0.23705505298E+02  0.26265861611E+02  0.00000000000E+00 0. -1.
<mgrwt>
<rscale>  0 0.22854250E+02</rscale>
<asrwt>0</asrwt>
<pdfrwt beam="1">  1        2 0.89607323E-02 0.22854250E+02</pdfrwt>
<pdfrwt beam="2">  1       -2 0.34490838E-03 0.22854250E+02</pdfrwt>
<totfact> 0.35152122E+06</totfact>
</mgrwt>
</event>
<event>
 4    1  0.2126213E+000  0.3499294E+02  0.7546771E-02  0.1548663E+00
          2   -1    0    0  501    0  0.00000000000E+00  0.00000000000E+00  0.36284330188E+02  0.36284330188E+02  0.00000000000E+00 0.  1.
         -2   -1    0    0    0  501 -0.00000000000E+00 -0.00000000000E+00 -0.84368789754E+01  0.84368789754E+01  0.00000000000E+00 0. -1.
        -11    1    1    2    0    0  0.10955210736E+02  0.12498520874E+02  0.20911609701E+02  0.26711890360E+02  0.00000000000E+00 0.  1.
         11    1    1    2    0    0 -0.10955210736E+02 -0.12498520874E+02  0.69358415116E+01  0.18009318804E+02  0.00000000000E+00 0. -1.
<mgrwt>
<rscale>  0 0.34992942E+02</rscale>
<asrwt>0</asrwt>
<pdfrwt beam="1">  1        2 0.55822046E-02 0.34992942E+02</pdfrwt>
<pdfrwt beam="2">  1       -2 0.12979814E-02 0.34992942E+02</pdfrwt>
<totfact> 0.11931132E+06</totfact>
</mgrwt>
</event>
<event>
 4    1  0.2126213E+000  0.3718848E+02  0.7546771E-02  0.1529983E+00
         -1   -1    0    0    0  501 -0.00000000000E+00  0.00000000000E+00  0.67194574726E+01  0.67194574726E+01  0.00000000000E+00 0.  1.
          1   -1    0    0  501    0  0.00000000000E+00 -0.00000000000E+00 -0.51454419039E+02  0.51454419039E+02  0.00000000000E+00 0. -1.
        -11    1    1    2    0    0 -0.48703715728E+01 -0.16098953015E+02 -0.34768822017E+02  0.38623409894E+02  0.00000000000E+00 0. -1.
         11    1    1    2    0    0  0.48703715728E+01  0.16098953015E+02 -0.99661395497E+01  0.19550466617E+02  0.00000000000E+00 0.  1.
<mgrwt>
<rscale>  0 0.37188481E+02</rscale>
<asrwt>0</asrwt>
<pdfrwt beam="2">  1        1 0.79160645E-02 0.37188481E+02</pdfrwt>
<pdfrwt beam="1">  1       -1 0.10337627E-02 0.37188481E+02</pdfrwt>
<totfact> 0.98017797E+05</totfact>
</mgrwt>
</event>
<event>
 4    1  0.2126213E+000  0.2248689E+02  0.7546771E-02  0.1699965E+00
          2   -1    0    0  501    0  0.00000000000E+00  0.00000000000E+00  0.45359536877E+01  0.45359536877E+01  0.00000000000E+00 0.  1.
         -2   -1    0    0    0  501 -0.00000000000E+00 -0.00000000000E+00 -0.27869562128E+02  0.27869562128E+02  0.00000000000E+00 0. -1.
        -11    1    1    2    0    0 -0.10390872324E+02 -0.42770740778E+01 -0.12227630304E+02  0.16606581020E+02  0.00000000000E+00 0.  1.
         11    1    1    2    0    0  0.10390872324E+02  0.42770740778E+01 -0.11105978137E+02  0.15798934796E+02  0.00000000000E+00 0. -1.
<mgrwt>
<rscale>  0 0.22486889E+02</rscale>
<asrwt>0</asrwt>
<pdfrwt beam="1">  1        2 0.69783904E-03 0.22486889E+02</pdfrwt>
<pdfrwt beam="2">  1       -2 0.42876249E-02 0.22486889E+02</pdfrwt>
<totfact> 0.28077799E+06</totfact>
</mgrwt>
</event>
<event>
 4    1  0.2126213E+000  0.2260658E+02  0.7546771E-02  0.1697968E+00
         -3   -1    0    0    0  501 -0.00000000000E+00  0.00000000000E+00  0.54238507840E+01  0.54238507840E+01  0.00000000000E+00 0. -1.
          3   -1    0    0  501    0  0.00000000000E+00 -0.00000000000E+00 -0.23556031476E+02  0.23556031476E+02  0.00000000000E+00 0.  1.
        -13    1    1    2    0    0  0.91971390097E+01  0.42626247090E+01 -0.15476607223E+02  0.18500883939E+02  0.00000000000E+00 0.  1.
         13    1    1    2    0    0 -0.91971390097E+01 -0.42626247090E+01 -0.26555734690E+01  0.10478998322E+02  0.00000000000E+00 0. -1.
<mgrwt>
<rscale>  0 0.22606583E+02</rscale>
<asrwt>0</asrwt>
<pdfrwt beam="2">  1        3 0.36240048E-02 0.22606583E+02</pdfrwt>
<pdfrwt beam="1">  1       -3 0.83443860E-03 0.22606583E+02</pdfrwt>
<totfact> 0.13257154E+06</totfact>
</mgrwt>
</event>
<event>
 4    1  0.2126213E+000  0.3958404E+02  0.7546771E-02  0.1511295E+00
         -4   -1    0    0    0  501 -0.00000000000E+00  0.00000000000E+00  0.33735529869E+02  0.33735529869E+02  0.00000000000E+00 0.  1.
          4   -1    0    0  501    0  0.00000000000E+00 -0.00000000000E+00 -0.11611618131E+02  0.11611618131E+02  0.00000000000E+00 0. -1.
        -13    1    1    2    0    0 -0.12307096703E+02 -0.15232641809E+02  0.77762670732E+01  0.21070556123E+02  0.00000000000E+00 0. -1.
         13    1    1    2    0    0  0.12307096703E+02  0.15232641809E+02  0.14347644665E+02  0.24276591877E+02  0.00000000000E+00 0.  1.
<mgrwt>
<rscale>  0 0.39584042E+02</rscale>
<asrwt>0</asrwt>
<pdfrwt beam="2">  1        4 0.17864028E-02 0.39584042E+02</pdfrwt>
<pdfrwt beam="1">  1       -4 0.51900815E-02 0.39584042E+02</pdfrwt>
<totfact> 0.25853385E+05</totfact>
</mgrwt>
</event>
<event>
 4    1  0.2126213E+000  0.3032835E+02  0.7546771E-02  0.1594487E+00
         -1   -1    0    0    0  501 -0.00000000000E+00  0.00000000000E+00  0.60721773359E+02  0.60721773359E+02  0.00000000000E+00 0.  1.
          1   -1    0    0  501    0  0.00000000000E+00 -0.00000000000E+00 -0.37869800956E+01  0.37869800956E+01  0.00000000000E+00 0. -1.
        -11    1    1    2    0    0 -0.83136877719E+01 -0.62557712257E+01  0.50026790190E+01  0.11544647044E+02  0.00000000000E+00 0. -1.
         11    1    1    2    0    0  0.83136877719E+01  0.62557712257E+01  0.51932114244E+02  0.52964106411E+02  0.00000000000E+00 0.  1.
<mgrwt>
<rscale>  0 0.30328346E+02</rscale>
<asrwt>0</asrwt>
<pdfrwt beam="2">  1        1 0.58261237E-03 0.30328346E+02</pdfrwt>
<pdfrwt beam="1">  1       -1 0.93418106E-02 0.30328346E+02</pdfrwt>
<totfact> 0.13290181E+06</totfact>
</mgrwt>
</event>
<event>
 4    1  0.2126213E+000  0.2230033E+02  0.7546771E-02  0.1703109E+00
         -2   -1    0    0    0  501 -0.00000000000E+00  0.00000000000E+00  0.35577381752E+01  0.35577381752E+01  0.00000000000E+00 0.  1.
          2   -1    0    0  501    0  0.00000000000E+00 -0.00000000000E+00 -0.34945290154E+02  0.34945290154E+02  0.00000000000E+00 0. -1.
        -11    1    1    2    0    0  0.10076677977E+02  0.15427444867E+01 -0.78942197564E+01  0.12893339566E+02  0.00000000000E+00 0.  1.
         11    1    1    2    0    0 -0.10076677977E+02 -0.15427444867E+01 -0.23493332223E+02  0.25609688763E+02  0.00000000000E+00 0. -1.
<mgrwt>
<rscale>  0 0.22300331E+02</rscale>
<asrwt>0</asrwt>
<pdfrwt beam="2">  1        2 0.53761984E-02 0.22300331E+02</pdfrwt>
<pdfrwt beam="1">  1       -2 0.54734435E-03 0.22300331E+02</pdfrwt>
<totfact> 0.34508291E+06</totfact>
</mgrwt>
</event>
<event>
 4    1  0.2126213E+000  0.2391835E+02  0.7546771E-02  0.1677042E+00
          2   -1    0    0  501    0  0.00000000000E+00  0.00000000000E+00  0.18267309360E+01  0.18267309360E+01  0.00000000000E+00 0. -1.
         -2   -1    0    0    0  501 -0.00000000000E+00 -0.00000000000E+00 -0.78293899598E+02  0.78293899598E+02  0.00000000000E+00 0.  1.
        -13    1    1    2    0    0  0.11976865246E+01 -0.10272455096E+02 -0.58350003139E+02  0.59259435139E+02  0.00000000000E+00 0.  1.
         13    1    1    2    0    0 -0.11976865246E+01  0.10272455096E+02 -0.18117165523E+02  0.20861195395E+02  0.00000000000E+00 0. -1.
<mgrwt>
<rscale>  0 0.23918352E+02</rscale>
<asrwt>0</asrwt>
<pdfrwt beam="1">  1        2 0.28103561E-03 0.23918352E+02</pdfrwt>
<pdfrwt beam="2">  1       -2 0.12045212E-01 0.23918352E+02</pdfrwt>
<totfact> 0.21119638E+06</totfact>
</mgrwt>
</event>
<event>
 4    1  0.2126213E+000  0.2357484E+02  0.7546771E-02  0.1682358E+00
         -2   -1    0    0    0  501 -0.00000000000E+00  0.00000000000E+00  0.24313864261E+02  0.24313864261E+02  0.00000000000E+00 0.  1.
          2   -1    0    0  501    0  0.00000000000E+00 -0.00000000000E+00 -0.57145714578E+01  0.57145714578E+01  0.00000000000E+00 0. -1.
        -11    1    1    2    0    0 -0.82089417352E+01 -0.84590364284E+01  0.92538441130E+01  0.14985848410E+02  0.00000000000E+00 0.  1.
         11    1    1    2    0    0  0.82089417352E+01  0.84590364284E+01  0.93454486900E+01  0.15042587308E+02  0.00000000000E+00 0. -1.
<mgrwt>
<rscale>  0 0.23574844E+02</rscale>
<asrwt>0</asrwt>
<pdfrwt beam="2">  1        2 0.87916486E-03 0.23574844E+02</pdfrwt>
<pdfrwt beam="1">  1       -2 0.37405944E-02 0.23574844E+02</pdfrwt>
<totfact> 0.25624825E+06</totfact>
</mgrwt>
</event>
<event>
 4    1  0.2126213E+000  0.2834742E+02  0.7546771E-02  0.1617109E+00
         -1   -1    0    0    0  501 -0.00000000000E+00  0.00000000000E+00  0.11115759038E+03  0.11115759038E+03  0.00000000000E+00 0. -1.
          1   -1    0    0  501    0  0.00000000000E+00 -0.00000000000E+00 -0.18072900523E+01  0.18072900523E+01  0.00000000000E+00 0.  1.
        -11    1    1    2    0    0  0.64664672061E+01  0.11462686452E+02  0.75643157206E+02  0.76779525988E+02  0.00000000000E+00 0. -1.
         11    1    1    2    0    0 -0.64664672061E+01 -0.11462686452E+02  0.33707143118E+02  0.36185354441E+02  0.00000000000E+00 0.  1.
<mgrwt>
<rscale>  0 0.28347417E+02</rscale>
<asrwt>0</asrwt>
<pdfrwt beam="2">  1        1 0.27804471E-03 0.28347417E+02</pdfrwt>
<pdfrwt beam="1">  1       -1 0.17101162E-01 0.28347417E+02</pdfrwt>
<totfact> 0.14256239E+06</totfact>
</mgrwt>
</event>
<event>
 4    1  0.2126213E+000  0.2940798E+02  0.7546771E-02  0.1604726E+00
         -2   -1    0    0    0  501 -0.00000000000E+00  0.00000000000E+00  0.85527987957E+02  0.85527987957E+02  0.00000000000E+00 0.  1.
          2   -1    0    0  501    0  0.00000000000E+00 -0.00000000000E+00 -0.25279126804E+01  0.25279126804E+01  0.00000000000E+00 0. -1.
        -13    1    1    2    0    0 -0.14212025966E+02  0.69504258677E+00  0.30399948163E+02  0.33565184560E+02  0.00000000000E+00 0.  1.
         13    1    1    2    0    0  0.14212025966E+02 -0.69504258677E+00  0.52600127114E+02  0.54490716077E+02  0.00000000000E+00 0. -1.
<mgrwt>
<rscale>  0 0.29407978E+02</rscale>
<asrwt>0</asrwt>
<pdfrwt beam="2">  1        2 0.38890971E-03 0.29407978E+02</pdfrwt>
<pdfrwt beam="1">  1       -2 0.13158150E-01 0.29407978E+02</pdfrwt>
<totfact> 0.12946862E+06</totfact>
</mgrwt>
</event>
<event>
 4    1  0.2126213E+000  0.3100499E+02  0.7546771E-02  0.1587238E+00
          2   -1    0    0  501    0  0.00000000000E+00  0.00000000000E+00  0.10717595004E+03  0.10717595004E+03  0.00000000000E+00 0. -1.
         -2   -1    0    0    0  501 -0.00000000000E+00 -0.00000000000E+00 -0.22423627050E+01  0.22423627050E+01  0.00000000000E+00 0.  1.
        -13    1    1    2    0    0  0.13793808713E+02  0.35895760283E+01  0.73983363151E+02  0.75343826807E+02  0.00000000000E+00 0. -1.
         13    1    1    2    0    0 -0.13793808713E+02 -0.35895760283E+01  0.30950224188E+02  0.34074485941E+02  0.00000000000E+00 0.  1.
<mgrwt>
<rscale>  0 0.31004990E+02</rscale>
<asrwt>0</asrwt>
<pdfrwt beam="1">  1        2 0.16488604E-01 0.31004990E+02</pdfrwt>
<pdfrwt beam="2">  1       -2 0.34497896E-03 0.31004990E+02</pdfrwt>
<totfact> 0.19659509E+06</totfact>
</mgrwt>
</event>
<event>
 4    1  0.2126213E+000  0.2918740E+02  0.7546771E-02  0.1607249E+00
          1   -1    0    0  501    0  0.00000000000E+00  0.00000000000E+00  0.12087374973E+02  0.12087374973E+02  0.00000000000E+00 0. -1.
         -1   -1    0    0    0  501 -0.00000000000E+00 -0.00000000000E+00 -0.17619711939E+02  0.17619711939E+02  0.00000000000E+00 0.  1.
        -13    1    1    2    0    0  0.14128616569E+02 -0.33388039334E+01 -0.42794662721E+01  0.15135364199E+02  0.00000000000E+00 0. -1.
         13    1    1    2    0    0 -0.14128616569E+02  0.33388039334E+01 -0.12528706936E+01  0.14571722713E+02  0.00000000000E+00 0.  1.
<mgrwt>
<rscale>  0 0.29187399E+02</rscale>
<asrwt>0</asrwt>
<pdfrwt beam="1">  1        1 0.18595962E-02 0.29187399E+02</pdfrwt>
<pdfrwt beam="2">  1       -1 0.27107249E-02 0.29187399E+02</pdfrwt>
<totfact> 0.16059638E+06</totfact>
</mgrwt>
</event>
<event>
 4    1  0.2126213E+000  0.2998058E+02  0.7546771E-02  0.1598303E+00
          2   -1    0    0  501    0  0.00000000000E+00  0.00000000000E+00  0.42820881712E+02  0.42820881712E+02  0.00000000000E+00 0. -1.
         -2   -1    0    0    0  501 -0.00000000000E+00 -0.00000000000E+00 -0.52476440274E+01  0.52476440274E+01  0.00000000000E+00 0.  1.
        -11    1    1    2    0    0  0.46573571849E+01 -0.88744174139E+01  0.91389126952E+00  0.10063868920E+02  0.00000000000E+00 0.  1.
         11    1    1    2    0    0 -0.46573571849E+01  0.88744174139E+01  0.36659346415E+02  0.38004656819E+02  0.00000000000E+00 0. -1.
<mgrwt>
<rscale>  0 0.29980577E+02</rscale>
<asrwt>0</asrwt>
<pdfrwt beam="1">  1        2 0.65878277E-02 0.29980577E+02</pdfrwt>
<pdfrwt beam="2">  1       -2 0.80732988E-03 0.29980577E+02</pdfrwt>
<totfact> 0.17773933E+06</totfact>
</mgrwt>
</event>
<event>
 4    1  0.2126213E+000  0.4681343E+02  0.7546771E-02  0.1463328E+00
          2   -1    0    0  501    0  0.00000000000E+00  0.00000000000E+00  0.30462363423E+02  0.30462363423E+02  0.00000000000E+00 0. -1.
         -2   -1    0    0    0  501 -0.00000000000E+00 -0.00000000000E+00 -0.17985283650E+02  0.17985283650E+02  0.00000000000E+00 0.  1.
        -13    1    1    2    0    0  0.23156962527E+01 -0.23182052551E+02  0.39004151670E+01  0.23621669037E+02  0.00000000000E+00 0. -1.
         13    1    1    2    0    0 -0.23156962527E+01  0.23182052551E+02  0.85766646060E+01  0.24825978035E+02  0.00000000000E+00 0.  1.
<mgrwt>
<rscale>  0 0.46813427E+02</rscale>
<asrwt>0</asrwt>
<pdfrwt beam="1">  1        2 0.46865174E-02 0.46813427E+02</pdfrwt>
<pdfrwt beam="2">  1       -2 0.27669667E-02 0.46813427E+02</pdfrwt>
<totfact> 0.55850542E+05</totfact>
</mgrwt>
</event>
<event>
 4    1  0.2126213E+000  0.2079369E+02  0.7546771E-02  0.1729990E+00
         -2   -1    0    0    0  501 -0.00000000000E+00  0.00000000000E+00  0.15085396011E+02  0.15085396011E+02  0.00000000000E+00 0.  1.
          2   -1    0    0  501    0  0.00000000000E+00 -0.00000000000E+00 -0.71654960707E+01  0.71654960707E+01  0.00000000000E+00 0. -1.
        -13    1    1    2    0    0  0.86270120539E+01 -0.53526637534E+01  0.15628770020E+01  0.10272240786E+02  0.00000000000E+00 0.  1.
         13    1    1    2    0    0 -0.86270120539E+01  0.53526637534E+01  0.63570229383E+01  0.11978651296E+02  0.00000000000E+00 0. -1.
<mgrwt>
<rscale>  0 0.20793686E+02</rscale>
<asrwt>0</asrwt>
<pdfrwt beam="2">  1        2 0.11023840E-02 0.20793686E+02</pdfrwt>
<pdfrwt beam="1">  1       -2 0.23208302E-02 0.20793686E+02</pdfrwt>
<totfact> 0.35184169E+06</totfact>
</mgrwt>
</event>
<event>
 4    1  0.2126213E+000  0.3920213E+02  0.7546771E-02  0.1514166E+00
          2   -1    0    0  501    0  0.00000000000E+00  0.00000000000E+00  0.39028561625E+02  0.39028561625E+02  0.00000000000E+00 0. -1.
         -2   -1    0    0    0  501 -0.00000000000E+00 -0.00000000000E+00 -0.98441190489E+01  0.98441190489E+01  0.00000000000E+00 0.  1.
        -11    1    1    2    0    0  0.15450376306E+02 -0.59386562381E+01  0.15038156048E+01  0.16620566395E+02  0.00000000000E+00 0.  1.
         11    1    1    2    0    0 -0.15450376306E+02  0.59386562381E+01  0.27680626971E+02  0.32252114278E+02  0.00000000000E+00 0. -1.
<mgrwt>
<rscale>  0 0.39202133E+02</rscale>
<asrwt>0</asrwt>
<pdfrwt beam="1">  1        2 0.60043940E-02 0.39202133E+02</pdfrwt>
<pdfrwt beam="2">  1       -2 0.15144799E-02 0.39202133E+02</pdfrwt>
<totfact> 0.91056675E+05</totfact>
</mgrwt>
</event>
<event>
 4    1  0.2126213E+000  0.4060672E+02  0.7546771E-02  0.1503794E+00
          2   -1    0    0  501    0  0.00000000000E+00  0.00000000000E+00  0.13885329657E+02  0.13885329657E+02  0.00000000000E+00 0. -1.
         -2   -1    0    0    0  501 -0.00000000000E+00 -0.00000000000E+00 -0.29687907155E+02  0.29687907155E+02  0.00000000000E+00 0.  1.
        -13    1    1    2    0    0 -0.10907436850E+02  0.16894113426E+02 -0.48961352438E+01  0.20696748233E+02  0.00000000000E+00 0. -1.
         13    1    1    2    0    0  0.10907436850E+02 -0.16894113426E+02 -0.10906442254E+02  0.22876488580E+02  0.00000000000E+00 0.  1.
<mgrwt>
<rscale>  0 0.40606718E+02</rscale>
<asrwt>0</asrwt>
<pdfrwt beam="1">  1        2 0.21362046E-02 0.40606718E+02</pdfrwt>
<pdfrwt beam="2">  1       -2 0.45673703E-02 0.40606718E+02</pdfrwt>
<totfact> 0.72277451E+05</totfact>
</mgrwt>
</event>
<event>
 4    1  0.2126213E+000  0.5409880E+02  0.7546771E-02  0.1424409E+00
          2   -1    0    0  501    0  0.00000000000E+00  0.00000000000E+00  0.22068956813E+02  0.22068956813E+02  0.00000000000E+00 0. -1.
         -2   -1    0    0    0  501 -0.00000000000E+00 -0.00000000000E+00 -0.33153806624E+02  0.33153806624E+02  0.00000000000E+00 0.  1.
        -13    1    1    2    0    0  0.13279083324E+02 -0.23330578944E+02 -0.21538232196E+01  0.26931188653E+02  0.00000000000E+00 0. -1.
         13    1    1    2    0    0 -0.13279083324E+02  0.23330578944E+02 -0.89310265913E+01  0.28291574784E+02  0.00000000000E+00 0.  1.
<mgrwt>
<rscale>  0 0.54098796E+02</rscale>
<asrwt>0</asrwt>
<pdfrwt beam="1">  1        2 0.33952242E-02 0.54098796E+02</pdfrwt>
<pdfrwt beam="2">  1       -2 0.51005856E-02 0.54098796E+02</pdfrwt>
<totfact> 0.36220657E+05</totfact>
</mgrwt>
</event>
<event>
 4    1  0.2126213E+000  0.5456925E+02  0.7546771E-02  0.1422147E+00
          2   -1    0    0  501    0  0.00000000000E+00  0.00000000000E+00  0.74196081227E+02  0.74196081227E+02  0.00000000000E+00 0.  1.
         -2   -1    0    0    0  501 -0.00000000000E+00 -0.00000000000E+00 -0.10033558324E+02  0.10033558324E+02  0.00000000000E+00 0. -1.
        -13    1    1    2    0    0 -0.10652988001E+02 -0.23976640304E+02  0.43640823988E+02  0.50920398191E+02  0.00000000000E+00 0.  1.
         13    1    1    2    0    0  0.10652988001E+02  0.23976640304E+02  0.20521698914E+02  0.33309241359E+02  0.00000000000E+00 0. -1.
<mgrwt>
<rscale>  0 0.54569248E+02</rscale>
<asrwt>0</asrwt>
<pdfrwt beam="1">  1        2 0.11414781E-01 0.54569248E+02</pdfrwt>
<pdfrwt beam="2">  1       -2 0.15436244E-02 0.54569248E+02</pdfrwt>
<totfact> 0.44494780E+05</totfact>
</mgrwt>
</event>
<event>
 4    1  0.2126213E+000  0.2225366E+02  0.7546771E-02  0.1703902E+00
          4   -1    0    0  501    0  0.00000000000E+00  0.00000000000E+00  0.22875271708E+01  0.22875271708E+01  0.00000000000E+00 0. -1.
         -4   -1    0    0    0  501 -0.00000000000E+00 -0.00000000000E+00 -0.54122368139E+02  0.54122368139E+02  0.00000000000E+00 0.  1.
        -13    1    1    2    0    0  0.10721328865E+02  0.89545873281E+00 -0.18721970875E+02  0.21593076030E+02  0.00000000000E+00 0. -1.
         13    1    1    2    0    0 -0.10721328865E+02 -0.89545873281E+00 -0.33112870093E+02  0.34816819280E+02  0.00000000000E+00 0.  1.
<mgrwt>
<rscale>  0 0.22253664E+02</rscale>
<asrwt>0</asrwt>
<pdfrwt beam="1">  1        4 0.35192723E-03 0.22253664E+02</pdfrwt>
<pdfrwt beam="2">  1       -4 0.83265187E-02 0.22253664E+02</pdfrwt>
<totfact> 0.90435259E+05</totfact>
</mgrwt>
</event>
<event>
 4    1  0.2126213E+000  0.2440867E+02  0.7546771E-02  0.1669643E+00
         -2   -1    0    0    0  501 -0.00000000000E+00  0.00000000000E+00  0.33865188924E+01  0.33865188924E+01  0.00000000000E+00 0.  1.
          2   -1    0    0  501    0  0.00000000000E+00 -0.00000000000E+00 -0.43981988806E+02  0.43981988806E+02  0.00000000000E+00 0. -1.
        -11    1    1    2    0    0 -0.10520303836E+02 -0.52829160513E+01 -0.26544023949E+02  0.29037410390E+02  0.00000000000E+00 0. -1.
         11    1    1    2    0    0  0.10520303836E+02  0.52829160513E+01 -0.14051445965E+02  0.18331097308E+02  0.00000000000E+00 0.  1.
<mgrwt>
<rscale>  0 0.24408674E+02</rscale>
<asrwt>0</asrwt>
<pdfrwt beam="2">  1        2 0.67664595E-02 0.24408674E+02</pdfrwt>
<pdfrwt beam="1">  1       -2 0.52100293E-03 0.24408674E+02</pdfrwt>
<totfact> 0.28925713E+06</totfact>
</mgrwt>
</event>
<event>
 4    1  0.2126213E+000  0.2040535E+02  0.7546771E-02  0.1737385E+00
          2   -1    0    0  501    0  0.00000000000E+00  0.00000000000E+00  0.47797029343E+02  0.47797029343E+02  0.00000000000E+00 0.  1.
         -2   -1    0    0    0  501 -0.00000000000E+00 -0.00000000000E+00 -0.21778467755E+01  0.21778467755E+01  0.00000000000E+00 0. -1.
        -13    1    1    2    0    0  0.67130583009E+01  0.75767067515E+01  0.19689532565E+02  0.22139316376E+02  0.00000000000E+00 0.  1.
         13    1    1    2    0    0 -0.67130583009E+01 -0.75767067515E+01  0.25929650002E+02  0.27835559742E+02  0.00000000000E+00 0. -1.
<mgrwt>
<rscale>  0 0.20405353E+02</rscale>
<asrwt>0</asrwt>
<pdfrwt beam="1">  1        2 0.73533883E-02 0.20405353E+02</pdfrwt>
<pdfrwt beam="2">  1       -2 0.33505339E-03 0.20405353E+02</pdfrwt>
<totfact> 0.44001924E+06</totfact>
</mgrwt>
</event>
<event>
 4    1  0.2126213E+000  0.3528514E+02  0.7546771E-02  0.1546083E+00
         -2   -1    0    0    0  501 -0.00000000000E+00  0.00000000000E+00  0.33676789514E+01  0.33676789514E+01  0.00000000000E+00 0. -1.
          2   -1    0    0  501    0  0.00000000000E+00 -0.00000000000E+00 -0.92425742521E+02  0.92425742521E+02  0.00000000000E+00 0.  1.
        -11    1    1    2    0    0 -0.14716476591E+02 -0.27976749638E+01 -0.69830759912E+02  0.71419442019E+02  0.00000000000E+00 0.  1.
         11    1    1    2    0    0  0.14716476591E+02  0.27976749638E+01 -0.19227303657E+02  0.24373979453E+02  0.00000000000E+00 0. -1.
<mgrwt>
<rscale>  0 0.35285137E+02</rscale>
<asrwt>0</asrwt>
<pdfrwt beam="2">  1        2 0.14219345E-01 0.35285137E+02</pdfrwt>
<pdfrwt beam="1">  1       -2 0.51810446E-03 0.35285137E+02</pdfrwt>
<totfact> 0.13917151E+06</totfact>
</mgrwt>
</event>
<event>
 4    1  0.2126213E+000  0.3524490E+02  0.7546771E-02  0.1546437E+00
         -2   -1    0    0    0  501 -0.00000000000E+00  0.00000000000E+00  0.73305672789E+02  0.73305672789E+02  0.00000000000E+00 0.  1.
          2   -1    0    0  501    0  0.00000000000E+00 -0.00000000000E+00 -0.42363801608E+01  0.42363801608E+01  0.00000000000E+00 0. -1.
        -11    1    1    2    0    0 -0.63737898417E+01 -0.10372617563E+02  0.65031553141E+01  0.13802442577E+02  0.00000000000E+00 0. -1.
         11    1    1    2    0    0  0.63737898417E+01  0.10372617563E+02  0.62566137314E+02  0.63739610372E+02  0.00000000000E+00 0.  1.
<mgrwt>
<rscale>  0 0.35244897E+02</rscale>
<asrwt>0</asrwt>
<pdfrwt beam="2">  1        2 0.65175085E-03 0.35244897E+02</pdfrwt>
<pdfrwt beam="1">  1       -2 0.11277795E-01 0.35244897E+02</pdfrwt>
<totfact> 0.87554520E+05</totfact>
</mgrwt>
</event>
<event>
 4    1  0.2126213E+000  0.7828454E+02  0.7546771E-02  0.1333991E+00
         -1   -1    0    0    0  501 -0.00000000000E+00  0.00000000000E+00  0.81580544193E+02  0.81580544193E+02  0.00000000000E+00 0.  1.
          1   -1    0    0  501    0  0.00000000000E+00 -0.00000000000E+00 -0.18780424535E+02  0.18780424535E+02  0.00000000000E+00 0. -1.
        -11    1    1    2    0    0 -0.16028401387E+00 -0.15094324007E+02  0.77698862555E+02  0.79151611168E+02  0.00000000000E+00 0.  1.
         11    1    1    2    0    0  0.16028401387E+00  0.15094324007E+02 -0.14898742896E+02  0.21209357560E+02  0.00000000000E+00 0. -1.
<mgrwt>
<rscale>  0 0.78284539E+02</rscale>
<asrwt>0</asrwt>
<pdfrwt beam="2">  1        1 0.28892961E-02 0.78284539E+02</pdfrwt>
<pdfrwt beam="1">  1       -1 0.12550853E-01 0.78284539E+02</pdfrwt>
<totfact> 0.12454253E+05</totfact>
</mgrwt>
</event>
<event>
 4    1  0.2126213E+000  0.3096573E+02  0.7546771E-02  0.1587653E+00
          2   -1    0    0  501    0  0.00000000000E+00  0.00000000000E+00  0.36761328301E+01  0.36761328301E+01  0.00000000000E+00 0. -1.
         -2   -1    0    0    0  501 -0.00000000000E+00 -0.00000000000E+00 -0.65209604177E+02  0.65209604177E+02  0.00000000000E+00 0.  1.
        -11    1    1    2    0    0 -0.64677052835E+00 -0.15429061604E+02 -0.28284646526E+02  0.32225696008E+02  0.00000000000E+00 0. -1.
         11    1    1    2    0    0  0.64677052835E+00  0.15429061604E+02 -0.33248824821E+02  0.36660040999E+02  0.00000000000E+00 0.  1.
<mgrwt>
<rscale>  0 0.30965734E+02</rscale>
<asrwt>0</asrwt>
<pdfrwt beam="1">  1        2 0.56555896E-03 0.30965734E+02</pdfrwt>
<pdfrwt beam="2">  1       -2 0.10032246E-01 0.30965734E+02</pdfrwt>
<totfact> 0.12113181E+06</totfact>
</mgrwt>
</event>
<event>
 4    1  0.2126213E+000  0.2169225E+02  0.7546771E-02  0.1713629E+00
          2   -1    0    0  501    0  0.00000000000E+00  0.00000000000E+00  0.82742133155E+01  0.82742133155E+01  0.00000000000E+00 0.  1.
         -2   -1    0    0    0  501 -0.00000000000E+00 -0.00000000000E+00 -0.14217477087E+02  0.14217477087E+02  0.00000000000E+00 0. -1.
        -11    1    1    2    0    0  0.49746130439E+01 -0.87474353909E+01 -0.71672443290E+01  0.12354504932E+02  0.00000000000E+00 0. -1.
         11    1    1    2    0    0 -0.49746130439E+01  0.87474353909E+01  0.12239805573E+01  0.10137185470E+02  0.00000000000E+00 0.  1.
<mgrwt>
<rscale>  0 0.21692251E+02</rscale>
<asrwt>0</asrwt>
<pdfrwt beam="1">  1        2 0.12729559E-02 0.21692251E+02</pdfrwt>
<pdfrwt beam="2">  1       -2 0.21873041E-02 0.21692251E+02</pdfrwt>
<totfact> 0.32238122E+06</totfact>
</mgrwt>
</event>
<event>
 4    1  0.2126213E+000  0.2654929E+02  0.7546771E-02  0.1639697E+00
         -4   -1    0    0    0  501 -0.00000000000E+00  0.00000000000E+00  0.10881873827E+03  0.10881873827E+03  0.00000000000E+00 0. -1.
          4   -1    0    0  501    0  0.00000000000E+00 -0.00000000000E+00 -0.16193557334E+01  0.16193557334E+01  0.00000000000E+00 0.  1.
        -11    1    1    2    0    0 -0.12513419157E+02  0.23579847873E+01  0.69203141613E+02  0.70364910008E+02  0.00000000000E+00 0. -1.
         11    1    1    2    0    0  0.12513419157E+02 -0.23579847873E+01  0.37996240923E+02  0.40073183996E+02  0.00000000000E+00 0.  1.
<mgrwt>
<rscale>  0 0.26549294E+02</rscale>
<asrwt>0</asrwt>
<pdfrwt beam="2">  1        4 0.24913174E-03 0.26549294E+02</pdfrwt>
<pdfrwt beam="1">  1       -4 0.16741339E-01 0.26549294E+02</pdfrwt>
<totfact> 0.52787550E+05</totfact>
</mgrwt>
</event>
<event>
 4    1  0.2126213E+000  0.5847386E+02  0.7546771E-02  0.1404350E+00
         -1   -1    0    0    0  501 -0.00000000000E+00  0.00000000000E+00  0.58971267145E+01  0.58971267145E+01  0.00000000000E+00 0.  1.
          1   -1    0    0  501    0  0.00000000000E+00 -0.00000000000E+00 -0.14495161351E+03  0.14495161351E+03  0.00000000000E+00 0. -1.
        -11    1    1    2    0    0  0.14829397030E+02  0.19264568598E+02 -0.11142465678E+03  0.11404599404E+03  0.00000000000E+00 0. -1.
         11    1    1    2    0    0 -0.14829397030E+02 -0.19264568598E+02 -0.27629830017E+02  0.36802746179E+02  0.00000000000E+00 0.  1.
<mgrwt>
<rscale>  0 0.58473859E+02</rscale>
<asrwt>0</asrwt>
<pdfrwt beam="2">  1        1 0.22300247E-01 0.58473859E+02</pdfrwt>
<pdfrwt beam="1">  1       -1 0.90725030E-03 0.58473859E+02</pdfrwt>
<totfact> 0.35825508E+05</totfact>
</mgrwt>
</event>
<event>
 4    1  0.2126213E+000  0.5257357E+02  0.7546771E-02  0.1431935E+00
          1   -1    0    0  501    0  0.00000000000E+00  0.00000000000E+00  0.16670453737E+02  0.16670453737E+02  0.00000000000E+00 0.  1.
         -1   -1    0    0    0  501 -0.00000000000E+00 -0.00000000000E+00 -0.41450286627E+02  0.41450286627E+02  0.00000000000E+00 0. -1.
        -11    1    1    2    0    0  0.76307079675E+01  0.19700788124E+02 -0.29681430196E+02  0.36432623503E+02  0.00000000000E+00 0. -1.
         11    1    1    2    0    0 -0.76307079675E+01 -0.19700788124E+02  0.49015973065E+01  0.21688116861E+02  0.00000000000E+00 0.  1.
<mgrwt>
<rscale>  0 0.52573571E+02</rscale>
<asrwt>0</asrwt>
<pdfrwt beam="1">  1        1 0.25646852E-02 0.52573571E+02</pdfrwt>
<pdfrwt beam="2">  1       -1 0.63769672E-02 0.52573571E+02</pdfrwt>
<totfact> 0.36861192E+05</totfact>
</mgrwt>
</event>
<event>
 4    1  0.2126213E+000  0.2204526E+02  0.7546771E-02  0.1707470E+00
         -2   -1    0    0    0  501 -0.00000000000E+00  0.00000000000E+00  0.15339550313E+01  0.15339550313E+01  0.00000000000E+00 0. -1.
          2   -1    0    0  501    0  0.00000000000E+00 -0.00000000000E+00 -0.79205935221E+02  0.79205935221E+02  0.00000000000E+00 0.  1.
        -11    1    1    2    0    0 -0.33284668435E+00  0.10846131034E+02 -0.31744613362E+02  0.33548022636E+02  0.00000000000E+00 0. -1.
         11    1    1    2    0    0  0.33284668435E+00 -0.10846131034E+02 -0.45927366828E+02  0.47191867616E+02  0.00000000000E+00 0.  1.
<mgrwt>
<rscale>  0 0.22045257E+02</rscale>
<asrwt>0</asrwt>
<pdfrwt beam="2">  1        2 0.12185530E-01 0.22045257E+02</pdfrwt>
<pdfrwt beam="1">  1       -2 0.23599305E-03 0.22045257E+02</pdfrwt>
<totfact> 0.40388063E+06</totfact>
</mgrwt>
</event>
<event>
 4    1  0.2126213E+000  0.2789473E+02  0.7546771E-02  0.1622598E+00
         -1   -1    0    0    0  501 -0.00000000000E+00  0.00000000000E+00  0.48800044235E+01  0.48800044235E+01  0.00000000000E+00 0. -1.
          1   -1    0    0  501    0  0.00000000000E+00 -0.00000000000E+00 -0.39862458285E+02  0.39862458285E+02  0.00000000000E+00 0.  1.
        -11    1    1    2    0    0 -0.56133284627E+01  0.10193437191E+02 -0.29823426526E+02  0.32013315791E+02  0.00000000000E+00 0.  1.
         11    1    1    2    0    0  0.56133284627E+01 -0.10193437191E+02 -0.51590273348E+01  0.12729146917E+02  0.00000000000E+00 0. -1.
<mgrwt>
<rscale>  0 0.27894729E+02</rscale>
<asrwt>0</asrwt>
<pdfrwt beam="2">  1        1 0.61326857E-02 0.27894729E+02</pdfrwt>
<pdfrwt beam="1">  1       -1 0.75076993E-03 0.27894729E+02</pdfrwt>
<totfact> 0.19170172E+06</totfact>
</mgrwt>
</event>
<event>
 4    1  0.2126213E+000  0.2297006E+02  0.7546771E-02  0.1691996E+00
          2   -1    0    0  501    0  0.00000000000E+00  0.00000000000E+00  0.62483671602E+01  0.62483671602E+01  0.00000000000E+00 0.  1.
         -2   -1    0    0    0  501 -0.00000000000E+00 -0.00000000000E+00 -0.21110457159E+02  0.21110457159E+02  0.00000000000E+00 0. -1.
        -13    1    1    2    0    0  0.10859143750E+02 -0.17159771341E+01 -0.34734995145E+01  0.11529561110E+02  0.00000000000E+00 0.  1.
         13    1    1    2    0    0 -0.10859143750E+02  0.17159771341E+01 -0.11388590485E+02  0.15829263209E+02  0.00000000000E+00 0. -1.
<mgrwt>
<rscale>  0 0.22970058E+02</rscale>
<asrwt>0</asrwt>
<pdfrwt beam="1">  1        2 0.96128725E-03 0.22970058E+02</pdfrwt>
<pdfrwt beam="2">  1       -2 0.32477627E-02 0.22970058E+02</pdfrwt>
<totfact> 0.27502858E+06</totfact>
</mgrwt>
</event>
<event>
 4    1  0.2126213E+000  0.2279482E+02  0.7546771E-02  0.1694858E+00
          2   -1    0    0  501    0  0.00000000000E+00  0.00000000000E+00  0.10461919824E+01  0.10461919824E+01  0.00000000000E+00 0. -1.
         -2   -1    0    0    0  501 -0.00000000000E+00 -0.00000000000E+00 -0.12416547696E+03  0.12416547696E+03  0.00000000000E+00 0.  1.
        -11    1    1    2    0    0 -0.10078008321E+01  0.11282399192E+02 -0.54627298618E+02  0.55789335436E+02  0.00000000000E+00 0. -1.
         11    1    1    2    0    0  0.10078008321E+01 -0.11282399192E+02 -0.68491986364E+02  0.69422333512E+02  0.00000000000E+00 0.  1.
<mgrwt>
<rscale>  0 0.22794818E+02</rscale>
<asrwt>0</asrwt>
<pdfrwt beam="1">  1        2 0.16095257E-03 0.22794818E+02</pdfrwt>
<pdfrwt beam="2">  1       -2 0.19102386E-01 0.22794818E+02</pdfrwt>
<totfact> 0.21039954E+06</totfact>
</mgrwt>
</event>
<event>
 4    1  0.2126213E+000  0.2201673E+02  0.7546771E-02  0.1707963E+00
          2   -1    0    0  501    0  0.00000000000E+00  0.00000000000E+00  0.40022479236E+01  0.40022479236E+01  0.00000000000E+00 0. -1.
         -2   -1    0    0    0  501 -0.00000000000E+00 -0.00000000000E+00 -0.30279020965E+02  0.30279020965E+02  0.00000000000E+00 0.  1.
        -13    1    1    2    0    0 -0.10999179616E+02  0.43377731371E+00 -0.12953930955E+02  0.16999248282E+02  0.00000000000E+00 0. -1.
         13    1    1    2    0    0  0.10999179616E+02 -0.43377731371E+00 -0.13322842087E+02  0.17282020607E+02  0.00000000000E+00 0.  1.
<mgrwt>
<rscale>  0 0.22016734E+02</rscale>
<asrwt>0</asrwt>
<pdfrwt beam="1">  1        2 0.61573043E-03 0.22016734E+02</pdfrwt>
<pdfrwt beam="2">  1       -2 0.46583111E-02 0.22016734E+02</pdfrwt>
<totfact> 0.29172515E+06</totfact>
</mgrwt>
</event>
<event>
 4    1  0.2126213E+000  0.4190741E+02  0.7546771E-02  0.1494626E+00
          1   -1    0    0  501    0  0.00000000000E+00  0.00000000000E+00  0.14640703991E+02  0.14640703991E+02  0.00000000000E+00 0.  1.
         -1   -1    0    0    0  501 -0.00000000000E+00 -0.00000000000E+00 -0.29988837880E+02  0.29988837880E+02  0.00000000000E+00 0. -1.
        -11    1    1    2    0    0  0.13671136249E+01  0.14237871581E+02  0.86330378355E+01  0.16706745018E+02  0.00000000000E+00 0.  1.
         11    1    1    2    0    0 -0.13671136249E+01 -0.14237871581E+02 -0.23981171725E+02  0.27922796853E+02  0.00000000000E+00 0. -1.
<mgrwt>
<rscale>  0 0.41907407E+02</rscale>
<asrwt>0</asrwt>
<pdfrwt beam="1">  1        1 0.22524160E-02 0.41907407E+02</pdfrwt>
<pdfrwt beam="2">  1       -1 0.46136674E-02 0.41907407E+02</pdfrwt>
<totfact> 0.65950806E+05</totfact>
</mgrwt>
</event>
<event>
 4    1  0.2126213E+000  0.3723893E+02  0.7546771E-02  0.1529572E+00
          2   -1    0    0  501    0  0.00000000000E+00  0.00000000000E+00  0.88292146451E+02  0.88292146451E+02  0.00000000000E+00 0.  1.
         -2   -1    0    0    0  501 -0.00000000000E+00 -0.00000000000E+00 -0.39265605434E+01  0.39265605434E+01  0.00000000000E+00 0. -1.
        -11    1    1    2    0    0  0.12937470373E+02  0.88066491115E+01  0.67162506594E+02  0.68961855400E+02  0.00000000000E+00 0.  1.
         11    1    1    2    0    0 -0.12937470373E+02 -0.88066491115E+01  0.17203079314E+02  0.23256851595E+02  0.00000000000E+00 0. -1.
<mgrwt>
<rscale>  0 0.37238929E+02</rscale>
<asrwt>0</asrwt>
<pdfrwt beam="1">  1        2 0.13583406E-01 0.37238929E+02</pdfrwt>
<pdfrwt beam="2">  1       -2 0.60408630E-03 0.37238929E+02</pdfrwt>
<totfact> 0.12078640E+06</totfact>
</mgrwt>
</event>
<event>
 4    1  0.2126213E+000  0.2259677E+02  0.7546771E-02  0.1698131E+00
          2   -1    0    0  501    0  0.00000000000E+00  0.00000000000E+00  0.18231550139E+02  0.18231550139E+02  0.00000000000E+00 0. -1.
         -2   -1    0    0    0  501 -0.00000000000E+00 -0.00000000000E+00 -0.70017912549E+01  0.70017912549E+01  0.00000000000E+00 0.  1.
        -13    1    1    2    0    0 -0.98152085581E+01  0.26231529654E+01  0.11134738213E+02  0.15073209532E+02  0.00000000000E+00 0. -1.
         13    1    1    2    0    0  0.98152085581E+01 -0.26231529654E+01  0.95020670801E-01  0.10160131862E+02  0.00000000000E+00 0.  1.
<mgrwt>
<rscale>  0 0.22596770E+02</rscale>
<asrwt>0</asrwt>
<pdfrwt beam="1">  1        2 0.28048539E-02 0.22596770E+02</pdfrwt>
<pdfrwt beam="2">  1       -2 0.10771987E-02 0.22596770E+02</pdfrwt>
<totfact> 0.31277534E+06</totfact>
</mgrwt>
</event>
<event>
 4    1  0.2126213E+000  0.6409253E+02  0.7546771E-02  0.1381418E+00
          1   -1    0    0  501    0  0.00000000000E+00  0.00000000000E+00  0.23623929242E+02  0.23623929242E+02  0.00000000000E+00 0. -1.
         -1   -1    0    0    0  501 -0.00000000000E+00 -0.00000000000E+00 -0.43471301821E+02  0.43471301821E+02  0.00000000000E+00 0.  1.
        -11    1    1    2    0    0  0.20438392140E+02 -0.21808081342E+02 -0.22025677818E+02  0.37127493431E+02  0.00000000000E+00 0. -1.
         11    1    1    2    0    0 -0.20438392140E+02  0.21808081342E+02  0.21783052388E+01  0.29967737632E+02  0.00000000000E+00 0.  1.
<mgrwt>
<rscale>  0 0.64092526E+02</rscale>
<asrwt>0</asrwt>
<pdfrwt beam="1">  1        1 0.36344507E-02 0.64092526E+02</pdfrwt>
<pdfrwt beam="2">  1       -1 0.66878925E-02 0.64092526E+02</pdfrwt>
<totfact> 0.22461460E+05</totfact>
</mgrwt>
</event>
<event>
 4    1  0.2126213E+000  0.2468315E+02  0.7546771E-02  0.1665595E+00
          2   -1    0    0  501    0  0.00000000000E+00  0.00000000000E+00  0.41313164718E+01  0.41313164718E+01  0.00000000000E+00 0.  1.
         -2   -1    0    0    0  501 -0.00000000000E+00 -0.00000000000E+00 -0.36868271767E+02  0.36868271767E+02  0.00000000000E+00 0. -1.
        -13    1    1    2    0    0  0.30028040415E+01  0.10339245241E+02 -0.26389584513E+02  0.28501350758E+02  0.00000000000E+00 0. -1.
         13    1    1    2    0    0 -0.30028040415E+01 -0.10339245241E+02 -0.63473707822E+01  0.12498237481E+02  0.00000000000E+00 0.  1.
<mgrwt>
<rscale>  0 0.24683152E+02</rscale>
<asrwt>0</asrwt>
<pdfrwt beam="1">  1        2 0.63558715E-03 0.24683152E+02</pdfrwt>
<pdfrwt beam="2">  1       -2 0.56720418E-02 0.24683152E+02</pdfrwt>
<totfact> 0.22116627E+06</totfact>
</mgrwt>
</event>
<event>
 4    1  0.2126213E+000  0.3511958E+02  0.7546771E-02  0.1547541E+00
          2   -1    0    0  501    0  0.00000000000E+00  0.00000000000E+00  0.33682067466E+01  0.33682067466E+01  0.00000000000E+00 0. -1.
         -2   -1    0    0    0  501 -0.00000000000E+00 -0.00000000000E+00 -0.91546117338E+02  0.91546117338E+02  0.00000000000E+00 0.  1.
        -11    1    1    2    0    0 -0.11616738503E+02  0.83039813890E+01 -0.16469250013E+02  0.21797727321E+02  0.00000000000E+00 0. -1.
         11    1    1    2    0    0  0.11616738503E+02 -0.83039813890E+01 -0.71708660578E+02  0.73116596764E+02  0.00000000000E+00 0.  1.
<mgrwt>
<rscale>  0 0.35119581E+02</rscale>
<asrwt>0</asrwt>
<pdfrwt beam="1">  1        2 0.51818565E-03 0.35119581E+02</pdfrwt>
<pdfrwt beam="2">  1       -2 0.14084018E-01 0.35119581E+02</pdfrwt>
<totfact> 0.84238115E+05</totfact>
</mgrwt>
</event>
<event>
 4    1  0.2126213E+000  0.9178609E+02  0.7546771E-02  0.1298583E+00
          2   -1    0    0  501    0  0.00000000000E+00  0.00000000000E+00  0.42860988526E+02  0.42860988526E+02  0.00000000000E+00 0. -1.
         -2   -1    0    0    0  501 -0.00000000000E+00 -0.00000000000E+00 -0.49139594432E+02  0.49139594432E+02  0.00000000000E+00 0.  1.
        -11    1    1    2    0    0 -0.27279123475E+02 -0.11772246377E+02 -0.38198680349E+02  0.48392928644E+02  0.00000000000E+00 0.  1.
         11    1    1    2    0    0  0.27279123475E+02  0.11772246377E+02  0.31920074443E+02  0.43607654314E+02  0.00000000000E+00 0. -1.
<mgrwt>
<rscale>  0 0.91786090E+02</rscale>
<asrwt>0</asrwt>
<pdfrwt beam="1">  1        2 0.65939983E-02 0.91786090E+02</pdfrwt>
<pdfrwt beam="2">  1       -2 0.75599376E-02 0.91786090E+02</pdfrwt>
<totfact> 0.95260076E+04</totfact>
</mgrwt>
</event>
<event>
 4    1  0.2126213E+000  0.3302776E+02  0.7546771E-02  0.1566846E+00
         -2   -1    0    0    0  501 -0.00000000000E+00  0.00000000000E+00  0.37923210164E+02  0.37923210164E+02  0.00000000000E+00 0. -1.
          2   -1    0    0  501    0  0.00000000000E+00 -0.00000000000E+00 -0.71910659487E+01  0.71910659487E+01  0.00000000000E+00 0.  1.
        -11    1    1    2    0    0  0.13652756310E+01 -0.14072520350E+02  0.27021436436E+02  0.30496849569E+02  0.00000000000E+00 0. -1.
         11    1    1    2    0    0 -0.13652756310E+01  0.14072520350E+02  0.37107077792E+01  0.14617426544E+02  0.00000000000E+00 0.  1.
<mgrwt>
<rscale>  0 0.33027764E+02</rscale>
<asrwt>0</asrwt>
<pdfrwt beam="2">  1        2 0.11063179E-02 0.33027764E+02</pdfrwt>
<pdfrwt beam="1">  1       -2 0.58343399E-02 0.33027764E+02</pdfrwt>
<totfact> 0.11325041E+06</totfact>
</mgrwt>
</event>
<event>
 4    1  0.2126213E+000  0.2231582E+02  0.7546771E-02  0.1702847E+00
          2   -1    0    0  501    0  0.00000000000E+00  0.00000000000E+00  0.62591071169E+01  0.62591071169E+01  0.00000000000E+00 0. -1.
         -2   -1    0    0    0  501 -0.00000000000E+00 -0.00000000000E+00 -0.19890857550E+02  0.19890857550E+02  0.00000000000E+00 0.  1.
        -11    1    1    2    0    0 -0.10981264360E+02  0.79235598038E+00 -0.89390926572E+01  0.14181797223E+02  0.00000000000E+00 0.  1.
         11    1    1    2    0    0  0.10981264360E+02 -0.79235598038E+00 -0.46926577760E+01  0.11968167444E+02  0.00000000000E+00 0. -1.
<mgrwt>
<rscale>  0 0.22315825E+02</rscale>
<asrwt>0</asrwt>
<pdfrwt beam="1">  1        2 0.96293956E-03 0.22315825E+02</pdfrwt>
<pdfrwt beam="2">  1       -2 0.30601319E-02 0.22315825E+02</pdfrwt>
<totfact> 0.29468049E+06</totfact>
</mgrwt>
</event>
<event>
 4    1  0.2126213E+000  0.4111399E+02  0.7546771E-02  0.1500170E+00
          2   -1    0    0  501    0  0.00000000000E+00  0.00000000000E+00  0.38556484838E+01  0.38556484838E+01  0.00000000000E+00 0.  1.
         -2   -1    0    0    0  501 -0.00000000000E+00 -0.00000000000E+00 -0.10960281981E+03  0.10960281981E+03  0.00000000000E+00 0. -1.
        -11    1    1    2    0    0 -0.60793828601E+01  0.15789035145E+02 -0.85095762364E+02  0.86761404432E+02  0.00000000000E+00 0. -1.
         11    1    1    2    0    0  0.60793828601E+01 -0.15789035145E+02 -0.20651408967E+02  0.26697063867E+02  0.00000000000E+00 0.  1.
<mgrwt>
<rscale>  0 0.41113985E+02</rscale>
<asrwt>0</asrwt>
<pdfrwt beam="1">  1        2 0.59317669E-03 0.41113985E+02</pdfrwt>
<pdfrwt beam="2">  1       -2 0.16861972E-01 0.41113985E+02</pdfrwt>
<totfact> 0.55375168E+05</totfact>
</mgrwt>
</event>
<event>
 4    1  0.2126213E+000  0.2716208E+02  0.7546771E-02  0.1631758E+00
         -2   -1    0    0    0  501 -0.00000000000E+00  0.00000000000E+00  0.10513646042E+02  0.10513646042E+02  0.00000000000E+00 0.  1.
          2   -1    0    0  501    0  0.00000000000E+00 -0.00000000000E+00 -0.17543353100E+02  0.17543353100E+02  0.00000000000E+00 0. -1.
        -13    1    1    2    0    0 -0.39441928286E+01 -0.95519680752E+01  0.55872751912E+01  0.11747952811E+02  0.00000000000E+00 0.  1.
         13    1    1    2    0    0  0.39441928286E+01  0.95519680752E+01 -0.12616982248E+02  0.16309046331E+02  0.00000000000E+00 0. -1.
<mgrwt>
<rscale>  0 0.27162077E+02</rscale>
<asrwt>0</asrwt>
<pdfrwt beam="2">  1        2 0.26989774E-02 0.27162077E+02</pdfrwt>
<pdfrwt beam="1">  1       -2 0.16174840E-02 0.27162077E+02</pdfrwt>
<totfact> 0.20220921E+06</totfact>
</mgrwt>
</event>
<event>
 4    1  0.2126213E+000  0.2273800E+02  0.7546771E-02  0.1695793E+00
         -3   -1    0    0    0  501 -0.00000000000E+00  0.00000000000E+00  0.12527008466E+03  0.12527008466E+03  0.00000000000E+00 0. -1.
          3   -1    0    0  501    0  0.00000000000E+00 -0.00000000000E+00 -0.10318040668E+01  0.10318040668E+01  0.00000000000E+00 0.  1.
        -13    1    1    2    0    0  0.71192060087E+01  0.88532844440E+01  0.64543182800E+02  0.65535381174E+02  0.00000000000E+00 0.  1.
         13    1    1    2    0    0 -0.71192060087E+01 -0.88532844440E+01  0.59695097789E+02  0.60766507549E+02  0.00000000000E+00 0. -1.
<mgrwt>
<rscale>  0 0.22738002E+02</rscale>
<asrwt>0</asrwt>
<pdfrwt beam="2">  1        3 0.15873919E-03 0.22738002E+02</pdfrwt>
<pdfrwt beam="1">  1       -3 0.19272309E-01 0.22738002E+02</pdfrwt>
<totfact> 0.10083134E+06</totfact>
</mgrwt>
</event>
<event>
 4    1  0.2126213E+000  0.3479194E+02  0.7546771E-02  0.1550456E+00
         -2   -1    0    0    0  501 -0.00000000000E+00  0.00000000000E+00  0.19146420422E+02  0.19146420422E+02  0.00000000000E+00 0.  1.
          2   -1    0    0  501    0  0.00000000000E+00 -0.00000000000E+00 -0.15805556443E+02  0.15805556443E+02  0.00000000000E+00 0. -1.
        -11    1    1    2    0    0  0.13528493166E+02  0.80121186896E+01 -0.58073036322E+01  0.16761233508E+02  0.00000000000E+00 0. -1.
         11    1    1    2    0    0 -0.13528493166E+02 -0.80121186896E+01  0.91481676110E+01  0.18190743357E+02  0.00000000000E+00 0.  1.
<mgrwt>
<rscale>  0 0.34791943E+02</rscale>
<asrwt>0</asrwt>
<pdfrwt beam="2">  1        2 0.24316241E-02 0.34791943E+02</pdfrwt>
<pdfrwt beam="1">  1       -2 0.29456031E-02 0.34791943E+02</pdfrwt>
<totfact> 0.10905478E+06</totfact>
</mgrwt>
</event>
<event>
 4    1  0.2126213E+000  0.2667809E+02  0.7546771E-02  0.1638006E+00
          4   -1    0    0  501    0  0.00000000000E+00  0.00000000000E+00  0.76451914333E+01  0.76451914333E+01  0.00000000000E+00 0. -1.
         -4   -1    0    0    0  501 -0.00000000000E+00 -0.00000000000E+00 -0.23273467153E+02  0.23273467153E+02  0.00000000000E+00 0.  1.
        -11    1    1    2    0    0  0.12082784997E+02 -0.25422526907E+01 -0.19647674824E+01  0.12502681844E+02  0.00000000000E+00 0. -1.
         11    1    1    2    0    0 -0.12082784997E+02  0.25422526907E+01 -0.13663508237E+02  0.18415976742E+02  0.00000000000E+00 0.  1.
<mgrwt>
<rscale>  0 0.26678089E+02</rscale>
<asrwt>0</asrwt>
<pdfrwt beam="1">  1        4 0.11761833E-02 0.26678089E+02</pdfrwt>
<pdfrwt beam="2">  1       -4 0.35805334E-02 0.26678089E+02</pdfrwt>
<totfact> 0.67353039E+05</totfact>
</mgrwt>
</event>
<event>
 4    1  0.2126213E+000  0.4452303E+02  0.7546771E-02  0.1477341E+00
          1   -1    0    0  501    0  0.00000000000E+00  0.00000000000E+00  0.19810340413E+02  0.19810340413E+02  0.00000000000E+00 0. -1.
         -1   -1    0    0    0  501 -0.00000000000E+00 -0.00000000000E+00 -0.25015976517E+02  0.25015976517E+02  0.00000000000E+00 0.  1.
        -13    1    1    2    0    0  0.16115289469E+02  0.94727157922E+01  0.95683729909E+01  0.20999730018E+02  0.00000000000E+00 0. -1.
         13    1    1    2    0    0 -0.16115289469E+02 -0.94727157922E+01 -0.14774009095E+02  0.23826586912E+02  0.00000000000E+00 0.  1.
<mgrwt>
<rscale>  0 0.44523028E+02</rscale>
<asrwt>0</asrwt>
<pdfrwt beam="1">  1        1 0.30477447E-02 0.44523028E+02</pdfrwt>
<pdfrwt beam="2">  1       -1 0.38486117E-02 0.44523028E+02</pdfrwt>
<totfact> 0.57873957E+05</totfact>
</mgrwt>
</event>
<event>
 4    1  0.2126213E+000  0.2049236E+02  0.7546771E-02  0.1735711E+00
          2   -1    0    0  501    0  0.00000000000E+00  0.00000000000E+00  0.89107076116E+01  0.89107076116E+01  0.00000000000E+00 0.  1.
         -2   -1    0    0    0  501 -0.00000000000E+00 -0.00000000000E+00 -0.11781801992E+02  0.11781801992E+02  0.00000000000E+00 0. -1.
        -11    1    1    2    0    0  0.13536208398E+01 -0.10024060275E+02  0.21446257939E+00  0.10117315255E+02  0.00000000000E+00 0.  1.
         11    1    1    2    0    0 -0.13536208398E+01  0.10024060275E+02 -0.30855569602E+01  0.10575194349E+02  0.00000000000E+00 0. -1.
<mgrwt>
<rscale>  0 0.20492359E+02</rscale>
<asrwt>0</asrwt>
<pdfrwt beam="1">  1        2 0.13708781E-02 0.20492359E+02</pdfrwt>
<pdfrwt beam="2">  1       -2 0.18125849E-02 0.20492359E+02</pdfrwt>
<totfact> 0.37003581E+06</totfact>
</mgrwt>
</event>
<event>
 4    1  0.2126213E+000  0.4499952E+02  0.7546771E-02  0.1474345E+00
         -2   -1    0    0    0  501 -0.00000000000E+00  0.00000000000E+00  0.94787244529E+01  0.94787244529E+01  0.00000000000E+00 0.  1.
          2   -1    0    0  501    0  0.00000000000E+00 -0.00000000000E+00 -0.53407953576E+02  0.53407953576E+02  0.00000000000E+00 0. -1.
        -13    1    1    2    0    0  0.11334469331E+02 -0.15033060424E+02 -0.47478103067E+01  0.19416611533E+02  0.00000000000E+00 0.  1.
         13    1    1    2    0    0 -0.11334469331E+02  0.15033060424E+02 -0.39181418816E+02  0.43470066496E+02  0.00000000000E+00 0. -1.
<mgrwt>
<rscale>  0 0.44999523E+02</rscale>
<asrwt>0</asrwt>
<pdfrwt beam="2">  1        2 0.82166083E-02 0.44999523E+02</pdfrwt>
<pdfrwt beam="1">  1       -2 0.14582653E-02 0.44999523E+02</pdfrwt>
<totfact> 0.67959911E+05</totfact>
</mgrwt>
</event>
<event>
 4    1  0.2126213E+000  0.1286656E+03  0.7546771E-02  0.1229449E+00
          2   -1    0    0  501    0  0.00000000000E+00  0.00000000000E+00  0.45347060574E+02  0.45347060574E+02  0.00000000000E+00 0.  1.
         -2   -1    0    0    0  501 -0.00000000000E+00 -0.00000000000E+00 -0.91267369931E+02  0.91267369931E+02  0.00000000000E+00 0. -1.
        -11    1    1    2    0    0  0.47792155071E+02 -0.25249695359E+02 -0.60001945620E+02  0.80758099781E+02  0.00000000000E+00 0. -1.
         11    1    1    2    0    0 -0.47792155071E+02  0.25249695359E+02  0.14081636263E+02  0.55856330724E+02  0.00000000000E+00 0.  1.
<mgrwt>
<rscale>  0 0.12866557E+03</rscale>
<asrwt>0</asrwt>
<pdfrwt beam="1">  1        2 0.69764709E-02 0.12866557E+03</pdfrwt>
<pdfrwt beam="2">  1       -2 0.14041134E-01 0.12866557E+03</pdfrwt>
<totfact> 0.35206734E+04</totfact>
</mgrwt>
</event>
<event>
 4    1  0.2126213E+000  0.2051663E+02  0.7546771E-02  0.1735245E+00
         -2   -1    0    0    0  501 -0.00000000000E+00  0.00000000000E+00  0.56034036905E+01  0.56034036905E+01  0.00000000000E+00 0. -1.
          2   -1    0    0  501    0  0.00000000000E+00 -0.00000000000E+00 -0.18780205964E+02  0.18780205964E+02  0.00000000000E+00 0.  1.
        -11    1    1    2    0    0  0.48083405496E+01  0.89606508873E+01 -0.49851983641E+01  0.11325440649E+02  0.00000000000E+00 0. -1.
         11    1    1    2    0    0 -0.48083405496E+01 -0.89606508873E+01 -0.81916039092E+01  0.13058169005E+02  0.00000000000E+00 0.  1.
<mgrwt>
<rscale>  0 0.20516635E+02</rscale>
<asrwt>0</asrwt>
<pdfrwt beam="2">  1        2 0.28892624E-02 0.20516635E+02</pdfrwt>
<pdfrwt beam="1">  1       -2 0.86206213E-03 0.20516635E+02</pdfrwt>
<totfact> 0.39124501E+06</totfact>
</mgrwt>
</event>
<event>
 4    1  0.2126213E+000  0.2978120E+02  0.7546771E-02  0.1600520E+00
         -2   -1    0    0    0  501 -0.00000000000E+00  0.00000000000E+00  0.34575982892E+01  0.34575982892E+01  0.00000000000E+00 0. -1.
          2   -1    0    0  501    0  0.00000000000E+00 -0.00000000000E+00 -0.64128330329E+02  0.64128330329E+02  0.00000000000E+00 0.  1.
        -11    1    1    2    0    0 -0.67927213570E+01  0.94004361263E+01 -0.51529903598E+02  0.52818938153E+02  0.00000000000E+00 0.  1.
         11    1    1    2    0    0  0.67927213570E+01 -0.94004361263E+01 -0.91408284419E+01  0.14766990465E+02  0.00000000000E+00 0. -1.
<mgrwt>
<rscale>  0 0.29781202E+02</rscale>
<asrwt>0</asrwt>
<pdfrwt beam="2">  1        2 0.98658964E-02 0.29781202E+02</pdfrwt>
<pdfrwt beam="1">  1       -2 0.53193823E-03 0.29781202E+02</pdfrwt>
<totfact> 0.19330453E+06</totfact>
</mgrwt>
</event>
<event>
 4    1  0.2126213E+000  0.2493782E+02  0.7546771E-02  0.1661897E+00
         -2   -1    0    0    0  501 -0.00000000000E+00  0.00000000000E+00  0.36219292871E+02  0.36219292871E+02  0.00000000000E+00 0.  1.
          2   -1    0    0  501    0  0.00000000000E+00 -0.00000000000E+00 -0.42925676423E+01  0.42925676423E+01  0.00000000000E+00 0. -1.
        -11    1    1    2    0    0  0.27613880193E+01 -0.12001298457E+02  0.12789385148E+02  0.17754571268E+02  0.00000000000E+00 0.  1.
         11    1    1    2    0    0 -0.27613880193E+01  0.12001298457E+02  0.19137340081E+02  0.22757289246E+02  0.00000000000E+00 0. -1.
<mgrwt>
<rscale>  0 0.24937824E+02</rscale>
<asrwt>0</asrwt>
<pdfrwt beam="2">  1        2 0.66039505E-03 0.24937824E+02</pdfrwt>
<pdfrwt beam="1">  1       -2 0.55721987E-02 0.24937824E+02</pdfrwt>
<totfact> 0.21657137E+06</totfact>
</mgrwt>
</event>
<event>
 4    1  0.2126213E+000  0.3777248E+02  0.7546771E-02  0.1525274E+00
         -1   -1    0    0    0  501 -0.00000000000E+00  0.00000000000E+00  0.11250432819E+03  0.11250432819E+03  0.00000000000E+00 0.  1.
          1   -1    0    0  501    0  0.00000000000E+00 -0.00000000000E+00 -0.31704556582E+01  0.31704556582E+01  0.00000000000E+00 0. -1.
        -11    1    1    2    0    0 -0.16521740870E+02 -0.91453153542E+01  0.55561189163E+02  0.58682624818E+02  0.00000000000E+00 0. -1.
         11    1    1    2    0    0  0.16521740870E+02  0.91453153542E+01  0.53772683373E+02  0.56992159034E+02  0.00000000000E+00 0.  1.
<mgrwt>
<rscale>  0 0.37772476E+02</rscale>
<asrwt>0</asrwt>
<pdfrwt beam="2">  1        1 0.48776250E-03 0.37772476E+02</pdfrwt>
<pdfrwt beam="1">  1       -1 0.17308355E-01 0.37772476E+02</pdfrwt>
<totfact> 0.72275378E+05</totfact>
</mgrwt>
</event>
<event>
 4    1  0.2126213E+000  0.3365549E+02  0.7546771E-02  0.1560875E+00
          2   -1    0    0  501    0  0.00000000000E+00  0.00000000000E+00  0.46980606631E+01  0.46980606631E+01  0.00000000000E+00 0.  1.
         -2   -1    0    0    0  501 -0.00000000000E+00 -0.00000000000E+00 -0.60274447364E+02  0.60274447364E+02  0.00000000000E+00 0. -1.
        -11    1    1    2    0    0  0.11062063534E+02  0.39844182519E+01 -0.45474446973E+01  0.12606509894E+02  0.00000000000E+00 0.  1.
         11    1    1    2    0    0 -0.11062063534E+02 -0.39844182519E+01 -0.51028942004E+02  0.52365998133E+02  0.00000000000E+00 0. -1.
<mgrwt>
<rscale>  0 0.33655490E+02</rscale>
<asrwt>0</asrwt>
<pdfrwt beam="1">  1        2 0.72277857E-03 0.33655490E+02</pdfrwt>
<pdfrwt beam="2">  1       -2 0.92729918E-02 0.33655490E+02</pdfrwt>
<totfact> 0.10113025E+06</totfact>
</mgrwt>
</event>
<event>
 4    1  0.2126213E+000  0.5678608E+02  0.7546771E-02  0.1411836E+00
         -2   -1    0    0    0  501 -0.00000000000E+00  0.00000000000E+00  0.10289700759E+02  0.10289700759E+02  0.00000000000E+00 0.  1.
          2   -1    0    0  501    0  0.00000000000E+00 -0.00000000000E+00 -0.78346768499E+02  0.78346768499E+02  0.00000000000E+00 0. -1.
        -13    1    1    2    0    0  0.16030723518E+02  0.60727422892E+01 -0.69357731709E+02  0.71444784576E+02  0.00000000000E+00 0. -1.
         13    1    1    2    0    0 -0.16030723518E+02 -0.60727422892E+01  0.13006639684E+01  0.17191684681E+02  0.00000000000E+00 0.  1.
<mgrwt>
<rscale>  0 0.56786083E+02</rscale>
<asrwt>0</asrwt>
<pdfrwt beam="2">  1        2 0.12053349E-01 0.56786083E+02</pdfrwt>
<pdfrwt beam="1">  1       -2 0.15830308E-02 0.56786083E+02</pdfrwt>
<totfact> 0.40660197E+05</totfact>
</mgrwt>
</event>
<event>
 4    1  0.2126213E+000  0.2474847E+02  0.7546771E-02  0.1664641E+00
         -2   -1    0    0    0  501 -0.00000000000E+00  0.00000000000E+00  0.16050337917E+01  0.16050337917E+01  0.00000000000E+00 0.  1.
          2   -1    0    0  501    0  0.00000000000E+00 -0.00000000000E+00 -0.95400918780E+02  0.95400918780E+02  0.00000000000E+00 0. -1.
        -13    1    1    2    0    0  0.77790570014E+01 -0.94341046672E+01 -0.54340825348E+02  0.55699563357E+02  0.00000000000E+00 0.  1.
         13    1    1    2    0    0 -0.77790570014E+01  0.94341046672E+01 -0.39455059640E+02  0.41306389214E+02  0.00000000000E+00 0. -1.
<mgrwt>
<rscale>  0 0.24748471E+02</rscale>
<asrwt>0</asrwt>
<pdfrwt beam="2">  1        2 0.14677058E-01 0.24748471E+02</pdfrwt>
<pdfrwt beam="1">  1       -2 0.24692838E-03 0.24748471E+02</pdfrwt>
<totfact> 0.32327525E+06</totfact>
</mgrwt>
</event>
<event>
 4    1  0.2126213E+000  0.2484901E+02  0.7546771E-02  0.1663180E+00
         -2   -1    0    0    0  501 -0.00000000000E+00  0.00000000000E+00  0.16433871903E+01  0.16433871903E+01  0.00000000000E+00 0. -1.
          2   -1    0    0  501    0  0.00000000000E+00 -0.00000000000E+00 -0.93933058733E+02  0.93933058733E+02  0.00000000000E+00 0.  1.
        -11    1    1    2    0    0 -0.12076503430E+02 -0.25080621687E+01 -0.40393286595E+02  0.42234463568E+02  0.00000000000E+00 0. -1.
         11    1    1    2    0    0  0.12076503430E+02  0.25080621687E+01 -0.51896384948E+02  0.53341982356E+02  0.00000000000E+00 0.  1.
<mgrwt>
<rscale>  0 0.24849015E+02</rscale>
<asrwt>0</asrwt>
<pdfrwt beam="2">  1        2 0.14451235E-01 0.24849015E+02</pdfrwt>
<pdfrwt beam="1">  1       -2 0.25282888E-03 0.24849015E+02</pdfrwt>
<totfact> 0.31915587E+06</totfact>
</mgrwt>
</event>
<event>
 4    1  0.2126213E+000  0.3624982E+02  0.7546771E-02  0.1537774E+00
          2   -1    0    0  501    0  0.00000000000E+00  0.00000000000E+00  0.80235888523E+02  0.80235888523E+02  0.00000000000E+00 0. -1.
         -2   -1    0    0    0  501 -0.00000000000E+00 -0.00000000000E+00 -0.40943321095E+01  0.40943321095E+01  0.00000000000E+00 0.  1.
        -11    1    1    2    0    0 -0.12851704836E+02  0.31768151758E+00  0.83474457524E+01  0.15327983864E+02  0.00000000000E+00 0. -1.
         11    1    1    2    0    0  0.12851704836E+02 -0.31768151758E+00  0.67794110661E+02  0.69002236769E+02  0.00000000000E+00 0.  1.
<mgrwt>
<rscale>  0 0.36249821E+02</rscale>
<asrwt>0</asrwt>
<pdfrwt beam="1">  1        2 0.12343982E-01 0.36249821E+02</pdfrwt>
<pdfrwt beam="2">  1       -2 0.62989731E-03 0.36249821E+02</pdfrwt>
<totfact> 0.12620515E+06</totfact>
</mgrwt>
</event>
<event>
 4    1  0.2126213E+000  0.2203750E+02  0.7546771E-02  0.1707604E+00
         -2   -1    0    0    0  501 -0.00000000000E+00  0.00000000000E+00  0.30156559243E+01  0.30156559243E+01  0.00000000000E+00 0.  1.
          2   -1    0    0  501    0  0.00000000000E+00 -0.00000000000E+00 -0.40260837395E+02  0.40260837395E+02  0.00000000000E+00 0. -1.
        -11    1    1    2    0    0  0.36099782594E+01 -0.93491285903E+01 -0.96289095526E+01  0.13897987178E+02  0.00000000000E+00 0.  1.
         11    1    1    2    0    0 -0.36099782594E+01  0.93491285903E+01 -0.27616271918E+02  0.29378506141E+02  0.00000000000E+00 0. -1.
<mgrwt>
<rscale>  0 0.22037498E+02</rscale>
<asrwt>0</asrwt>
<pdfrwt beam="2">  1        2 0.61939743E-02 0.22037498E+02</pdfrwt>
<pdfrwt beam="1">  1       -2 0.46394712E-03 0.22037498E+02</pdfrwt>
<totfact> 0.36106185E+06</totfact>
</mgrwt>
</event>
<event>
 4    1  0.2126213E+000  0.2269758E+02  0.7546771E-02  0.1696460E+00
          2   -1    0    0  501    0  0.00000000000E+00  0.00000000000E+00  0.86528564899E+02  0.86528564899E+02  0.00000000000E+00 0.  1.
         -2   -1    0    0    0  501 -0.00000000000E+00 -0.00000000000E+00 -0.14884678401E+01  0.14884678401E+01  0.00000000000E+00 0. -1.
        -11    1    1    2    0    0 -0.10501607952E+02  0.62617992824E+00  0.26013520156E+02  0.28060276224E+02  0.00000000000E+00 0.  1.
         11    1    1    2    0    0  0.10501607952E+02 -0.62617992824E+00  0.59026576903E+02  0.59956756515E+02  0.00000000000E+00 0. -1.
<mgrwt>
<rscale>  0 0.22697576E+02</rscale>
<asrwt>0</asrwt>
<pdfrwt beam="1">  1        2 0.13312083E-01 0.22697576E+02</pdfrwt>
<pdfrwt beam="2">  1       -2 0.22899512E-03 0.22697576E+02</pdfrwt>
<totfact> 0.38519163E+06</totfact>
</mgrwt>
</event>
<event>
 4    1  0.2126213E+000  0.2065464E+02  0.7546771E-02  0.1732615E+00
         -2   -1    0    0    0  501 -0.00000000000E+00  0.00000000000E+00  0.46368523580E+01  0.46368523580E+01  0.00000000000E+00 0. -1.
          2   -1    0    0  501    0  0.00000000000E+00 -0.00000000000E+00 -0.23001276264E+02  0.23001276264E+02  0.00000000000E+00 0.  1.
        -13    1    1    2    0    0  0.10279371659E+02 -0.30159865632E-01 -0.78527424432E+01  0.12935685339E+02  0.00000000000E+00 0.  1.
         13    1    1    2    0    0 -0.10279371659E+02  0.30159865632E-01 -0.10511681463E+02  0.14702443283E+02  0.00000000000E+00 0. -1.
<mgrwt>
<rscale>  0 0.20654638E+02</rscale>
<asrwt>0</asrwt>
<pdfrwt beam="2">  1        2 0.35386580E-02 0.20654638E+02</pdfrwt>
<pdfrwt beam="1">  1       -2 0.71336188E-03 0.20654638E+02</pdfrwt>
<totfact> 0.39252653E+06</totfact>
</mgrwt>
</event>
<event>
 4    1  0.2126213E+000  0.2034012E+02  0.7546771E-02  0.1738648E+00
          2   -1    0    0  501    0  0.00000000000E+00  0.00000000000E+00  0.46660870382E+01  0.46660870382E+01  0.00000000000E+00 0. -1.
         -2   -1    0    0    0  501 -0.00000000000E+00 -0.00000000000E+00 -0.22166354611E+02  0.22166354611E+02  0.00000000000E+00 0.  1.
        -11    1    1    2    0    0 -0.61042048935E+01  0.81170239579E+01 -0.80486723228E+01  0.12958723760E+02  0.00000000000E+00 0. -1.
         11    1    1    2    0    0  0.61042048935E+01 -0.81170239579E+01 -0.94515952502E+01  0.13873717890E+02  0.00000000000E+00 0.  1.
<mgrwt>
<rscale>  0 0.20340122E+02</rscale>
<asrwt>0</asrwt>
<pdfrwt beam="1">  1        2 0.71785955E-03 0.20340122E+02</pdfrwt>
<pdfrwt beam="2">  1       -2 0.34102084E-02 0.20340122E+02</pdfrwt>
<totfact> 0.35769892E+06</totfact>
</mgrwt>
</event>
<event>
 4    1  0.2126213E+000  0.2678390E+02  0.7546771E-02  0.1636627E+00
          2   -1    0    0  501    0  0.00000000000E+00  0.00000000000E+00  0.78745203841E+01  0.78745203841E+01  0.00000000000E+00 0.  1.
         -2   -1    0    0    0  501 -0.00000000000E+00 -0.00000000000E+00 -0.22775266391E+02  0.22775266391E+02  0.00000000000E+00 0. -1.
        -11    1    1    2    0    0  0.13365372999E+02  0.15851538535E+00 -0.65025910658E+01  0.14864118308E+02  0.00000000000E+00 0.  1.
         11    1    1    2    0    0 -0.13365372999E+02 -0.15851538535E+00 -0.83981549406E+01  0.15785668466E+02  0.00000000000E+00 0. -1.
<mgrwt>
<rscale>  0 0.26783898E+02</rscale>
<asrwt>0</asrwt>
<pdfrwt beam="1">  1        2 0.12114647E-02 0.26783898E+02</pdfrwt>
<pdfrwt beam="2">  1       -2 0.35038871E-02 0.26783898E+02</pdfrwt>
<totfact> 0.19380607E+06</totfact>
</mgrwt>
</event>
<event>
 4    1  0.2126213E+000  0.4402478E+02  0.7546771E-02  0.1480523E+00
          2   -1    0    0  501    0  0.00000000000E+00  0.00000000000E+00  0.26423749580E+02  0.26423749580E+02  0.00000000000E+00 0.  1.
         -2   -1    0    0    0  501 -0.00000000000E+00 -0.00000000000E+00 -0.18337494186E+02  0.18337494186E+02  0.00000000000E+00 0. -1.
        -13    1    1    2    0    0  0.16262873196E+02  0.78908012722E+01  0.16815096050E+02  0.24687916973E+02  0.00000000000E+00 0.  1.
         13    1    1    2    0    0 -0.16262873196E+02 -0.78908012722E+01 -0.87288406565E+01  0.20073326792E+02  0.00000000000E+00 0. -1.
<mgrwt>
<rscale>  0 0.44024782E+02</rscale>
<asrwt>0</asrwt>
<pdfrwt beam="1">  1        2 0.40651922E-02 0.44024782E+02</pdfrwt>
<pdfrwt beam="2">  1       -2 0.28211530E-02 0.44024782E+02</pdfrwt>
<totfact> 0.64061586E+05</totfact>
</mgrwt>
</event>
<event>
 4    1  0.2126213E+000  0.2583865E+02  0.7546771E-02  0.1649240E+00
         -2   -1    0    0    0  501 -0.00000000000E+00  0.00000000000E+00  0.12862078191E+03  0.12862078191E+03  0.00000000000E+00 0. -1.
          2   -1    0    0  501    0  0.00000000000E+00 -0.00000000000E+00 -0.12976825560E+01  0.12976825560E+01  0.00000000000E+00 0.  1.
        -13    1    1    2    0    0  0.22799153625E+01 -0.12505506496E+02  0.75262378769E+02  0.76328312995E+02  0.00000000000E+00 0. -1.
         13    1    1    2    0    0 -0.22799153625E+01  0.12505506496E+02  0.52060720585E+02  0.53590151470E+02  0.00000000000E+00 0.  1.
<mgrwt>
<rscale>  0 0.25838649E+02</rscale>
<asrwt>0</asrwt>
<pdfrwt beam="2">  1        2 0.19964357E-03 0.25838649E+02</pdfrwt>
<pdfrwt beam="1">  1       -2 0.19787803E-01 0.25838649E+02</pdfrwt>
<totfact> 0.15710431E+06</totfact>
</mgrwt>
</event>
<event>
 4    1  0.2126213E+000  0.3593475E+02  0.7546771E-02  0.1540453E+00
          1   -1    0    0  501    0  0.00000000000E+00  0.00000000000E+00  0.80952897761E+01  0.80952897761E+01  0.00000000000E+00 0. -1.
         -1   -1    0    0    0  501 -0.00000000000E+00 -0.00000000000E+00 -0.39878315354E+02  0.39878315354E+02  0.00000000000E+00 0.  1.
        -11    1    1    2    0    0 -0.10391580160E+02 -0.18686713410E+01  0.35168330959E+01  0.11128566208E+02  0.00000000000E+00 0. -1.
         11    1    1    2    0    0  0.10391580160E+02  0.18686713410E+01 -0.35299858674E+02  0.36845038922E+02  0.00000000000E+00 0.  1.
<mgrwt>
<rscale>  0 0.35934747E+02</rscale>
<asrwt>0</asrwt>
<pdfrwt beam="1">  1        1 0.12454292E-02 0.35934747E+02</pdfrwt>
<pdfrwt beam="2">  1       -1 0.61351255E-02 0.35934747E+02</pdfrwt>
<totfact> 0.92968978E+05</totfact>
</mgrwt>
</event>
<event>
 4    1  0.2126213E+000  0.4273437E+02  0.7546771E-02  0.1489002E+00
         -2   -1    0    0    0  501 -0.00000000000E+00  0.00000000000E+00  0.10126284693E+02  0.10126284693E+02  0.00000000000E+00 0.  1.
          2   -1    0    0  501    0  0.00000000000E+00 -0.00000000000E+00 -0.45086280425E+02  0.45086280425E+02  0.00000000000E+00 0. -1.
        -11    1    1    2    0    0  0.10181697944E+02 -0.18784874279E+02 -0.17653513293E+02  0.27716150640E+02  0.00000000000E+00 0. -1.
         11    1    1    2    0    0 -0.10181697944E+02  0.18784874279E+02 -0.17306482439E+02  0.27496414478E+02  0.00000000000E+00 0.  1.
<mgrwt>
<rscale>  0 0.42734366E+02</rscale>
<asrwt>0</asrwt>
<pdfrwt beam="2">  1        2 0.69363510E-02 0.42734366E+02</pdfrwt>
<pdfrwt beam="1">  1       -2 0.15578899E-02 0.42734366E+02</pdfrwt>
<totfact> 0.75106878E+05</totfact>
</mgrwt>
</event>
<event>
 4    1  0.2126213E+000  0.2865543E+02  0.7546771E-02  0.1613445E+00
         -4   -1    0    0    0  501 -0.00000000000E+00  0.00000000000E+00  0.83212604458E+02  0.83212604458E+02  0.00000000000E+00 0. -1.
          4   -1    0    0  501    0  0.00000000000E+00 -0.00000000000E+00 -0.24669743945E+01  0.24669743945E+01  0.00000000000E+00 0.  1.
        -11    1    1    2    0    0  0.83540159969E+01 -0.11231502596E+02  0.49514149626E+02  0.51454710640E+02  0.00000000000E+00 0. -1.
         11    1    1    2    0    0 -0.83540159969E+01  0.11231502596E+02  0.31231480438E+02  0.34224868213E+02  0.00000000000E+00 0.  1.
<mgrwt>
<rscale>  0 0.28655426E+02</rscale>
<asrwt>0</asrwt>
<pdfrwt beam="2">  1        4 0.37953459E-03 0.28655426E+02</pdfrwt>
<pdfrwt beam="1">  1       -4 0.12801937E-01 0.28655426E+02</pdfrwt>
<totfact> 0.47914875E+05</totfact>
</mgrwt>
</event>
<event>
 4    1  0.2126213E+000  0.5924623E+02  0.7546771E-02  0.1401022E+00
          1   -1    0    0  501    0  0.00000000000E+00  0.00000000000E+00  0.21655960990E+02  0.21655960990E+02  0.00000000000E+00 0. -1.
         -1   -1    0    0    0  501 -0.00000000000E+00 -0.00000000000E+00 -0.40521354536E+02  0.40521354536E+02  0.00000000000E+00 0.  1.
        -13    1    1    2    0    0  0.23779075505E+02  0.15135325983E+02  0.12882282634E+00  0.28187570306E+02  0.00000000000E+00 0. -1.
         13    1    1    2    0    0 -0.23779075505E+02 -0.15135325983E+02 -0.18994216372E+02  0.33989745219E+02  0.00000000000E+00 0.  1.
<mgrwt>
<rscale>  0 0.59246228E+02</rscale>
<asrwt>0</asrwt>
<pdfrwt beam="1">  1        1 0.33316863E-02 0.59246228E+02</pdfrwt>
<pdfrwt beam="2">  1       -1 0.62340545E-02 0.59246228E+02</pdfrwt>
<totfact> 0.27516158E+05</totfact>
</mgrwt>
</event>
<event>
 4    1  0.2126213E+000  0.3364314E+02  0.7546771E-02  0.1560991E+00
          2   -1    0    0  501    0  0.00000000000E+00  0.00000000000E+00  0.97891761704E+02  0.97891761704E+02  0.00000000000E+00 0.  1.
         -2   -1    0    0    0  501 -0.00000000000E+00 -0.00000000000E+00 -0.28905925118E+01  0.28905925118E+01  0.00000000000E+00 0. -1.
        -11    1    1    2    0    0  0.20430284035E+01  0.16690953135E+02  0.48851316710E+02  0.51664427084E+02  0.00000000000E+00 0.  1.
         11    1    1    2    0    0 -0.20430284035E+01 -0.16690953135E+02  0.46149852482E+02  0.49117927132E+02  0.00000000000E+00 0. -1.
<mgrwt>
<rscale>  0 0.33643139E+02</rscale>
<asrwt>0</asrwt>
<pdfrwt beam="1">  1        2 0.15060268E-01 0.33643139E+02</pdfrwt>
<pdfrwt beam="2">  1       -2 0.44470662E-03 0.33643139E+02</pdfrwt>
<totfact> 0.15825091E+06</totfact>
</mgrwt>
</event>
<event>
 4    1  0.2126213E+000  0.2730736E+02  0.7546771E-02  0.1629914E+00
         -1   -1    0    0    0  501 -0.00000000000E+00  0.00000000000E+00  0.15097335007E+02  0.15097335007E+02  0.00000000000E+00 0.  1.
          1   -1    0    0  501    0  0.00000000000E+00 -0.00000000000E+00 -0.12348075786E+02  0.12348075786E+02  0.00000000000E+00 0. -1.
        -13    1    1    2    0    0  0.93551859331E+01 -0.99442414301E+01  0.15001423360E+01  0.13735278246E+02  0.00000000000E+00 0.  1.
         13    1    1    2    0    0 -0.93551859331E+01  0.99442414301E+01  0.12491168855E+01  0.13710132547E+02  0.00000000000E+00 0. -1.
<mgrwt>
<rscale>  0 0.27307364E+02</rscale>
<asrwt>0</asrwt>
<pdfrwt beam="2">  1        1 0.18997040E-02 0.27307364E+02</pdfrwt>
<pdfrwt beam="1">  1       -1 0.23226669E-02 0.27307364E+02</pdfrwt>
<totfact> 0.18872673E+06</totfact>
</mgrwt>
</event>
<event>
 4    1  0.2126213E+000  0.3158787E+02  0.7546771E-02  0.1581172E+00
         -2   -1    0    0    0  501 -0.00000000000E+00  0.00000000000E+00  0.41194179253E+01  0.41194179253E+01  0.00000000000E+00 0. -1.
          2   -1    0    0  501    0  0.00000000000E+00 -0.00000000000E+00 -0.60554285223E+02  0.60554285223E+02  0.00000000000E+00 0.  1.
        -11    1    1    2    0    0 -0.37927802193E+01 -0.11376465954E+02 -0.49261032614E+02  0.50699689285E+02  0.00000000000E+00 0.  1.
         11    1    1    2    0    0  0.37927802193E+01  0.11376465954E+02 -0.71738346844E+01  0.13974013864E+02  0.00000000000E+00 0. -1.
<mgrwt>
<rscale>  0 0.31587872E+02</rscale>
<asrwt>0</asrwt>
<pdfrwt beam="2">  1        2 0.93160436E-02 0.31587872E+02</pdfrwt>
<pdfrwt beam="1">  1       -2 0.63375663E-03 0.31587872E+02</pdfrwt>
<totfact> 0.16618880E+06</totfact>
</mgrwt>
</event>
<event>
 4    1  0.2126213E+000  0.8834371E+02  0.7546771E-02  0.1306913E+00
          2   -1    0    0  501    0  0.00000000000E+00  0.00000000000E+00  0.39395769599E+02  0.39395769599E+02  0.00000000000E+00 0.  1.
         -2   -1    0    0    0  501 -0.00000000000E+00 -0.00000000000E+00 -0.49526957481E+02  0.49526957481E+02  0.00000000000E+00 0. -1.
        -11    1    1    2    0    0  0.40636560540E+02  0.38678916019E+01 -0.22054068864E+02  0.46396902821E+02  0.00000000000E+00 0. -1.
         11    1    1    2    0    0 -0.40636560540E+02 -0.38678916019E+01  0.11922880982E+02  0.42525824258E+02  0.00000000000E+00 0.  1.
<mgrwt>
<rscale>  0 0.88343706E+02</rscale>
<asrwt>0</asrwt>
<pdfrwt beam="1">  1        2 0.60608876E-02 0.88343706E+02</pdfrwt>
<pdfrwt beam="2">  1       -2 0.76195320E-02 0.88343706E+02</pdfrwt>
<totfact> 0.10408103E+05</totfact>
</mgrwt>
</event>
<event>
 4    1  0.2126213E+000  0.2547344E+02  0.7546771E-02  0.1654293E+00
          2   -1    0    0  501    0  0.00000000000E+00  0.00000000000E+00  0.48962859600E+01  0.48962859600E+01  0.00000000000E+00 0. -1.
         -2   -1    0    0    0  501 -0.00000000000E+00 -0.00000000000E+00 -0.33132065335E+02  0.33132065335E+02  0.00000000000E+00 0.  1.
        -11    1    1    2    0    0  0.40533101903E+01 -0.11493630664E+02 -0.85940563180E+01  0.14912768802E+02  0.00000000000E+00 0.  1.
         11    1    1    2    0    0 -0.40533101903E+01  0.11493630664E+02 -0.19641723058E+02  0.23115582494E+02  0.00000000000E+00 0. -1.
<mgrwt>
<rscale>  0 0.25473442E+02</rscale>
<asrwt>0</asrwt>
<pdfrwt beam="1">  1        2 0.75327478E-03 0.25473442E+02</pdfrwt>
<pdfrwt beam="2">  1       -2 0.50972407E-02 0.25473442E+02</pdfrwt>
<totfact> 0.20859110E+06</totfact>
</mgrwt>
</event>
<event>
 4    1  0.2126213E+000  0.2107055E+02  0.7546771E-02  0.1724840E+00
          2   -1    0    0  501    0  0.00000000000E+00  0.00000000000E+00  0.22858248778E+02  0.22858248778E+02  0.00000000000E+00 0.  1.
         -2   -1    0    0    0  501 -0.00000000000E+00 -0.00000000000E+00 -0.48556674794E+01  0.48556674794E+01  0.00000000000E+00 0. -1.
        -11    1    1    2    0    0  0.10219820995E+02  0.24260956423E+01  0.79316312457E+01  0.13162121997E+02  0.00000000000E+00 0. -1.
         11    1    1    2    0    0 -0.10219820995E+02 -0.24260956423E+01  0.10070950053E+02  0.14551794261E+02  0.00000000000E+00 0.  1.
<mgrwt>
<rscale>  0 0.21070553E+02</rscale>
<asrwt>0</asrwt>
<pdfrwt beam="1">  1        2 0.35166536E-02 0.21070553E+02</pdfrwt>
<pdfrwt beam="2">  1       -2 0.74702577E-03 0.21070553E+02</pdfrwt>
<totfact> 0.37492919E+06</totfact>
</mgrwt>
</event>
<event>
 4    1  0.2126213E+000  0.1119602E+03  0.7546771E-02  0.1256982E+00
          2   -1    0    0  501    0  0.00000000000E+00  0.00000000000E+00  0.11954036047E+02  0.11954036047E+02  0.00000000000E+00 0. -1.
         -2   -1    0    0    0  501 -0.00000000000E+00 -0.00000000000E+00 -0.26215196962E+03  0.26215196962E+03  0.00000000000E+00 0.  1.
        -13    1    1    2    0    0  0.88383630434E+01 -0.54781304500E+02 -0.14320043492E+03  0.15357562484E+03  0.00000000000E+00 0.  1.
         13    1    1    2    0    0 -0.88383630434E+01  0.54781304500E+02 -0.10699749865E+03  0.12053038083E+03  0.00000000000E+00 0. -1.
<mgrwt>
<rscale>  0 0.11196024E+03</rscale>
<asrwt>0</asrwt>
<pdfrwt beam="1">  1        2 0.18390823E-02 0.11196024E+03</pdfrwt>
<pdfrwt beam="2">  1       -2 0.40331075E-01 0.11196024E+03</pdfrwt>
<totfact> 0.32295692E+04</totfact>
</mgrwt>
</event>
<event>
 4    1  0.2126213E+000  0.3551081E+02  0.7546771E-02  0.1544111E+00
         -1   -1    0    0    0  501 -0.00000000000E+00  0.00000000000E+00  0.45054489430E+01  0.45054489430E+01  0.00000000000E+00 0. -1.
          1   -1    0    0  501    0  0.00000000000E+00 -0.00000000000E+00 -0.69971794965E+02  0.69971794965E+02  0.00000000000E+00 0.  1.
        -13    1    1    2    0    0 -0.14524859976E+02  0.58902392654E+00 -0.54115045204E+02  0.56033531246E+02  0.00000000000E+00 0.  1.
         13    1    1    2    0    0  0.14524859976E+02 -0.58902392654E+00 -0.11351300818E+02  0.18443712662E+02  0.00000000000E+00 0. -1.
<mgrwt>
<rscale>  0 0.35510807E+02</rscale>
<asrwt>0</asrwt>
<pdfrwt beam="2">  1        1 0.10764892E-01 0.35510807E+02</pdfrwt>
<pdfrwt beam="1">  1       -1 0.69314599E-03 0.35510807E+02</pdfrwt>
<totfact> 0.11292262E+06</totfact>
</mgrwt>
</event>
<event>
 4    1  0.2126213E+000  0.2615246E+02  0.7546771E-02  0.1644980E+00
         -3   -1    0    0    0  501 -0.00000000000E+00  0.00000000000E+00  0.49576206643E+01  0.49576206643E+01  0.00000000000E+00 0.  1.
          3   -1    0    0  501    0  0.00000000000E+00 -0.00000000000E+00 -0.34489898880E+02  0.34489898880E+02  0.00000000000E+00 0. -1.
        -11    1    1    2    0    0 -0.71779183369E+01 -0.10895971975E+02 -0.13465861389E+02  0.18750310395E+02  0.00000000000E+00 0.  1.
         11    1    1    2    0    0  0.71779183369E+01  0.10895971975E+02 -0.16066416826E+02  0.20697209149E+02  0.00000000000E+00 0. -1.
<mgrwt>
<rscale>  0 0.26152463E+02</rscale>
<asrwt>0</asrwt>
<pdfrwt beam="2">  1        3 0.53061384E-02 0.26152463E+02</pdfrwt>
<pdfrwt beam="1">  1       -3 0.76271085E-03 0.26152463E+02</pdfrwt>
<totfact> 0.92452318E+05</totfact>
</mgrwt>
</event>
<event>
 4    1  0.2126213E+000  0.5098890E+02  0.7546771E-02  0.1440080E+00
          4   -1    0    0  501    0  0.00000000000E+00  0.00000000000E+00  0.76426775875E+01  0.76426775875E+01  0.00000000000E+00 0.  1.
         -4   -1    0    0    0  501 -0.00000000000E+00 -0.00000000000E+00 -0.85044408888E+02  0.85044408888E+02  0.00000000000E+00 0. -1.
        -11    1    1    2    0    0  0.21442198652E+02 -0.12602187577E+02 -0.48884378417E+02  0.54847656905E+02  0.00000000000E+00 0. -1.
         11    1    1    2    0    0 -0.21442198652E+02  0.12602187577E+02 -0.28517352884E+02  0.37839429571E+02  0.00000000000E+00 0.  1.
<mgrwt>
<rscale>  0 0.50988901E+02</rscale>
<asrwt>0</asrwt>
<pdfrwt beam="1">  1        4 0.11757965E-02 0.50988901E+02</pdfrwt>
<pdfrwt beam="2">  1       -4 0.13083756E-01 0.50988901E+02</pdfrwt>
<totfact> 0.12163526E+05</totfact>
</mgrwt>
</event>
<event>
 4    1  0.2126213E+000  0.2396466E+02  0.7546771E-02  0.1676334E+00
          3   -1    0    0  501    0  0.00000000000E+00  0.00000000000E+00  0.27659138538E+02  0.27659138538E+02  0.00000000000E+00 0.  1.
         -3   -1    0    0    0  501 -0.00000000000E+00 -0.00000000000E+00 -0.51909150460E+01  0.51909150460E+01  0.00000000000E+00 0. -1.
        -13    1    1    2    0    0  0.96184996896E+01  0.40187345377E+01  0.19333322108E+02  0.21964587574E+02  0.00000000000E+00 0.  1.
         13    1    1    2    0    0 -0.96184996896E+01 -0.40187345377E+01  0.31349013837E+01  0.10885466010E+02  0.00000000000E+00 0. -1.
<mgrwt>
<rscale>  0 0.23964661E+02</rscale>
<asrwt>0</asrwt>
<pdfrwt beam="1">  1        3 0.42552520E-02 0.23964661E+02</pdfrwt>
<pdfrwt beam="2">  1       -3 0.79860233E-03 0.23964661E+02</pdfrwt>
<totfact> 0.11497443E+06</totfact>
</mgrwt>
</event>
<event>
 4    1  0.2126213E+000  0.4963294E+02  0.7546771E-02  0.1447331E+00
         -2   -1    0    0    0  501 -0.00000000000E+00  0.00000000000E+00  0.13534512488E+02  0.13534512488E+02  0.00000000000E+00 0. -1.
          2   -1    0    0  501    0  0.00000000000E+00 -0.00000000000E+00 -0.45502716571E+02  0.45502716571E+02  0.00000000000E+00 0.  1.
        -13    1    1    2    0    0  0.83329442426E+01 -0.22752834714E+02 -0.22359480361E+02  0.32970832706E+02  0.00000000000E+00 0.  1.
         13    1    1    2    0    0 -0.83329442426E+01  0.22752834714E+02 -0.96087237219E+01  0.26066396353E+02  0.00000000000E+00 0. -1.
<mgrwt>
<rscale>  0 0.49632936E+02</rscale>
<asrwt>0</asrwt>
<pdfrwt beam="2">  1        2 0.70004180E-02 0.49632936E+02</pdfrwt>
<pdfrwt beam="1">  1       -2 0.20822327E-02 0.49632936E+02</pdfrwt>
<totfact> 0.51371882E+05</totfact>
</mgrwt>
</event>
<event>
 4    1  0.2126213E+000  0.2709029E+02  0.7546771E-02  0.1632675E+00
         -2   -1    0    0    0  501 -0.00000000000E+00  0.00000000000E+00  0.15855428165E+02  0.15855428165E+02  0.00000000000E+00 0.  1.
          2   -1    0    0  501    0  0.00000000000E+00 -0.00000000000E+00 -0.11571491221E+02  0.11571491221E+02  0.00000000000E+00 0. -1.
        -13    1    1    2    0    0 -0.11822856318E+02  0.64363396135E+01  0.61842723392E+00  0.13475490765E+02  0.00000000000E+00 0.  1.
         13    1    1    2    0    0  0.11822856318E+02 -0.64363396135E+01  0.36655097095E+01  0.13951428621E+02  0.00000000000E+00 0. -1.
<mgrwt>
<rscale>  0 0.27090290E+02</rscale>
<asrwt>0</asrwt>
<pdfrwt beam="2">  1        2 0.17802294E-02 0.27090290E+02</pdfrwt>
<pdfrwt beam="1">  1       -2 0.24392966E-02 0.27090290E+02</pdfrwt>
<totfact> 0.19560211E+06</totfact>
</mgrwt>
</event>
<event>
 4    1  0.2126213E+000  0.3740933E+02  0.7546771E-02  0.1528190E+00
         -4   -1    0    0    0  501 -0.00000000000E+00  0.00000000000E+00  0.12991259489E+03  0.12991259489E+03  0.00000000000E+00 0.  1.
          4   -1    0    0  501    0  0.00000000000E+00 -0.00000000000E+00 -0.26930756678E+01  0.26930756678E+01  0.00000000000E+00 0. -1.
        -11    1    1    2    0    0 -0.11719159105E+02 -0.11551933810E+02  0.95131604951E+02  0.96544332436E+02  0.00000000000E+00 0.  1.
         11    1    1    2    0    0  0.11719159105E+02  0.11551933810E+02  0.32087914270E+02  0.36061338121E+02  0.00000000000E+00 0. -1.
<mgrwt>
<rscale>  0 0.37409328E+02</rscale>
<asrwt>0</asrwt>
<pdfrwt beam="2">  1        4 0.41431943E-03 0.37409328E+02</pdfrwt>
<pdfrwt beam="1">  1       -4 0.19986548E-01 0.37409328E+02</pdfrwt>
<totfact> 0.23099876E+05</totfact>
</mgrwt>
</event>
<event>
 4    1  0.2126213E+000  0.3895276E+02  0.7546771E-02  0.1516063E+00
          2   -1    0    0  501    0  0.00000000000E+00  0.00000000000E+00  0.31927428204E+02  0.31927428204E+02  0.00000000000E+00 0.  1.
         -2   -1    0    0    0  501 -0.00000000000E+00 -0.00000000000E+00 -0.11880987262E+02  0.11880987262E+02  0.00000000000E+00 0. -1.
        -13    1    1    2    0    0 -0.91320315803E+01  0.77717609004E+01 -0.72370315808E+01  0.14006030643E+02  0.00000000000E+00 0. -1.
         13    1    1    2    0    0  0.91320315803E+01 -0.77717609004E+01  0.27283472522E+02  0.29802384823E+02  0.00000000000E+00 0.  1.
<mgrwt>
<rscale>  0 0.38952759E+02</rscale>
<asrwt>0</asrwt>
<pdfrwt beam="1">  1        2 0.49119120E-02 0.38952759E+02</pdfrwt>
<pdfrwt beam="2">  1       -2 0.18278442E-02 0.38952759E+02</pdfrwt>
<totfact> 0.89792264E+05</totfact>
</mgrwt>
</event>
<event>
 4    1  0.2126213E+000  0.1714787E+03  0.7546771E-02  0.1176314E+00
         -2   -1    0    0    0  501 -0.00000000000E+00  0.00000000000E+00  0.56351736254E+03  0.56351736254E+03  0.00000000000E+00 0. -1.
          2   -1    0    0  501    0  0.00000000000E+00 -0.00000000000E+00 -0.13045273649E+02  0.13045273649E+02  0.00000000000E+00 0.  1.
        -13    1    1    2    0    0  0.51133356457E+02 -0.67720919790E+02  0.31648352280E+03  0.32766227022E+03  0.00000000000E+00 0. -1.
         13    1    1    2    0    0 -0.51133356457E+02  0.67720919790E+02  0.23398856609E+03  0.24890036597E+03  0.00000000000E+00 0.  1.
<mgrwt>
<rscale>  0 0.17147872E+03</rscale>
<asrwt>0</asrwt>
<pdfrwt beam="2">  1        2 0.20069656E-02 0.17147872E+03</pdfrwt>
<pdfrwt beam="1">  1       -2 0.86694960E-01 0.17147872E+03</pdfrwt>
<totfact> 0.62443285E+03</totfact>
</mgrwt>
</event>
<event>
 4    1  0.2126213E+000  0.3368982E+02  0.7546771E-02  0.1560553E+00
         -2   -1    0    0    0  501 -0.00000000000E+00  0.00000000000E+00  0.70964029693E+01  0.70964029693E+01  0.00000000000E+00 0.  1.
          2   -1    0    0  501    0  0.00000000000E+00 -0.00000000000E+00 -0.39985192758E+02  0.39985192758E+02  0.00000000000E+00 0. -1.
        -13    1    1    2    0    0  0.71075917517E+01 -0.95068433631E+01 -0.33147503142E+02  0.35208733232E+02  0.00000000000E+00 0. -1.
         13    1    1    2    0    0 -0.71075917517E+01  0.95068433631E+01  0.25871335319E+00  0.11872862496E+02  0.00000000000E+00 0.  1.
<mgrwt>
<rscale>  0 0.33689823E+02</rscale>
<asrwt>0</asrwt>
<pdfrwt beam="2">  1        2 0.61515682E-02 0.33689823E+02</pdfrwt>
<pdfrwt beam="1">  1       -2 0.10917543E-02 0.33689823E+02</pdfrwt>
<totfact> 0.13278014E+06</totfact>
</mgrwt>
</event>
<event>
 4    1  0.2126213E+000  0.2588013E+02  0.7546771E-02  0.1648673E+00
          1   -1    0    0  501    0  0.00000000000E+00  0.00000000000E+00  0.86216031453E+01  0.86216031453E+01  0.00000000000E+00 0. -1.
         -1   -1    0    0    0  501 -0.00000000000E+00 -0.00000000000E+00 -0.19421593068E+02  0.19421593068E+02  0.00000000000E+00 0.  1.
        -13    1    1    2    0    0 -0.83826523626E+01 -0.60624280943E+01  0.30229421430E+01  0.10777758312E+02  0.00000000000E+00 0. -1.
         13    1    1    2    0    0  0.83826523626E+01  0.60624280943E+01 -0.13822932065E+02  0.17265437901E+02  0.00000000000E+00 0.  1.
<mgrwt>
<rscale>  0 0.25880129E+02</rscale>
<asrwt>0</asrwt>
<pdfrwt beam="1">  1        1 0.13264005E-02 0.25880129E+02</pdfrwt>
<pdfrwt beam="2">  1       -1 0.29879373E-02 0.25880129E+02</pdfrwt>
<totfact> 0.21037895E+06</totfact>
</mgrwt>
</event>
<event>
 4    1  0.2126213E+000  0.2612858E+02  0.7546771E-02  0.1645302E+00
         -4   -1    0    0    0  501 -0.00000000000E+00  0.00000000000E+00  0.33983969465E+02  0.33983969465E+02  0.00000000000E+00 0. -1.
          4   -1    0    0  501    0  0.00000000000E+00 -0.00000000000E+00 -0.50222397424E+01  0.50222397424E+01  0.00000000000E+00 0.  1.
        -11    1    1    2    0    0  0.58715869362E+01  0.11464281852E+02  0.17741431824E+02  0.21924043757E+02  0.00000000000E+00 0. -1.
         11    1    1    2    0    0 -0.58715869362E+01 -0.11464281852E+02  0.11220297899E+02  0.17082165450E+02  0.00000000000E+00 0.  1.
<mgrwt>
<rscale>  0 0.26128578E+02</rscale>
<asrwt>0</asrwt>
<pdfrwt beam="2">  1        4 0.77265229E-03 0.26128578E+02</pdfrwt>
<pdfrwt beam="1">  1       -4 0.52283029E-02 0.26128578E+02</pdfrwt>
<totfact> 0.68350598E+05</totfact>
</mgrwt>
</event>
<event>
 4    1  0.2126213E+000  0.2586826E+02  0.7546771E-02  0.1648835E+00
         -3   -1    0    0    0  501 -0.00000000000E+00  0.00000000000E+00  0.26019533492E+01  0.26019533492E+01  0.00000000000E+00 0. -1.
          3   -1    0    0  501    0  0.00000000000E+00 -0.00000000000E+00 -0.64294658918E+02  0.64294658918E+02  0.00000000000E+00 0.  1.
        -13    1    1    2    0    0  0.58037703808E+01  0.10531633494E+02 -0.18527237473E+02  0.22087498344E+02  0.00000000000E+00 0. -1.
         13    1    1    2    0    0 -0.58037703808E+01 -0.10531633494E+02 -0.43165468095E+02  0.44809113923E+02  0.00000000000E+00 0.  1.
<mgrwt>
<rscale>  0 0.25868259E+02</rscale>
<asrwt>0</asrwt>
<pdfrwt beam="2">  1        3 0.98914856E-02 0.25868259E+02</pdfrwt>
<pdfrwt beam="1">  1       -3 0.40030053E-03 0.25868259E+02</pdfrwt>
<totfact> 0.87538116E+05</totfact>
</mgrwt>
</event>
<event>
 4    1  0.2126213E+000  0.4266622E+02  0.7546771E-02  0.1489460E+00
         -2   -1    0    0    0  501 -0.00000000000E+00  0.00000000000E+00  0.33573239432E+02  0.33573239432E+02  0.00000000000E+00 0.  1.
          2   -1    0    0  501    0  0.00000000000E+00 -0.00000000000E+00 -0.13555484658E+02  0.13555484658E+02  0.00000000000E+00 0. -1.
        -11    1    1    2    0    0  0.15636367148E+02  0.12922408216E+02  0.27138145523E+01  0.20465810541E+02  0.00000000000E+00 0. -1.
         11    1    1    2    0    0 -0.15636367148E+02 -0.12922408216E+02  0.17303940222E+02  0.26662913549E+02  0.00000000000E+00 0.  1.
<mgrwt>
<rscale>  0 0.42666218E+02</rscale>
<asrwt>0</asrwt>
<pdfrwt beam="2">  1        2 0.20854592E-02 0.42666218E+02</pdfrwt>
<pdfrwt beam="1">  1       -2 0.51651137E-02 0.42666218E+02</pdfrwt>
<totfact> 0.63284837E+05</totfact>
</mgrwt>
</event>
<event>
 4    1  0.2126213E+000  0.6945582E+02  0.7546771E-02  0.1361953E+00
          4   -1    0    0  501    0  0.00000000000E+00  0.00000000000E+00  0.35980077741E+02  0.35980077741E+02  0.00000000000E+00 0. -1.
         -4   -1    0    0    0  501 -0.00000000000E+00 -0.00000000000E+00 -0.33519319341E+02  0.33519319341E+02  0.00000000000E+00 0.  1.
        -11    1    1    2    0    0  0.12773944254E+02 -0.31751126572E+02 -0.46656878512E+01  0.34540937068E+02  0.00000000000E+00 0. -1.
         11    1    1    2    0    0 -0.12773944254E+02  0.31751126572E+02  0.71264462515E+01  0.34958460014E+02  0.00000000000E+00 0.  1.
<mgrwt>
<rscale>  0 0.69455820E+02</rscale>
<asrwt>0</asrwt>
<pdfrwt beam="1">  1        4 0.55353965E-02 0.69455820E+02</pdfrwt>
<pdfrwt beam="2">  1       -4 0.51568184E-02 0.69455820E+02</pdfrwt>
<totfact> 0.58917451E+04</totfact>
</mgrwt>
</event>
<event>
 4    1  0.2126213E+000  0.2511569E+02  0.7546771E-02  0.1659346E+00
          2   -1    0    0  501    0  0.00000000000E+00  0.00000000000E+00  0.28413430681E+02  0.28413430681E+02  0.00000000000E+00 0.  1.
         -2   -1    0    0    0  501 -0.00000000000E+00 -0.00000000000E+00 -0.55501721439E+01  0.55501721439E+01  0.00000000000E+00 0. -1.
        -11    1    1    2    0    0  0.11919890557E+02 -0.25790440048E+01  0.73828528106E+01  0.14256288946E+02  0.00000000000E+00 0. -1.
         11    1    1    2    0    0 -0.11919890557E+02  0.25790440048E+01  0.15480405726E+02  0.19707313879E+02  0.00000000000E+00 0.  1.
<mgrwt>
<rscale>  0 0.25115687E+02</rscale>
<asrwt>0</asrwt>
<pdfrwt beam="1">  1        2 0.43712970E-02 0.25115687E+02</pdfrwt>
<pdfrwt beam="2">  1       -2 0.85387265E-03 0.25115687E+02</pdfrwt>
<totfact> 0.25590842E+06</totfact>
</mgrwt>
</event>
<event>
 4    1  0.2126213E+000  0.2543233E+02  0.7546771E-02  0.1654869E+00
         -4   -1    0    0    0  501 -0.00000000000E+00  0.00000000000E+00  0.29488691935E+02  0.29488691935E+02  0.00000000000E+00 0.  1.
          4   -1    0    0  501    0  0.00000000000E+00 -0.00000000000E+00 -0.54834852847E+01  0.54834852847E+01  0.00000000000E+00 0. -1.
        -11    1    1    2    0    0 -0.15488335528E+01  0.12605380844E+02  0.12879116038E+02  0.18087734560E+02  0.00000000000E+00 0. -1.
         11    1    1    2    0    0  0.15488335528E+01 -0.12605380844E+02  0.11126090612E+02  0.16884442659E+02  0.00000000000E+00 0.  1.
<mgrwt>
<rscale>  0 0.25432327E+02</rscale>
<asrwt>0</asrwt>
<pdfrwt beam="2">  1        4 0.84361314E-03 0.25432327E+02</pdfrwt>
<pdfrwt beam="1">  1       -4 0.45367217E-02 0.25432327E+02</pdfrwt>
<totfact> 0.73612119E+05</totfact>
</mgrwt>
</event>
<event>
 4    1  0.2126213E+000  0.2386422E+02  0.7546771E-02  0.1677873E+00
         -2   -1    0    0    0  501 -0.00000000000E+00  0.00000000000E+00  0.45581665051E+02  0.45581665051E+02  0.00000000000E+00 0. -1.
          2   -1    0    0  501    0  0.00000000000E+00 -0.00000000000E+00 -0.31235208056E+01  0.31235208056E+01  0.00000000000E+00 0.  1.
        -13    1    1    2    0    0  0.51409226082E+01 -0.96053932931E+01  0.11296934486E+02  0.15694374609E+02  0.00000000000E+00 0.  1.
         13    1    1    2    0    0 -0.51409226082E+01  0.96053932931E+01  0.31161209759E+02  0.33010811248E+02  0.00000000000E+00 0. -1.
<mgrwt>
<rscale>  0 0.23864223E+02</rscale>
<asrwt>0</asrwt>
<pdfrwt beam="2">  1        2 0.48054170E-03 0.23864223E+02</pdfrwt>
<pdfrwt beam="1">  1       -2 0.70125633E-02 0.23864223E+02</pdfrwt>
<totfact> 0.23219199E+06</totfact>
</mgrwt>
</event>
<event>
 4    1  0.2126213E+000  0.2259904E+02  0.7546771E-02  0.1698093E+00
         -2   -1    0    0    0  501 -0.00000000000E+00  0.00000000000E+00  0.35045926042E+01  0.35045926042E+01  0.00000000000E+00 0.  1.
          2   -1    0    0  501    0  0.00000000000E+00 -0.00000000000E+00 -0.36431963171E+02  0.36431963171E+02  0.00000000000E+00 0. -1.
        -11    1    1    2    0    0 -0.81918073990E+01 -0.77403883848E+01 -0.17899204625E+02  0.21151852094E+02  0.00000000000E+00 0.  1.
         11    1    1    2    0    0  0.81918073990E+01  0.77403883848E+01 -0.15028165942E+02  0.18784703681E+02  0.00000000000E+00 0. -1.
<mgrwt>
<rscale>  0 0.22599043E+02</rscale>
<asrwt>0</asrwt>
<pdfrwt beam="2">  1        2 0.56049174E-02 0.22599043E+02</pdfrwt>
<pdfrwt beam="1">  1       -2 0.53916809E-03 0.22599043E+02</pdfrwt>
<totfact> 0.33650813E+06</totfact>
</mgrwt>
</event>
<event>
 4    1  0.2126213E+000  0.1041223E+03  0.7546771E-02  0.1271859E+00
         -2   -1    0    0    0  501 -0.00000000000E+00  0.00000000000E+00  0.14618434283E+02  0.14618434283E+02  0.00000000000E+00 0.  1.
          2   -1    0    0  501    0  0.00000000000E+00 -0.00000000000E+00 -0.18540729795E+03  0.18540729795E+03  0.00000000000E+00 0. -1.
        -11    1    1    2    0    0 -0.19282514189E+02  0.28033545779E+02 -0.96969343519E+01  0.35379734005E+02  0.00000000000E+00 0.  1.
         11    1    1    2    0    0  0.19282514189E+02 -0.28033545779E+02 -0.16109192931E+03  0.16464599823E+03  0.00000000000E+00 0. -1.
<mgrwt>
<rscale>  0 0.10412232E+03</rscale>
<asrwt>0</asrwt>
<pdfrwt beam="2">  1        2 0.28524199E-01 0.10412232E+03</pdfrwt>
<pdfrwt beam="1">  1       -2 0.22489899E-02 0.10412232E+03</pdfrwt>
<totfact> 0.10488198E+05</totfact>
</mgrwt>
</event>
<event>
 4    1  0.2126213E+000  0.3064838E+02  0.7546771E-02  0.1591030E+00
          2   -1    0    0  501    0  0.00000000000E+00  0.00000000000E+00  0.57512031777E+02  0.57512031777E+02  0.00000000000E+00 0.  1.
         -2   -1    0    0    0  501 -0.00000000000E+00 -0.00000000000E+00 -0.40831584590E+01  0.40831584590E+01  0.00000000000E+00 0. -1.
        -11    1    1    2    0    0 -0.20391966995E+01  0.13099162466E+02  0.42162555270E+02  0.44197595493E+02  0.00000000000E+00 0.  1.
         11    1    1    2    0    0  0.20391966995E+01 -0.13099162466E+02  0.11266318048E+02  0.17397594743E+02  0.00000000000E+00 0. -1.
<mgrwt>
<rscale>  0 0.30648376E+02</rscale>
<asrwt>0</asrwt>
<pdfrwt beam="1">  1        2 0.88480043E-02 0.30648376E+02</pdfrwt>
<pdfrwt beam="2">  1       -2 0.62817827E-03 0.30648376E+02</pdfrwt>
<totfact> 0.17696648E+06</totfact>
</mgrwt>
</event>
<event>
 4    1  0.2126213E+000  0.2593409E+02  0.7546771E-02  0.1647937E+00
          2   -1    0    0  501    0  0.00000000000E+00  0.00000000000E+00  0.42084612648E+02  0.42084612648E+02  0.00000000000E+00 0. -1.
         -2   -1    0    0    0  501 -0.00000000000E+00 -0.00000000000E+00 -0.39953842087E+01  0.39953842087E+01  0.00000000000E+00 0.  1.
        -13    1    1    2    0    0  0.72247074661E+01 -0.10701034018E+02  0.16915647936E+02  0.21280217859E+02  0.00000000000E+00 0.  1.
         13    1    1    2    0    0 -0.72247074661E+01  0.10701034018E+02  0.21173580503E+02  0.24799778998E+02  0.00000000000E+00 0. -1.
<mgrwt>
<rscale>  0 0.25934085E+02</rscale>
<asrwt>0</asrwt>
<pdfrwt beam="1">  1        2 0.64745555E-02 0.25934085E+02</pdfrwt>
<pdfrwt beam="2">  1       -2 0.61467452E-03 0.25934085E+02</pdfrwt>
<totfact> 0.24965794E+06</totfact>
</mgrwt>
</event>
<event>
 4    1  0.2126213E+000  0.2359600E+02  0.7546771E-02  0.1682027E+00
          2   -1    0    0  501    0  0.00000000000E+00  0.00000000000E+00  0.52428693451E+02  0.52428693451E+02  0.00000000000E+00 0. -1.
         -2   -1    0    0    0  501 -0.00000000000E+00 -0.00000000000E+00 -0.26548972176E+01  0.26548972176E+01  0.00000000000E+00 0.  1.
        -13    1    1    2    0    0  0.76567392166E+00 -0.10540413941E+02  0.12643576774E+02  0.16478671556E+02  0.00000000000E+00 0.  1.
         13    1    1    2    0    0 -0.76567392166E+00  0.10540413941E+02  0.37130219459E+02  0.38604919112E+02  0.00000000000E+00 0. -1.
<mgrwt>
<rscale>  0 0.23595999E+02</rscale>
<asrwt>0</asrwt>
<pdfrwt beam="1">  1        2 0.80659521E-02 0.23595999E+02</pdfrwt>
<pdfrwt beam="2">  1       -2 0.40844576E-03 0.23595999E+02</pdfrwt>
<totfact> 0.32116942E+06</totfact>
</mgrwt>
</event>
<event>
 4    1  0.2126213E+000  0.2387778E+02  0.7546771E-02  0.1677664E+00
         -2   -1    0    0    0  501 -0.00000000000E+00  0.00000000000E+00  0.22597252840E+01  0.22597252840E+01  0.00000000000E+00 0. -1.
          2   -1    0    0  501    0  0.00000000000E+00 -0.00000000000E+00 -0.63077176102E+02  0.63077176102E+02  0.00000000000E+00 0.  1.
        -13    1    1    2    0    0 -0.28956329998E+01  0.98734380755E+01 -0.13839356990E+02  0.17245210112E+02  0.00000000000E+00 0. -1.
         13    1    1    2    0    0  0.28956329998E+01 -0.98734380755E+01 -0.46978093828E+02  0.48091691275E+02  0.00000000000E+00 0.  1.
<mgrwt>
<rscale>  0 0.23877780E+02</rscale>
<asrwt>0</asrwt>
<pdfrwt beam="2">  1        2 0.97041816E-02 0.23877780E+02</pdfrwt>
<pdfrwt beam="1">  1       -2 0.34765002E-03 0.23877780E+02</pdfrwt>
<totfact> 0.32254129E+06</totfact>
</mgrwt>
</event>
<event>
 4    1  0.2126213E+000  0.3193838E+02  0.7546771E-02  0.1577600E+00
          1   -1    0    0  501    0  0.00000000000E+00  0.00000000000E+00  0.13185228916E+03  0.13185228916E+03  0.00000000000E+00 0. -1.
         -1   -1    0    0    0  501 -0.00000000000E+00 -0.00000000000E+00 -0.19340958550E+01  0.19340958550E+01  0.00000000000E+00 0.  1.
        -13    1    1    2    0    0  0.85077469599E+01 -0.12897359606E+02  0.81866513633E+02  0.83311762060E+02  0.00000000000E+00 0. -1.
         13    1    1    2    0    0 -0.85077469599E+01  0.12897359606E+02  0.48051679676E+02  0.50474622959E+02  0.00000000000E+00 0.  1.
<mgrwt>
<rscale>  0 0.31938376E+02</rscale>
<asrwt>0</asrwt>
<pdfrwt beam="1">  1        1 0.20284960E-01 0.31938376E+02</pdfrwt>
<pdfrwt beam="2">  1       -1 0.29755331E-03 0.31938376E+02</pdfrwt>
<totfact> 0.15710785E+06</totfact>
</mgrwt>
</event>
<event>
 4    1  0.2126213E+000  0.2470037E+02  0.7546771E-02  0.1665343E+00
         -2   -1    0    0    0  501 -0.00000000000E+00  0.00000000000E+00  0.11604850435E+03  0.11604850435E+03  0.00000000000E+00 0.  1.
          2   -1    0    0  501    0  0.00000000000E+00 -0.00000000000E+00 -0.13143394617E+01  0.13143394617E+01  0.00000000000E+00 0. -1.
        -11    1    1    2    0    0 -0.11409615507E+02  0.38272668087E+01  0.70551704702E+02  0.71570736573E+02  0.00000000000E+00 0.  1.
         11    1    1    2    0    0  0.11409615507E+02 -0.38272668087E+01  0.44182460185E+02  0.45792107237E+02  0.00000000000E+00 0. -1.
<mgrwt>
<rscale>  0 0.24700375E+02</rscale>
<asrwt>0</asrwt>
<pdfrwt beam="2">  1        2 0.20220616E-03 0.24700375E+02</pdfrwt>
<pdfrwt beam="1">  1       -2 0.17853608E-01 0.24700375E+02</pdfrwt>
<totfact> 0.17911239E+06</totfact>
</mgrwt>
</event>
<event>
 4    1  0.2126213E+000  0.2019931E+02  0.7546771E-02  0.1741393E+00
          4   -1    0    0  501    0  0.00000000000E+00  0.00000000000E+00  0.42616792193E+01  0.42616792193E+01  0.00000000000E+00 0.  1.
         -4   -1    0    0    0  501 -0.00000000000E+00 -0.00000000000E+00 -0.23934942923E+02  0.23934942923E+02  0.00000000000E+00 0. -1.
        -13    1    1    2    0    0 -0.60662409138E+01  0.80715212616E+01 -0.95113059208E+01  0.13871325626E+02  0.00000000000E+00 0. -1.
         13    1    1    2    0    0  0.60662409138E+01 -0.80715212616E+01 -0.10161957783E+02  0.14325296516E+02  0.00000000000E+00 0.  1.
<mgrwt>
<rscale>  0 0.20199312E+02</rscale>
<asrwt>0</asrwt>
<pdfrwt beam="1">  1        4 0.65564297E-03 0.20199312E+02</pdfrwt>
<pdfrwt beam="2">  1       -4 0.36822989E-02 0.20199312E+02</pdfrwt>
<totfact> 0.12300142E+06</totfact>
</mgrwt>
</event>
<event>
 4    1  0.2126213E+000  0.2233893E+02  0.7546771E-02  0.1702455E+00
         -4   -1    0    0    0  501 -0.00000000000E+00  0.00000000000E+00  0.17684395915E+02  0.17684395915E+02  0.00000000000E+00 0. -1.
          4   -1    0    0  501    0  0.00000000000E+00 -0.00000000000E+00 -0.70546333313E+01  0.70546333313E+01  0.00000000000E+00 0.  1.
        -11    1    1    2    0    0 -0.56672470094E+01 -0.95624578633E+01  0.65273336137E+01  0.12890476064E+02  0.00000000000E+00 0.  1.
         11    1    1    2    0    0  0.56672470094E+01  0.95624578633E+01  0.41024289695E+01  0.11848553182E+02  0.00000000000E+00 0. -1.
<mgrwt>
<rscale>  0 0.22338928E+02</rscale>
<asrwt>0</asrwt>
<pdfrwt beam="2">  1        4 0.10853282E-02 0.22338928E+02</pdfrwt>
<pdfrwt beam="1">  1       -4 0.27206763E-02 0.22338928E+02</pdfrwt>
<totfact> 0.10126077E+06</totfact>
</mgrwt>
</event>
<event>
 4    1  0.2126213E+000  0.4543799E+02  0.7546771E-02  0.1471626E+00
          2   -1    0    0  501    0  0.00000000000E+00  0.00000000000E+00  0.44971328524E+02  0.44971328524E+02  0.00000000000E+00 0. -1.
         -2   -1    0    0    0  501 -0.00000000000E+00 -0.00000000000E+00 -0.11477375237E+02  0.11477375237E+02  0.00000000000E+00 0.  1.
        -11    1    1    2    0    0  0.11506891832E+02 -0.11468736902E+02  0.36476563140E+02  0.39930942191E+02  0.00000000000E+00 0. -1.
         11    1    1    2    0    0 -0.11506891832E+02  0.11468736902E+02 -0.29826098525E+01  0.16517761570E+02  0.00000000000E+00 0.  1.
<mgrwt>
<rscale>  0 0.45437993E+02</rscale>
<asrwt>0</asrwt>
<pdfrwt beam="1">  1        2 0.69186658E-02 0.45437993E+02</pdfrwt>
<pdfrwt beam="2">  1       -2 0.17657501E-02 0.45437993E+02</pdfrwt>
<totfact> 0.64268343E+05</totfact>
</mgrwt>
</event>
<event>
 4    1  0.2126213E+000  0.2103392E+02  0.7546771E-02  0.1725516E+00
         -1   -1    0    0    0  501 -0.00000000000E+00  0.00000000000E+00  0.16386105377E+02  0.16386105377E+02  0.00000000000E+00 0.  1.
          1   -1    0    0  501    0  0.00000000000E+00 -0.00000000000E+00 -0.67500129562E+01  0.67500129562E+01  0.00000000000E+00 0. -1.
        -13    1    1    2    0    0 -0.94337650858E+01  0.45120310458E+01  0.35872514811E+01  0.11055438528E+02  0.00000000000E+00 0. -1.
         13    1    1    2    0    0  0.94337650858E+01 -0.45120310458E+01  0.60488409401E+01  0.12080679806E+02  0.00000000000E+00 0.  1.
<mgrwt>
<rscale>  0 0.21033918E+02</rscale>
<asrwt>0</asrwt>
<pdfrwt beam="2">  1        1 0.10384635E-02 0.21033918E+02</pdfrwt>
<pdfrwt beam="1">  1       -1 0.25209393E-02 0.21033918E+02</pdfrwt>
<totfact> 0.33822179E+06</totfact>
</mgrwt>
</event>
<event>
 4    1  0.2126213E+000  0.2507538E+02  0.7546771E-02  0.1659922E+00
         -2   -1    0    0    0  501 -0.00000000000E+00  0.00000000000E+00  0.36099174901E+01  0.36099174901E+01  0.00000000000E+00 0. -1.
          2   -1    0    0  501    0  0.00000000000E+00 -0.00000000000E+00 -0.43544952030E+02  0.43544952030E+02  0.00000000000E+00 0.  1.
        -13    1    1    2    0    0 -0.69425668918E+01  0.89555500502E+01 -0.30058169484E+02  0.32123117291E+02  0.00000000000E+00 0. -1.
         13    1    1    2    0    0  0.69425668918E+01 -0.89555500502E+01 -0.98768650555E+01  0.15031752229E+02  0.00000000000E+00 0.  1.
<mgrwt>
<rscale>  0 0.25075381E+02</rscale>
<asrwt>0</asrwt>
<pdfrwt beam="2">  1        2 0.66992237E-02 0.25075381E+02</pdfrwt>
<pdfrwt beam="1">  1       -2 0.55537189E-03 0.25075381E+02</pdfrwt>
<totfact> 0.27135406E+06</totfact>
</mgrwt>
</event>
<event>
 4    1  0.2126213E+000  0.4044084E+02  0.7546771E-02  0.1504992E+00
         -2   -1    0    0    0  501 -0.00000000000E+00  0.00000000000E+00  0.26089623822E+02  0.26089623822E+02  0.00000000000E+00 0. -1.
          2   -1    0    0  501    0  0.00000000000E+00 -0.00000000000E+00 -0.15671572376E+02  0.15671572376E+02  0.00000000000E+00 0.  1.
        -13    1    1    2    0    0 -0.39262626275E+01  0.14111753409E+02  0.19603586628E+02  0.24471569856E+02  0.00000000000E+00 0. -1.
         13    1    1    2    0    0  0.39262626275E+01 -0.14111753409E+02 -0.91855351824E+01  0.17289626343E+02  0.00000000000E+00 0.  1.
<mgrwt>
<rscale>  0 0.40440842E+02</rscale>
<asrwt>0</asrwt>
<pdfrwt beam="2">  1        2 0.24110111E-02 0.40440842E+02</pdfrwt>
<pdfrwt beam="1">  1       -2 0.40137883E-02 0.40440842E+02</pdfrwt>
<totfact> 0.74236317E+05</totfact>
</mgrwt>
</event>
<event>
 4    1  0.2126213E+000  0.2133313E+02  0.7546771E-02  0.1720047E+00
         -2   -1    0    0    0  501 -0.00000000000E+00  0.00000000000E+00  0.11464640210E+01  0.11464640210E+01  0.00000000000E+00 0. -1.
          2   -1    0    0  501    0  0.00000000000E+00 -0.00000000000E+00 -0.99240487917E+02  0.99240487917E+02  0.00000000000E+00 0.  1.
        -11    1    1    2    0    0  0.85969129507E+01 -0.62776078367E+01 -0.52239866485E+02  0.53313402844E+02  0.00000000000E+00 0. -1.
         11    1    1    2    0    0 -0.85969129507E+01  0.62776078367E+01 -0.45854157411E+02  0.47073549094E+02  0.00000000000E+00 0.  1.
<mgrwt>
<rscale>  0 0.21333134E+02</rscale>
<asrwt>0</asrwt>
<pdfrwt beam="2">  1        2 0.15267761E-01 0.21333134E+02</pdfrwt>
<pdfrwt beam="1">  1       -2 0.17637916E-03 0.21333134E+02</pdfrwt>
<totfact> 0.45638692E+06</totfact>
</mgrwt>
</event>
<event>
 4    1  0.2126213E+000  0.4479464E+02  0.7546771E-02  0.1475628E+00
          2   -1    0    0  501    0  0.00000000000E+00  0.00000000000E+00  0.12530556427E+02  0.12530556427E+02  0.00000000000E+00 0. -1.
         -2   -1    0    0    0  501 -0.00000000000E+00 -0.00000000000E+00 -0.40033330894E+02  0.40033330894E+02  0.00000000000E+00 0.  1.
        -11    1    1    2    0    0  0.13098180439E+02 -0.91045587757E+01  0.46975832146E+01  0.16628968981E+02  0.00000000000E+00 0. -1.
         11    1    1    2    0    0 -0.13098180439E+02  0.91045587757E+01 -0.32200357682E+02  0.35934918341E+02  0.00000000000E+00 0.  1.
<mgrwt>
<rscale>  0 0.44794639E+02</rscale>
<asrwt>0</asrwt>
<pdfrwt beam="1">  1        2 0.19277779E-02 0.44794639E+02</pdfrwt>
<pdfrwt beam="2">  1       -2 0.61589741E-02 0.44794639E+02</pdfrwt>
<totfact> 0.54959821E+05</totfact>
</mgrwt>
</event>
<event>
 4    1  0.2126213E+000  0.2708690E+02  0.7546771E-02  0.1632718E+00
         -2   -1    0    0    0  501 -0.00000000000E+00  0.00000000000E+00  0.56985075170E+01  0.56985075170E+01  0.00000000000E+00 0.  1.
          2   -1    0    0  501    0  0.00000000000E+00 -0.00000000000E+00 -0.32188257122E+02  0.32188257122E+02  0.00000000000E+00 0. -1.
        -11    1    1    2    0    0 -0.35718039785E+01 -0.96283694110E+01 -0.25594932983E+02  0.27578322567E+02  0.00000000000E+00 0. -1.
         11    1    1    2    0    0  0.35718039785E+01  0.96283694110E+01 -0.89481662198E+00  0.10308442073E+02  0.00000000000E+00 0.  1.
<mgrwt>
<rscale>  0 0.27086899E+02</rscale>
<asrwt>0</asrwt>
<pdfrwt beam="2">  1        2 0.49520395E-02 0.27086899E+02</pdfrwt>
<pdfrwt beam="1">  1       -2 0.87669347E-03 0.27086899E+02</pdfrwt>
<totfact> 0.21749760E+06</totfact>
</mgrwt>
</event>
<event>
 4    1  0.2126213E+000  0.3209273E+02  0.7546771E-02  0.1576045E+00
         -2   -1    0    0    0  501 -0.00000000000E+00  0.00000000000E+00  0.23243315266E+02  0.23243315266E+02  0.00000000000E+00 0. -1.
          2   -1    0    0  501    0  0.00000000000E+00 -0.00000000000E+00 -0.11077847776E+02  0.11077847776E+02  0.00000000000E+00 0.  1.
        -11    1    1    2    0    0 -0.75420352577E+01  0.86282270972E+01 -0.59291598713E+01  0.12902849896E+02  0.00000000000E+00 0.  1.
         11    1    1    2    0    0  0.75420352577E+01 -0.86282270972E+01  0.18094627361E+02  0.21418313145E+02  0.00000000000E+00 0. -1.
<mgrwt>
<rscale>  0 0.32092735E+02</rscale>
<asrwt>0</asrwt>
<pdfrwt beam="2">  1        2 0.17042843E-02 0.32092735E+02</pdfrwt>
<pdfrwt beam="1">  1       -2 0.35758946E-02 0.32092735E+02</pdfrwt>
<totfact> 0.12829731E+06</totfact>
</mgrwt>
</event>
<event>
 4    1  0.2126213E+000  0.4880714E+02  0.7546771E-02  0.1451884E+00
          2   -1    0    0  501    0  0.00000000000E+00  0.00000000000E+00  0.19183963594E+03  0.19183963594E+03  0.00000000000E+00 0. -1.
         -2   -1    0    0    0  501 -0.00000000000E+00 -0.00000000000E+00 -0.31043331100E+01  0.31043331100E+01  0.00000000000E+00 0.  1.
        -13    1    1    2    0    0  0.24233379890E+02  0.23317587380E+01  0.87636161779E+02  0.90954882503E+02  0.00000000000E+00 0. -1.
         13    1    1    2    0    0 -0.24233379890E+02 -0.23317587380E+01  0.10109914105E+03  0.10398908655E+03  0.00000000000E+00 0.  1.
<mgrwt>
<rscale>  0 0.48807136E+02</rscale>
<asrwt>0</asrwt>
<pdfrwt beam="1">  1        2 0.29513781E-01 0.48807136E+02</pdfrwt>
<pdfrwt beam="2">  1       -2 0.47758986E-03 0.48807136E+02</pdfrwt>
<totfact> 0.77130523E+05</totfact>
</mgrwt>
</event>
<event>
 4    1  0.2126213E+000  0.2063967E+03  0.7546771E-02  0.1144452E+00
          2   -1    0    0  501    0  0.00000000000E+00  0.00000000000E+00  0.15551700321E+03  0.15551700321E+03  0.00000000000E+00 0.  1.
         -2   -1    0    0    0  501 -0.00000000000E+00 -0.00000000000E+00 -0.68480591632E+02  0.68480591632E+02  0.00000000000E+00 0. -1.
        -13    1    1    2    0    0 -0.76243105605E+02 -0.67452194467E+02  0.25129667713E+02  0.10485375477E+03  0.00000000000E+00 0. -1.
         13    1    1    2    0    0  0.76243105605E+02  0.67452194467E+02  0.61906743866E+02  0.11914384007E+03  0.00000000000E+00 0.  1.
<mgrwt>
<rscale>  0 0.20639667E+03</rscale>
<asrwt>0</asrwt>
<pdfrwt beam="1">  1        2 0.23925693E-01 0.20639667E+03</pdfrwt>
<pdfrwt beam="2">  1       -2 0.10535476E-01 0.20639667E+03</pdfrwt>
<totfact> 0.13368390E+04</totfact>
</mgrwt>
</event>
<event>
 4    1  0.2126213E+000  0.2517531E+02  0.7546771E-02  0.1658497E+00
          4   -1    0    0  501    0  0.00000000000E+00  0.00000000000E+00  0.72740894736E+01  0.72740894736E+01  0.00000000000E+00 0. -1.
         -4   -1    0    0    0  501 -0.00000000000E+00 -0.00000000000E+00 -0.21782663527E+02  0.21782663527E+02  0.00000000000E+00 0.  1.
        -13    1    1    2    0    0  0.52853236285E+01  0.90972450180E+01 -0.15230184558E+02  0.18510889618E+02  0.00000000000E+00 0.  1.
         13    1    1    2    0    0 -0.52853236285E+01 -0.90972450180E+01  0.72161050409E+00  0.10545863383E+02  0.00000000000E+00 0. -1.
<mgrwt>
<rscale>  0 0.25175309E+02</rscale>
<asrwt>0</asrwt>
<pdfrwt beam="1">  1        4 0.11190907E-02 0.25175309E+02</pdfrwt>
<pdfrwt beam="2">  1       -4 0.33511790E-02 0.25175309E+02</pdfrwt>
<totfact> 0.77029999E+05</totfact>
</mgrwt>
</event>
<event>
 4    1  0.2126213E+000  0.7307619E+02  0.7546771E-02  0.1349934E+00
         -1   -1    0    0    0  501 -0.00000000000E+00  0.00000000000E+00  0.58098653982E+02  0.58098653982E+02  0.00000000000E+00 0.  1.
          1   -1    0    0  501    0  0.00000000000E+00 -0.00000000000E+00 -0.22978715091E+02  0.22978715091E+02  0.00000000000E+00 0. -1.
        -13    1    1    2    0    0  0.14413858401E+02  0.25385813634E+02 -0.68194003382E+01  0.29978376688E+02  0.00000000000E+00 0. -1.
         13    1    1    2    0    0 -0.14413858401E+02 -0.25385813634E+02  0.41939339229E+02  0.51098992386E+02  0.00000000000E+00 0.  1.
<mgrwt>
<rscale>  0 0.73076191E+02</rscale>
<asrwt>0</asrwt>
<pdfrwt beam="2">  1        1 0.35351870E-02 0.73076191E+02</pdfrwt>
<pdfrwt beam="1">  1       -1 0.89382544E-02 0.73076191E+02</pdfrwt>
<totfact> 0.15590929E+05</totfact>
</mgrwt>
</event>
<event>
 4    1  0.2126213E+000  0.3682671E+02  0.7546771E-02  0.1532952E+00
          2   -1    0    0  501    0  0.00000000000E+00  0.00000000000E+00  0.40143898939E+01  0.40143898939E+01  0.00000000000E+00 0.  1.
         -2   -1    0    0    0  501 -0.00000000000E+00 -0.00000000000E+00 -0.84459081329E+02  0.84459081329E+02  0.00000000000E+00 0. -1.
        -11    1    1    2    0    0  0.11862976806E+02 -0.27110385375E+01 -0.70226070643E+01  0.14049802797E+02  0.00000000000E+00 0.  1.
         11    1    1    2    0    0 -0.11862976806E+02  0.27110385375E+01 -0.73422084371E+02  0.74423668426E+02  0.00000000000E+00 0. -1.
<mgrwt>
<rscale>  0 0.36826712E+02</rscale>
<asrwt>0</asrwt>
<pdfrwt beam="1">  1        2 0.61759838E-03 0.36826712E+02</pdfrwt>
<pdfrwt beam="2">  1       -2 0.12993706E-01 0.36826712E+02</pdfrwt>
<totfact> 0.76651568E+05</totfact>
</mgrwt>
</event>
<event>
 4    1  0.2126213E+000  0.2235699E+02  0.7546771E-02  0.1702150E+00
          3   -1    0    0  501    0  0.00000000000E+00  0.00000000000E+00  0.10614122250E+01  0.10614122250E+01  0.00000000000E+00 0.  1.
         -3   -1    0    0    0  501 -0.00000000000E+00 -0.00000000000E+00 -0.11772881378E+03  0.11772881378E+03  0.00000000000E+00 0. -1.
        -13    1    1    2    0    0  0.10386489926E+02  0.41054580738E+01 -0.55814242507E+02  0.56920678366E+02  0.00000000000E+00 0.  1.
         13    1    1    2    0    0 -0.10386489926E+02 -0.41054580738E+01 -0.60853159051E+02  0.61869547642E+02  0.00000000000E+00 0. -1.
<mgrwt>
<rscale>  0 0.22356995E+02</rscale>
<asrwt>0</asrwt>
<pdfrwt beam="1">  1        3 0.16329418E-03 0.22356995E+02</pdfrwt>
<pdfrwt beam="2">  1       -3 0.18112126E-01 0.22356995E+02</pdfrwt>
<totfact> 0.10646127E+06</totfact>
</mgrwt>
</event>
<event>
 4    1  0.2126213E+000  0.2086956E+02  0.7546771E-02  0.1728569E+00
         -2   -1    0    0    0  501 -0.00000000000E+00  0.00000000000E+00  0.62134141033E+02  0.62134141033E+02  0.00000000000E+00 0. -1.
          2   -1    0    0  501    0  0.00000000000E+00 -0.00000000000E+00 -0.17524119711E+01  0.17524119711E+01  0.00000000000E+00 0.  1.
        -13    1    1    2    0    0  0.10049205639E+02 -0.13610895455E+01  0.22664022256E+02  0.24829357695E+02  0.00000000000E+00 0.  1.
         13    1    1    2    0    0 -0.10049205639E+02  0.13610895455E+01  0.37717706805E+02  0.39057195309E+02  0.00000000000E+00 0. -1.
<mgrwt>
<rscale>  0 0.20869558E+02</rscale>
<asrwt>0</asrwt>
<pdfrwt beam="2">  1        2 0.26960189E-03 0.20869558E+02</pdfrwt>
<pdfrwt beam="1">  1       -2 0.95590969E-02 0.20869558E+02</pdfrwt>
<totfact> 0.29847123E+06</totfact>
</mgrwt>
</event>
<event>
 4    1  0.2126213E+000  0.2868303E+02  0.7546771E-02  0.1613119E+00
          2   -1    0    0  501    0  0.00000000000E+00  0.00000000000E+00  0.20259382758E+01  0.20259382758E+01  0.00000000000E+00 0. -1.
         -2   -1    0    0    0  501 -0.00000000000E+00 -0.00000000000E+00 -0.10152287043E+03  0.10152287043E+03  0.00000000000E+00 0.  1.
        -13    1    1    2    0    0  0.13527785998E+02  0.47371826512E+01 -0.51506612580E+02  0.53463754385E+02  0.00000000000E+00 0. -1.
         13    1    1    2    0    0 -0.13527785998E+02 -0.47371826512E+01 -0.47990319570E+02  0.50085054317E+02  0.00000000000E+00 0.  1.
<mgrwt>
<rscale>  0 0.28683031E+02</rscale>
<asrwt>0</asrwt>
<pdfrwt beam="1">  1        2 0.31168286E-03 0.28683031E+02</pdfrwt>
<pdfrwt beam="2">  1       -2 0.15618901E-01 0.28683031E+02</pdfrwt>
<totfact> 0.13183962E+06</totfact>
</mgrwt>
</event>
<event>
 4    1  0.2126213E+000  0.2898157E+02  0.7546771E-02  0.1609627E+00
          2   -1    0    0  501    0  0.00000000000E+00  0.00000000000E+00  0.72743756156E+02  0.72743756156E+02  0.00000000000E+00 0.  1.
         -2   -1    0    0    0  501 -0.00000000000E+00 -0.00000000000E+00 -0.28866097383E+01  0.28866097383E+01  0.00000000000E+00 0. -1.
        -11    1    1    2    0    0  0.17043166071E+01 -0.13026579048E+02  0.50884829579E+02  0.52553423657E+02  0.00000000000E+00 0.  1.
         11    1    1    2    0    0 -0.17043166071E+01  0.13026579048E+02  0.18972316839E+02  0.23076942237E+02  0.00000000000E+00 0. -1.
<mgrwt>
<rscale>  0 0.28981569E+02</rscale>
<asrwt>0</asrwt>
<pdfrwt beam="1">  1        2 0.11191346E-01 0.28981569E+02</pdfrwt>
<pdfrwt beam="2">  1       -2 0.44409386E-03 0.28981569E+02</pdfrwt>
<totfact> 0.21128740E+06</totfact>
</mgrwt>
</event>
<event>
 4    1  0.2126213E+000  0.3155791E+02  0.7546771E-02  0.1581480E+00
          2   -1    0    0  501    0  0.00000000000E+00  0.00000000000E+00  0.14638232199E+02  0.14638232199E+02  0.00000000000E+00 0. -1.
         -2   -1    0    0    0  501 -0.00000000000E+00 -0.00000000000E+00 -0.17008575506E+02  0.17008575506E+02  0.00000000000E+00 0.  1.
        -13    1    1    2    0    0  0.85971032365E+01  0.13104579551E+02  0.64624989331E+00  0.15686230528E+02  0.00000000000E+00 0.  1.
         13    1    1    2    0    0 -0.85971032365E+01 -0.13104579551E+02 -0.30165931997E+01  0.15960577176E+02  0.00000000000E+00 0. -1.
<mgrwt>
<rscale>  0 0.31557914E+02</rscale>
<asrwt>0</asrwt>
<pdfrwt beam="1">  1        2 0.22520357E-02 0.31557914E+02</pdfrwt>
<pdfrwt beam="2">  1       -2 0.26167039E-02 0.31557914E+02</pdfrwt>
<totfact> 0.13787087E+06</totfact>
</mgrwt>
</event>
<event>
 4    1  0.2126213E+000  0.2101676E+02  0.7546771E-02  0.1725833E+00
         -2   -1    0    0    0  501 -0.00000000000E+00  0.00000000000E+00  0.94775216837E+01  0.94775216837E+01  0.00000000000E+00 0. -1.
          2   -1    0    0  501    0  0.00000000000E+00 -0.00000000000E+00 -0.11651364393E+02  0.11651364393E+02  0.00000000000E+00 0.  1.
        -11    1    1    2    0    0 -0.46466242895E-01 -0.10436407202E+02  0.14653267224E+00  0.10437539280E+02  0.00000000000E+00 0.  1.
         11    1    1    2    0    0  0.46466242895E-01  0.10436407202E+02 -0.23203753812E+01  0.10691346796E+02  0.00000000000E+00 0. -1.
<mgrwt>
<rscale>  0 0.21016761E+02</rscale>
<asrwt>0</asrwt>
<pdfrwt beam="2">  1        2 0.17925176E-02 0.21016761E+02</pdfrwt>
<pdfrwt beam="1">  1       -2 0.14580803E-02 0.21016761E+02</pdfrwt>
<totfact> 0.35625195E+06</totfact>
</mgrwt>
</event>
<event>
 4    1  0.2126213E+000  0.2364601E+02  0.7546771E-02  0.1681248E+00
          2   -1    0    0  501    0  0.00000000000E+00  0.00000000000E+00  0.93236586019E+02  0.93236586019E+02  0.00000000000E+00 0. -1.
         -2   -1    0    0    0  501 -0.00000000000E+00 -0.00000000000E+00 -0.14992333291E+01  0.14992333291E+01  0.00000000000E+00 0.  1.
        -13    1    1    2    0    0 -0.10609917815E+02  0.32293251926E+01  0.62282532715E+02  0.63262253980E+02  0.00000000000E+00 0. -1.
         13    1    1    2    0    0  0.10609917815E+02 -0.32293251926E+01  0.29454819975E+02  0.31473565369E+02  0.00000000000E+00 0.  1.
<mgrwt>
<rscale>  0 0.23646006E+02</rscale>
<asrwt>0</asrwt>
<pdfrwt beam="1">  1        2 0.14344086E-01 0.23646006E+02</pdfrwt>
<pdfrwt beam="2">  1       -2 0.23065135E-03 0.23646006E+02</pdfrwt>
<totfact> 0.35684604E+06</totfact>
</mgrwt>
</event>
<event>
 4    1  0.2126213E+000  0.3024015E+02  0.7546771E-02  0.1595449E+00
          2   -1    0    0  501    0  0.00000000000E+00  0.00000000000E+00  0.37717617694E+02  0.37717617694E+02  0.00000000000E+00 0. -1.
         -2   -1    0    0    0  501 -0.00000000000E+00 -0.00000000000E+00 -0.60612708465E+01  0.60612708465E+01  0.00000000000E+00 0.  1.
        -13    1    1    2    0    0  0.43317958578E+01  0.13773007117E+02  0.22327801391E+02  0.26589300392E+02  0.00000000000E+00 0. -1.
         13    1    1    2    0    0 -0.43317958578E+01 -0.13773007117E+02  0.93285454572E+01  0.17189588149E+02  0.00000000000E+00 0.  1.
<mgrwt>
<rscale>  0 0.30240152E+02</rscale>
<asrwt>0</asrwt>
<pdfrwt beam="1">  1        2 0.58027102E-02 0.30240152E+02</pdfrwt>
<pdfrwt beam="2">  1       -2 0.93250324E-03 0.30240152E+02</pdfrwt>
<totfact> 0.17093398E+06</totfact>
</mgrwt>
</event>
<event>
 4    1  0.2126213E+000  0.3510929E+02  0.7546771E-02  0.1547632E+00
          2   -1    0    0  501    0  0.00000000000E+00  0.00000000000E+00  0.15376375929E+03  0.15376375929E+03  0.00000000000E+00 0.  1.
         -2   -1    0    0    0  501 -0.00000000000E+00 -0.00000000000E+00 -0.20041493689E+01  0.20041493689E+01  0.00000000000E+00 0. -1.
        -11    1    1    2    0    0  0.21399344181E+00 -0.17091233234E+02  0.93631701813E+02  0.95179050379E+02  0.00000000000E+00 0. -1.
         11    1    1    2    0    0 -0.21399344181E+00  0.17091233234E+02  0.58127908110E+02  0.60588858282E+02  0.00000000000E+00 0.  1.
<mgrwt>
<rscale>  0 0.35109289E+02</rscale>
<asrwt>0</asrwt>
<pdfrwt beam="1">  1        2 0.23655954E-01 0.35109289E+02</pdfrwt>
<pdfrwt beam="2">  1       -2 0.30833079E-03 0.35109289E+02</pdfrwt>
<totfact> 0.16130910E+06</totfact>
</mgrwt>
</event>
<event>
 4    1  0.2126213E+000  0.4116884E+02  0.7546771E-02  0.1499782E+00
          2   -1    0    0  501    0  0.00000000000E+00  0.00000000000E+00  0.26855727123E+02  0.26855727123E+02  0.00000000000E+00 0.  1.
         -2   -1    0    0    0  501 -0.00000000000E+00 -0.00000000000E+00 -0.15777576861E+02  0.15777576861E+02  0.00000000000E+00 0. -1.
        -13    1    1    2    0    0 -0.17665425617E+02 -0.30182624851E+01  0.16025547835E+02  0.24041533938E+02  0.00000000000E+00 0.  1.
         13    1    1    2    0    0  0.17665425617E+02  0.30182624851E+01 -0.49473975740E+01  0.18591770046E+02  0.00000000000E+00 0. -1.
<mgrwt>
<rscale>  0 0.41168838E+02</rscale>
<asrwt>0</asrwt>
<pdfrwt beam="1">  1        2 0.41316503E-02 0.41168838E+02</pdfrwt>
<pdfrwt beam="2">  1       -2 0.24273195E-02 0.41168838E+02</pdfrwt>
<totfact> 0.76217135E+05</totfact>
</mgrwt>
</event>
<event>
 4    1  0.2126213E+000  0.3160378E+02  0.7546771E-02  0.1581009E+00
          4   -1    0    0  501    0  0.00000000000E+00  0.00000000000E+00  0.39070715633E+02  0.39070715633E+02  0.00000000000E+00 0. -1.
         -4   -1    0    0    0  501 -0.00000000000E+00 -0.00000000000E+00 -0.63909679911E+01  0.63909679911E+01  0.00000000000E+00 0.  1.
        -13    1    1    2    0    0 -0.48685987054E+01 -0.11286568176E+02  0.20553227843E+01  0.12462512841E+02  0.00000000000E+00 0.  1.
         13    1    1    2    0    0  0.48685987054E+01  0.11286568176E+02  0.30624424858E+02  0.32999170784E+02  0.00000000000E+00 0. -1.
<mgrwt>
<rscale>  0 0.31603778E+02</rscale>
<asrwt>0</asrwt>
<pdfrwt beam="1">  1        4 0.60108792E-02 0.31603778E+02</pdfrwt>
<pdfrwt beam="2">  1       -4 0.98322587E-03 0.31603778E+02</pdfrwt>
<totfact> 0.43688844E+05</totfact>
</mgrwt>
</event>
<event>
 4    1  0.2126213E+000  0.2824331E+02  0.7546771E-02  0.1618360E+00
          2   -1    0    0  501    0  0.00000000000E+00  0.00000000000E+00  0.49234694467E+01  0.49234694467E+01  0.00000000000E+00 0. -1.
         -2   -1    0    0    0  501 -0.00000000000E+00 -0.00000000000E+00 -0.40504180542E+02  0.40504180542E+02  0.00000000000E+00 0.  1.
        -11    1    1    2    0    0  0.10916687288E+02  0.21998612557E+00 -0.33861858656E+01  0.11431916286E+02  0.00000000000E+00 0. -1.
         11    1    1    2    0    0 -0.10916687288E+02 -0.21998612557E+00 -0.32194525230E+02  0.33995733703E+02  0.00000000000E+00 0.  1.
<mgrwt>
<rscale>  0 0.28243307E+02</rscale>
<asrwt>0</asrwt>
<pdfrwt beam="1">  1        2 0.75745687E-03 0.28243307E+02</pdfrwt>
<pdfrwt beam="2">  1       -2 0.62314122E-02 0.28243307E+02</pdfrwt>
<totfact> 0.16102453E+06</totfact>
</mgrwt>
</event>
<event>
 4    1  0.2126213E+000  0.3938608E+02  0.7546771E-02  0.1512778E+00
         -2   -1    0    0    0  501 -0.00000000000E+00  0.00000000000E+00  0.33022979937E+01  0.33022979937E+01  0.00000000000E+00 0.  1.
          2   -1    0    0  501    0  0.00000000000E+00 -0.00000000000E+00 -0.11743816026E+03  0.11743816026E+03  0.00000000000E+00 0. -1.
        -11    1    1    2    0    0 -0.81521191476E+01 -0.17008170008E+02 -0.74431276193E+02  0.76783785849E+02  0.00000000000E+00 0. -1.
         11    1    1    2    0    0  0.81521191476E+01  0.17008170008E+02 -0.39704586072E+02  0.43956672403E+02  0.00000000000E+00 0.  1.
<mgrwt>
<rscale>  0 0.39386079E+02</rscale>
<asrwt>0</asrwt>
<pdfrwt beam="2">  1        2 0.18067409E-01 0.39386079E+02</pdfrwt>
<pdfrwt beam="1">  1       -2 0.50804586E-03 0.39386079E+02</pdfrwt>
<totfact> 0.11314525E+06</totfact>
</mgrwt>
</event>
<event>
 4    1  0.2126213E+000  0.3562413E+02  0.7546771E-02  0.1543127E+00
          3   -1    0    0  501    0  0.00000000000E+00  0.00000000000E+00  0.17745616486E+02  0.17745616486E+02  0.00000000000E+00 0.  1.
         -3   -1    0    0    0  501 -0.00000000000E+00 -0.00000000000E+00 -0.17878762017E+02  0.17878762017E+02  0.00000000000E+00 0. -1.
        -13    1    1    2    0    0 -0.97573985018E+01  0.86399211486E+01  0.12074953097E+02  0.17766810498E+02  0.00000000000E+00 0.  1.
         13    1    1    2    0    0  0.97573985018E+01 -0.86399211486E+01 -0.12208098627E+02  0.17857568005E+02  0.00000000000E+00 0. -1.
<mgrwt>
<rscale>  0 0.35624130E+02</rscale>
<asrwt>0</asrwt>
<pdfrwt beam="1">  1        3 0.27300949E-02 0.35624130E+02</pdfrwt>
<pdfrwt beam="2">  1       -3 0.27505788E-02 0.35624130E+02</pdfrwt>
<totfact> 0.45426694E+05</totfact>
</mgrwt>
</event>
<event>
 4    1  0.2126213E+000  0.3155075E+02  0.7546771E-02  0.1581554E+00
         -1   -1    0    0    0  501 -0.00000000000E+00  0.00000000000E+00  0.56394283393E+02  0.56394283393E+02  0.00000000000E+00 0. -1.
          1   -1    0    0  501    0  0.00000000000E+00 -0.00000000000E+00 -0.44129023949E+01  0.44129023949E+01  0.00000000000E+00 0.  1.
        -13    1    1    2    0    0 -0.27145129541E+00 -0.10643004218E+02  0.48426372807E+02  0.49582868088E+02  0.00000000000E+00 0. -1.
         13    1    1    2    0    0  0.27145129541E+00  0.10643004218E+02  0.35550081909E+01  0.11224317700E+02  0.00000000000E+00 0.  1.
<mgrwt>
<rscale>  0 0.31550751E+02</rscale>
<asrwt>0</asrwt>
<pdfrwt beam="2">  1        1 0.67890810E-03 0.31550751E+02</pdfrwt>
<pdfrwt beam="1">  1       -1 0.86760431E-02 0.31550751E+02</pdfrwt>
<totfact> 0.12215834E+06</totfact>
</mgrwt>
</event>
<event>
 4    1  0.2126213E+000  0.8957660E+02  0.7546771E-02  0.1303880E+00
         -1   -1    0    0    0  501 -0.00000000000E+00  0.00000000000E+00  0.99625575842E+02  0.99625575842E+02  0.00000000000E+00 0.  1.
          1   -1    0    0  501    0  0.00000000000E+00 -0.00000000000E+00 -0.20135307986E+02  0.20135307986E+02  0.00000000000E+00 0. -1.
        -13    1    1    2    0    0  0.16588160720E+01  0.16760984459E+02  0.95230188773E+02  0.96708175066E+02  0.00000000000E+00 0.  1.
         13    1    1    2    0    0 -0.16588160720E+01 -0.16760984459E+02 -0.15739920917E+02  0.23052708762E+02  0.00000000000E+00 0. -1.
<mgrwt>
<rscale>  0 0.89576596E+02</rscale>
<asrwt>0</asrwt>
<pdfrwt beam="2">  1        1 0.30977397E-02 0.89576596E+02</pdfrwt>
<pdfrwt beam="1">  1       -1 0.15327011E-01 0.89576596E+02</pdfrwt>
<totfact> 0.85221450E+04</totfact>
</mgrwt>
</event>
<event>
 4    1  0.2126213E+000  0.2911755E+02  0.7546771E-02  0.1608053E+00
         -4   -1    0    0    0  501 -0.00000000000E+00  0.00000000000E+00  0.80869401917E+01  0.80869401917E+01  0.00000000000E+00 0. -1.
          4   -1    0    0  501    0  0.00000000000E+00 -0.00000000000E+00 -0.26209912923E+02  0.26209912923E+02  0.00000000000E+00 0.  1.
        -13    1    1    2    0    0 -0.19691721302E+01  0.13083491625E+02 -0.16216787120E+02  0.20929395034E+02  0.00000000000E+00 0.  1.
         13    1    1    2    0    0  0.19691721302E+01 -0.13083491625E+02 -0.19061856113E+01  0.13367458081E+02  0.00000000000E+00 0. -1.
<mgrwt>
<rscale>  0 0.29117555E+02</rscale>
<asrwt>0</asrwt>
<pdfrwt beam="2">  1        4 0.40322944E-02 0.29117555E+02</pdfrwt>
<pdfrwt beam="1">  1       -4 0.12441446E-02 0.29117555E+02</pdfrwt>
<totfact> 0.54749879E+05</totfact>
</mgrwt>
</event>
<event>
 4    1  0.2126213E+000  0.3831327E+02  0.7546771E-02  0.1521004E+00
          4   -1    0    0  501    0  0.00000000000E+00  0.00000000000E+00  0.93843324919E+01  0.93843324919E+01  0.00000000000E+00 0.  1.
         -4   -1    0    0    0  501 -0.00000000000E+00 -0.00000000000E+00 -0.39105239831E+02  0.39105239831E+02  0.00000000000E+00 0. -1.
        -11    1    1    2    0    0  0.98077745855E+00  0.11886914485E+02  0.41116767282E+01  0.12616122460E+02  0.00000000000E+00 0. -1.
         11    1    1    2    0    0 -0.98077745855E+00 -0.11886914485E+02 -0.33832584068E+02  0.35873449863E+02  0.00000000000E+00 0.  1.
<mgrwt>
<rscale>  0 0.38313265E+02</rscale>
<asrwt>0</asrwt>
<pdfrwt beam="1">  1        4 0.14437434E-02 0.38313265E+02</pdfrwt>
<pdfrwt beam="2">  1       -4 0.60161908E-02 0.38313265E+02</pdfrwt>
<totfact> 0.27650097E+05</totfact>
</mgrwt>
</event>
<event>
 4    1  0.2126213E+000  0.5075353E+02  0.7546771E-02  0.1441319E+00
         -2   -1    0    0    0  501 -0.00000000000E+00  0.00000000000E+00  0.54317202011E+02  0.54317202011E+02  0.00000000000E+00 0.  1.
          2   -1    0    0  501    0  0.00000000000E+00 -0.00000000000E+00 -0.11855917827E+02  0.11855917827E+02  0.00000000000E+00 0. -1.
        -11    1    1    2    0    0  0.75551745663E+01 -0.10723102342E+02 -0.70928684639E+01  0.14912222156E+02  0.00000000000E+00 0. -1.
         11    1    1    2    0    0 -0.75551745663E+01  0.10723102342E+02  0.49554152648E+02  0.51260897683E+02  0.00000000000E+00 0.  1.
<mgrwt>
<rscale>  0 0.50753533E+02</rscale>
<asrwt>0</asrwt>
<pdfrwt beam="2">  1        2 0.18239874E-02 0.50753533E+02</pdfrwt>
<pdfrwt beam="1">  1       -2 0.83564925E-02 0.50753533E+02</pdfrwt>
<totfact> 0.38755572E+05</totfact>
</mgrwt>
</event>
<event>
 4    1  0.2126213E+000  0.2795335E+02  0.7546771E-02  0.1621880E+00
          2   -1    0    0  501    0  0.00000000000E+00  0.00000000000E+00  0.51686948797E+01  0.51686948797E+01  0.00000000000E+00 0. -1.
         -2   -1    0    0    0  501 -0.00000000000E+00 -0.00000000000E+00 -0.37794341098E+02  0.37794341098E+02  0.00000000000E+00 0.  1.
        -13    1    1    2    0    0  0.10726900269E+02 -0.63821301730E+01 -0.66471675914E+01  0.14141527920E+02  0.00000000000E+00 0. -1.
         13    1    1    2    0    0 -0.10726900269E+02  0.63821301730E+01 -0.25978478627E+02  0.28821508057E+02  0.00000000000E+00 0.  1.
<mgrwt>
<rscale>  0 0.27953348E+02</rscale>
<asrwt>0</asrwt>
<pdfrwt beam="1">  1        2 0.79518383E-03 0.27953348E+02</pdfrwt>
<pdfrwt beam="2">  1       -2 0.58145140E-02 0.27953348E+02</pdfrwt>
<totfact> 0.16632595E+06</totfact>
</mgrwt>
</event>
<event>
 4    1  0.2126213E+000  0.2288447E+02  0.7546771E-02  0.1693390E+00
         -2   -1    0    0    0  501 -0.00000000000E+00  0.00000000000E+00  0.53279643896E+02  0.53279643896E+02  0.00000000000E+00 0. -1.
          2   -1    0    0  501    0  0.00000000000E+00 -0.00000000000E+00 -0.24573134225E+01  0.24573134225E+01  0.00000000000E+00 0.  1.
        -11    1    1    2    0    0  0.10278811900E+02  0.23820225740E+01  0.36193049597E+02  0.37699666375E+02  0.00000000000E+00 0.  1.
         11    1    1    2    0    0 -0.10278811900E+02 -0.23820225740E+01  0.14629280876E+02  0.18037290943E+02  0.00000000000E+00 0. -1.
<mgrwt>
<rscale>  0 0.22884474E+02</rscale>
<asrwt>0</asrwt>
<pdfrwt beam="2">  1        2 0.37804826E-03 0.22884474E+02</pdfrwt>
<pdfrwt beam="1">  1       -2 0.81968674E-02 0.22884474E+02</pdfrwt>
<totfact> 0.24936662E+06</totfact>
</mgrwt>
</event>
<event>
 4    1  0.2126213E+000  0.2228614E+02  0.7546771E-02  0.1703350E+00
         -2   -1    0    0    0  501 -0.00000000000E+00  0.00000000000E+00  0.27331012936E+01  0.27331012936E+01  0.00000000000E+00 0.  1.
          2   -1    0    0  501    0  0.00000000000E+00 -0.00000000000E+00 -0.45431193876E+02  0.45431193876E+02  0.00000000000E+00 0. -1.
        -11    1    1    2    0    0 -0.99004694855E+01 -0.44508236138E+01 -0.26790290026E+02  0.28905860418E+02  0.00000000000E+00 0. -1.
         11    1    1    2    0    0  0.99004694855E+01  0.44508236138E+01 -0.15907802557E+02  0.19258434751E+02  0.00000000000E+00 0.  1.
<mgrwt>
<rscale>  0 0.22286144E+02</rscale>
<asrwt>0</asrwt>
<pdfrwt beam="2">  1        2 0.69894142E-02 0.22286144E+02</pdfrwt>
<pdfrwt beam="1">  1       -2 0.42047714E-03 0.22286144E+02</pdfrwt>
<totfact> 0.35796265E+06</totfact>
</mgrwt>
</event>
<event>
 4    1  0.2126213E+000  0.5657784E+02  0.7546771E-02  0.1412781E+00
         -2   -1    0    0    0  501 -0.00000000000E+00  0.00000000000E+00  0.14714610661E+02  0.14714610661E+02  0.00000000000E+00 0. -1.
          2   -1    0    0  501    0  0.00000000000E+00 -0.00000000000E+00 -0.54385600001E+02  0.54385600001E+02  0.00000000000E+00 0.  1.
        -13    1    1    2    0    0 -0.23911259327E+02  0.84826853233E+01 -0.35117191130E+02  0.43323450760E+02  0.00000000000E+00 0.  1.
         13    1    1    2    0    0  0.23911259327E+02 -0.84826853233E+01 -0.45537982104E+01  0.25776759902E+02  0.00000000000E+00 0. -1.
<mgrwt>
<rscale>  0 0.56577838E+02</rscale>
<asrwt>0</asrwt>
<pdfrwt beam="2">  1        2 0.83670154E-02 0.56577838E+02</pdfrwt>
<pdfrwt beam="1">  1       -2 0.22637862E-02 0.56577838E+02</pdfrwt>
<totfact> 0.37847095E+05</totfact>
</mgrwt>
</event>
<event>
 4    1  0.2126213E+000  0.2478788E+02  0.7546771E-02  0.1664067E+00
         -3   -1    0    0    0  501 -0.00000000000E+00  0.00000000000E+00  0.31158013513E+01  0.31158013513E+01  0.00000000000E+00 0.  1.
          3   -1    0    0  501    0  0.00000000000E+00 -0.00000000000E+00 -0.49300231081E+02  0.49300231081E+02  0.00000000000E+00 0. -1.
        -11    1    1    2    0    0  0.57285177811E+01 -0.96239228523E+01 -0.11868195016E+02  0.16318390238E+02  0.00000000000E+00 0.  1.
         11    1    1    2    0    0 -0.57285177811E+01  0.96239228523E+01 -0.34316234714E+02  0.36097642194E+02  0.00000000000E+00 0. -1.
<mgrwt>
<rscale>  0 0.24787878E+02</rscale>
<asrwt>0</asrwt>
<pdfrwt beam="2">  1        3 0.75846499E-02 0.24787878E+02</pdfrwt>
<pdfrwt beam="1">  1       -3 0.47935412E-03 0.24787878E+02</pdfrwt>
<totfact> 0.10038434E+06</totfact>
</mgrwt>
</event>
<event>
 4    1  0.2126213E+000  0.2740708E+02  0.7546771E-02  0.1628656E+00
         -2   -1    0    0    0  501 -0.00000000000E+00  0.00000000000E+00  0.54489585410E+01  0.54489585410E+01  0.00000000000E+00 0. -1.
          2   -1    0    0  501    0  0.00000000000E+00 -0.00000000000E+00 -0.34462923138E+02  0.34462923138E+02  0.00000000000E+00 0.  1.
        -11    1    1    2    0    0 -0.10383494212E+02 -0.68432021247E+00 -0.15224036144E+01  0.10516794139E+02  0.00000000000E+00 0. -1.
         11    1    1    2    0    0  0.10383494212E+02  0.68432021247E+00 -0.27491560982E+02  0.29395087539E+02  0.00000000000E+00 0.  1.
<mgrwt>
<rscale>  0 0.27407082E+02</rscale>
<asrwt>0</asrwt>
<pdfrwt beam="2">  1        2 0.53019881E-02 0.27407082E+02</pdfrwt>
<pdfrwt beam="1">  1       -2 0.83830132E-03 0.27407082E+02</pdfrwt>
<totfact> 0.21339061E+06</totfact>
</mgrwt>
</event>
<event>
 4    1  0.2126213E+000  0.3516189E+02  0.7546771E-02  0.1547168E+00
          1   -1    0    0  501    0  0.00000000000E+00  0.00000000000E+00  0.25980089400E+02  0.25980089400E+02  0.00000000000E+00 0. -1.
         -1   -1    0    0    0  501 -0.00000000000E+00 -0.00000000000E+00 -0.11897173814E+02  0.11897173814E+02  0.00000000000E+00 0.  1.
        -13    1    1    2    0    0 -0.97242300769E+01  0.11756653400E+02  0.16451625294E+02  0.22437368932E+02  0.00000000000E+00 0. -1.
         13    1    1    2    0    0  0.97242300769E+01 -0.11756653400E+02 -0.23687097085E+01  0.15439894282E+02  0.00000000000E+00 0.  1.
<mgrwt>
<rscale>  0 0.35161891E+02</rscale>
<asrwt>0</asrwt>
<pdfrwt beam="1">  1        1 0.39969368E-02 0.35161891E+02</pdfrwt>
<pdfrwt beam="2">  1       -1 0.18303344E-02 0.35161891E+02</pdfrwt>
<totfact> 0.10682223E+06</totfact>
</mgrwt>
</event>
<event>
 4    1  0.2126213E+000  0.2686674E+02  0.7546771E-02  0.1635552E+00
          2   -1    0    0  501    0  0.00000000000E+00  0.00000000000E+00  0.13956156550E+02  0.13956156550E+02  0.00000000000E+00 0.  1.
         -2   -1    0    0    0  501 -0.00000000000E+00 -0.00000000000E+00 -0.12930161993E+02  0.12930161993E+02  0.00000000000E+00 0. -1.
        -13    1    1    2    0    0  0.11954688247E+02 -0.50596186703E+01  0.39710989238E+01  0.13575122056E+02  0.00000000000E+00 0. -1.
         13    1    1    2    0    0 -0.11954688247E+02  0.50596186703E+01 -0.29451043670E+01  0.13311196487E+02  0.00000000000E+00 0.  1.
<mgrwt>
<rscale>  0 0.26866735E+02</rscale>
<asrwt>0</asrwt>
<pdfrwt beam="1">  1        2 0.21471010E-02 0.26866735E+02</pdfrwt>
<pdfrwt beam="2">  1       -2 0.19892557E-02 0.26866735E+02</pdfrwt>
<totfact> 0.20308193E+06</totfact>
</mgrwt>
</event>
<event>
 4    1  0.2126213E+000  0.9916837E+02  0.7546771E-02  0.1282055E+00
         -1   -1    0    0    0  501 -0.00000000000E+00  0.00000000000E+00  0.17671157297E+02  0.17671157297E+02  0.00000000000E+00 0.  1.
          1   -1    0    0  501    0  0.00000000000E+00 -0.00000000000E+00 -0.13913017375E+03  0.13913017375E+03  0.00000000000E+00 0. -1.
        -11    1    1    2    0    0  0.32065975180E+02 -0.76826897897E+01 -0.11928252447E+03  0.12375609533E+03  0.00000000000E+00 0. -1.
         11    1    1    2    0    0 -0.32065975180E+02  0.76826897897E+01 -0.21764919872E+01  0.33045235724E+02  0.00000000000E+00 0.  1.
<mgrwt>
<rscale>  0 0.99168366E+02</rscale>
<asrwt>0</asrwt>
<pdfrwt beam="2">  1        1 0.21404642E-01 0.99168366E+02</pdfrwt>
<pdfrwt beam="1">  1       -1 0.27186396E-02 0.99168366E+02</pdfrwt>
<totfact> 0.88025302E+04</totfact>
</mgrwt>
</event>
<event>
 4    1  0.2126213E+000  0.3201616E+02  0.7546771E-02  0.1576815E+00
         -4   -1    0    0    0  501 -0.00000000000E+00  0.00000000000E+00  0.66590006666E+01  0.66590006666E+01  0.00000000000E+00 0. -1.
          4   -1    0    0  501    0  0.00000000000E+00 -0.00000000000E+00 -0.38483039422E+02  0.38483039422E+02  0.00000000000E+00 0.  1.
        -11    1    1    2    0    0  0.14869413116E+02  0.59294552067E+01 -0.15874723019E+02  0.22544727020E+02  0.00000000000E+00 0. -1.
         11    1    1    2    0    0 -0.14869413116E+02 -0.59294552067E+01 -0.15949315736E+02  0.22597313069E+02  0.00000000000E+00 0.  1.
<mgrwt>
<rscale>  0 0.32016157E+02</rscale>
<asrwt>0</asrwt>
<pdfrwt beam="2">  1        4 0.59204676E-02 0.32016157E+02</pdfrwt>
<pdfrwt beam="1">  1       -4 0.10244616E-02 0.32016157E+02</pdfrwt>
<totfact> 0.42462232E+05</totfact>
</mgrwt>
</event>
<event>
 4    1  0.2126213E+000  0.2130954E+02  0.7546771E-02  0.1720474E+00
         -2   -1    0    0    0  501 -0.00000000000E+00  0.00000000000E+00  0.18958604231E+02  0.18958604231E+02  0.00000000000E+00 0. -1.
          2   -1    0    0  501    0  0.00000000000E+00 -0.00000000000E+00 -0.59880025137E+01  0.59880025137E+01  0.00000000000E+00 0.  1.
        -11    1    1    2    0    0 -0.88736390085E+01  0.49253117325E+01  0.26875380398E+01  0.10498715428E+02  0.00000000000E+00 0. -1.
         11    1    1    2    0    0  0.88736390085E+01 -0.49253117325E+01  0.10283063678E+02  0.14447891317E+02  0.00000000000E+00 0.  1.
<mgrwt>
<rscale>  0 0.21309544E+02</rscale>
<asrwt>0</asrwt>
<pdfrwt beam="2">  1        2 0.92123117E-03 0.21309544E+02</pdfrwt>
<pdfrwt beam="1">  1       -2 0.29167083E-02 0.21309544E+02</pdfrwt>
<totfact> 0.32743653E+06</totfact>
</mgrwt>
</event>
<event>
 4    1  0.2126213E+000  0.2709071E+02  0.7546771E-02  0.1632669E+00
          2   -1    0    0  501    0  0.00000000000E+00  0.00000000000E+00  0.27539084297E+01  0.27539084297E+01  0.00000000000E+00 0. -1.
         -2   -1    0    0    0  501 -0.00000000000E+00 -0.00000000000E+00 -0.66624082623E+02  0.66624082623E+02  0.00000000000E+00 0.  1.
        -13    1    1    2    0    0  0.90175948251E+01 -0.99564327382E+01 -0.27477961992E+02  0.30585715040E+02  0.00000000000E+00 0. -1.
         13    1    1    2    0    0 -0.90175948251E+01  0.99564327382E+01 -0.36392212202E+02  0.38792276012E+02  0.00000000000E+00 0.  1.
<mgrwt>
<rscale>  0 0.27090709E+02</rscale>
<asrwt>0</asrwt>
<pdfrwt beam="1">  1        2 0.42367826E-03 0.27090709E+02</pdfrwt>
<pdfrwt beam="2">  1       -2 0.10249858E-01 0.27090709E+02</pdfrwt>
<totfact> 0.16419078E+06</totfact>
</mgrwt>
</event>
<event>
 4    1  0.2126213E+000  0.2855408E+02  0.7546771E-02  0.1614644E+00
          2   -1    0    0  501    0  0.00000000000E+00  0.00000000000E+00  0.82069383561E+01  0.82069383561E+01  0.00000000000E+00 0.  1.
         -2   -1    0    0    0  501 -0.00000000000E+00 -0.00000000000E+00 -0.24836780322E+02  0.24836780322E+02  0.00000000000E+00 0. -1.
        -13    1    1    2    0    0 -0.50139384551E+01 -0.91157327050E+01  0.29998183379E+01  0.10827514564E+02  0.00000000000E+00 0.  1.
         13    1    1    2    0    0  0.50139384551E+01  0.91157327050E+01 -0.19629660304E+02  0.22216204114E+02  0.00000000000E+00 0. -1.
<mgrwt>
<rscale>  0 0.28554084E+02</rscale>
<asrwt>0</asrwt>
<pdfrwt beam="1">  1        2 0.12626059E-02 0.28554084E+02</pdfrwt>
<pdfrwt beam="2">  1       -2 0.38210431E-02 0.28554084E+02</pdfrwt>
<totfact> 0.16623868E+06</totfact>
</mgrwt>
</event>
<event>
 4    1  0.2126213E+000  0.3580551E+02  0.7546771E-02  0.1541562E+00
         -2   -1    0    0    0  501 -0.00000000000E+00  0.00000000000E+00  0.31373347918E+01  0.31373347918E+01  0.00000000000E+00 0. -1.
          2   -1    0    0  501    0  0.00000000000E+00 -0.00000000000E+00 -0.10215950130E+03  0.10215950130E+03  0.00000000000E+00 0.  1.
        -11    1    1    2    0    0  0.12920196201E+02 -0.12126733186E+02 -0.57019879646E+02  0.59709763041E+02  0.00000000000E+00 0. -1.
         11    1    1    2    0    0 -0.12920196201E+02  0.12126733186E+02 -0.42002286862E+02  0.45587073050E+02  0.00000000000E+00 0.  1.
<mgrwt>
<rscale>  0 0.35805506E+02</rscale>
<asrwt>0</asrwt>
<pdfrwt beam="2">  1        2 0.15716843E-01 0.35805506E+02</pdfrwt>
<pdfrwt beam="1">  1       -2 0.48266698E-03 0.35805506E+02</pdfrwt>
<totfact> 0.13763526E+06</totfact>
</mgrwt>
</event>
<event>
 4    1  0.2126213E+000  0.3724762E+02  0.7546771E-02  0.1529501E+00
          2   -1    0    0  501    0  0.00000000000E+00  0.00000000000E+00  0.11207148653E+03  0.11207148653E+03  0.00000000000E+00 0. -1.
         -2   -1    0    0    0  501 -0.00000000000E+00 -0.00000000000E+00 -0.30948669559E+01  0.30948669559E+01  0.00000000000E+00 0.  1.
        -11    1    1    2    0    0  0.83308739988E+01 -0.15955990348E+02  0.69267922174E+02  0.71568443688E+02  0.00000000000E+00 0. -1.
         11    1    1    2    0    0 -0.83308739988E+01  0.15955990348E+02  0.39708697403E+02  0.43597909801E+02  0.00000000000E+00 0.  1.
<mgrwt>
<rscale>  0 0.37247622E+02</rscale>
<asrwt>0</asrwt>
<pdfrwt beam="1">  1        2 0.17241764E-01 0.37247622E+02</pdfrwt>
<pdfrwt beam="2">  1       -2 0.47613346E-03 0.37247622E+02</pdfrwt>
<totfact> 0.12805008E+06</totfact>
</mgrwt>
</event>
<event>
 4    1  0.2126213E+000  0.2355493E+02  0.7546771E-02  0.1682670E+00
         -4   -1    0    0    0  501 -0.00000000000E+00  0.00000000000E+00  0.14054653808E+01  0.14054653808E+01  0.00000000000E+00 0.  1.
          4   -1    0    0  501    0  0.00000000000E+00 -0.00000000000E+00 -0.98692351805E+02  0.98692351805E+02  0.00000000000E+00 0. -1.
        -11    1    1    2    0    0  0.10233300975E+02  0.53048956316E+01 -0.58918493998E+02  0.60035417059E+02  0.00000000000E+00 0. -1.
         11    1    1    2    0    0 -0.10233300975E+02 -0.53048956316E+01 -0.38368392427E+02  0.40062400127E+02  0.00000000000E+00 0.  1.
<mgrwt>
<rscale>  0 0.23554930E+02</rscale>
<asrwt>0</asrwt>
<pdfrwt beam="2">  1        4 0.15183442E-01 0.23554930E+02</pdfrwt>
<pdfrwt beam="1">  1       -4 0.21622540E-03 0.23554930E+02</pdfrwt>
<totfact> 0.70086054E+05</totfact>
</mgrwt>
</event>
<event>
 4    1  0.2126213E+000  0.2349668E+02  0.7546771E-02  0.1683583E+00
         -4   -1    0    0    0  501 -0.00000000000E+00  0.00000000000E+00  0.30027189024E+01  0.30027189024E+01  0.00000000000E+00 0. -1.
          4   -1    0    0  501    0  0.00000000000E+00 -0.00000000000E+00 -0.45966176291E+02  0.45966176291E+02  0.00000000000E+00 0.  1.
        -11    1    1    2    0    0 -0.61803146253E+01 -0.95673251330E+01 -0.27483547764E+02  0.29750216752E+02  0.00000000000E+00 0. -1.
         11    1    1    2    0    0  0.61803146253E+01  0.95673251330E+01 -0.15479909624E+02  0.19218678442E+02  0.00000000000E+00 0.  1.
<mgrwt>
<rscale>  0 0.23496681E+02</rscale>
<asrwt>0</asrwt>
<pdfrwt beam="2">  1        4 0.70717194E-02 0.23496681E+02</pdfrwt>
<pdfrwt beam="1">  1       -4 0.46195675E-03 0.23496681E+02</pdfrwt>
<totfact> 0.82824078E+05</totfact>
</mgrwt>
</event>
<event>
 4    1  0.2126213E+000  0.1458672E+03  0.7546771E-02  0.1205645E+00
         -2   -1    0    0    0  501 -0.00000000000E+00  0.00000000000E+00  0.15201867039E+02  0.15201867039E+02  0.00000000000E+00 0. -1.
          2   -1    0    0  501    0  0.00000000000E+00 -0.00000000000E+00 -0.34991152673E+03  0.34991152673E+03  0.00000000000E+00 0.  1.
        -11    1    1    2    0    0 -0.59863550936E+02 -0.29608637986E+02 -0.93993900748E+02  0.11530468140E+03  0.00000000000E+00 0. -1.
         11    1    1    2    0    0  0.59863550936E+02  0.29608637986E+02 -0.24071575895E+03  0.24980871238E+03  0.00000000000E+00 0.  1.
<mgrwt>
<rscale>  0 0.14586718E+03</rscale>
<asrwt>0</asrwt>
<pdfrwt beam="2">  1        2 0.53832540E-01 0.14586718E+03</pdfrwt>
<pdfrwt beam="1">  1       -2 0.23387489E-02 0.14586718E+03</pdfrwt>
<totfact> 0.52660613E+04</totfact>
</mgrwt>
</event>
<event>
 4    1  0.2126213E+000  0.3308558E+02  0.7546771E-02  0.1566289E+00
          1   -1    0    0  501    0  0.00000000000E+00  0.00000000000E+00  0.82386921937E+01  0.82386921937E+01  0.00000000000E+00 0.  1.
         -1   -1    0    0    0  501 -0.00000000000E+00 -0.00000000000E+00 -0.33216911060E+02  0.33216911060E+02  0.00000000000E+00 0. -1.
        -11    1    1    2    0    0 -0.45353577420E-01  0.13748536093E+02 -0.96171124901E+00  0.13782205563E+02  0.00000000000E+00 0.  1.
         11    1    1    2    0    0  0.45353577420E-01 -0.13748536093E+02 -0.24016507618E+02  0.27673397692E+02  0.00000000000E+00 0. -1.
<mgrwt>
<rscale>  0 0.33085580E+02</rscale>
<asrwt>0</asrwt>
<pdfrwt beam="1">  1        1 0.12674911E-02 0.33085580E+02</pdfrwt>
<pdfrwt beam="2">  1       -1 0.51102940E-02 0.33085580E+02</pdfrwt>
<totfact> 0.11480768E+06</totfact>
</mgrwt>
</event>
<event>
 4    1  0.2126213E+000  0.3416322E+02  0.7546771E-02  0.1556159E+00
         -4   -1    0    0    0  501 -0.00000000000E+00  0.00000000000E+00  0.14572397756E+03  0.14572397756E+03  0.00000000000E+00 0. -1.
          4   -1    0    0  501    0  0.00000000000E+00 -0.00000000000E+00 -0.20022879500E+01  0.20022879500E+01  0.00000000000E+00 0.  1.
        -11    1    1    2    0    0  0.16770028423E+02  0.23153472048E+01  0.62012945380E+02  0.64282191007E+02  0.00000000000E+00 0.  1.
         11    1    1    2    0    0 -0.16770028423E+02 -0.23153472048E+01  0.81708744227E+02  0.83444074500E+02  0.00000000000E+00 0. -1.
<mgrwt>
<rscale>  0 0.34163218E+02</rscale>
<asrwt>0</asrwt>
<pdfrwt beam="2">  1        4 0.30804441E-03 0.34163218E+02</pdfrwt>
<pdfrwt beam="1">  1       -4 0.22419065E-01 0.34163218E+02</pdfrwt>
<totfact> 0.27440925E+05</totfact>
</mgrwt>
</event>
<event>
 4    1  0.2126213E+000  0.4092825E+02  0.7546771E-02  0.1501490E+00
          2   -1    0    0  501    0  0.00000000000E+00  0.00000000000E+00  0.49371787826E+02  0.49371787826E+02  0.00000000000E+00 0. -1.
         -2   -1    0    0    0  501 -0.00000000000E+00 -0.00000000000E+00 -0.84821822924E+01  0.84821822924E+01  0.00000000000E+00 0.  1.
        -13    1    1    2    0    0  0.14491559473E+02  0.83030638749E+01  0.37160206087E+02  0.40740975468E+02  0.00000000000E+00 0. -1.
         13    1    1    2    0    0 -0.14491559473E+02 -0.83030638749E+01  0.37293994460E+01  0.17112994650E+02  0.00000000000E+00 0.  1.
<mgrwt>
<rscale>  0 0.40928255E+02</rscale>
<asrwt>0</asrwt>
<pdfrwt beam="1">  1        2 0.75956595E-02 0.40928255E+02</pdfrwt>
<pdfrwt beam="2">  1       -2 0.13049512E-02 0.40928255E+02</pdfrwt>
<totfact> 0.85022930E+05</totfact>
</mgrwt>
</event>
<event>
 4    1  0.2126213E+000  0.3677042E+02  0.7546771E-02  0.1533418E+00
         -2   -1    0    0    0  501 -0.00000000000E+00  0.00000000000E+00  0.91702197878E+02  0.91702197878E+02  0.00000000000E+00 0.  1.
          2   -1    0    0  501    0  0.00000000000E+00 -0.00000000000E+00 -0.36860170397E+01  0.36860170397E+01  0.00000000000E+00 0. -1.
        -13    1    1    2    0    0  0.69489465175E+01  0.16302032419E+02  0.31306853675E+02  0.35974479923E+02  0.00000000000E+00 0. -1.
         13    1    1    2    0    0 -0.69489465175E+01 -0.16302032419E+02  0.56709327163E+02  0.59413734994E+02  0.00000000000E+00 0.  1.
<mgrwt>
<rscale>  0 0.36770415E+02</rscale>
<asrwt>0</asrwt>
<pdfrwt beam="2">  1        2 0.56707961E-03 0.36770415E+02</pdfrwt>
<pdfrwt beam="1">  1       -2 0.14108029E-01 0.36770415E+02</pdfrwt>
<totfact> 0.75529658E+05</totfact>
</mgrwt>
</event>
<event>
 4    1  0.2126213E+000  0.2073645E+02  0.7546771E-02  0.1731067E+00
          2   -1    0    0  501    0  0.00000000000E+00  0.00000000000E+00  0.62040884821E+01  0.62040884821E+01  0.00000000000E+00 0. -1.
         -2   -1    0    0    0  501 -0.00000000000E+00 -0.00000000000E+00 -0.17327291186E+02  0.17327291186E+02  0.00000000000E+00 0.  1.
        -11    1    1    2    0    0 -0.50660175850E+01 -0.89828492129E+01 -0.43478954601E+01  0.11191975209E+02  0.00000000000E+00 0.  1.
         11    1    1    2    0    0  0.50660175850E+01  0.89828492129E+01 -0.67753072440E+01  0.12339404459E+02  0.00000000000E+00 0. -1.
<mgrwt>
<rscale>  0 0.20736446E+02</rscale>
<asrwt>0</asrwt>
<pdfrwt beam="1">  1        2 0.95447514E-03 0.20736446E+02</pdfrwt>
<pdfrwt beam="2">  1       -2 0.26657371E-02 0.20736446E+02</pdfrwt>
<totfact> 0.35010308E+06</totfact>
</mgrwt>
</event>
<event>
 4    1  0.2126213E+000  0.3730592E+02  0.7546771E-02  0.1529028E+00
         -2   -1    0    0    0  501 -0.00000000000E+00  0.00000000000E+00  0.73601345147E+02  0.73601345147E+02  0.00000000000E+00 0.  1.
          2   -1    0    0  501    0  0.00000000000E+00 -0.00000000000E+00 -0.47272637365E+01  0.47272637365E+01  0.00000000000E+00 0. -1.
        -13    1    1    2    0    0  0.14349639279E+02 -0.54754686309E+01  0.12212678665E+02  0.19622497913E+02  0.00000000000E+00 0. -1.
         13    1    1    2    0    0 -0.14349639279E+02  0.54754686309E+01  0.56661402746E+02  0.58706110970E+02  0.00000000000E+00 0.  1.
<mgrwt>
<rscale>  0 0.37305923E+02</rscale>
<asrwt>0</asrwt>
<pdfrwt beam="2">  1        2 0.72727140E-03 0.37305923E+02</pdfrwt>
<pdfrwt beam="1">  1       -2 0.11323283E-01 0.37305923E+02</pdfrwt>
<totfact> 0.76482836E+05</totfact>
</mgrwt>
</event>
<event>
 4    1  0.2126213E+000  0.2650437E+02  0.7546771E-02  0.1640289E+00
         -2   -1    0    0    0  501 -0.00000000000E+00  0.00000000000E+00  0.22651554293E+02  0.22651554293E+02  0.00000000000E+00 0. -1.
          2   -1    0    0  501    0  0.00000000000E+00 -0.00000000000E+00 -0.77531267900E+01  0.77531267900E+01  0.00000000000E+00 0.  1.
        -13    1    1    2    0    0  0.12326647881E+02  0.28478453916E+01  0.11974877056E+02  0.17419935473E+02  0.00000000000E+00 0. -1.
         13    1    1    2    0    0 -0.12326647881E+02 -0.28478453916E+01  0.29235504465E+01  0.12984745610E+02  0.00000000000E+00 0.  1.
<mgrwt>
<rscale>  0 0.26504367E+02</rscale>
<asrwt>0</asrwt>
<pdfrwt beam="2">  1        2 0.11927887E-02 0.26504367E+02</pdfrwt>
<pdfrwt beam="1">  1       -2 0.34848545E-02 0.26504367E+02</pdfrwt>
<totfact> 0.19854242E+06</totfact>
</mgrwt>
</event>
<event>
 4    1  0.2126213E+000  0.4410294E+02  0.7546771E-02  0.1480021E+00
         -2   -1    0    0    0  501 -0.00000000000E+00  0.00000000000E+00  0.48500653338E+01  0.48500653338E+01  0.00000000000E+00 0. -1.
          2   -1    0    0  501    0  0.00000000000E+00 -0.00000000000E+00 -0.10025996852E+03  0.10025996852E+03  0.00000000000E+00 0.  1.
        -11    1    1    2    0    0 -0.13591599329E+01  0.20769788052E+02 -0.65061442629E+02  0.68309755734E+02  0.00000000000E+00 0.  1.
         11    1    1    2    0    0  0.13591599329E+01 -0.20769788052E+02 -0.30348460553E+02  0.36800278116E+02  0.00000000000E+00 0. -1.
<mgrwt>
<rscale>  0 0.44102943E+02</rscale>
<asrwt>0</asrwt>
<pdfrwt beam="2">  1        2 0.15424609E-01 0.44102943E+02</pdfrwt>
<pdfrwt beam="1">  1       -2 0.74616398E-03 0.44102943E+02</pdfrwt>
<totfact> 0.82115320E+05</totfact>
</mgrwt>
</event>
<event>
 4    1  0.2126213E+000  0.2766023E+02  0.7546771E-02  0.1625492E+00
         -3   -1    0    0    0  501 -0.00000000000E+00  0.00000000000E+00  0.46877978474E+01  0.46877978474E+01  0.00000000000E+00 0. -1.
          3   -1    0    0  501    0  0.00000000000E+00 -0.00000000000E+00 -0.40802112519E+02  0.40802112519E+02  0.00000000000E+00 0.  1.
        -13    1    1    2    0    0 -0.13524559966E+02 -0.19290135128E+01 -0.21598672469E+02  0.25556554303E+02  0.00000000000E+00 0.  1.
         13    1    1    2    0    0  0.13524559966E+02  0.19290135128E+01 -0.14515642203E+02  0.19933356064E+02  0.00000000000E+00 0. -1.
<mgrwt>
<rscale>  0 0.27660228E+02</rscale>
<asrwt>0</asrwt>
<pdfrwt beam="2">  1        3 0.62772481E-02 0.27660228E+02</pdfrwt>
<pdfrwt beam="1">  1       -3 0.72119967E-03 0.27660228E+02</pdfrwt>
<totfact> 0.79869940E+05</totfact>
</mgrwt>
</event>
<event>
 4    1  0.2126213E+000  0.2982483E+02  0.7546771E-02  0.1600033E+00
          2   -1    0    0  501    0  0.00000000000E+00  0.00000000000E+00  0.56887822506E+01  0.56887822506E+01  0.00000000000E+00 0.  1.
         -2   -1    0    0    0  501 -0.00000000000E+00 -0.00000000000E+00 -0.39090980453E+02  0.39090980453E+02  0.00000000000E+00 0. -1.
        -11    1    1    2    0    0 -0.59891929047E+01 -0.12829485373E+02 -0.96725743229E+01  0.17147151968E+02  0.00000000000E+00 0.  1.
         11    1    1    2    0    0  0.59891929047E+01  0.12829485373E+02 -0.23729623879E+02  0.27632610735E+02  0.00000000000E+00 0. -1.
<mgrwt>
<rscale>  0 0.29824827E+02</rscale>
<asrwt>0</asrwt>
<pdfrwt beam="1">  1        2 0.87519729E-03 0.29824827E+02</pdfrwt>
<pdfrwt beam="2">  1       -2 0.60139968E-02 0.29824827E+02</pdfrwt>
<totfact> 0.14278277E+06</totfact>
</mgrwt>
</event>
<event>
 4    1  0.2126213E+000  0.2459266E+02  0.7546771E-02  0.1666923E+00
          2   -1    0    0  501    0  0.00000000000E+00  0.00000000000E+00  0.81200045525E+02  0.81200045525E+02  0.00000000000E+00 0. -1.
         -2   -1    0    0    0  501 -0.00000000000E+00 -0.00000000000E+00 -0.18620639046E+01  0.18620639046E+01  0.00000000000E+00 0.  1.
        -13    1    1    2    0    0  0.23250765864E+01  0.11711471247E+02  0.49594026378E+02  0.51011096756E+02  0.00000000000E+00 0.  1.
         13    1    1    2    0    0 -0.23250765864E+01 -0.11711471247E+02  0.29743955243E+02  0.32051012673E+02  0.00000000000E+00 0. -1.
<mgrwt>
<rscale>  0 0.24592655E+02</rscale>
<asrwt>0</asrwt>
<pdfrwt beam="1">  1        2 0.12492312E-01 0.24592655E+02</pdfrwt>
<pdfrwt beam="2">  1       -2 0.28647143E-03 0.24592655E+02</pdfrwt>
<totfact> 0.31662380E+06</totfact>
</mgrwt>
</event>
<event>
 4    1  0.2126213E+000  0.4255208E+02  0.7546771E-02  0.1490229E+00
         -2   -1    0    0    0  501 -0.00000000000E+00  0.00000000000E+00  0.94825395824E+01  0.94825395824E+01  0.00000000000E+00 0. -1.
          2   -1    0    0  501    0  0.00000000000E+00 -0.00000000000E+00 -0.47737198117E+02  0.47737198117E+02  0.00000000000E+00 0.  1.
        -13    1    1    2    0    0 -0.38349861391E+01  0.18697773333E+02 -0.64874433092E+01  0.20159384092E+02  0.00000000000E+00 0. -1.
         13    1    1    2    0    0  0.38349861391E+01 -0.18697773333E+02 -0.31767215225E+02  0.37060353607E+02  0.00000000000E+00 0.  1.
<mgrwt>
<rscale>  0 0.42552080E+02</rscale>
<asrwt>0</asrwt>
<pdfrwt beam="2">  1        2 0.73441846E-02 0.42552080E+02</pdfrwt>
<pdfrwt beam="1">  1       -2 0.14588522E-02 0.42552080E+02</pdfrwt>
<totfact> 0.76675072E+05</totfact>
</mgrwt>
</event>
<event>
 4    1  0.2126213E+000  0.2349956E+02  0.7546771E-02  0.1683538E+00
          2   -1    0    0  501    0  0.00000000000E+00  0.00000000000E+00  0.37964712075E+01  0.37964712075E+01  0.00000000000E+00 0. -1.
         -2   -1    0    0    0  501 -0.00000000000E+00 -0.00000000000E+00 -0.36364660775E+02  0.36364660775E+02  0.00000000000E+00 0.  1.
        -11    1    1    2    0    0 -0.10235000564E+02  0.57389379907E+01 -0.15249128188E+02  0.19241272211E+02  0.00000000000E+00 0.  1.
         11    1    1    2    0    0  0.10235000564E+02 -0.57389379907E+01 -0.17319061379E+02  0.20919859771E+02  0.00000000000E+00 0. -1.
<mgrwt>
<rscale>  0 0.23499565E+02</rscale>
<asrwt>0</asrwt>
<pdfrwt beam="1">  1        2 0.58407250E-03 0.23499565E+02</pdfrwt>
<pdfrwt beam="2">  1       -2 0.55945631E-02 0.23499565E+02</pdfrwt>
<totfact> 0.24730695E+06</totfact>
</mgrwt>
</event>
<event>
 4    1  0.2126213E+000  0.3195991E+02  0.7546771E-02  0.1577383E+00
         -4   -1    0    0    0  501 -0.00000000000E+00  0.00000000000E+00  0.14667332735E+02  0.14667332735E+02  0.00000000000E+00 0. -1.
          4   -1    0    0  501    0  0.00000000000E+00 -0.00000000000E+00 -0.17410046139E+02  0.17410046139E+02  0.00000000000E+00 0.  1.
        -11    1    1    2    0    0  0.13587834690E+02  0.75379820470E+01 -0.51144764647E+01  0.16358737555E+02  0.00000000000E+00 0. -1.
         11    1    1    2    0    0 -0.13587834690E+02 -0.75379820470E+01  0.23717630612E+01  0.15718641319E+02  0.00000000000E+00 0.  1.
<mgrwt>
<rscale>  0 0.31959909E+02</rscale>
<asrwt>0</asrwt>
<pdfrwt beam="2">  1        4 0.26784686E-02 0.31959909E+02</pdfrwt>
<pdfrwt beam="1">  1       -4 0.22565127E-02 0.31959909E+02</pdfrwt>
<totfact> 0.44686289E+05</totfact>
</mgrwt>
</event>
<event>
 4    1  0.2126213E+000  0.3473985E+02  0.7546771E-02  0.1550923E+00
         -2   -1    0    0    0  501 -0.00000000000E+00  0.00000000000E+00  0.38420777701E+01  0.38420777701E+01  0.00000000000E+00 0.  1.
          2   -1    0    0  501    0  0.00000000000E+00 -0.00000000000E+00 -0.78528936632E+02  0.78528936632E+02  0.00000000000E+00 0. -1.
        -11    1    1    2    0    0  0.77967986963E+01 -0.83210228791E+01 -0.68411364980E+02  0.69355204204E+02  0.00000000000E+00 0. -1.
         11    1    1    2    0    0 -0.77967986963E+01  0.83210228791E+01 -0.62754938819E+01  0.13015810199E+02  0.00000000000E+00 0.  1.
<mgrwt>
<rscale>  0 0.34739849E+02</rscale>
<asrwt>0</asrwt>
<pdfrwt beam="2">  1        2 0.12081374E-01 0.34739849E+02</pdfrwt>
<pdfrwt beam="1">  1       -2 0.59108893E-03 0.34739849E+02</pdfrwt>
<totfact> 0.13926846E+06</totfact>
</mgrwt>
</event>
<event>
 4    1  0.2126213E+000  0.4875766E+02  0.7546771E-02  0.1452160E+00
          2   -1    0    0  501    0  0.00000000000E+00  0.00000000000E+00  0.12129305529E+03  0.12129305529E+03  0.00000000000E+00 0. -1.
         -2   -1    0    0    0  501 -0.00000000000E+00 -0.00000000000E+00 -0.48999296655E+01  0.48999296655E+01  0.00000000000E+00 0.  1.
        -11    1    1    2    0    0 -0.18040081203E+02 -0.11185196456E+02  0.27162906737E+02  0.34472839337E+02  0.00000000000E+00 0.  1.
         11    1    1    2    0    0  0.18040081203E+02  0.11185196456E+02  0.89230218883E+02  0.91720145614E+02  0.00000000000E+00 0. -1.
<mgrwt>
<rscale>  0 0.48757664E+02</rscale>
<asrwt>0</asrwt>
<pdfrwt beam="1">  1        2 0.18660468E-01 0.48757664E+02</pdfrwt>
<pdfrwt beam="2">  1       -2 0.75383542E-03 0.48757664E+02</pdfrwt>
<totfact> 0.67216627E+05</totfact>
</mgrwt>
</event>
<event>
 4    1  0.2126213E+000  0.2211198E+02  0.7546771E-02  0.1706322E+00
         -2   -1    0    0    0  501 -0.00000000000E+00  0.00000000000E+00  0.15373060136E+01  0.15373060136E+01  0.00000000000E+00 0.  1.
          2   -1    0    0  501    0  0.00000000000E+00 -0.00000000000E+00 -0.79512432036E+02  0.79512432036E+02  0.00000000000E+00 0. -1.
        -13    1    1    2    0    0 -0.12713437782E+01 -0.10263019912E+02 -0.53319805547E+02  0.54313419671E+02  0.00000000000E+00 0. -1.
         13    1    1    2    0    0  0.12713437782E+01  0.10263019912E+02 -0.24655320475E+02  0.26736318379E+02  0.00000000000E+00 0.  1.
<mgrwt>
<rscale>  0 0.22111982E+02</rscale>
<asrwt>0</asrwt>
<pdfrwt beam="2">  1        2 0.12232682E-01 0.22111982E+02</pdfrwt>
<pdfrwt beam="1">  1       -2 0.23650861E-03 0.22111982E+02</pdfrwt>
<totfact> 0.40145436E+06</totfact>
</mgrwt>
</event>
<event>
 4    1  0.2126213E+000  0.2764182E+02  0.7546771E-02  0.1625720E+00
         -1   -1    0    0    0  501 -0.00000000000E+00  0.00000000000E+00  0.15382157552E+01  0.15382157552E+01  0.00000000000E+00 0.  1.
          1   -1    0    0  501    0  0.00000000000E+00 -0.00000000000E+00 -0.12418125163E+03  0.12418125163E+03  0.00000000000E+00 0. -1.
        -11    1    1    2    0    0  0.13244412885E+02 -0.39490727174E+01 -0.60917018898E+02  0.62465132990E+02  0.00000000000E+00 0.  1.
         11    1    1    2    0    0 -0.13244412885E+02  0.39490727174E+01 -0.61726016980E+02  0.63254334399E+02  0.00000000000E+00 0. -1.
<mgrwt>
<rscale>  0 0.27641820E+02</rscale>
<asrwt>0</asrwt>
<pdfrwt beam="2">  1        1 0.19104816E-01 0.27641820E+02</pdfrwt>
<pdfrwt beam="1">  1       -1 0.23664848E-03 0.27641820E+02</pdfrwt>
<totfact> 0.21875010E+06</totfact>
</mgrwt>
</event>
<event>
 4    1  0.2126213E+000  0.5902812E+02  0.7546771E-02  0.1401956E+00
          4   -1    0    0  501    0  0.00000000000E+00  0.00000000000E+00  0.13194151764E+02  0.13194151764E+02  0.00000000000E+00 0.  1.
         -4   -1    0    0    0  501 -0.00000000000E+00 -0.00000000000E+00 -0.66020149420E+02  0.66020149420E+02  0.00000000000E+00 0. -1.
        -13    1    1    2    0    0  0.41192156271E+01 -0.13671882445E+02 -0.61076297065E+02  0.62723220343E+02  0.00000000000E+00 0. -1.
         13    1    1    2    0    0 -0.41192156271E+01  0.13671882445E+02  0.82502994086E+01  0.16491080841E+02  0.00000000000E+00 0.  1.
<mgrwt>
<rscale>  0 0.59028125E+02</rscale>
<asrwt>0</asrwt>
<pdfrwt beam="1">  1        4 0.20298695E-02 0.59028125E+02</pdfrwt>
<pdfrwt beam="2">  1       -4 0.10156946E-01 0.59028125E+02</pdfrwt>
<totfact> 0.87316398E+04</totfact>
</mgrwt>
</event>
<event>
 4    1  0.2126213E+000  0.2258327E+02  0.7546771E-02  0.1698356E+00
         -2   -1    0    0    0  501 -0.00000000000E+00  0.00000000000E+00  0.20890376413E+01  0.20890376413E+01  0.00000000000E+00 0.  1.
          2   -1    0    0  501    0  0.00000000000E+00 -0.00000000000E+00 -0.61033368833E+02  0.61033368833E+02  0.00000000000E+00 0. -1.
        -13    1    1    2    0    0  0.10580474204E+02 -0.37805905931E+01 -0.32611775587E+02  0.34493002284E+02  0.00000000000E+00 0.  1.
         13    1    1    2    0    0 -0.10580474204E+02  0.37805905931E+01 -0.26332555605E+02  0.28629404191E+02  0.00000000000E+00 0. -1.
<mgrwt>
<rscale>  0 0.22583269E+02</rscale>
<asrwt>0</asrwt>
<pdfrwt beam="2">  1        2 0.93897504E-02 0.22583269E+02</pdfrwt>
<pdfrwt beam="1">  1       -2 0.32139036E-03 0.22583269E+02</pdfrwt>
<totfact> 0.36410706E+06</totfact>
</mgrwt>
</event>
<event>
 4    1  0.2126213E+000  0.3363392E+02  0.7546771E-02  0.1561077E+00
         -2   -1    0    0    0  501 -0.00000000000E+00  0.00000000000E+00  0.57435494039E+02  0.57435494039E+02  0.00000000000E+00 0. -1.
          2   -1    0    0  501    0  0.00000000000E+00 -0.00000000000E+00 -0.49239607769E+01  0.49239607769E+01  0.00000000000E+00 0.  1.
        -13    1    1    2    0    0  0.15551590731E+02  0.42219646604E+01  0.17338282979E+02  0.23670509427E+02  0.00000000000E+00 0.  1.
         13    1    1    2    0    0 -0.15551590731E+02 -0.42219646604E+01  0.35173250282E+02  0.38688945389E+02  0.00000000000E+00 0. -1.
<mgrwt>
<rscale>  0 0.33633919E+02</rscale>
<asrwt>0</asrwt>
<pdfrwt beam="2">  1        2 0.75753247E-03 0.33633919E+02</pdfrwt>
<pdfrwt beam="1">  1       -2 0.88362294E-02 0.33633919E+02</pdfrwt>
<totfact> 0.10210950E+06</totfact>
</mgrwt>
</event>
<event>
 4    1  0.2126213E+000  0.2505650E+02  0.7546771E-02  0.1660192E+00
         -1   -1    0    0    0  501 -0.00000000000E+00  0.00000000000E+00  0.24597315446E+02  0.24597315446E+02  0.00000000000E+00 0.  1.
          1   -1    0    0  501    0  0.00000000000E+00 -0.00000000000E+00 -0.63810659375E+01  0.63810659375E+01  0.00000000000E+00 0. -1.
        -13    1    1    2    0    0 -0.12460373896E+02 -0.33242793618E+00  0.75512843894E+01  0.14573720249E+02  0.00000000000E+00 0. -1.
         13    1    1    2    0    0  0.12460373896E+02  0.33242793618E+00  0.10664965119E+02  0.16404661135E+02  0.00000000000E+00 0.  1.
<mgrwt>
<rscale>  0 0.25056503E+02</rscale>
<asrwt>0</asrwt>
<pdfrwt beam="2">  1        1 0.98170247E-03 0.25056503E+02</pdfrwt>
<pdfrwt beam="1">  1       -1 0.37842023E-02 0.25056503E+02</pdfrwt>
<totfact> 0.22324893E+06</totfact>
</mgrwt>
</event>
<event>
 4    1  0.2126213E+000  0.2586350E+02  0.7546771E-02  0.1648900E+00
          2   -1    0    0  501    0  0.00000000000E+00  0.00000000000E+00  0.18246517376E+02  0.18246517376E+02  0.00000000000E+00 0. -1.
         -2   -1    0    0    0  501 -0.00000000000E+00 -0.00000000000E+00 -0.91650467131E+01  0.91650467131E+01  0.00000000000E+00 0.  1.
        -11    1    1    2    0    0  0.87760706452E+01  0.94978854250E+01  0.45732399468E+01  0.13716550847E+02  0.00000000000E+00 0. -1.
         11    1    1    2    0    0 -0.87760706452E+01 -0.94978854250E+01  0.45082307159E+01  0.13695013242E+02  0.00000000000E+00 0.  1.
<mgrwt>
<rscale>  0 0.25863502E+02</rscale>
<asrwt>0</asrwt>
<pdfrwt beam="1">  1        2 0.28071565E-02 0.25863502E+02</pdfrwt>
<pdfrwt beam="2">  1       -2 0.14100072E-02 0.25863502E+02</pdfrwt>
<totfact> 0.22808419E+06</totfact>
</mgrwt>
</event>
<event>
 4    1  0.2126213E+000  0.2456314E+02  0.7546771E-02  0.1667357E+00
          2   -1    0    0  501    0  0.00000000000E+00  0.00000000000E+00  0.18489295444E+02  0.18489295444E+02  0.00000000000E+00 0.  1.
         -2   -1    0    0    0  501 -0.00000000000E+00 -0.00000000000E+00 -0.81580698598E+01  0.81580698598E+01  0.00000000000E+00 0. -1.
        -11    1    1    2    0    0 -0.90743261327E+01  0.81848915285E+01  0.64947752468E+01  0.13839001033E+02  0.00000000000E+00 0. -1.
         11    1    1    2    0    0  0.90743261327E+01 -0.81848915285E+01  0.38364503376E+01  0.12808364271E+02  0.00000000000E+00 0.  1.
<mgrwt>
<rscale>  0 0.24563140E+02</rscale>
<asrwt>0</asrwt>
<pdfrwt beam="1">  1        2 0.28445070E-02 0.24563140E+02</pdfrwt>
<pdfrwt beam="2">  1       -2 0.12550877E-02 0.24563140E+02</pdfrwt>
<totfact> 0.25791937E+06</totfact>
</mgrwt>
</event>
<event>
 4    1  0.2126213E+000  0.9965103E+02  0.7546771E-02  0.1281031E+00
         -4   -1    0    0    0  501 -0.00000000000E+00  0.00000000000E+00  0.89069505080E+02  0.89069505080E+02  0.00000000000E+00 0. -1.
          4   -1    0    0  501    0  0.00000000000E+00 -0.00000000000E+00 -0.27872413154E+02  0.27872413154E+02  0.00000000000E+00 0.  1.
        -11    1    1    2    0    0  0.39219374556E+02 -0.29312546887E+02  0.41430363288E+02  0.64139377513E+02  0.00000000000E+00 0. -1.
         11    1    1    2    0    0 -0.39219374556E+02  0.29312546887E+02  0.19766728637E+02  0.52802540721E+02  0.00000000000E+00 0.  1.
<mgrwt>
<rscale>  0 0.99651032E+02</rscale>
<asrwt>0</asrwt>
<pdfrwt beam="2">  1        4 0.42880636E-02 0.99651032E+02</pdfrwt>
<pdfrwt beam="1">  1       -4 0.13703001E-01 0.99651032E+02</pdfrwt>
<totfact> 0.19977555E+04</totfact>
</mgrwt>
</event>
<event>
 4    1  0.2126213E+000  0.3225602E+02  0.7546771E-02  0.1574411E+00
         -4   -1    0    0    0  501 -0.00000000000E+00  0.00000000000E+00  0.33079601385E+02  0.33079601385E+02  0.00000000000E+00 0. -1.
          4   -1    0    0  501    0  0.00000000000E+00 -0.00000000000E+00 -0.78632376235E+01  0.78632376235E+01  0.00000000000E+00 0.  1.
        -11    1    1    2    0    0  0.45819829985E+01 -0.14724716382E+02  0.18602345136E+02  0.24163176225E+02  0.00000000000E+00 0. -1.
         11    1    1    2    0    0 -0.45819829985E+01  0.14724716382E+02  0.66140186251E+01  0.16779662783E+02  0.00000000000E+00 0.  1.
<mgrwt>
<rscale>  0 0.32256024E+02</rscale>
<asrwt>0</asrwt>
<pdfrwt beam="2">  1        4 0.12097289E-02 0.32256024E+02</pdfrwt>
<pdfrwt beam="1">  1       -4 0.50891694E-02 0.32256024E+02</pdfrwt>
<totfact> 0.42360791E+05</totfact>
</mgrwt>
</event>
<event>
 4    1  0.2126213E+000  0.2238104E+02  0.7546771E-02  0.1701744E+00
         -2   -1    0    0    0  501 -0.00000000000E+00  0.00000000000E+00  0.91552262566E+01  0.91552262566E+01  0.00000000000E+00 0.  1.
          2   -1    0    0  501    0  0.00000000000E+00 -0.00000000000E+00 -0.13678281139E+02  0.13678281139E+02  0.00000000000E+00 0. -1.
        -11    1    1    2    0    0 -0.47292463353E+01  0.92906538507E+01  0.18883513251E+01  0.10594710501E+02  0.00000000000E+00 0.  1.
         11    1    1    2    0    0  0.47292463353E+01 -0.92906538507E+01 -0.64114062080E+01  0.12238796895E+02  0.00000000000E+00 0. -1.
<mgrwt>
<rscale>  0 0.22381042E+02</rscale>
<asrwt>0</asrwt>
<pdfrwt beam="2">  1        2 0.21043509E-02 0.22381042E+02</pdfrwt>
<pdfrwt beam="1">  1       -2 0.14084964E-02 0.22381042E+02</pdfrwt>
<totfact> 0.31201392E+06</totfact>
</mgrwt>
</event>
<event>
 4    1  0.2126213E+000  0.3875516E+02  0.7546771E-02  0.1517577E+00
         -2   -1    0    0    0  501 -0.00000000000E+00  0.00000000000E+00  0.38246812336E+01  0.38246812336E+01  0.00000000000E+00 0.  1.
          2   -1    0    0  501    0  0.00000000000E+00 -0.00000000000E+00 -0.98175643346E+02  0.98175643346E+02  0.00000000000E+00 0. -1.
        -13    1    1    2    0    0 -0.14837479618E+02  0.10497319937E+02 -0.64859532147E+02  0.67358024300E+02  0.00000000000E+00 0. -1.
         13    1    1    2    0    0  0.14837479618E+02 -0.10497319937E+02 -0.29491429965E+02  0.34642300279E+02  0.00000000000E+00 0.  1.
<mgrwt>
<rscale>  0 0.38755157E+02</rscale>
<asrwt>0</asrwt>
<pdfrwt beam="2">  1        2 0.15103944E-01 0.38755157E+02</pdfrwt>
<pdfrwt beam="1">  1       -2 0.58841255E-03 0.38755157E+02</pdfrwt>
<totfact> 0.11239092E+06</totfact>
</mgrwt>
</event>
<event>
 4    1  0.2126213E+000  0.4284485E+02  0.7546771E-02  0.1488262E+00
         -2   -1    0    0    0  501 -0.00000000000E+00  0.00000000000E+00  0.58561468941E+01  0.58561468941E+01  0.00000000000E+00 0.  1.
          2   -1    0    0  501    0  0.00000000000E+00 -0.00000000000E+00 -0.78365562862E+02  0.78365562862E+02  0.00000000000E+00 0. -1.
        -13    1    1    2    0    0  0.15191806605E+02 -0.34310108686E+01 -0.65168919217E+02  0.67004110735E+02  0.00000000000E+00 0. -1.
         13    1    1    2    0    0 -0.15191806605E+02  0.34310108686E+01 -0.73404967515E+01  0.17217599021E+02  0.00000000000E+00 0.  1.
<mgrwt>
<rscale>  0 0.42844848E+02</rscale>
<asrwt>0</asrwt>
<pdfrwt beam="2">  1        2 0.12056241E-01 0.42844848E+02</pdfrwt>
<pdfrwt beam="1">  1       -2 0.90094566E-03 0.42844848E+02</pdfrwt>
<totfact> 0.83193511E+05</totfact>
</mgrwt>
</event>
<event>
 4    1  0.2126213E+000  0.2241982E+02  0.7546771E-02  0.1701091E+00
         -2   -1    0    0    0  501 -0.00000000000E+00  0.00000000000E+00  0.37344780762E+01  0.37344780762E+01  0.00000000000E+00 0.  1.
          2   -1    0    0  501    0  0.00000000000E+00 -0.00000000000E+00 -0.33649163994E+02  0.33649163994E+02  0.00000000000E+00 0. -1.
        -13    1    1    2    0    0 -0.60038721998E+01 -0.85147937086E+01 -0.21855350369E+02  0.24211661096E+02  0.00000000000E+00 0. -1.
         13    1    1    2    0    0  0.60038721998E+01  0.85147937086E+01 -0.80593355493E+01  0.13171980974E+02  0.00000000000E+00 0.  1.
<mgrwt>
<rscale>  0 0.22419818E+02</rscale>
<asrwt>0</asrwt>
<pdfrwt beam="2">  1        2 0.51767942E-02 0.22419818E+02</pdfrwt>
<pdfrwt beam="1">  1       -2 0.57453511E-03 0.22419818E+02</pdfrwt>
<totfact> 0.33932399E+06</totfact>
</mgrwt>
</event>
<event>
 4    1  0.2126213E+000  0.2485418E+02  0.7546771E-02  0.1663105E+00
         -4   -1    0    0    0  501 -0.00000000000E+00  0.00000000000E+00  0.70117660535E+01  0.70117660535E+01  0.00000000000E+00 0.  1.
          4   -1    0    0  501    0  0.00000000000E+00 -0.00000000000E+00 -0.22024767916E+02  0.22024767916E+02  0.00000000000E+00 0. -1.
        -13    1    1    2    0    0 -0.97202738234E+01  0.23785457005E+01 -0.16114666044E+02  0.18969018545E+02  0.00000000000E+00 0.  1.
         13    1    1    2    0    0  0.97202738234E+01 -0.23785457005E+01  0.11016641817E+01  0.10067515424E+02  0.00000000000E+00 0. -1.
<mgrwt>
<rscale>  0 0.24854176E+02</rscale>
<asrwt>0</asrwt>
<pdfrwt beam="2">  1        4 0.33884258E-02 0.24854176E+02</pdfrwt>
<pdfrwt beam="1">  1       -4 0.10787333E-02 0.24854176E+02</pdfrwt>
<totfact> 0.79214048E+05</totfact>
</mgrwt>
</event>
<event>
 4    1  0.2126213E+000  0.2588180E+02  0.7546771E-02  0.1648650E+00
          2   -1    0    0  501    0  0.00000000000E+00  0.00000000000E+00  0.77839472906E+01  0.77839472906E+01  0.00000000000E+00 0. -1.
         -2   -1    0    0    0  501 -0.00000000000E+00 -0.00000000000E+00 -0.21514386211E+02  0.21514386211E+02  0.00000000000E+00 0.  1.
        -11    1    1    2    0    0  0.10226259921E+02 -0.53122656556E+01 -0.19980382945E+00  0.11525470920E+02  0.00000000000E+00 0. -1.
         11    1    1    2    0    0 -0.10226259921E+02  0.53122656556E+01 -0.13530635091E+02  0.17772862581E+02  0.00000000000E+00 0.  1.
<mgrwt>
<rscale>  0 0.25881797E+02</rscale>
<asrwt>0</asrwt>
<pdfrwt beam="1">  1        2 0.11975304E-02 0.25881797E+02</pdfrwt>
<pdfrwt beam="2">  1       -2 0.33099055E-02 0.25881797E+02</pdfrwt>
<totfact> 0.21047946E+06</totfact>
</mgrwt>
</event>
<event>
 4    1  0.2126213E+000  0.2914086E+02  0.7546771E-02  0.1607784E+00
          4   -1    0    0  501    0  0.00000000000E+00  0.00000000000E+00  0.14675641788E+02  0.14675641788E+02  0.00000000000E+00 0. -1.
         -4   -1    0    0    0  501 -0.00000000000E+00 -0.00000000000E+00 -0.14465971904E+02  0.14465971904E+02  0.00000000000E+00 0.  1.
        -11    1    1    2    0    0 -0.10830832585E+02  0.60716853802E+01 -0.75193458662E+01  0.14515951918E+02  0.00000000000E+00 0.  1.
         11    1    1    2    0    0  0.10830832585E+02 -0.60716853802E+01  0.77290157506E+01  0.14625661773E+02  0.00000000000E+00 0. -1.
<mgrwt>
<rscale>  0 0.29140859E+02</rscale>
<asrwt>0</asrwt>
<pdfrwt beam="1">  1        4 0.22577911E-02 0.29140859E+02</pdfrwt>
<pdfrwt beam="2">  1       -4 0.22255341E-02 0.29140859E+02</pdfrwt>
<totfact> 0.55743469E+05</totfact>
</mgrwt>
</event>
<event>
 4    1  0.2126213E+000  0.2023302E+02  0.7546771E-02  0.1740733E+00
         -4   -1    0    0    0  501 -0.00000000000E+00  0.00000000000E+00  0.25029320128E+02  0.25029320128E+02  0.00000000000E+00 0.  1.
          4   -1    0    0  501    0  0.00000000000E+00 -0.00000000000E+00 -0.40889558034E+01  0.40889558034E+01  0.00000000000E+00 0. -1.
        -13    1    1    2    0    0 -0.10009618400E+02  0.14501309041E+01  0.10153427296E+02  0.14331344180E+02  0.00000000000E+00 0.  1.
         13    1    1    2    0    0  0.10009618400E+02 -0.14501309041E+01  0.10786937029E+02  0.14786931752E+02  0.00000000000E+00 0. -1.
<mgrwt>
<rscale>  0 0.20233021E+02</rscale>
<asrwt>0</asrwt>
<pdfrwt beam="2">  1        4 0.62907014E-03 0.20233021E+02</pdfrwt>
<pdfrwt beam="1">  1       -4 0.38506646E-02 0.20233021E+02</pdfrwt>
<totfact> 0.12210666E+06</totfact>
</mgrwt>
</event>
<event>
 4    1  0.2126213E+000  0.2054834E+02  0.7546771E-02  0.1734638E+00
         -3   -1    0    0    0  501 -0.00000000000E+00  0.00000000000E+00  0.19974383571E+02  0.19974383571E+02  0.00000000000E+00 0. -1.
          3   -1    0    0  501    0  0.00000000000E+00 -0.00000000000E+00 -0.52846970806E+01  0.52846970806E+01  0.00000000000E+00 0.  1.
        -13    1    1    2    0    0 -0.95849889693E+01 -0.34340764443E+01  0.56532607655E+01  0.11645782578E+02  0.00000000000E+00 0. -1.
         13    1    1    2    0    0  0.95849889693E+01  0.34340764443E+01  0.90364257254E+01  0.13613298074E+02  0.00000000000E+00 0.  1.
<mgrwt>
<rscale>  0 0.20548340E+02</rscale>
<asrwt>0</asrwt>
<pdfrwt beam="2">  1        3 0.81303033E-03 0.20548340E+02</pdfrwt>
<pdfrwt beam="1">  1       -3 0.30729820E-02 0.20548340E+02</pdfrwt>
<totfact> 0.16554181E+06</totfact>
</mgrwt>
</event>
<event>
 4    1  0.2126213E+000  0.3646142E+02  0.7546771E-02  0.1535993E+00
          2   -1    0    0  501    0  0.00000000000E+00  0.00000000000E+00  0.26320551818E+02  0.26320551818E+02  0.00000000000E+00 0.  1.
         -2   -1    0    0    0  501 -0.00000000000E+00 -0.00000000000E+00 -0.12627345671E+02  0.12627345671E+02  0.00000000000E+00 0. -1.
        -11    1    1    2    0    0  0.18185139465E+02 -0.84208589314E+00  0.78879150623E+01  0.19840050656E+02  0.00000000000E+00 0.  1.
         11    1    1    2    0    0 -0.18185139465E+02  0.84208589314E+00  0.58052910853E+01  0.19107846833E+02  0.00000000000E+00 0. -1.
<mgrwt>
<rscale>  0 0.36461416E+02</rscale>
<asrwt>0</asrwt>
<pdfrwt beam="1">  1        2 0.40493157E-02 0.36461416E+02</pdfrwt>
<pdfrwt beam="2">  1       -2 0.19426686E-02 0.36461416E+02</pdfrwt>
<totfact> 0.10317187E+06</totfact>
</mgrwt>
</event>
<event>
 4    1  0.2126213E+000  0.2783854E+02  0.7546771E-02  0.1623288E+00
         -2   -1    0    0    0  501 -0.00000000000E+00  0.00000000000E+00  0.56487701584E+01  0.56487701584E+01  0.00000000000E+00 0.  1.
          2   -1    0    0  501    0  0.00000000000E+00 -0.00000000000E+00 -0.34298804852E+02  0.34298804852E+02  0.00000000000E+00 0. -1.
        -13    1    1    2    0    0  0.24826960503E+01 -0.13172384846E+02 -0.19707711685E+02  0.23834206555E+02  0.00000000000E+00 0. -1.
         13    1    1    2    0    0 -0.24826960503E+01  0.13172384846E+02 -0.89423230085E+01  0.16113368456E+02  0.00000000000E+00 0.  1.
<mgrwt>
<rscale>  0 0.27838539E+02</rscale>
<asrwt>0</asrwt>
<pdfrwt beam="2">  1        2 0.52767392E-02 0.27838539E+02</pdfrwt>
<pdfrwt beam="1">  1       -2 0.86904157E-03 0.27838539E+02</pdfrwt>
<totfact> 0.20552471E+06</totfact>
</mgrwt>
</event>
<event>
 4    1  0.2126213E+000  0.2491313E+02  0.7546771E-02  0.1662253E+00
         -2   -1    0    0    0  501 -0.00000000000E+00  0.00000000000E+00  0.31944184390E+02  0.31944184390E+02  0.00000000000E+00 0. -1.
          2   -1    0    0  501    0  0.00000000000E+00 -0.00000000000E+00 -0.48574093139E+01  0.48574093139E+01  0.00000000000E+00 0.  1.
        -13    1    1    2    0    0 -0.96546199210E+01  0.28307213587E+01  0.24392622652E+02  0.26386070361E+02  0.00000000000E+00 0. -1.
         13    1    1    2    0    0  0.96546199210E+01 -0.28307213587E+01  0.26941524239E+01  0.10415523343E+02  0.00000000000E+00 0.  1.
<mgrwt>
<rscale>  0 0.24913127E+02</rscale>
<asrwt>0</asrwt>
<pdfrwt beam="2">  1        2 0.74729376E-03 0.24913127E+02</pdfrwt>
<pdfrwt beam="1">  1       -2 0.49144898E-02 0.24913127E+02</pdfrwt>
<totfact> 0.22021005E+06</totfact>
</mgrwt>
</event>
<event>
 4    1  0.2126213E+000  0.3149824E+02  0.7546771E-02  0.1582094E+00
          2   -1    0    0  501    0  0.00000000000E+00  0.00000000000E+00  0.91552225213E+02  0.91552225213E+02  0.00000000000E+00 0. -1.
         -2   -1    0    0    0  501 -0.00000000000E+00 -0.00000000000E+00 -0.27092165094E+01  0.27092165094E+01  0.00000000000E+00 0.  1.
        -11    1    1    2    0    0  0.74776550088E+01 -0.10900193905E+02  0.70043638952E+02  0.71280017601E+02  0.00000000000E+00 0. -1.
         11    1    1    2    0    0 -0.74776550088E+01  0.10900193905E+02  0.18799369752E+02  0.22981424122E+02  0.00000000000E+00 0.  1.
<mgrwt>
<rscale>  0 0.31498241E+02</rscale>
<asrwt>0</asrwt>
<pdfrwt beam="1">  1        2 0.14084955E-01 0.31498241E+02</pdfrwt>
<pdfrwt beam="2">  1       -2 0.41680261E-03 0.31498241E+02</pdfrwt>
<totfact> 0.18231704E+06</totfact>
</mgrwt>
</event>
<event>
 4    1  0.2126213E+000  0.2295888E+02  0.7546771E-02  0.1692178E+00
          2   -1    0    0  501    0  0.00000000000E+00  0.00000000000E+00  0.18272212240E+02  0.18272212240E+02  0.00000000000E+00 0.  1.
         -2   -1    0    0    0  501 -0.00000000000E+00 -0.00000000000E+00 -0.72119073043E+01  0.72119073043E+01  0.00000000000E+00 0. -1.
        -13    1    1    2    0    0  0.24910034749E+01  0.96956238469E+01 -0.70629963647E+00  0.10035391336E+02  0.00000000000E+00 0. -1.
         13    1    1    2    0    0 -0.24910034749E+01 -0.96956238469E+01  0.11766604572E+02  0.15448728208E+02  0.00000000000E+00 0.  1.
<mgrwt>
<rscale>  0 0.22958876E+02</rscale>
<asrwt>0</asrwt>
<pdfrwt beam="1">  1        2 0.28111096E-02 0.22958876E+02</pdfrwt>
<pdfrwt beam="2">  1       -2 0.11095242E-02 0.22958876E+02</pdfrwt>
<totfact> 0.30154213E+06</totfact>
</mgrwt>
</event>
<event>
 4    1  0.2126213E+000  0.7575500E+02  0.7546771E-02  0.1341549E+00
          2   -1    0    0  501    0  0.00000000000E+00  0.00000000000E+00  0.76649808527E+02  0.76649808527E+02  0.00000000000E+00 0. -1.
         -2   -1    0    0    0  501 -0.00000000000E+00 -0.00000000000E+00 -0.18717657285E+02  0.18717657285E+02  0.00000000000E+00 0.  1.
        -11    1    1    2    0    0 -0.25241372613E+02  0.20720747018E+02  0.53123338285E+02  0.62358362061E+02  0.00000000000E+00 0. -1.
         11    1    1    2    0    0  0.25241372613E+02 -0.20720747018E+02  0.48088129576E+01  0.33009103751E+02  0.00000000000E+00 0.  1.
<mgrwt>
<rscale>  0 0.75754996E+02</rscale>
<asrwt>0</asrwt>
<pdfrwt beam="1">  1        2 0.11792278E-01 0.75754996E+02</pdfrwt>
<pdfrwt beam="2">  1       -2 0.28796396E-02 0.75754996E+02</pdfrwt>
<totfact> 0.18864609E+05</totfact>
</mgrwt>
</event>
<event>
 4    1  0.2126213E+000  0.2986189E+02  0.7546771E-02  0.1599620E+00
         -2   -1    0    0    0  501 -0.00000000000E+00  0.00000000000E+00  0.74150675293E+01  0.74150675293E+01  0.00000000000E+00 0.  1.
          2   -1    0    0  501    0  0.00000000000E+00 -0.00000000000E+00 -0.30064875049E+02  0.30064875049E+02  0.00000000000E+00 0. -1.
        -11    1    1    2    0    0  0.14587281660E+02  0.31227951867E+01 -0.10538637191E+02  0.18264816173E+02  0.00000000000E+00 0. -1.
         11    1    1    2    0    0 -0.14587281660E+02 -0.31227951867E+01 -0.12111170329E+02  0.19215126405E+02  0.00000000000E+00 0.  1.
<mgrwt>
<rscale>  0 0.29861887E+02</rscale>
<asrwt>0</asrwt>
<pdfrwt beam="2">  1        2 0.46253654E-02 0.29861887E+02</pdfrwt>
<pdfrwt beam="1">  1       -2 0.11407796E-02 0.29861887E+02</pdfrwt>
<totfact> 0.17098034E+06</totfact>
</mgrwt>
</event>
<event>
 4    1  0.2126213E+000  0.2738946E+02  0.7546771E-02  0.1628877E+00
         -2   -1    0    0    0  501 -0.00000000000E+00  0.00000000000E+00  0.33327922508E+01  0.33327922508E+01  0.00000000000E+00 0. -1.
          2   -1    0    0  501    0  0.00000000000E+00 -0.00000000000E+00 -0.56272843393E+02  0.56272843393E+02  0.00000000000E+00 0.  1.
        -11    1    1    2    0    0 -0.13494708924E+02  0.21962454609E+01 -0.24763341636E+02  0.28286989095E+02  0.00000000000E+00 0. -1.
         11    1    1    2    0    0  0.13494708924E+02 -0.21962454609E+01 -0.28176709506E+02  0.31318646549E+02  0.00000000000E+00 0.  1.
<mgrwt>
<rscale>  0 0.27389465E+02</rscale>
<asrwt>0</asrwt>
<pdfrwt beam="2">  1        2 0.86573607E-02 0.27389465E+02</pdfrwt>
<pdfrwt beam="1">  1       -2 0.51273726E-03 0.27389465E+02</pdfrwt>
<totfact> 0.22999004E+06</totfact>
</mgrwt>
</event>
<event>
 4    1  0.2126213E+000  0.3900742E+02  0.7546771E-02  0.1515645E+00
         -2   -1    0    0    0  501 -0.00000000000E+00  0.00000000000E+00  0.49864548674E+01  0.49864548674E+01  0.00000000000E+00 0.  1.
          2   -1    0    0  501    0  0.00000000000E+00 -0.00000000000E+00 -0.76285619986E+02  0.76285619986E+02  0.00000000000E+00 0. -1.
        -13    1    1    2    0    0  0.71986859648E+01  0.10196909569E+02 -0.66874105050E+02  0.68028993603E+02  0.00000000000E+00 0. -1.
         13    1    1    2    0    0 -0.71986859648E+01 -0.10196909569E+02 -0.44250600680E+01  0.13243081250E+02  0.00000000000E+00 0.  1.
<mgrwt>
<rscale>  0 0.39007425E+02</rscale>
<asrwt>0</asrwt>
<pdfrwt beam="2">  1        2 0.11736249E-01 0.39007425E+02</pdfrwt>
<pdfrwt beam="1">  1       -2 0.76714693E-03 0.39007425E+02</pdfrwt>
<totfact> 0.10431286E+06</totfact>
</mgrwt>
</event>
<event>
 4    1  0.2126213E+000  0.2164684E+02  0.7546771E-02  0.1714432E+00
          2   -1    0    0  501    0  0.00000000000E+00  0.00000000000E+00  0.19982500484E+01  0.19982500484E+01  0.00000000000E+00 0. -1.
         -2   -1    0    0    0  501 -0.00000000000E+00 -0.00000000000E+00 -0.58624489589E+02  0.58624489589E+02  0.00000000000E+00 0.  1.
        -11    1    1    2    0    0 -0.98409467178E+01  0.44594012936E+01 -0.26507052260E+02  0.28624365700E+02  0.00000000000E+00 0. -1.
         11    1    1    2    0    0  0.98409467178E+01 -0.44594012936E+01 -0.30119187280E+02  0.31998373937E+02  0.00000000000E+00 0.  1.
<mgrwt>
<rscale>  0 0.21646837E+02</rscale>
<asrwt>0</asrwt>
<pdfrwt beam="1">  1        2 0.30742308E-03 0.21646837E+02</pdfrwt>
<pdfrwt beam="2">  1       -2 0.90191525E-02 0.21646837E+02</pdfrwt>
<totfact> 0.27798275E+06</totfact>
</mgrwt>
</event>
<event>
 4    1  0.2126213E+000  0.1181199E+03  0.7546771E-02  0.1246231E+00
          4   -1    0    0  501    0  0.00000000000E+00  0.00000000000E+00  0.26474903128E+02  0.26474903128E+02  0.00000000000E+00 0. -1.
         -4   -1    0    0    0  501 -0.00000000000E+00 -0.00000000000E+00 -0.13175042300E+03  0.13175042300E+03  0.00000000000E+00 0.  1.
        -13    1    1    2    0    0  0.28583018954E+01  0.55273423561E+02 -0.25030467507E+02  0.60744098853E+02  0.00000000000E+00 0.  1.
         13    1    1    2    0    0 -0.28583018954E+01 -0.55273423561E+02 -0.80245052362E+02  0.97481227272E+02  0.00000000000E+00 0. -1.
<mgrwt>
<rscale>  0 0.11811993E+03</rscale>
<asrwt>0</asrwt>
<pdfrwt beam="1">  1        4 0.40730619E-02 0.11811993E+03</pdfrwt>
<pdfrwt beam="2">  1       -4 0.20269296E-01 0.11811993E+03</pdfrwt>
<totfact> 0.11446928E+04</totfact>
</mgrwt>
</event>
<event>
 4    1  0.2126213E+000  0.1481920E+03  0.7546771E-02  0.1202712E+00
         -1   -1    0    0    0  501 -0.00000000000E+00  0.00000000000E+00  0.42899482678E+02  0.42899482678E+02  0.00000000000E+00 0. -1.
          1   -1    0    0  501    0  0.00000000000E+00 -0.00000000000E+00 -0.12797871485E+03  0.12797871485E+03  0.00000000000E+00 0.  1.
        -11    1    1    2    0    0  0.55223343826E+02  0.28582169429E+02  0.39236404313E+01  0.62305321336E+02  0.00000000000E+00 0. -1.
         11    1    1    2    0    0 -0.55223343826E+02 -0.28582169429E+02 -0.89002872599E+02  0.10857287619E+03  0.00000000000E+00 0.  1.
<mgrwt>
<rscale>  0 0.14819205E+03</rscale>
<asrwt>0</asrwt>
<pdfrwt beam="2">  1        1 0.19689033E-01 0.14819205E+03</pdfrwt>
<pdfrwt beam="1">  1       -1 0.65999204E-02 0.14819205E+03</pdfrwt>
<totfact> 0.28006137E+04</totfact>
</mgrwt>
</event>
<event>
 4    1  0.2126213E+000  0.2228965E+02  0.7546771E-02  0.1703290E+00
          4   -1    0    0  501    0  0.00000000000E+00  0.00000000000E+00  0.15985347505E+01  0.15985347505E+01  0.00000000000E+00 0.  1.
         -4   -1    0    0    0  501 -0.00000000000E+00 -0.00000000000E+00 -0.77700631829E+02  0.77700631829E+02  0.00000000000E+00 0. -1.
        -13    1    1    2    0    0 -0.62805661927E+01 -0.85205083291E+01 -0.50458376938E+02  0.51556690905E+02  0.00000000000E+00 0. -1.
         13    1    1    2    0    0  0.62805661927E+01  0.85205083291E+01 -0.25643720141E+02  0.27742475674E+02  0.00000000000E+00 0.  1.
<mgrwt>
<rscale>  0 0.22289653E+02</rscale>
<asrwt>0</asrwt>
<pdfrwt beam="1">  1        4 0.24592851E-03 0.22289653E+02</pdfrwt>
<pdfrwt beam="2">  1       -4 0.11953939E-01 0.22289653E+02</pdfrwt>
<totfact> 0.83634331E+05</totfact>
</mgrwt>
</event>
<event>
 4    1  0.2126213E+000  0.2222930E+02  0.7546771E-02  0.1704316E+00
          2   -1    0    0  501    0  0.00000000000E+00  0.00000000000E+00  0.17329937221E+01  0.17329937221E+01  0.00000000000E+00 0. -1.
         -2   -1    0    0    0  501 -0.00000000000E+00 -0.00000000000E+00 -0.71284391323E+02  0.71284391323E+02  0.00000000000E+00 0.  1.
        -13    1    1    2    0    0  0.10956327319E+02 -0.18437765291E+01 -0.33764434875E+02  0.35545431248E+02  0.00000000000E+00 0. -1.
         13    1    1    2    0    0 -0.10956327319E+02  0.18437765291E+01 -0.35786962726E+02  0.37471953797E+02  0.00000000000E+00 0.  1.
<mgrwt>
<rscale>  0 0.22229296E+02</rscale>
<asrwt>0</asrwt>
<pdfrwt beam="1">  1        2 0.26661443E-03 0.22229296E+02</pdfrwt>
<pdfrwt beam="2">  1       -2 0.10966829E-01 0.22229296E+02</pdfrwt>
<totfact> 0.25330319E+06</totfact>
</mgrwt>
</event>
<event>
 4    1  0.2126213E+000  0.1348244E+03  0.7546771E-02  0.1220468E+00
         -4   -1    0    0    0  501 -0.00000000000E+00  0.00000000000E+00  0.55825816574E+03  0.55825816574E+03  0.00000000000E+00 0.  1.
          4   -1    0    0  501    0  0.00000000000E+00 -0.00000000000E+00 -0.81403261079E+01  0.81403261079E+01  0.00000000000E+00 0. -1.
        -11    1    1    2    0    0 -0.64121819120E+01  0.67057100122E+02  0.26423957280E+03  0.27269089201E+03  0.00000000000E+00 0.  1.
         11    1    1    2    0    0  0.64121819120E+01 -0.67057100122E+02  0.28587826684E+03  0.29370759984E+03  0.00000000000E+00 0. -1.
<mgrwt>
<rscale>  0 0.13482438E+03</rscale>
<asrwt>0</asrwt>
<pdfrwt beam="2">  1        4 0.12523583E-02 0.13482438E+03</pdfrwt>
<pdfrwt beam="1">  1       -4 0.85885842E-01 0.13482438E+03</pdfrwt>
<totfact> 0.41447237E+03</totfact>
</mgrwt>
</event>
<event>
 4    1  0.2126213E+000  0.2010867E+02  0.7546771E-02  0.1743176E+00
          3   -1    0    0  501    0  0.00000000000E+00  0.00000000000E+00  0.10154853518E+02  0.10154853518E+02  0.00000000000E+00 0.  1.
         -3   -1    0    0    0  501 -0.00000000000E+00 -0.00000000000E+00 -0.99548127817E+01  0.99548127817E+01  0.00000000000E+00 0. -1.
        -11    1    1    2    0    0 -0.59120432029E+01  0.81222842837E+01  0.50735953706E+00  0.10058885153E+02  0.00000000000E+00 0. -1.
         11    1    1    2    0    0  0.59120432029E+01 -0.81222842837E+01 -0.30731880071E+00  0.10050781147E+02  0.00000000000E+00 0.  1.
<mgrwt>
<rscale>  0 0.20108671E+02</rscale>
<asrwt>0</asrwt>
<pdfrwt beam="1">  1        3 0.15622852E-02 0.20108671E+02</pdfrwt>
<pdfrwt beam="2">  1       -3 0.15315097E-02 0.20108671E+02</pdfrwt>
<totfact> 0.17670752E+06</totfact>
</mgrwt>
</event>
<event>
 4    1  0.2126213E+000  0.2148774E+02  0.7546771E-02  0.1717265E+00
         -2   -1    0    0    0  501 -0.00000000000E+00  0.00000000000E+00  0.11186469114E+02  0.11186469114E+02  0.00000000000E+00 0. -1.
          2   -1    0    0  501    0  0.00000000000E+00 -0.00000000000E+00 -0.10318779381E+02  0.10318779381E+02  0.00000000000E+00 0.  1.
        -13    1    1    2    0    0  0.10092364379E+02  0.31661593005E+01  0.23196106306E+01  0.10828710771E+02  0.00000000000E+00 0. -1.
         13    1    1    2    0    0 -0.10092364379E+02 -0.31661593005E+01 -0.14519208970E+01  0.10676537724E+02  0.00000000000E+00 0.  1.
<mgrwt>
<rscale>  0 0.21487737E+02</rscale>
<asrwt>0</asrwt>
<pdfrwt beam="2">  1        2 0.15875045E-02 0.21487737E+02</pdfrwt>
<pdfrwt beam="1">  1       -2 0.17209952E-02 0.21487737E+02</pdfrwt>
<totfact> 0.33530629E+06</totfact>
</mgrwt>
</event>
<event>
 4    1  0.2126213E+000  0.4941104E+02  0.7546771E-02  0.1448544E+00
          1   -1    0    0  501    0  0.00000000000E+00  0.00000000000E+00  0.67182485562E+01  0.67182485562E+01  0.00000000000E+00 0.  1.
         -1   -1    0    0    0  501 -0.00000000000E+00 -0.00000000000E+00 -0.90851453167E+02  0.90851453167E+02  0.00000000000E+00 0. -1.
        -13    1    1    2    0    0 -0.13944119750E+02  0.46957549764E+01 -0.28771047766E+01  0.14992208720E+02  0.00000000000E+00 0.  1.
         13    1    1    2    0    0  0.13944119750E+02 -0.46957549764E+01 -0.81256099834E+02  0.82577493003E+02  0.00000000000E+00 0. -1.
<mgrwt>
<rscale>  0 0.49411037E+02</rscale>
<asrwt>0</asrwt>
<pdfrwt beam="1">  1        1 0.10335768E-02 0.49411037E+02</pdfrwt>
<pdfrwt beam="2">  1       -1 0.13977146E-01 0.49411037E+02</pdfrwt>
<totfact> 0.38921353E+05</totfact>
</mgrwt>
</event>
<event>
 4    1  0.2126213E+000  0.2957784E+02  0.7546771E-02  0.1602803E+00
          2   -1    0    0  501    0  0.00000000000E+00  0.00000000000E+00  0.29833500826E+01  0.29833500826E+01  0.00000000000E+00 0.  1.
         -2   -1    0    0    0  501 -0.00000000000E+00 -0.00000000000E+00 -0.73310901715E+02  0.73310901715E+02  0.00000000000E+00 0. -1.
        -13    1    1    2    0    0 -0.12724288870E+02  0.47055781537E+01 -0.19977446410E+02  0.24148464922E+02  0.00000000000E+00 0.  1.
         13    1    1    2    0    0  0.12724288870E+02 -0.47055781537E+01 -0.50350105222E+02  0.52145786876E+02  0.00000000000E+00 0. -1.
<mgrwt>
<rscale>  0 0.29577835E+02</rscale>
<asrwt>0</asrwt>
<pdfrwt beam="1">  1        2 0.45897701E-03 0.29577835E+02</pdfrwt>
<pdfrwt beam="2">  1       -2 0.11278599E-01 0.29577835E+02</pdfrwt>
<totfact> 0.13182941E+06</totfact>
</mgrwt>
</event>
<event>
 4    1  0.2126213E+000  0.2938345E+02  0.7546771E-02  0.1605006E+00
         -2   -1    0    0    0  501 -0.00000000000E+00  0.00000000000E+00  0.73794751116E+01  0.73794751116E+01  0.00000000000E+00 0. -1.
          2   -1    0    0  501    0  0.00000000000E+00 -0.00000000000E+00 -0.29249606620E+02  0.29249606620E+02  0.00000000000E+00 0.  1.
        -13    1    1    2    0    0  0.90494845253E+01 -0.11414439300E+02 -0.85488491162E+01  0.16889802128E+02  0.00000000000E+00 0. -1.
         13    1    1    2    0    0 -0.90494845253E+01  0.11414439300E+02 -0.13321282392E+02  0.19739279604E+02  0.00000000000E+00 0.  1.
<mgrwt>
<rscale>  0 0.29383447E+02</rscale>
<asrwt>0</asrwt>
<pdfrwt beam="2">  1        2 0.44999395E-02 0.29383447E+02</pdfrwt>
<pdfrwt beam="1">  1       -2 0.11353039E-02 0.29383447E+02</pdfrwt>
<totfact> 0.17713947E+06</totfact>
</mgrwt>
</event>
<event>
 4    1  0.2126213E+000  0.2108340E+02  0.7546771E-02  0.1724604E+00
          2   -1    0    0  501    0  0.00000000000E+00  0.00000000000E+00  0.63685556925E+02  0.63685556925E+02  0.00000000000E+00 0.  1.
         -2   -1    0    0    0  501 -0.00000000000E+00 -0.00000000000E+00 -0.17449388089E+01  0.17449388089E+01  0.00000000000E+00 0. -1.
        -11    1    1    2    0    0 -0.38975087226E+01  0.93148318354E+01  0.40368443960E+02  0.41612112829E+02  0.00000000000E+00 0.  1.
         11    1    1    2    0    0  0.38975087226E+01 -0.93148318354E+01  0.21572174156E+02  0.23818382905E+02  0.00000000000E+00 0. -1.
<mgrwt>
<rscale>  0 0.21083396E+02</rscale>
<asrwt>0</asrwt>
<pdfrwt beam="1">  1        2 0.97977762E-02 0.21083396E+02</pdfrwt>
<pdfrwt beam="2">  1       -2 0.26845217E-03 0.21083396E+02</pdfrwt>
<totfact> 0.42837488E+06</totfact>
</mgrwt>
</event>
<event>
 4    1  0.2126213E+000  0.3649163E+02  0.7546771E-02  0.1535740E+00
          3   -1    0    0  501    0  0.00000000000E+00  0.00000000000E+00  0.64037346743E+02  0.64037346743E+02  0.00000000000E+00 0. -1.
         -3   -1    0    0    0  501 -0.00000000000E+00 -0.00000000000E+00 -0.51986808190E+01  0.51986808190E+01  0.00000000000E+00 0.  1.
        -13    1    1    2    0    0  0.10296317492E+02  0.80122726363E+01  0.53620227881E+02  0.55184594813E+02  0.00000000000E+00 0. -1.
         13    1    1    2    0    0 -0.10296317492E+02 -0.80122726363E+01  0.52184380439E+01  0.14051432750E+02  0.00000000000E+00 0.  1.
<mgrwt>
<rscale>  0 0.36491628E+02</rscale>
<asrwt>0</asrwt>
<pdfrwt beam="1">  1        3 0.98518990E-02 0.36491628E+02</pdfrwt>
<pdfrwt beam="2">  1       -3 0.79979709E-03 0.36491628E+02</pdfrwt>
<totfact> 0.39013528E+05</totfact>
</mgrwt>
</event>
<event>
 4    1  0.2126213E+000  0.5528715E+02  0.7546771E-02  0.1418746E+00
          2   -1    0    0  501    0  0.00000000000E+00  0.00000000000E+00  0.37612027851E+01  0.37612027851E+01  0.00000000000E+00 0.  1.
         -2   -1    0    0    0  501 -0.00000000000E+00 -0.00000000000E+00 -0.20317098562E+03  0.20317098562E+03  0.00000000000E+00 0. -1.
        -13    1    1    2    0    0 -0.44156169525E+01 -0.25452461458E+02 -0.13653773807E+03  0.13895999203E+03  0.00000000000E+00 0. -1.
         13    1    1    2    0    0  0.44156169525E+01  0.25452461458E+02 -0.62872044772E+02  0.67972196383E+02  0.00000000000E+00 0.  1.
<mgrwt>
<rscale>  0 0.55287151E+02</rscale>
<asrwt>0</asrwt>
<pdfrwt beam="1">  1        2 0.57864672E-03 0.55287151E+02</pdfrwt>
<pdfrwt beam="2">  1       -2 0.31257067E-01 0.55287151E+02</pdfrwt>
<totfact> 0.21855981E+05</totfact>
</mgrwt>
</event>
<event>
 4    1  0.2126213E+000  0.2428306E+02  0.7546771E-02  0.1671518E+00
         -2   -1    0    0    0  501 -0.00000000000E+00  0.00000000000E+00  0.28234469488E+01  0.28234469488E+01  0.00000000000E+00 0. -1.
          2   -1    0    0  501    0  0.00000000000E+00 -0.00000000000E+00 -0.52211615551E+02  0.52211615551E+02  0.00000000000E+00 0.  1.
        -13    1    1    2    0    0 -0.11554532105E+02 -0.21995535349E+01 -0.31520223329E+02  0.33643271640E+02  0.00000000000E+00 0. -1.
         13    1    1    2    0    0  0.11554532105E+02  0.21995535349E+01 -0.17867945274E+02  0.21391790860E+02  0.00000000000E+00 0.  1.
<mgrwt>
<rscale>  0 0.24283058E+02</rscale>
<asrwt>0</asrwt>
<pdfrwt beam="2">  1        2 0.80325557E-02 0.24283058E+02</pdfrwt>
<pdfrwt beam="1">  1       -2 0.43437648E-03 0.24283058E+02</pdfrwt>
<totfact> 0.30049058E+06</totfact>
</mgrwt>
</event>
<event>
 4    1  0.2126213E+000  0.2712087E+02  0.7546771E-02  0.1632284E+00
         -2   -1    0    0    0  501 -0.00000000000E+00  0.00000000000E+00  0.16012290783E+02  0.16012290783E+02  0.00000000000E+00 0. -1.
          2   -1    0    0  501    0  0.00000000000E+00 -0.00000000000E+00 -0.11484012308E+02  0.11484012308E+02  0.00000000000E+00 0.  1.
        -11    1    1    2    0    0  0.89540813371E+01 -0.99607780676E+01  0.44130734233E+01  0.14102052664E+02  0.00000000000E+00 0. -1.
         11    1    1    2    0    0 -0.89540813371E+01  0.99607780676E+01  0.11520505162E+00  0.13394250427E+02  0.00000000000E+00 0.  1.
<mgrwt>
<rscale>  0 0.27120866E+02</rscale>
<asrwt>0</asrwt>
<pdfrwt beam="2">  1        2 0.17667711E-02 0.27120866E+02</pdfrwt>
<pdfrwt beam="1">  1       -2 0.24634294E-02 0.27120866E+02</pdfrwt>
<totfact> 0.19492985E+06</totfact>
</mgrwt>
</event>
<event>
 4    1  0.2126213E+000  0.6184201E+02  0.7546771E-02  0.1390260E+00
          2   -1    0    0  501    0  0.00000000000E+00  0.00000000000E+00  0.60543902831E+02  0.60543902831E+02  0.00000000000E+00 0. -1.
         -2   -1    0    0    0  501 -0.00000000000E+00 -0.00000000000E+00 -0.15791986232E+02  0.15791986232E+02  0.00000000000E+00 0.  1.
        -13    1    1    2    0    0 -0.95436347453E+01 -0.19327212581E+02  0.49741303215E+02  0.54210878575E+02  0.00000000000E+00 0. -1.
         13    1    1    2    0    0  0.95436347453E+01  0.19327212581E+02 -0.49893866154E+01  0.22125010488E+02  0.00000000000E+00 0.  1.
<mgrwt>
<rscale>  0 0.61842008E+02</rscale>
<asrwt>0</asrwt>
<pdfrwt beam="1">  1        2 0.93144465E-02 0.61842008E+02</pdfrwt>
<pdfrwt beam="2">  1       -2 0.24295364E-02 0.61842008E+02</pdfrwt>
<totfact> 0.30652660E+05</totfact>
</mgrwt>
</event>
<event>
 4    1  0.2126213E+000  0.2770059E+02  0.7546771E-02  0.1624991E+00
         -2   -1    0    0    0  501 -0.00000000000E+00  0.00000000000E+00  0.40220500511E+01  0.40220500511E+01  0.00000000000E+00 0.  1.
          2   -1    0    0  501    0  0.00000000000E+00 -0.00000000000E+00 -0.47694735025E+02  0.47694735025E+02  0.00000000000E+00 0. -1.
        -11    1    1    2    0    0 -0.93033409470E+01 -0.77354199178E+01 -0.34421829678E+02  0.36486315688E+02  0.00000000000E+00 0. -1.
         11    1    1    2    0    0  0.93033409470E+01  0.77354199178E+01 -0.92508552955E+01  0.15230469388E+02  0.00000000000E+00 0.  1.
<mgrwt>
<rscale>  0 0.27700586E+02</rscale>
<asrwt>0</asrwt>
<pdfrwt beam="2">  1        2 0.73376513E-02 0.27700586E+02</pdfrwt>
<pdfrwt beam="1">  1       -2 0.61877695E-03 0.27700586E+02</pdfrwt>
<totfact> 0.21796530E+06</totfact>
</mgrwt>
</event>
<event>
 4    1  0.2126213E+000  0.2348355E+02  0.7546771E-02  0.1683790E+00
         -2   -1    0    0    0  501 -0.00000000000E+00  0.00000000000E+00  0.46182162883E+01  0.46182162883E+01  0.00000000000E+00 0.  1.
          2   -1    0    0  501    0  0.00000000000E+00 -0.00000000000E+00 -0.29853355482E+02  0.29853355482E+02  0.00000000000E+00 0. -1.
        -13    1    1    2    0    0 -0.76540117081E+01  0.65759744520E+01 -0.21430114094E+02  0.23687066625E+02  0.00000000000E+00 0. -1.
         13    1    1    2    0    0  0.76540117081E+01 -0.65759744520E+01 -0.38050251000E+01  0.10784505145E+02  0.00000000000E+00 0.  1.
<mgrwt>
<rscale>  0 0.23483548E+02</rscale>
<asrwt>0</asrwt>
<pdfrwt beam="2">  1        2 0.45928239E-02 0.23483548E+02</pdfrwt>
<pdfrwt beam="1">  1       -2 0.71049482E-03 0.23483548E+02</pdfrwt>
<totfact> 0.30080141E+06</totfact>
</mgrwt>
</event>
<event>
 4    1  0.2126213E+000  0.3252314E+02  0.7546771E-02  0.1571764E+00
          3   -1    0    0  501    0  0.00000000000E+00  0.00000000000E+00  0.71403345511E+02  0.71403345511E+02  0.00000000000E+00 0.  1.
         -3   -1    0    0    0  501 -0.00000000000E+00 -0.00000000000E+00 -0.37034500922E+01  0.37034500922E+01  0.00000000000E+00 0. -1.
        -11    1    1    2    0    0 -0.12613577894E+02  0.66216136793E+01  0.15741087542E+02  0.21230401598E+02  0.00000000000E+00 0. -1.
         11    1    1    2    0    0  0.12613577894E+02 -0.66216136793E+01  0.51958807877E+02  0.53876394005E+02  0.00000000000E+00 0.  1.
<mgrwt>
<rscale>  0 0.32523144E+02</rscale>
<asrwt>0</asrwt>
<pdfrwt beam="1">  1        3 0.10985129E-01 0.32523144E+02</pdfrwt>
<pdfrwt beam="2">  1       -3 0.56976161E-03 0.32523144E+02</pdfrwt>
<totfact> 0.50503366E+05</totfact>
</mgrwt>
</event>
<event>
 4    1  0.2126213E+000  0.2391330E+02  0.7546771E-02  0.1677120E+00
         -4   -1    0    0    0  501 -0.00000000000E+00  0.00000000000E+00  0.14566991797E+02  0.14566991797E+02  0.00000000000E+00 0.  1.
          4   -1    0    0  501    0  0.00000000000E+00 -0.00000000000E+00 -0.98140708150E+01  0.98140708150E+01  0.00000000000E+00 0. -1.
        -13    1    1    2    0    0  0.10474073683E+02  0.32036603788E+01 -0.25123124822E+01  0.11237498536E+02  0.00000000000E+00 0. -1.
         13    1    1    2    0    0 -0.10474073683E+02 -0.32036603788E+01  0.72652334639E+01  0.13143564076E+02  0.00000000000E+00 0.  1.
<mgrwt>
<rscale>  0 0.23913301E+02</rscale>
<asrwt>0</asrwt>
<pdfrwt beam="2">  1        4 0.15098570E-02 0.23913301E+02</pdfrwt>
<pdfrwt beam="1">  1       -4 0.22410757E-02 0.23913301E+02</pdfrwt>
<totfact> 0.87755447E+05</totfact>
</mgrwt>
</event>
<event>
 4    1  0.2126213E+000  0.2627328E+02  0.7546771E-02  0.1643359E+00
          2   -1    0    0  501    0  0.00000000000E+00  0.00000000000E+00  0.10443218577E+02  0.10443218577E+02  0.00000000000E+00 0. -1.
         -2   -1    0    0    0  501 -0.00000000000E+00 -0.00000000000E+00 -0.16524720987E+02  0.16524720987E+02  0.00000000000E+00 0.  1.
        -11    1    1    2    0    0 -0.94615418322E+01  0.80074248778E+01  0.14253412416E+01  0.12476827508E+02  0.00000000000E+00 0. -1.
         11    1    1    2    0    0  0.94615418322E+01 -0.80074248778E+01 -0.75068436510E+01  0.14491112056E+02  0.00000000000E+00 0.  1.
<mgrwt>
<rscale>  0 0.26273277E+02</rscale>
<asrwt>0</asrwt>
<pdfrwt beam="1">  1        2 0.16066490E-02 0.26273277E+02</pdfrwt>
<pdfrwt beam="2">  1       -2 0.25422648E-02 0.26273277E+02</pdfrwt>
<totfact> 0.20862189E+06</totfact>
</mgrwt>
</event>
<event>
 4    1  0.2126213E+000  0.2355935E+02  0.7546771E-02  0.1682601E+00
          1   -1    0    0  501    0  0.00000000000E+00  0.00000000000E+00  0.79326582672E+02  0.79326582672E+02  0.00000000000E+00 0. -1.
         -1   -1    0    0    0  501 -0.00000000000E+00 -0.00000000000E+00 -0.17492331101E+01  0.17492331101E+01  0.00000000000E+00 0.  1.
        -11    1    1    2    0    0 -0.16549747425E+01  0.11586652887E+02  0.43368661000E+02  0.44920265176E+02  0.00000000000E+00 0. -1.
         11    1    1    2    0    0  0.16549747425E+01 -0.11586652887E+02  0.34208688562E+02  0.36155550607E+02  0.00000000000E+00 0.  1.
<mgrwt>
<rscale>  0 0.23559345E+02</rscale>
<asrwt>0</asrwt>
<pdfrwt beam="1">  1        1 0.12204087E-01 0.23559345E+02</pdfrwt>
<pdfrwt beam="2">  1       -1 0.26911285E-03 0.23559345E+02</pdfrwt>
<totfact> 0.29999192E+06</totfact>
</mgrwt>
</event>
<event>
 4    1  0.2126213E+000  0.2064626E+02  0.7546771E-02  0.1732774E+00
         -3   -1    0    0    0  501 -0.00000000000E+00  0.00000000000E+00  0.73275932651E+02  0.73275932651E+02  0.00000000000E+00 0.  1.
          3   -1    0    0  501    0  0.00000000000E+00 -0.00000000000E+00 -0.14543254381E+01  0.14543254381E+01  0.00000000000E+00 0. -1.
        -13    1    1    2    0    0  0.70574276120E+01  0.73354209898E+01  0.42129031523E+02  0.43341331113E+02  0.00000000000E+00 0.  1.
         13    1    1    2    0    0 -0.70574276120E+01 -0.73354209898E+01  0.29692575690E+02  0.31388926976E+02  0.00000000000E+00 0. -1.
<mgrwt>
<rscale>  0 0.20646264E+02</rscale>
<asrwt>0</asrwt>
<pdfrwt beam="2">  1        3 0.22374243E-03 0.20646264E+02</pdfrwt>
<pdfrwt beam="1">  1       -3 0.11273218E-01 0.20646264E+02</pdfrwt>
<totfact> 0.14119727E+06</totfact>
</mgrwt>
</event>
<event>
 4    1  0.2126213E+000  0.2164308E+02  0.7546771E-02  0.1714499E+00
         -2   -1    0    0    0  501 -0.00000000000E+00  0.00000000000E+00  0.13760508955E+01  0.13760508955E+01  0.00000000000E+00 0. -1.
          2   -1    0    0  501    0  0.00000000000E+00 -0.00000000000E+00 -0.85102788768E+02  0.85102788768E+02  0.00000000000E+00 0.  1.
        -11    1    1    2    0    0 -0.91710290951E+01  0.41865570539E+01 -0.57579519254E+02  0.58455419527E+02  0.00000000000E+00 0.  1.
         11    1    1    2    0    0  0.91710290951E+01 -0.41865570539E+01 -0.26147218619E+02  0.28023420136E+02  0.00000000000E+00 0. -1.
<mgrwt>
<rscale>  0 0.21643084E+02</rscale>
<asrwt>0</asrwt>
<pdfrwt beam="2">  1        2 0.13092738E-01 0.21643084E+02</pdfrwt>
<pdfrwt beam="1">  1       -2 0.21170011E-03 0.21643084E+02</pdfrwt>
<totfact> 0.42723905E+06</totfact>
</mgrwt>
</event>
<event>
 4    1  0.2126213E+000  0.2172737E+02  0.7546771E-02  0.1713010E+00
          2   -1    0    0  501    0  0.00000000000E+00  0.00000000000E+00  0.67136295345E+02  0.67136295345E+02  0.00000000000E+00 0. -1.
         -2   -1    0    0    0  501 -0.00000000000E+00 -0.00000000000E+00 -0.17579120421E+01  0.17579120421E+01  0.00000000000E+00 0.  1.
        -11    1    1    2    0    0 -0.89986961032E+01  0.48757817491E+01  0.44239927550E+02  0.45408379941E+02  0.00000000000E+00 0. -1.
         11    1    1    2    0    0  0.89986961032E+01 -0.48757817491E+01  0.21138455753E+02  0.23485827446E+02  0.00000000000E+00 0.  1.
<mgrwt>
<rscale>  0 0.21727375E+02</rscale>
<asrwt>0</asrwt>
<pdfrwt beam="1">  1        2 0.10328659E-01 0.21727375E+02</pdfrwt>
<pdfrwt beam="2">  1       -2 0.27044806E-03 0.21727375E+02</pdfrwt>
<totfact> 0.40419539E+06</totfact>
</mgrwt>
</event>
<event>
 4    1  0.2126213E+000  0.2567681E+02  0.7546771E-02  0.1651467E+00
         -2   -1    0    0    0  501 -0.00000000000E+00  0.00000000000E+00  0.16929352829E+01  0.16929352829E+01  0.00000000000E+00 0.  1.
          2   -1    0    0  501    0  0.00000000000E+00 -0.00000000000E+00 -0.97360309767E+02  0.97360309767E+02  0.00000000000E+00 0. -1.
        -13    1    1    2    0    0 -0.11960358796E+02  0.39917333999E+00 -0.65768919527E+02  0.66848786807E+02  0.00000000000E+00 0. -1.
         13    1    1    2    0    0  0.11960358796E+02 -0.39917333999E+00 -0.29898454957E+02  0.32204458243E+02  0.00000000000E+00 0.  1.
<mgrwt>
<rscale>  0 0.25676815E+02</rscale>
<asrwt>0</asrwt>
<pdfrwt beam="2">  1        2 0.14978512E-01 0.25676815E+02</pdfrwt>
<pdfrwt beam="1">  1       -2 0.26045154E-03 0.25676815E+02</pdfrwt>
<totfact> 0.29843874E+06</totfact>
</mgrwt>
</event>
<event>
 4    1  0.2126213E+000  0.4206639E+02  0.7546771E-02  0.1493533E+00
         -2   -1    0    0    0  501 -0.00000000000E+00  0.00000000000E+00  0.21128896633E+02  0.21128896633E+02  0.00000000000E+00 0.  1.
          2   -1    0    0  501    0  0.00000000000E+00 -0.00000000000E+00 -0.20937925066E+02  0.20937925066E+02  0.00000000000E+00 0. -1.
        -11    1    1    2    0    0  0.88735859163E+01  0.18927238712E+02 -0.22314163902E+01  0.21022847366E+02  0.00000000000E+00 0.  1.
         11    1    1    2    0    0 -0.88735859163E+01 -0.18927238712E+02  0.24223879573E+01  0.21043974332E+02  0.00000000000E+00 0. -1.
<mgrwt>
<rscale>  0 0.42066388E+02</rscale>
<asrwt>0</asrwt>
<pdfrwt beam="2">  1        2 0.32212192E-02 0.42066388E+02</pdfrwt>
<pdfrwt beam="1">  1       -2 0.32505995E-02 0.42066388E+02</pdfrwt>
<totfact> 0.69708134E+05</totfact>
</mgrwt>
</event>
<event>
 4    1  0.2126213E+000  0.3594715E+02  0.7546771E-02  0.1540347E+00
          4   -1    0    0  501    0  0.00000000000E+00  0.00000000000E+00  0.51031175478E+01  0.51031175478E+01  0.00000000000E+00 0.  1.
         -4   -1    0    0    0  501 -0.00000000000E+00 -0.00000000000E+00 -0.63304307194E+02  0.63304307194E+02  0.00000000000E+00 0. -1.
        -13    1    1    2    0    0  0.11180472832E+02 -0.84189562367E+01 -0.50560457436E+02  0.52461811378E+02  0.00000000000E+00 0. -1.
         13    1    1    2    0    0 -0.11180472832E+02  0.84189562367E+01 -0.76407322099E+01  0.15945613364E+02  0.00000000000E+00 0.  1.
<mgrwt>
<rscale>  0 0.35947146E+02</rscale>
<asrwt>0</asrwt>
<pdfrwt beam="1">  1        4 0.78509502E-03 0.35947146E+02</pdfrwt>
<pdfrwt beam="2">  1       -4 0.97391241E-02 0.35947146E+02</pdfrwt>
<totfact> 0.30164775E+05</totfact>
</mgrwt>
</event>
<event>
 4    1  0.2126213E+000  0.7934392E+02  0.7546771E-02  0.1330924E+00
          2   -1    0    0  501    0  0.00000000000E+00  0.00000000000E+00  0.11618288749E+03  0.11618288749E+03  0.00000000000E+00 0. -1.
         -2   -1    0    0    0  501 -0.00000000000E+00 -0.00000000000E+00 -0.13546438609E+02  0.13546438609E+02  0.00000000000E+00 0.  1.
        -13    1    1    2    0    0 -0.17784566354E+02 -0.27883454121E+02  0.15493382634E+02  0.36521537749E+02  0.00000000000E+00 0.  1.
         13    1    1    2    0    0  0.17784566354E+02  0.27883454121E+02  0.87143066249E+02  0.93207788352E+02  0.00000000000E+00 0. -1.
<mgrwt>
<rscale>  0 0.79343919E+02</rscale>
<asrwt>0</asrwt>
<pdfrwt beam="1">  1        2 0.17874290E-01 0.79343919E+02</pdfrwt>
<pdfrwt beam="2">  1       -2 0.20840676E-02 0.79343919E+02</pdfrwt>
<totfact> 0.18732942E+05</totfact>
</mgrwt>
</event>
<event>
 4    1  0.2126213E+000  0.2145202E+02  0.7546771E-02  0.1717905E+00
         -2   -1    0    0    0  501 -0.00000000000E+00  0.00000000000E+00  0.31374326547E+01  0.31374326547E+01  0.00000000000E+00 0. -1.
          2   -1    0    0  501    0  0.00000000000E+00 -0.00000000000E+00 -0.36669242847E+02  0.36669242847E+02  0.00000000000E+00 0.  1.
        -13    1    1    2    0    0  0.10269164630E+02 -0.30234475990E+01 -0.15520703002E+02  0.18854421212E+02  0.00000000000E+00 0. -1.
         13    1    1    2    0    0 -0.10269164630E+02  0.30234475990E+01 -0.18011107190E+02  0.20952254289E+02  0.00000000000E+00 0.  1.
<mgrwt>
<rscale>  0 0.21452019E+02</rscale>
<asrwt>0</asrwt>
<pdfrwt beam="2">  1        2 0.56414221E-02 0.21452019E+02</pdfrwt>
<pdfrwt beam="1">  1       -2 0.48268194E-03 0.21452019E+02</pdfrwt>
<totfact> 0.37917480E+06</totfact>
</mgrwt>
</event>
<event>
 4    1  0.2126213E+000  0.3953563E+02  0.7546771E-02  0.1511657E+00
          2   -1    0    0  501    0  0.00000000000E+00  0.00000000000E+00  0.17781290746E+03  0.17781290746E+03  0.00000000000E+00 0. -1.
         -2   -1    0    0    0  501 -0.00000000000E+00 -0.00000000000E+00 -0.21976269051E+01  0.21976269051E+01  0.00000000000E+00 0.  1.
        -13    1    1    2    0    0 -0.33186326604E+01 -0.18794101526E+02  0.64353600450E+02  0.67123896384E+02  0.00000000000E+00 0.  1.
         13    1    1    2    0    0  0.33186326604E+01  0.18794101526E+02  0.11126168011E+03  0.11288663798E+03  0.00000000000E+00 0. -1.
<mgrwt>
<rscale>  0 0.39535626E+02</rscale>
<asrwt>0</asrwt>
<pdfrwt beam="1">  1        2 0.27355820E-01 0.39535626E+02</pdfrwt>
<pdfrwt beam="2">  1       -2 0.33809659E-03 0.39535626E+02</pdfrwt>
<totfact> 0.12654117E+06</totfact>
</mgrwt>
</event>
<event>
 4    1  0.2126213E+000  0.1440835E+03  0.7546771E-02  0.1207938E+00
          2   -1    0    0  501    0  0.00000000000E+00  0.00000000000E+00  0.11390290714E+03  0.11390290714E+03  0.00000000000E+00 0. -1.
         -2   -1    0    0    0  501 -0.00000000000E+00 -0.00000000000E+00 -0.45565235701E+02  0.45565235701E+02  0.00000000000E+00 0.  1.
        -11    1    1    2    0    0  0.28876842150E+02 -0.64595772398E+02  0.19175105488E+02  0.73308734096E+02  0.00000000000E+00 0.  1.
         11    1    1    2    0    0 -0.28876842150E+02  0.64595772398E+02  0.49162565948E+02  0.86159408743E+02  0.00000000000E+00 0. -1.
<mgrwt>
<rscale>  0 0.14408349E+03</rscale>
<asrwt>0</asrwt>
<pdfrwt beam="1">  1        2 0.17523524E-01 0.14408349E+03</pdfrwt>
<pdfrwt beam="2">  1       -2 0.70100363E-02 0.14408349E+03</pdfrwt>
<totfact> 0.34806689E+04</totfact>
</mgrwt>
</event>
<event>
 4    1  0.2126213E+000  0.3411084E+02  0.7546771E-02  0.1556641E+00
          4   -1    0    0  501    0  0.00000000000E+00  0.00000000000E+00  0.47688636770E+02  0.47688636770E+02  0.00000000000E+00 0. -1.
         -4   -1    0    0    0  501 -0.00000000000E+00 -0.00000000000E+00 -0.60997215705E+01  0.60997215705E+01  0.00000000000E+00 0.  1.
        -13    1    1    2    0    0  0.96650321679E+01  0.11092205587E+02  0.34399247052E+02  0.37413340794E+02  0.00000000000E+00 0. -1.
         13    1    1    2    0    0 -0.96650321679E+01 -0.11092205587E+02  0.71896681474E+01  0.16375017547E+02  0.00000000000E+00 0.  1.
<mgrwt>
<rscale>  0 0.34110843E+02</rscale>
<asrwt>0</asrwt>
<pdfrwt beam="1">  1        4 0.73367131E-02 0.34110843E+02</pdfrwt>
<pdfrwt beam="2">  1       -4 0.93841873E-03 0.34110843E+02</pdfrwt>
<totfact> 0.35661760E+05</totfact>
</mgrwt>
</event>
<event>
 4    1  0.2126213E+000  0.2239582E+02  0.7546771E-02  0.1701495E+00
          1   -1    0    0  501    0  0.00000000000E+00  0.00000000000E+00  0.31014288895E+01  0.31014288895E+01  0.00000000000E+00 0. -1.
         -1   -1    0    0    0  501 -0.00000000000E+00 -0.00000000000E+00 -0.40430775158E+02  0.40430775158E+02  0.00000000000E+00 0.  1.
        -13    1    1    2    0    0  0.86698864188E+01  0.69445872607E+01 -0.15916495340E+02  0.19409509181E+02  0.00000000000E+00 0. -1.
         13    1    1    2    0    0 -0.86698864188E+01 -0.69445872607E+01 -0.21412850929E+02  0.24122694867E+02  0.00000000000E+00 0.  1.
<mgrwt>
<rscale>  0 0.22395819E+02</rscale>
<asrwt>0</asrwt>
<pdfrwt beam="1">  1        1 0.47714290E-03 0.22395819E+02</pdfrwt>
<pdfrwt beam="2">  1       -1 0.62201193E-02 0.22395819E+02</pdfrwt>
<totfact> 0.27717567E+06</totfact>
</mgrwt>
</event>
<event>
 4    1  0.2126213E+000  0.2396344E+02  0.7546771E-02  0.1676353E+00
          2   -1    0    0  501    0  0.00000000000E+00  0.00000000000E+00  0.24135476958E+01  0.24135476958E+01  0.00000000000E+00 0. -1.
         -2   -1    0    0    0  501 -0.00000000000E+00 -0.00000000000E+00 -0.59481549364E+02  0.59481549364E+02  0.00000000000E+00 0.  1.
        -11    1    1    2    0    0 -0.24655745204E+01  0.11089136076E+02 -0.38373979273E+02  0.40020123461E+02  0.00000000000E+00 0. -1.
         11    1    1    2    0    0  0.24655745204E+01 -0.11089136076E+02 -0.18694022396E+02  0.21874973599E+02  0.00000000000E+00 0.  1.
<mgrwt>
<rscale>  0 0.23963435E+02</rscale>
<asrwt>0</asrwt>
<pdfrwt beam="1">  1        2 0.37131502E-03 0.23963435E+02</pdfrwt>
<pdfrwt beam="2">  1       -2 0.91510078E-02 0.23963435E+02</pdfrwt>
<totfact> 0.22107276E+06</totfact>
</mgrwt>
</event>
<event>
 4    1  0.2126213E+000  0.4390532E+02  0.7546771E-02  0.1481293E+00
         -1   -1    0    0    0  501 -0.00000000000E+00  0.00000000000E+00  0.49537910452E+01  0.49537910452E+01  0.00000000000E+00 0. -1.
          1   -1    0    0  501    0  0.00000000000E+00 -0.00000000000E+00 -0.97282944107E+02  0.97282944107E+02  0.00000000000E+00 0.  1.
        -13    1    1    2    0    0  0.11102681639E+02  0.11952336672E+02 -0.80370942250E+02  0.82009854589E+02  0.00000000000E+00 0.  1.
         13    1    1    2    0    0 -0.11102681639E+02 -0.11952336672E+02 -0.11958210812E+02  0.20226880564E+02  0.00000000000E+00 0. -1.
<mgrwt>
<rscale>  0 0.43905324E+02</rscale>
<asrwt>0</asrwt>
<pdfrwt beam="2">  1        1 0.14966607E-01 0.43905324E+02</pdfrwt>
<pdfrwt beam="1">  1       -1 0.76212170E-03 0.43905324E+02</pdfrwt>
<totfact> 0.69667608E+05</totfact>
</mgrwt>
</event>
<event>
 4    1  0.2126213E+000  0.5433125E+02  0.7546771E-02  0.1423288E+00
         -1   -1    0    0    0  501 -0.00000000000E+00  0.00000000000E+00  0.33633646208E+02  0.33633646208E+02  0.00000000000E+00 0.  1.
          1   -1    0    0  501    0  0.00000000000E+00 -0.00000000000E+00 -0.21941453973E+02  0.21941453973E+02  0.00000000000E+00 0. -1.
        -11    1    1    2    0    0  0.86554012154E+01 -0.23777498264E+02 -0.42637860032E+01  0.25660578032E+02  0.00000000000E+00 0. -1.
         11    1    1    2    0    0 -0.86554012154E+01  0.23777498264E+02  0.15955978238E+02  0.29914522149E+02  0.00000000000E+00 0.  1.
<mgrwt>
<rscale>  0 0.54331247E+02</rscale>
<asrwt>0</asrwt>
<pdfrwt beam="2">  1        1 0.33756083E-02 0.54331247E+02</pdfrwt>
<pdfrwt beam="1">  1       -1 0.51744071E-02 0.54331247E+02</pdfrwt>
<totfact> 0.34730307E+05</totfact>
</mgrwt>
</event>
<event>
 4    1  0.2126213E+000  0.4746277E+02  0.7546771E-02  0.1459528E+00
         -2   -1    0    0    0  501 -0.00000000000E+00  0.00000000000E+00  0.16170720790E+02  0.16170720790E+02  0.00000000000E+00 0.  1.
          2   -1    0    0  501    0  0.00000000000E+00 -0.00000000000E+00 -0.34827060911E+02  0.34827060911E+02  0.00000000000E+00 0. -1.
        -11    1    1    2    0    0 -0.10443348651E+02 -0.14920032129E+02  0.70204458508E+01  0.19518133869E+02  0.00000000000E+00 0.  1.
         11    1    1    2    0    0  0.10443348651E+02  0.14920032129E+02 -0.25676785971E+02  0.31479647832E+02  0.00000000000E+00 0. -1.
<mgrwt>
<rscale>  0 0.47462772E+02</rscale>
<asrwt>0</asrwt>
<pdfrwt beam="2">  1        2 0.53580093E-02 0.47462772E+02</pdfrwt>
<pdfrwt beam="1">  1       -2 0.24878032E-02 0.47462772E+02</pdfrwt>
<totfact> 0.55056155E+05</totfact>
</mgrwt>
</event>
<event>
 4    1  0.2126213E+000  0.4561943E+02  0.7546771E-02  0.1470511E+00
         -1   -1    0    0    0  501 -0.00000000000E+00  0.00000000000E+00  0.32624683351E+01  0.32624683351E+01  0.00000000000E+00 0.  1.
          1   -1    0    0  501    0  0.00000000000E+00 -0.00000000000E+00 -0.15947528579E+03  0.15947528579E+03  0.00000000000E+00 0. -1.
        -11    1    1    2    0    0  0.63644367340E+01  0.20344097161E+02 -0.10706409130E+03  0.10916550733E+03  0.00000000000E+00 0. -1.
         11    1    1    2    0    0 -0.63644367340E+01 -0.20344097161E+02 -0.49148726154E+02  0.53572246797E+02  0.00000000000E+00 0.  1.
<mgrwt>
<rscale>  0 0.45619429E+02</rscale>
<asrwt>0</asrwt>
<pdfrwt beam="2">  1        1 0.24534657E-01 0.45619429E+02</pdfrwt>
<pdfrwt beam="1">  1       -1 0.50191825E-03 0.45619429E+02</pdfrwt>
<totfact> 0.68024055E+05</totfact>
</mgrwt>
</event>
<event>
 4    1  0.2126213E+000  0.1075473E+03  0.7546771E-02  0.1265181E+00
         -3   -1    0    0    0  501 -0.00000000000E+00  0.00000000000E+00  0.15287949323E+02  0.15287949323E+02  0.00000000000E+00 0.  1.
          3   -1    0    0  501    0  0.00000000000E+00 -0.00000000000E+00 -0.18914265666E+03  0.18914265666E+03  0.00000000000E+00 0. -1.
        -11    1    1    2    0    0 -0.21169858059E+02 -0.25645147449E+02 -0.66008356298E+01  0.33902912986E+02  0.00000000000E+00 0.  1.
         11    1    1    2    0    0  0.21169858059E+02  0.25645147449E+02 -0.16725387171E+03  0.17052769300E+03  0.00000000000E+00 0. -1.
<mgrwt>
<rscale>  0 0.10754726E+03</rscale>
<asrwt>0</asrwt>
<pdfrwt beam="2">  1        3 0.29098870E-01 0.10754726E+03</pdfrwt>
<pdfrwt beam="1">  1       -3 0.23519922E-02 0.10754726E+03</pdfrwt>
<totfact> 0.18026296E+04</totfact>
</mgrwt>
</event>
<event>
 4    1  0.2126213E+000  0.3831409E+02  0.7546771E-02  0.1520998E+00
          2   -1    0    0  501    0  0.00000000000E+00  0.00000000000E+00  0.27285388294E+02  0.27285388294E+02  0.00000000000E+00 0. -1.
         -2   -1    0    0    0  501 -0.00000000000E+00 -0.00000000000E+00 -0.13450143924E+02  0.13450143924E+02  0.00000000000E+00 0.  1.
        -11    1    1    2    0    0 -0.56232365569E+01 -0.17958505996E+02  0.10730890394E+02  0.21662888442E+02  0.00000000000E+00 0. -1.
         11    1    1    2    0    0  0.56232365569E+01  0.17958505996E+02  0.31043539759E+01  0.19072643776E+02  0.00000000000E+00 0.  1.
<mgrwt>
<rscale>  0 0.38314091E+02</rscale>
<asrwt>0</asrwt>
<pdfrwt beam="1">  1        2 0.41977520E-02 0.38314091E+02</pdfrwt>
<pdfrwt beam="2">  1       -2 0.20692529E-02 0.38314091E+02</pdfrwt>
<totfact> 0.91576579E+05</totfact>
</mgrwt>
</event>
<event>
 4    1  0.2126213E+000  0.3416552E+02  0.7546771E-02  0.1556138E+00
         -1   -1    0    0    0  501 -0.00000000000E+00  0.00000000000E+00  0.10376351458E+02  0.10376351458E+02  0.00000000000E+00 0.  1.
          1   -1    0    0  501    0  0.00000000000E+00 -0.00000000000E+00 -0.28123628733E+02  0.28123628733E+02  0.00000000000E+00 0. -1.
        -13    1    1    2    0    0  0.48834447084E+01 -0.16349053662E+02 -0.98036061504E+01  0.19678675805E+02  0.00000000000E+00 0. -1.
         13    1    1    2    0    0 -0.48834447084E+01  0.16349053662E+02 -0.79436711244E+01  0.18821304386E+02  0.00000000000E+00 0.  1.
<mgrwt>
<rscale>  0 0.34165518E+02</rscale>
<asrwt>0</asrwt>
<pdfrwt beam="2">  1        1 0.43267120E-02 0.34165518E+02</pdfrwt>
<pdfrwt beam="1">  1       -1 0.15963618E-02 0.34165518E+02</pdfrwt>
<totfact> 0.11520772E+06</totfact>
</mgrwt>
</event>
<event>
 4    1  0.2126213E+000  0.2384339E+02  0.7546771E-02  0.1678193E+00
          2   -1    0    0  501    0  0.00000000000E+00  0.00000000000E+00  0.37788805642E+02  0.37788805642E+02  0.00000000000E+00 0. -1.
         -2   -1    0    0    0  501 -0.00000000000E+00 -0.00000000000E+00 -0.37610815219E+01  0.37610815219E+01  0.00000000000E+00 0.  1.
        -11    1    1    2    0    0  0.55775797157E+01 -0.99586733408E+01  0.11017080254E+02  0.15863815037E+02  0.00000000000E+00 0. -1.
         11    1    1    2    0    0 -0.55775797157E+01  0.99586733408E+01  0.23010643866E+02  0.25686072127E+02  0.00000000000E+00 0.  1.
<mgrwt>
<rscale>  0 0.23843387E+02</rscale>
<asrwt>0</asrwt>
<pdfrwt beam="1">  1        2 0.58136621E-02 0.23843387E+02</pdfrwt>
<pdfrwt beam="2">  1       -2 0.57862795E-03 0.23843387E+02</pdfrwt>
<totfact> 0.29897372E+06</totfact>
</mgrwt>
</event>
<event>
 4    1  0.2126213E+000  0.6085025E+02  0.7546771E-02  0.1394298E+00
          2   -1    0    0  501    0  0.00000000000E+00  0.00000000000E+00  0.19698866324E+02  0.19698866324E+02  0.00000000000E+00 0. -1.
         -2   -1    0    0    0  501 -0.00000000000E+00 -0.00000000000E+00 -0.46991953757E+02  0.46991953757E+02  0.00000000000E+00 0.  1.
        -13    1    1    2    0    0  0.18772016090E+02  0.20164932697E+02  0.50289063766E+00  0.27554781758E+02  0.00000000000E+00 0. -1.
         13    1    1    2    0    0 -0.18772016090E+02 -0.20164932697E+02 -0.27795978070E+02  0.39136038323E+02  0.00000000000E+00 0.  1.
<mgrwt>
<rscale>  0 0.60850249E+02</rscale>
<asrwt>0</asrwt>
<pdfrwt beam="1">  1        2 0.30305948E-02 0.60850249E+02</pdfrwt>
<pdfrwt beam="2">  1       -2 0.72295313E-02 0.60850249E+02</pdfrwt>
<totfact> 0.25718926E+05</totfact>
</mgrwt>
</event>
<event>
 4    1  0.2126213E+000  0.4229047E+02  0.7546771E-02  0.1492002E+00
          1   -1    0    0  501    0  0.00000000000E+00  0.00000000000E+00  0.34535305880E+02  0.34535305880E+02  0.00000000000E+00 0. -1.
         -1   -1    0    0    0  501 -0.00000000000E+00 -0.00000000000E+00 -0.12946780960E+02  0.12946780960E+02  0.00000000000E+00 0.  1.
        -13    1    1    2    0    0  0.61884601513E+01 -0.18753477693E+02  0.19280661530E+02  0.27599526693E+02  0.00000000000E+00 0. -1.
         13    1    1    2    0    0 -0.61884601513E+01  0.18753477693E+02  0.23078633898E+01  0.19882560148E+02  0.00000000000E+00 0.  1.
<mgrwt>
<rscale>  0 0.42290474E+02</rscale>
<asrwt>0</asrwt>
<pdfrwt beam="1">  1        1 0.53131239E-02 0.42290474E+02</pdfrwt>
<pdfrwt beam="2">  1       -1 0.19918125E-02 0.42290474E+02</pdfrwt>
<totfact> 0.68949163E+05</totfact>
</mgrwt>
</event>
<event>
 4    1  0.2126213E+000  0.2354935E+02  0.7546771E-02  0.1682757E+00
          4   -1    0    0  501    0  0.00000000000E+00  0.00000000000E+00  0.26704963421E+02  0.26704963421E+02  0.00000000000E+00 0.  1.
         -4   -1    0    0    0  501 -0.00000000000E+00 -0.00000000000E+00 -0.51916576491E+01  0.51916576491E+01  0.00000000000E+00 0. -1.
        -11    1    1    2    0    0 -0.11571021858E+02  0.19166897425E+01  0.93485494556E+01  0.14998587378E+02  0.00000000000E+00 0.  1.
         11    1    1    2    0    0  0.11571021858E+02 -0.19166897425E+01  0.12164756316E+02  0.16898033692E+02  0.00000000000E+00 0. -1.
<mgrwt>
<rscale>  0 0.23549355E+02</rscale>
<asrwt>0</asrwt>
<pdfrwt beam="1">  1        4 0.41084558E-02 0.23549355E+02</pdfrwt>
<pdfrwt beam="2">  1       -4 0.79871658E-03 0.23549355E+02</pdfrwt>
<totfact> 0.87915807E+05</totfact>
</mgrwt>
</event>
<event>
 4    1  0.2126213E+000  0.3694183E+02  0.7546771E-02  0.1532003E+00
          4   -1    0    0  501    0  0.00000000000E+00  0.00000000000E+00  0.55510306766E+02  0.55510306766E+02  0.00000000000E+00 0. -1.
         -4   -1    0    0    0  501 -0.00000000000E+00 -0.00000000000E+00 -0.61461514066E+01  0.61461514066E+01  0.00000000000E+00 0.  1.
        -11    1    1    2    0    0 -0.12488559873E+02  0.95257875942E+01  0.40904177828E+02  0.43816167344E+02  0.00000000000E+00 0. -1.
         11    1    1    2    0    0  0.12488559873E+02 -0.95257875942E+01  0.84599775319E+01  0.17840290828E+02  0.00000000000E+00 0.  1.
<mgrwt>
<rscale>  0 0.36941833E+02</rscale>
<asrwt>0</asrwt>
<pdfrwt beam="1">  1        4 0.85400469E-02 0.36941833E+02</pdfrwt>
<pdfrwt beam="2">  1       -4 0.94556179E-03 0.36941833E+02</pdfrwt>
<totfact> 0.28891004E+05</totfact>
</mgrwt>
</event>
<event>
 4    1  0.2126213E+000  0.2220613E+02  0.7546771E-02  0.1704711E+00
          4   -1    0    0  501    0  0.00000000000E+00  0.00000000000E+00  0.39562250154E+01  0.39562250154E+01  0.00000000000E+00 0.  1.
         -4   -1    0    0    0  501 -0.00000000000E+00 -0.00000000000E+00 -0.31160512943E+02  0.31160512943E+02  0.00000000000E+00 0. -1.
        -11    1    1    2    0    0 -0.86556883736E+01 -0.56232684625E+01 -0.71327132874E+01  0.12546620591E+02  0.00000000000E+00 0.  1.
         11    1    1    2    0    0  0.86556883736E+01  0.56232684625E+01 -0.20071574640E+02  0.22570117367E+02  0.00000000000E+00 0. -1.
<mgrwt>
<rscale>  0 0.22206125E+02</rscale>
<asrwt>0</asrwt>
<pdfrwt beam="1">  1        4 0.60864999E-03 0.22206125E+02</pdfrwt>
<pdfrwt beam="2">  1       -4 0.47939252E-02 0.22206125E+02</pdfrwt>
<totfact> 0.98255665E+05</totfact>
</mgrwt>
</event>
<event>
 4    1  0.2126213E+000  0.2230156E+02  0.7546771E-02  0.1703088E+00
         -2   -1    0    0    0  501 -0.00000000000E+00  0.00000000000E+00  0.29857462809E+01  0.29857462809E+01  0.00000000000E+00 0. -1.
          2   -1    0    0  501    0  0.00000000000E+00 -0.00000000000E+00 -0.41644496891E+02  0.41644496891E+02  0.00000000000E+00 0.  1.
        -13    1    1    2    0    0  0.63642799630E+01  0.91137553539E+01 -0.17567275670E+02  0.20788789541E+02  0.00000000000E+00 0. -1.
         13    1    1    2    0    0 -0.63642799630E+01 -0.91137553539E+01 -0.21091474940E+02  0.23841453631E+02  0.00000000000E+00 0.  1.
<mgrwt>
<rscale>  0 0.22301561E+02</rscale>
<asrwt>0</asrwt>
<pdfrwt beam="2">  1        2 0.64068454E-02 0.22301561E+02</pdfrwt>
<pdfrwt beam="1">  1       -2 0.45934560E-03 0.22301561E+02</pdfrwt>
<totfact> 0.35302795E+06</totfact>
</mgrwt>
</event>
<event>
 4    1  0.2126213E+000  0.6283833E+02  0.7546771E-02  0.1386292E+00
         -2   -1    0    0    0  501 -0.00000000000E+00  0.00000000000E+00  0.42336175620E+01  0.42336175620E+01  0.00000000000E+00 0.  1.
          2   -1    0    0  501    0  0.00000000000E+00 -0.00000000000E+00 -0.23317269025E+03  0.23317269025E+03  0.00000000000E+00 0. -1.
        -11    1    1    2    0    0 -0.98612173635E+01 -0.28764071675E+02 -0.14434924057E+03  0.14751718096E+03  0.00000000000E+00 0. -1.
         11    1    1    2    0    0  0.98612173635E+01  0.28764071675E+02 -0.84589832116E+02  0.89889126844E+02  0.00000000000E+00 0.  1.
<mgrwt>
<rscale>  0 0.62838332E+02</rscale>
<asrwt>0</asrwt>
<pdfrwt beam="2">  1        2 0.35872729E-01 0.62838332E+02</pdfrwt>
<pdfrwt beam="1">  1       -2 0.65132564E-03 0.62838332E+02</pdfrwt>
<totfact> 0.43454903E+05</totfact>
</mgrwt>
</event>
<event>
 4    1  0.2126213E+000  0.5641988E+02  0.7546771E-02  0.1413501E+00
         -2   -1    0    0    0  501 -0.00000000000E+00  0.00000000000E+00  0.19105234638E+02  0.19105234638E+02  0.00000000000E+00 0. -1.
          2   -1    0    0  501    0  0.00000000000E+00 -0.00000000000E+00 -0.41653548485E+02  0.41653548485E+02  0.00000000000E+00 0.  1.
        -11    1    1    2    0    0 -0.11531326715E+02 -0.25202423163E+02 -0.16938628389E+02  0.32481544926E+02  0.00000000000E+00 0.  1.
         11    1    1    2    0    0  0.11531326715E+02  0.25202423163E+02 -0.56096854585E+01  0.28277238197E+02  0.00000000000E+00 0. -1.
<mgrwt>
<rscale>  0 0.56419884E+02</rscale>
<asrwt>0</asrwt>
<pdfrwt beam="2">  1        2 0.64082381E-02 0.56419884E+02</pdfrwt>
<pdfrwt beam="1">  1       -2 0.29392669E-02 0.56419884E+02</pdfrwt>
<totfact> 0.36179512E+05</totfact>
</mgrwt>
</event>
<event>
 4    1  0.2126213E+000  0.3904275E+02  0.7546771E-02  0.1515376E+00
          4   -1    0    0  501    0  0.00000000000E+00  0.00000000000E+00  0.31056267293E+02  0.31056267293E+02  0.00000000000E+00 0. -1.
         -4   -1    0    0    0  501 -0.00000000000E+00 -0.00000000000E+00 -0.12270761198E+02  0.12270761198E+02  0.00000000000E+00 0.  1.
        -13    1    1    2    0    0  0.14760535833E+02  0.46708055828E+01 -0.38030043197E+01  0.15942166877E+02  0.00000000000E+00 0.  1.
         13    1    1    2    0    0 -0.14760535833E+02 -0.46708055828E+01  0.22588510415E+02  0.27384861614E+02  0.00000000000E+00 0. -1.
<mgrwt>
<rscale>  0 0.39042748E+02</rscale>
<asrwt>0</asrwt>
<pdfrwt beam="1">  1        4 0.47778872E-02 0.39042748E+02</pdfrwt>
<pdfrwt beam="2">  1       -4 0.18878094E-02 0.39042748E+02</pdfrwt>
<totfact> 0.26896645E+05</totfact>
</mgrwt>
</event>
<event>
 4    1  0.2126213E+000  0.6308616E+02  0.7546771E-02  0.1385319E+00
         -4   -1    0    0    0  501 -0.00000000000E+00  0.00000000000E+00  0.40284346626E+02  0.40284346626E+02  0.00000000000E+00 0. -1.
          4   -1    0    0  501    0  0.00000000000E+00 -0.00000000000E+00 -0.24698575017E+02  0.24698575017E+02  0.00000000000E+00 0.  1.
        -13    1    1    2    0    0  0.26835663336E+02 -0.97229375908E+01  0.21623326827E+02  0.35808610768E+02  0.00000000000E+00 0.  1.
         13    1    1    2    0    0 -0.26835663336E+02  0.97229375908E+01 -0.60375552182E+01  0.29174310876E+02  0.00000000000E+00 0. -1.
<mgrwt>
<rscale>  0 0.63086162E+02</rscale>
<asrwt>0</asrwt>
<pdfrwt beam="2">  1        4 0.37997808E-02 0.63086162E+02</pdfrwt>
<pdfrwt beam="1">  1       -4 0.61975918E-02 0.63086162E+02</pdfrwt>
<totfact> 0.76589601E+04</totfact>
</mgrwt>
</event>
<event>
 4    1  0.2126213E+000  0.2532256E+02  0.7546771E-02  0.1656412E+00
         -1   -1    0    0    0  501 -0.00000000000E+00  0.00000000000E+00  0.18289543073E+02  0.18289543073E+02  0.00000000000E+00 0. -1.
          1   -1    0    0  501    0  0.00000000000E+00 -0.00000000000E+00 -0.87650102947E+01  0.87650102947E+01  0.00000000000E+00 0.  1.
        -13    1    1    2    0    0 -0.12331387878E+02  0.11633094716E+00  0.16969953474E+01  0.12448150589E+02  0.00000000000E+00 0. -1.
         13    1    1    2    0    0  0.12331387878E+02 -0.11633094716E+00  0.78275374309E+01  0.14606402778E+02  0.00000000000E+00 0.  1.
<mgrwt>
<rscale>  0 0.25322562E+02</rscale>
<asrwt>0</asrwt>
<pdfrwt beam="2">  1        1 0.13484631E-02 0.25322562E+02</pdfrwt>
<pdfrwt beam="1">  1       -1 0.28137759E-02 0.25322562E+02</pdfrwt>
<totfact> 0.22181845E+06</totfact>
</mgrwt>
</event>
<event>
 4    1  0.2126213E+000  0.2503881E+02  0.7546771E-02  0.1660445E+00
         -1   -1    0    0    0  501 -0.00000000000E+00  0.00000000000E+00  0.42041067618E+02  0.42041067618E+02  0.00000000000E+00 0.  1.
          1   -1    0    0  501    0  0.00000000000E+00 -0.00000000000E+00 -0.37281532688E+01  0.37281532688E+01  0.00000000000E+00 0. -1.
        -11    1    1    2    0    0 -0.61440143860E+01 -0.10398824879E+02  0.13135076286E+02  0.17844178341E+02  0.00000000000E+00 0. -1.
         11    1    1    2    0    0  0.61440143860E+01  0.10398824879E+02  0.25177838063E+02  0.27925042546E+02  0.00000000000E+00 0.  1.
<mgrwt>
<rscale>  0 0.25038813E+02</rscale>
<asrwt>0</asrwt>
<pdfrwt beam="2">  1        1 0.57356207E-03 0.25038813E+02</pdfrwt>
<pdfrwt beam="1">  1       -1 0.64678562E-02 0.25038813E+02</pdfrwt>
<totfact> 0.21470962E+06</totfact>
</mgrwt>
</event>
<event>
 4    1  0.2126213E+000  0.2403542E+02  0.7546771E-02  0.1675256E+00
         -4   -1    0    0    0  501 -0.00000000000E+00  0.00000000000E+00  0.16789889784E+01  0.16789889784E+01  0.00000000000E+00 0.  1.
          4   -1    0    0  501    0  0.00000000000E+00 -0.00000000000E+00 -0.86019222316E+02  0.86019222316E+02  0.00000000000E+00 0. -1.
        -11    1    1    2    0    0  0.11953034575E+02 -0.92325224229E+00 -0.45218253082E+02  0.46780528449E+02  0.00000000000E+00 0. -1.
         11    1    1    2    0    0 -0.11953034575E+02  0.92325224229E+00 -0.39121980256E+02  0.40917682845E+02  0.00000000000E+00 0.  1.
<mgrwt>
<rscale>  0 0.24035418E+02</rscale>
<asrwt>0</asrwt>
<pdfrwt beam="2">  1        4 0.13233729E-01 0.24035418E+02</pdfrwt>
<pdfrwt beam="1">  1       -4 0.25830594E-03 0.24035418E+02</pdfrwt>
<totfact> 0.69642547E+05</totfact>
</mgrwt>
</event>
<event>
 4    1  0.2126213E+000  0.2019279E+02  0.7546771E-02  0.1741521E+00
          2   -1    0    0  501    0  0.00000000000E+00  0.00000000000E+00  0.40925855133E+02  0.40925855133E+02  0.00000000000E+00 0.  1.
         -2   -1    0    0    0  501 -0.00000000000E+00 -0.00000000000E+00 -0.24907769518E+01  0.24907769518E+01  0.00000000000E+00 0. -1.
        -13    1    1    2    0    0 -0.10092707352E+02  0.16116939140E+00  0.19690852683E+02  0.22127322402E+02  0.00000000000E+00 0. -1.
         13    1    1    2    0    0  0.10092707352E+02 -0.16116939140E+00  0.18744225498E+02  0.21289309683E+02  0.00000000000E+00 0.  1.
<mgrwt>
<rscale>  0 0.20192788E+02</rscale>
<asrwt>0</asrwt>
<pdfrwt beam="1">  1        2 0.62962849E-02 0.20192788E+02</pdfrwt>
<pdfrwt beam="2">  1       -2 0.38319648E-03 0.20192788E+02</pdfrwt>
<totfact> 0.44076994E+06</totfact>
</mgrwt>
</event>
<event>
 4    1  0.2126213E+000  0.2717055E+02  0.7546771E-02  0.1631650E+00
         -4   -1    0    0    0  501 -0.00000000000E+00  0.00000000000E+00  0.97816160314E+01  0.97816160314E+01  0.00000000000E+00 0.  1.
          4   -1    0    0  501    0  0.00000000000E+00 -0.00000000000E+00 -0.18868016970E+02  0.18868016970E+02  0.00000000000E+00 0. -1.
        -11    1    1    2    0    0 -0.11095738783E+02  0.78783659280E+00 -0.12766699843E+02  0.16932948075E+02  0.00000000000E+00 0. -1.
         11    1    1    2    0    0  0.11095738783E+02 -0.78783659280E+00  0.36802989040E+01  0.11716684926E+02  0.00000000000E+00 0.  1.
<mgrwt>
<rscale>  0 0.27170550E+02</rscale>
<asrwt>0</asrwt>
<pdfrwt beam="2">  1        4 0.29027719E-02 0.27170550E+02</pdfrwt>
<pdfrwt beam="1">  1       -4 0.15048640E-02 0.27170550E+02</pdfrwt>
<totfact> 0.65273587E+05</totfact>
</mgrwt>
</event>
<event>
 4    1  0.2126213E+000  0.2449352E+02  0.7546771E-02  0.1668385E+00
          4   -1    0    0  501    0  0.00000000000E+00  0.00000000000E+00  0.77591130827E+02  0.77591130827E+02  0.00000000000E+00 0.  1.
         -4   -1    0    0    0  501 -0.00000000000E+00 -0.00000000000E+00 -0.19329925605E+01  0.19329925605E+01  0.00000000000E+00 0. -1.
        -11    1    1    2    0    0 -0.99853997718E+01 -0.39961410924E+01  0.18812547897E+02  0.21670009474E+02  0.00000000000E+00 0. -1.
         11    1    1    2    0    0  0.99853997718E+01  0.39961410924E+01  0.56845590370E+02  0.57854113914E+02  0.00000000000E+00 0.  1.
<mgrwt>
<rscale>  0 0.24493516E+02</rscale>
<asrwt>0</asrwt>
<pdfrwt beam="1">  1        4 0.11937095E-01 0.24493516E+02</pdfrwt>
<pdfrwt beam="2">  1       -4 0.29738353E-03 0.24493516E+02</pdfrwt>
<totfact> 0.68584364E+05</totfact>
</mgrwt>
</event>
<event>
 4    1  0.2126213E+000  0.3014936E+02  0.7546771E-02  0.1596444E+00
          4   -1    0    0  501    0  0.00000000000E+00  0.00000000000E+00  0.44957901005E+02  0.44957901005E+02  0.00000000000E+00 0. -1.
         -4   -1    0    0    0  501 -0.00000000000E+00 -0.00000000000E+00 -0.50546384235E+01  0.50546384235E+01  0.00000000000E+00 0.  1.
        -13    1    1    2    0    0  0.47224948878E+01 -0.12840713488E+02  0.30450841001E+02  0.33383223309E+02  0.00000000000E+00 0. -1.
         13    1    1    2    0    0 -0.47224948878E+01  0.12840713488E+02  0.94524215800E+01  0.16629316119E+02  0.00000000000E+00 0.  1.
<mgrwt>
<rscale>  0 0.30149357E+02</rscale>
<asrwt>0</asrwt>
<pdfrwt beam="1">  1        4 0.69165999E-02 0.30149357E+02</pdfrwt>
<pdfrwt beam="2">  1       -4 0.77763671E-03 0.30149357E+02</pdfrwt>
<totfact> 0.47859837E+05</totfact>
</mgrwt>
</event>
<event>
 4    1  0.2126213E+000  0.2449165E+02  0.7546771E-02  0.1668413E+00
         -2   -1    0    0    0  501 -0.00000000000E+00  0.00000000000E+00  0.14108001794E+01  0.14108001794E+01  0.00000000000E+00 0. -1.
          2   -1    0    0  501    0  0.00000000000E+00 -0.00000000000E+00 -0.10629444290E+03  0.10629444290E+03  0.00000000000E+00 0.  1.
        -11    1    1    2    0    0  0.57499239950E+01 -0.10800258447E+02 -0.50229805611E+02  0.51698554914E+02  0.00000000000E+00 0. -1.
         11    1    1    2    0    0 -0.57499239950E+01  0.10800258447E+02 -0.54653837114E+02  0.56006688170E+02  0.00000000000E+00 0.  1.
<mgrwt>
<rscale>  0 0.24491649E+02</rscale>
<asrwt>0</asrwt>
<pdfrwt beam="2">  1        2 0.16352997E-01 0.24491649E+02</pdfrwt>
<pdfrwt beam="1">  1       -2 0.21704611E-03 0.24491649E+02</pdfrwt>
<totfact> 0.33958789E+06</totfact>
</mgrwt>
</event>
<event>
 4    1  0.2126213E+000  0.3585755E+02  0.7546771E-02  0.1541115E+00
          1   -1    0    0  501    0  0.00000000000E+00  0.00000000000E+00  0.31719149420E+01  0.31719149420E+01  0.00000000000E+00 0. -1.
         -1   -1    0    0    0  501 -0.00000000000E+00 -0.00000000000E+00 -0.10133974306E+03  0.10133974306E+03  0.00000000000E+00 0.  1.
        -13    1    1    2    0    0  0.81591785568E+01  0.15960870892E+02 -0.48076567900E+02  0.51309628486E+02  0.00000000000E+00 0. -1.
         13    1    1    2    0    0 -0.81591785568E+01 -0.15960870892E+02 -0.50091260217E+02  0.53202029515E+02  0.00000000000E+00 0.  1.
<mgrwt>
<rscale>  0 0.35857554E+02</rscale>
<asrwt>0</asrwt>
<pdfrwt beam="1">  1        1 0.48798683E-03 0.35857554E+02</pdfrwt>
<pdfrwt beam="2">  1       -1 0.15590732E-01 0.35857554E+02</pdfrwt>
<totfact> 0.83351938E+05</totfact>
</mgrwt>
</event>
<event>
 4    1  0.2126213E+000  0.2341705E+02  0.7546771E-02  0.1684838E+00
          2   -1    0    0  501    0  0.00000000000E+00  0.00000000000E+00  0.39722978451E+02  0.39722978451E+02  0.00000000000E+00 0. -1.
         -2   -1    0    0    0  501 -0.00000000000E+00 -0.00000000000E+00 -0.34511396783E+01  0.34511396783E+01  0.00000000000E+00 0.  1.
        -13    1    1    2    0    0  0.19948253707E+01  0.11537294093E+02  0.18196054452E+02  0.21637580291E+02  0.00000000000E+00 0. -1.
         13    1    1    2    0    0 -0.19948253707E+01 -0.11537294093E+02  0.18075784321E+02  0.21536537838E+02  0.00000000000E+00 0.  1.
<mgrwt>
<rscale>  0 0.23417049E+02</rscale>
<asrwt>0</asrwt>
<pdfrwt beam="1">  1        2 0.61112271E-02 0.23417049E+02</pdfrwt>
<pdfrwt beam="2">  1       -2 0.53094459E-03 0.23417049E+02</pdfrwt>
<totfact> 0.31372359E+06</totfact>
</mgrwt>
</event>
<event>
 4    1  0.2126213E+000  0.2035895E+02  0.7546771E-02  0.1738283E+00
          4   -1    0    0  501    0  0.00000000000E+00  0.00000000000E+00  0.22493892113E+01  0.22493892113E+01  0.00000000000E+00 0.  1.
         -4   -1    0    0    0  501 -0.00000000000E+00 -0.00000000000E+00 -0.46066606189E+02  0.46066606189E+02  0.00000000000E+00 0. -1.
        -13    1    1    2    0    0 -0.44678982522E+01  0.89758390315E+01 -0.17734242982E+02  0.20372313940E+02  0.00000000000E+00 0.  1.
         13    1    1    2    0    0  0.44678982522E+01 -0.89758390315E+01 -0.26082973996E+02  0.27943681461E+02  0.00000000000E+00 0. -1.
<mgrwt>
<rscale>  0 0.20358952E+02</rscale>
<asrwt>0</asrwt>
<pdfrwt beam="1">  1        4 0.34605992E-03 0.20358952E+02</pdfrwt>
<pdfrwt beam="2">  1       -4 0.70871693E-02 0.20358952E+02</pdfrwt>
<totfact> 0.11181155E+06</totfact>
</mgrwt>
</event>
<event>
 4    1  0.2126213E+000  0.3007618E+02  0.7546771E-02  0.1597248E+00
         -2   -1    0    0    0  501 -0.00000000000E+00  0.00000000000E+00  0.36992902110E+02  0.36992902110E+02  0.00000000000E+00 0. -1.
          2   -1    0    0  501    0  0.00000000000E+00 -0.00000000000E+00 -0.61131748481E+01  0.61131748481E+01  0.00000000000E+00 0.  1.
        -11    1    1    2    0    0 -0.27827610366E+00  0.10684621705E+02  0.30601344078E+02  0.32414207348E+02  0.00000000000E+00 0. -1.
         11    1    1    2    0    0  0.27827610366E+00 -0.10684621705E+02  0.27838318356E+00  0.10691869610E+02  0.00000000000E+00 0.  1.
<mgrwt>
<rscale>  0 0.30076175E+02</rscale>
<asrwt>0</asrwt>
<pdfrwt beam="2">  1        2 0.94048846E-03 0.30076175E+02</pdfrwt>
<pdfrwt beam="1">  1       -2 0.56912156E-02 0.30076175E+02</pdfrwt>
<totfact> 0.14104335E+06</totfact>
</mgrwt>
</event>
<event>
 4    1  0.2126213E+000  0.2195643E+02  0.7546771E-02  0.1709007E+00
          1   -1    0    0  501    0  0.00000000000E+00  0.00000000000E+00  0.26416803953E+02  0.26416803953E+02  0.00000000000E+00 0.  1.
         -1   -1    0    0    0  501 -0.00000000000E+00 -0.00000000000E+00 -0.45622932143E+01  0.45622932143E+01  0.00000000000E+00 0. -1.
        -13    1    1    2    0    0 -0.81709044955E+01 -0.62990394162E+01  0.16221483015E+02  0.19224413881E+02  0.00000000000E+00 0.  1.
         13    1    1    2    0    0  0.81709044955E+01  0.62990394162E+01  0.56330277236E+01  0.11754683287E+02  0.00000000000E+00 0. -1.
<mgrwt>
<rscale>  0 0.21956430E+02</rscale>
<asrwt>0</asrwt>
<pdfrwt beam="1">  1        1 0.40641236E-02 0.21956430E+02</pdfrwt>
<pdfrwt beam="2">  1       -1 0.70189128E-03 0.21956430E+02</pdfrwt>
<totfact> 0.32566418E+06</totfact>
</mgrwt>
</event>
<event>
 4    1  0.2126213E+000  0.3351045E+02  0.7546771E-02  0.1562240E+00
          2   -1    0    0  501    0  0.00000000000E+00  0.00000000000E+00  0.74877549395E+02  0.74877549395E+02  0.00000000000E+00 0.  1.
         -2   -1    0    0    0  501 -0.00000000000E+00 -0.00000000000E+00 -0.37492890462E+01  0.37492890462E+01  0.00000000000E+00 0. -1.
        -11    1    1    2    0    0  0.17476406452E+01 -0.16602031490E+02  0.32199872512E+02  0.36270008095E+02  0.00000000000E+00 0.  1.
         11    1    1    2    0    0 -0.17476406452E+01  0.16602031490E+02  0.38928387836E+02  0.42356830346E+02  0.00000000000E+00 0. -1.
<mgrwt>
<rscale>  0 0.33510451E+02</rscale>
<asrwt>0</asrwt>
<pdfrwt beam="1">  1        2 0.11519622E-01 0.33510451E+02</pdfrwt>
<pdfrwt beam="2">  1       -2 0.57681376E-03 0.33510451E+02</pdfrwt>
<totfact> 0.15037710E+06</totfact>
</mgrwt>
</event>
<event>
 4    1  0.2126213E+000  0.3017324E+02  0.7546771E-02  0.1596182E+00
         -3   -1    0    0    0  501 -0.00000000000E+00  0.00000000000E+00  0.24465187908E+02  0.24465187908E+02  0.00000000000E+00 0.  1.
          3   -1    0    0  501    0  0.00000000000E+00 -0.00000000000E+00 -0.93032646019E+01  0.93032646019E+01  0.00000000000E+00 0. -1.
        -13    1    1    2    0    0 -0.84587392728E+01 -0.12304310354E+02  0.51650974248E+01  0.15799511220E+02  0.00000000000E+00 0. -1.
         13    1    1    2    0    0  0.84587392728E+01  0.12304310354E+02  0.99968258811E+01  0.17968941290E+02  0.00000000000E+00 0.  1.
<mgrwt>
<rscale>  0 0.30173241E+02</rscale>
<asrwt>0</asrwt>
<pdfrwt beam="2">  1        3 0.14312715E-02 0.30173241E+02</pdfrwt>
<pdfrwt beam="1">  1       -3 0.37638751E-02 0.30173241E+02</pdfrwt>
<totfact> 0.67702231E+05</totfact>
</mgrwt>
</event>
<event>
 4    1  0.2126213E+000  0.2492642E+02  0.7546771E-02  0.1662061E+00
          4   -1    0    0  501    0  0.00000000000E+00  0.00000000000E+00  0.22738327042E+02  0.22738327042E+02  0.00000000000E+00 0.  1.
         -4   -1    0    0    0  501 -0.00000000000E+00 -0.00000000000E+00 -0.68312662519E+01  0.68312662519E+01  0.00000000000E+00 0. -1.
        -13    1    1    2    0    0  0.26874688344E+01  0.11990711165E+02  0.10422557557E+02  0.16113017998E+02  0.00000000000E+00 0.  1.
         13    1    1    2    0    0 -0.26874688344E+01 -0.11990711165E+02  0.54845032331E+01  0.13456575296E+02  0.00000000000E+00 0. -1.
<mgrwt>
<rscale>  0 0.24926417E+02</rscale>
<asrwt>0</asrwt>
<pdfrwt beam="1">  1        4 0.34982041E-02 0.24926417E+02</pdfrwt>
<pdfrwt beam="2">  1       -4 0.10509640E-02 0.24926417E+02</pdfrwt>
<totfact> 0.78547895E+05</totfact>
</mgrwt>
</event>
<event>
 4    1  0.2126213E+000  0.2551542E+02  0.7546771E-02  0.1653707E+00
         -4   -1    0    0    0  501 -0.00000000000E+00  0.00000000000E+00  0.74317054728E+02  0.74317054728E+02  0.00000000000E+00 0.  1.
          4   -1    0    0  501    0  0.00000000000E+00 -0.00000000000E+00 -0.21900645251E+01  0.21900645251E+01  0.00000000000E+00 0. -1.
        -13    1    1    2    0    0 -0.10888754720E+02  0.64841700344E+01  0.31667182491E+02  0.34108941457E+02  0.00000000000E+00 0.  1.
         13    1    1    2    0    0  0.10888754720E+02 -0.64841700344E+01  0.40459807712E+02  0.42398177796E+02  0.00000000000E+00 0. -1.
<mgrwt>
<rscale>  0 0.25515418E+02</rscale>
<asrwt>0</asrwt>
<pdfrwt beam="2">  1        4 0.33693306E-03 0.25515418E+02</pdfrwt>
<pdfrwt beam="1">  1       -4 0.11433391E-01 0.25515418E+02</pdfrwt>
<totfact> 0.63420142E+05</totfact>
</mgrwt>
</event>
<event>
 4    1  0.2126213E+000  0.2762869E+02  0.7546771E-02  0.1625884E+00
          2   -1    0    0  501    0  0.00000000000E+00  0.00000000000E+00  0.11857546043E+02  0.11857546043E+02  0.00000000000E+00 0. -1.
         -2   -1    0    0    0  501 -0.00000000000E+00 -0.00000000000E+00 -0.16094060526E+02  0.16094060526E+02  0.00000000000E+00 0.  1.
        -11    1    1    2    0    0 -0.11725626169E+02  0.61574593658E+01  0.18559444618E+01  0.13373449247E+02  0.00000000000E+00 0. -1.
         11    1    1    2    0    0  0.11725626169E+02 -0.61574593658E+01 -0.60924589450E+01  0.14578157322E+02  0.00000000000E+00 0.  1.
<mgrwt>
<rscale>  0 0.27628685E+02</rscale>
<asrwt>0</asrwt>
<pdfrwt beam="1">  1        2 0.18242379E-02 0.27628685E+02</pdfrwt>
<pdfrwt beam="2">  1       -2 0.24760093E-02 0.27628685E+02</pdfrwt>
<totfact> 0.18693027E+06</totfact>
</mgrwt>
</event>
<event>
 4    1  0.2126213E+000  0.2748055E+02  0.7546771E-02  0.1627733E+00
          4   -1    0    0  501    0  0.00000000000E+00  0.00000000000E+00  0.64453477199E+01  0.64453477199E+01  0.00000000000E+00 0.  1.
         -4   -1    0    0    0  501 -0.00000000000E+00 -0.00000000000E+00 -0.29291692365E+02  0.29291692365E+02  0.00000000000E+00 0. -1.
        -13    1    1    2    0    0  0.12390439687E+02  0.15892303244E+01 -0.39814136961E+01  0.13111075611E+02  0.00000000000E+00 0.  1.
         13    1    1    2    0    0 -0.12390439687E+02 -0.15892303244E+01 -0.18864930949E+02  0.22625964474E+02  0.00000000000E+00 0. -1.
<mgrwt>
<rscale>  0 0.27480549E+02</rscale>
<asrwt>0</asrwt>
<pdfrwt beam="1">  1        4 0.99159196E-03 0.27480549E+02</pdfrwt>
<pdfrwt beam="2">  1       -4 0.45064142E-02 0.27480549E+02</pdfrwt>
<totfact> 0.61932555E+05</totfact>
</mgrwt>
</event>
<event>
 4    1  0.2126213E+000  0.2714316E+02  0.7546771E-02  0.1631999E+00
          2   -1    0    0  501    0  0.00000000000E+00  0.00000000000E+00  0.40779824145E+02  0.40779824145E+02  0.00000000000E+00 0.  1.
         -2   -1    0    0    0  501 -0.00000000000E+00 -0.00000000000E+00 -0.45166389134E+01  0.45166389134E+01  0.00000000000E+00 0. -1.
        -13    1    1    2    0    0  0.10226643563E+02  0.70741358212E+01  0.27204718112E+02  0.29911942827E+02  0.00000000000E+00 0.  1.
         13    1    1    2    0    0 -0.10226643563E+02 -0.70741358212E+01  0.90584671200E+01  0.15384520231E+02  0.00000000000E+00 0. -1.
<mgrwt>
<rscale>  0 0.27143157E+02</rscale>
<asrwt>0</asrwt>
<pdfrwt beam="1">  1        2 0.62738189E-02 0.27143157E+02</pdfrwt>
<pdfrwt beam="2">  1       -2 0.69486755E-03 0.27143157E+02</pdfrwt>
<totfact> 0.22336169E+06</totfact>
</mgrwt>
</event>
<event>
 4    1  0.2126213E+000  0.2377865E+02  0.7546771E-02  0.1679191E+00
          2   -1    0    0  501    0  0.00000000000E+00  0.00000000000E+00  0.15655555308E+02  0.15655555308E+02  0.00000000000E+00 0.  1.
         -2   -1    0    0    0  501 -0.00000000000E+00 -0.00000000000E+00 -0.90291301813E+01  0.90291301813E+01  0.00000000000E+00 0. -1.
        -13    1    1    2    0    0  0.20632707405E+00  0.11887079216E+02  0.32052110411E+01  0.12313350518E+02  0.00000000000E+00 0. -1.
         13    1    1    2    0    0 -0.20632707405E+00 -0.11887079216E+02  0.34212140861E+01  0.12371334972E+02  0.00000000000E+00 0.  1.
<mgrwt>
<rscale>  0 0.23778650E+02</rscale>
<asrwt>0</asrwt>
<pdfrwt beam="1">  1        2 0.24085470E-02 0.23778650E+02</pdfrwt>
<pdfrwt beam="2">  1       -2 0.13890970E-02 0.23778650E+02</pdfrwt>
<totfact> 0.27409743E+06</totfact>
</mgrwt>
</event>
<event>
 4    1  0.2126213E+000  0.5360323E+02  0.7546771E-02  0.1426822E+00
          2   -1    0    0  501    0  0.00000000000E+00  0.00000000000E+00  0.20693760994E+02  0.20693760994E+02  0.00000000000E+00 0.  1.
         -2   -1    0    0    0  501 -0.00000000000E+00 -0.00000000000E+00 -0.34712223790E+02  0.34712223790E+02  0.00000000000E+00 0. -1.
        -13    1    1    2    0    0 -0.24823093415E+02 -0.93342633621E+01 -0.30043895755E+01  0.26689713297E+02  0.00000000000E+00 0.  1.
         13    1    1    2    0    0  0.24823093415E+02  0.93342633621E+01 -0.11014073220E+02  0.28716271486E+02  0.00000000000E+00 0. -1.
<mgrwt>
<rscale>  0 0.53603226E+02</rscale>
<asrwt>0</asrwt>
<pdfrwt beam="1">  1        2 0.31836556E-02 0.53603226E+02</pdfrwt>
<pdfrwt beam="2">  1       -2 0.53403420E-02 0.53603226E+02</pdfrwt>
<totfact> 0.36734464E+05</totfact>
</mgrwt>
</event>
<event>
 4    1  0.2126213E+000  0.4155848E+02  0.7546771E-02  0.1497046E+00
          4   -1    0    0  501    0  0.00000000000E+00  0.00000000000E+00  0.22402563338E+01  0.22402563338E+01  0.00000000000E+00 0.  1.
         -4   -1    0    0    0  501 -0.00000000000E+00 -0.00000000000E+00 -0.19273545380E+03  0.19273545380E+03  0.00000000000E+00 0. -1.
        -13    1    1    2    0    0  0.53228032713E+00 -0.20037953347E+02 -0.69561824742E+02  0.72392336322E+02  0.00000000000E+00 0. -1.
         13    1    1    2    0    0 -0.53228032713E+00  0.20037953347E+02 -0.12093337272E+03  0.12258337381E+03  0.00000000000E+00 0.  1.
<mgrwt>
<rscale>  0 0.41558480E+02</rscale>
<asrwt>0</asrwt>
<pdfrwt beam="1">  1        4 0.34465467E-03 0.41558480E+02</pdfrwt>
<pdfrwt beam="2">  1       -4 0.29651621E-01 0.41558480E+02</pdfrwt>
<totfact> 0.15664860E+05</totfact>
</mgrwt>
</event>
<event>
 4    1  0.2126213E+000  0.8192662E+02  0.7546771E-02  0.1323671E+00
          1   -1    0    0  501    0  0.00000000000E+00  0.00000000000E+00  0.10538989351E+03  0.10538989351E+03  0.00000000000E+00 0. -1.
         -1   -1    0    0    0  501 -0.00000000000E+00 -0.00000000000E+00 -0.15921761138E+02  0.15921761138E+02  0.00000000000E+00 0.  1.
        -11    1    1    2    0    0  0.33165970192E+02  0.23818195728E+02  0.39889393646E+02  0.57082849894E+02  0.00000000000E+00 0. -1.
         11    1    1    2    0    0 -0.33165970192E+02 -0.23818195728E+02  0.49578738731E+02  0.64228804759E+02  0.00000000000E+00 0.  1.
<mgrwt>
<rscale>  0 0.81926619E+02</rscale>
<asrwt>0</asrwt>
<pdfrwt beam="1">  1        1 0.16213829E-01 0.81926619E+02</pdfrwt>
<pdfrwt beam="2">  1       -1 0.24495018E-02 0.81926619E+02</pdfrwt>
<totfact> 0.14068438E+05</totfact>
</mgrwt>
</event>
<event>
 4    1  0.2126213E+000  0.3144494E+02  0.7546771E-02  0.1582645E+00
          2   -1    0    0  501    0  0.00000000000E+00  0.00000000000E+00  0.12025855000E+02  0.12025855000E+02  0.00000000000E+00 0. -1.
         -2   -1    0    0    0  501 -0.00000000000E+00 -0.00000000000E+00 -0.20555385529E+02  0.20555385529E+02  0.00000000000E+00 0.  1.
        -11    1    1    2    0    0  0.59896778371E+01 -0.97435828984E+01  0.69131432279E+01  0.13364325557E+02  0.00000000000E+00 0. -1.
         11    1    1    2    0    0 -0.59896778371E+01  0.97435828984E+01 -0.15442673757E+02  0.19216914972E+02  0.00000000000E+00 0.  1.
<mgrwt>
<rscale>  0 0.31444941E+02</rscale>
<asrwt>0</asrwt>
<pdfrwt beam="1">  1        2 0.18501315E-02 0.31444941E+02</pdfrwt>
<pdfrwt beam="2">  1       -2 0.31623670E-02 0.31444941E+02</pdfrwt>
<totfact> 0.13621681E+06</totfact>
</mgrwt>
</event>
<event>
 4    1  0.2126213E+000  0.2874437E+02  0.7546771E-02  0.1612398E+00
          2   -1    0    0  501    0  0.00000000000E+00  0.00000000000E+00  0.12084444871E+02  0.12084444871E+02  0.00000000000E+00 0. -1.
         -2   -1    0    0    0  501 -0.00000000000E+00 -0.00000000000E+00 -0.17093019815E+02  0.17093019815E+02  0.00000000000E+00 0.  1.
        -11    1    1    2    0    0  0.22898889589E+01  0.11237003160E+02 -0.11297712632E+02  0.16098203073E+02  0.00000000000E+00 0.  1.
         11    1    1    2    0    0 -0.22898889589E+01 -0.11237003160E+02  0.62891376881E+01  0.13079261612E+02  0.00000000000E+00 0. -1.
<mgrwt>
<rscale>  0 0.28744367E+02</rscale>
<asrwt>0</asrwt>
<pdfrwt beam="1">  1        2 0.18591454E-02 0.28744367E+02</pdfrwt>
<pdfrwt beam="2">  1       -2 0.26296954E-02 0.28744367E+02</pdfrwt>
<totfact> 0.17007731E+06</totfact>
</mgrwt>
</event>
<event>
 4    1  0.2126213E+000  0.4263982E+02  0.7546771E-02  0.1489638E+00
          2   -1    0    0  501    0  0.00000000000E+00  0.00000000000E+00  0.11301765705E+03  0.11301765705E+03  0.00000000000E+00 0. -1.
         -2   -1    0    0    0  501 -0.00000000000E+00 -0.00000000000E+00 -0.40218364769E+01  0.40218364769E+01  0.00000000000E+00 0.  1.
        -11    1    1    2    0    0  0.14006973310E+02  0.99644241607E+01  0.89114850592E+02  0.90757598284E+02  0.00000000000E+00 0. -1.
         11    1    1    2    0    0 -0.14006973310E+02 -0.99644241607E+01  0.19880969978E+02  0.26281895240E+02  0.00000000000E+00 0.  1.
<mgrwt>
<rscale>  0 0.42639819E+02</rscale>
<asrwt>0</asrwt>
<pdfrwt beam="1">  1        2 0.17387329E-01 0.42639819E+02</pdfrwt>
<pdfrwt beam="2">  1       -2 0.61874416E-03 0.42639819E+02</pdfrwt>
<totfact> 0.92127512E+05</totfact>
</mgrwt>
</event>
<event>
 4    1  0.2126213E+000  0.2443101E+02  0.7546771E-02  0.1669312E+00
         -2   -1    0    0    0  501 -0.00000000000E+00  0.00000000000E+00  0.40117036370E+02  0.40117036370E+02  0.00000000000E+00 0.  1.
          2   -1    0    0  501    0  0.00000000000E+00 -0.00000000000E+00 -0.37195823558E+01  0.37195823558E+01  0.00000000000E+00 0. -1.
        -13    1    1    2    0    0  0.10083969344E+02 -0.42490856929E+01  0.27940556516E+02  0.30006930289E+02  0.00000000000E+00 0.  1.
         13    1    1    2    0    0 -0.10083969344E+02  0.42490856929E+01  0.84568974976E+01  0.13829688436E+02  0.00000000000E+00 0. -1.
<mgrwt>
<rscale>  0 0.24431015E+02</rscale>
<asrwt>0</asrwt>
<pdfrwt beam="2">  1        2 0.57224347E-03 0.24431015E+02</pdfrwt>
<pdfrwt beam="1">  1       -2 0.61718514E-02 0.24431015E+02</pdfrwt>
<totfact> 0.22400050E+06</totfact>
</mgrwt>
</event>
<event>
 4    1  0.2126213E+000  0.3951963E+02  0.7546771E-02  0.1511777E+00
         -2   -1    0    0    0  501 -0.00000000000E+00  0.00000000000E+00  0.11261202436E+02  0.11261202436E+02  0.00000000000E+00 0.  1.
          2   -1    0    0  501    0  0.00000000000E+00 -0.00000000000E+00 -0.34672169217E+02  0.34672169217E+02  0.00000000000E+00 0. -1.
        -13    1    1    2    0    0 -0.11673247795E+02 -0.10714566144E+02 -0.25427609144E+02  0.29960473102E+02  0.00000000000E+00 0. -1.
         13    1    1    2    0    0  0.11673247795E+02  0.10714566144E+02  0.20166423626E+01  0.15972898552E+02  0.00000000000E+00 0.  1.
<mgrwt>
<rscale>  0 0.39519631E+02</rscale>
<asrwt>0</asrwt>
<pdfrwt beam="2">  1        2 0.53341799E-02 0.39519631E+02</pdfrwt>
<pdfrwt beam="1">  1       -2 0.17324927E-02 0.39519631E+02</pdfrwt>
<totfact> 0.87647801E+05</totfact>
</mgrwt>
</event>
<event>
 4    1  0.2126213E+000  0.3036045E+02  0.7546771E-02  0.1594138E+00
         -2   -1    0    0    0  501 -0.00000000000E+00  0.00000000000E+00  0.28384173120E+01  0.28384173120E+01  0.00000000000E+00 0.  1.
          2   -1    0    0  501    0  0.00000000000E+00 -0.00000000000E+00 -0.81185832985E+02  0.81185832985E+02  0.00000000000E+00 0. -1.
        -11    1    1    2    0    0 -0.12307597532E+02  0.69816569149E+01 -0.23960006353E+02  0.27826289632E+02  0.00000000000E+00 0. -1.
         11    1    1    2    0    0  0.12307597532E+02 -0.69816569149E+01 -0.54387409321E+02  0.56197960665E+02  0.00000000000E+00 0.  1.
<mgrwt>
<rscale>  0 0.30360453E+02</rscale>
<asrwt>0</asrwt>
<pdfrwt beam="2">  1        2 0.12490130E-01 0.30360453E+02</pdfrwt>
<pdfrwt beam="1">  1       -2 0.43667952E-03 0.30360453E+02</pdfrwt>
<totfact> 0.19368876E+06</totfact>
</mgrwt>
</event>
<event>
 4    1  0.2126213E+000  0.3491368E+02  0.7546771E-02  0.1549368E+00
          2   -1    0    0  501    0  0.00000000000E+00  0.00000000000E+00  0.21725227430E+01  0.21725227430E+01  0.00000000000E+00 0. -1.
         -2   -1    0    0    0  501 -0.00000000000E+00 -0.00000000000E+00 -0.14027067742E+03  0.14027067742E+03  0.00000000000E+00 0.  1.
        -11    1    1    2    0    0 -0.16709561274E+01  0.16153305785E+02 -0.95179303725E+02  0.96554757727E+02  0.00000000000E+00 0.  1.
         11    1    1    2    0    0  0.16709561274E+01 -0.16153305785E+02 -0.42918850956E+02  0.45888442440E+02  0.00000000000E+00 0. -1.
<mgrwt>
<rscale>  0 0.34913679E+02</rscale>
<asrwt>0</asrwt>
<pdfrwt beam="1">  1        2 0.33423427E-03 0.34913679E+02</pdfrwt>
<pdfrwt beam="2">  1       -2 0.21580104E-01 0.34913679E+02</pdfrwt>
<totfact> 0.76169854E+05</totfact>
</mgrwt>
</event>
<event>
 4    1  0.2126213E+000  0.2304881E+02  0.7546771E-02  0.1690720E+00
          2   -1    0    0  501    0  0.00000000000E+00  0.00000000000E+00  0.58641895055E+02  0.58641895055E+02  0.00000000000E+00 0.  1.
         -2   -1    0    0    0  501 -0.00000000000E+00 -0.00000000000E+00 -0.22647952148E+01  0.22647952148E+01  0.00000000000E+00 0. -1.
        -11    1    1    2    0    0  0.14592904475E+01 -0.11264611219E+02  0.33333569818E+02  0.35215733293E+02  0.00000000000E+00 0.  1.
         11    1    1    2    0    0 -0.14592904475E+01  0.11264611219E+02  0.23043530022E+02  0.25690956977E+02  0.00000000000E+00 0. -1.
<mgrwt>
<rscale>  0 0.23048808E+02</rscale>
<asrwt>0</asrwt>
<pdfrwt beam="1">  1        2 0.90218289E-02 0.23048808E+02</pdfrwt>
<pdfrwt beam="2">  1       -2 0.34843008E-03 0.23048808E+02</pdfrwt>
<totfact> 0.34520115E+06</totfact>
</mgrwt>
</event>
<event>
 4    1  0.2126213E+000  0.2316256E+02  0.7546771E-02  0.1688889E+00
          1   -1    0    0  501    0  0.00000000000E+00  0.00000000000E+00  0.92607387981E+01  0.92607387981E+01  0.00000000000E+00 0.  1.
         -1   -1    0    0    0  501 -0.00000000000E+00 -0.00000000000E+00 -0.14483294451E+02  0.14483294451E+02  0.00000000000E+00 0. -1.
        -11    1    1    2    0    0  0.11368423395E+02  0.11380815186E+01 -0.66905658818E+00  0.11444820520E+02  0.00000000000E+00 0. -1.
         11    1    1    2    0    0 -0.11368423395E+02 -0.11380815186E+01 -0.45534990649E+01  0.12299212729E+02  0.00000000000E+00 0.  1.
<mgrwt>
<rscale>  0 0.23162557E+02</rscale>
<asrwt>0</asrwt>
<pdfrwt beam="1">  1        1 0.14247290E-02 0.23162557E+02</pdfrwt>
<pdfrwt beam="2">  1       -1 0.22281991E-02 0.23162557E+02</pdfrwt>
<totfact> 0.27451397E+06</totfact>
</mgrwt>
</event>
<event>
 4    1  0.2126213E+000  0.3883008E+02  0.7546771E-02  0.1517002E+00
          2   -1    0    0  501    0  0.00000000000E+00  0.00000000000E+00  0.67273783045E+02  0.67273783045E+02  0.00000000000E+00 0.  1.
         -2   -1    0    0    0  501 -0.00000000000E+00 -0.00000000000E+00 -0.56031316056E+01  0.56031316056E+01  0.00000000000E+00 0. -1.
        -11    1    1    2    0    0 -0.84205881085E+01  0.17268605201E+02  0.36088006452E+02  0.40883434780E+02  0.00000000000E+00 0.  1.
         11    1    1    2    0    0  0.84205881085E+01 -0.17268605201E+02  0.25582644987E+02  0.31993479871E+02  0.00000000000E+00 0. -1.
<mgrwt>
<rscale>  0 0.38830084E+02</rscale>
<asrwt>0</asrwt>
<pdfrwt beam="1">  1        2 0.10349812E-01 0.38830084E+02</pdfrwt>
<pdfrwt beam="2">  1       -2 0.86202029E-03 0.38830084E+02</pdfrwt>
<totfact> 0.10272884E+06</totfact>
</mgrwt>
</event>
<event>
 4    1  0.2126213E+000  0.2194203E+02  0.7546771E-02  0.1709256E+00
          2   -1    0    0  501    0  0.00000000000E+00  0.00000000000E+00  0.48682138142E+01  0.48682138142E+01  0.00000000000E+00 0. -1.
         -2   -1    0    0    0  501 -0.00000000000E+00 -0.00000000000E+00 -0.24724299379E+02  0.24724299379E+02  0.00000000000E+00 0.  1.
        -13    1    1    2    0    0  0.30560367082E+01 -0.10529320719E+02 -0.10462803866E+02  0.15155072415E+02  0.00000000000E+00 0.  1.
         13    1    1    2    0    0 -0.30560367082E+01  0.10529320719E+02 -0.93932816990E+01  0.14437440779E+02  0.00000000000E+00 0. -1.
<mgrwt>
<rscale>  0 0.21942031E+02</rscale>
<asrwt>0</asrwt>
<pdfrwt beam="1">  1        2 0.74895598E-03 0.21942031E+02</pdfrwt>
<pdfrwt beam="2">  1       -2 0.38037383E-02 0.21942031E+02</pdfrwt>
<totfact> 0.29989761E+06</totfact>
</mgrwt>
</event>
<event>
 4    1  0.2126213E+000  0.3146031E+02  0.7546771E-02  0.1582486E+00
         -1   -1    0    0    0  501 -0.00000000000E+00  0.00000000000E+00  0.44097652066E+02  0.44097652066E+02  0.00000000000E+00 0.  1.
          1   -1    0    0  501    0  0.00000000000E+00 -0.00000000000E+00 -0.56111321006E+01  0.56111321006E+01  0.00000000000E+00 0. -1.
        -11    1    1    2    0    0 -0.59987538281E+01  0.13420437920E+02  0.28089346494E+02  0.31703384486E+02  0.00000000000E+00 0. -1.
         11    1    1    2    0    0  0.59987538281E+01 -0.13420437920E+02  0.10397173472E+02  0.18005399680E+02  0.00000000000E+00 0.  1.
<mgrwt>
<rscale>  0 0.31460308E+02</rscale>
<asrwt>0</asrwt>
<pdfrwt beam="2">  1        1 0.86325112E-03 0.31460308E+02</pdfrwt>
<pdfrwt beam="1">  1       -1 0.67842539E-02 0.31460308E+02</pdfrwt>
<totfact> 0.12609780E+06</totfact>
</mgrwt>
</event>
<event>
 4    1  0.2126213E+000  0.4014870E+02  0.7546771E-02  0.1507120E+00
         -2   -1    0    0    0  501 -0.00000000000E+00  0.00000000000E+00  0.58923480598E+02  0.58923480598E+02  0.00000000000E+00 0.  1.
          2   -1    0    0  501    0  0.00000000000E+00 -0.00000000000E+00 -0.68390312740E+01  0.68390312740E+01  0.00000000000E+00 0. -1.
        -13    1    1    2    0    0 -0.60665030636E+01 -0.11126122805E+02  0.51543452006E+02  0.53078437361E+02  0.00000000000E+00 0.  1.
         13    1    1    2    0    0  0.60665030636E+01  0.11126122805E+02  0.54099731832E+00  0.12684074510E+02  0.00000000000E+00 0. -1.
<mgrwt>
<rscale>  0 0.40148700E+02</rscale>
<asrwt>0</asrwt>
<pdfrwt beam="2">  1        2 0.10521587E-02 0.40148700E+02</pdfrwt>
<pdfrwt beam="1">  1       -2 0.90651505E-02 0.40148700E+02</pdfrwt>
<totfact> 0.66953412E+05</totfact>
</mgrwt>
</event>
<event>
 4    1  0.2126213E+000  0.4468609E+02  0.7546771E-02  0.1476311E+00
          1   -1    0    0  501    0  0.00000000000E+00  0.00000000000E+00  0.26500097437E+02  0.26500097437E+02  0.00000000000E+00 0. -1.
         -1   -1    0    0    0  501 -0.00000000000E+00 -0.00000000000E+00 -0.18838102789E+02  0.18838102789E+02  0.00000000000E+00 0.  1.
        -11    1    1    2    0    0 -0.93326817518E+00 -0.18515018905E+02  0.16484347726E+02  0.24807471345E+02  0.00000000000E+00 0. -1.
         11    1    1    2    0    0  0.93326817518E+00  0.18515018905E+02 -0.88223530781E+01  0.20530728881E+02  0.00000000000E+00 0.  1.
<mgrwt>
<rscale>  0 0.44686086E+02</rscale>
<asrwt>0</asrwt>
<pdfrwt beam="1">  1        1 0.40769381E-02 0.44686086E+02</pdfrwt>
<pdfrwt beam="2">  1       -1 0.28981697E-02 0.44686086E+02</pdfrwt>
<totfact> 0.58710211E+05</totfact>
</mgrwt>
</event>
<event>
 4    1  0.2126213E+000  0.2056793E+02  0.7546771E-02  0.1734264E+00
          2   -1    0    0  501    0  0.00000000000E+00  0.00000000000E+00  0.18919621602E+02  0.18919621602E+02  0.00000000000E+00 0. -1.
         -2   -1    0    0    0  501 -0.00000000000E+00 -0.00000000000E+00 -0.55899612117E+01  0.55899612117E+01  0.00000000000E+00 0.  1.
        -13    1    1    2    0    0  0.88578370357E+01  0.49852410123E+01  0.85285370923E+01  0.13268377815E+02  0.00000000000E+00 0.  1.
         13    1    1    2    0    0 -0.88578370357E+01 -0.49852410123E+01  0.48011232978E+01  0.11241204999E+02  0.00000000000E+00 0. -1.
<mgrwt>
<rscale>  0 0.20567931E+02</rscale>
<asrwt>0</asrwt>
<pdfrwt beam="1">  1        2 0.29107110E-02 0.20567931E+02</pdfrwt>
<pdfrwt beam="2">  1       -2 0.85999404E-03 0.20567931E+02</pdfrwt>
<totfact> 0.38928302E+06</totfact>
</mgrwt>
</event>
<event>
 4    1  0.2126213E+000  0.2194930E+02  0.7546771E-02  0.1709130E+00
          4   -1    0    0  501    0  0.00000000000E+00  0.00000000000E+00  0.50979515155E+01  0.50979515155E+01  0.00000000000E+00 0.  1.
         -4   -1    0    0    0  501 -0.00000000000E+00 -0.00000000000E+00 -0.23625744719E+02  0.23625744719E+02  0.00000000000E+00 0. -1.
        -11    1    1    2    0    0  0.96899501054E+01  0.48355229092E+01 -0.11592201979E+02  0.15863686884E+02  0.00000000000E+00 0.  1.
         11    1    1    2    0    0 -0.96899501054E+01 -0.48355229092E+01 -0.69355912249E+01  0.12860009350E+02  0.00000000000E+00 0. -1.
<mgrwt>
<rscale>  0 0.21949296E+02</rscale>
<asrwt>0</asrwt>
<pdfrwt beam="1">  1        4 0.78430024E-03 0.21949296E+02</pdfrwt>
<pdfrwt beam="2">  1       -4 0.36347299E-02 0.21949296E+02</pdfrwt>
<totfact> 0.10332058E+06</totfact>
</mgrwt>
</event>
<event>
 4    1  0.2126213E+000  0.2851887E+02  0.7546771E-02  0.1615062E+00
         -4   -1    0    0    0  501 -0.00000000000E+00  0.00000000000E+00  0.34178895188E+01  0.34178895188E+01  0.00000000000E+00 0. -1.
          4   -1    0    0  501    0  0.00000000000E+00 -0.00000000000E+00 -0.59490345098E+02  0.59490345098E+02  0.00000000000E+00 0.  1.
        -13    1    1    2    0    0  0.10245186020E+02 -0.73747637566E+01 -0.13407549745E+02  0.18415031014E+02  0.00000000000E+00 0. -1.
         13    1    1    2    0    0 -0.10245186020E+02  0.73747637566E+01 -0.42664905834E+02  0.44493203603E+02  0.00000000000E+00 0.  1.
<mgrwt>
<rscale>  0 0.28518866E+02</rscale>
<asrwt>0</asrwt>
<pdfrwt beam="2">  1        4 0.91523593E-02 0.28518866E+02</pdfrwt>
<pdfrwt beam="1">  1       -4 0.52582924E-03 0.28518866E+02</pdfrwt>
<totfact> 0.51921697E+05</totfact>
</mgrwt>
</event>
<event>
 4    1  0.2126213E+000  0.2794422E+02  0.7546771E-02  0.1621991E+00
         -2   -1    0    0    0  501 -0.00000000000E+00  0.00000000000E+00  0.34174497416E+02  0.34174497416E+02  0.00000000000E+00 0.  1.
          2   -1    0    0  501    0  0.00000000000E+00 -0.00000000000E+00 -0.57124411795E+01  0.57124411795E+01  0.00000000000E+00 0. -1.
        -13    1    1    2    0    0 -0.15638079389E+01  0.12784489402E+02  0.65006051862E+01  0.14427284302E+02  0.00000000000E+00 0. -1.
         13    1    1    2    0    0  0.15638079389E+01 -0.12784489402E+02  0.21961451050E+02  0.25459654294E+02  0.00000000000E+00 0.  1.
<mgrwt>
<rscale>  0 0.27944216E+02</rscale>
<asrwt>0</asrwt>
<pdfrwt beam="2">  1        2 0.87883713E-03 0.27944216E+02</pdfrwt>
<pdfrwt beam="1">  1       -2 0.52576148E-02 0.27944216E+02</pdfrwt>
<totfact> 0.16850379E+06</totfact>
</mgrwt>
</event>
<event>
 4    1  0.2126213E+000  0.2921217E+02  0.7546771E-02  0.1606964E+00
         -1   -1    0    0    0  501 -0.00000000000E+00  0.00000000000E+00  0.20995114501E+02  0.20995114501E+02  0.00000000000E+00 0. -1.
          1   -1    0    0  501    0  0.00000000000E+00 -0.00000000000E+00 -0.10161303253E+02  0.10161303253E+02  0.00000000000E+00 0.  1.
        -13    1    1    2    0    0  0.88937163790E+01 -0.10372189624E+02 -0.89790270554E-01  0.13663402612E+02  0.00000000000E+00 0.  1.
         13    1    1    2    0    0 -0.88937163790E+01  0.10372189624E+02  0.10923601519E+02  0.17493015143E+02  0.00000000000E+00 0. -1.
<mgrwt>
<rscale>  0 0.29212170E+02</rscale>
<asrwt>0</asrwt>
<pdfrwt beam="2">  1        1 0.15632774E-02 0.29212170E+02</pdfrwt>
<pdfrwt beam="1">  1       -1 0.32300176E-02 0.29212170E+02</pdfrwt>
<totfact> 0.15860020E+06</totfact>
</mgrwt>
</event>
<event>
 4    1  0.2126213E+000  0.8576872E+02  0.7546771E-02  0.1313434E+00
         -2   -1    0    0    0  501 -0.00000000000E+00  0.00000000000E+00  0.18529735227E+02  0.18529735227E+02  0.00000000000E+00 0. -1.
          2   -1    0    0  501    0  0.00000000000E+00 -0.00000000000E+00 -0.99249581346E+02  0.99249581346E+02  0.00000000000E+00 0.  1.
        -13    1    1    2    0    0 -0.35103383752E+02 -0.23817281548E+02 -0.48996811653E+02  0.64808934595E+02  0.00000000000E+00 0.  1.
         13    1    1    2    0    0  0.35103383752E+02  0.23817281548E+02 -0.31723034465E+02  0.52970381978E+02  0.00000000000E+00 0. -1.
<mgrwt>
<rscale>  0 0.85768723E+02</rscale>
<asrwt>0</asrwt>
<pdfrwt beam="2">  1        2 0.15269166E-01 0.85768723E+02</pdfrwt>
<pdfrwt beam="1">  1       -2 0.28507285E-02 0.85768723E+02</pdfrwt>
<totfact> 0.14471440E+05</totfact>
</mgrwt>
</event>
<event>
 4    1  0.2126213E+000  0.3666390E+02  0.7546771E-02  0.1534302E+00
         -2   -1    0    0    0  501 -0.00000000000E+00  0.00000000000E+00  0.30165131145E+02  0.30165131145E+02  0.00000000000E+00 0. -1.
          2   -1    0    0  501    0  0.00000000000E+00 -0.00000000000E+00 -0.11140691540E+02  0.11140691540E+02  0.00000000000E+00 0.  1.
        -13    1    1    2    0    0  0.12184161152E+02 -0.29006597462E+01 -0.55688756442E+01  0.13706932038E+02  0.00000000000E+00 0.  1.
         13    1    1    2    0    0 -0.12184161152E+02  0.29006597462E+01  0.24593315249E+02  0.27598890646E+02  0.00000000000E+00 0. -1.
<mgrwt>
<rscale>  0 0.36663902E+02</rscale>
<asrwt>0</asrwt>
<pdfrwt beam="2">  1        2 0.17139526E-02 0.36663902E+02</pdfrwt>
<pdfrwt beam="1">  1       -2 0.46407894E-02 0.36663902E+02</pdfrwt>
<totfact> 0.91515004E+05</totfact>
</mgrwt>
</event>
<event>
 4    1  0.2126213E+000  0.2250537E+02  0.7546771E-02  0.1699656E+00
          2   -1    0    0  501    0  0.00000000000E+00  0.00000000000E+00  0.19117720938E+02  0.19117720938E+02  0.00000000000E+00 0.  1.
         -2   -1    0    0    0  501 -0.00000000000E+00 -0.00000000000E+00 -0.66233252989E+01  0.66233252989E+01  0.00000000000E+00 0. -1.
        -13    1    1    2    0    0 -0.93432257988E+01 -0.38832074174E+01  0.11879364782E+02  0.15604309527E+02  0.00000000000E+00 0.  1.
         13    1    1    2    0    0  0.93432257988E+01  0.38832074174E+01  0.61503085679E+00  0.10136736710E+02  0.00000000000E+00 0. -1.
<mgrwt>
<rscale>  0 0.22505367E+02</rscale>
<asrwt>0</asrwt>
<pdfrwt beam="1">  1        2 0.29411878E-02 0.22505367E+02</pdfrwt>
<pdfrwt beam="2">  1       -2 0.10189731E-02 0.22505367E+02</pdfrwt>
<totfact> 0.31707621E+06</totfact>
</mgrwt>
</event>
<event>
 4    1  0.2126213E+000  0.4194717E+02  0.7546771E-02  0.1494352E+00
         -2   -1    0    0    0  501 -0.00000000000E+00  0.00000000000E+00  0.21194518344E+01  0.21194518344E+01  0.00000000000E+00 0. -1.
          2   -1    0    0  501    0  0.00000000000E+00 -0.00000000000E+00 -0.20754950504E+03  0.20754950504E+03  0.00000000000E+00 0.  1.
        -11    1    1    2    0    0 -0.12763737324E+02  0.16097617177E+02 -0.81600142968E+02  0.84146477060E+02  0.00000000000E+00 0.  1.
         11    1    1    2    0    0  0.12763737324E+02 -0.16097617177E+02 -0.12382991024E+03  0.12552247982E+03  0.00000000000E+00 0. -1.
<mgrwt>
<rscale>  0 0.41947166E+02</rscale>
<asrwt>0</asrwt>
<pdfrwt beam="2">  1        2 0.31930696E-01 0.41947166E+02</pdfrwt>
<pdfrwt beam="1">  1       -2 0.32606948E-03 0.41947166E+02</pdfrwt>
<totfact> 0.11510624E+06</totfact>
</mgrwt>
</event>
<event>
 4    1  0.2126213E+000  0.5001623E+02  0.7546771E-02  0.1445254E+00
         -2   -1    0    0    0  501 -0.00000000000E+00  0.00000000000E+00  0.14216665508E+02  0.14216665508E+02  0.00000000000E+00 0. -1.
          2   -1    0    0  501    0  0.00000000000E+00 -0.00000000000E+00 -0.43991031301E+02  0.43991031301E+02  0.00000000000E+00 0.  1.
        -13    1    1    2    0    0  0.28146085520E+01  0.23052604282E+02 -0.40909274087E+01  0.23581354341E+02  0.00000000000E+00 0.  1.
         13    1    1    2    0    0 -0.28146085520E+01 -0.23052604282E+02 -0.25683438384E+02  0.34626342468E+02  0.00000000000E+00 0. -1.
<mgrwt>
<rscale>  0 0.50016228E+02</rscale>
<asrwt>0</asrwt>
<pdfrwt beam="2">  1        2 0.67678509E-02 0.50016228E+02</pdfrwt>
<pdfrwt beam="1">  1       -2 0.21871793E-02 0.50016228E+02</pdfrwt>
<totfact> 0.50054896E+05</totfact>
</mgrwt>
</event>
<event>
 4    1  0.2126213E+000  0.2912040E+02  0.7546771E-02  0.1608020E+00
         -2   -1    0    0    0  501 -0.00000000000E+00  0.00000000000E+00  0.28780457322E+02  0.28780457322E+02  0.00000000000E+00 0. -1.
          2   -1    0    0  501    0  0.00000000000E+00 -0.00000000000E+00 -0.73660875503E+01  0.73660875503E+01  0.00000000000E+00 0.  1.
        -13    1    1    2    0    0 -0.13156861094E+02 -0.56412404487E+01  0.14008329944E+02  0.20028976396E+02  0.00000000000E+00 0. -1.
         13    1    1    2    0    0  0.13156861094E+02  0.56412404487E+01  0.74060398273E+01  0.16117568476E+02  0.00000000000E+00 0.  1.
<mgrwt>
<rscale>  0 0.29120396E+02</rscale>
<asrwt>0</asrwt>
<pdfrwt beam="2">  1        2 0.11332442E-02 0.29120396E+02</pdfrwt>
<pdfrwt beam="1">  1       -2 0.44277626E-02 0.29120396E+02</pdfrwt>
<totfact> 0.15646313E+06</totfact>
</mgrwt>
</event>
<event>
 4    1  0.2126213E+000  0.3135493E+02  0.7546771E-02  0.1583577E+00
          2   -1    0    0  501    0  0.00000000000E+00  0.00000000000E+00  0.44144649724E+02  0.44144649724E+02  0.00000000000E+00 0.  1.
         -2   -1    0    0    0  501 -0.00000000000E+00 -0.00000000000E+00 -0.55676702117E+01  0.55676702117E+01  0.00000000000E+00 0. -1.
        -13    1    1    2    0    0 -0.13187034758E+02 -0.62961973816E+01  0.28291236901E+02  0.31842331456E+02  0.00000000000E+00 0.  1.
         13    1    1    2    0    0  0.13187034758E+02  0.62961973816E+01  0.10285742611E+02  0.17869988479E+02  0.00000000000E+00 0. -1.
<mgrwt>
<rscale>  0 0.31354926E+02</rscale>
<asrwt>0</asrwt>
<pdfrwt beam="1">  1        2 0.67914843E-02 0.31354926E+02</pdfrwt>
<pdfrwt beam="2">  1       -2 0.85656468E-03 0.31354926E+02</pdfrwt>
<totfact> 0.16036899E+06</totfact>
</mgrwt>
</event>
<event>
 4    1  0.2126213E+000  0.1402259E+03  0.7546771E-02  0.1213025E+00
          1   -1    0    0  501    0  0.00000000000E+00  0.00000000000E+00  0.15275612601E+03  0.15275612601E+03  0.00000000000E+00 0. -1.
         -1   -1    0    0    0  501 -0.00000000000E+00 -0.00000000000E+00 -0.32180860325E+02  0.32180860325E+02  0.00000000000E+00 0.  1.
        -11    1    1    2    0    0  0.33436357456E+02  0.19156857284E+01 -0.20949328440E+02  0.39503597480E+02  0.00000000000E+00 0.  1.
         11    1    1    2    0    0 -0.33436357456E+02 -0.19156857284E+01  0.14152459412E+03  0.14543338885E+03  0.00000000000E+00 0. -1.
<mgrwt>
<rscale>  0 0.14022587E+03</rscale>
<asrwt>0</asrwt>
<pdfrwt beam="1">  1        1 0.23500942E-01 0.14022587E+03</pdfrwt>
<pdfrwt beam="2">  1       -1 0.49509017E-02 0.14022587E+03</pdfrwt>
<totfact> 0.34132589E+04</totfact>
</mgrwt>
</event>
<event>
 4    1  0.2126213E+000  0.2343529E+02  0.7546771E-02  0.1684550E+00
          1   -1    0    0  501    0  0.00000000000E+00  0.00000000000E+00  0.25452262073E+02  0.25452262073E+02  0.00000000000E+00 0. -1.
         -1   -1    0    0    0  501 -0.00000000000E+00 -0.00000000000E+00 -0.53945362459E+01  0.53945362459E+01  0.00000000000E+00 0.  1.
        -13    1    1    2    0    0 -0.10209946025E+02 -0.57377955256E+01  0.10517572730E+02  0.15741176305E+02  0.00000000000E+00 0.  1.
         13    1    1    2    0    0  0.10209946025E+02  0.57377955256E+01  0.95401530968E+01  0.15105622014E+02  0.00000000000E+00 0. -1.
<mgrwt>
<rscale>  0 0.23435285E+02</rscale>
<asrwt>0</asrwt>
<pdfrwt beam="1">  1        1 0.39157326E-02 0.23435285E+02</pdfrwt>
<pdfrwt beam="2">  1       -1 0.82992867E-03 0.23435285E+02</pdfrwt>
<totfact> 0.28003244E+06</totfact>
</mgrwt>
</event>
<event>
 4    1  0.2126213E+000  0.2138038E+02  0.7546771E-02  0.1719194E+00
          4   -1    0    0  501    0  0.00000000000E+00  0.00000000000E+00  0.49530013533E+02  0.49530013533E+02  0.00000000000E+00 0. -1.
         -4   -1    0    0    0  501 -0.00000000000E+00 -0.00000000000E+00 -0.23072910181E+01  0.23072910181E+01  0.00000000000E+00 0.  1.
        -13    1    1    2    0    0  0.33807396763E+01  0.97076712639E+01  0.30726376227E+02  0.32400285156E+02  0.00000000000E+00 0. -1.
         13    1    1    2    0    0 -0.33807396763E+01 -0.97076712639E+01  0.16496346288E+02  0.19437019395E+02  0.00000000000E+00 0.  1.
<mgrwt>
<rscale>  0 0.21380379E+02</rscale>
<asrwt>0</asrwt>
<pdfrwt beam="1">  1        4 0.76200013E-02 0.21380379E+02</pdfrwt>
<pdfrwt beam="2">  1       -4 0.35496789E-03 0.21380379E+02</pdfrwt>
<totfact> 0.99849767E+05</totfact>
</mgrwt>
</event>
<event>
 4    1  0.2126213E+000  0.4580321E+02  0.7546771E-02  0.1469389E+00
          2   -1    0    0  501    0  0.00000000000E+00  0.00000000000E+00  0.68647231247E+02  0.68647231247E+02  0.00000000000E+00 0.  1.
         -2   -1    0    0    0  501 -0.00000000000E+00 -0.00000000000E+00 -0.76402724028E+01  0.76402724028E+01  0.00000000000E+00 0. -1.
        -11    1    1    2    0    0 -0.63390237111E+01 -0.21314912934E+02  0.21384721142E+02  0.30851499693E+02  0.00000000000E+00 0. -1.
         11    1    1    2    0    0  0.63390237111E+01  0.21314912934E+02  0.39622237702E+02  0.45436003956E+02  0.00000000000E+00 0.  1.
<mgrwt>
<rscale>  0 0.45803212E+02</rscale>
<asrwt>0</asrwt>
<pdfrwt beam="1">  1        2 0.10561112E-01 0.45803212E+02</pdfrwt>
<pdfrwt beam="2">  1       -2 0.11754266E-02 0.45803212E+02</pdfrwt>
<totfact> 0.68351867E+05</totfact>
</mgrwt>
</event>
<event>
 4    1  0.2126213E+000  0.2135554E+02  0.7546771E-02  0.1719642E+00
          2   -1    0    0  501    0  0.00000000000E+00  0.00000000000E+00  0.46989632384E+02  0.46989632384E+02  0.00000000000E+00 0.  1.
         -2   -1    0    0    0  501 -0.00000000000E+00 -0.00000000000E+00 -0.24263803488E+01  0.24263803488E+01  0.00000000000E+00 0. -1.
        -11    1    1    2    0    0  0.10017792655E+02  0.75688330704E+00  0.13911049601E+02  0.17159438890E+02  0.00000000000E+00 0. -1.
         11    1    1    2    0    0 -0.10017792655E+02 -0.75688330704E+00  0.30652202434E+02  0.32256573843E+02  0.00000000000E+00 0.  1.
<mgrwt>
<rscale>  0 0.21355535E+02</rscale>
<asrwt>0</asrwt>
<pdfrwt beam="1">  1        2 0.72291735E-02 0.21355535E+02</pdfrwt>
<pdfrwt beam="2">  1       -2 0.37328932E-03 0.21355535E+02</pdfrwt>
<totfact> 0.39622894E+06</totfact>
</mgrwt>
</event>
<event>
 4    1  0.2126213E+000  0.2708349E+02  0.7546771E-02  0.1632762E+00
          2   -1    0    0  501    0  0.00000000000E+00  0.00000000000E+00  0.12590529349E+02  0.12590529349E+02  0.00000000000E+00 0.  1.
         -2   -1    0    0    0  501 -0.00000000000E+00 -0.00000000000E+00 -0.14564821422E+02  0.14564821422E+02  0.00000000000E+00 0. -1.
        -13    1    1    2    0    0  0.73686036889E+01  0.11149627799E+02 -0.31765819104E+01  0.13736855281E+02  0.00000000000E+00 0.  1.
         13    1    1    2    0    0 -0.73686036889E+01 -0.11149627799E+02  0.12022898372E+01  0.13418495491E+02  0.00000000000E+00 0. -1.
<mgrwt>
<rscale>  0 0.27083487E+02</rscale>
<asrwt>0</asrwt>
<pdfrwt beam="1">  1        2 0.19370045E-02 0.27083487E+02</pdfrwt>
<pdfrwt beam="2">  1       -2 0.22407417E-02 0.27083487E+02</pdfrwt>
<totfact> 0.19727874E+06</totfact>
</mgrwt>
</event>
<event>
 4    1  0.2126213E+000  0.4412177E+02  0.7546771E-02  0.1479900E+00
          2   -1    0    0  501    0  0.00000000000E+00  0.00000000000E+00  0.11876795223E+02  0.11876795223E+02  0.00000000000E+00 0.  1.
         -2   -1    0    0    0  501 -0.00000000000E+00 -0.00000000000E+00 -0.40977602187E+02  0.40977602187E+02  0.00000000000E+00 0. -1.
        -13    1    1    2    0    0 -0.16320621095E+02 -0.42909166665E+01  0.24713750551E+01  0.17055272892E+02  0.00000000000E+00 0.  1.
         13    1    1    2    0    0  0.16320621095E+02  0.42909166665E+01 -0.31572182019E+02  0.35799124518E+02  0.00000000000E+00 0. -1.
<mgrwt>
<rscale>  0 0.44121767E+02</rscale>
<asrwt>0</asrwt>
<pdfrwt beam="1">  1        2 0.18271993E-02 0.44121767E+02</pdfrwt>
<pdfrwt beam="2">  1       -2 0.63042465E-02 0.44121767E+02</pdfrwt>
<totfact> 0.56765747E+05</totfact>
</mgrwt>
</event>
<event>
 4    1  0.2126213E+000  0.3409319E+02  0.7546771E-02  0.1556804E+00
          4   -1    0    0  501    0  0.00000000000E+00  0.00000000000E+00  0.14344077813E+02  0.14344077813E+02  0.00000000000E+00 0.  1.
         -4   -1    0    0    0  501 -0.00000000000E+00 -0.00000000000E+00 -0.20258279297E+02  0.20258279297E+02  0.00000000000E+00 0. -1.
        -13    1    1    2    0    0  0.81939955746E+01 -0.13988549387E+02 -0.83050705282E+01  0.18215248390E+02  0.00000000000E+00 0. -1.
         13    1    1    2    0    0 -0.81939955746E+01  0.13988549387E+02  0.23908690438E+01  0.16387108720E+02  0.00000000000E+00 0.  1.
<mgrwt>
<rscale>  0 0.34093186E+02</rscale>
<asrwt>0</asrwt>
<pdfrwt beam="1">  1        4 0.22067812E-02 0.34093186E+02</pdfrwt>
<pdfrwt beam="2">  1       -4 0.31166583E-02 0.34093186E+02</pdfrwt>
<totfact> 0.38143376E+05</totfact>
</mgrwt>
</event>
<event>
 4    1  0.2126213E+000  0.3025872E+02  0.7546771E-02  0.1595246E+00
          2   -1    0    0  501    0  0.00000000000E+00  0.00000000000E+00  0.37764161099E+01  0.37764161099E+01  0.00000000000E+00 0. -1.
         -2   -1    0    0    0  501 -0.00000000000E+00 -0.00000000000E+00 -0.60612390087E+02  0.60612390087E+02  0.00000000000E+00 0.  1.
        -11    1    1    2    0    0 -0.26568199556E+00 -0.13431431204E+02 -0.13610252247E+02  0.19123621450E+02  0.00000000000E+00 0.  1.
         11    1    1    2    0    0  0.26568199556E+00  0.13431431204E+02 -0.43225721730E+02  0.45265184747E+02  0.00000000000E+00 0. -1.
<mgrwt>
<rscale>  0 0.30258725E+02</rscale>
<asrwt>0</asrwt>
<pdfrwt beam="1">  1        2 0.58098708E-03 0.30258725E+02</pdfrwt>
<pdfrwt beam="2">  1       -2 0.93249834E-02 0.30258725E+02</pdfrwt>
<totfact> 0.12943275E+06</totfact>
</mgrwt>
</event>
<event>
 4    1  0.2126213E+000  0.5113370E+02  0.7546771E-02  0.1439321E+00
          2   -1    0    0  501    0  0.00000000000E+00  0.00000000000E+00  0.35236520532E+02  0.35236520532E+02  0.00000000000E+00 0. -1.
         -2   -1    0    0    0  501 -0.00000000000E+00 -0.00000000000E+00 -0.18550747023E+02  0.18550747023E+02  0.00000000000E+00 0.  1.
        -11    1    1    2    0    0 -0.72806707594E+01  0.11195631070E+02  0.31275963874E+02  0.34007884939E+02  0.00000000000E+00 0. -1.
         11    1    1    2    0    0  0.72806707594E+01 -0.11195631070E+02 -0.14590190365E+02  0.19779382616E+02  0.00000000000E+00 0.  1.
<mgrwt>
<rscale>  0 0.51133698E+02</rscale>
<asrwt>0</asrwt>
<pdfrwt beam="1">  1        2 0.54210032E-02 0.51133698E+02</pdfrwt>
<pdfrwt beam="2">  1       -2 0.28539611E-02 0.51133698E+02</pdfrwt>
<totfact> 0.45467795E+05</totfact>
</mgrwt>
</event>
<event>
 4    1  0.2126213E+000  0.3594175E+02  0.7546771E-02  0.1540393E+00
         -1   -1    0    0    0  501 -0.00000000000E+00  0.00000000000E+00  0.51020067173E+02  0.51020067173E+02  0.00000000000E+00 0. -1.
          1   -1    0    0  501    0  0.00000000000E+00 -0.00000000000E+00 -0.63299066666E+01  0.63299066666E+01  0.00000000000E+00 0.  1.
        -13    1    1    2    0    0 -0.19692178938E+01 -0.13276267269E+02  0.32763737094E+01  0.13815633043E+02  0.00000000000E+00 0.  1.
         13    1    1    2    0    0  0.19692178938E+01  0.13276267269E+02  0.41413786797E+02  0.43534340797E+02  0.00000000000E+00 0. -1.
<mgrwt>
<rscale>  0 0.35941745E+02</rscale>
<asrwt>0</asrwt>
<pdfrwt beam="2">  1        1 0.97383183E-03 0.35941745E+02</pdfrwt>
<pdfrwt beam="1">  1       -1 0.78492408E-02 0.35941745E+02</pdfrwt>
<totfact> 0.90727325E+05</totfact>
</mgrwt>
</event>
<event>
 4    1  0.2126213E+000  0.3611693E+02  0.7546771E-02  0.1538900E+00
         -2   -1    0    0    0  501 -0.00000000000E+00  0.00000000000E+00  0.14729185157E+02  0.14729185157E+02  0.00000000000E+00 0. -1.
          2   -1    0    0  501    0  0.00000000000E+00 -0.00000000000E+00 -0.22140267888E+02  0.22140267888E+02  0.00000000000E+00 0.  1.
        -13    1    1    2    0    0 -0.13817624313E+02 -0.88215717343E+01  0.40259834086E+01  0.16880622379E+02  0.00000000000E+00 0. -1.
         13    1    1    2    0    0  0.13817624313E+02  0.88215717343E+01 -0.11437066139E+02  0.19988830666E+02  0.00000000000E+00 0.  1.
<mgrwt>
<rscale>  0 0.36116927E+02</rscale>
<asrwt>0</asrwt>
<pdfrwt beam="2">  1        2 0.34061951E-02 0.36116927E+02</pdfrwt>
<pdfrwt beam="1">  1       -2 0.22660285E-02 0.36116927E+02</pdfrwt>
<totfact> 0.10336525E+06</totfact>
</mgrwt>
</event>
<event>
 4    1  0.2126213E+000  0.2661843E+02  0.7546771E-02  0.1638788E+00
          2   -1    0    0  501    0  0.00000000000E+00  0.00000000000E+00  0.79037776714E+02  0.79037776714E+02  0.00000000000E+00 0. -1.
         -2   -1    0    0    0  501 -0.00000000000E+00 -0.00000000000E+00 -0.22411456462E+01  0.22411456462E+01  0.00000000000E+00 0.  1.
        -11    1    1    2    0    0  0.12086749496E+02 -0.54343219905E+01  0.42155217258E+02  0.44189180926E+02  0.00000000000E+00 0.  1.
         11    1    1    2    0    0 -0.12086749496E+02  0.54343219905E+01  0.34641413810E+02  0.37089741434E+02  0.00000000000E+00 0. -1.
<mgrwt>
<rscale>  0 0.26618427E+02</rscale>
<asrwt>0</asrwt>
<pdfrwt beam="1">  1        2 0.12159656E-01 0.26618427E+02</pdfrwt>
<pdfrwt beam="2">  1       -2 0.34479170E-03 0.26618427E+02</pdfrwt>
<totfact> 0.26224241E+06</totfact>
</mgrwt>
</event>
<event>
 4    1  0.2126213E+000  0.2194175E+02  0.7546771E-02  0.1709261E+00
          2   -1    0    0  501    0  0.00000000000E+00  0.00000000000E+00  0.23496181628E+02  0.23496181628E+02  0.00000000000E+00 0.  1.
         -2   -1    0    0    0  501 -0.00000000000E+00 -0.00000000000E+00 -0.51225396794E+01  0.51225396794E+01  0.00000000000E+00 0. -1.
        -11    1    1    2    0    0  0.98528557874E+01 -0.37309455257E+01  0.51961185601E+01  0.11747270737E+02  0.00000000000E+00 0. -1.
         11    1    1    2    0    0 -0.98528557874E+01  0.37309455257E+01  0.13177523388E+02  0.16871450570E+02  0.00000000000E+00 0.  1.
<mgrwt>
<rscale>  0 0.21941752E+02</rscale>
<asrwt>0</asrwt>
<pdfrwt beam="1">  1        2 0.36147971E-02 0.21941752E+02</pdfrwt>
<pdfrwt beam="2">  1       -2 0.78808304E-03 0.21941752E+02</pdfrwt>
<totfact> 0.34274077E+06</totfact>
</mgrwt>
</event>
<event>
 4    1  0.2126213E+000  0.3307765E+02  0.7546771E-02  0.1566365E+00
         -3   -1    0    0    0  501 -0.00000000000E+00  0.00000000000E+00  0.42934508289E+02  0.42934508289E+02  0.00000000000E+00 0. -1.
          3   -1    0    0  501    0  0.00000000000E+00 -0.00000000000E+00 -0.63709312267E+01  0.63709312267E+01  0.00000000000E+00 0.  1.
        -11    1    1    2    0    0  0.10402249790E+02 -0.81526587474E+01  0.33102558799E+02  0.35643401134E+02  0.00000000000E+00 0. -1.
         11    1    1    2    0    0 -0.10402249790E+02  0.81526587474E+01  0.34610182637E+01  0.13662038382E+02  0.00000000000E+00 0.  1.
<mgrwt>
<rscale>  0 0.33077654E+02</rscale>
<asrwt>0</asrwt>
<pdfrwt beam="2">  1        3 0.98014329E-03 0.33077654E+02</pdfrwt>
<pdfrwt beam="1">  1       -3 0.66053088E-02 0.33077654E+02</pdfrwt>
<totfact> 0.52063869E+05</totfact>
</mgrwt>
</event>
<event>
 4    1  0.2126213E+000  0.3732065E+02  0.7546771E-02  0.1528908E+00
         -2   -1    0    0    0  501 -0.00000000000E+00  0.00000000000E+00  0.23367547440E+02  0.23367547440E+02  0.00000000000E+00 0. -1.
          2   -1    0    0  501    0  0.00000000000E+00 -0.00000000000E+00 -0.14901339826E+02  0.14901339826E+02  0.00000000000E+00 0.  1.
        -13    1    1    2    0    0  0.91098781959E+01  0.97315072995E+01  0.17623047035E+02  0.22096694365E+02  0.00000000000E+00 0. -1.
         13    1    1    2    0    0 -0.91098781959E+01 -0.97315072995E+01 -0.91568394212E+01  0.16172192902E+02  0.00000000000E+00 0.  1.
<mgrwt>
<rscale>  0 0.37320652E+02</rscale>
<asrwt>0</asrwt>
<pdfrwt beam="2">  1        2 0.22925138E-02 0.37320652E+02</pdfrwt>
<pdfrwt beam="1">  1       -2 0.35950073E-02 0.37320652E+02</pdfrwt>
<totfact> 0.90664222E+05</totfact>
</mgrwt>
</event>
<event>
 4    1  0.2126213E+000  0.3042562E+02  0.7546771E-02  0.1593431E+00
          2   -1    0    0  501    0  0.00000000000E+00  0.00000000000E+00  0.51889949364E+02  0.51889949364E+02  0.00000000000E+00 0.  1.
         -2   -1    0    0    0  501 -0.00000000000E+00 -0.00000000000E+00 -0.44600085940E+01  0.44600085940E+01  0.00000000000E+00 0. -1.
        -11    1    1    2    0    0 -0.11624260961E+02 -0.39506269371E+01  0.40352447206E+02  0.42178796706E+02  0.00000000000E+00 0.  1.
         11    1    1    2    0    0  0.11624260961E+02  0.39506269371E+01  0.70774935645E+01  0.14171161252E+02  0.00000000000E+00 0. -1.
<mgrwt>
<rscale>  0 0.30425622E+02</rscale>
<asrwt>0</asrwt>
<pdfrwt beam="1">  1        2 0.79830687E-02 0.30425622E+02</pdfrwt>
<pdfrwt beam="2">  1       -2 0.68615521E-03 0.30425622E+02</pdfrwt>
<totfact> 0.17690031E+06</totfact>
</mgrwt>
</event>
<event>
 4    1  0.2126213E+000  0.4262110E+02  0.7546771E-02  0.1489764E+00
         -2   -1    0    0    0  501 -0.00000000000E+00  0.00000000000E+00  0.23238933322E+01  0.23238933322E+01  0.00000000000E+00 0. -1.
          2   -1    0    0  501    0  0.00000000000E+00 -0.00000000000E+00 -0.19542189033E+03  0.19542189033E+03  0.00000000000E+00 0.  1.
        -13    1    1    2    0    0  0.17332141386E+01  0.20729915071E+02 -0.11801506680E+03  0.11983442494E+03  0.00000000000E+00 0.  1.
         13    1    1    2    0    0 -0.17332141386E+01 -0.20729915071E+02 -0.75082930204E+02  0.77911358723E+02  0.00000000000E+00 0. -1.
<mgrwt>
<rscale>  0 0.42621104E+02</rscale>
<asrwt>0</asrwt>
<pdfrwt beam="2">  1        2 0.30064909E-01 0.42621104E+02</pdfrwt>
<pdfrwt beam="1">  1       -2 0.35752202E-03 0.42621104E+02</pdfrwt>
<totfact> 0.10854435E+06</totfact>
</mgrwt>
</event>
<event>
 4    1  0.2126213E+000  0.2475455E+02  0.7546771E-02  0.1664553E+00
          4   -1    0    0  501    0  0.00000000000E+00  0.00000000000E+00  0.27189248997E+02  0.27189248997E+02  0.00000000000E+00 0.  1.
         -4   -1    0    0    0  501 -0.00000000000E+00 -0.00000000000E+00 -0.56344664242E+01  0.56344664242E+01  0.00000000000E+00 0. -1.
        -13    1    1    2    0    0  0.99338772640E+00  0.12335550800E+02  0.10498377271E+02  0.16228633894E+02  0.00000000000E+00 0. -1.
         13    1    1    2    0    0 -0.99338772640E+00 -0.12335550800E+02  0.11056405301E+02  0.16595081528E+02  0.00000000000E+00 0.  1.
<mgrwt>
<rscale>  0 0.24754548E+02</rscale>
<asrwt>0</asrwt>
<pdfrwt beam="1">  1        4 0.41829613E-02 0.24754548E+02</pdfrwt>
<pdfrwt beam="2">  1       -4 0.86684100E-03 0.24754548E+02</pdfrwt>
<totfact> 0.78709588E+05</totfact>
</mgrwt>
</event>
<event>
 4    1  0.2126213E+000  0.2739766E+02  0.7546771E-02  0.1628774E+00
          2   -1    0    0  501    0  0.00000000000E+00  0.00000000000E+00  0.23987809101E+01  0.23987809101E+01  0.00000000000E+00 0. -1.
         -2   -1    0    0    0  501 -0.00000000000E+00 -0.00000000000E+00 -0.78230546984E+02  0.78230546984E+02  0.00000000000E+00 0.  1.
        -11    1    1    2    0    0 -0.82827917023E+01 -0.10779928032E+02 -0.42881026489E+02  0.44984374170E+02  0.00000000000E+00 0.  1.
         11    1    1    2    0    0  0.82827917023E+01  0.10779928032E+02 -0.32950739585E+02  0.35644953724E+02  0.00000000000E+00 0. -1.
<mgrwt>
<rscale>  0 0.27397660E+02</rscale>
<asrwt>0</asrwt>
<pdfrwt beam="1">  1        2 0.36904324E-03 0.27397660E+02</pdfrwt>
<pdfrwt beam="2">  1       -2 0.12035468E-01 0.27397660E+02</pdfrwt>
<totfact> 0.15521325E+06</totfact>
</mgrwt>
</event>
<event>
 4    1  0.2126213E+000  0.1247870E+03  0.7546771E-02  0.1235402E+00
         -2   -1    0    0    0  501 -0.00000000000E+00  0.00000000000E+00  0.34076974509E+02  0.34076974509E+02  0.00000000000E+00 0.  1.
          2   -1    0    0  501    0  0.00000000000E+00 -0.00000000000E+00 -0.11423993892E+03  0.11423993892E+03  0.00000000000E+00 0. -1.
        -13    1    1    2    0    0  0.42101933709E+02 -0.41132369514E+02 -0.15477802306E+02  0.60860553794E+02  0.00000000000E+00 0.  1.
         13    1    1    2    0    0 -0.42101933709E+02  0.41132369514E+02 -0.64685162100E+02  0.87456359630E+02  0.00000000000E+00 0. -1.
<mgrwt>
<rscale>  0 0.12478704E+03</rscale>
<asrwt>0</asrwt>
<pdfrwt beam="2">  1        2 0.17575375E-01 0.12478704E+03</pdfrwt>
<pdfrwt beam="1">  1       -2 0.52426115E-02 0.12478704E+03</pdfrwt>
<totfact> 0.52996277E+04</totfact>
</mgrwt>
</event>
<event>
 4    1  0.2126213E+000  0.2325017E+02  0.7546771E-02  0.1687487E+00
          2   -1    0    0  501    0  0.00000000000E+00  0.00000000000E+00  0.13148322919E+01  0.13148322919E+01  0.00000000000E+00 0. -1.
         -2   -1    0    0    0  501 -0.00000000000E+00 -0.00000000000E+00 -0.10278314951E+03  0.10278314951E+03  0.00000000000E+00 0.  1.
        -13    1    1    2    0    0 -0.20483476128E+01 -0.11442355207E+02 -0.51357507478E+02  0.52656593081E+02  0.00000000000E+00 0.  1.
         13    1    1    2    0    0  0.20483476128E+01  0.11442355207E+02 -0.50110809736E+02  0.51441388716E+02  0.00000000000E+00 0. -1.
<mgrwt>
<rscale>  0 0.23250170E+02</rscale>
<asrwt>0</asrwt>
<pdfrwt beam="1">  1        2 0.20228182E-03 0.23250170E+02</pdfrwt>
<pdfrwt beam="2">  1       -2 0.15812798E-01 0.23250170E+02</pdfrwt>
<totfact> 0.21174737E+06</totfact>
</mgrwt>
</event>
<event>
 4    1  0.2126213E+000  0.3479093E+02  0.7546771E-02  0.1550465E+00
          2   -1    0    0  501    0  0.00000000000E+00  0.00000000000E+00  0.51914268699E+02  0.51914268699E+02  0.00000000000E+00 0.  1.
         -2   -1    0    0    0  501 -0.00000000000E+00 -0.00000000000E+00 -0.58288846494E+01  0.58288846494E+01  0.00000000000E+00 0. -1.
        -11    1    1    2    0    0 -0.79765617741E+01 -0.12287959954E+02  0.74746764894E+01  0.16446588892E+02  0.00000000000E+00 0.  1.
         11    1    1    2    0    0  0.79765617741E+01  0.12287959954E+02  0.38610707560E+02  0.41296564456E+02  0.00000000000E+00 0. -1.
<mgrwt>
<rscale>  0 0.34790935E+02</rscale>
<asrwt>0</asrwt>
<pdfrwt beam="1">  1        2 0.79868102E-02 0.34790935E+02</pdfrwt>
<pdfrwt beam="2">  1       -2 0.89675152E-03 0.34790935E+02</pdfrwt>
<totfact> 0.12805256E+06</totfact>
</mgrwt>
</event>
<event>
 4    1  0.2126213E+000  0.2909874E+02  0.7546771E-02  0.1608270E+00
          1   -1    0    0  501    0  0.00000000000E+00  0.00000000000E+00  0.29159804289E+02  0.29159804289E+02  0.00000000000E+00 0.  1.
         -1   -1    0    0    0  501 -0.00000000000E+00 -0.00000000000E+00 -0.72594487476E+01  0.72594487476E+01  0.00000000000E+00 0. -1.
        -11    1    1    2    0    0 -0.14070516247E+02  0.22845559414E+01  0.73043583197E+01  0.16017249257E+02  0.00000000000E+00 0.  1.
         11    1    1    2    0    0  0.14070516247E+02 -0.22845559414E+01  0.14595997221E+02  0.20402003779E+02  0.00000000000E+00 0. -1.
<mgrwt>
<rscale>  0 0.29098736E+02</rscale>
<asrwt>0</asrwt>
<pdfrwt beam="1">  1        1 0.44861237E-02 0.29098736E+02</pdfrwt>
<pdfrwt beam="2">  1       -1 0.11168383E-02 0.29098736E+02</pdfrwt>
<totfact> 0.17002814E+06</totfact>
</mgrwt>
</event>
<event>
 4    1  0.2126213E+000  0.2117094E+02  0.7546771E-02  0.1722997E+00
          2   -1    0    0  501    0  0.00000000000E+00  0.00000000000E+00  0.91200082458E+00  0.91200082458E+00  0.00000000000E+00 0. -1.
         -2   -1    0    0    0  501 -0.00000000000E+00 -0.00000000000E+00 -0.12286417095E+03  0.12286417095E+03  0.00000000000E+00 0.  1.
        -11    1    1    2    0    0  0.44511295613E+01 -0.95999830451E+01 -0.62629690764E+02  0.63517323574E+02  0.00000000000E+00 0. -1.
         11    1    1    2    0    0 -0.44511295613E+01  0.95999830451E+01 -0.59322479357E+02  0.60258848196E+02  0.00000000000E+00 0.  1.
<mgrwt>
<rscale>  0 0.21170945E+02</rscale>
<asrwt>0</asrwt>
<pdfrwt beam="1">  1        2 0.14030791E-03 0.21170945E+02</pdfrwt>
<pdfrwt beam="2">  1       -2 0.18902168E-01 0.21170945E+02</pdfrwt>
<totfact> 0.24854422E+06</totfact>
</mgrwt>
</event>
<event>
 4    1  0.2126213E+000  0.4838845E+02  0.7546771E-02  0.1454233E+00
          2   -1    0    0  501    0  0.00000000000E+00  0.00000000000E+00  0.17638561845E+02  0.17638561845E+02  0.00000000000E+00 0. -1.
         -2   -1    0    0    0  501 -0.00000000000E+00 -0.00000000000E+00 -0.33186406583E+02  0.33186406583E+02  0.00000000000E+00 0.  1.
        -13    1    1    2    0    0  0.15157619488E+02  0.28973585239E+01  0.11797978868E+02  0.19425252130E+02  0.00000000000E+00 0. -1.
         13    1    1    2    0    0 -0.15157619488E+02 -0.28973585239E+01 -0.27345823605E+02  0.31399716298E+02  0.00000000000E+00 0.  1.
<mgrwt>
<rscale>  0 0.48388448E+02</rscale>
<asrwt>0</asrwt>
<pdfrwt beam="1">  1        2 0.27136249E-02 0.48388448E+02</pdfrwt>
<pdfrwt beam="2">  1       -2 0.51056010E-02 0.48388448E+02</pdfrwt>
<totfact> 0.47122186E+05</totfact>
</mgrwt>
</event>
<event>
 4    1  0.2126213E+000  0.2800192E+02  0.7546771E-02  0.1621287E+00
         -2   -1    0    0    0  501 -0.00000000000E+00  0.00000000000E+00  0.95087617194E+01  0.95087617194E+01  0.00000000000E+00 0.  1.
          2   -1    0    0  501    0  0.00000000000E+00 -0.00000000000E+00 -0.20615391028E+02  0.20615391028E+02  0.00000000000E+00 0. -1.
        -11    1    1    2    0    0  0.10049719426E+02 -0.10272240501E+01 -0.15982076732E+02  0.18907110474E+02  0.00000000000E+00 0. -1.
         11    1    1    2    0    0 -0.10049719426E+02  0.10272240501E+01  0.48754474236E+01  0.11217042274E+02  0.00000000000E+00 0.  1.
<mgrwt>
<rscale>  0 0.28001917E+02</rscale>
<asrwt>0</asrwt>
<pdfrwt beam="2">  1        2 0.31715986E-02 0.28001917E+02</pdfrwt>
<pdfrwt beam="1">  1       -2 0.14628864E-02 0.28001917E+02</pdfrwt>
<totfact> 0.19109703E+06</totfact>
</mgrwt>
</event>
<event>
 4    1  0.2126213E+000  0.2295194E+02  0.7546771E-02  0.1692290E+00
          3   -1    0    0  501    0  0.00000000000E+00  0.00000000000E+00  0.40228700092E+01  0.40228700092E+01  0.00000000000E+00 0.  1.
         -3   -1    0    0    0  501 -0.00000000000E+00 -0.00000000000E+00 -0.32737296167E+02  0.32737296167E+02  0.00000000000E+00 0. -1.
        -13    1    1    2    0    0 -0.97854174083E+01  0.50840431652E+01 -0.92682101767E+01  0.14404916128E+02  0.00000000000E+00 0.  1.
         13    1    1    2    0    0  0.97854174083E+01 -0.50840431652E+01 -0.19446215981E+02  0.22355250049E+02  0.00000000000E+00 0. -1.
<mgrwt>
<rscale>  0 0.22951940E+02</rscale>
<asrwt>0</asrwt>
<pdfrwt beam="1">  1        3 0.61890308E-03 0.22951940E+02</pdfrwt>
<pdfrwt beam="2">  1       -3 0.50365071E-02 0.22951940E+02</pdfrwt>
<totfact> 0.12498975E+06</totfact>
</mgrwt>
</event>
<event>
 4    1  0.2126213E+000  0.2408965E+02  0.7546771E-02  0.1674433E+00
          1   -1    0    0  501    0  0.00000000000E+00  0.00000000000E+00  0.34924242031E+01  0.34924242031E+01  0.00000000000E+00 0.  1.
         -1   -1    0    0    0  501 -0.00000000000E+00 -0.00000000000E+00 -0.41540732334E+02  0.41540732334E+02  0.00000000000E+00 0. -1.
        -13    1    1    2    0    0 -0.90085157474E+01  0.79912087739E+01 -0.18547236257E+02  0.22113632592E+02  0.00000000000E+00 0.  1.
         13    1    1    2    0    0  0.90085157474E+01 -0.79912087739E+01 -0.19501071874E+02  0.22919523945E+02  0.00000000000E+00 0. -1.
<mgrwt>
<rscale>  0 0.24089654E+02</rscale>
<asrwt>0</asrwt>
<pdfrwt beam="1">  1        1 0.53729604E-03 0.24089654E+02</pdfrwt>
<pdfrwt beam="2">  1       -1 0.63908818E-02 0.24089654E+02</pdfrwt>
<totfact> 0.23465798E+06</totfact>
</mgrwt>
</event>
<event>
 4    1  0.2126213E+000  0.3093596E+02  0.7546771E-02  0.1587967E+00
          1   -1    0    0  501    0  0.00000000000E+00  0.00000000000E+00  0.10043770753E+03  0.10043770753E+03  0.00000000000E+00 0.  1.
         -1   -1    0    0    0  501 -0.00000000000E+00 -0.00000000000E+00 -0.23821578443E+01  0.23821578443E+01  0.00000000000E+00 0. -1.
        -11    1    1    2    0    0 -0.11565355991E+02 -0.94599634162E+01  0.35729035511E+02  0.38727410778E+02  0.00000000000E+00 0.  1.
         11    1    1    2    0    0  0.11565355991E+02  0.94599634162E+01  0.62326514180E+02  0.64092454601E+02  0.00000000000E+00 0. -1.
<mgrwt>
<rscale>  0 0.30935964E+02</rscale>
<asrwt>0</asrwt>
<pdfrwt beam="1">  1        1 0.15451952E-01 0.30935964E+02</pdfrwt>
<pdfrwt beam="2">  1       -1 0.36648590E-03 0.30935964E+02</pdfrwt>
<totfact> 0.16355130E+06</totfact>
</mgrwt>
</event>
<event>
 4    1  0.2126213E+000  0.5650111E+02  0.7546771E-02  0.1413130E+00
          2   -1    0    0  501    0  0.00000000000E+00  0.00000000000E+00  0.29656573337E+01  0.29656573337E+01  0.00000000000E+00 0.  1.
         -2   -1    0    0    0  501 -0.00000000000E+00 -0.00000000000E+00 -0.26911196823E+03  0.26911196823E+03  0.00000000000E+00 0. -1.
        -13    1    1    2    0    0 -0.27498603921E+02 -0.30691293846E+01 -0.16052584728E+03  0.16289303367E+03  0.00000000000E+00 0. -1.
         13    1    1    2    0    0  0.27498603921E+02  0.30691293846E+01 -0.10562046362E+03  0.10918459190E+03  0.00000000000E+00 0.  1.
<mgrwt>
<rscale>  0 0.56501111E+02</rscale>
<asrwt>0</asrwt>
<pdfrwt beam="1">  1        2 0.45625492E-03 0.56501111E+02</pdfrwt>
<pdfrwt beam="2">  1       -2 0.41401846E-01 0.56501111E+02</pdfrwt>
<totfact> 0.18181477E+05</totfact>
</mgrwt>
</event>
<event>
 4    1  0.2126213E+000  0.2045187E+02  0.7546771E-02  0.1736489E+00
         -1   -1    0    0    0  501 -0.00000000000E+00  0.00000000000E+00  0.39489547899E+02  0.39489547899E+02  0.00000000000E+00 0.  1.
          1   -1    0    0  501    0  0.00000000000E+00 -0.00000000000E+00 -0.26480353158E+01  0.26480353158E+01  0.00000000000E+00 0. -1.
        -11    1    1    2    0    0 -0.80352925934E+01  0.62966902418E+01  0.19649172959E+02  0.22142814479E+02  0.00000000000E+00 0.  1.
         11    1    1    2    0    0  0.80352925934E+01 -0.62966902418E+01  0.17192339624E+02  0.19994768736E+02  0.00000000000E+00 0. -1.
<mgrwt>
<rscale>  0 0.20451867E+02</rscale>
<asrwt>0</asrwt>
<pdfrwt beam="2">  1        1 0.40739008E-03 0.20451867E+02</pdfrwt>
<pdfrwt beam="1">  1       -1 0.60753146E-02 0.20451867E+02</pdfrwt>
<totfact> 0.33994206E+06</totfact>
</mgrwt>
</event>
<event>
 4    1  0.2126213E+000  0.4714963E+02  0.7546771E-02  0.1461351E+00
         -2   -1    0    0    0  501 -0.00000000000E+00  0.00000000000E+00  0.33983595840E+01  0.33983595840E+01  0.00000000000E+00 0.  1.
          2   -1    0    0  501    0  0.00000000000E+00 -0.00000000000E+00 -0.16354126119E+03  0.16354126119E+03  0.00000000000E+00 0. -1.
        -13    1    1    2    0    0  0.10975353063E+01 -0.23161633482E+02 -0.65005577737E+02  0.69017323813E+02  0.00000000000E+00 0.  1.
         13    1    1    2    0    0 -0.10975353063E+01  0.23161633482E+02 -0.95137323868E+02  0.97922296960E+02  0.00000000000E+00 0. -1.
<mgrwt>
<rscale>  0 0.47149635E+02</rscale>
<asrwt>0</asrwt>
<pdfrwt beam="2">  1        2 0.25160191E-01 0.47149635E+02</pdfrwt>
<pdfrwt beam="1">  1       -2 0.52282461E-03 0.47149635E+02</pdfrwt>
<totfact> 0.79887938E+05</totfact>
</mgrwt>
</event>
<event>
 4    1  0.2126213E+000  0.2222152E+02  0.7546771E-02  0.1704449E+00
          2   -1    0    0  501    0  0.00000000000E+00  0.00000000000E+00  0.10860811859E+02  0.10860811859E+02  0.00000000000E+00 0.  1.
         -2   -1    0    0    0  501 -0.00000000000E+00 -0.00000000000E+00 -0.11366455469E+02  0.11366455469E+02  0.00000000000E+00 0. -1.
        -13    1    1    2    0    0  0.63803704826E+01 -0.80009333982E+01  0.40755227850E+01  0.11015169028E+02  0.00000000000E+00 0.  1.
         13    1    1    2    0    0 -0.63803704826E+01  0.80009333982E+01 -0.45811663951E+01  0.11212098299E+02  0.00000000000E+00 0. -1.
<mgrwt>
<rscale>  0 0.22221515E+02</rscale>
<asrwt>0</asrwt>
<pdfrwt beam="1">  1        2 0.16708941E-02 0.22221515E+02</pdfrwt>
<pdfrwt beam="2">  1       -2 0.17486854E-02 0.22221515E+02</pdfrwt>
<totfact> 0.31137959E+06</totfact>
</mgrwt>
</event>
<event>
 4    1  0.2126213E+000  0.5081599E+02  0.7546771E-02  0.1440989E+00
          1   -1    0    0  501    0  0.00000000000E+00  0.00000000000E+00  0.15413926850E+03  0.15413926850E+03  0.00000000000E+00 0. -1.
         -1   -1    0    0    0  501 -0.00000000000E+00 -0.00000000000E+00 -0.41882015377E+01  0.41882015377E+01  0.00000000000E+00 0.  1.
        -13    1    1    2    0    0  0.16522573140E+02 -0.15420306179E+02  0.11114788267E+03  0.11342236591E+03  0.00000000000E+00 0. -1.
         13    1    1    2    0    0 -0.16522573140E+02  0.15420306179E+02  0.38803184291E+02  0.44905104130E+02  0.00000000000E+00 0.  1.
<mgrwt>
<rscale>  0 0.50815994E+02</rscale>
<asrwt>0</asrwt>
<pdfrwt beam="1">  1        1 0.23713729E-01 0.50815994E+02</pdfrwt>
<pdfrwt beam="2">  1       -1 0.64433882E-03 0.50815994E+02</pdfrwt>
<totfact> 0.51670898E+05</totfact>
</mgrwt>
</event>
<event>
 4    1  0.2126213E+000  0.3054110E+02  0.7546771E-02  0.1592183E+00
          4   -1    0    0  501    0  0.00000000000E+00  0.00000000000E+00  0.57763850322E+02  0.57763850322E+02  0.00000000000E+00 0. -1.
         -4   -1    0    0    0  501 -0.00000000000E+00 -0.00000000000E+00 -0.40369497481E+01  0.40369497481E+01  0.00000000000E+00 0.  1.
        -13    1    1    2    0    0 -0.11954601993E+02  0.30255562430E+01  0.45089059954E+02  0.46744944399E+02  0.00000000000E+00 0. -1.
         13    1    1    2    0    0  0.11954601993E+02 -0.30255562430E+01  0.86378406201E+01  0.15055855671E+02  0.00000000000E+00 0.  1.
<mgrwt>
<rscale>  0 0.30541104E+02</rscale>
<asrwt>0</asrwt>
<pdfrwt beam="1">  1        4 0.88867456E-02 0.30541104E+02</pdfrwt>
<pdfrwt beam="2">  1       -4 0.62106924E-03 0.30541104E+02</pdfrwt>
<totfact> 0.44714333E+05</totfact>
</mgrwt>
</event>
<event>
 4    1  0.2126213E+000  0.2161331E+02  0.7546771E-02  0.1715027E+00
          2   -1    0    0  501    0  0.00000000000E+00  0.00000000000E+00  0.19608020524E+02  0.19608020524E+02  0.00000000000E+00 0. -1.
         -2   -1    0    0    0  501 -0.00000000000E+00 -0.00000000000E+00 -0.59559178055E+01  0.59559178055E+01  0.00000000000E+00 0.  1.
        -13    1    1    2    0    0  0.57074154928E+01 -0.84646419876E+01  0.26344099406E+01  0.10543475296E+02  0.00000000000E+00 0.  1.
         13    1    1    2    0    0 -0.57074154928E+01  0.84646419876E+01  0.11017692778E+02  0.15020463033E+02  0.00000000000E+00 0. -1.
<mgrwt>
<rscale>  0 0.21613307E+02</rscale>
<asrwt>0</asrwt>
<pdfrwt beam="1">  1        2 0.30166185E-02 0.21613307E+02</pdfrwt>
<pdfrwt beam="2">  1       -2 0.91629506E-03 0.21613307E+02</pdfrwt>
<totfact> 0.34876528E+06</totfact>
</mgrwt>
</event>
<event>
 4    1  0.2126213E+000  0.4622888E+02  0.7546771E-02  0.1466813E+00
          2   -1    0    0  501    0  0.00000000000E+00  0.00000000000E+00  0.16103501567E+03  0.16103501567E+03  0.00000000000E+00 0.  1.
         -2   -1    0    0    0  501 -0.00000000000E+00 -0.00000000000E+00 -0.33177711749E+01  0.33177711749E+01  0.00000000000E+00 0. -1.
        -13    1    1    2    0    0  0.14668686668E+02 -0.17060445190E+02  0.97687134377E+02  0.10024472745E+03  0.00000000000E+00 0.  1.
         13    1    1    2    0    0 -0.14668686668E+02  0.17060445190E+02  0.60030110117E+02  0.64108059395E+02  0.00000000000E+00 0. -1.
<mgrwt>
<rscale>  0 0.46228880E+02</rscale>
<asrwt>0</asrwt>
<pdfrwt beam="1">  1        2 0.24774612E-01 0.46228880E+02</pdfrwt>
<pdfrwt beam="2">  1       -2 0.51042646E-03 0.46228880E+02</pdfrwt>
<totfact> 0.83507970E+05</totfact>
</mgrwt>
</event>
<event>
 4    1  0.2126213E+000  0.5214473E+02  0.7546771E-02  0.1434105E+00
         -1   -1    0    0    0  501 -0.00000000000E+00  0.00000000000E+00  0.46494521854E+02  0.46494521854E+02  0.00000000000E+00 0.  1.
          1   -1    0    0  501    0  0.00000000000E+00 -0.00000000000E+00 -0.14620395726E+02  0.14620395726E+02  0.00000000000E+00 0. -1.
        -11    1    1    2    0    0  0.76607120275E+01 -0.24015027480E+02  0.81309687391E+01  0.26486236167E+02  0.00000000000E+00 0. -1.
         11    1    1    2    0    0 -0.76607120275E+01  0.24015027480E+02  0.23743157389E+02  0.34628681414E+02  0.00000000000E+00 0.  1.
<mgrwt>
<rscale>  0 0.52144734E+02</rscale>
<asrwt>0</asrwt>
<pdfrwt beam="2">  1        1 0.22492917E-02 0.52144734E+02</pdfrwt>
<pdfrwt beam="1">  1       -1 0.71530033E-02 0.52144734E+02</pdfrwt>
<totfact> 0.37155337E+05</totfact>
</mgrwt>
</event>
<event>
 4    1  0.2126213E+000  0.4236212E+02  0.7546771E-02  0.1491515E+00
          2   -1    0    0  501    0  0.00000000000E+00  0.00000000000E+00  0.37456318346E+01  0.37456318346E+01  0.00000000000E+00 0. -1.
         -2   -1    0    0    0  501 -0.00000000000E+00 -0.00000000000E+00 -0.11977614637E+03  0.11977614637E+03  0.00000000000E+00 0.  1.
        -13    1    1    2    0    0 -0.18769205321E+02 -0.84187303633E+01 -0.72733610183E+02  0.75586613494E+02  0.00000000000E+00 0.  1.
         13    1    1    2    0    0  0.18769205321E+02  0.84187303633E+01 -0.43296904358E+02  0.47935164715E+02  0.00000000000E+00 0. -1.
<mgrwt>
<rscale>  0 0.42362122E+02</rscale>
<asrwt>0</asrwt>
<pdfrwt beam="1">  1        2 0.57625112E-03 0.42362122E+02</pdfrwt>
<pdfrwt beam="2">  1       -2 0.18427097E-01 0.42362122E+02</pdfrwt>
<totfact> 0.50305604E+05</totfact>
</mgrwt>
</event>
<event>
 4    1  0.2126213E+000  0.2113490E+02  0.7546771E-02  0.1723658E+00
         -2   -1    0    0    0  501 -0.00000000000E+00  0.00000000000E+00  0.11567916505E+01  0.11567916505E+01  0.00000000000E+00 0. -1.
          2   -1    0    0  501    0  0.00000000000E+00 -0.00000000000E+00 -0.96535126415E+02  0.96535126415E+02  0.00000000000E+00 0.  1.
        -13    1    1    2    0    0  0.39728060058E+01  0.96201704881E+01 -0.56136936721E+02  0.57093664554E+02  0.00000000000E+00 0.  1.
         13    1    1    2    0    0 -0.39728060058E+01 -0.96201704881E+01 -0.39241398044E+02  0.40598253512E+02  0.00000000000E+00 0. -1.
<mgrwt>
<rscale>  0 0.21134903E+02</rscale>
<asrwt>0</asrwt>
<pdfrwt beam="2">  1        2 0.14851557E-01 0.21134903E+02</pdfrwt>
<pdfrwt beam="1">  1       -2 0.17796795E-03 0.21134903E+02</pdfrwt>
<totfact> 0.46308559E+06</totfact>
</mgrwt>
</event>
<event>
 4    1  0.2126213E+000  0.6876305E+02  0.7546771E-02  0.1364351E+00
          2   -1    0    0  501    0  0.00000000000E+00  0.00000000000E+00  0.30434170511E+03  0.30434170511E+03  0.00000000000E+00 0.  1.
         -2   -1    0    0    0  501 -0.00000000000E+00 -0.00000000000E+00 -0.38840857249E+01  0.38840857249E+01  0.00000000000E+00 0. -1.
        -11    1    1    2    0    0  0.18587091438E+02  0.28744561030E+02  0.13580155954E+03  0.14004925323E+03  0.00000000000E+00 0.  1.
         11    1    1    2    0    0 -0.18587091438E+02 -0.28744561030E+02  0.16465605984E+03  0.16817653760E+03  0.00000000000E+00 0. -1.
<mgrwt>
<rscale>  0 0.68763050E+02</rscale>
<asrwt>0</asrwt>
<pdfrwt beam="1">  1        2 0.46821782E-01 0.68763050E+02</pdfrwt>
<pdfrwt beam="2">  1       -2 0.59755189E-03 0.68763050E+02</pdfrwt>
<totfact> 0.37882577E+05</totfact>
</mgrwt>
</event>
<event>
 4    1  0.2126213E+000  0.4414273E+02  0.7546771E-02  0.1479765E+00
         -1   -1    0    0    0  501 -0.00000000000E+00  0.00000000000E+00  0.85596447371E+01  0.85596447371E+01  0.00000000000E+00 0.  1.
          1   -1    0    0  501    0  0.00000000000E+00 -0.00000000000E+00 -0.56911846386E+02  0.56911846386E+02  0.00000000000E+00 0. -1.
        -11    1    1    2    0    0 -0.18477032658E+02 -0.11282474118E+02 -0.30546899795E+02  0.37440727091E+02  0.00000000000E+00 0. -1.
         11    1    1    2    0    0  0.18477032658E+02  0.11282474118E+02 -0.17805301854E+02  0.28030764031E+02  0.00000000000E+00 0.  1.
<mgrwt>
<rscale>  0 0.44142732E+02</rscale>
<asrwt>0</asrwt>
<pdfrwt beam="2">  1        1 0.87556691E-02 0.44142732E+02</pdfrwt>
<pdfrwt beam="1">  1       -1 0.13168684E-02 0.44142732E+02</pdfrwt>
<totfact> 0.64716430E+05</totfact>
</mgrwt>
</event>
<event>
 4    1  0.2126213E+000  0.3336015E+02  0.7546771E-02  0.1563664E+00
          2   -1    0    0  501    0  0.00000000000E+00  0.00000000000E+00  0.18899194906E+01  0.18899194906E+01  0.00000000000E+00 0.  1.
         -2   -1    0    0    0  501 -0.00000000000E+00 -0.00000000000E+00 -0.14721519329E+03  0.14721519329E+03  0.00000000000E+00 0. -1.
        -11    1    1    2    0    0 -0.10779399356E+02 -0.12018706951E+02 -0.53922395085E+02  0.56287382768E+02  0.00000000000E+00 0. -1.
         11    1    1    2    0    0  0.10779399356E+02  0.12018706951E+02 -0.91402878711E+02  0.92817730008E+02  0.00000000000E+00 0.  1.
<mgrwt>
<rscale>  0 0.33360148E+02</rscale>
<asrwt>0</asrwt>
<pdfrwt beam="1">  1        2 0.29075692E-03 0.33360148E+02</pdfrwt>
<pdfrwt beam="2">  1       -2 0.22648485E-01 0.33360148E+02</pdfrwt>
<totfact> 0.83490322E+05</totfact>
</mgrwt>
</event>
<event>
 4    1  0.2126213E+000  0.3952136E+02  0.7546771E-02  0.1511764E+00
          2   -1    0    0  501    0  0.00000000000E+00  0.00000000000E+00  0.65884668422E+02  0.65884668422E+02  0.00000000000E+00 0. -1.
         -2   -1    0    0    0  501 -0.00000000000E+00 -0.00000000000E+00 -0.59267875594E+01  0.59267875594E+01  0.00000000000E+00 0.  1.
        -11    1    1    2    0    0  0.97923719481E+01 -0.17056556323E+02  0.26499070657E+02  0.33000263751E+02  0.00000000000E+00 0.  1.
         11    1    1    2    0    0 -0.97923719481E+01  0.17056556323E+02  0.33458810205E+02  0.38811192230E+02  0.00000000000E+00 0. -1.
<mgrwt>
<rscale>  0 0.39521358E+02</rscale>
<asrwt>0</asrwt>
<pdfrwt beam="1">  1        2 0.10136102E-01 0.39521358E+02</pdfrwt>
<pdfrwt beam="2">  1       -2 0.91181352E-03 0.39521358E+02</pdfrwt>
<totfact> 0.97935995E+05</totfact>
</mgrwt>
</event>
<event>
 4    1  0.2126213E+000  0.5205343E+02  0.7546771E-02  0.1434570E+00
          2   -1    0    0  501    0  0.00000000000E+00  0.00000000000E+00  0.43330364055E+01  0.43330364055E+01  0.00000000000E+00 0. -1.
         -2   -1    0    0    0  501 -0.00000000000E+00 -0.00000000000E+00 -0.15633145253E+03  0.15633145253E+03  0.00000000000E+00 0.  1.
        -11    1    1    2    0    0 -0.21336005263E+02  0.12213164667E+02 -0.49627273748E+02  0.55382784432E+02  0.00000000000E+00 0. -1.
         11    1    1    2    0    0  0.21336005263E+02 -0.12213164667E+02 -0.10237114238E+03  0.10528170450E+03  0.00000000000E+00 0.  1.
<mgrwt>
<rscale>  0 0.52053429E+02</rscale>
<asrwt>0</asrwt>
<pdfrwt beam="1">  1        2 0.66662099E-03 0.52053429E+02</pdfrwt>
<pdfrwt beam="2">  1       -2 0.24050993E-01 0.52053429E+02</pdfrwt>
<totfact> 0.28025066E+05</totfact>
</mgrwt>
</event>
<event>
 4    1  0.2126213E+000  0.3965173E+02  0.7546771E-02  0.1510790E+00
          2   -1    0    0  501    0  0.00000000000E+00  0.00000000000E+00  0.27172710770E+01  0.27172710770E+01  0.00000000000E+00 0. -1.
         -2   -1    0    0    0  501 -0.00000000000E+00 -0.00000000000E+00 -0.14465430404E+03  0.14465430404E+03  0.00000000000E+00 0.  1.
        -11    1    1    2    0    0  0.10821707281E+02 -0.14989977760E+02 -0.44359754879E+02  0.48058262917E+02  0.00000000000E+00 0. -1.
         11    1    1    2    0    0 -0.10821707281E+02  0.14989977760E+02 -0.97577278082E+02  0.99313312197E+02  0.00000000000E+00 0.  1.
<mgrwt>
<rscale>  0 0.39651732E+02</rscale>
<asrwt>0</asrwt>
<pdfrwt beam="1">  1        2 0.41804172E-03 0.39651732E+02</pdfrwt>
<pdfrwt beam="2">  1       -2 0.22254507E-01 0.39651732E+02</pdfrwt>
<totfact> 0.55713779E+05</totfact>
</mgrwt>
</event>
<event>
 4    1  0.2126213E+000  0.2489469E+02  0.7546771E-02  0.1662519E+00
         -4   -1    0    0    0  501 -0.00000000000E+00  0.00000000000E+00  0.23039266752E+02  0.23039266752E+02  0.00000000000E+00 0.  1.
          4   -1    0    0  501    0  0.00000000000E+00 -0.00000000000E+00 -0.67248815000E+01  0.67248815000E+01  0.00000000000E+00 0. -1.
        -13    1    1    2    0    0  0.11769876931E+02  0.36176444371E+01  0.10335350886E+02  0.16075970645E+02  0.00000000000E+00 0. -1.
         13    1    1    2    0    0 -0.11769876931E+02 -0.36176444371E+01  0.59790343660E+01  0.13688177607E+02  0.00000000000E+00 0.  1.
<mgrwt>
<rscale>  0 0.24894685E+02</rscale>
<asrwt>0</asrwt>
<pdfrwt beam="2">  1        4 0.10345972E-02 0.24894685E+02</pdfrwt>
<pdfrwt beam="1">  1       -4 0.35445025E-02 0.24894685E+02</pdfrwt>
<totfact> 0.78703631E+05</totfact>
</mgrwt>
</event>
<event>
 4    1  0.2126213E+000  0.3320697E+02  0.7546771E-02  0.1565125E+00
          2   -1    0    0  501    0  0.00000000000E+00  0.00000000000E+00  0.20076451354E+01  0.20076451354E+01  0.00000000000E+00 0.  1.
         -2   -1    0    0    0  501 -0.00000000000E+00 -0.00000000000E+00 -0.13731295572E+03  0.13731295572E+03  0.00000000000E+00 0. -1.
        -11    1    1    2    0    0 -0.13484094756E+02  0.85068186091E+01 -0.48203831695E+02  0.50772001776E+02  0.00000000000E+00 0.  1.
         11    1    1    2    0    0  0.13484094756E+02 -0.85068186091E+01 -0.87101478891E+02  0.88548599081E+02  0.00000000000E+00 0. -1.
<mgrwt>
<rscale>  0 0.33206968E+02</rscale>
<asrwt>0</asrwt>
<pdfrwt beam="1">  1        2 0.30886840E-03 0.33206968E+02</pdfrwt>
<pdfrwt beam="2">  1       -2 0.21125075E-01 0.33206968E+02</pdfrwt>
<totfact> 0.86281160E+05</totfact>
</mgrwt>
</event>
<event>
 4    1  0.2126213E+000  0.4418760E+02  0.7546771E-02  0.1479478E+00
          2   -1    0    0  501    0  0.00000000000E+00  0.00000000000E+00  0.34884607192E+02  0.34884607192E+02  0.00000000000E+00 0. -1.
         -2   -1    0    0    0  501 -0.00000000000E+00 -0.00000000000E+00 -0.13992874798E+02  0.13992874798E+02  0.00000000000E+00 0.  1.
        -13    1    1    2    0    0 -0.10830298922E+02  0.12381522977E+02  0.26760467154E+02  0.31412100984E+02  0.00000000000E+00 0. -1.
         13    1    1    2    0    0  0.10830298922E+02 -0.12381522977E+02 -0.58687347603E+01  0.17465381005E+02  0.00000000000E+00 0.  1.
<mgrwt>
<rscale>  0 0.44187597E+02</rscale>
<asrwt>0</asrwt>
<pdfrwt beam="1">  1        2 0.53668626E-02 0.44187597E+02</pdfrwt>
<pdfrwt beam="2">  1       -2 0.21527500E-02 0.44187597E+02</pdfrwt>
<totfact> 0.66163524E+05</totfact>
</mgrwt>
</event>
<event>
 4    1  0.2126213E+000  0.4213964E+02  0.7546771E-02  0.1493031E+00
         -1   -1    0    0    0  501 -0.00000000000E+00  0.00000000000E+00  0.88942518149E+01  0.88942518149E+01  0.00000000000E+00 0. -1.
          1   -1    0    0  501    0  0.00000000000E+00 -0.00000000000E+00 -0.49912845018E+02  0.49912845018E+02  0.00000000000E+00 0.  1.
        -13    1    1    2    0    0  0.18989679955E+01  0.19502661465E+02 -0.31316993457E+02  0.36942035175E+02  0.00000000000E+00 0.  1.
         13    1    1    2    0    0 -0.18989679955E+01 -0.19502661465E+02 -0.97015997462E+01  0.21865061658E+02  0.00000000000E+00 0. -1.
<mgrwt>
<rscale>  0 0.42139645E+02</rscale>
<asrwt>0</asrwt>
<pdfrwt beam="2">  1        1 0.76788994E-02 0.42139645E+02</pdfrwt>
<pdfrwt beam="1">  1       -1 0.13683464E-02 0.42139645E+02</pdfrwt>
<totfact> 0.71783327E+05</totfact>
</mgrwt>
</event>
<event>
 4    1  0.2126213E+000  0.6705568E+02  0.7546771E-02  0.1370402E+00
          2   -1    0    0  501    0  0.00000000000E+00  0.00000000000E+00  0.43198576656E+02  0.43198576656E+02  0.00000000000E+00 0.  1.
         -2   -1    0    0    0  501 -0.00000000000E+00 -0.00000000000E+00 -0.26022064618E+02  0.26022064618E+02  0.00000000000E+00 0. -1.
        -13    1    1    2    0    0 -0.16912063167E+02  0.66982782281E+01  0.37661933009E+02  0.41824705734E+02  0.00000000000E+00 0.  1.
         13    1    1    2    0    0  0.16912063167E+02 -0.66982782281E+01 -0.20485420970E+02  0.27395935540E+02  0.00000000000E+00 0. -1.
<mgrwt>
<rscale>  0 0.67055683E+02</rscale>
<asrwt>0</asrwt>
<pdfrwt beam="1">  1        2 0.66459349E-02 0.67055683E+02</pdfrwt>
<pdfrwt beam="2">  1       -2 0.40033946E-02 0.67055683E+02</pdfrwt>
<totfact> 0.22956029E+05</totfact>
</mgrwt>
</event>
<event>
 4    1  0.2126213E+000  0.2236796E+02  0.7546771E-02  0.1701965E+00
          2   -1    0    0  501    0  0.00000000000E+00  0.00000000000E+00  0.44395616192E+02  0.44395616192E+02  0.00000000000E+00 0. -1.
         -2   -1    0    0    0  501 -0.00000000000E+00 -0.00000000000E+00 -0.28174259396E+01  0.28174259396E+01  0.00000000000E+00 0.  1.
        -11    1    1    2    0    0  0.69561777415E+01  0.86462588523E+01  0.23725352375E+02  0.26192337548E+02  0.00000000000E+00 0.  1.
         11    1    1    2    0    0 -0.69561777415E+01 -0.86462588523E+01  0.17852837878E+02  0.21020704584E+02  0.00000000000E+00 0. -1.
<mgrwt>
<rscale>  0 0.22367956E+02</rscale>
<asrwt>0</asrwt>
<pdfrwt beam="1">  1        2 0.68300943E-02 0.22367956E+02</pdfrwt>
<pdfrwt beam="2">  1       -2 0.43345017E-03 0.22367956E+02</pdfrwt>
<totfact> 0.35381202E+06</totfact>
</mgrwt>
</event>
<event>
 4    1  0.2126213E+000  0.5269074E+02  0.7546771E-02  0.1431346E+00
          2   -1    0    0  501    0  0.00000000000E+00  0.00000000000E+00  0.71027840904E+02  0.71027840904E+02  0.00000000000E+00 0.  1.
         -2   -1    0    0    0  501 -0.00000000000E+00 -0.00000000000E+00 -0.97719234991E+01  0.97719234991E+01  0.00000000000E+00 0. -1.
        -11    1    1    2    0    0  0.10016685018E+01 -0.13678314385E+02 -0.38659183170E+01  0.14249384149E+02  0.00000000000E+00 0. -1.
         11    1    1    2    0    0 -0.10016685018E+01  0.13678314385E+02  0.65121835722E+02  0.66550380254E+02  0.00000000000E+00 0.  1.
<mgrwt>
<rscale>  0 0.52690744E+02</rscale>
<asrwt>0</asrwt>
<pdfrwt beam="1">  1        2 0.10927360E-01 0.52690744E+02</pdfrwt>
<pdfrwt beam="2">  1       -2 0.15033729E-02 0.52690744E+02</pdfrwt>
<totfact> 0.48214111E+05</totfact>
</mgrwt>
</event>
<event>
 4    1  0.2126213E+000  0.2709131E+02  0.7546771E-02  0.1632662E+00
          2   -1    0    0  501    0  0.00000000000E+00  0.00000000000E+00  0.92670423147E+01  0.92670423147E+01  0.00000000000E+00 0. -1.
         -2   -1    0    0    0  501 -0.00000000000E+00 -0.00000000000E+00 -0.19799710695E+02  0.19799710695E+02  0.00000000000E+00 0.  1.
        -13    1    1    2    0    0 -0.21921991600E+01  0.11356646836E+02 -0.12830641356E+02  0.17274389196E+02  0.00000000000E+00 0.  1.
         13    1    1    2    0    0  0.21921991600E+01 -0.11356646836E+02  0.22979729756E+01  0.11792363813E+02  0.00000000000E+00 0. -1.
<mgrwt>
<rscale>  0 0.27091309E+02</rscale>
<asrwt>0</asrwt>
<pdfrwt beam="1">  1        2 0.14256988E-02 0.27091309E+02</pdfrwt>
<pdfrwt beam="2">  1       -2 0.30461093E-02 0.27091309E+02</pdfrwt>
<totfact> 0.19150232E+06</totfact>
</mgrwt>
</event>
<event>
 4    1  0.2126213E+000  0.2736528E+02  0.7546771E-02  0.1629182E+00
         -2   -1    0    0    0  501 -0.00000000000E+00  0.00000000000E+00  0.68548998753E+02  0.68548998753E+02  0.00000000000E+00 0.  1.
          2   -1    0    0  501    0  0.00000000000E+00 -0.00000000000E+00 -0.27311062271E+01  0.27311062271E+01  0.00000000000E+00 0. -1.
        -13    1    1    2    0    0  0.13554470242E+02 -0.18677093706E+01  0.33041648922E+02  0.35762586111E+02  0.00000000000E+00 0. -1.
         13    1    1    2    0    0 -0.13554470242E+02  0.18677093706E+01  0.32776243603E+02  0.35517518869E+02  0.00000000000E+00 0.  1.
<mgrwt>
<rscale>  0 0.27365277E+02</rscale>
<asrwt>0</asrwt>
<pdfrwt beam="2">  1        2 0.42017024E-03 0.27365277E+02</pdfrwt>
<pdfrwt beam="1">  1       -2 0.10545999E-01 0.27365277E+02</pdfrwt>
<totfact> 0.15962444E+06</totfact>
</mgrwt>
</event>
<event>
 4    1  0.2126213E+000  0.2137015E+02  0.7546771E-02  0.1719378E+00
          2   -1    0    0  501    0  0.00000000000E+00  0.00000000000E+00  0.17492596114E+02  0.17492596114E+02  0.00000000000E+00 0. -1.
         -2   -1    0    0    0  501 -0.00000000000E+00 -0.00000000000E+00 -0.65268110449E+01  0.65268110449E+01  0.00000000000E+00 0.  1.
        -13    1    1    2    0    0 -0.49349330977E+01 -0.89130781289E+01  0.91031123206E+01  0.13662473434E+02  0.00000000000E+00 0. -1.
         13    1    1    2    0    0  0.49349330977E+01  0.89130781289E+01  0.18626727481E+01  0.10356933725E+02  0.00000000000E+00 0.  1.
<mgrwt>
<rscale>  0 0.21370154E+02</rscale>
<asrwt>0</asrwt>
<pdfrwt beam="1">  1        2 0.26911686E-02 0.21370154E+02</pdfrwt>
<pdfrwt beam="2">  1       -2 0.10041248E-02 0.21370154E+02</pdfrwt>
<totfact> 0.35432835E+06</totfact>
</mgrwt>
</event>
<event>
 4    1  0.2126213E+000  0.3001989E+02  0.7546771E-02  0.1597869E+00
          2   -1    0    0  501    0  0.00000000000E+00  0.00000000000E+00  0.56452338295E+02  0.56452338295E+02  0.00000000000E+00 0.  1.
         -2   -1    0    0    0  501 -0.00000000000E+00 -0.00000000000E+00 -0.39909498364E+01  0.39909498364E+01  0.00000000000E+00 0. -1.
        -13    1    1    2    0    0  0.83937746594E+01  0.66544163942E+01  0.47401696369E+02  0.48596888061E+02  0.00000000000E+00 0.  1.
         13    1    1    2    0    0 -0.83937746594E+01 -0.66544163942E+01  0.50596920898E+01  0.11846400070E+02  0.00000000000E+00 0. -1.
<mgrwt>
<rscale>  0 0.30019890E+02</rscale>
<asrwt>0</asrwt>
<pdfrwt beam="1">  1        2 0.86849746E-02 0.30019890E+02</pdfrwt>
<pdfrwt beam="2">  1       -2 0.61399232E-03 0.30019890E+02</pdfrwt>
<totfact> 0.18531602E+06</totfact>
</mgrwt>
</event>
<event>
 4    1  0.2126213E+000  0.3925301E+02  0.7546771E-02  0.1513782E+00
          2   -1    0    0  501    0  0.00000000000E+00  0.00000000000E+00  0.20106838088E+02  0.20106838088E+02  0.00000000000E+00 0. -1.
         -2   -1    0    0    0  501 -0.00000000000E+00 -0.00000000000E+00 -0.19157650106E+02  0.19157650106E+02  0.00000000000E+00 0.  1.
        -13    1    1    2    0    0 -0.28495366245E+01 -0.16878790314E+02  0.10078772867E+02  0.19864417533E+02  0.00000000000E+00 0. -1.
         13    1    1    2    0    0  0.28495366245E+01  0.16878790314E+02 -0.91295848851E+01  0.19400070660E+02  0.00000000000E+00 0.  1.
<mgrwt>
<rscale>  0 0.39253014E+02</rscale>
<asrwt>0</asrwt>
<pdfrwt beam="1">  1        2 0.30933597E-02 0.39253014E+02</pdfrwt>
<pdfrwt beam="2">  1       -2 0.29473308E-02 0.39253014E+02</pdfrwt>
<totfact> 0.82768976E+05</totfact>
</mgrwt>
</event>
<event>
 4    1  0.2126213E+000  0.3266944E+02  0.7546771E-02  0.1570327E+00
          4   -1    0    0  501    0  0.00000000000E+00  0.00000000000E+00  0.14847469869E+03  0.14847469869E+03  0.00000000000E+00 0.  1.
         -4   -1    0    0    0  501 -0.00000000000E+00 -0.00000000000E+00 -0.17970943418E+01  0.17970943418E+01  0.00000000000E+00 0. -1.
        -13    1    1    2    0    0  0.14779317341E+02  0.63102945120E+01  0.59869256460E+02  0.61988514315E+02  0.00000000000E+00 0. -1.
         13    1    1    2    0    0 -0.14779317341E+02 -0.63102945120E+01  0.86808347885E+02  0.88283278714E+02  0.00000000000E+00 0.  1.
<mgrwt>
<rscale>  0 0.32669438E+02</rscale>
<asrwt>0</asrwt>
<pdfrwt beam="1">  1        4 0.22842252E-01 0.32669438E+02</pdfrwt>
<pdfrwt beam="2">  1       -4 0.27647617E-03 0.32669438E+02</pdfrwt>
<totfact> 0.30180348E+05</totfact>
</mgrwt>
</event>
<event>
 4    1  0.2126213E+000  0.3802351E+02  0.7546771E-02  0.1523281E+00
          2   -1    0    0  501    0  0.00000000000E+00  0.00000000000E+00  0.86019719051E+02  0.86019719051E+02  0.00000000000E+00 0.  1.
         -2   -1    0    0    0  501 -0.00000000000E+00 -0.00000000000E+00 -0.42019064892E+01  0.42019064892E+01  0.00000000000E+00 0. -1.
        -13    1    1    2    0    0  0.17891390267E+02 -0.75930312267E+00  0.56059178534E+02  0.58849892820E+02  0.00000000000E+00 0.  1.
         13    1    1    2    0    0 -0.17891390267E+02  0.75930312267E+00  0.25758634028E+02  0.31371732721E+02  0.00000000000E+00 0. -1.
<mgrwt>
<rscale>  0 0.38023509E+02</rscale>
<asrwt>0</asrwt>
<pdfrwt beam="1">  1        2 0.13233802E-01 0.38023509E+02</pdfrwt>
<pdfrwt beam="2">  1       -2 0.64644722E-03 0.38023509E+02</pdfrwt>
<totfact> 0.11409416E+06</totfact>
</mgrwt>
</event>
<event>
 4    1  0.2126213E+000  0.3888519E+02  0.7546771E-02  0.1516579E+00
          2   -1    0    0  501    0  0.00000000000E+00  0.00000000000E+00  0.57662826818E+01  0.57662826818E+01  0.00000000000E+00 0.  1.
         -2   -1    0    0    0  501 -0.00000000000E+00 -0.00000000000E+00 -0.65556025813E+02  0.65556025813E+02  0.00000000000E+00 0. -1.
        -11    1    1    2    0    0  0.13551815236E+02  0.10743989956E+02 -0.46190119151E+02  0.49321517855E+02  0.00000000000E+00 0. -1.
         11    1    1    2    0    0 -0.13551815236E+02 -0.10743989956E+02 -0.13599623980E+02  0.22000790639E+02  0.00000000000E+00 0.  1.
<mgrwt>
<rscale>  0 0.38885194E+02</rscale>
<asrwt>0</asrwt>
<pdfrwt beam="1">  1        2 0.88712043E-03 0.38885194E+02</pdfrwt>
<pdfrwt beam="2">  1       -2 0.10085542E-01 0.38885194E+02</pdfrwt>
<totfact> 0.70865338E+05</totfact>
</mgrwt>
</event>
<event>
 4    1  0.2126213E+000  0.2400674E+02  0.7546771E-02  0.1675692E+00
         -2   -1    0    0    0  501 -0.00000000000E+00  0.00000000000E+00  0.36471194578E+02  0.36471194578E+02  0.00000000000E+00 0.  1.
          2   -1    0    0  501    0  0.00000000000E+00 -0.00000000000E+00 -0.39505398334E+01  0.39505398334E+01  0.00000000000E+00 0. -1.
        -13    1    1    2    0    0 -0.94472475492E+01  0.53970099044E+01  0.77239983548E+01  0.13343101317E+02  0.00000000000E+00 0.  1.
         13    1    1    2    0    0  0.94472475492E+01 -0.53970099044E+01  0.24796656390E+02  0.27078633095E+02  0.00000000000E+00 0. -1.
<mgrwt>
<rscale>  0 0.24006741E+02</rscale>
<asrwt>0</asrwt>
<pdfrwt beam="2">  1        2 0.60777539E-03 0.24006741E+02</pdfrwt>
<pdfrwt beam="1">  1       -2 0.56109528E-02 0.24006741E+02</pdfrwt>
<totfact> 0.23569841E+06</totfact>
</mgrwt>
</event>
<event>
 4    1  0.2126213E+000  0.2581304E+02  0.7546771E-02  0.1649591E+00
         -2   -1    0    0    0  501 -0.00000000000E+00  0.00000000000E+00  0.11642998757E+02  0.11642998757E+02  0.00000000000E+00 0. -1.
          2   -1    0    0  501    0  0.00000000000E+00 -0.00000000000E+00 -0.14307166315E+02  0.14307166315E+02  0.00000000000E+00 0.  1.
        -11    1    1    2    0    0 -0.73338692275E+01  0.10498471591E+02  0.28105087089E+00  0.12809470449E+02  0.00000000000E+00 0.  1.
         11    1    1    2    0    0  0.73338692275E+01 -0.10498471591E+02 -0.29452184297E+01  0.13140694623E+02  0.00000000000E+00 0. -1.
<mgrwt>
<rscale>  0 0.25813045E+02</rscale>
<asrwt>0</asrwt>
<pdfrwt beam="2">  1        2 0.22011025E-02 0.25813045E+02</pdfrwt>
<pdfrwt beam="1">  1       -2 0.17912306E-02 0.25813045E+02</pdfrwt>
<totfact> 0.22398816E+06</totfact>
</mgrwt>
</event>
<event>
 4    1  0.2126213E+000  0.2937128E+02  0.7546771E-02  0.1605144E+00
          2   -1    0    0  501    0  0.00000000000E+00  0.00000000000E+00  0.78396724737E+01  0.78396724737E+01  0.00000000000E+00 0.  1.
         -2   -1    0    0    0  501 -0.00000000000E+00 -0.00000000000E+00 -0.27509824358E+02  0.27509824358E+02  0.00000000000E+00 0. -1.
        -11    1    1    2    0    0 -0.94110039879E+01 -0.11151268052E+02 -0.11831006724E+02  0.18785379829E+02  0.00000000000E+00 0.  1.
         11    1    1    2    0    0  0.94110039879E+01  0.11151268052E+02 -0.78391451604E+01  0.16564117002E+02  0.00000000000E+00 0. -1.
<mgrwt>
<rscale>  0 0.29371279E+02</rscale>
<asrwt>0</asrwt>
<pdfrwt beam="1">  1        2 0.12061035E-02 0.29371279E+02</pdfrwt>
<pdfrwt beam="2">  1       -2 0.42322807E-02 0.29371279E+02</pdfrwt>
<totfact> 0.15420841E+06</totfact>
</mgrwt>
</event>
<event>
 4    1  0.2126213E+000  0.2311169E+02  0.7546771E-02  0.1689706E+00
          2   -1    0    0  501    0  0.00000000000E+00  0.00000000000E+00  0.44386703608E+02  0.44386703608E+02  0.00000000000E+00 0. -1.
         -2   -1    0    0    0  501 -0.00000000000E+00 -0.00000000000E+00 -0.30085039349E+01  0.30085039349E+01  0.00000000000E+00 0.  1.
        -11    1    1    2    0    0  0.77037797744E+01  0.78044909115E+01  0.28162010948E+02  0.30221799447E+02  0.00000000000E+00 0. -1.
         11    1    1    2    0    0 -0.77037797744E+01 -0.78044909115E+01  0.13216188725E+02  0.17173408096E+02  0.00000000000E+00 0.  1.
<mgrwt>
<rscale>  0 0.23111692E+02</rscale>
<asrwt>0</asrwt>
<pdfrwt beam="1">  1        2 0.68287231E-02 0.23111692E+02</pdfrwt>
<pdfrwt beam="2">  1       -2 0.46284679E-03 0.23111692E+02</pdfrwt>
<totfact> 0.32835540E+06</totfact>
</mgrwt>
</event>
<event>
 4    1  0.2126213E+000  0.2059833E+02  0.7546771E-02  0.1733685E+00
         -2   -1    0    0    0  501 -0.00000000000E+00  0.00000000000E+00  0.43058144468E+01  0.43058144468E+01  0.00000000000E+00 0.  1.
          2   -1    0    0  501    0  0.00000000000E+00 -0.00000000000E+00 -0.24634785816E+02  0.24634785816E+02  0.00000000000E+00 0. -1.
        -11    1    1    2    0    0  0.58313973550E+01  0.82461290476E+01 -0.73303664282E+01  0.12479507657E+02  0.00000000000E+00 0. -1.
         11    1    1    2    0    0 -0.58313973550E+01 -0.82461290476E+01 -0.12998604941E+02  0.16461092607E+02  0.00000000000E+00 0.  1.
<mgrwt>
<rscale>  0 0.20598332E+02</rscale>
<asrwt>0</asrwt>
<pdfrwt beam="2">  1        2 0.37899669E-02 0.20598332E+02</pdfrwt>
<pdfrwt beam="1">  1       -2 0.66243301E-03 0.20598332E+02</pdfrwt>
<totfact> 0.39761122E+06</totfact>
</mgrwt>
</event>
<event>
 4    1  0.2126213E+000  0.2655146E+02  0.7546771E-02  0.1639668E+00
         -4   -1    0    0    0  501 -0.00000000000E+00  0.00000000000E+00  0.41054359138E+01  0.41054359138E+01  0.00000000000E+00 0. -1.
          4   -1    0    0  501    0  0.00000000000E+00 -0.00000000000E+00 -0.42929663129E+02  0.42929663129E+02  0.00000000000E+00 0.  1.
        -13    1    1    2    0    0  0.75810739457E+01  0.10791569032E+02 -0.16717187045E+02  0.21293073687E+02  0.00000000000E+00 0. -1.
         13    1    1    2    0    0 -0.75810739457E+01 -0.10791569032E+02 -0.22107040170E+02  0.25742025356E+02  0.00000000000E+00 0.  1.
<mgrwt>
<rscale>  0 0.26551458E+02</rscale>
<asrwt>0</asrwt>
<pdfrwt beam="2">  1        4 0.66045634E-02 0.26551458E+02</pdfrwt>
<pdfrwt beam="1">  1       -4 0.63160554E-03 0.26551458E+02</pdfrwt>
<totfact> 0.64098600E+05</totfact>
</mgrwt>
</event>
<event>
 4    1  0.2126213E+000  0.4974794E+02  0.7546771E-02  0.1446706E+00
          2   -1    0    0  501    0  0.00000000000E+00  0.00000000000E+00  0.11176102093E+02  0.11176102093E+02  0.00000000000E+00 0.  1.
         -2   -1    0    0    0  501 -0.00000000000E+00 -0.00000000000E+00 -0.55360487514E+02  0.55360487514E+02  0.00000000000E+00 0. -1.
        -13    1    1    2    0    0 -0.14025545180E+02  0.64822155484E+01  0.39792730559E+01  0.15955238953E+02  0.00000000000E+00 0.  1.
         13    1    1    2    0    0  0.14025545180E+02 -0.64822155484E+01 -0.48163658477E+02  0.50581350653E+02  0.00000000000E+00 0. -1.
<mgrwt>
<rscale>  0 0.49747943E+02</rscale>
<asrwt>0</asrwt>
<pdfrwt beam="1">  1        2 0.17194003E-02 0.49747943E+02</pdfrwt>
<pdfrwt beam="2">  1       -2 0.85169982E-02 0.49747943E+02</pdfrwt>
<totfact> 0.40526247E+05</totfact>
</mgrwt>
</event>
<event>
 4    1  0.2126213E+000  0.3333676E+02  0.7546771E-02  0.1563887E+00
          2   -1    0    0  501    0  0.00000000000E+00  0.00000000000E+00  0.96909534961E+01  0.96909534961E+01  0.00000000000E+00 0.  1.
         -2   -1    0    0    0  501 -0.00000000000E+00 -0.00000000000E+00 -0.28669505781E+02  0.28669505781E+02  0.00000000000E+00 0. -1.
        -11    1    1    2    0    0 -0.43072825024E+01  0.11450120744E+02 -0.22516903451E+02  0.25625551480E+02  0.00000000000E+00 0. -1.
         11    1    1    2    0    0  0.43072825024E+01 -0.11450120744E+02  0.35383511670E+01  0.12734907797E+02  0.00000000000E+00 0.  1.
<mgrwt>
<rscale>  0 0.33336757E+02</rscale>
<asrwt>0</asrwt>
<pdfrwt beam="1">  1        2 0.14909159E-02 0.33336757E+02</pdfrwt>
<pdfrwt beam="2">  1       -2 0.44106933E-02 0.33336757E+02</pdfrwt>
<totfact> 0.11477629E+06</totfact>
</mgrwt>
</event>
<event>
 4    1  0.2126213E+000  0.2946140E+02  0.7546771E-02  0.1604120E+00
         -2   -1    0    0    0  501 -0.00000000000E+00  0.00000000000E+00  0.21934108896E+01  0.21934108896E+01  0.00000000000E+00 0.  1.
          2   -1    0    0  501    0  0.00000000000E+00 -0.00000000000E+00 -0.98929733568E+02  0.98929733568E+02  0.00000000000E+00 0. -1.
        -11    1    1    2    0    0  0.12011368957E+02 -0.47791508523E+01 -0.24126541960E+02  0.27371578216E+02  0.00000000000E+00 0. -1.
         11    1    1    2    0    0 -0.12011368957E+02  0.47791508523E+01 -0.72609780719E+02  0.73751566242E+02  0.00000000000E+00 0.  1.
<mgrwt>
<rscale>  0 0.29461402E+02</rscale>
<asrwt>0</asrwt>
<pdfrwt beam="2">  1        2 0.15219959E-01 0.29461402E+02</pdfrwt>
<pdfrwt beam="1">  1       -2 0.33744783E-03 0.29461402E+02</pdfrwt>
<totfact> 0.21750606E+06</totfact>
</mgrwt>
</event>
<event>
 4    1  0.2126213E+000  0.2693891E+02  0.7546771E-02  0.1634619E+00
          4   -1    0    0  501    0  0.00000000000E+00  0.00000000000E+00  0.22322395978E+02  0.22322395978E+02  0.00000000000E+00 0.  1.
         -4   -1    0    0    0  501 -0.00000000000E+00 -0.00000000000E+00 -0.81275395256E+01  0.81275395256E+01  0.00000000000E+00 0. -1.
        -11    1    1    2    0    0 -0.88258533837E+01  0.76871889088E+01 -0.43754480886E+00  0.11712386893E+02  0.00000000000E+00 0.  1.
         11    1    1    2    0    0  0.88258533837E+01 -0.76871889088E+01  0.14632401261E+02  0.18737548611E+02  0.00000000000E+00 0. -1.
<mgrwt>
<rscale>  0 0.26938905E+02</rscale>
<asrwt>0</asrwt>
<pdfrwt beam="1">  1        4 0.34342148E-02 0.26938905E+02</pdfrwt>
<pdfrwt beam="2">  1       -4 0.12503907E-02 0.26938905E+02</pdfrwt>
<totfact> 0.66046487E+05</totfact>
</mgrwt>
</event>
<event>
 4    1  0.2126213E+000  0.3158968E+02  0.7546771E-02  0.1581154E+00
         -2   -1    0    0    0  501 -0.00000000000E+00  0.00000000000E+00  0.16656827848E+01  0.16656827848E+01  0.00000000000E+00 0. -1.
          2   -1    0    0  501    0  0.00000000000E+00 -0.00000000000E+00 -0.14977458295E+03  0.14977458295E+03  0.00000000000E+00 0.  1.
        -11    1    1    2    0    0 -0.12971966896E+02 -0.86447656680E+01 -0.61857520974E+02  0.63791510404E+02  0.00000000000E+00 0. -1.
         11    1    1    2    0    0  0.12971966896E+02  0.86447656680E+01 -0.86251379195E+02  0.87648755334E+02  0.00000000000E+00 0.  1.
<mgrwt>
<rscale>  0 0.31589678E+02</rscale>
<asrwt>0</asrwt>
<pdfrwt beam="2">  1        2 0.23042245E-01 0.31589678E+02</pdfrwt>
<pdfrwt beam="1">  1       -2 0.25625887E-03 0.31589678E+02</pdfrwt>
<totfact> 0.20585202E+06</totfact>
</mgrwt>
</event>
<event>
 4    1  0.2126213E+000  0.2865610E+02  0.7546771E-02  0.1613437E+00
          2   -1    0    0  501    0  0.00000000000E+00  0.00000000000E+00  0.57135906164E+01  0.57135906164E+01  0.00000000000E+00 0. -1.
         -2   -1    0    0    0  501 -0.00000000000E+00 -0.00000000000E+00 -0.35930636268E+02  0.35930636268E+02  0.00000000000E+00 0.  1.
        -11    1    1    2    0    0 -0.76484215467E+01 -0.11818617007E+02 -0.18984862006E+02  0.23634784651E+02  0.00000000000E+00 0. -1.
         11    1    1    2    0    0  0.76484215467E+01  0.11818617007E+02 -0.11232183646E+02  0.18009442234E+02  0.00000000000E+00 0.  1.
<mgrwt>
<rscale>  0 0.28656095E+02</rscale>
<asrwt>0</asrwt>
<pdfrwt beam="1">  1        2 0.87901393E-03 0.28656095E+02</pdfrwt>
<pdfrwt beam="2">  1       -2 0.55277902E-02 0.28656095E+02</pdfrwt>
<totfact> 0.15815014E+06</totfact>
</mgrwt>
</event>
<event>
 4    1  0.2126213E+000  0.2615281E+02  0.7546771E-02  0.1644975E+00
         -4   -1    0    0    0  501 -0.00000000000E+00  0.00000000000E+00  0.28040162089E+01  0.28040162089E+01  0.00000000000E+00 0. -1.
          4   -1    0    0  501    0  0.00000000000E+00 -0.00000000000E+00 -0.60981219103E+02  0.60981219103E+02  0.00000000000E+00 0.  1.
        -13    1    1    2    0    0 -0.79583962275E+01  0.69724020957E+01 -0.47829132361E+02  0.48985470947E+02  0.00000000000E+00 0.  1.
         13    1    1    2    0    0  0.79583962275E+01 -0.69724020957E+01 -0.10348070533E+02  0.14799764365E+02  0.00000000000E+00 0. -1.
<mgrwt>
<rscale>  0 0.26152807E+02</rscale>
<asrwt>0</asrwt>
<pdfrwt beam="2">  1        4 0.93817254E-02 0.26152807E+02</pdfrwt>
<pdfrwt beam="1">  1       -4 0.43138714E-03 0.26152807E+02</pdfrwt>
<totfact> 0.62594575E+05</totfact>
</mgrwt>
</event>
<event>
 4    1  0.2126213E+000  0.3929542E+02  0.7546771E-02  0.1513461E+00
         -1   -1    0    0    0  501 -0.00000000000E+00  0.00000000000E+00  0.21896600326E+01  0.21896600326E+01  0.00000000000E+00 0.  1.
          1   -1    0    0  501    0  0.00000000000E+00 -0.00000000000E+00 -0.17629789216E+03  0.17629789216E+03  0.00000000000E+00 0. -1.
        -11    1    1    2    0    0  0.90671719099E+01  0.17429512335E+02 -0.87853099184E+02  0.90023155593E+02  0.00000000000E+00 0. -1.
         11    1    1    2    0    0 -0.90671719099E+01 -0.17429512335E+02 -0.86255132947E+02  0.88464396603E+02  0.00000000000E+00 0.  1.
<mgrwt>
<rscale>  0 0.39295417E+02</rscale>
<asrwt>0</asrwt>
<pdfrwt beam="2">  1        1 0.27122742E-01 0.39295417E+02</pdfrwt>
<pdfrwt beam="1">  1       -1 0.33687091E-03 0.39295417E+02</pdfrwt>
<totfact> 0.99742357E+05</totfact>
</mgrwt>
</event>
<event>
 4    1  0.2126213E+000  0.2085385E+02  0.7546771E-02  0.1728863E+00
          2   -1    0    0  501    0  0.00000000000E+00  0.00000000000E+00  0.46786332023E+02  0.46786332023E+02  0.00000000000E+00 0. -1.
         -2   -1    0    0    0  501 -0.00000000000E+00 -0.00000000000E+00 -0.23237726079E+01  0.23237726079E+01  0.00000000000E+00 0.  1.
        -13    1    1    2    0    0 -0.59737992606E+01  0.85273268759E+01  0.20900743943E+02  0.23350432086E+02  0.00000000000E+00 0. -1.
         13    1    1    2    0    0  0.59737992606E+01 -0.85273268759E+01  0.23561815472E+02  0.25759672544E+02  0.00000000000E+00 0.  1.
<mgrwt>
<rscale>  0 0.20853853E+02</rscale>
<asrwt>0</asrwt>
<pdfrwt beam="1">  1        2 0.71978965E-02 0.20853853E+02</pdfrwt>
<pdfrwt beam="2">  1       -2 0.35750351E-03 0.20853853E+02</pdfrwt>
<totfact> 0.41775981E+06</totfact>
</mgrwt>
</event>
<event>
 4    1  0.2126213E+000  0.3073409E+02  0.7546771E-02  0.1590113E+00
         -2   -1    0    0    0  501 -0.00000000000E+00  0.00000000000E+00  0.53904018322E+01  0.53904018322E+01  0.00000000000E+00 0. -1.
          2   -1    0    0  501    0  0.00000000000E+00 -0.00000000000E+00 -0.43808615873E+02  0.43808615873E+02  0.00000000000E+00 0.  1.
        -11    1    1    2    0    0 -0.88814082846E+01  0.94837631652E+01 -0.60742953658E+01  0.14342881199E+02  0.00000000000E+00 0. -1.
         11    1    1    2    0    0  0.88814082846E+01 -0.94837631652E+01 -0.32343918675E+02  0.34856136506E+02  0.00000000000E+00 0.  1.
<mgrwt>
<rscale>  0 0.30734088E+02</rscale>
<asrwt>0</asrwt>
<pdfrwt beam="2">  1        2 0.67397868E-02 0.30734088E+02</pdfrwt>
<pdfrwt beam="1">  1       -2 0.82929263E-03 0.30734088E+02</pdfrwt>
<totfact> 0.16806198E+06</totfact>
</mgrwt>
</event>
<event>
 4    1  0.2126213E+000  0.1169707E+03  0.7546771E-02  0.1248180E+00
         -2   -1    0    0    0  501 -0.00000000000E+00  0.00000000000E+00  0.87957104146E+02  0.87957104146E+02  0.00000000000E+00 0. -1.
          2   -1    0    0  501    0  0.00000000000E+00 -0.00000000000E+00 -0.38888664501E+02  0.38888664501E+02  0.00000000000E+00 0.  1.
        -13    1    1    2    0    0  0.27220510217E+02 -0.12659497266E+02  0.78964462705E+02  0.84478431672E+02  0.00000000000E+00 0. -1.
         13    1    1    2    0    0 -0.27220510217E+02  0.12659497266E+02 -0.29896023061E+02  0.42367336975E+02  0.00000000000E+00 0.  1.
<mgrwt>
<rscale>  0 0.11697067E+03</rscale>
<asrwt>0</asrwt>
<pdfrwt beam="2">  1        2 0.59828715E-02 0.11697067E+03</pdfrwt>
<pdfrwt beam="1">  1       -2 0.13531862E-01 0.11697067E+03</pdfrwt>
<totfact> 0.44927563E+04</totfact>
</mgrwt>
</event>
<event>
 4    1  0.2126213E+000  0.2889984E+02  0.7546771E-02  0.1610578E+00
         -2   -1    0    0    0  501 -0.00000000000E+00  0.00000000000E+00  0.40451351943E+01  0.40451351943E+01  0.00000000000E+00 0.  1.
          2   -1    0    0  501    0  0.00000000000E+00 -0.00000000000E+00 -0.51617597164E+02  0.51617597164E+02  0.00000000000E+00 0. -1.
        -11    1    1    2    0    0  0.10957577132E+02  0.28964501247E+01 -0.41050217109E+02  0.42586127373E+02  0.00000000000E+00 0. -1.
         11    1    1    2    0    0 -0.10957577132E+02 -0.28964501247E+01 -0.65222448608E+01  0.13076604986E+02  0.00000000000E+00 0.  1.
<mgrwt>
<rscale>  0 0.28899838E+02</rscale>
<asrwt>0</asrwt>
<pdfrwt beam="2">  1        2 0.79411690E-02 0.28899838E+02</pdfrwt>
<pdfrwt beam="1">  1       -2 0.62232848E-03 0.28899838E+02</pdfrwt>
<totfact> 0.19974444E+06</totfact>
</mgrwt>
</event>
<event>
 4    1  0.2126213E+000  0.3626616E+02  0.7546771E-02  0.1537636E+00
         -1   -1    0    0    0  501 -0.00000000000E+00  0.00000000000E+00  0.65387287550E+01  0.65387287550E+01  0.00000000000E+00 0. -1.
          1   -1    0    0  501    0  0.00000000000E+00 -0.00000000000E+00 -0.50286309892E+02  0.50286309892E+02  0.00000000000E+00 0.  1.
        -13    1    1    2    0    0  0.17553044208E+02 -0.43849189396E+01 -0.23774618216E+02  0.29875899089E+02  0.00000000000E+00 0.  1.
         13    1    1    2    0    0 -0.17553044208E+02  0.43849189396E+01 -0.19972962921E+02  0.26949139558E+02  0.00000000000E+00 0. -1.
<mgrwt>
<rscale>  0 0.36266157E+02</rscale>
<asrwt>0</asrwt>
<pdfrwt beam="2">  1        1 0.77363553E-02 0.36266157E+02</pdfrwt>
<pdfrwt beam="1">  1       -1 0.10059583E-02 0.36266157E+02</pdfrwt>
<totfact> 0.10402193E+06</totfact>
</mgrwt>
</event>
<event>
 4    1  0.2126213E+000  0.2267070E+02  0.7546771E-02  0.1696904E+00
         -4   -1    0    0    0  501 -0.00000000000E+00  0.00000000000E+00  0.46566936229E+02  0.46566936229E+02  0.00000000000E+00 0. -1.
          4   -1    0    0  501    0  0.00000000000E+00 -0.00000000000E+00 -0.27592584884E+01  0.27592584884E+01  0.00000000000E+00 0.  1.
        -13    1    1    2    0    0  0.89887668948E+01  0.63419327466E+01  0.15956317039E+02  0.19380972491E+02  0.00000000000E+00 0.  1.
         13    1    1    2    0    0 -0.89887668948E+01 -0.63419327466E+01  0.27851360702E+02  0.29945222227E+02  0.00000000000E+00 0. -1.
<mgrwt>
<rscale>  0 0.22670705E+02</rscale>
<asrwt>0</asrwt>
<pdfrwt beam="2">  1        4 0.42450134E-03 0.22670705E+02</pdfrwt>
<pdfrwt beam="1">  1       -4 0.71641434E-02 0.22670705E+02</pdfrwt>
<totfact> 0.89190938E+05</totfact>
</mgrwt>
</event>
<event>
 4    1  0.2126213E+000  0.3178879E+02  0.7546771E-02  0.1579118E+00
          2   -1    0    0  501    0  0.00000000000E+00  0.00000000000E+00  0.80779854041E+01  0.80779854041E+01  0.00000000000E+00 0.  1.
         -2   -1    0    0    0  501 -0.00000000000E+00 -0.00000000000E+00 -0.31274116918E+02  0.31274116918E+02  0.00000000000E+00 0. -1.
        -11    1    1    2    0    0  0.35545968598E+01  0.12706327463E+02 -0.62682453434E+00  0.13209043320E+02  0.00000000000E+00 0.  1.
         11    1    1    2    0    0 -0.35545968598E+01 -0.12706327463E+02 -0.22569306979E+02  0.26143059001E+02  0.00000000000E+00 0. -1.
<mgrwt>
<rscale>  0 0.31788794E+02</rscale>
<asrwt>0</asrwt>
<pdfrwt beam="1">  1        2 0.12427670E-02 0.31788794E+02</pdfrwt>
<pdfrwt beam="2">  1       -2 0.48114025E-02 0.31788794E+02</pdfrwt>
<totfact> 0.12674391E+06</totfact>
</mgrwt>
</event>
<event>
 4    1  0.2126213E+000  0.6191684E+02  0.7546771E-02  0.1389959E+00
          2   -1    0    0  501    0  0.00000000000E+00  0.00000000000E+00  0.10094828679E+03  0.10094828679E+03  0.00000000000E+00 0. -1.
         -2   -1    0    0    0  501 -0.00000000000E+00 -0.00000000000E+00 -0.94942044537E+01  0.94942044537E+01  0.00000000000E+00 0.  1.
        -11    1    1    2    0    0  0.16469754318E+02  0.20061086361E+01  0.92348335104E+02  0.93826927242E+02  0.00000000000E+00 0. -1.
         11    1    1    2    0    0 -0.16469754318E+02 -0.20061086361E+01 -0.89425276611E+00  0.16615564004E+02  0.00000000000E+00 0.  1.
<mgrwt>
<rscale>  0 0.61916837E+02</rscale>
<asrwt>0</asrwt>
<pdfrwt beam="1">  1        2 0.15530505E-01 0.61916837E+02</pdfrwt>
<pdfrwt beam="2">  1       -2 0.14606469E-02 0.61916837E+02</pdfrwt>
<totfact> 0.34662647E+05</totfact>
</mgrwt>
</event>
<event>
 4    1  0.2126213E+000  0.3368229E+02  0.7546771E-02  0.1560623E+00
          3   -1    0    0  501    0  0.00000000000E+00  0.00000000000E+00  0.15309229428E+03  0.15309229428E+03  0.00000000000E+00 0.  1.
         -3   -1    0    0    0  501 -0.00000000000E+00 -0.00000000000E+00 -0.18526347711E+01  0.18526347711E+01  0.00000000000E+00 0. -1.
        -11    1    1    2    0    0  0.12894893210E+02 -0.98665837396E+01  0.55049024371E+02  0.57393578298E+02  0.00000000000E+00 0. -1.
         11    1    1    2    0    0 -0.12894893210E+02  0.98665837396E+01  0.96190635134E+02  0.97551350749E+02  0.00000000000E+00 0.  1.
<mgrwt>
<rscale>  0 0.33682287E+02</rscale>
<asrwt>0</asrwt>
<pdfrwt beam="1">  1        3 0.23552651E-01 0.33682287E+02</pdfrwt>
<pdfrwt beam="2">  1       -3 0.28502086E-03 0.33682287E+02</pdfrwt>
<totfact> 0.38662667E+05</totfact>
</mgrwt>
</event>
<event>
 4    1  0.2126213E+000  0.2684076E+02  0.7546771E-02  0.1635888E+00
          2   -1    0    0  501    0  0.00000000000E+00  0.00000000000E+00  0.32561555278E+02  0.32561555278E+02  0.00000000000E+00 0. -1.
         -2   -1    0    0    0  501 -0.00000000000E+00 -0.00000000000E+00 -0.55312651386E+01  0.55312651386E+01  0.00000000000E+00 0.  1.
        -11    1    1    2    0    0 -0.12508602701E+02  0.32062237130E+01  0.83274159559E+01  0.15365248730E+02  0.00000000000E+00 0. -1.
         11    1    1    2    0    0  0.12508602701E+02 -0.32062237130E+01  0.18702874183E+02  0.22727571686E+02  0.00000000000E+00 0.  1.
<mgrwt>
<rscale>  0 0.26840760E+02</rscale>
<asrwt>0</asrwt>
<pdfrwt beam="1">  1        2 0.50094699E-02 0.26840760E+02</pdfrwt>
<pdfrwt beam="2">  1       -2 0.85096388E-03 0.26840760E+02</pdfrwt>
<totfact> 0.22255134E+06</totfact>
</mgrwt>
</event>
<event>
 4    1  0.2126213E+000  0.2495724E+02  0.7546771E-02  0.1661617E+00
         -4   -1    0    0    0  501 -0.00000000000E+00  0.00000000000E+00  0.95489148307E+02  0.95489148307E+02  0.00000000000E+00 0. -1.
          4   -1    0    0  501    0  0.00000000000E+00 -0.00000000000E+00 -0.16307182692E+01  0.16307182692E+01  0.00000000000E+00 0.  1.
        -13    1    1    2    0    0  0.93206795310E+01  0.80573705411E+01  0.54633513964E+02  0.56005509863E+02  0.00000000000E+00 0. -1.
         13    1    1    2    0    0 -0.93206795310E+01 -0.80573705411E+01  0.39224916074E+02  0.41114356713E+02  0.00000000000E+00 0.  1.
<mgrwt>
<rscale>  0 0.24957235E+02</rscale>
<asrwt>0</asrwt>
<pdfrwt beam="2">  1        4 0.25087981E-03 0.24957235E+02</pdfrwt>
<pdfrwt beam="1">  1       -4 0.14690634E-01 0.24957235E+02</pdfrwt>
<totfact> 0.62557475E+05</totfact>
</mgrwt>
</event>
<event>
 4    1  0.2126213E+000  0.3409805E+02  0.7546771E-02  0.1556759E+00
         -1   -1    0    0    0  501 -0.00000000000E+00  0.00000000000E+00  0.23321484974E+02  0.23321484974E+02  0.00000000000E+00 0.  1.
          1   -1    0    0  501    0  0.00000000000E+00 -0.00000000000E+00 -0.12463581203E+02  0.12463581203E+02  0.00000000000E+00 0. -1.
        -11    1    1    2    0    0  0.13945886925E+02  0.52689195799E+01  0.14109830210E+02  0.20526484945E+02  0.00000000000E+00 0.  1.
         11    1    1    2    0    0 -0.13945886925E+02 -0.52689195799E+01 -0.32519264381E+01  0.15258581232E+02  0.00000000000E+00 0. -1.
<mgrwt>
<rscale>  0 0.34098048E+02</rscale>
<asrwt>0</asrwt>
<pdfrwt beam="2">  1        1 0.19174740E-02 0.34098048E+02</pdfrwt>
<pdfrwt beam="1">  1       -1 0.35879208E-02 0.34098048E+02</pdfrwt>
<totfact> 0.10979963E+06</totfact>
</mgrwt>
</event>
<event>
 4    1  0.2126213E+000  0.3065670E+02  0.7546771E-02  0.1590941E+00
          2   -1    0    0  501    0  0.00000000000E+00  0.00000000000E+00  0.84130792335E+02  0.84130792335E+02  0.00000000000E+00 0.  1.
         -2   -1    0    0    0  501 -0.00000000000E+00 -0.00000000000E+00 -0.27927737417E+01  0.27927737417E+01  0.00000000000E+00 0. -1.
        -11    1    1    2    0    0  0.10952664504E+02 -0.94581371262E+01  0.54998526161E+02  0.56870511670E+02  0.00000000000E+00 0. -1.
         11    1    1    2    0    0 -0.10952664504E+02  0.94581371262E+01  0.26339492431E+02  0.30053054407E+02  0.00000000000E+00 0.  1.
<mgrwt>
<rscale>  0 0.30656697E+02</rscale>
<asrwt>0</asrwt>
<pdfrwt beam="1">  1        2 0.12943197E-01 0.30656697E+02</pdfrwt>
<pdfrwt beam="2">  1       -2 0.42965756E-03 0.30656697E+02</pdfrwt>
<totfact> 0.19075433E+06</totfact>
</mgrwt>
</event>
<event>
 4    1  0.2126213E+000  0.4479910E+02  0.7546771E-02  0.1475600E+00
          4   -1    0    0  501    0  0.00000000000E+00  0.00000000000E+00  0.20180626827E+02  0.20180626827E+02  0.00000000000E+00 0.  1.
         -4   -1    0    0    0  501 -0.00000000000E+00 -0.00000000000E+00 -0.24862455598E+02  0.24862455598E+02  0.00000000000E+00 0. -1.
        -11    1    1    2    0    0 -0.14750292247E+02 -0.83376883369E+01  0.12389874598E+02  0.20990406397E+02  0.00000000000E+00 0.  1.
         11    1    1    2    0    0  0.14750292247E+02  0.83376883369E+01 -0.17071703370E+02  0.24052676028E+02  0.00000000000E+00 0. -1.
<mgrwt>
<rscale>  0 0.44799104E+02</rscale>
<asrwt>0</asrwt>
<pdfrwt beam="1">  1        4 0.31047118E-02 0.44799104E+02</pdfrwt>
<pdfrwt beam="2">  1       -4 0.38249932E-02 0.44799104E+02</pdfrwt>
<totfact> 0.19198407E+05</totfact>
</mgrwt>
</event>
<event>
 4    1  0.2126213E+000  0.2187306E+02  0.7546771E-02  0.1710457E+00
         -1   -1    0    0    0  501 -0.00000000000E+00  0.00000000000E+00  0.41376548500E+01  0.41376548500E+01  0.00000000000E+00 0.  1.
          1   -1    0    0  501    0  0.00000000000E+00 -0.00000000000E+00 -0.28907131794E+02  0.28907131794E+02  0.00000000000E+00 0. -1.
        -11    1    1    2    0    0 -0.60475458850E+01  0.89775422764E+01 -0.14743960045E+02  0.18290801906E+02  0.00000000000E+00 0.  1.
         11    1    1    2    0    0  0.60475458850E+01 -0.89775422764E+01 -0.10025516899E+02  0.14753984738E+02  0.00000000000E+00 0. -1.
<mgrwt>
<rscale>  0 0.21873064E+02</rscale>
<asrwt>0</asrwt>
<pdfrwt beam="2">  1        1 0.44472510E-02 0.21873064E+02</pdfrwt>
<pdfrwt beam="1">  1       -1 0.63656229E-03 0.21873064E+02</pdfrwt>
<totfact> 0.33000709E+06</totfact>
</mgrwt>
</event>
<event>
 4    1  0.2126213E+000  0.2270285E+02  0.7546771E-02  0.1696373E+00
          2   -1    0    0  501    0  0.00000000000E+00  0.00000000000E+00  0.90161522790E+01  0.90161522790E+01  0.00000000000E+00 0.  1.
         -2   -1    0    0    0  501 -0.00000000000E+00 -0.00000000000E+00 -0.14291555422E+02  0.14291555422E+02  0.00000000000E+00 0. -1.
        -11    1    1    2    0    0  0.10629706975E+02  0.38073519670E+01 -0.14368192815E+01  0.11382049421E+02  0.00000000000E+00 0. -1.
         11    1    1    2    0    0 -0.10629706975E+02 -0.38073519670E+01 -0.38385838620E+01  0.11925658281E+02  0.00000000000E+00 0.  1.
<mgrwt>
<rscale>  0 0.22702849E+02</rscale>
<asrwt>0</asrwt>
<pdfrwt beam="1">  1        2 0.13871004E-02 0.22702849E+02</pdfrwt>
<pdfrwt beam="2">  1       -2 0.21987008E-02 0.22702849E+02</pdfrwt>
<totfact> 0.29173493E+06</totfact>
</mgrwt>
</event>
<event>
 4    1  0.2126213E+000  0.7072565E+02  0.7546771E-02  0.1357643E+00
          2   -1    0    0  501    0  0.00000000000E+00  0.00000000000E+00  0.14352776371E+02  0.14352776371E+02  0.00000000000E+00 0.  1.
         -2   -1    0    0    0  501 -0.00000000000E+00 -0.00000000000E+00 -0.87128059966E+02  0.87128059966E+02  0.00000000000E+00 0. -1.
        -13    1    1    2    0    0  0.26564222172E+02  0.15582345209E+02 -0.61325275191E+02  0.68624024649E+02  0.00000000000E+00 0.  1.
         13    1    1    2    0    0 -0.26564222172E+02 -0.15582345209E+02 -0.11450008404E+02  0.32856811687E+02  0.00000000000E+00 0. -1.
<mgrwt>
<rscale>  0 0.70725655E+02</rscale>
<asrwt>0</asrwt>
<pdfrwt beam="1">  1        2 0.22081195E-02 0.70725655E+02</pdfrwt>
<pdfrwt beam="2">  1       -2 0.13404317E-01 0.70725655E+02</pdfrwt>
<totfact> 0.15568351E+05</totfact>
</mgrwt>
</event>
<event>
 4    1  0.2126213E+000  0.5506762E+02  0.7546771E-02  0.1419779E+00
          1   -1    0    0  501    0  0.00000000000E+00  0.00000000000E+00  0.90261533609E+01  0.90261533609E+01  0.00000000000E+00 0. -1.
         -1   -1    0    0    0  501 -0.00000000000E+00 -0.00000000000E+00 -0.83990458241E+02  0.83990458241E+02  0.00000000000E+00 0.  1.
        -11    1    1    2    0    0  0.13579632612E+01  0.26848365050E+02 -0.27427618534E+02  0.38405117218E+02  0.00000000000E+00 0. -1.
         11    1    1    2    0    0 -0.13579632612E+01 -0.26848365050E+02 -0.47536686345E+02  0.54611494383E+02  0.00000000000E+00 0.  1.
<mgrwt>
<rscale>  0 0.55067622E+02</rscale>
<asrwt>0</asrwt>
<pdfrwt beam="1">  1        1 0.13886390E-02 0.55067622E+02</pdfrwt>
<pdfrwt beam="2">  1       -1 0.12921609E-01 0.55067622E+02</pdfrwt>
<totfact> 0.30105135E+05</totfact>
</mgrwt>
</event>
<event>
 4    1  0.2126213E+000  0.2294238E+02  0.7546771E-02  0.1692446E+00
          2   -1    0    0  501    0  0.00000000000E+00  0.00000000000E+00  0.42302807938E+02  0.42302807938E+02  0.00000000000E+00 0.  1.
         -2   -1    0    0    0  501 -0.00000000000E+00 -0.00000000000E+00 -0.31106264488E+01  0.31106264488E+01  0.00000000000E+00 0. -1.
        -11    1    1    2    0    0 -0.26358349670E+01 -0.10129407271E+02  0.28888095047E+02  0.30725796215E+02  0.00000000000E+00 0.  1.
         11    1    1    2    0    0  0.26358349670E+01  0.10129407271E+02  0.10304086442E+02  0.14687638171E+02  0.00000000000E+00 0. -1.
<mgrwt>
<rscale>  0 0.22942383E+02</rscale>
<asrwt>0</asrwt>
<pdfrwt beam="1">  1        2 0.65081239E-02 0.22942383E+02</pdfrwt>
<pdfrwt beam="2">  1       -2 0.47855795E-03 0.22942383E+02</pdfrwt>
<totfact> 0.33165138E+06</totfact>
</mgrwt>
</event>
<event>
 4    1  0.2126213E+000  0.3870131E+02  0.7546771E-02  0.1517992E+00
         -2   -1    0    0    0  501 -0.00000000000E+00  0.00000000000E+00  0.29618290910E+01  0.29618290910E+01  0.00000000000E+00 0.  1.
          2   -1    0    0  501    0  0.00000000000E+00 -0.00000000000E+00 -0.12642450799E+03  0.12642450799E+03  0.00000000000E+00 0. -1.
        -13    1    1    2    0    0  0.17389787442E+02  0.84812031826E+01 -0.60611137324E+02  0.63624252314E+02  0.00000000000E+00 0.  1.
         13    1    1    2    0    0 -0.17389787442E+02 -0.84812031826E+01 -0.62851541579E+02  0.65762084772E+02  0.00000000000E+00 0. -1.
<mgrwt>
<rscale>  0 0.38701307E+02</rscale>
<asrwt>0</asrwt>
<pdfrwt beam="2">  1        2 0.19449929E-01 0.38701307E+02</pdfrwt>
<pdfrwt beam="1">  1       -2 0.45566590E-03 0.38701307E+02</pdfrwt>
<totfact> 0.12049875E+06</totfact>
</mgrwt>
</event>
<event>
 4    1  0.2126213E+000  0.4350977E+02  0.7546771E-02  0.1483865E+00
          1   -1    0    0  501    0  0.00000000000E+00  0.00000000000E+00  0.98645575247E+01  0.98645575247E+01  0.00000000000E+00 0. -1.
         -1   -1    0    0    0  501 -0.00000000000E+00 -0.00000000000E+00 -0.47977309889E+02  0.47977309889E+02  0.00000000000E+00 0.  1.
        -11    1    1    2    0    0  0.18278237052E+02 -0.78101121744E+01 -0.30811090777E+02  0.36666266741E+02  0.00000000000E+00 0.  1.
         11    1    1    2    0    0 -0.18278237052E+02  0.78101121744E+01 -0.73016615879E+01  0.21175600673E+02  0.00000000000E+00 0. -1.
<mgrwt>
<rscale>  0 0.43509766E+02</rscale>
<asrwt>0</asrwt>
<pdfrwt beam="1">  1        1 0.15176243E-02 0.43509766E+02</pdfrwt>
<pdfrwt beam="2">  1       -1 0.73811244E-02 0.43509766E+02</pdfrwt>
<totfact> 0.57656421E+05</totfact>
</mgrwt>
</event>
<event>
 4    1  0.2126213E+000  0.2821606E+02  0.7546771E-02  0.1618688E+00
         -1   -1    0    0    0  501 -0.00000000000E+00  0.00000000000E+00  0.13264856855E+02  0.13264856855E+02  0.00000000000E+00 0.  1.
          1   -1    0    0  501    0  0.00000000000E+00 -0.00000000000E+00 -0.15004801103E+02  0.15004801103E+02  0.00000000000E+00 0. -1.
        -11    1    1    2    0    0  0.31185626855E+01  0.99754235600E+01 -0.10364365699E+02  0.14719191037E+02  0.00000000000E+00 0. -1.
         11    1    1    2    0    0 -0.31185626855E+01 -0.99754235600E+01  0.86244214510E+01  0.13550466921E+02  0.00000000000E+00 0.  1.
<mgrwt>
<rscale>  0 0.28216062E+02</rscale>
<asrwt>0</asrwt>
<pdfrwt beam="2">  1        1 0.23084309E-02 0.28216062E+02</pdfrwt>
<pdfrwt beam="1">  1       -1 0.20407472E-02 0.28216062E+02</pdfrwt>
<totfact> 0.17634435E+06</totfact>
</mgrwt>
</event>
<event>
 4    1  0.2126213E+000  0.3656990E+02  0.7546771E-02  0.1535086E+00
         -1   -1    0    0    0  501 -0.00000000000E+00  0.00000000000E+00  0.45660065455E+02  0.45660065455E+02  0.00000000000E+00 0.  1.
          1   -1    0    0  501    0  0.00000000000E+00 -0.00000000000E+00 -0.73223588507E+01  0.73223588507E+01  0.00000000000E+00 0. -1.
        -13    1    1    2    0    0 -0.15089422641E+02 -0.89099530330E+01  0.11604313660E+02  0.21017564898E+02  0.00000000000E+00 0. -1.
         13    1    1    2    0    0  0.15089422641E+02  0.89099530330E+01  0.26733392944E+02  0.31964859408E+02  0.00000000000E+00 0.  1.
<mgrwt>
<rscale>  0 0.36569899E+02</rscale>
<asrwt>0</asrwt>
<pdfrwt beam="2">  1        1 0.11265168E-02 0.36569899E+02</pdfrwt>
<pdfrwt beam="1">  1       -1 0.70246253E-02 0.36569899E+02</pdfrwt>
<totfact> 0.88034102E+05</totfact>
</mgrwt>
</event>
<event>
 4    1  0.2126213E+000  0.2403232E+02  0.7546771E-02  0.1675303E+00
         -1   -1    0    0    0  501 -0.00000000000E+00  0.00000000000E+00  0.10549795246E+02  0.10549795246E+02  0.00000000000E+00 0.  1.
          1   -1    0    0  501    0  0.00000000000E+00 -0.00000000000E+00 -0.13686339741E+02  0.13686339741E+02  0.00000000000E+00 0. -1.
        -11    1    1    2    0    0  0.87159182889E+01 -0.57583291845E+01 -0.75568571932E+01  0.12893086413E+02  0.00000000000E+00 0. -1.
         11    1    1    2    0    0 -0.87159182889E+01  0.57583291845E+01  0.44203126982E+01  0.11343048575E+02  0.00000000000E+00 0.  1.
<mgrwt>
<rscale>  0 0.24032318E+02</rscale>
<asrwt>0</asrwt>
<pdfrwt beam="2">  1        1 0.21055907E-02 0.24032318E+02</pdfrwt>
<pdfrwt beam="1">  1       -1 0.16230454E-02 0.24032318E+02</pdfrwt>
<totfact> 0.25656306E+06</totfact>
</mgrwt>
</event>
<event>
 4    1  0.2126213E+000  0.2327486E+02  0.7546771E-02  0.1687093E+00
          1   -1    0    0  501    0  0.00000000000E+00  0.00000000000E+00  0.17283079714E+02  0.17283079714E+02  0.00000000000E+00 0. -1.
         -1   -1    0    0    0  501 -0.00000000000E+00 -0.00000000000E+00 -0.78359768840E+01  0.78359768840E+01  0.00000000000E+00 0.  1.
        -11    1    1    2    0    0  0.26646400365E+01 -0.11147584526E+02  0.25487204391E+01  0.11741589465E+02  0.00000000000E+00 0.  1.
         11    1    1    2    0    0 -0.26646400365E+01  0.11147584526E+02  0.68983823913E+01  0.13377467133E+02  0.00000000000E+00 0. -1.
<mgrwt>
<rscale>  0 0.23274863E+02</rscale>
<asrwt>0</asrwt>
<pdfrwt beam="1">  1        1 0.26589353E-02 0.23274863E+02</pdfrwt>
<pdfrwt beam="2">  1       -1 0.12055349E-02 0.23274863E+02</pdfrwt>
<totfact> 0.27930195E+06</totfact>
</mgrwt>
</event>
<event>
 4    1  0.2126213E+000  0.2653406E+02  0.7546771E-02  0.1639897E+00
          2   -1    0    0  501    0  0.00000000000E+00  0.00000000000E+00  0.13008227577E+02  0.13008227577E+02  0.00000000000E+00 0. -1.
         -2   -1    0    0    0  501 -0.00000000000E+00 -0.00000000000E+00 -0.13530982948E+02  0.13530982948E+02  0.00000000000E+00 0.  1.
        -13    1    1    2    0    0 -0.49429583079E+01  0.11516264728E+02 -0.46161765739E+01  0.13355383794E+02  0.00000000000E+00 0. -1.
         13    1    1    2    0    0  0.49429583079E+01 -0.11516264728E+02  0.40934212030E+01  0.13183826731E+02  0.00000000000E+00 0.  1.
<mgrwt>
<rscale>  0 0.26534062E+02</rscale>
<asrwt>0</asrwt>
<pdfrwt beam="1">  1        2 0.20012658E-02 0.26534062E+02</pdfrwt>
<pdfrwt beam="2">  1       -2 0.20816897E-02 0.26534062E+02</pdfrwt>
<totfact> 0.20788310E+06</totfact>
</mgrwt>
</event>
<event>
 4    1  0.2126213E+000  0.2258888E+02  0.7546771E-02  0.1698262E+00
         -4   -1    0    0    0  501 -0.00000000000E+00  0.00000000000E+00  0.20748394479E+02  0.20748394479E+02  0.00000000000E+00 0. -1.
          4   -1    0    0  501    0  0.00000000000E+00 -0.00000000000E+00 -0.61481554521E+01  0.61481554521E+01  0.00000000000E+00 0.  1.
        -13    1    1    2    0    0  0.35116791922E+01  0.10268170126E+02  0.35731854811E+01  0.11425185467E+02  0.00000000000E+00 0.  1.
         13    1    1    2    0    0 -0.35116791922E+01 -0.10268170126E+02  0.11027053546E+02  0.15471364464E+02  0.00000000000E+00 0. -1.
<mgrwt>
<rscale>  0 0.22588878E+02</rscale>
<asrwt>0</asrwt>
<pdfrwt beam="2">  1        4 0.94587008E-03 0.22588878E+02</pdfrwt>
<pdfrwt beam="1">  1       -4 0.31920606E-02 0.22588878E+02</pdfrwt>
<totfact> 0.98011963E+05</totfact>
</mgrwt>
</event>
<event>
 4    1  0.2126213E+000  0.2216766E+02  0.7546771E-02  0.1705368E+00
         -1   -1    0    0    0  501 -0.00000000000E+00  0.00000000000E+00  0.47939907889E+01  0.47939907889E+01  0.00000000000E+00 0. -1.
          1   -1    0    0  501    0  0.00000000000E+00 -0.00000000000E+00 -0.25626106513E+02  0.25626106513E+02  0.00000000000E+00 0.  1.
        -11    1    1    2    0    0  0.97151226681E+01 -0.53355046986E+01 -0.10429762305E+02  0.15219433649E+02  0.00000000000E+00 0.  1.
         11    1    1    2    0    0 -0.97151226681E+01  0.53355046986E+01 -0.10402353419E+02  0.15200663653E+02  0.00000000000E+00 0. -1.
<mgrwt>
<rscale>  0 0.22167663E+02</rscale>
<asrwt>0</asrwt>
<pdfrwt beam="2">  1        1 0.39424779E-02 0.22167663E+02</pdfrwt>
<pdfrwt beam="1">  1       -1 0.73753704E-03 0.22167663E+02</pdfrwt>
<totfact> 0.31815907E+06</totfact>
</mgrwt>
</event>
<event>
 4    1  0.2126213E+000  0.3029982E+02  0.7546771E-02  0.1594798E+00
         -2   -1    0    0    0  501 -0.00000000000E+00  0.00000000000E+00  0.10700919952E+02  0.10700919952E+02  0.00000000000E+00 0.  1.
          2   -1    0    0  501    0  0.00000000000E+00 -0.00000000000E+00 -0.21448601277E+02  0.21448601277E+02  0.00000000000E+00 0. -1.
        -11    1    1    2    0    0 -0.36130743449E+01  0.13170451920E+02 -0.12331965306E+02  0.18400882542E+02  0.00000000000E+00 0. -1.
         11    1    1    2    0    0  0.36130743449E+01 -0.13170451920E+02  0.15842839812E+01  0.13748638687E+02  0.00000000000E+00 0.  1.
<mgrwt>
<rscale>  0 0.30299819E+02</rscale>
<asrwt>0</asrwt>
<pdfrwt beam="2">  1        2 0.32997848E-02 0.30299819E+02</pdfrwt>
<pdfrwt beam="1">  1       -2 0.16462954E-02 0.30299819E+02</pdfrwt>
<totfact> 0.15869297E+06</totfact>
</mgrwt>
</event>
<event>
 4    1  0.2126213E+000  0.2432343E+02  0.7546771E-02  0.1670914E+00
         -4   -1    0    0    0  501 -0.00000000000E+00  0.00000000000E+00  0.33631005951E+02  0.33631005951E+02  0.00000000000E+00 0. -1.
          4   -1    0    0  501    0  0.00000000000E+00 -0.00000000000E+00 -0.43979457723E+01  0.43979457723E+01  0.00000000000E+00 0.  1.
        -11    1    1    2    0    0 -0.11975540379E+01  0.12040311753E+02  0.16533995387E+02  0.20488441772E+02  0.00000000000E+00 0.  1.
         11    1    1    2    0    0  0.11975540379E+01 -0.12040311753E+02  0.12699064792E+02  0.17540509952E+02  0.00000000000E+00 0. -1.
<mgrwt>
<rscale>  0 0.24323432E+02</rscale>
<asrwt>0</asrwt>
<pdfrwt beam="2">  1        4 0.67660706E-03 0.24323432E+02</pdfrwt>
<pdfrwt beam="1">  1       -4 0.51740008E-02 0.24323432E+02</pdfrwt>
<totfact> 0.80115937E+05</totfact>
</mgrwt>
</event>
<event>
 4    1  0.2126213E+000  0.3456181E+02  0.7546771E-02  0.1552527E+00
          1   -1    0    0  501    0  0.00000000000E+00  0.00000000000E+00  0.88389659105E+02  0.88389659105E+02  0.00000000000E+00 0.  1.
         -1   -1    0    0    0  501 -0.00000000000E+00 -0.00000000000E+00 -0.33785599224E+01  0.33785599224E+01  0.00000000000E+00 0. -1.
        -13    1    1    2    0    0 -0.13037886437E+01 -0.16733593744E+02  0.31584759913E+02  0.35767444460E+02  0.00000000000E+00 0. -1.
         13    1    1    2    0    0  0.13037886437E+01  0.16733593744E+02  0.53426339269E+02  0.56000774567E+02  0.00000000000E+00 0.  1.
<mgrwt>
<rscale>  0 0.34561815E+02</rscale>
<asrwt>0</asrwt>
<pdfrwt beam="1">  1        1 0.13598407E-01 0.34561815E+02</pdfrwt>
<pdfrwt beam="2">  1       -1 0.51977852E-03 0.34561815E+02</pdfrwt>
<totfact> 0.12364500E+06</totfact>
</mgrwt>
</event>
<event>
 4    1  0.2126213E+000  0.3383296E+02  0.7546771E-02  0.1559215E+00
          2   -1    0    0  501    0  0.00000000000E+00  0.00000000000E+00  0.71653993942E+02  0.71653993942E+02  0.00000000000E+00 0.  1.
         -2   -1    0    0    0  501 -0.00000000000E+00 -0.00000000000E+00 -0.39937385070E+01  0.39937385070E+01  0.00000000000E+00 0. -1.
        -11    1    1    2    0    0  0.71085556816E+01 -0.14891317022E+02  0.25498690900E+02  0.30372127422E+02  0.00000000000E+00 0.  1.
         11    1    1    2    0    0 -0.71085556816E+01  0.14891317022E+02  0.42161564535E+02  0.45275605027E+02  0.00000000000E+00 0. -1.
<mgrwt>
<rscale>  0 0.33832961E+02</rscale>
<asrwt>0</asrwt>
<pdfrwt beam="1">  1        2 0.11023690E-01 0.33832961E+02</pdfrwt>
<pdfrwt beam="2">  1       -2 0.61442136E-03 0.33832961E+02</pdfrwt>
<totfact> 0.14560923E+06</totfact>
</mgrwt>
</event>
<event>
 4    1  0.2126213E+000  0.3355599E+02  0.7546771E-02  0.1561811E+00
          2   -1    0    0  501    0  0.00000000000E+00  0.00000000000E+00  0.44299460638E+02  0.44299460638E+02  0.00000000000E+00 0.  1.
         -2   -1    0    0    0  501 -0.00000000000E+00 -0.00000000000E+00 -0.63545058905E+01  0.63545058905E+01  0.00000000000E+00 0. -1.
        -11    1    1    2    0    0  0.90226585475E+01 -0.13491434604E+02  0.25390047060E+02  0.30134393385E+02  0.00000000000E+00 0.  1.
         11    1    1    2    0    0 -0.90226585475E+01  0.13491434604E+02  0.12554907687E+02  0.20519573143E+02  0.00000000000E+00 0. -1.
<mgrwt>
<rscale>  0 0.33555994E+02</rscale>
<asrwt>0</asrwt>
<pdfrwt beam="1">  1        2 0.68153014E-02 0.33555994E+02</pdfrwt>
<pdfrwt beam="2">  1       -2 0.97761632E-03 0.33555994E+02</pdfrwt>
<totfact> 0.13619511E+06</totfact>
</mgrwt>
</event>
<event>
 4    1  0.2126213E+000  0.2851035E+02  0.7546771E-02  0.1615164E+00
         -2   -1    0    0    0  501 -0.00000000000E+00  0.00000000000E+00  0.89645536051E+01  0.89645536051E+01  0.00000000000E+00 0. -1.
          2   -1    0    0  501    0  0.00000000000E+00 -0.00000000000E+00 -0.22668161583E+02  0.22668161583E+02  0.00000000000E+00 0.  1.
        -13    1    1    2    0    0  0.11744133549E+02 -0.55234936586E+01 -0.13394784770E+02  0.18650842181E+02  0.00000000000E+00 0.  1.
         13    1    1    2    0    0 -0.11744133549E+02  0.55234936586E+01 -0.30882320761E+00  0.12981873007E+02  0.00000000000E+00 0. -1.
<mgrwt>
<rscale>  0 0.28510345E+02</rscale>
<asrwt>0</asrwt>
<pdfrwt beam="2">  1        2 0.34874094E-02 0.28510345E+02</pdfrwt>
<pdfrwt beam="1">  1       -2 0.13791621E-02 0.28510345E+02</pdfrwt>
<totfact> 0.18489843E+06</totfact>
</mgrwt>
</event>
<event>
 4    1  0.2126213E+000  0.2884281E+02  0.7546771E-02  0.1611244E+00
          2   -1    0    0  501    0  0.00000000000E+00  0.00000000000E+00  0.88304286839E+01  0.88304286839E+01  0.00000000000E+00 0. -1.
         -2   -1    0    0    0  501 -0.00000000000E+00 -0.00000000000E+00 -0.23552302917E+02  0.23552302917E+02  0.00000000000E+00 0.  1.
        -11    1    1    2    0    0  0.12896121777E+02  0.18265096870E+01 -0.14311981340E+02  0.19351457423E+02  0.00000000000E+00 0.  1.
         11    1    1    2    0    0 -0.12896121777E+02 -0.18265096870E+01 -0.40989289320E+00  0.13031274178E+02  0.00000000000E+00 0. -1.
<mgrwt>
<rscale>  0 0.28842811E+02</rscale>
<asrwt>0</asrwt>
<pdfrwt beam="1">  1        2 0.13585275E-02 0.28842811E+02</pdfrwt>
<pdfrwt beam="2">  1       -2 0.36234312E-02 0.28842811E+02</pdfrwt>
<totfact> 0.16339819E+06</totfact>
</mgrwt>
</event>
<event>
 4    1  0.2126213E+000  0.3334850E+02  0.7546771E-02  0.1563775E+00
         -1   -1    0    0    0  501 -0.00000000000E+00  0.00000000000E+00  0.34927496853E+01  0.34927496853E+01  0.00000000000E+00 0. -1.
          1   -1    0    0  501    0  0.00000000000E+00 -0.00000000000E+00 -0.79602193855E+02  0.79602193855E+02  0.00000000000E+00 0.  1.
        -13    1    1    2    0    0  0.61635576368E+01  0.13838686690E+02 -0.55413204542E+02  0.57446687717E+02  0.00000000000E+00 0.  1.
         13    1    1    2    0    0 -0.61635576368E+01 -0.13838686690E+02 -0.20696239628E+02  0.25648255823E+02  0.00000000000E+00 0. -1.
<mgrwt>
<rscale>  0 0.33348495E+02</rscale>
<asrwt>0</asrwt>
<pdfrwt beam="2">  1        1 0.12246491E-01 0.33348495E+02</pdfrwt>
<pdfrwt beam="1">  1       -1 0.53734610E-03 0.33348495E+02</pdfrwt>
<totfact> 0.13316368E+06</totfact>
</mgrwt>
</event>
<event>
 4    1  0.2126213E+000  0.2980842E+02  0.7546771E-02  0.1600216E+00
          4   -1    0    0  501    0  0.00000000000E+00  0.00000000000E+00  0.33977815886E+02  0.33977815886E+02  0.00000000000E+00 0. -1.
         -4   -1    0    0    0  501 -0.00000000000E+00 -0.00000000000E+00 -0.65376622903E+01  0.65376622903E+01  0.00000000000E+00 0.  1.
        -11    1    1    2    0    0  0.28399810250E+01  0.11185508188E+02  0.90073521791E+00  0.11575509042E+02  0.00000000000E+00 0.  1.
         11    1    1    2    0    0 -0.28399810250E+01 -0.11185508188E+02  0.26539418378E+02  0.28939969134E+02  0.00000000000E+00 0. -1.
<mgrwt>
<rscale>  0 0.29808421E+02</rscale>
<asrwt>0</asrwt>
<pdfrwt beam="1">  1        4 0.52273562E-02 0.29808421E+02</pdfrwt>
<pdfrwt beam="2">  1       -4 0.10057942E-02 0.29808421E+02</pdfrwt>
<totfact> 0.50763169E+05</totfact>
</mgrwt>
</event>
<event>
 4    1  0.2126213E+000  0.2074454E+02  0.7546771E-02  0.1730915E+00
         -3   -1    0    0    0  501 -0.00000000000E+00  0.00000000000E+00  0.65109261741E+02  0.65109261741E+02  0.00000000000E+00 0.  1.
          3   -1    0    0  501    0  0.00000000000E+00 -0.00000000000E+00 -0.16523599042E+01  0.16523599042E+01  0.00000000000E+00 0. -1.
        -13    1    1    2    0    0  0.98008417535E+01 -0.32964258625E+01  0.34344991641E+02  0.35867832014E+02  0.00000000000E+00 0. -1.
         13    1    1    2    0    0 -0.98008417535E+01  0.32964258625E+01  0.29111910195E+02  0.30893789631E+02  0.00000000000E+00 0.  1.
<mgrwt>
<rscale>  0 0.20744535E+02</rscale>
<asrwt>0</asrwt>
<pdfrwt beam="2">  1        3 0.25420927E-03 0.20744535E+02</pdfrwt>
<pdfrwt beam="1">  1       -3 0.10016808E-01 0.20744535E+02</pdfrwt>
<totfact> 0.14279266E+06</totfact>
</mgrwt>
</event>
<event>
 4    1  0.2126213E+000  0.2588125E+02  0.7546771E-02  0.1648658E+00
         -3   -1    0    0    0  501 -0.00000000000E+00  0.00000000000E+00  0.35529690887E+02  0.35529690887E+02  0.00000000000E+00 0. -1.
          3   -1    0    0  501    0  0.00000000000E+00 -0.00000000000E+00 -0.47132332622E+01  0.47132332622E+01  0.00000000000E+00 0.  1.
        -11    1    1    2    0    0  0.12796814586E+02 -0.29702233839E+00  0.12452664319E+02  0.17858206362E+02  0.00000000000E+00 0. -1.
         11    1    1    2    0    0 -0.12796814586E+02  0.29702233839E+00  0.18363793306E+02  0.22384717787E+02  0.00000000000E+00 0.  1.
<mgrwt>
<rscale>  0 0.25881246E+02</rscale>
<asrwt>0</asrwt>
<pdfrwt beam="2">  1        3 0.72511283E-03 0.25881246E+02</pdfrwt>
<pdfrwt beam="1">  1       -3 0.54661061E-02 0.25881246E+02</pdfrwt>
<totfact> 0.94445883E+05</totfact>
</mgrwt>
</event>
<event>
 4    1  0.2126213E+000  0.2389040E+02  0.7546771E-02  0.1677471E+00
          2   -1    0    0  501    0  0.00000000000E+00  0.00000000000E+00  0.91494483260E+01  0.91494483260E+01  0.00000000000E+00 0.  1.
         -2   -1    0    0    0  501 -0.00000000000E+00 -0.00000000000E+00 -0.15595236459E+02  0.15595236459E+02  0.00000000000E+00 0. -1.
        -13    1    1    2    0    0 -0.10600457950E+02  0.32547749975E+01 -0.78229376618E+01  0.13570616150E+02  0.00000000000E+00 0. -1.
         13    1    1    2    0    0  0.10600457950E+02 -0.32547749975E+01  0.13771495286E+01  0.11174068635E+02  0.00000000000E+00 0.  1.
<mgrwt>
<rscale>  0 0.23890401E+02</rscale>
<asrwt>0</asrwt>
<pdfrwt beam="1">  1        2 0.14076075E-02 0.23890401E+02</pdfrwt>
<pdfrwt beam="2">  1       -2 0.23992671E-02 0.23890401E+02</pdfrwt>
<totfact> 0.25893117E+06</totfact>
</mgrwt>
</event>
<event>
 4    1  0.2126213E+000  0.6042949E+02  0.7546771E-02  0.1396038E+00
         -2   -1    0    0    0  501 -0.00000000000E+00  0.00000000000E+00  0.17887833167E+02  0.17887833167E+02  0.00000000000E+00 0. -1.
          2   -1    0    0  501    0  0.00000000000E+00 -0.00000000000E+00 -0.51036415128E+02  0.51036415128E+02  0.00000000000E+00 0.  1.
        -11    1    1    2    0    0 -0.10438006227E+02  0.70672352002E+01 -0.47894041723E+02  0.49525115042E+02  0.00000000000E+00 0.  1.
         11    1    1    2    0    0  0.10438006227E+02 -0.70672352002E+01  0.14745459762E+02  0.19399133253E+02  0.00000000000E+00 0. -1.
<mgrwt>
<rscale>  0 0.60429492E+02</rscale>
<asrwt>0</asrwt>
<pdfrwt beam="2">  1        2 0.78517561E-02 0.60429492E+02</pdfrwt>
<pdfrwt beam="1">  1       -2 0.27519744E-02 0.60429492E+02</pdfrwt>
<totfact> 0.31409852E+05</totfact>
</mgrwt>
</event>
<event>
 4    1  0.2126213E+000  0.2573008E+02  0.7546771E-02  0.1650732E+00
         -2   -1    0    0    0  501 -0.00000000000E+00  0.00000000000E+00  0.11905817503E+03  0.11905817503E+03  0.00000000000E+00 0. -1.
          2   -1    0    0  501    0  0.00000000000E+00 -0.00000000000E+00 -0.13901549962E+01  0.13901549962E+01  0.00000000000E+00 0.  1.
        -11    1    1    2    0    0  0.46978177516E+01 -0.11645601579E+02  0.45743484423E+02  0.47435808151E+02  0.00000000000E+00 0.  1.
         11    1    1    2    0    0 -0.46978177516E+01  0.11645601579E+02  0.71924535606E+02  0.73012521871E+02  0.00000000000E+00 0. -1.
<mgrwt>
<rscale>  0 0.25730085E+02</rscale>
<asrwt>0</asrwt>
<pdfrwt beam="2">  1        2 0.21387009E-03 0.25730085E+02</pdfrwt>
<pdfrwt beam="1">  1       -2 0.18316634E-01 0.25730085E+02</pdfrwt>
<totfact> 0.16215711E+06</totfact>
</mgrwt>
</event>
<event>
 4    1  0.2126213E+000  0.4443856E+02  0.7546771E-02  0.1477877E+00
         -4   -1    0    0    0  501 -0.00000000000E+00  0.00000000000E+00  0.11304529296E+03  0.11304529296E+03  0.00000000000E+00 0. -1.
          4   -1    0    0  501    0  0.00000000000E+00 -0.00000000000E+00 -0.43672439471E+01  0.43672439471E+01  0.00000000000E+00 0.  1.
        -13    1    1    2    0    0  0.21430059544E+02  0.45679869590E+01  0.64076424244E+02  0.67719288986E+02  0.00000000000E+00 0.  1.
         13    1    1    2    0    0 -0.21430059544E+02 -0.45679869590E+01  0.44601624773E+02  0.49693247925E+02  0.00000000000E+00 0. -1.
<mgrwt>
<rscale>  0 0.44438559E+02</rscale>
<asrwt>0</asrwt>
<pdfrwt beam="2">  1        4 0.67188377E-03 0.44438559E+02</pdfrwt>
<pdfrwt beam="1">  1       -4 0.17391581E-01 0.44438559E+02</pdfrwt>
<totfact> 0.15963476E+05</totfact>
</mgrwt>
</event>
<event>
 4    1  0.2126213E+000  0.3103241E+02  0.7546771E-02  0.1586949E+00
         -1   -1    0    0    0  501 -0.00000000000E+00  0.00000000000E+00  0.45775703768E+02  0.45775703768E+02  0.00000000000E+00 0. -1.
          1   -1    0    0  501    0  0.00000000000E+00 -0.00000000000E+00 -0.52593981528E+01  0.52593981528E+01  0.00000000000E+00 0.  1.
        -11    1    1    2    0    0 -0.14326887735E+02  0.29458850911E+01  0.28774236636E+02  0.32278392852E+02  0.00000000000E+00 0.  1.
         11    1    1    2    0    0  0.14326887735E+02 -0.29458850911E+01  0.11742068979E+02  0.18756709068E+02  0.00000000000E+00 0. -1.
<mgrwt>
<rscale>  0 0.31032412E+02</rscale>
<asrwt>0</asrwt>
<pdfrwt beam="2">  1        1 0.80913821E-03 0.31032412E+02</pdfrwt>
<pdfrwt beam="1">  1       -1 0.70424157E-02 0.31032412E+02</pdfrwt>
<totfact> 0.12975134E+06</totfact>
</mgrwt>
</event>
<event>
 4    1  0.2126213E+000  0.6997658E+02  0.7546771E-02  0.1360173E+00
         -2   -1    0    0    0  501 -0.00000000000E+00  0.00000000000E+00  0.12763409663E+02  0.12763409663E+02  0.00000000000E+00 0. -1.
          2   -1    0    0  501    0  0.00000000000E+00 -0.00000000000E+00 -0.95913267624E+02  0.95913267624E+02  0.00000000000E+00 0.  1.
        -13    1    1    2    0    0 -0.13502825417E+02 -0.21682662526E+02 -0.78709114183E+02  0.82750158936E+02  0.00000000000E+00 0.  1.
         13    1    1    2    0    0  0.13502825417E+02  0.21682662526E+02 -0.44407437774E+01  0.25926518350E+02  0.00000000000E+00 0. -1.
<mgrwt>
<rscale>  0 0.69976577E+02</rscale>
<asrwt>0</asrwt>
<pdfrwt beam="2">  1        2 0.14755888E-01 0.69976577E+02</pdfrwt>
<pdfrwt beam="1">  1       -2 0.19636014E-02 0.69976577E+02</pdfrwt>
<totfact> 0.24774673E+05</totfact>
</mgrwt>
</event>
<event>
 4    1  0.2126213E+000  0.2547983E+02  0.7546771E-02  0.1654204E+00
         -2   -1    0    0    0  501 -0.00000000000E+00  0.00000000000E+00  0.20960786252E+01  0.20960786252E+01  0.00000000000E+00 0.  1.
          2   -1    0    0  501    0  0.00000000000E+00 -0.00000000000E+00 -0.77432891452E+02  0.77432891452E+02  0.00000000000E+00 0. -1.
        -11    1    1    2    0    0  0.45601072960E+00 -0.11793403935E+02 -0.52641669773E+02  0.53948472811E+02  0.00000000000E+00 0. -1.
         11    1    1    2    0    0 -0.45601072960E+00  0.11793403935E+02 -0.22695143054E+02  0.25580497266E+02  0.00000000000E+00 0.  1.
<mgrwt>
<rscale>  0 0.25479830E+02</rscale>
<asrwt>0</asrwt>
<pdfrwt beam="2">  1        2 0.11912753E-01 0.25479830E+02</pdfrwt>
<pdfrwt beam="1">  1       -2 0.32247363E-03 0.25479830E+02</pdfrwt>
<totfact> 0.28896480E+06</totfact>
</mgrwt>
</event>
<event>
 4    1  0.2126213E+000  0.2953772E+02  0.7546771E-02  0.1603255E+00
          2   -1    0    0  501    0  0.00000000000E+00  0.00000000000E+00  0.18081677465E+01  0.18081677465E+01  0.00000000000E+00 0. -1.
         -2   -1    0    0    0  501 -0.00000000000E+00 -0.00000000000E+00 -0.12063000534E+03  0.12063000534E+03  0.00000000000E+00 0.  1.
        -13    1    1    2    0    0 -0.12830279853E+02 -0.62879106277E+01 -0.74901447814E+02  0.76252087091E+02  0.00000000000E+00 0.  1.
         13    1    1    2    0    0  0.12830279853E+02  0.62879106277E+01 -0.43920389783E+02  0.46186085999E+02  0.00000000000E+00 0. -1.
<mgrwt>
<rscale>  0 0.29537724E+02</rscale>
<asrwt>0</asrwt>
<pdfrwt beam="1">  1        2 0.27817965E-03 0.29537724E+02</pdfrwt>
<pdfrwt beam="2">  1       -2 0.18558463E-01 0.29537724E+02</pdfrwt>
<totfact> 0.11776794E+06</totfact>
</mgrwt>
</event>
<event>
 4    1  0.2126213E+000  0.2504891E+02  0.7546771E-02  0.1660300E+00
          2   -1    0    0  501    0  0.00000000000E+00  0.00000000000E+00  0.70404252807E+01  0.70404252807E+01  0.00000000000E+00 0. -1.
         -2   -1    0    0    0  501 -0.00000000000E+00 -0.00000000000E+00 -0.22280192606E+02  0.22280192606E+02  0.00000000000E+00 0.  1.
        -11    1    1    2    0    0 -0.10815893441E+02 -0.37625837053E+01 -0.13556402908E+02  0.17745890986E+02  0.00000000000E+00 0.  1.
         11    1    1    2    0    0  0.10815893441E+02  0.37625837053E+01 -0.16833644177E+01  0.11574726901E+02  0.00000000000E+00 0. -1.
<mgrwt>
<rscale>  0 0.25048915E+02</rscale>
<asrwt>0</asrwt>
<pdfrwt beam="1">  1        2 0.10831423E-02 0.25048915E+02</pdfrwt>
<pdfrwt beam="2">  1       -2 0.34277220E-02 0.25048915E+02</pdfrwt>
<totfact> 0.22572095E+06</totfact>
</mgrwt>
</event>
<event>
 4    1  0.2126213E+000  0.4063057E+02  0.7546771E-02  0.1503622E+00
          2   -1    0    0  501    0  0.00000000000E+00  0.00000000000E+00  0.73491785108E+01  0.73491785108E+01  0.00000000000E+00 0. -1.
         -2   -1    0    0    0  501 -0.00000000000E+00 -0.00000000000E+00 -0.56157420028E+02  0.56157420028E+02  0.00000000000E+00 0.  1.
        -13    1    1    2    0    0 -0.13279603938E+01 -0.14050665896E+02 -0.15643634918E+01  0.14199715634E+02  0.00000000000E+00 0. -1.
         13    1    1    2    0    0  0.13279603938E+01  0.14050665896E+02 -0.47243878025E+02  0.49306882905E+02  0.00000000000E+00 0.  1.
<mgrwt>
<rscale>  0 0.40630575E+02</rscale>
<asrwt>0</asrwt>
<pdfrwt beam="1">  1        2 0.11306429E-02 0.40630575E+02</pdfrwt>
<pdfrwt beam="2">  1       -2 0.86396030E-02 0.40630575E+02</pdfrwt>
<totfact> 0.65625086E+05</totfact>
</mgrwt>
</event>
<event>
 4    1  0.2126213E+000  0.2166676E+02  0.7546771E-02  0.1714080E+00
         -2   -1    0    0    0  501 -0.00000000000E+00  0.00000000000E+00  0.39811437905E+01  0.39811437905E+01  0.00000000000E+00 0.  1.
          2   -1    0    0  501    0  0.00000000000E+00 -0.00000000000E+00 -0.29479488929E+02  0.29479488929E+02  0.00000000000E+00 0. -1.
        -11    1    1    2    0    0 -0.10426989939E+02  0.91537265968E+00 -0.17062821868E+02  0.20017490262E+02  0.00000000000E+00 0. -1.
         11    1    1    2    0    0  0.10426989939E+02 -0.91537265968E+00 -0.84355232710E+01  0.13443142458E+02  0.00000000000E+00 0.  1.
<mgrwt>
<rscale>  0 0.21666756E+02</rscale>
<asrwt>0</asrwt>
<pdfrwt beam="2">  1        2 0.45353060E-02 0.21666756E+02</pdfrwt>
<pdfrwt beam="1">  1       -2 0.61248365E-03 0.21666756E+02</pdfrwt>
<totfact> 0.36123813E+06</totfact>
</mgrwt>
</event>
<event>
 4    1  0.2126213E+000  0.4791771E+02  0.7546771E-02  0.1456908E+00
         -2   -1    0    0    0  501 -0.00000000000E+00  0.00000000000E+00  0.77837580982E+02  0.77837580982E+02  0.00000000000E+00 0. -1.
          2   -1    0    0  501    0  0.00000000000E+00 -0.00000000000E+00 -0.73746727015E+01  0.73746727015E+01  0.00000000000E+00 0.  1.
        -13    1    1    2    0    0  0.13033509648E+02  0.18183226179E+02  0.19983122195E+02  0.29997120873E+02  0.00000000000E+00 0.  1.
         13    1    1    2    0    0 -0.13033509648E+02 -0.18183226179E+02  0.50479786085E+02  0.55215132810E+02  0.00000000000E+00 0. -1.
<mgrwt>
<rscale>  0 0.47917708E+02</rscale>
<asrwt>0</asrwt>
<pdfrwt beam="2">  1        2 0.11345651E-02 0.47917708E+02</pdfrwt>
<pdfrwt beam="1">  1       -2 0.11975012E-01 0.47917708E+02</pdfrwt>
<totfact> 0.41490696E+05</totfact>
</mgrwt>
</event>
<event>
 4    1  0.2126213E+000  0.3037955E+02  0.7546771E-02  0.1593931E+00
          2   -1    0    0  501    0  0.00000000000E+00  0.00000000000E+00  0.84870424090E+01  0.84870424090E+01  0.00000000000E+00 0.  1.
         -2   -1    0    0    0  501 -0.00000000000E+00 -0.00000000000E+00 -0.27186061602E+02  0.27186061602E+02  0.00000000000E+00 0. -1.
        -11    1    1    2    0    0 -0.12173514238E+02 -0.43481185624E+01 -0.18716196548E+02  0.22746353491E+02  0.00000000000E+00 0. -1.
         11    1    1    2    0    0  0.12173514238E+02  0.43481185624E+01  0.17177354684E-01  0.12926750520E+02  0.00000000000E+00 0.  1.
<mgrwt>
<rscale>  0 0.30379550E+02</rscale>
<asrwt>0</asrwt>
<pdfrwt beam="1">  1        2 0.13056988E-02 0.30379550E+02</pdfrwt>
<pdfrwt beam="2">  1       -2 0.41824710E-02 0.30379550E+02</pdfrwt>
<totfact> 0.14294852E+06</totfact>
</mgrwt>
</event>
<event>
 4    1  0.2126213E+000  0.2193954E+02  0.7546771E-02  0.1709300E+00
          2   -1    0    0  501    0  0.00000000000E+00  0.00000000000E+00  0.20821979312E+02  0.20821979312E+02  0.00000000000E+00 0. -1.
         -2   -1    0    0    0  501 -0.00000000000E+00 -0.00000000000E+00 -0.57792690837E+01  0.57792690837E+01  0.00000000000E+00 0.  1.
        -13    1    1    2    0    0 -0.94022681749E+01 -0.56263143916E+01  0.68823415697E+01  0.12939269143E+02  0.00000000000E+00 0. -1.
         13    1    1    2    0    0  0.94022681749E+01  0.56263143916E+01  0.81603686589E+01  0.13661979253E+02  0.00000000000E+00 0.  1.
<mgrwt>
<rscale>  0 0.21939537E+02</rscale>
<asrwt>0</asrwt>
<pdfrwt beam="1">  1        2 0.32033814E-02 0.21939537E+02</pdfrwt>
<pdfrwt beam="2">  1       -2 0.88911833E-03 0.21939537E+02</pdfrwt>
<totfact> 0.33886120E+06</totfact>
</mgrwt>
</event>
<event>
 4    1  0.2126213E+000  0.7301106E+02  0.7546771E-02  0.1350143E+00
          2   -1    0    0  501    0  0.00000000000E+00  0.00000000000E+00  0.97441813276E+02  0.97441813276E+02  0.00000000000E+00 0.  1.
         -2   -1    0    0    0  501 -0.00000000000E+00 -0.00000000000E+00 -0.13676404420E+02  0.13676404420E+02  0.00000000000E+00 0. -1.
        -11    1    1    2    0    0 -0.21207654336E+02 -0.27298627947E+02  0.59740280979E+02  0.69020872652E+02  0.00000000000E+00 0.  1.
         11    1    1    2    0    0  0.21207654336E+02  0.27298627947E+02  0.24025127877E+02  0.42097345044E+02  0.00000000000E+00 0. -1.
<mgrwt>
<rscale>  0 0.73011058E+02</rscale>
<asrwt>0</asrwt>
<pdfrwt beam="1">  1        2 0.14991048E-01 0.73011058E+02</pdfrwt>
<pdfrwt beam="2">  1       -2 0.21040623E-02 0.73011058E+02</pdfrwt>
<totfact> 0.22227836E+05</totfact>
</mgrwt>
</event>
<event>
 4    1  0.2126213E+000  0.2313851E+02  0.7546771E-02  0.1689275E+00
          2   -1    0    0  501    0  0.00000000000E+00  0.00000000000E+00  0.37409748265E+01  0.37409748265E+01  0.00000000000E+00 0.  1.
         -2   -1    0    0    0  501 -0.00000000000E+00 -0.00000000000E+00 -0.35778809176E+02  0.35778809176E+02  0.00000000000E+00 0. -1.
        -11    1    1    2    0    0  0.83575128265E+01 -0.79993027779E+01 -0.15841758419E+02  0.19616273228E+02  0.00000000000E+00 0.  1.
         11    1    1    2    0    0 -0.83575128265E+01  0.79993027779E+01 -0.16196075931E+02  0.19903510774E+02  0.00000000000E+00 0. -1.
<mgrwt>
<rscale>  0 0.23138507E+02</rscale>
<asrwt>0</asrwt>
<pdfrwt beam="1">  1        2 0.57553458E-03 0.23138507E+02</pdfrwt>
<pdfrwt beam="2">  1       -2 0.55044322E-02 0.23138507E+02</pdfrwt>
<totfact> 0.25648425E+06</totfact>
</mgrwt>
</event>
<event>
 4    1  0.2126213E+000  0.3621017E+02  0.7546771E-02  0.1538109E+00
         -2   -1    0    0    0  501 -0.00000000000E+00  0.00000000000E+00  0.71265799097E+02  0.71265799097E+02  0.00000000000E+00 0. -1.
          2   -1    0    0  501    0  0.00000000000E+00 -0.00000000000E+00 -0.45995981598E+01  0.45995981598E+01  0.00000000000E+00 0.  1.
        -13    1    1    2    0    0  0.65778034152E+01 -0.91198759796E+01  0.63063023189E+02  0.64057665657E+02  0.00000000000E+00 0. -1.
         13    1    1    2    0    0 -0.65778034152E+01  0.91198759796E+01  0.36031777480E+01  0.11807731600E+02  0.00000000000E+00 0.  1.
<mgrwt>
<rscale>  0 0.36210166E+02</rscale>
<asrwt>0</asrwt>
<pdfrwt beam="2">  1        2 0.70763054E-03 0.36210166E+02</pdfrwt>
<pdfrwt beam="1">  1       -2 0.10963968E-01 0.36210166E+02</pdfrwt>
<totfact> 0.82596271E+05</totfact>
</mgrwt>
</event>
<event>
 4    1  0.2126213E+000  0.3937444E+02  0.7546771E-02  0.1512866E+00
         -2   -1    0    0    0  501 -0.00000000000E+00  0.00000000000E+00  0.54033822002E+01  0.54033822002E+01  0.00000000000E+00 0. -1.
          2   -1    0    0  501    0  0.00000000000E+00 -0.00000000000E+00 -0.71730379640E+02  0.71730379640E+02  0.00000000000E+00 0.  1.
        -13    1    1    2    0    0 -0.41969557274E+01  0.13489530800E+02 -0.63029703335E+01  0.15469625516E+02  0.00000000000E+00 0. -1.
         13    1    1    2    0    0  0.41969557274E+01 -0.13489530800E+02 -0.60024027106E+02  0.61664136325E+02  0.00000000000E+00 0.  1.
<mgrwt>
<rscale>  0 0.39374441E+02</rscale>
<asrwt>0</asrwt>
<pdfrwt beam="2">  1        2 0.11035443E-01 0.39374441E+02</pdfrwt>
<pdfrwt beam="1">  1       -2 0.83128960E-03 0.39374441E+02</pdfrwt>
<totfact> 0.10059549E+06</totfact>
</mgrwt>
</event>
<event>
 4    1  0.2126213E+000  0.2655427E+02  0.7546771E-02  0.1639631E+00
          2   -1    0    0  501    0  0.00000000000E+00  0.00000000000E+00  0.13493985705E+02  0.13493985705E+02  0.00000000000E+00 0. -1.
         -2   -1    0    0    0  501 -0.00000000000E+00 -0.00000000000E+00 -0.13063772019E+02  0.13063772019E+02  0.00000000000E+00 0.  1.
        -13    1    1    2    0    0 -0.93432145642E+01 -0.54492310583E+01  0.79162845835E+01  0.13403631565E+02  0.00000000000E+00 0. -1.
         13    1    1    2    0    0  0.93432145642E+01  0.54492310583E+01 -0.74860708982E+01  0.13154126159E+02  0.00000000000E+00 0.  1.
<mgrwt>
<rscale>  0 0.26554273E+02</rscale>
<asrwt>0</asrwt>
<pdfrwt beam="1">  1        2 0.20759978E-02 0.26554273E+02</pdfrwt>
<pdfrwt beam="2">  1       -2 0.20098111E-02 0.26554273E+02</pdfrwt>
<totfact> 0.20820901E+06</totfact>
</mgrwt>
</event>
<event>
 4    1  0.2126213E+000  0.1100046E+03  0.7546771E-02  0.1260561E+00
          1   -1    0    0  501    0  0.00000000000E+00  0.00000000000E+00  0.29519730743E+02  0.29519730743E+02  0.00000000000E+00 0. -1.
         -1   -1    0    0    0  501 -0.00000000000E+00 -0.00000000000E+00 -0.10248245239E+03  0.10248245239E+03  0.00000000000E+00 0.  1.
        -11    1    1    2    0    0 -0.14186350990E+02  0.26128014314E+02 -0.92009336081E+02  0.96693555175E+02  0.00000000000E+00 0.  1.
         11    1    1    2    0    0  0.14186350990E+02 -0.26128014314E+02  0.19046614438E+02  0.35308627954E+02  0.00000000000E+00 0. -1.
<mgrwt>
<rscale>  0 0.11000463E+03</rscale>
<asrwt>0</asrwt>
<pdfrwt beam="1">  1        1 0.45414971E-02 0.11000463E+03</pdfrwt>
<pdfrwt beam="2">  1       -1 0.15766531E-01 0.11000463E+03</pdfrwt>
<totfact> 0.49869238E+04</totfact>
</mgrwt>
</event>
<event>
 4    1  0.2126213E+000  0.2613477E+02  0.7546771E-02  0.1645218E+00
          1   -1    0    0  501    0  0.00000000000E+00  0.00000000000E+00  0.65277742049E+01  0.65277742049E+01  0.00000000000E+00 0.  1.
         -1   -1    0    0    0  501 -0.00000000000E+00 -0.00000000000E+00 -0.26158466904E+02  0.26158466904E+02  0.00000000000E+00 0. -1.
        -13    1    1    2    0    0 -0.82093843017E+01  0.10158579201E+02 -0.10324671963E+02  0.16649011176E+02  0.00000000000E+00 0.  1.
         13    1    1    2    0    0  0.82093843017E+01 -0.10158579201E+02 -0.93060207361E+01  0.16037229933E+02  0.00000000000E+00 0. -1.
<mgrwt>
<rscale>  0 0.26134771E+02</rscale>
<asrwt>0</asrwt>
<pdfrwt beam="1">  1        1 0.10042729E-02 0.26134771E+02</pdfrwt>
<pdfrwt beam="2">  1       -1 0.40243796E-02 0.26134771E+02</pdfrwt>
<totfact> 0.20197750E+06</totfact>
</mgrwt>
</event>
<event>
 4    1  0.2126213E+000  0.3168016E+02  0.7546771E-02  0.1580226E+00
         -2   -1    0    0    0  501 -0.00000000000E+00  0.00000000000E+00  0.86703169809E+02  0.86703169809E+02  0.00000000000E+00 0. -1.
          2   -1    0    0  501    0  0.00000000000E+00 -0.00000000000E+00 -0.28938743461E+01  0.28938743461E+01  0.00000000000E+00 0.  1.
        -13    1    1    2    0    0 -0.13247351021E+02 -0.77140515943E+01  0.30624098865E+02  0.34246668924E+02  0.00000000000E+00 0.  1.
         13    1    1    2    0    0  0.13247351021E+02  0.77140515943E+01  0.53185196598E+02  0.55350375231E+02  0.00000000000E+00 0. -1.
<mgrwt>
<rscale>  0 0.31680156E+02</rscale>
<asrwt>0</asrwt>
<pdfrwt beam="2">  1        2 0.44521150E-03 0.31680156E+02</pdfrwt>
<pdfrwt beam="1">  1       -2 0.13338947E-01 0.31680156E+02</pdfrwt>
<totfact> 0.10858922E+06</totfact>
</mgrwt>
</event>
<event>
 4    1  0.2126213E+000  0.2117113E+02  0.7546771E-02  0.1722994E+00
          4   -1    0    0  501    0  0.00000000000E+00  0.00000000000E+00  0.90386816984E+02  0.90386816984E+02  0.00000000000E+00 0.  1.
         -4   -1    0    0    0  501 -0.00000000000E+00 -0.00000000000E+00 -0.12397186558E+01  0.12397186558E+01  0.00000000000E+00 0. -1.
        -13    1    1    2    0    0  0.10454812030E+02 -0.16456434377E+01  0.45470859073E+02  0.46686296294E+02  0.00000000000E+00 0.  1.
         13    1    1    2    0    0 -0.10454812030E+02  0.16456434377E+01  0.43676239255E+02  0.44940239345E+02  0.00000000000E+00 0. -1.
<mgrwt>
<rscale>  0 0.21171133E+02</rscale>
<asrwt>0</asrwt>
<pdfrwt beam="1">  1        4 0.13905659E-01 0.21171133E+02</pdfrwt>
<pdfrwt beam="2">  1       -4 0.19072602E-03 0.21171133E+02</pdfrwt>
<totfact> 0.89552341E+05</totfact>
</mgrwt>
</event>
<event>
 4    1  0.2126213E+000  0.2164479E+02  0.7546771E-02  0.1714469E+00
         -4   -1    0    0    0  501 -0.00000000000E+00  0.00000000000E+00  0.50398846608E+02  0.50398846608E+02  0.00000000000E+00 0. -1.
          4   -1    0    0  501    0  0.00000000000E+00 -0.00000000000E+00 -0.23239463228E+01  0.23239463228E+01  0.00000000000E+00 0.  1.
        -11    1    1    2    0    0 -0.10534744157E+02  0.63990452730E+00  0.18204742614E+02  0.21042883973E+02  0.00000000000E+00 0. -1.
         11    1    1    2    0    0  0.10534744157E+02 -0.63990452730E+00  0.29870157671E+02  0.31679908958E+02  0.00000000000E+00 0.  1.
<mgrwt>
<rscale>  0 0.21644788E+02</rscale>
<asrwt>0</asrwt>
<pdfrwt beam="2">  1        4 0.35753024E-03 0.21644788E+02</pdfrwt>
<pdfrwt beam="1">  1       -4 0.77536679E-02 0.21644788E+02</pdfrwt>
<totfact> 0.97039726E+05</totfact>
</mgrwt>
</event>
<event>
 4    1  0.2126213E+000  0.2180214E+02  0.7546771E-02  0.1711697E+00
          4   -1    0    0  501    0  0.00000000000E+00  0.00000000000E+00  0.12589621299E+01  0.12589621299E+01  0.00000000000E+00 0. -1.
         -4   -1    0    0    0  501 -0.00000000000E+00 -0.00000000000E+00 -0.94389881920E+02  0.94389881920E+02  0.00000000000E+00 0.  1.
        -13    1    1    2    0    0 -0.62704145550E+01 -0.88335932100E+01 -0.41223203100E+02  0.42622798377E+02  0.00000000000E+00 0.  1.
         13    1    1    2    0    0  0.62704145550E+01  0.88335932100E+01 -0.51907716690E+02  0.53026045673E+02  0.00000000000E+00 0. -1.
<mgrwt>
<rscale>  0 0.21802136E+02</rscale>
<asrwt>0</asrwt>
<pdfrwt beam="1">  1        4 0.19368641E-03 0.21802136E+02</pdfrwt>
<pdfrwt beam="2">  1       -4 0.14521526E-01 0.21802136E+02</pdfrwt>
<totfact> 0.83335669E+05</totfact>
</mgrwt>
</event>
<event>
 4    1  0.2126213E+000  0.5672896E+02  0.7546771E-02  0.1412095E+00
         -1   -1    0    0    0  501 -0.00000000000E+00  0.00000000000E+00  0.61857219238E+01  0.61857219238E+01  0.00000000000E+00 0.  1.
          1   -1    0    0  501    0  0.00000000000E+00 -0.00000000000E+00 -0.13006462878E+03  0.13006462878E+03  0.00000000000E+00 0. -1.
        -11    1    1    2    0    0 -0.21252774579E+02 -0.17903332593E+02 -0.48282250941E+02  0.55708038030E+02  0.00000000000E+00 0. -1.
         11    1    1    2    0    0  0.21252774579E+02  0.17903332593E+02 -0.75596655917E+02  0.80542312675E+02  0.00000000000E+00 0.  1.
<mgrwt>
<rscale>  0 0.56728956E+02</rscale>
<asrwt>0</asrwt>
<pdfrwt beam="2">  1        1 0.20009942E-01 0.56728956E+02</pdfrwt>
<pdfrwt beam="1">  1       -1 0.95164958E-03 0.56728956E+02</pdfrwt>
<totfact> 0.38053220E+05</totfact>
</mgrwt>
</event>
<event>
 4    1  0.2126213E+000  0.3231689E+02  0.7546771E-02  0.1573805E+00
          4   -1    0    0  501    0  0.00000000000E+00  0.00000000000E+00  0.28618728489E+02  0.28618728489E+02  0.00000000000E+00 0. -1.
         -4   -1    0    0    0  501 -0.00000000000E+00 -0.00000000000E+00 -0.91232321410E+01  0.91232321410E+01  0.00000000000E+00 0.  1.
        -11    1    1    2    0    0 -0.14656078218E+02 -0.65921390481E+01  0.11715317385E+02  0.19887322278E+02  0.00000000000E+00 0.  1.
         11    1    1    2    0    0  0.14656078218E+02  0.65921390481E+01  0.77801789626E+01  0.17854638351E+02  0.00000000000E+00 0. -1.
<mgrwt>
<rscale>  0 0.32316887E+02</rscale>
<asrwt>0</asrwt>
<pdfrwt beam="1">  1        4 0.44028813E-02 0.32316887E+02</pdfrwt>
<pdfrwt beam="2">  1       -4 0.14035742E-02 0.32316887E+02</pdfrwt>
<totfact> 0.42664091E+05</totfact>
</mgrwt>
</event>
<event>
 4    1  0.2126213E+000  0.3184209E+02  0.7546771E-02  0.1578576E+00
          2   -1    0    0  501    0  0.00000000000E+00  0.00000000000E+00  0.10826482796E+02  0.10826482796E+02  0.00000000000E+00 0.  1.
         -2   -1    0    0    0  501 -0.00000000000E+00 -0.00000000000E+00 -0.23412932094E+02  0.23412932094E+02  0.00000000000E+00 0. -1.
        -13    1    1    2    0    0 -0.13914598669E+02 -0.60816997616E+01 -0.11501802307E+01  0.15229118250E+02  0.00000000000E+00 0.  1.
         13    1    1    2    0    0  0.13914598669E+02  0.60816997616E+01 -0.11436269068E+02  0.19010296639E+02  0.00000000000E+00 0. -1.
<mgrwt>
<rscale>  0 0.31842092E+02</rscale>
<asrwt>0</asrwt>
<pdfrwt beam="1">  1        2 0.16656127E-02 0.31842092E+02</pdfrwt>
<pdfrwt beam="2">  1       -2 0.36019895E-02 0.31842092E+02</pdfrwt>
<totfact> 0.13051283E+06</totfact>
</mgrwt>
</event>
<event>
 4    1  0.2126213E+000  0.2268535E+02  0.7546771E-02  0.1696662E+00
         -4   -1    0    0    0  501 -0.00000000000E+00  0.00000000000E+00  0.62907738972E+01  0.62907738972E+01  0.00000000000E+00 0. -1.
          4   -1    0    0  501    0  0.00000000000E+00 -0.00000000000E+00 -0.20451586850E+02  0.20451586850E+02  0.00000000000E+00 0.  1.
        -11    1    1    2    0    0 -0.12899362571E+01  0.10914992087E+02 -0.10384377043E+02  0.15120723342E+02  0.00000000000E+00 0.  1.
         11    1    1    2    0    0  0.12899362571E+01 -0.10914992087E+02 -0.37764359100E+01  0.11621637406E+02  0.00000000000E+00 0. -1.
<mgrwt>
<rscale>  0 0.22685353E+02</rscale>
<asrwt>0</asrwt>
<pdfrwt beam="2">  1        4 0.31463979E-02 0.22685353E+02</pdfrwt>
<pdfrwt beam="1">  1       -4 0.96781138E-03 0.22685353E+02</pdfrwt>
<totfact> 0.97196801E+05</totfact>
</mgrwt>
</event>
<event>
 4    1  0.2126213E+000  0.3694722E+02  0.7546771E-02  0.1531959E+00
          1   -1    0    0  501    0  0.00000000000E+00  0.00000000000E+00  0.15013773601E+03  0.15013773601E+03  0.00000000000E+00 0. -1.
         -1   -1    0    0    0  501 -0.00000000000E+00 -0.00000000000E+00 -0.22730745667E+01  0.22730745667E+01  0.00000000000E+00 0.  1.
        -11    1    1    2    0    0 -0.14231763395E+02  0.11656509080E+02  0.80904811052E+02  0.82969908669E+02  0.00000000000E+00 0.  1.
         11    1    1    2    0    0  0.14231763395E+02 -0.11656509080E+02  0.66959850391E+02  0.69440901907E+02  0.00000000000E+00 0. -1.
<mgrwt>
<rscale>  0 0.36947220E+02</rscale>
<asrwt>0</asrwt>
<pdfrwt beam="1">  1        1 0.23098105E-01 0.36947220E+02</pdfrwt>
<pdfrwt beam="2">  1       -1 0.34970390E-03 0.36947220E+02</pdfrwt>
<totfact> 0.11295647E+06</totfact>
</mgrwt>
</event>
<event>
 4    1  0.2126213E+000  0.2211759E+02  0.7546771E-02  0.1706226E+00
          2   -1    0    0  501    0  0.00000000000E+00  0.00000000000E+00  0.18169385059E+02  0.18169385059E+02  0.00000000000E+00 0. -1.
         -2   -1    0    0    0  501 -0.00000000000E+00 -0.00000000000E+00 -0.67309370615E+01  0.67309370615E+01  0.00000000000E+00 0.  1.
        -11    1    1    2    0    0 -0.10600707887E+02  0.13797158433E+01  0.25312852566E+01  0.10985719301E+02  0.00000000000E+00 0. -1.
         11    1    1    2    0    0  0.10600707887E+02 -0.13797158433E+01  0.89071627406E+01  0.13914602819E+02  0.00000000000E+00 0.  1.
<mgrwt>
<rscale>  0 0.22117594E+02</rscale>
<asrwt>0</asrwt>
<pdfrwt beam="1">  1        2 0.27952900E-02 0.22117594E+02</pdfrwt>
<pdfrwt beam="2">  1       -2 0.10355288E-02 0.22117594E+02</pdfrwt>
<totfact> 0.32852405E+06</totfact>
</mgrwt>
</event>
<event>
 4    1  0.2126213E+000  0.2299726E+02  0.7546771E-02  0.1691555E+00
          2   -1    0    0  501    0  0.00000000000E+00  0.00000000000E+00  0.55355916290E+02  0.55355916290E+02  0.00000000000E+00 0.  1.
         -2   -1    0    0    0  501 -0.00000000000E+00 -0.00000000000E+00 -0.23885158405E+01  0.23885158405E+01  0.00000000000E+00 0. -1.
        -11    1    1    2    0    0 -0.57942435796E+01  0.82060601956E+01  0.40532733454E+02  0.41759012966E+02  0.00000000000E+00 0.  1.
         11    1    1    2    0    0  0.57942435796E+01 -0.82060601956E+01  0.12434666995E+02  0.15985419165E+02  0.00000000000E+00 0. -1.
<mgrwt>
<rscale>  0 0.22997259E+02</rscale>
<asrwt>0</asrwt>
<pdfrwt beam="1">  1        2 0.85162938E-02 0.22997259E+02</pdfrwt>
<pdfrwt beam="2">  1       -2 0.36746402E-03 0.22997259E+02</pdfrwt>
<totfact> 0.34362045E+06</totfact>
</mgrwt>
</event>
<event>
 4    1  0.2126213E+000  0.2636698E+02  0.7546771E-02  0.1642110E+00
          2   -1    0    0  501    0  0.00000000000E+00  0.00000000000E+00  0.83019235782E+01  0.83019235782E+01  0.00000000000E+00 0.  1.
         -2   -1    0    0    0  501 -0.00000000000E+00 -0.00000000000E+00 -0.20935434792E+02  0.20935434792E+02  0.00000000000E+00 0. -1.
        -13    1    1    2    0    0 -0.91075680799E+01  0.90352368731E+01 -0.29495578303E+01  0.13163707421E+02  0.00000000000E+00 0. -1.
         13    1    1    2    0    0  0.91075680799E+01 -0.90352368731E+01 -0.96839533830E+01  0.16073650948E+02  0.00000000000E+00 0.  1.
<mgrwt>
<rscale>  0 0.26366978E+02</rscale>
<asrwt>0</asrwt>
<pdfrwt beam="1">  1        2 0.12772190E-02 0.26366978E+02</pdfrwt>
<pdfrwt beam="2">  1       -2 0.32208361E-02 0.26366978E+02</pdfrwt>
<totfact> 0.20242186E+06</totfact>
</mgrwt>
</event>
<event>
 4    1  0.2126213E+000  0.4584584E+02  0.7546771E-02  0.1469129E+00
          4   -1    0    0  501    0  0.00000000000E+00  0.00000000000E+00  0.11320586457E+03  0.11320586457E+03  0.00000000000E+00 0.  1.
         -4   -1    0    0    0  501 -0.00000000000E+00 -0.00000000000E+00 -0.46416341953E+01  0.46416341953E+01  0.00000000000E+00 0. -1.
        -11    1    1    2    0    0 -0.16593647637E+02 -0.95668913723E+00  0.94860133001E+02  0.96305291802E+02  0.00000000000E+00 0.  1.
         11    1    1    2    0    0  0.16593647637E+02  0.95668913723E+00  0.13704097372E+02  0.21542206962E+02  0.00000000000E+00 0. -1.
<mgrwt>
<rscale>  0 0.45845838E+02</rscale>
<asrwt>0</asrwt>
<pdfrwt beam="1">  1        4 0.17416285E-01 0.45845838E+02</pdfrwt>
<pdfrwt beam="2">  1       -4 0.71409766E-03 0.45845838E+02</pdfrwt>
<totfact> 0.14789290E+05</totfact>
</mgrwt>
</event>
<event>
 4    1  0.2126213E+000  0.3635602E+02  0.7546771E-02  0.1536878E+00
         -4   -1    0    0    0  501 -0.00000000000E+00  0.00000000000E+00  0.34307306227E+02  0.34307306227E+02  0.00000000000E+00 0.  1.
          4   -1    0    0  501    0  0.00000000000E+00 -0.00000000000E+00 -0.96317709048E+01  0.96317709048E+01  0.00000000000E+00 0. -1.
        -11    1    1    2    0    0 -0.82257573223E+01  0.59291790564E+01 -0.58962152532E+01  0.11729603664E+02  0.00000000000E+00 0. -1.
         11    1    1    2    0    0  0.82257573223E+01 -0.59291790564E+01  0.30571750576E+02  0.32209473468E+02  0.00000000000E+00 0.  1.
<mgrwt>
<rscale>  0 0.36356024E+02</rscale>
<asrwt>0</asrwt>
<pdfrwt beam="2">  1        4 0.14818109E-02 0.36356024E+02</pdfrwt>
<pdfrwt beam="1">  1       -4 0.52780471E-02 0.36356024E+02</pdfrwt>
<totfact> 0.31772387E+05</totfact>
</mgrwt>
</event>
<event>
 4    1  0.2126213E+000  0.2348939E+02  0.7546771E-02  0.1683698E+00
          2   -1    0    0  501    0  0.00000000000E+00  0.00000000000E+00  0.17218128425E+01  0.17218128425E+01  0.00000000000E+00 0.  1.
         -2   -1    0    0    0  501 -0.00000000000E+00 -0.00000000000E+00 -0.80112028374E+02  0.80112028374E+02  0.00000000000E+00 0. -1.
        -11    1    1    2    0    0 -0.13334005571E+01 -0.11635875431E+02 -0.36145254140E+02  0.37995406971E+02  0.00000000000E+00 0. -1.
         11    1    1    2    0    0  0.13334005571E+01  0.11635875431E+02 -0.42244961391E+02  0.43838434245E+02  0.00000000000E+00 0.  1.
<mgrwt>
<rscale>  0 0.23489395E+02</rscale>
<asrwt>0</asrwt>
<pdfrwt beam="1">  1        2 0.26489428E-03 0.23489395E+02</pdfrwt>
<pdfrwt beam="2">  1       -2 0.12324928E-01 0.23489395E+02</pdfrwt>
<totfact> 0.21892355E+06</totfact>
</mgrwt>
</event>
<event>
 4    1  0.2126213E+000  0.5837847E+02  0.7546771E-02  0.1404765E+00
         -2   -1    0    0    0  501 -0.00000000000E+00  0.00000000000E+00  0.15473161757E+02  0.15473161757E+02  0.00000000000E+00 0. -1.
          2   -1    0    0  501    0  0.00000000000E+00 -0.00000000000E+00 -0.55063822272E+02  0.55063822272E+02  0.00000000000E+00 0.  1.
        -11    1    1    2    0    0 -0.83169810222E+01 -0.71423131287E+01 -0.52481819861E+02  0.53614608327E+02  0.00000000000E+00 0.  1.
         11    1    1    2    0    0  0.83169810222E+01  0.71423131287E+01  0.12891159345E+02  0.16922375702E+02  0.00000000000E+00 0. -1.
<mgrwt>
<rscale>  0 0.58378470E+02</rscale>
<asrwt>0</asrwt>
<pdfrwt beam="2">  1        2 0.84713573E-02 0.58378470E+02</pdfrwt>
<pdfrwt beam="1">  1       -2 0.23804864E-02 0.58378470E+02</pdfrwt>
<totfact> 0.34952737E+05</totfact>
</mgrwt>
</event>
<event>
 4    1  0.2126213E+000  0.3206494E+02  0.7546771E-02  0.1576324E+00
          2   -1    0    0  501    0  0.00000000000E+00  0.00000000000E+00  0.70675044252E+02  0.70675044252E+02  0.00000000000E+00 0. -1.
         -2   -1    0    0    0  501 -0.00000000000E+00 -0.00000000000E+00 -0.36369289998E+01  0.36369289998E+01  0.00000000000E+00 0.  1.
        -11    1    1    2    0    0 -0.11998894191E+02 -0.69522347898E+00  0.58109444911E+02  0.59339399941E+02  0.00000000000E+00 0. -1.
         11    1    1    2    0    0  0.11998894191E+02  0.69522347898E+00  0.89286703414E+01  0.14972573311E+02  0.00000000000E+00 0.  1.
<mgrwt>
<rscale>  0 0.32064941E+02</rscale>
<asrwt>0</asrwt>
<pdfrwt beam="1">  1        2 0.10873083E-01 0.32064941E+02</pdfrwt>
<pdfrwt beam="2">  1       -2 0.55952759E-03 0.32064941E+02</pdfrwt>
<totfact> 0.16519201E+06</totfact>
</mgrwt>
</event>
<event>
 4    1  0.2126213E+000  0.2728796E+02  0.7546771E-02  0.1630159E+00
          4   -1    0    0  501    0  0.00000000000E+00  0.00000000000E+00  0.15876865700E+02  0.15876865700E+02  0.00000000000E+00 0. -1.
         -4   -1    0    0    0  501 -0.00000000000E+00 -0.00000000000E+00 -0.11725124901E+02  0.11725124901E+02  0.00000000000E+00 0.  1.
        -11    1    1    2    0    0  0.12043865126E+02 -0.63350783971E+01  0.30722585207E+01  0.13950866564E+02  0.00000000000E+00 0.  1.
         11    1    1    2    0    0 -0.12043865126E+02  0.63350783971E+01  0.10794822786E+01  0.13651124037E+02  0.00000000000E+00 0. -1.
<mgrwt>
<rscale>  0 0.27287963E+02</rscale>
<asrwt>0</asrwt>
<pdfrwt beam="1">  1        4 0.24425947E-02 0.27287963E+02</pdfrwt>
<pdfrwt beam="2">  1       -4 0.18038654E-02 0.27287963E+02</pdfrwt>
<totfact> 0.64924286E+05</totfact>
</mgrwt>
</event>
<event>
 4    1  0.2126213E+000  0.2405249E+02  0.7546771E-02  0.1674997E+00
          4   -1    0    0  501    0  0.00000000000E+00  0.00000000000E+00  0.29527602008E+01  0.29527602008E+01  0.00000000000E+00 0. -1.
         -4   -1    0    0    0  501 -0.00000000000E+00 -0.00000000000E+00 -0.48981468446E+02  0.48981468446E+02  0.00000000000E+00 0.  1.
        -11    1    1    2    0    0  0.11822220670E+02 -0.21314365994E+01 -0.21787958395E+02  0.24880173925E+02  0.00000000000E+00 0.  1.
         11    1    1    2    0    0 -0.11822220670E+02  0.21314365994E+01 -0.24240749850E+02  0.27054054721E+02  0.00000000000E+00 0. -1.
<mgrwt>
<rscale>  0 0.24052487E+02</rscale>
<asrwt>0</asrwt>
<pdfrwt beam="1">  1        4 0.45427078E-03 0.24052487E+02</pdfrwt>
<pdfrwt beam="2">  1       -4 0.75356108E-02 0.24052487E+02</pdfrwt>
<totfact> 0.77997887E+05</totfact>
</mgrwt>
</event>
<event>
 4    1  0.2126213E+000  0.4520498E+02  0.7546771E-02  0.1473066E+00
         -2   -1    0    0    0  501 -0.00000000000E+00  0.00000000000E+00  0.62761953234E+01  0.62761953234E+01  0.00000000000E+00 0. -1.
          2   -1    0    0  501    0  0.00000000000E+00 -0.00000000000E+00 -0.81398455290E+02  0.81398455290E+02  0.00000000000E+00 0.  1.
        -11    1    1    2    0    0 -0.93507016695E+01  0.20534530166E+02 -0.34980766147E+02  0.41626392483E+02  0.00000000000E+00 0. -1.
         11    1    1    2    0    0  0.93507016695E+01 -0.20534530166E+02 -0.40141493819E+02  0.46048258131E+02  0.00000000000E+00 0.  1.
<mgrwt>
<rscale>  0 0.45204982E+02</rscale>
<asrwt>0</asrwt>
<pdfrwt beam="2">  1        2 0.12522840E-01 0.45204982E+02</pdfrwt>
<pdfrwt beam="1">  1       -2 0.96556849E-03 0.45204982E+02</pdfrwt>
<totfact> 0.73383398E+05</totfact>
</mgrwt>
</event>
<event>
 4    1  0.2126213E+000  0.6189901E+02  0.7546771E-02  0.1390031E+00
          2   -1    0    0  501    0  0.00000000000E+00  0.00000000000E+00  0.23241126195E+03  0.23241126195E+03  0.00000000000E+00 0. -1.
         -2   -1    0    0    0  501 -0.00000000000E+00 -0.00000000000E+00 -0.41214518085E+01  0.41214518085E+01  0.00000000000E+00 0.  1.
        -11    1    1    2    0    0 -0.14953416310E+02 -0.27094913786E+02  0.11553745967E+03  0.11961038249E+03  0.00000000000E+00 0. -1.
         11    1    1    2    0    0  0.14953416310E+02  0.27094913786E+02  0.11275235047E+03  0.11692233127E+03  0.00000000000E+00 0.  1.
<mgrwt>
<rscale>  0 0.61899009E+02</rscale>
<asrwt>0</asrwt>
<pdfrwt beam="1">  1        2 0.35755568E-01 0.61899009E+02</pdfrwt>
<pdfrwt beam="2">  1       -2 0.63406969E-03 0.61899009E+02</pdfrwt>
<totfact> 0.45114827E+05</totfact>
</mgrwt>
</event>
<event>
 4    1  0.2126213E+000  0.2265642E+02  0.7546771E-02  0.1697141E+00
          4   -1    0    0  501    0  0.00000000000E+00  0.00000000000E+00  0.25743613803E+01  0.25743613803E+01  0.00000000000E+00 0. -1.
         -4   -1    0    0    0  501 -0.00000000000E+00 -0.00000000000E+00 -0.49848617831E+02  0.49848617831E+02  0.00000000000E+00 0.  1.
        -13    1    1    2    0    0  0.60875723312E+01  0.92652094819E+01 -0.18247500182E+02  0.21351203866E+02  0.00000000000E+00 0.  1.
         13    1    1    2    0    0 -0.60875723312E+01 -0.92652094819E+01 -0.29026756269E+02  0.31071775345E+02  0.00000000000E+00 0. -1.
<mgrwt>
<rscale>  0 0.22656421E+02</rscale>
<asrwt>0</asrwt>
<pdfrwt beam="1">  1        4 0.39605562E-03 0.22656421E+02</pdfrwt>
<pdfrwt beam="2">  1       -4 0.76690178E-02 0.22656421E+02</pdfrwt>
<totfact> 0.88331052E+05</totfact>
</mgrwt>
</event>
<event>
 4    1  0.2126213E+000  0.3650869E+02  0.7546771E-02  0.1535597E+00
          1   -1    0    0  501    0  0.00000000000E+00  0.00000000000E+00  0.36992367396E+02  0.36992367396E+02  0.00000000000E+00 0. -1.
         -1   -1    0    0    0  501 -0.00000000000E+00 -0.00000000000E+00 -0.90078354749E+01  0.90078354749E+01  0.00000000000E+00 0.  1.
        -11    1    1    2    0    0  0.12924289591E+01  0.15916231094E+02  0.25136096912E+02  0.29779525732E+02  0.00000000000E+00 0. -1.
         11    1    1    2    0    0 -0.12924289591E+01 -0.15916231094E+02  0.28484350094E+01  0.16220677139E+02  0.00000000000E+00 0.  1.
<mgrwt>
<rscale>  0 0.36508693E+02</rscale>
<asrwt>0</asrwt>
<pdfrwt beam="1">  1        1 0.56911334E-02 0.36508693E+02</pdfrwt>
<pdfrwt beam="2">  1       -1 0.13858209E-02 0.36508693E+02</pdfrwt>
<totfact> 0.99852546E+05</totfact>
</mgrwt>
</event>
<event>
 4    1  0.2126213E+000  0.7366888E+02  0.7546771E-02  0.1348043E+00
         -2   -1    0    0    0  501 -0.00000000000E+00  0.00000000000E+00  0.93727186624E+01  0.93727186624E+01  0.00000000000E+00 0.  1.
          2   -1    0    0  501    0  0.00000000000E+00 -0.00000000000E+00 -0.14475800085E+03  0.14475800085E+03  0.00000000000E+00 0. -1.
        -13    1    1    2    0    0 -0.27792490715E+02  0.13335163767E+01 -0.11819144961E+03  0.12142248378E+03  0.00000000000E+00 0. -1.
         13    1    1    2    0    0  0.27792490715E+02 -0.13335163767E+01 -0.17193832576E+02  0.32708235732E+02  0.00000000000E+00 0.  1.
<mgrwt>
<rscale>  0 0.73668881E+02</rscale>
<asrwt>0</asrwt>
<pdfrwt beam="2">  1        2 0.22270462E-01 0.73668881E+02</pdfrwt>
<pdfrwt beam="1">  1       -2 0.14419567E-02 0.73668881E+02</pdfrwt>
<totfact> 0.24455548E+05</totfact>
</mgrwt>
</event>
<event>
 4    1  0.2126213E+000  0.2008607E+02  0.7546771E-02  0.1743622E+00
         -1   -1    0    0    0  501 -0.00000000000E+00  0.00000000000E+00  0.16306863498E+02  0.16306863498E+02  0.00000000000E+00 0. -1.
          1   -1    0    0  501    0  0.00000000000E+00 -0.00000000000E+00 -0.61852822557E+01  0.61852822557E+01  0.00000000000E+00 0.  1.
        -13    1    1    2    0    0 -0.98013464712E+01  0.20560526354E+01  0.42162532029E+01  0.10866026696E+02  0.00000000000E+00 0.  1.
         13    1    1    2    0    0  0.98013464712E+01 -0.20560526354E+01  0.59053280390E+01  0.11626119057E+02  0.00000000000E+00 0. -1.
<mgrwt>
<rscale>  0 0.20086070E+02</rscale>
<asrwt>0</asrwt>
<pdfrwt beam="2">  1        1 0.95158189E-03 0.20086070E+02</pdfrwt>
<pdfrwt beam="1">  1       -1 0.25087482E-02 0.20086070E+02</pdfrwt>
<totfact> 0.37455248E+06</totfact>
</mgrwt>
</event>
<event>
 4    1  0.2126213E+000  0.3322669E+02  0.7546771E-02  0.1564936E+00
          4   -1    0    0  501    0  0.00000000000E+00  0.00000000000E+00  0.67409729629E+01  0.67409729629E+01  0.00000000000E+00 0.  1.
         -4   -1    0    0    0  501 -0.00000000000E+00 -0.00000000000E+00 -0.40944115684E+02  0.40944115684E+02  0.00000000000E+00 0. -1.
        -11    1    1    2    0    0 -0.37334562692E+01 -0.10193916137E+02  0.94639081648E+00  0.10897260091E+02  0.00000000000E+00 0.  1.
         11    1    1    2    0    0  0.37334562692E+01  0.10193916137E+02 -0.35149533538E+02  0.36787828556E+02  0.00000000000E+00 0. -1.
<mgrwt>
<rscale>  0 0.33226687E+02</rscale>
<asrwt>0</asrwt>
<pdfrwt beam="1">  1        4 0.10370727E-02 0.33226687E+02</pdfrwt>
<pdfrwt beam="2">  1       -4 0.62990948E-02 0.33226687E+02</pdfrwt>
<totfact> 0.38662079E+05</totfact>
</mgrwt>
</event>
<event>
 4    1  0.2126213E+000  0.2067787E+02  0.7546771E-02  0.1732174E+00
          3   -1    0    0  501    0  0.00000000000E+00  0.00000000000E+00  0.61732372513E+01  0.61732372513E+01  0.00000000000E+00 0. -1.
         -3   -1    0    0    0  501 -0.00000000000E+00 -0.00000000000E+00 -0.17315646160E+02  0.17315646160E+02  0.00000000000E+00 0.  1.
        -11    1    1    2    0    0  0.93425490514E+01  0.36693485352E+01 -0.27550162968E+01  0.10408528054E+02  0.00000000000E+00 0. -1.
         11    1    1    2    0    0 -0.93425490514E+01 -0.36693485352E+01 -0.83873926117E+01  0.13080355357E+02  0.00000000000E+00 0.  1.
<mgrwt>
<rscale>  0 0.20677871E+02</rscale>
<asrwt>0</asrwt>
<pdfrwt beam="1">  1        3 0.94972883E-03 0.20677871E+02</pdfrwt>
<pdfrwt beam="2">  1       -3 0.26639455E-02 0.20677871E+02</pdfrwt>
<totfact> 0.16431526E+06</totfact>
</mgrwt>
</event>
<event>
 4    1  0.2126213E+000  0.2184817E+02  0.7546771E-02  0.1710891E+00
          4   -1    0    0  501    0  0.00000000000E+00  0.00000000000E+00  0.22565185403E+01  0.22565185403E+01  0.00000000000E+00 0. -1.
         -4   -1    0    0    0  501 -0.00000000000E+00 -0.00000000000E+00 -0.52884829469E+02  0.52884829469E+02  0.00000000000E+00 0.  1.
        -13    1    1    2    0    0  0.10633549815E+02 -0.23992050900E+01 -0.23517024083E+02  0.25920628628E+02  0.00000000000E+00 0. -1.
         13    1    1    2    0    0 -0.10633549815E+02  0.23992050900E+01 -0.27111286846E+02  0.29220719382E+02  0.00000000000E+00 0.  1.
<mgrwt>
<rscale>  0 0.21848167E+02</rscale>
<asrwt>0</asrwt>
<pdfrwt beam="1">  1        4 0.34715673E-03 0.21848167E+02</pdfrwt>
<pdfrwt beam="2">  1       -4 0.81361268E-02 0.21848167E+02</pdfrwt>
<totfact> 0.94372062E+05</totfact>
</mgrwt>
</event>
<event>
 4    1  0.2126213E+000  0.2378920E+02  0.7546771E-02  0.1679028E+00
          2   -1    0    0  501    0  0.00000000000E+00  0.00000000000E+00  0.14020807985E+02  0.14020807985E+02  0.00000000000E+00 0.  1.
         -2   -1    0    0    0  501 -0.00000000000E+00 -0.00000000000E+00 -0.10090827229E+02  0.10090827229E+02  0.00000000000E+00 0. -1.
        -13    1    1    2    0    0 -0.99189229769E+01  0.26773842490E+01 -0.41102585713E+01  0.11065606398E+02  0.00000000000E+00 0. -1.
         13    1    1    2    0    0  0.99189229769E+01 -0.26773842490E+01  0.80402393266E+01  0.13046028816E+02  0.00000000000E+00 0.  1.
<mgrwt>
<rscale>  0 0.23789204E+02</rscale>
<asrwt>0</asrwt>
<pdfrwt beam="1">  1        2 0.21570474E-02 0.23789204E+02</pdfrwt>
<pdfrwt beam="2">  1       -2 0.15524350E-02 0.23789204E+02</pdfrwt>
<totfact> 0.27119509E+06</totfact>
</mgrwt>
</event>
<event>
 4    1  0.2126213E+000  0.4065050E+02  0.7546771E-02  0.1503478E+00
         -4   -1    0    0    0  501 -0.00000000000E+00  0.00000000000E+00  0.15260027992E+02  0.15260027992E+02  0.00000000000E+00 0.  1.
          4   -1    0    0  501    0  0.00000000000E+00 -0.00000000000E+00 -0.27071753332E+02  0.27071753332E+02  0.00000000000E+00 0. -1.
        -13    1    1    2    0    0 -0.13641317914E+02  0.98762353950E+01  0.59441558911E+01  0.17859411224E+02  0.00000000000E+00 0.  1.
         13    1    1    2    0    0  0.13641317914E+02 -0.98762353950E+01 -0.17755881231E+02  0.24472370100E+02  0.00000000000E+00 0. -1.
<mgrwt>
<rscale>  0 0.40650496E+02</rscale>
<asrwt>0</asrwt>
<pdfrwt beam="2">  1        4 0.41648851E-02 0.40650496E+02</pdfrwt>
<pdfrwt beam="1">  1       -4 0.23476966E-02 0.40650496E+02</pdfrwt>
<totfact> 0.24507334E+05</totfact>
</mgrwt>
</event>
<event>
 4    1  0.2126213E+000  0.3379365E+02  0.7546771E-02  0.1559582E+00
          2   -1    0    0  501    0  0.00000000000E+00  0.00000000000E+00  0.15773254987E+02  0.15773254987E+02  0.00000000000E+00 0.  1.
         -2   -1    0    0    0  501 -0.00000000000E+00 -0.00000000000E+00 -0.18100426582E+02  0.18100426582E+02  0.00000000000E+00 0. -1.
        -11    1    1    2    0    0 -0.12860500020E+02 -0.21224018109E+01 -0.11941054289E+02  0.17677268674E+02  0.00000000000E+00 0. -1.
         11    1    1    2    0    0  0.12860500020E+02  0.21224018109E+01  0.96138826947E+01  0.16196412895E+02  0.00000000000E+00 0.  1.
<mgrwt>
<rscale>  0 0.33793647E+02</rscale>
<asrwt>0</asrwt>
<pdfrwt beam="1">  1        2 0.24266546E-02 0.33793647E+02</pdfrwt>
<pdfrwt beam="2">  1       -2 0.27846810E-02 0.33793647E+02</pdfrwt>
<totfact> 0.11726787E+06</totfact>
</mgrwt>
</event>
<event>
 4    1  0.2126213E+000  0.2247998E+02  0.7546771E-02  0.1700081E+00
         -2   -1    0    0    0  501 -0.00000000000E+00  0.00000000000E+00  0.13193963017E+02  0.13193963017E+02  0.00000000000E+00 0.  1.
          2   -1    0    0  501    0  0.00000000000E+00 -0.00000000000E+00 -0.95753895775E+01  0.95753895775E+01  0.00000000000E+00 0. -1.
        -11    1    1    2    0    0 -0.10215755875E+02  0.46758402954E+01  0.21485391724E+01  0.11438591309E+02  0.00000000000E+00 0.  1.
         11    1    1    2    0    0  0.10215755875E+02 -0.46758402954E+01  0.14700342675E+01  0.11330761286E+02  0.00000000000E+00 0. -1.
<mgrwt>
<rscale>  0 0.22479977E+02</rscale>
<asrwt>0</asrwt>
<pdfrwt beam="2">  1        2 0.14731369E-02 0.22479977E+02</pdfrwt>
<pdfrwt beam="1">  1       -2 0.20298405E-02 0.22479977E+02</pdfrwt>
<totfact> 0.30003434E+06</totfact>
</mgrwt>
</event>
<event>
 4    1  0.2126213E+000  0.2318771E+02  0.7546771E-02  0.1688485E+00
         -2   -1    0    0    0  501 -0.00000000000E+00  0.00000000000E+00  0.18580744749E+01  0.18580744749E+01  0.00000000000E+00 0.  1.
          2   -1    0    0  501    0  0.00000000000E+00 -0.00000000000E+00 -0.72342328623E+02  0.72342328623E+02  0.00000000000E+00 0. -1.
        -11    1    1    2    0    0  0.50830214765E+01 -0.10420031724E+02 -0.35059256556E+02  0.36926489662E+02  0.00000000000E+00 0.  1.
         11    1    1    2    0    0 -0.50830214765E+01  0.10420031724E+02 -0.35424997592E+02  0.37273913437E+02  0.00000000000E+00 0. -1.
<mgrwt>
<rscale>  0 0.23187707E+02</rscale>
<asrwt>0</asrwt>
<pdfrwt beam="2">  1        2 0.11129586E-01 0.23187707E+02</pdfrwt>
<pdfrwt beam="1">  1       -2 0.28585769E-03 0.23187707E+02</pdfrwt>
<totfact> 0.35381361E+06</totfact>
</mgrwt>
</event>
<event>
 4    1  0.2126213E+000  0.3971799E+02  0.7546771E-02  0.1510297E+00
         -2   -1    0    0    0  501 -0.00000000000E+00  0.00000000000E+00  0.29201228894E+02  0.29201228894E+02  0.00000000000E+00 0. -1.
          2   -1    0    0  501    0  0.00000000000E+00 -0.00000000000E+00 -0.13505584064E+02  0.13505584064E+02  0.00000000000E+00 0.  1.
        -11    1    1    2    0    0  0.10399586439E+01 -0.12759161806E+02 -0.84769523728E+01  0.15353711132E+02  0.00000000000E+00 0.  1.
         11    1    1    2    0    0 -0.10399586439E+01  0.12759161806E+02  0.24172597203E+02  0.27353101826E+02  0.00000000000E+00 0. -1.
<mgrwt>
<rscale>  0 0.39717988E+02</rscale>
<asrwt>0</asrwt>
<pdfrwt beam="2">  1        2 0.20777822E-02 0.39717988E+02</pdfrwt>
<pdfrwt beam="1">  1       -2 0.44924967E-02 0.39717988E+02</pdfrwt>
<totfact> 0.76275017E+05</totfact>
</mgrwt>
</event>
<event>
 4    1  0.2126213E+000  0.2075545E+02  0.7546771E-02  0.1730709E+00
          2   -1    0    0  501    0  0.00000000000E+00  0.00000000000E+00  0.63417846541E+01  0.63417846541E+01  0.00000000000E+00 0.  1.
         -2   -1    0    0    0  501 -0.00000000000E+00 -0.00000000000E+00 -0.16982162620E+02  0.16982162620E+02  0.00000000000E+00 0. -1.
        -13    1    1    2    0    0 -0.34578710823E+01  0.94642861305E+01 -0.25293864643E+01  0.10388810339E+02  0.00000000000E+00 0.  1.
         13    1    1    2    0    0  0.34578710823E+01 -0.94642861305E+01 -0.81109915015E+01  0.12935136935E+02  0.00000000000E+00 0. -1.
<mgrwt>
<rscale>  0 0.20755454E+02</rscale>
<asrwt>0</asrwt>
<pdfrwt beam="1">  1        2 0.97565918E-03 0.20755454E+02</pdfrwt>
<pdfrwt beam="2">  1       -2 0.26126404E-02 0.20755454E+02</pdfrwt>
<totfact> 0.34996930E+06</totfact>
</mgrwt>
</event>
<event>
 4    1  0.2126213E+000  0.2083415E+02  0.7546771E-02  0.1729231E+00
          2   -1    0    0  501    0  0.00000000000E+00  0.00000000000E+00  0.27914023673E+02  0.27914023673E+02  0.00000000000E+00 0.  1.
         -2   -1    0    0    0  501 -0.00000000000E+00 -0.00000000000E+00 -0.38874874049E+01  0.38874874049E+01  0.00000000000E+00 0. -1.
        -11    1    1    2    0    0 -0.74808339834E+01  0.68748548656E+01  0.15523655856E+02  0.18552908064E+02  0.00000000000E+00 0.  1.
         11    1    1    2    0    0  0.74808339834E+01 -0.68748548656E+01  0.85028804127E+01  0.13248603014E+02  0.00000000000E+00 0. -1.
<mgrwt>
<rscale>  0 0.20834147E+02</rscale>
<asrwt>0</asrwt>
<pdfrwt beam="1">  1        2 0.42944650E-02 0.20834147E+02</pdfrwt>
<pdfrwt beam="2">  1       -2 0.59807501E-03 0.20834147E+02</pdfrwt>
<totfact> 0.39250922E+06</totfact>
</mgrwt>
</event>
<event>
 4    1  0.2126213E+000  0.2459080E+02  0.7546771E-02  0.1666950E+00
         -2   -1    0    0    0  501 -0.00000000000E+00  0.00000000000E+00  0.13523515307E+02  0.13523515307E+02  0.00000000000E+00 0. -1.
          2   -1    0    0  501    0  0.00000000000E+00 -0.00000000000E+00 -0.11178810698E+02  0.11178810698E+02  0.00000000000E+00 0.  1.
        -11    1    1    2    0    0 -0.82901428445E+01  0.84217977292E+01 -0.22376973437E+01  0.12027486636E+02  0.00000000000E+00 0.  1.
         11    1    1    2    0    0  0.82901428445E+01 -0.84217977292E+01  0.45824019520E+01  0.12674839369E+02  0.00000000000E+00 0. -1.
<mgrwt>
<rscale>  0 0.24590796E+02</rscale>
<asrwt>0</asrwt>
<pdfrwt beam="2">  1        2 0.17198170E-02 0.24590796E+02</pdfrwt>
<pdfrwt beam="1">  1       -2 0.20805408E-02 0.24590796E+02</pdfrwt>
<totfact> 0.24595814E+06</totfact>
</mgrwt>
</event>
<event>
 4    1  0.2126213E+000  0.7247028E+02  0.7546771E-02  0.1351889E+00
          2   -1    0    0  501    0  0.00000000000E+00  0.00000000000E+00  0.38222703422E+02  0.38222703422E+02  0.00000000000E+00 0. -1.
         -2   -1    0    0    0  501 -0.00000000000E+00 -0.00000000000E+00 -0.34350929387E+02  0.34350929387E+02  0.00000000000E+00 0.  1.
        -13    1    1    2    0    0  0.34522983508E+02  0.83066928303E+01 -0.52957584328E+01  0.35901011037E+02  0.00000000000E+00 0. -1.
         13    1    1    2    0    0 -0.34522983508E+02 -0.83066928303E+01  0.91675324676E+01  0.36672621772E+02  0.00000000000E+00 0.  1.
<mgrwt>
<rscale>  0 0.72470280E+02</rscale>
<asrwt>0</asrwt>
<pdfrwt beam="1">  1        2 0.58804159E-02 0.72470280E+02</pdfrwt>
<pdfrwt beam="2">  1       -2 0.52847584E-02 0.72470280E+02</pdfrwt>
<totfact> 0.18079712E+05</totfact>
</mgrwt>
</event>
<event>
 4    1  0.2126213E+000  0.5555032E+02  0.7546771E-02  0.1417514E+00
         -4   -1    0    0    0  501 -0.00000000000E+00  0.00000000000E+00  0.67431383098E+02  0.67431383098E+02  0.00000000000E+00 0. -1.
          4   -1    0    0  501    0  0.00000000000E+00 -0.00000000000E+00 -0.11440661337E+02  0.11440661337E+02  0.00000000000E+00 0.  1.
        -11    1    1    2    0    0  0.10947602624E+02 -0.24903729142E+02  0.20037481407E+02  0.33786778324E+02  0.00000000000E+00 0.  1.
         11    1    1    2    0    0 -0.10947602624E+02  0.24903729142E+02  0.35953240354E+02  0.45085266112E+02  0.00000000000E+00 0. -1.
<mgrwt>
<rscale>  0 0.55550324E+02</rscale>
<asrwt>0</asrwt>
<pdfrwt beam="2">  1        4 0.17601018E-02 0.55550324E+02</pdfrwt>
<pdfrwt beam="1">  1       -4 0.10374059E-01 0.55550324E+02</pdfrwt>
<totfact> 0.10190329E+05</totfact>
</mgrwt>
</event>
<event>
 4    1  0.2126213E+000  0.7860876E+02  0.7546771E-02  0.1333047E+00
         -4   -1    0    0    0  501 -0.00000000000E+00  0.00000000000E+00  0.86078785184E+02  0.86078785184E+02  0.00000000000E+00 0.  1.
          4   -1    0    0  501    0  0.00000000000E+00 -0.00000000000E+00 -0.17946746532E+02  0.17946746532E+02  0.00000000000E+00 0. -1.
        -11    1    1    2    0    0 -0.36209730766E+01 -0.15356688875E+02 -0.13572021590E+02  0.20811994360E+02  0.00000000000E+00 0. -1.
         11    1    1    2    0    0  0.36209730766E+01  0.15356688875E+02  0.81704060242E+02  0.83213537356E+02  0.00000000000E+00 0.  1.
<mgrwt>
<rscale>  0 0.78608756E+02</rscale>
<asrwt>0</asrwt>
<pdfrwt beam="2">  1        4 0.27610380E-02 0.78608756E+02</pdfrwt>
<pdfrwt beam="1">  1       -4 0.13242890E-01 0.78608756E+02</pdfrwt>
<totfact> 0.38989036E+04</totfact>
</mgrwt>
</event>
<event>
 4    1  0.2126213E+000  0.4851788E+02  0.7546771E-02  0.1453504E+00
         -2   -1    0    0    0  501 -0.00000000000E+00  0.00000000000E+00  0.76061234576E+02  0.76061234576E+02  0.00000000000E+00 0. -1.
          2   -1    0    0  501    0  0.00000000000E+00 -0.00000000000E+00 -0.77371381019E+01  0.77371381019E+01  0.00000000000E+00 0.  1.
        -11    1    1    2    0    0 -0.65793277528E+01  0.16996494436E+02  0.65097221933E+01  0.19353161494E+02  0.00000000000E+00 0.  1.
         11    1    1    2    0    0  0.65793277528E+01 -0.16996494436E+02  0.61814374281E+02  0.64445211184E+02  0.00000000000E+00 0. -1.
<mgrwt>
<rscale>  0 0.48517884E+02</rscale>
<asrwt>0</asrwt>
<pdfrwt beam="2">  1        2 0.11903290E-02 0.48517884E+02</pdfrwt>
<pdfrwt beam="1">  1       -2 0.11701728E-01 0.48517884E+02</pdfrwt>
<totfact> 0.40457249E+05</totfact>
</mgrwt>
</event>
<event>
 4    1  0.2126213E+000  0.2011601E+02  0.7546771E-02  0.1743031E+00
         -1   -1    0    0    0  501 -0.00000000000E+00  0.00000000000E+00  0.90929240736E+02  0.90929240736E+02  0.00000000000E+00 0. -1.
          1   -1    0    0  501    0  0.00000000000E+00 -0.00000000000E+00 -0.11125517321E+01  0.11125517321E+01  0.00000000000E+00 0.  1.
        -11    1    1    2    0    0 -0.89295380603E+01  0.46278488270E+01  0.45362444322E+02  0.46464018224E+02  0.00000000000E+00 0.  1.
         11    1    1    2    0    0  0.89295380603E+01 -0.46278488270E+01  0.44454244683E+02  0.45577774244E+02  0.00000000000E+00 0. -1.
<mgrwt>
<rscale>  0 0.20116012E+02</rscale>
<asrwt>0</asrwt>
<pdfrwt beam="2">  1        1 0.17116188E-03 0.20116012E+02</pdfrwt>
<pdfrwt beam="1">  1       -1 0.13989108E-01 0.20116012E+02</pdfrwt>
<totfact> 0.31957200E+06</totfact>
</mgrwt>
</event>
<event>
 4    1  0.2126213E+000  0.2558392E+02  0.7546771E-02  0.1652754E+00
          4   -1    0    0  501    0  0.00000000000E+00  0.00000000000E+00  0.66570509627E+02  0.66570509627E+02  0.00000000000E+00 0. -1.
         -4   -1    0    0    0  501 -0.00000000000E+00 -0.00000000000E+00 -0.24580589812E+01  0.24580589812E+01  0.00000000000E+00 0.  1.
        -11    1    1    2    0    0 -0.29506958399E-01  0.12655243769E+02  0.37088187944E+02  0.39187877596E+02  0.00000000000E+00 0. -1.
         11    1    1    2    0    0  0.29506958399E-01 -0.12655243769E+02  0.27024262702E+02  0.29840691013E+02  0.00000000000E+00 0.  1.
<mgrwt>
<rscale>  0 0.25583920E+02</rscale>
<asrwt>0</asrwt>
<pdfrwt beam="1">  1        4 0.10241616E-01 0.25583920E+02</pdfrwt>
<pdfrwt beam="2">  1       -4 0.37816297E-03 0.25583920E+02</pdfrwt>
<totfact> 0.64548018E+05</totfact>
</mgrwt>
</event>
<event>
 4    1  0.2126213E+000  0.2628455E+02  0.7546771E-02  0.1643209E+00
          4   -1    0    0  501    0  0.00000000000E+00  0.00000000000E+00  0.26053101985E+02  0.26053101985E+02  0.00000000000E+00 0.  1.
         -4   -1    0    0    0  501 -0.00000000000E+00 -0.00000000000E+00 -0.66295120428E+01  0.66295120428E+01  0.00000000000E+00 0. -1.
        -13    1    1    2    0    0 -0.13060666398E+02  0.12562237864E+01  0.87811016443E+01  0.15788187073E+02  0.00000000000E+00 0.  1.
         13    1    1    2    0    0  0.13060666398E+02 -0.12562237864E+01  0.10642488298E+02  0.16894426955E+02  0.00000000000E+00 0. -1.
<mgrwt>
<rscale>  0 0.26284547E+02</rscale>
<asrwt>0</asrwt>
<pdfrwt beam="1">  1        4 0.40081695E-02 0.26284547E+02</pdfrwt>
<pdfrwt beam="2">  1       -4 0.10199249E-02 0.26284547E+02</pdfrwt>
<totfact> 0.69110274E+05</totfact>
</mgrwt>
</event>
<event>
 4    1  0.2126213E+000  0.3265429E+02  0.7546771E-02  0.1570475E+00
         -2   -1    0    0    0  501 -0.00000000000E+00  0.00000000000E+00  0.46485061658E+01  0.46485061658E+01  0.00000000000E+00 0. -1.
          2   -1    0    0  501    0  0.00000000000E+00 -0.00000000000E+00 -0.57346525759E+02  0.57346525759E+02  0.00000000000E+00 0.  1.
        -11    1    1    2    0    0 -0.11623609475E+02  0.11411138766E+02 -0.24223598394E+02  0.29190839390E+02  0.00000000000E+00 0.  1.
         11    1    1    2    0    0  0.11623609475E+02 -0.11411138766E+02 -0.28474421200E+02  0.32804192535E+02  0.00000000000E+00 0. -1.
<mgrwt>
<rscale>  0 0.32654291E+02</rscale>
<asrwt>0</asrwt>
<pdfrwt beam="2">  1        2 0.88225420E-02 0.32654291E+02</pdfrwt>
<pdfrwt beam="1">  1       -2 0.71515483E-03 0.32654291E+02</pdfrwt>
<totfact> 0.15193297E+06</totfact>
</mgrwt>
</event>
<event>
 4    1  0.2126213E+000  0.3570836E+02  0.7546771E-02  0.1542399E+00
          2   -1    0    0  501    0  0.00000000000E+00  0.00000000000E+00  0.82119034577E+01  0.82119034577E+01  0.00000000000E+00 0. -1.
         -2   -1    0    0    0  501 -0.00000000000E+00 -0.00000000000E+00 -0.38818242593E+02  0.38818242593E+02  0.00000000000E+00 0.  1.
        -11    1    1    2    0    0  0.16981408821E+00 -0.17744880597E+02 -0.17891469833E+02  0.25199490412E+02  0.00000000000E+00 0.  1.
         11    1    1    2    0    0 -0.16981408821E+00  0.17744880597E+02 -0.12714869302E+02  0.21830655639E+02  0.00000000000E+00 0. -1.
<mgrwt>
<rscale>  0 0.35708355E+02</rscale>
<asrwt>0</asrwt>
<pdfrwt beam="1">  1        2 0.12633698E-02 0.35708355E+02</pdfrwt>
<pdfrwt beam="2">  1       -2 0.59720373E-02 0.35708355E+02</pdfrwt>
<totfact> 0.94156248E+05</totfact>
</mgrwt>
</event>
<event>
 4    1  0.2126213E+000  0.2837588E+02  0.7546771E-02  0.1616768E+00
          1   -1    0    0  501    0  0.00000000000E+00  0.00000000000E+00  0.22285299370E+02  0.22285299370E+02  0.00000000000E+00 0.  1.
         -1   -1    0    0    0  501 -0.00000000000E+00 -0.00000000000E+00 -0.90327548796E+01  0.90327548796E+01  0.00000000000E+00 0. -1.
        -13    1    1    2    0    0  0.22673015814E+01 -0.12254220516E+02  0.14111106420E+02  0.18826308754E+02  0.00000000000E+00 0.  1.
         13    1    1    2    0    0 -0.22673015814E+01  0.12254220516E+02 -0.85856192959E+00  0.12491745495E+02  0.00000000000E+00 0. -1.
<mgrwt>
<rscale>  0 0.28375880E+02</rscale>
<asrwt>0</asrwt>
<pdfrwt beam="1">  1        1 0.34285076E-02 0.28375880E+02</pdfrwt>
<pdfrwt beam="2">  1       -1 0.13896546E-02 0.28375880E+02</pdfrwt>
<totfact> 0.17773262E+06</totfact>
</mgrwt>
</event>
<event>
 4    1  0.2126213E+000  0.2493830E+02  0.7546771E-02  0.1661890E+00
          2   -1    0    0  501    0  0.00000000000E+00  0.00000000000E+00  0.29384710183E+02  0.29384710183E+02  0.00000000000E+00 0. -1.
         -2   -1    0    0    0  501 -0.00000000000E+00 -0.00000000000E+00 -0.52911757696E+01  0.52911757696E+01  0.00000000000E+00 0.  1.
        -13    1    1    2    0    0 -0.75986616937E+01 -0.98827056908E+01  0.12420218899E+02  0.17597425062E+02  0.00000000000E+00 0. -1.
         13    1    1    2    0    0  0.75986616937E+01  0.98827056908E+01  0.11673315515E+02  0.17078460891E+02  0.00000000000E+00 0.  1.
<mgrwt>
<rscale>  0 0.24938297E+02</rscale>
<asrwt>0</asrwt>
<pdfrwt beam="1">  1        2 0.45207246E-02 0.24938297E+02</pdfrwt>
<pdfrwt beam="2">  1       -2 0.81402706E-03 0.24938297E+02</pdfrwt>
<totfact> 0.26118700E+06</totfact>
</mgrwt>
</event>
<event>
 4    1  0.2126213E+000  0.2237897E+02  0.7546771E-02  0.1701779E+00
         -2   -1    0    0    0  501 -0.00000000000E+00  0.00000000000E+00  0.36072045732E+02  0.36072045732E+02  0.00000000000E+00 0.  1.
          2   -1    0    0  501    0  0.00000000000E+00 -0.00000000000E+00 -0.34709580902E+01  0.34709580902E+01  0.00000000000E+00 0. -1.
        -13    1    1    2    0    0  0.65644502233E+01 -0.83440814370E+01  0.10056140592E+02  0.14623326070E+02  0.00000000000E+00 0. -1.
         13    1    1    2    0    0 -0.65644502233E+01  0.83440814370E+01  0.22544947050E+02  0.24919677752E+02  0.00000000000E+00 0.  1.
<mgrwt>
<rscale>  0 0.22378969E+02</rscale>
<asrwt>0</asrwt>
<pdfrwt beam="2">  1        2 0.53399358E-03 0.22378969E+02</pdfrwt>
<pdfrwt beam="1">  1       -2 0.55495452E-02 0.22378969E+02</pdfrwt>
<totfact> 0.27598415E+06</totfact>
</mgrwt>
</event>
<event>
 4    1  0.2126213E+000  0.4709222E+02  0.7546771E-02  0.1461688E+00
          4   -1    0    0  501    0  0.00000000000E+00  0.00000000000E+00  0.11149138905E+02  0.11149138905E+02  0.00000000000E+00 0. -1.
         -4   -1    0    0    0  501 -0.00000000000E+00 -0.00000000000E+00 -0.49727552630E+02  0.49727552630E+02  0.00000000000E+00 0.  1.
        -11    1    1    2    0    0 -0.31763885777E+01  0.97249159432E+01  0.81259226809E+01  0.13064993452E+02  0.00000000000E+00 0. -1.
         11    1    1    2    0    0  0.31763885777E+01 -0.97249159432E+01 -0.46704336406E+02  0.47811698083E+02  0.00000000000E+00 0.  1.
<mgrwt>
<rscale>  0 0.47092224E+02</rscale>
<asrwt>0</asrwt>
<pdfrwt beam="1">  1        4 0.17152522E-02 0.47092224E+02</pdfrwt>
<pdfrwt beam="2">  1       -4 0.76503926E-02 0.47092224E+02</pdfrwt>
<totfact> 0.16171559E+05</totfact>
</mgrwt>
</event>
<event>
 4    1  0.2126213E+000  0.2355905E+02  0.7546771E-02  0.1682605E+00
          2   -1    0    0  501    0  0.00000000000E+00  0.00000000000E+00  0.96780067904E+02  0.96780067904E+02  0.00000000000E+00 0.  1.
         -2   -1    0    0    0  501 -0.00000000000E+00 -0.00000000000E+00 -0.14337374375E+01  0.14337374375E+01  0.00000000000E+00 0. -1.
        -11    1    1    2    0    0  0.96894141669E+01 -0.64419761939E+01  0.40016338110E+02  0.41673626191E+02  0.00000000000E+00 0. -1.
         11    1    1    2    0    0 -0.96894141669E+01  0.64419761939E+01  0.55329992356E+02  0.56540179150E+02  0.00000000000E+00 0.  1.
<mgrwt>
<rscale>  0 0.23559050E+02</rscale>
<asrwt>0</asrwt>
<pdfrwt beam="1">  1        2 0.14889236E-01 0.23559050E+02</pdfrwt>
<pdfrwt beam="2">  1       -2 0.22057507E-03 0.23559050E+02</pdfrwt>
<totfact> 0.36289804E+06</totfact>
</mgrwt>
</event>
<event>
 4    1  0.2126213E+000  0.2614949E+02  0.7546771E-02  0.1645020E+00
         -2   -1    0    0    0  501 -0.00000000000E+00  0.00000000000E+00  0.33949480007E+02  0.33949480007E+02  0.00000000000E+00 0.  1.
          2   -1    0    0  501    0  0.00000000000E+00 -0.00000000000E+00 -0.50353928243E+01  0.50353928243E+01  0.00000000000E+00 0. -1.
        -11    1    1    2    0    0  0.94987411303E+00 -0.11580613519E+02  0.55199080958E+01  0.12863990659E+02  0.00000000000E+00 0. -1.
         11    1    1    2    0    0 -0.94987411303E+00  0.11580613519E+02  0.23394179087E+02  0.26120882172E+02  0.00000000000E+00 0.  1.
<mgrwt>
<rscale>  0 0.26149491E+02</rscale>
<asrwt>0</asrwt>
<pdfrwt beam="2">  1        2 0.77467584E-03 0.26149491E+02</pdfrwt>
<pdfrwt beam="1">  1       -2 0.52229968E-02 0.26149491E+02</pdfrwt>
<totfact> 0.19605631E+06</totfact>
</mgrwt>
</event>
<event>
 4    1  0.2126213E+000  0.2656655E+02  0.7546771E-02  0.1639470E+00
          2   -1    0    0  501    0  0.00000000000E+00  0.00000000000E+00  0.27612178484E+02  0.27612178484E+02  0.00000000000E+00 0. -1.
         -2   -1    0    0    0  501 -0.00000000000E+00 -0.00000000000E+00 -0.63901272669E+01  0.63901272669E+01  0.00000000000E+00 0.  1.
        -11    1    1    2    0    0 -0.11753373119E+01 -0.12976542321E+02  0.73047236997E+01  0.14937571983E+02  0.00000000000E+00 0. -1.
         11    1    1    2    0    0  0.11753373119E+01  0.12976542321E+02  0.13917327517E+02  0.19064733768E+02  0.00000000000E+00 0.  1.
<mgrwt>
<rscale>  0 0.26566545E+02</rscale>
<asrwt>0</asrwt>
<pdfrwt beam="1">  1        2 0.42480274E-02 0.26566545E+02</pdfrwt>
<pdfrwt beam="2">  1       -2 0.98309651E-03 0.26566545E+02</pdfrwt>
<totfact> 0.22355152E+06</totfact>
</mgrwt>
</event>
<event>
 4    1  0.2126213E+000  0.2380179E+02  0.7546771E-02  0.1678834E+00
          1   -1    0    0  501    0  0.00000000000E+00  0.00000000000E+00  0.11353654402E+02  0.11353654402E+02  0.00000000000E+00 0.  1.
         -1   -1    0    0    0  501 -0.00000000000E+00 -0.00000000000E+00 -0.12474515433E+02  0.12474515433E+02  0.00000000000E+00 0. -1.
        -13    1    1    2    0    0 -0.29759114177E+01  0.95681632838E+01 -0.69882576461E+01  0.12216445568E+02  0.00000000000E+00 0. -1.
         13    1    1    2    0    0  0.29759114177E+01 -0.95681632838E+01  0.58673966154E+01  0.11611724266E+02  0.00000000000E+00 0.  1.
<mgrwt>
<rscale>  0 0.23801793E+02</rscale>
<asrwt>0</asrwt>
<pdfrwt beam="1">  1        1 0.17467161E-02 0.23801793E+02</pdfrwt>
<pdfrwt beam="2">  1       -1 0.19191562E-02 0.23801793E+02</pdfrwt>
<totfact> 0.26012068E+06</totfact>
</mgrwt>
</event>
<event>
 4    1  0.2126213E+000  0.3106779E+02  0.7546771E-02  0.1586577E+00
          4   -1    0    0  501    0  0.00000000000E+00  0.00000000000E+00  0.15229121296E+02  0.15229121296E+02  0.00000000000E+00 0.  1.
         -4   -1    0    0    0  501 -0.00000000000E+00 -0.00000000000E+00 -0.15844764617E+02  0.15844764617E+02  0.00000000000E+00 0. -1.
        -11    1    1    2    0    0 -0.12143604346E+02  0.82782406922E+01  0.47236178664E+01  0.15437258864E+02  0.00000000000E+00 0. -1.
         11    1    1    2    0    0  0.12143604346E+02 -0.82782406922E+01 -0.53392611875E+01  0.15636627050E+02  0.00000000000E+00 0.  1.
<mgrwt>
<rscale>  0 0.31067787E+02</rscale>
<asrwt>0</asrwt>
<pdfrwt beam="1">  1        4 0.23429417E-02 0.31067787E+02</pdfrwt>
<pdfrwt beam="2">  1       -4 0.24376561E-02 0.31067787E+02</pdfrwt>
<totfact> 0.47856587E+05</totfact>
</mgrwt>
</event>
<event>
 4    1  0.2126213E+000  0.2372142E+02  0.7546771E-02  0.1680076E+00
          1   -1    0    0  501    0  0.00000000000E+00  0.00000000000E+00  0.22357919080E+01  0.22357919080E+01  0.00000000000E+00 0. -1.
         -1   -1    0    0    0  501 -0.00000000000E+00 -0.00000000000E+00 -0.62920170853E+02  0.62920170853E+02  0.00000000000E+00 0.  1.
        -13    1    1    2    0    0  0.10069484030E+02 -0.20782758302E+01 -0.14101074963E+02  0.17451477134E+02  0.00000000000E+00 0. -1.
         13    1    1    2    0    0 -0.10069484030E+02  0.20782758302E+01 -0.46583303982E+02  0.47704485626E+02  0.00000000000E+00 0.  1.
<mgrwt>
<rscale>  0 0.23721417E+02</rscale>
<asrwt>0</asrwt>
<pdfrwt beam="1">  1        1 0.34396804E-03 0.23721417E+02</pdfrwt>
<pdfrwt beam="2">  1       -1 0.96800248E-02 0.23721417E+02</pdfrwt>
<totfact> 0.23281108E+06</totfact>
</mgrwt>
</event>
<event>
 4    1  0.2126213E+000  0.2152080E+02  0.7546771E-02  0.1716674E+00
         -4   -1    0    0    0  501 -0.00000000000E+00  0.00000000000E+00  0.42104842907E+02  0.42104842907E+02  0.00000000000E+00 0.  1.
          4   -1    0    0  501    0  0.00000000000E+00 -0.00000000000E+00 -0.27499501481E+01  0.27499501481E+01  0.00000000000E+00 0. -1.
        -13    1    1    2    0    0 -0.93013721662E+01  0.38064430137E+01  0.27690765118E+02  0.29458156857E+02  0.00000000000E+00 0.  1.
         13    1    1    2    0    0  0.93013721662E+01 -0.38064430137E+01  0.11664127641E+02  0.15396636198E+02  0.00000000000E+00 0. -1.
<mgrwt>
<rscale>  0 0.21520801E+02</rscale>
<asrwt>0</asrwt>
<pdfrwt beam="2">  1        4 0.42306928E-03 0.21520801E+02</pdfrwt>
<pdfrwt beam="1">  1       -4 0.64776677E-02 0.21520801E+02</pdfrwt>
<totfact> 0.10104611E+06</totfact>
</mgrwt>
</event>
<event>
 4    1  0.2126213E+000  0.3238253E+02  0.7546771E-02  0.1573154E+00
         -2   -1    0    0    0  501 -0.00000000000E+00  0.00000000000E+00  0.21941173273E+01  0.21941173273E+01  0.00000000000E+00 0.  1.
          2   -1    0    0  501    0  0.00000000000E+00 -0.00000000000E+00 -0.11948175755E+03  0.11948175755E+03  0.00000000000E+00 0. -1.
        -13    1    1    2    0    0  0.86781646674E+01  0.13425367199E+02 -0.48986380659E+02  0.51528793081E+02  0.00000000000E+00 0. -1.
         13    1    1    2    0    0 -0.86781646674E+01 -0.13425367199E+02 -0.68301259564E+02  0.70147081796E+02  0.00000000000E+00 0.  1.
<mgrwt>
<rscale>  0 0.32382526E+02</rscale>
<asrwt>0</asrwt>
<pdfrwt beam="2">  1        2 0.18381808E-01 0.32382526E+02</pdfrwt>
<pdfrwt beam="1">  1       -2 0.33755652E-03 0.32382526E+02</pdfrwt>
<totfact> 0.18233094E+06</totfact>
</mgrwt>
</event>
<event>
 4    1  0.2126213E+000  0.2049402E+02  0.7546771E-02  0.1735679E+00
         -4   -1    0    0    0  501 -0.00000000000E+00  0.00000000000E+00  0.58685266084E+02  0.58685266084E+02  0.00000000000E+00 0. -1.
          4   -1    0    0  501    0  0.00000000000E+00 -0.00000000000E+00 -0.17892255668E+01  0.17892255668E+01  0.00000000000E+00 0.  1.
        -13    1    1    2    0    0  0.98185062382E+01  0.20542280485E+01  0.22273603213E+02  0.24428186951E+02  0.00000000000E+00 0.  1.
         13    1    1    2    0    0 -0.98185062382E+01 -0.20542280485E+01  0.34622437305E+02  0.36046304700E+02  0.00000000000E+00 0. -1.
<mgrwt>
<rscale>  0 0.20494017E+02</rscale>
<asrwt>0</asrwt>
<pdfrwt beam="2">  1        4 0.27526552E-03 0.20494017E+02</pdfrwt>
<pdfrwt beam="1">  1       -4 0.90285010E-02 0.20494017E+02</pdfrwt>
<totfact> 0.10565969E+06</totfact>
</mgrwt>
</event>
<event>
 4    1  0.2126213E+000  0.2413339E+02  0.7546771E-02  0.1673771E+00
          1   -1    0    0  501    0  0.00000000000E+00  0.00000000000E+00  0.17430289293E+02  0.17430289293E+02  0.00000000000E+00 0. -1.
         -1   -1    0    0    0  501 -0.00000000000E+00 -0.00000000000E+00 -0.83535679678E+01  0.83535679678E+01  0.00000000000E+00 0.  1.
        -13    1    1    2    0    0 -0.66031153782E+01  0.10099694998E+02  0.45507536300E+01  0.12896291341E+02  0.00000000000E+00 0. -1.
         13    1    1    2    0    0  0.66031153782E+01 -0.10099694998E+02  0.45259676950E+01  0.12887565919E+02  0.00000000000E+00 0.  1.
<mgrwt>
<rscale>  0 0.24133388E+02</rscale>
<asrwt>0</asrwt>
<pdfrwt beam="1">  1        1 0.26815830E-02 0.24133388E+02</pdfrwt>
<pdfrwt beam="2">  1       -1 0.12851643E-02 0.24133388E+02</pdfrwt>
<totfact> 0.25693299E+06</totfact>
</mgrwt>
</event>
<event>
 4    1  0.2126213E+000  0.3592994E+02  0.7546771E-02  0.1540494E+00
          2   -1    0    0  501    0  0.00000000000E+00  0.00000000000E+00  0.69787403084E+01  0.69787403084E+01  0.00000000000E+00 0.  1.
         -2   -1    0    0    0  501 -0.00000000000E+00 -0.00000000000E+00 -0.46246177571E+02  0.46246177571E+02  0.00000000000E+00 0. -1.
        -11    1    1    2    0    0 -0.11997620829E+02 -0.38187931342E+01 -0.38616665134E+02  0.40617396675E+02  0.00000000000E+00 0. -1.
         11    1    1    2    0    0  0.11997620829E+02  0.38187931342E+01 -0.65077212798E+00  0.12607521204E+02  0.00000000000E+00 0.  1.
<mgrwt>
<rscale>  0 0.35929935E+02</rscale>
<asrwt>0</asrwt>
<pdfrwt beam="1">  1        2 0.10736524E-02 0.35929935E+02</pdfrwt>
<pdfrwt beam="2">  1       -2 0.71147965E-02 0.35929935E+02</pdfrwt>
<totfact> 0.90507618E+05</totfact>
</mgrwt>
</event>
<event>
 4    1  0.2126213E+000  0.6497923E+02  0.7546771E-02  0.1378050E+00
         -2   -1    0    0    0  501 -0.00000000000E+00  0.00000000000E+00  0.27694453720E+02  0.27694453720E+02  0.00000000000E+00 0.  1.
          2   -1    0    0  501    0  0.00000000000E+00 -0.00000000000E+00 -0.38115034823E+02  0.38115034823E+02  0.00000000000E+00 0. -1.
        -13    1    1    2    0    0  0.15550344808E+02 -0.23177845265E+02 -0.22052546609E+02  0.35571625584E+02  0.00000000000E+00 0. -1.
         13    1    1    2    0    0 -0.15550344808E+02  0.23177845265E+02  0.11631965505E+02  0.30237862958E+02  0.00000000000E+00 0.  1.
<mgrwt>
<rscale>  0 0.64979230E+02</rscale>
<asrwt>0</asrwt>
<pdfrwt beam="2">  1        2 0.58638515E-02 0.64979230E+02</pdfrwt>
<pdfrwt beam="1">  1       -2 0.42606852E-02 0.64979230E+02</pdfrwt>
<totfact> 0.24371492E+05</totfact>
</mgrwt>
</event>
<event>
 4    1  0.2126213E+000  0.2284519E+02  0.7546771E-02  0.1694032E+00
          2   -1    0    0  501    0  0.00000000000E+00  0.00000000000E+00  0.19801965090E+01  0.19801965090E+01  0.00000000000E+00 0.  1.
         -2   -1    0    0    0  501 -0.00000000000E+00 -0.00000000000E+00 -0.65890258770E+02  0.65890258770E+02  0.00000000000E+00 0. -1.
        -11    1    1    2    0    0 -0.70114462740E+01  0.90173416451E+01 -0.31796953310E+02  0.33786374013E+02  0.00000000000E+00 0.  1.
         11    1    1    2    0    0  0.70114462740E+01 -0.90173416451E+01 -0.32113108951E+02  0.34084081265E+02  0.00000000000E+00 0. -1.
<mgrwt>
<rscale>  0 0.22845189E+02</rscale>
<asrwt>0</asrwt>
<pdfrwt beam="1">  1        2 0.30464563E-03 0.22845189E+02</pdfrwt>
<pdfrwt beam="2">  1       -2 0.10136962E-01 0.22845189E+02</pdfrwt>
<totfact> 0.24178279E+06</totfact>
</mgrwt>
</event>
<event>
 4    1  0.2126213E+000  0.2604434E+02  0.7546771E-02  0.1646439E+00
          1   -1    0    0  501    0  0.00000000000E+00  0.00000000000E+00  0.17507962117E+02  0.17507962117E+02  0.00000000000E+00 0. -1.
         -1   -1    0    0    0  501 -0.00000000000E+00 -0.00000000000E+00 -0.96857059739E+01  0.96857059739E+01  0.00000000000E+00 0.  1.
        -11    1    1    2    0    0 -0.12839984602E+02  0.80851826623E+00  0.18077663907E+01  0.12991802250E+02  0.00000000000E+00 0.  1.
         11    1    1    2    0    0  0.12839984602E+02 -0.80851826623E+00  0.60144897522E+01  0.14201865841E+02  0.00000000000E+00 0. -1.
<mgrwt>
<rscale>  0 0.26044345E+02</rscale>
<asrwt>0</asrwt>
<pdfrwt beam="1">  1        1 0.26935326E-02 0.26044345E+02</pdfrwt>
<pdfrwt beam="2">  1       -1 0.14901086E-02 0.26044345E+02</pdfrwt>
<totfact> 0.21499357E+06</totfact>
</mgrwt>
</event>
<event>
 4    1  0.2126213E+000  0.3594261E+02  0.7546771E-02  0.1540386E+00
          1   -1    0    0  501    0  0.00000000000E+00  0.00000000000E+00  0.52890200363E+01  0.52890200363E+01  0.00000000000E+00 0. -1.
         -1   -1    0    0    0  501 -0.00000000000E+00 -0.00000000000E+00 -0.61063838157E+02  0.61063838157E+02  0.00000000000E+00 0.  1.
        -13    1    1    2    0    0 -0.23081005679E+01 -0.14379823259E+02 -0.84499358554E+01  0.16837697620E+02  0.00000000000E+00 0. -1.
         13    1    1    2    0    0  0.23081005679E+01  0.14379823259E+02 -0.47324882266E+02  0.49515160574E+02  0.00000000000E+00 0.  1.
<mgrwt>
<rscale>  0 0.35942613E+02</rscale>
<asrwt>0</asrwt>
<pdfrwt beam="1">  1        1 0.81369544E-03 0.35942613E+02</pdfrwt>
<pdfrwt beam="2">  1       -1 0.93944361E-02 0.35942613E+02</pdfrwt>
<totfact> 0.88939056E+05</totfact>
</mgrwt>
</event>
<event>
 4    1  0.2126213E+000  0.2593511E+02  0.7546771E-02  0.1647923E+00
         -4   -1    0    0    0  501 -0.00000000000E+00  0.00000000000E+00  0.27860270812E+01  0.27860270812E+01  0.00000000000E+00 0. -1.
          4   -1    0    0  501    0  0.00000000000E+00 -0.00000000000E+00 -0.60357424896E+02  0.60357424896E+02  0.00000000000E+00 0.  1.
        -11    1    1    2    0    0  0.10056058621E+02  0.80598799515E+01 -0.25281598532E+02  0.28376842744E+02  0.00000000000E+00 0.  1.
         11    1    1    2    0    0 -0.10056058621E+02 -0.80598799515E+01 -0.32289799284E+02  0.34766609233E+02  0.00000000000E+00 0. -1.
<mgrwt>
<rscale>  0 0.25935105E+02</rscale>
<asrwt>0</asrwt>
<pdfrwt beam="2">  1        4 0.92857572E-02 0.25935105E+02</pdfrwt>
<pdfrwt beam="1">  1       -4 0.42861957E-03 0.25935105E+02</pdfrwt>
<totfact> 0.63873013E+05</totfact>
</mgrwt>
</event>
<event>
 4    1  0.2126213E+000  0.3006375E+02  0.7546771E-02  0.1597385E+00
         -4   -1    0    0    0  501 -0.00000000000E+00  0.00000000000E+00  0.59009664545E+01  0.59009664545E+01  0.00000000000E+00 0. -1.
          4   -1    0    0  501    0  0.00000000000E+00 -0.00000000000E+00 -0.38291572442E+02  0.38291572442E+02  0.00000000000E+00 0.  1.
        -13    1    1    2    0    0  0.84298246313E+01 -0.11494015227E+02 -0.91789600044E+01  0.16953690929E+02  0.00000000000E+00 0. -1.
         13    1    1    2    0    0 -0.84298246313E+01  0.11494015227E+02 -0.23211645983E+02  0.27238847967E+02  0.00000000000E+00 0.  1.
<mgrwt>
<rscale>  0 0.30063751E+02</rscale>
<asrwt>0</asrwt>
<pdfrwt beam="2">  1        4 0.58910111E-02 0.30063751E+02</pdfrwt>
<pdfrwt beam="1">  1       -4 0.90784100E-03 0.30063751E+02</pdfrwt>
<totfact> 0.49148078E+05</totfact>
</mgrwt>
</event>
<event>
 4    1  0.2126213E+000  0.3469427E+02  0.7546771E-02  0.1551332E+00
          1   -1    0    0  501    0  0.00000000000E+00  0.00000000000E+00  0.11494893208E+02  0.11494893208E+02  0.00000000000E+00 0.  1.
         -1   -1    0    0    0  501 -0.00000000000E+00 -0.00000000000E+00 -0.26178848600E+02  0.26178848600E+02  0.00000000000E+00 0. -1.
        -13    1    1    2    0    0 -0.13834884971E+02  0.70536227853E+01 -0.15736694568E+02  0.22108848737E+02  0.00000000000E+00 0. -1.
         13    1    1    2    0    0  0.13834884971E+02 -0.70536227853E+01  0.10527391754E+01  0.15564893071E+02  0.00000000000E+00 0.  1.
<mgrwt>
<rscale>  0 0.34694269E+02</rscale>
<asrwt>0</asrwt>
<pdfrwt beam="1">  1        1 0.17684451E-02 0.34694269E+02</pdfrwt>
<pdfrwt beam="2">  1       -1 0.40275151E-02 0.34694269E+02</pdfrwt>
<totfact> 0.10454557E+06</totfact>
</mgrwt>
</event>
<event>
 4    1  0.2126213E+000  0.5642653E+02  0.7546771E-02  0.1413471E+00
         -4   -1    0    0    0  501 -0.00000000000E+00  0.00000000000E+00  0.14072399807E+02  0.14072399807E+02  0.00000000000E+00 0. -1.
          4   -1    0    0  501    0  0.00000000000E+00 -0.00000000000E+00 -0.56563791252E+02  0.56563791252E+02  0.00000000000E+00 0.  1.
        -13    1    1    2    0    0  0.83463942869E+01 -0.85949709958E+01 -0.53221271664E+02  0.54553089569E+02  0.00000000000E+00 0.  1.
         13    1    1    2    0    0 -0.83463942869E+01  0.85949709958E+01  0.10729880220E+02  0.16083101490E+02  0.00000000000E+00 0. -1.
<mgrwt>
<rscale>  0 0.56426529E+02</rscale>
<asrwt>0</asrwt>
<pdfrwt beam="2">  1        4 0.87021215E-02 0.56426529E+02</pdfrwt>
<pdfrwt beam="1">  1       -4 0.21649846E-02 0.56426529E+02</pdfrwt>
<totfact> 0.10020597E+05</totfact>
</mgrwt>
</event>
<event>
 4    1  0.2126213E+000  0.3908559E+02  0.7546771E-02  0.1515050E+00
          1   -1    0    0  501    0  0.00000000000E+00  0.00000000000E+00  0.26509986782E+02  0.26509986782E+02  0.00000000000E+00 0. -1.
         -1   -1    0    0    0  501 -0.00000000000E+00 -0.00000000000E+00 -0.14406678248E+02  0.14406678248E+02  0.00000000000E+00 0.  1.
        -11    1    1    2    0    0  0.12156345822E+02  0.14074515902E+02 -0.23397674184E+00  0.18599018435E+02  0.00000000000E+00 0. -1.
         11    1    1    2    0    0 -0.12156345822E+02 -0.14074515902E+02  0.12337285276E+02  0.22317646596E+02  0.00000000000E+00 0.  1.
<mgrwt>
<rscale>  0 0.39085591E+02</rscale>
<asrwt>0</asrwt>
<pdfrwt beam="1">  1        1 0.40784595E-02 0.39085591E+02</pdfrwt>
<pdfrwt beam="2">  1       -1 0.22164120E-02 0.39085591E+02</pdfrwt>
<totfact> 0.82308046E+05</totfact>
</mgrwt>
</event>
<event>
 4    1  0.2126213E+000  0.2936361E+02  0.7546771E-02  0.1605231E+00
          2   -1    0    0  501    0  0.00000000000E+00  0.00000000000E+00  0.91236250538E+01  0.91236250538E+01  0.00000000000E+00 0.  1.
         -2   -1    0    0    0  501 -0.00000000000E+00 -0.00000000000E+00 -0.23626077201E+02  0.23626077201E+02  0.00000000000E+00 0. -1.
        -11    1    1    2    0    0  0.68215695104E+01  0.76514198008E+01 -0.18974114356E+02  0.21566062486E+02  0.00000000000E+00 0. -1.
         11    1    1    2    0    0 -0.68215695104E+01 -0.76514198008E+01  0.44716622093E+01  0.11183639768E+02  0.00000000000E+00 0.  1.
<mgrwt>
<rscale>  0 0.29363615E+02</rscale>
<asrwt>0</asrwt>
<pdfrwt beam="1">  1        2 0.14036347E-02 0.29363615E+02</pdfrwt>
<pdfrwt beam="2">  1       -2 0.36347810E-02 0.29363615E+02</pdfrwt>
<totfact> 0.15685069E+06</totfact>
</mgrwt>
</event>
<event>
 4    1  0.2126213E+000  0.3872026E+02  0.7546771E-02  0.1517846E+00
         -1   -1    0    0    0  501 -0.00000000000E+00  0.00000000000E+00  0.41943975249E+01  0.41943975249E+01  0.00000000000E+00 0.  1.
          1   -1    0    0  501    0  0.00000000000E+00 -0.00000000000E+00 -0.89360789506E+02  0.89360789506E+02  0.00000000000E+00 0. -1.
        -11    1    1    2    0    0 -0.40013579692E+01  0.14806822269E+02 -0.71127068949E+02  0.72762028480E+02  0.00000000000E+00 0. -1.
         11    1    1    2    0    0  0.40013579692E+01 -0.14806822269E+02 -0.14039323032E+02  0.20793158550E+02  0.00000000000E+00 0.  1.
<mgrwt>
<rscale>  0 0.38720262E+02</rscale>
<asrwt>0</asrwt>
<pdfrwt beam="2">  1        1 0.13747814E-01 0.38720262E+02</pdfrwt>
<pdfrwt beam="1">  1       -1 0.64529192E-03 0.38720262E+02</pdfrwt>
<totfact> 0.93964530E+05</totfact>
</mgrwt>
</event>
<event>
 4    1  0.2126213E+000  0.2398584E+02  0.7546771E-02  0.1676011E+00
          4   -1    0    0  501    0  0.00000000000E+00  0.00000000000E+00  0.61249661931E+01  0.61249661931E+01  0.00000000000E+00 0. -1.
         -4   -1    0    0    0  501 -0.00000000000E+00 -0.00000000000E+00 -0.23482609270E+02  0.23482609270E+02  0.00000000000E+00 0.  1.
        -11    1    1    2    0    0  0.89998087640E+01 -0.77248626818E+01 -0.10873142088E+02  0.16090223122E+02  0.00000000000E+00 0. -1.
         11    1    1    2    0    0 -0.89998087640E+01  0.77248626818E+01 -0.64845009886E+01  0.13517352341E+02  0.00000000000E+00 0.  1.
<mgrwt>
<rscale>  0 0.23985845E+02</rscale>
<asrwt>0</asrwt>
<pdfrwt beam="1">  1        4 0.94230248E-03 0.23985845E+02</pdfrwt>
<pdfrwt beam="2">  1       -4 0.36127092E-02 0.23985845E+02</pdfrwt>
<totfact> 0.85320842E+05</totfact>
</mgrwt>
</event>
<event>
 4    1  0.2126213E+000  0.2071951E+02  0.7546771E-02  0.1731387E+00
          4   -1    0    0  501    0  0.00000000000E+00  0.00000000000E+00  0.16801231321E+01  0.16801231321E+01  0.00000000000E+00 0.  1.
         -4   -1    0    0    0  501 -0.00000000000E+00 -0.00000000000E+00 -0.63878986653E+02  0.63878986653E+02  0.00000000000E+00 0. -1.
        -13    1    1    2    0    0 -0.83749008149E+01  0.60979978950E+01 -0.31113980232E+02  0.32793357679E+02  0.00000000000E+00 0. -1.
         13    1    1    2    0    0  0.83749008149E+01 -0.60979978950E+01 -0.31084883289E+02  0.32765752106E+02  0.00000000000E+00 0.  1.
<mgrwt>
<rscale>  0 0.20719514E+02</rscale>
<asrwt>0</asrwt>
<pdfrwt beam="1">  1        4 0.25848051E-03 0.20719514E+02</pdfrwt>
<pdfrwt beam="2">  1       -4 0.98275352E-02 0.20719514E+02</pdfrwt>
<totfact> 0.10156872E+06</totfact>
</mgrwt>
</event>
<event>
 4    1  0.2126213E+000  0.3415862E+02  0.7546771E-02  0.1556202E+00
         -2   -1    0    0    0  501 -0.00000000000E+00  0.00000000000E+00  0.42414700432E+02  0.42414700432E+02  0.00000000000E+00 0.  1.
          2   -1    0    0  501    0  0.00000000000E+00 -0.00000000000E+00 -0.68774012319E+01  0.68774012319E+01  0.00000000000E+00 0. -1.
        -11    1    1    2    0    0 -0.61165640594E+01  0.79633072241E+01  0.37705334978E+02  0.39019468264E+02  0.00000000000E+00 0.  1.
         11    1    1    2    0    0  0.61165640594E+01 -0.79633072241E+01 -0.21680357774E+01  0.10272633400E+02  0.00000000000E+00 0. -1.
<mgrwt>
<rscale>  0 0.34158625E+02</rscale>
<asrwt>0</asrwt>
<pdfrwt beam="2">  1        2 0.10580618E-02 0.34158625E+02</pdfrwt>
<pdfrwt beam="1">  1       -2 0.65253384E-02 0.34158625E+02</pdfrwt>
<totfact> 0.10314286E+06</totfact>
</mgrwt>
</event>
<event>
 4    1  0.2126213E+000  0.2750042E+02  0.7546771E-02  0.1627484E+00
         -2   -1    0    0    0  501 -0.00000000000E+00  0.00000000000E+00  0.17465314478E+02  0.17465314478E+02  0.00000000000E+00 0. -1.
          2   -1    0    0  501    0  0.00000000000E+00 -0.00000000000E+00 -0.10825356394E+02  0.10825356394E+02  0.00000000000E+00 0.  1.
        -13    1    1    2    0    0 -0.12003552043E+02 -0.58797576244E+00  0.10193081039E+02  0.15758485912E+02  0.00000000000E+00 0. -1.
         13    1    1    2    0    0  0.12003552043E+02  0.58797576244E+00 -0.35531229550E+01  0.12532184961E+02  0.00000000000E+00 0.  1.
<mgrwt>
<rscale>  0 0.27500418E+02</rscale>
<asrwt>0</asrwt>
<pdfrwt beam="2">  1        2 0.16654394E-02 0.27500418E+02</pdfrwt>
<pdfrwt beam="1">  1       -2 0.26869715E-02 0.27500418E+02</pdfrwt>
<totfact> 0.18741585E+06</totfact>
</mgrwt>
</event>
<event>
 4    1  0.2126213E+000  0.2266761E+02  0.7546771E-02  0.1696955E+00
         -2   -1    0    0    0  501 -0.00000000000E+00  0.00000000000E+00  0.19380678088E+01  0.19380678088E+01  0.00000000000E+00 0. -1.
          2   -1    0    0  501    0  0.00000000000E+00 -0.00000000000E+00 -0.66280024735E+02  0.66280024735E+02  0.00000000000E+00 0.  1.
        -11    1    1    2    0    0  0.56563737722E+01 -0.96763879886E+01 -0.37232064473E+02  0.38882562592E+02  0.00000000000E+00 0. -1.
         11    1    1    2    0    0 -0.56563737722E+01  0.96763879886E+01 -0.27109892453E+02  0.29335529952E+02  0.00000000000E+00 0.  1.
<mgrwt>
<rscale>  0 0.22667614E+02</rscale>
<asrwt>0</asrwt>
<pdfrwt beam="2">  1        2 0.10196928E-01 0.22667614E+02</pdfrwt>
<pdfrwt beam="1">  1       -2 0.29816425E-03 0.22667614E+02</pdfrwt>
<totfact> 0.36641611E+06</totfact>
</mgrwt>
</event>
<event>
 4    1  0.2126213E+000  0.7651892E+02  0.7546771E-02  0.1339231E+00
          1   -1    0    0  501    0  0.00000000000E+00  0.00000000000E+00  0.10798231480E+02  0.10798231480E+02  0.00000000000E+00 0. -1.
         -1   -1    0    0    0  501 -0.00000000000E+00 -0.00000000000E+00 -0.13555795535E+03  0.13555795535E+03  0.00000000000E+00 0.  1.
        -13    1    1    2    0    0  0.16205097257E+02  0.33294933985E+02 -0.43971536197E+02  0.57486118339E+02  0.00000000000E+00 0. -1.
         13    1    1    2    0    0 -0.16205097257E+02 -0.33294933985E+02 -0.80788187673E+02  0.88870068492E+02  0.00000000000E+00 0.  1.
<mgrwt>
<rscale>  0 0.76518917E+02</rscale>
<asrwt>0</asrwt>
<pdfrwt beam="1">  1        1 0.16612664E-02 0.76518917E+02</pdfrwt>
<pdfrwt beam="2">  1       -1 0.20855070E-01 0.76518917E+02</pdfrwt>
<totfact> 0.12024662E+05</totfact>
</mgrwt>
</event>
<event>
 4    1  0.2126213E+000  0.3221839E+02  0.7546771E-02  0.1574787E+00
         -1   -1    0    0    0  501 -0.00000000000E+00  0.00000000000E+00  0.29413833933E+01  0.29413833933E+01  0.00000000000E+00 0. -1.
          1   -1    0    0  501    0  0.00000000000E+00 -0.00000000000E+00 -0.88225915157E+02  0.88225915157E+02  0.00000000000E+00 0.  1.
        -13    1    1    2    0    0 -0.58618560546E+01  0.13640558517E+02 -0.24952880883E+02  0.29035710038E+02  0.00000000000E+00 0. -1.
         13    1    1    2    0    0  0.58618560546E+01 -0.13640558517E+02 -0.60331650881E+02  0.62131588512E+02  0.00000000000E+00 0.  1.
<mgrwt>
<rscale>  0 0.32218395E+02</rscale>
<asrwt>0</asrwt>
<pdfrwt beam="2">  1        1 0.13573218E-01 0.32218395E+02</pdfrwt>
<pdfrwt beam="1">  1       -1 0.45252051E-03 0.32218395E+02</pdfrwt>
<totfact> 0.14626266E+06</totfact>
</mgrwt>
</event>
<event>
 4    1  0.2126213E+000  0.2494724E+02  0.7546771E-02  0.1661761E+00
          3   -1    0    0  501    0  0.00000000000E+00  0.00000000000E+00  0.65961073864E+02  0.65961073864E+02  0.00000000000E+00 0. -1.
         -3   -1    0    0    0  501 -0.00000000000E+00 -0.00000000000E+00 -0.23588328208E+01  0.23588328208E+01  0.00000000000E+00 0.  1.
        -11    1    1    2    0    0 -0.11314632867E+02  0.40002443519E+00  0.46138870615E+02  0.47507644838E+02  0.00000000000E+00 0. -1.
         11    1    1    2    0    0  0.11314632867E+02 -0.40002443519E+00  0.17463370428E+02  0.20812261846E+02  0.00000000000E+00 0.  1.
<mgrwt>
<rscale>  0 0.24947236E+02</rscale>
<asrwt>0</asrwt>
<pdfrwt beam="1">  1        3 0.10147856E-01 0.24947236E+02</pdfrwt>
<pdfrwt beam="2">  1       -3 0.36289741E-03 0.24947236E+02</pdfrwt>
<totfact> 0.94630073E+05</totfact>
</mgrwt>
</event>
<event>
 4    1  0.2126213E+000  0.2299278E+02  0.7546771E-02  0.1691627E+00
         -1   -1    0    0    0  501 -0.00000000000E+00  0.00000000000E+00  0.22475314993E+02  0.22475314993E+02  0.00000000000E+00 0. -1.
          1   -1    0    0  501    0  0.00000000000E+00 -0.00000000000E+00 -0.58805413581E+01  0.58805413581E+01  0.00000000000E+00 0.  1.
        -11    1    1    2    0    0 -0.50481783782E+00 -0.10555283604E+02  0.27138584029E+01  0.10910264911E+02  0.00000000000E+00 0.  1.
         11    1    1    2    0    0  0.50481783782E+00  0.10555283604E+02  0.13880915232E+02  0.17445591440E+02  0.00000000000E+00 0. -1.
<mgrwt>
<rscale>  0 0.22992783E+02</rscale>
<asrwt>0</asrwt>
<pdfrwt beam="2">  1        1 0.90469868E-03 0.22992783E+02</pdfrwt>
<pdfrwt beam="1">  1       -1 0.34577407E-02 0.22992783E+02</pdfrwt>
<totfact> 0.27259931E+06</totfact>
</mgrwt>
</event>
<event>
 4    1  0.2126213E+000  0.2568230E+02  0.7546771E-02  0.1651391E+00
         -4   -1    0    0    0  501 -0.00000000000E+00  0.00000000000E+00  0.49319348386E+01  0.49319348386E+01  0.00000000000E+00 0.  1.
          4   -1    0    0  501    0  0.00000000000E+00 -0.00000000000E+00 -0.33434161221E+02  0.33434161221E+02  0.00000000000E+00 0. -1.
        -13    1    1    2    0    0  0.99224869865E+01 -0.55634569120E+01 -0.53519282004E+01  0.12571831063E+02  0.00000000000E+00 0.  1.
         13    1    1    2    0    0 -0.99224869865E+01  0.55634569120E+01 -0.23150298182E+02  0.25794264997E+02  0.00000000000E+00 0. -1.
<mgrwt>
<rscale>  0 0.25682298E+02</rscale>
<asrwt>0</asrwt>
<pdfrwt beam="2">  1        4 0.51437170E-02 0.25682298E+02</pdfrwt>
<pdfrwt beam="1">  1       -4 0.75875922E-03 0.25682298E+02</pdfrwt>
<totfact> 0.71137603E+05</totfact>
</mgrwt>
</event>
<event>
 4    1  0.2126213E+000  0.3442481E+02  0.7546771E-02  0.1553769E+00
         -4   -1    0    0    0  501 -0.00000000000E+00  0.00000000000E+00  0.98335111593E+01  0.98335111593E+01  0.00000000000E+00 0. -1.
          4   -1    0    0  501    0  0.00000000000E+00 -0.00000000000E+00 -0.30128290517E+02  0.30128290517E+02  0.00000000000E+00 0.  1.
        -11    1    1    2    0    0 -0.11627856093E+02  0.19002306750E+01  0.44187147662E+01  0.12583439677E+02  0.00000000000E+00 0. -1.
         11    1    1    2    0    0  0.11627856093E+02 -0.19002306750E+01 -0.24713494124E+02  0.27378361999E+02  0.00000000000E+00 0.  1.
<mgrwt>
<rscale>  0 0.34424810E+02</rscale>
<asrwt>0</asrwt>
<pdfrwt beam="2">  1        4 0.46351216E-02 0.34424810E+02</pdfrwt>
<pdfrwt beam="1">  1       -4 0.15128479E-02 0.34424810E+02</pdfrwt>
<totfact> 0.36588275E+05</totfact>
</mgrwt>
</event>
<event>
 4    1  0.2126213E+000  0.3554372E+02  0.7546771E-02  0.1543825E+00
         -2   -1    0    0    0  501 -0.00000000000E+00  0.00000000000E+00  0.27821062541E+02  0.27821062541E+02  0.00000000000E+00 0. -1.
          2   -1    0    0  501    0  0.00000000000E+00 -0.00000000000E+00 -0.11352512403E+02  0.11352512403E+02  0.00000000000E+00 0.  1.
        -13    1    1    2    0    0 -0.11872760595E+02 -0.92898590668E+01  0.18606836628E+02  0.23947406852E+02  0.00000000000E+00 0. -1.
         13    1    1    2    0    0  0.11872760595E+02  0.92898590668E+01 -0.21382864901E+01  0.15226168091E+02  0.00000000000E+00 0.  1.
<mgrwt>
<rscale>  0 0.35543717E+02</rscale>
<asrwt>0</asrwt>
<pdfrwt beam="2">  1        2 0.17465404E-02 0.35543717E+02</pdfrwt>
<pdfrwt beam="1">  1       -2 0.42801634E-02 0.35543717E+02</pdfrwt>
<totfact> 0.99350576E+05</totfact>
</mgrwt>
</event>
<event>
 4    1  0.2126213E+000  0.4318125E+02  0.7546771E-02  0.1486026E+00
          2   -1    0    0  501    0  0.00000000000E+00  0.00000000000E+00  0.59403305343E+01  0.59403305343E+01  0.00000000000E+00 0. -1.
         -2   -1    0    0    0  501 -0.00000000000E+00 -0.00000000000E+00 -0.78472925434E+02  0.78472925434E+02  0.00000000000E+00 0.  1.
        -13    1    1    2    0    0 -0.16558032529E+02 -0.56440907850E+01 -0.11528956245E+02  0.20950919649E+02  0.00000000000E+00 0. -1.
         13    1    1    2    0    0  0.16558032529E+02  0.56440907850E+01 -0.61003638654E+02  0.63462336319E+02  0.00000000000E+00 0.  1.
<mgrwt>
<rscale>  0 0.43181251E+02</rscale>
<asrwt>0</asrwt>
<pdfrwt beam="1">  1        2 0.91389703E-03 0.43181251E+02</pdfrwt>
<pdfrwt beam="2">  1       -2 0.12072757E-01 0.43181251E+02</pdfrwt>
<totfact> 0.53248472E+05</totfact>
</mgrwt>
</event>
<event>
 4    1  0.2126213E+000  0.2056717E+02  0.7546771E-02  0.1734279E+00
         -4   -1    0    0    0  501 -0.00000000000E+00  0.00000000000E+00  0.30044828914E+02  0.30044828914E+02  0.00000000000E+00 0.  1.
          4   -1    0    0  501    0  0.00000000000E+00 -0.00000000000E+00 -0.35198125074E+01  0.35198125074E+01  0.00000000000E+00 0. -1.
        -11    1    1    2    0    0  0.32649035689E+01  0.95804356598E+01  0.10294408817E+02  0.14436730781E+02  0.00000000000E+00 0.  1.
         11    1    1    2    0    0 -0.32649035689E+01 -0.95804356598E+01  0.16230607590E+02  0.19127910641E+02  0.00000000000E+00 0. -1.
<mgrwt>
<rscale>  0 0.20567174E+02</rscale>
<asrwt>0</asrwt>
<pdfrwt beam="2">  1        4 0.54150964E-03 0.20567174E+02</pdfrwt>
<pdfrwt beam="1">  1       -4 0.46222812E-02 0.20567174E+02</pdfrwt>
<totfact> 0.11591874E+06</totfact>
</mgrwt>
</event>
<event>
 4    1  0.2126213E+000  0.3856500E+02  0.7546771E-02  0.1519045E+00
          2   -1    0    0  501    0  0.00000000000E+00  0.00000000000E+00  0.71771963768E+01  0.71771963768E+01  0.00000000000E+00 0.  1.
         -2   -1    0    0    0  501 -0.00000000000E+00 -0.00000000000E+00 -0.51805010658E+02  0.51805010658E+02  0.00000000000E+00 0. -1.
        -11    1    1    2    0    0 -0.52734215384E+01 -0.94499766524E+01  0.20948324098E+01  0.11022674643E+02  0.00000000000E+00 0.  1.
         11    1    1    2    0    0  0.52734215384E+01  0.94499766524E+01 -0.46722646691E+02  0.47959532392E+02  0.00000000000E+00 0. -1.
<mgrwt>
<rscale>  0 0.38564996E+02</rscale>
<asrwt>0</asrwt>
<pdfrwt beam="1">  1        2 0.11041840E-02 0.38564996E+02</pdfrwt>
<pdfrwt beam="2">  1       -2 0.79700017E-02 0.38564996E+02</pdfrwt>
<totfact> 0.75266621E+05</totfact>
</mgrwt>
</event>
<event>
 4    1  0.2126213E+000  0.5056948E+02  0.7546771E-02  0.1442294E+00
          2   -1    0    0  501    0  0.00000000000E+00  0.00000000000E+00  0.51016495983E+02  0.51016495983E+02  0.00000000000E+00 0.  1.
         -2   -1    0    0    0  501 -0.00000000000E+00 -0.00000000000E+00 -0.12531595815E+02  0.12531595815E+02  0.00000000000E+00 0. -1.
        -11    1    1    2    0    0  0.78445359028E+01 -0.22301754530E+02  0.30511244153E+02  0.38598458757E+02  0.00000000000E+00 0.  1.
         11    1    1    2    0    0 -0.78445359028E+01  0.22301754530E+02  0.79736560141E+01  0.24949633041E+02  0.00000000000E+00 0. -1.
<mgrwt>
<rscale>  0 0.50569481E+02</rscale>
<asrwt>0</asrwt>
<pdfrwt beam="1">  1        2 0.78486916E-02 0.50569481E+02</pdfrwt>
<pdfrwt beam="2">  1       -2 0.19279378E-02 0.50569481E+02</pdfrwt>
<totfact> 0.50017938E+05</totfact>
</mgrwt>
</event>
<event>
 4    1  0.2126213E+000  0.4372679E+02  0.7546771E-02  0.1482450E+00
          1   -1    0    0  501    0  0.00000000000E+00  0.00000000000E+00  0.37246375010E+01  0.37246375010E+01  0.00000000000E+00 0. -1.
         -1   -1    0    0    0  501 -0.00000000000E+00 -0.00000000000E+00 -0.12833680778E+03  0.12833680778E+03  0.00000000000E+00 0.  1.
        -13    1    1    2    0    0 -0.51772501801E+01  0.20313491333E+02 -0.81061732721E+02  0.83728408329E+02  0.00000000000E+00 0. -1.
         13    1    1    2    0    0  0.51772501801E+01 -0.20313491333E+02 -0.43550437563E+02  0.48333036957E+02  0.00000000000E+00 0.  1.
<mgrwt>
<rscale>  0 0.43726792E+02</rscale>
<asrwt>0</asrwt>
<pdfrwt beam="1">  1        1 0.57302104E-03 0.43726792E+02</pdfrwt>
<pdfrwt beam="2">  1       -1 0.19744128E-01 0.43726792E+02</pdfrwt>
<totfact> 0.49468590E+05</totfact>
</mgrwt>
</event>
<event>
 4    1  0.2126213E+000  0.4585037E+02  0.7546771E-02  0.1469102E+00
          1   -1    0    0  501    0  0.00000000000E+00  0.00000000000E+00  0.44866977983E+01  0.44866977983E+01  0.00000000000E+00 0. -1.
         -1   -1    0    0    0  501 -0.00000000000E+00 -0.00000000000E+00 -0.11713827394E+03  0.11713827394E+03  0.00000000000E+00 0.  1.
        -13    1    1    2    0    0  0.11817538980E+02  0.19119847425E+02 -0.44362000915E+02  0.49731377603E+02  0.00000000000E+00 0. -1.
         13    1    1    2    0    0 -0.11817538980E+02 -0.19119847425E+02 -0.68289575226E+02  0.71893594135E+02  0.00000000000E+00 0.  1.
<mgrwt>
<rscale>  0 0.45850367E+02</rscale>
<asrwt>0</asrwt>
<pdfrwt beam="1">  1        1 0.69026121E-03 0.45850367E+02</pdfrwt>
<pdfrwt beam="2">  1       -1 0.18021273E-01 0.45850367E+02</pdfrwt>
<totfact> 0.44817458E+05</totfact>
</mgrwt>
</event>
<event>
 4    1  0.2126213E+000  0.2695275E+02  0.7546771E-02  0.1634441E+00
          3   -1    0    0  501    0  0.00000000000E+00  0.00000000000E+00  0.95151065126E+01  0.95151065126E+01  0.00000000000E+00 0.  1.
         -3   -1    0    0    0  501 -0.00000000000E+00 -0.00000000000E+00 -0.19086771141E+02  0.19086771141E+02  0.00000000000E+00 0. -1.
        -11    1    1    2    0    0 -0.55274167746E+01  0.11724764783E+02 -0.86978846132E+01  0.15610113457E+02  0.00000000000E+00 0.  1.
         11    1    1    2    0    0  0.55274167746E+01 -0.11724764783E+02 -0.87378001477E+00  0.12991764196E+02  0.00000000000E+00 0. -1.
<mgrwt>
<rscale>  0 0.26952748E+02</rscale>
<asrwt>0</asrwt>
<pdfrwt beam="1">  1        3 0.14638625E-02 0.26952748E+02</pdfrwt>
<pdfrwt beam="2">  1       -3 0.29364263E-02 0.26952748E+02</pdfrwt>
<totfact> 0.89353897E+05</totfact>
</mgrwt>
</event>
<event>
 4    1  0.2126213E+000  0.4182585E+02  0.7546771E-02  0.1495189E+00
          1   -1    0    0  501    0  0.00000000000E+00  0.00000000000E+00  0.32776485668E+01  0.32776485668E+01  0.00000000000E+00 0. -1.
         -1   -1    0    0    0  501 -0.00000000000E+00 -0.00000000000E+00 -0.13343422143E+03  0.13343422143E+03  0.00000000000E+00 0.  1.
        -11    1    1    2    0    0  0.18104029399E+01 -0.18315632339E+02 -0.32620187037E+02  0.37454192678E+02  0.00000000000E+00 0. -1.
         11    1    1    2    0    0 -0.18104029399E+01  0.18315632339E+02 -0.97536385829E+02  0.99257677322E+02  0.00000000000E+00 0.  1.
<mgrwt>
<rscale>  0 0.41825853E+02</rscale>
<asrwt>0</asrwt>
<pdfrwt beam="1">  1        1 0.50425373E-03 0.41825853E+02</pdfrwt>
<pdfrwt beam="2">  1       -1 0.20528338E-01 0.41825853E+02</pdfrwt>
<totfact> 0.54697223E+05</totfact>
</mgrwt>
</event>
<event>
 4    1  0.2126213E+000  0.3038173E+02  0.7546771E-02  0.1593907E+00
          2   -1    0    0  501    0  0.00000000000E+00  0.00000000000E+00  0.97106105052E+02  0.97106105052E+02  0.00000000000E+00 0. -1.
         -2   -1    0    0    0  501 -0.00000000000E+00 -0.00000000000E+00 -0.23763947241E+01  0.23763947241E+01  0.00000000000E+00 0.  1.
        -11    1    1    2    0    0  0.12278500905E+02  0.81661374618E+01  0.59313139281E+02  0.61118703168E+02  0.00000000000E+00 0.  1.
         11    1    1    2    0    0 -0.12278500905E+02 -0.81661374618E+01  0.35416571047E+02  0.38363796609E+02  0.00000000000E+00 0. -1.
<mgrwt>
<rscale>  0 0.30381734E+02</rscale>
<asrwt>0</asrwt>
<pdfrwt beam="1">  1        2 0.14939398E-01 0.30381734E+02</pdfrwt>
<pdfrwt beam="2">  1       -2 0.36559926E-03 0.30381734E+02</pdfrwt>
<totfact> 0.20138071E+06</totfact>
</mgrwt>
</event>
<event>
 4    1  0.2126213E+000  0.4222412E+02  0.7546771E-02  0.1492454E+00
          1   -1    0    0  501    0  0.00000000000E+00  0.00000000000E+00  0.30416886234E+02  0.30416886234E+02  0.00000000000E+00 0.  1.
         -1   -1    0    0    0  501 -0.00000000000E+00 -0.00000000000E+00 -0.14653670086E+02  0.14653670086E+02  0.00000000000E+00 0. -1.
        -11    1    1    2    0    0  0.47152588348E+01  0.17922982732E+02  0.18675258097E+02  0.26310306743E+02  0.00000000000E+00 0.  1.
         11    1    1    2    0    0 -0.47152588348E+01 -0.17922982732E+02 -0.29120419502E+01  0.18760249577E+02  0.00000000000E+00 0. -1.
<mgrwt>
<rscale>  0 0.42224117E+02</rscale>
<asrwt>0</asrwt>
<pdfrwt beam="1">  1        1 0.46795209E-02 0.42224117E+02</pdfrwt>
<pdfrwt beam="2">  1       -1 0.22544108E-02 0.42224117E+02</pdfrwt>
<totfact> 0.68528035E+05</totfact>
</mgrwt>
</event>
<event>
 4    1  0.2126213E+000  0.6680746E+02  0.7546771E-02  0.1371299E+00
         -2   -1    0    0    0  501 -0.00000000000E+00  0.00000000000E+00  0.11901104441E+03  0.11901104441E+03  0.00000000000E+00 0. -1.
          2   -1    0    0  501    0  0.00000000000E+00 -0.00000000000E+00 -0.93756779377E+01  0.93756779377E+01  0.00000000000E+00 0.  1.
        -11    1    1    2    0    0 -0.15538793917E+02  0.26890460192E+02  0.31182733163E+02  0.44010383016E+02  0.00000000000E+00 0.  1.
         11    1    1    2    0    0  0.15538793917E+02 -0.26890460192E+02  0.78452633309E+02  0.84376339331E+02  0.00000000000E+00 0. -1.
<mgrwt>
<rscale>  0 0.66807461E+02</rscale>
<asrwt>0</asrwt>
<pdfrwt beam="2">  1        2 0.14424121E-02 0.66807461E+02</pdfrwt>
<pdfrwt beam="1">  1       -2 0.18309390E-01 0.66807461E+02</pdfrwt>
<totfact> 0.16467237E+05</totfact>
</mgrwt>
</event>
<event>
 4    1  0.2126213E+000  0.2241764E+02  0.7546771E-02  0.1701128E+00
          2   -1    0    0  501    0  0.00000000000E+00  0.00000000000E+00  0.36558836498E+01  0.36558836498E+01  0.00000000000E+00 0.  1.
         -2   -1    0    0    0  501 -0.00000000000E+00 -0.00000000000E+00 -0.34365879759E+02  0.34365879759E+02  0.00000000000E+00 0. -1.
        -11    1    1    2    0    0 -0.11202982924E+02  0.33172832795E+00 -0.15110459647E+02  0.18813369204E+02  0.00000000000E+00 0.  1.
         11    1    1    2    0    0  0.11202982924E+02 -0.33172832795E+00 -0.15599536463E+02  0.19208394205E+02  0.00000000000E+00 0. -1.
<mgrwt>
<rscale>  0 0.22417641E+02</rscale>
<asrwt>0</asrwt>
<pdfrwt beam="1">  1        2 0.56244364E-03 0.22417641E+02</pdfrwt>
<pdfrwt beam="2">  1       -2 0.52870584E-02 0.22417641E+02</pdfrwt>
<totfact> 0.27645973E+06</totfact>
</mgrwt>
</event>
<event>
 4    1  0.2126213E+000  0.4154719E+02  0.7546771E-02  0.1497125E+00
         -2   -1    0    0    0  501 -0.00000000000E+00  0.00000000000E+00  0.30364778933E+02  0.30364778933E+02  0.00000000000E+00 0. -1.
          2   -1    0    0  501    0  0.00000000000E+00 -0.00000000000E+00 -0.14211933604E+02  0.14211933604E+02  0.00000000000E+00 0.  1.
        -13    1    1    2    0    0 -0.12740688124E+02 -0.70058343037E+01  0.23995258798E+02  0.28056715648E+02  0.00000000000E+00 0. -1.
         13    1    1    2    0    0  0.12740688124E+02  0.70058343037E+01 -0.78424134694E+01  0.16519996889E+02  0.00000000000E+00 0.  1.
<mgrwt>
<rscale>  0 0.41547189E+02</rscale>
<asrwt>0</asrwt>
<pdfrwt beam="2">  1        2 0.21864513E-02 0.41547189E+02</pdfrwt>
<pdfrwt beam="1">  1       -2 0.46715044E-02 0.41547189E+02</pdfrwt>
<totfact> 0.68303422E+05</totfact>
</mgrwt>
</event>
<event>
 4    1  0.2126213E+000  0.2391901E+02  0.7546771E-02  0.1677032E+00
          4   -1    0    0  501    0  0.00000000000E+00  0.00000000000E+00  0.79708838592E+02  0.79708838592E+02  0.00000000000E+00 0. -1.
         -4   -1    0    0    0  501 -0.00000000000E+00 -0.00000000000E+00 -0.17944026235E+01  0.17944026235E+01  0.00000000000E+00 0.  1.
        -13    1    1    2    0    0  0.10836338656E+02 -0.52974010509E+00  0.56104224863E+02  0.57143599008E+02  0.00000000000E+00 0. -1.
         13    1    1    2    0    0 -0.10836338656E+02  0.52974010509E+00  0.21810211106E+02  0.24359642208E+02  0.00000000000E+00 0.  1.
<mgrwt>
<rscale>  0 0.23919009E+02</rscale>
<asrwt>0</asrwt>
<pdfrwt beam="1">  1        4 0.12262896E-01 0.23919009E+02</pdfrwt>
<pdfrwt beam="2">  1       -4 0.27606200E-03 0.23919009E+02</pdfrwt>
<totfact> 0.71681655E+05</totfact>
</mgrwt>
</event>
<event>
 4    1  0.2126213E+000  0.3274741E+02  0.7546771E-02  0.1569565E+00
         -2   -1    0    0    0  501 -0.00000000000E+00  0.00000000000E+00  0.31019941220E+02  0.31019941220E+02  0.00000000000E+00 0. -1.
          2   -1    0    0  501    0  0.00000000000E+00 -0.00000000000E+00 -0.86427693056E+01  0.86427693056E+01  0.00000000000E+00 0.  1.
        -13    1    1    2    0    0 -0.61803339536E+01 -0.92724622044E+01  0.25718756795E+02  0.28029083720E+02  0.00000000000E+00 0. -1.
         13    1    1    2    0    0  0.61803339536E+01  0.92724622044E+01 -0.33415848814E+01  0.11633626805E+02  0.00000000000E+00 0.  1.
<mgrwt>
<rscale>  0 0.32747409E+02</rscale>
<asrwt>0</asrwt>
<pdfrwt beam="2">  1        2 0.13296568E-02 0.32747409E+02</pdfrwt>
<pdfrwt beam="1">  1       -2 0.47722986E-02 0.32747409E+02</pdfrwt>
<totfact> 0.11847054E+06</totfact>
</mgrwt>
</event>
<event>
 4    1  0.2126213E+000  0.2301687E+02  0.7546771E-02  0.1691237E+00
          2   -1    0    0  501    0  0.00000000000E+00  0.00000000000E+00  0.19027134059E+02  0.19027134059E+02  0.00000000000E+00 0. -1.
         -2   -1    0    0    0  501 -0.00000000000E+00 -0.00000000000E+00 -0.69608015642E+01  0.69608015642E+01  0.00000000000E+00 0.  1.
        -11    1    1    2    0    0  0.11995689592E+01  0.10728430508E+02  0.15301362928E+01  0.10903187788E+02  0.00000000000E+00 0.  1.
         11    1    1    2    0    0 -0.11995689592E+01 -0.10728430508E+02  0.10536196202E+02  0.15084747835E+02  0.00000000000E+00 0. -1.
<mgrwt>
<rscale>  0 0.23016872E+02</rscale>
<asrwt>0</asrwt>
<pdfrwt beam="1">  1        2 0.29272514E-02 0.23016872E+02</pdfrwt>
<pdfrwt beam="2">  1       -2 0.10708925E-02 0.23016872E+02</pdfrwt>
<totfact> 0.30089660E+06</totfact>
</mgrwt>
</event>
<event>
 4    1  0.2126213E+000  0.2672014E+02  0.7546771E-02  0.1637457E+00
         -4   -1    0    0    0  501 -0.00000000000E+00  0.00000000000E+00  0.19918527811E+01  0.19918527811E+01  0.00000000000E+00 0.  1.
          4   -1    0    0  501    0  0.00000000000E+00 -0.00000000000E+00 -0.89610775501E+02  0.89610775501E+02  0.00000000000E+00 0. -1.
        -13    1    1    2    0    0  0.12937831161E+02 -0.11013125515E+01 -0.33027651388E+02  0.35488394169E+02  0.00000000000E+00 0. -1.
         13    1    1    2    0    0 -0.12937831161E+02  0.11013125515E+01 -0.54591271332E+02  0.56114234113E+02  0.00000000000E+00 0.  1.
<mgrwt>
<rscale>  0 0.26720140E+02</rscale>
<asrwt>0</asrwt>
<pdfrwt beam="2">  1        4 0.13786273E-01 0.26720140E+02</pdfrwt>
<pdfrwt beam="1">  1       -4 0.30643890E-03 0.26720140E+02</pdfrwt>
<totfact> 0.54877432E+05</totfact>
</mgrwt>
</event>
<event>
 4    1  0.2126213E+000  0.6408070E+02  0.7546771E-02  0.1381463E+00
         -2   -1    0    0    0  501 -0.00000000000E+00  0.00000000000E+00  0.68547725880E+01  0.68547725880E+01  0.00000000000E+00 0.  1.
          2   -1    0    0  501    0  0.00000000000E+00 -0.00000000000E+00 -0.14976194972E+03  0.14976194972E+03  0.00000000000E+00 0. -1.
        -13    1    1    2    0    0  0.57601715946E+00 -0.31799720112E+02 -0.80928867109E+02  0.86954215116E+02  0.00000000000E+00 0. -1.
         13    1    1    2    0    0 -0.57601715946E+00  0.31799720112E+02 -0.61978310026E+02  0.69662507194E+02  0.00000000000E+00 0.  1.
<mgrwt>
<rscale>  0 0.64080702E+02</rscale>
<asrwt>0</asrwt>
<pdfrwt beam="2">  1        2 0.23040299E-01 0.64080702E+02</pdfrwt>
<pdfrwt beam="1">  1       -2 0.10545804E-02 0.64080702E+02</pdfrwt>
<totfact> 0.35614547E+05</totfact>
</mgrwt>
</event>
<event>
 4    1  0.2126213E+000  0.3074113E+02  0.7546771E-02  0.1590038E+00
         -2   -1    0    0    0  501 -0.00000000000E+00  0.00000000000E+00  0.53380553564E+02  0.53380553564E+02  0.00000000000E+00 0.  1.
          2   -1    0    0  501    0  0.00000000000E+00 -0.00000000000E+00 -0.44258496542E+01  0.44258496542E+01  0.00000000000E+00 0. -1.
        -13    1    1    2    0    0  0.14150581235E+02  0.40562510181E+01  0.32794314484E+02  0.35946615753E+02  0.00000000000E+00 0. -1.
         13    1    1    2    0    0 -0.14150581235E+02 -0.40562510181E+01  0.16160389426E+02  0.21859787465E+02  0.00000000000E+00 0.  1.
<mgrwt>
<rscale>  0 0.30741132E+02</rscale>
<asrwt>0</asrwt>
<pdfrwt beam="2">  1        2 0.68089998E-03 0.30741132E+02</pdfrwt>
<pdfrwt beam="1">  1       -2 0.82123924E-02 0.30741132E+02</pdfrwt>
<totfact> 0.12737814E+06</totfact>
</mgrwt>
</event>
<event>
 4    1  0.2126213E+000  0.3653343E+02  0.7546771E-02  0.1535390E+00
         -1   -1    0    0    0  501 -0.00000000000E+00  0.00000000000E+00  0.98437296007E+01  0.98437296007E+01  0.00000000000E+00 0.  1.
          1   -1    0    0  501    0  0.00000000000E+00 -0.00000000000E+00 -0.33896995299E+02  0.33896995299E+02  0.00000000000E+00 0. -1.
        -11    1    1    2    0    0 -0.74206673454E+01  0.12031239481E+02  0.18254214332E+01  0.14253041455E+02  0.00000000000E+00 0.  1.
         11    1    1    2    0    0  0.74206673454E+01 -0.12031239481E+02 -0.25878687131E+02  0.29487683445E+02  0.00000000000E+00 0. -1.
<mgrwt>
<rscale>  0 0.36533429E+02</rscale>
<asrwt>0</asrwt>
<pdfrwt beam="2">  1        1 0.52149224E-02 0.36533429E+02</pdfrwt>
<pdfrwt beam="1">  1       -1 0.15144199E-02 0.36533429E+02</pdfrwt>
<totfact> 0.99043913E+05</totfact>
</mgrwt>
</event>
<event>
 4    1  0.2126213E+000  0.2449572E+02  0.7546771E-02  0.1668353E+00
         -2   -1    0    0    0  501 -0.00000000000E+00  0.00000000000E+00  0.15094677057E+01  0.15094677057E+01  0.00000000000E+00 0.  1.
          2   -1    0    0  501    0  0.00000000000E+00 -0.00000000000E+00 -0.99379419255E+02  0.99379419255E+02  0.00000000000E+00 0. -1.
        -13    1    1    2    0    0 -0.74997818579E+01 -0.93363754285E+01 -0.59512241939E+02  0.60705202205E+02  0.00000000000E+00 0. -1.
         13    1    1    2    0    0  0.74997818579E+01  0.93363754285E+01 -0.38357709610E+02  0.40183684756E+02  0.00000000000E+00 0.  1.
<mgrwt>
<rscale>  0 0.24495716E+02</rscale>
<asrwt>0</asrwt>
<pdfrwt beam="2">  1        2 0.15289150E-01 0.24495716E+02</pdfrwt>
<pdfrwt beam="1">  1       -2 0.23222566E-03 0.24495716E+02</pdfrwt>
<totfact> 0.33409507E+06</totfact>
</mgrwt>
</event>
<event>
 4    1  0.2126213E+000  0.3016172E+02  0.7546771E-02  0.1596308E+00
         -4   -1    0    0    0  501 -0.00000000000E+00  0.00000000000E+00  0.23652103049E+01  0.23652103049E+01  0.00000000000E+00 0. -1.
          4   -1    0    0  501    0  0.00000000000E+00 -0.00000000000E+00 -0.96157370009E+02  0.96157370009E+02  0.00000000000E+00 0.  1.
        -13    1    1    2    0    0 -0.67578917850E+01  0.13475636919E+02 -0.45547255408E+02  0.47977227587E+02  0.00000000000E+00 0. -1.
         13    1    1    2    0    0  0.67578917850E+01 -0.13475636919E+02 -0.48244904296E+02  0.50545352727E+02  0.00000000000E+00 0.  1.
<mgrwt>
<rscale>  0 0.30161724E+02</rscale>
<asrwt>0</asrwt>
<pdfrwt beam="2">  1        4 0.14793442E-01 0.30161724E+02</pdfrwt>
<pdfrwt beam="1">  1       -4 0.36387849E-03 0.30161724E+02</pdfrwt>
<totfact> 0.41230222E+05</totfact>
</mgrwt>
</event>
<event>
 4    1  0.2126213E+000  0.5108741E+02  0.7546771E-02  0.1439563E+00
         -4   -1    0    0    0  501 -0.00000000000E+00  0.00000000000E+00  0.16945391282E+02  0.16945391282E+02  0.00000000000E+00 0.  1.
          4   -1    0    0  501    0  0.00000000000E+00 -0.00000000000E+00 -0.38504918137E+02  0.38504918137E+02  0.00000000000E+00 0. -1.
        -11    1    1    2    0    0  0.16702229644E+02  0.54343507022E+01 -0.30910485898E+02  0.35552141723E+02  0.00000000000E+00 0. -1.
         11    1    1    2    0    0 -0.16702229644E+02 -0.54343507022E+01  0.93509590423E+01  0.19898167696E+02  0.00000000000E+00 0.  1.
<mgrwt>
<rscale>  0 0.51087412E+02</rscale>
<asrwt>0</asrwt>
<pdfrwt beam="2">  1        4 0.59238335E-02 0.51087412E+02</pdfrwt>
<pdfrwt beam="1">  1       -4 0.26069833E-02 0.51087412E+02</pdfrwt>
<totfact> 0.13441357E+05</totfact>
</mgrwt>
</event>
<event>
 4    1  0.2126213E+000  0.4265115E+02  0.7546771E-02  0.1489561E+00
         -2   -1    0    0    0  501 -0.00000000000E+00  0.00000000000E+00  0.41072246704E+01  0.41072246704E+01  0.00000000000E+00 0.  1.
          2   -1    0    0  501    0  0.00000000000E+00 -0.00000000000E+00 -0.11072686645E+03  0.11072686645E+03  0.00000000000E+00 0. -1.
        -11    1    1    2    0    0  0.71021267839E+01  0.13927745545E+02 -0.92359676673E+02  0.93673540426E+02  0.00000000000E+00 0. -1.
         11    1    1    2    0    0 -0.71021267839E+01 -0.13927745545E+02 -0.14259965106E+02  0.21160550693E+02  0.00000000000E+00 0.  1.
<mgrwt>
<rscale>  0 0.42651149E+02</rscale>
<asrwt>0</asrwt>
<pdfrwt beam="2">  1        2 0.17034904E-01 0.42651149E+02</pdfrwt>
<pdfrwt beam="1">  1       -2 0.63188065E-03 0.42651149E+02</pdfrwt>
<totfact> 0.91566953E+05</totfact>
</mgrwt>
</event>
<event>
 4    1  0.2126213E+000  0.3439513E+02  0.7546771E-02  0.1554039E+00
         -2   -1    0    0    0  501 -0.00000000000E+00  0.00000000000E+00  0.37774762852E+01  0.37774762852E+01  0.00000000000E+00 0.  1.
          2   -1    0    0  501    0  0.00000000000E+00 -0.00000000000E+00 -0.78294654083E+02  0.78294654083E+02  0.00000000000E+00 0. -1.
        -11    1    1    2    0    0 -0.10253011900E+02 -0.73776216249E+01 -0.65106431393E+02  0.66320441513E+02  0.00000000000E+00 0. -1.
         11    1    1    2    0    0  0.10253011900E+02  0.73776216249E+01 -0.94107464050E+01  0.15751688854E+02  0.00000000000E+00 0.  1.
<mgrwt>
<rscale>  0 0.34395128E+02</rscale>
<asrwt>0</asrwt>
<pdfrwt beam="2">  1        2 0.12045330E-01 0.34395128E+02</pdfrwt>
<pdfrwt beam="1">  1       -2 0.58115024E-03 0.34395128E+02</pdfrwt>
<totfact> 0.14257156E+06</totfact>
</mgrwt>
</event>
<event>
 4    1  0.2126213E+000  0.3204027E+02  0.7546771E-02  0.1576573E+00
          2   -1    0    0  501    0  0.00000000000E+00  0.00000000000E+00  0.23978071428E+02  0.23978071428E+02  0.00000000000E+00 0. -1.
         -2   -1    0    0    0  501 -0.00000000000E+00 -0.00000000000E+00 -0.10703306935E+02  0.10703306935E+02  0.00000000000E+00 0.  1.
        -11    1    1    2    0    0  0.14271589863E+02  0.28045025573E+01 -0.63194181362E+00  0.14558257529E+02  0.00000000000E+00 0.  1.
         11    1    1    2    0    0 -0.14271589863E+02 -0.28045025573E+01  0.13906706307E+02  0.20123120834E+02  0.00000000000E+00 0. -1.
<mgrwt>
<rscale>  0 0.32040266E+02</rscale>
<asrwt>0</asrwt>
<pdfrwt beam="1">  1        2 0.36889341E-02 0.32040266E+02</pdfrwt>
<pdfrwt beam="2">  1       -2 0.16466626E-02 0.32040266E+02</pdfrwt>
<totfact> 0.14027806E+06</totfact>
</mgrwt>
</event>
<event>
 4    1  0.2126213E+000  0.4886724E+02  0.7546771E-02  0.1451549E+00
         -2   -1    0    0    0  501 -0.00000000000E+00  0.00000000000E+00  0.19893040717E+02  0.19893040717E+02  0.00000000000E+00 0.  1.
          2   -1    0    0  501    0  0.00000000000E+00 -0.00000000000E+00 -0.30010584903E+02  0.30010584903E+02  0.00000000000E+00 0. -1.
        -13    1    1    2    0    0  0.12535060172E+02 -0.19108435184E+02 -0.13887455519E+02  0.26741754794E+02  0.00000000000E+00 0. -1.
         13    1    1    2    0    0 -0.12535060172E+02  0.19108435184E+02  0.37699113327E+01  0.23161870826E+02  0.00000000000E+00 0.  1.
<mgrwt>
<rscale>  0 0.48867240E+02</rscale>
<asrwt>0</asrwt>
<pdfrwt beam="2">  1        2 0.46170131E-02 0.48867240E+02</pdfrwt>
<pdfrwt beam="1">  1       -2 0.30604678E-02 0.48867240E+02</pdfrwt>
<totfact> 0.49841510E+05</totfact>
</mgrwt>
</event>
<event>
 4    1  0.2126213E+000  0.3162294E+02  0.7546771E-02  0.1580812E+00
          4   -1    0    0  501    0  0.00000000000E+00  0.00000000000E+00  0.52693923077E+02  0.52693923077E+02  0.00000000000E+00 0. -1.
         -4   -1    0    0    0  501 -0.00000000000E+00 -0.00000000000E+00 -0.47444285813E+01  0.47444285813E+01  0.00000000000E+00 0.  1.
        -11    1    1    2    0    0 -0.12621286898E+02 -0.37535382905E+01  0.39873433885E+02  0.41991387955E+02  0.00000000000E+00 0. -1.
         11    1    1    2    0    0  0.12621286898E+02  0.37535382905E+01  0.80760606108E+01  0.15446963703E+02  0.00000000000E+00 0.  1.
<mgrwt>
<rscale>  0 0.31622938E+02</rscale>
<asrwt>0</asrwt>
<pdfrwt beam="1">  1        4 0.81067570E-02 0.31622938E+02</pdfrwt>
<pdfrwt beam="2">  1       -4 0.72991213E-03 0.31622938E+02</pdfrwt>
<totfact> 0.41911576E+05</totfact>
</mgrwt>
</event>
<event>
 4    1  0.2126213E+000  0.4119209E+02  0.7546771E-02  0.1499618E+00
         -3   -1    0    0    0  501 -0.00000000000E+00  0.00000000000E+00  0.35902742093E+02  0.35902742093E+02  0.00000000000E+00 0. -1.
          3   -1    0    0  501    0  0.00000000000E+00 -0.00000000000E+00 -0.11815172560E+02  0.11815172560E+02  0.00000000000E+00 0.  1.
        -11    1    1    2    0    0  0.95418163123E+01  0.59350350582E+01 -0.79512406367E+01  0.13765650270E+02  0.00000000000E+00 0.  1.
         11    1    1    2    0    0 -0.95418163123E+01 -0.59350350582E+01  0.32038810170E+02  0.33952264384E+02  0.00000000000E+00 0. -1.
<mgrwt>
<rscale>  0 0.41192091E+02</rscale>
<asrwt>0</asrwt>
<pdfrwt beam="2">  1        3 0.18177189E-02 0.41192091E+02</pdfrwt>
<pdfrwt beam="1">  1       -3 0.55234987E-02 0.41192091E+02</pdfrwt>
<totfact> 0.30820644E+05</totfact>
</mgrwt>
</event>
<event>
 4    1  0.2126213E+000  0.3273497E+02  0.7546771E-02  0.1569686E+00
         -3   -1    0    0    0  501 -0.00000000000E+00  0.00000000000E+00  0.15704283372E+02  0.15704283372E+02  0.00000000000E+00 0.  1.
          3   -1    0    0  501    0  0.00000000000E+00 -0.00000000000E+00 -0.17058694095E+02  0.17058694095E+02  0.00000000000E+00 0. -1.
        -13    1    1    2    0    0  0.13445499702E+02 -0.15478977979E+00 -0.10017346222E+02  0.16767607088E+02  0.00000000000E+00 0.  1.
         13    1    1    2    0    0 -0.13445499702E+02  0.15478977979E+00  0.86629354996E+01  0.15995370380E+02  0.00000000000E+00 0. -1.
<mgrwt>
<rscale>  0 0.32734970E+02</rscale>
<asrwt>0</asrwt>
<pdfrwt beam="2">  1        3 0.26244145E-02 0.32734970E+02</pdfrwt>
<pdfrwt beam="1">  1       -3 0.24160436E-02 0.32734970E+02</pdfrwt>
<totfact> 0.56059806E+05</totfact>
</mgrwt>
</event>
<event>
 4    1  0.2126213E+000  0.2191431E+02  0.7546771E-02  0.1709738E+00
         -2   -1    0    0    0  501 -0.00000000000E+00  0.00000000000E+00  0.30993130629E+02  0.30993130629E+02  0.00000000000E+00 0. -1.
          2   -1    0    0  501    0  0.00000000000E+00 -0.00000000000E+00 -0.38737389130E+01  0.38737389130E+01  0.00000000000E+00 0.  1.
        -11    1    1    2    0    0 -0.59611285182E+01 -0.89928992052E+01  0.16600236796E+02  0.19798362332E+02  0.00000000000E+00 0. -1.
         11    1    1    2    0    0  0.59611285182E+01  0.89928992052E+01  0.10519154920E+02  0.15068507211E+02  0.00000000000E+00 0.  1.
<mgrwt>
<rscale>  0 0.21914315E+02</rscale>
<asrwt>0</asrwt>
<pdfrwt beam="2">  1        2 0.59595985E-03 0.21914315E+02</pdfrwt>
<pdfrwt beam="1">  1       -2 0.47681738E-02 0.21914315E+02</pdfrwt>
<totfact> 0.29402527E+06</totfact>
</mgrwt>
</event>
<event>
 4    1  0.2126213E+000  0.2522069E+02  0.7546771E-02  0.1657852E+00
         -1   -1    0    0    0  501 -0.00000000000E+00  0.00000000000E+00  0.10661075146E+02  0.10661075146E+02  0.00000000000E+00 0.  1.
          1   -1    0    0  501    0  0.00000000000E+00 -0.00000000000E+00 -0.14916021902E+02  0.14916021902E+02  0.00000000000E+00 0. -1.
        -11    1    1    2    0    0  0.10209306869E+02 -0.63220881984E+01 -0.60318246926E+01  0.13438067385E+02  0.00000000000E+00 0.  1.
         11    1    1    2    0    0 -0.10209306869E+02  0.63220881984E+01  0.17768779371E+01  0.12139029662E+02  0.00000000000E+00 0. -1.
<mgrwt>
<rscale>  0 0.25220692E+02</rscale>
<asrwt>0</asrwt>
<pdfrwt beam="2">  1        1 0.22947726E-02 0.25220692E+02</pdfrwt>
<pdfrwt beam="1">  1       -1 0.16401654E-02 0.25220692E+02</pdfrwt>
<totfact> 0.23007492E+06</totfact>
</mgrwt>
</event>
<event>
 4    1  0.2126213E+000  0.2659103E+02  0.7546771E-02  0.1639148E+00
         -1   -1    0    0    0  501 -0.00000000000E+00  0.00000000000E+00  0.91000941683E+01  0.91000941683E+01  0.00000000000E+00 0. -1.
          1   -1    0    0  501    0  0.00000000000E+00 -0.00000000000E+00 -0.19425148495E+02  0.19425148495E+02  0.00000000000E+00 0.  1.
        -13    1    1    2    0    0  0.12993870571E+02  0.53306680445E+00 -0.81287724577E+01  0.15336289457E+02  0.00000000000E+00 0.  1.
         13    1    1    2    0    0 -0.12993870571E+02 -0.53306680445E+00 -0.21962818695E+01  0.13188953207E+02  0.00000000000E+00 0. -1.
<mgrwt>
<rscale>  0 0.26591027E+02</rscale>
<asrwt>0</asrwt>
<pdfrwt beam="2">  1        1 0.29884844E-02 0.26591027E+02</pdfrwt>
<pdfrwt beam="1">  1       -1 0.14000145E-02 0.26591027E+02</pdfrwt>
<totfact> 0.20579331E+06</totfact>
</mgrwt>
</event>
<event>
 4    1  0.2126213E+000  0.3984782E+02  0.7546771E-02  0.1509334E+00
          3   -1    0    0  501    0  0.00000000000E+00  0.00000000000E+00  0.73854949076E+01  0.73854949076E+01  0.00000000000E+00 0. -1.
         -3   -1    0    0    0  501 -0.00000000000E+00 -0.00000000000E+00 -0.53748890906E+02  0.53748890906E+02  0.00000000000E+00 0.  1.
        -11    1    1    2    0    0  0.16054952735E+02  0.79732423361E+01 -0.98396505451E+01  0.20448785380E+02  0.00000000000E+00 0. -1.
         11    1    1    2    0    0 -0.16054952735E+02 -0.79732423361E+01 -0.36523745454E+02  0.40685600434E+02  0.00000000000E+00 0.  1.
<mgrwt>
<rscale>  0 0.39847819E+02</rscale>
<asrwt>0</asrwt>
<pdfrwt beam="1">  1        3 0.11362300E-02 0.39847819E+02</pdfrwt>
<pdfrwt beam="2">  1       -3 0.82690599E-02 0.39847819E+02</pdfrwt>
<totfact> 0.32220565E+05</totfact>
</mgrwt>
</event>
<event>
 4    1  0.2126213E+000  0.2722877E+02  0.7546771E-02  0.1630910E+00
         -2   -1    0    0    0  501 -0.00000000000E+00  0.00000000000E+00  0.64231681927E+01  0.64231681927E+01  0.00000000000E+00 0.  1.
          2   -1    0    0  501    0  0.00000000000E+00 -0.00000000000E+00 -0.28856715380E+02  0.28856715380E+02  0.00000000000E+00 0. -1.
        -11    1    1    2    0    0  0.52473565225E+01 -0.12310857773E+02 -0.79750857568E+01  0.15578638015E+02  0.00000000000E+00 0.  1.
         11    1    1    2    0    0 -0.52473565225E+01  0.12310857773E+02 -0.14458461431E+02  0.19701245558E+02  0.00000000000E+00 0. -1.
<mgrwt>
<rscale>  0 0.27228774E+02</rscale>
<asrwt>0</asrwt>
<pdfrwt beam="2">  1        2 0.44394946E-02 0.27228774E+02</pdfrwt>
<pdfrwt beam="1">  1       -2 0.98817973E-03 0.27228774E+02</pdfrwt>
<totfact> 0.21199979E+06</totfact>
</mgrwt>
</event>
<event>
 4    1  0.2126213E+000  0.7157208E+02  0.7546771E-02  0.1354827E+00
          2   -1    0    0  501    0  0.00000000000E+00  0.00000000000E+00  0.15248300799E+02  0.15248300799E+02  0.00000000000E+00 0.  1.
         -2   -1    0    0    0  501 -0.00000000000E+00 -0.00000000000E+00 -0.83985803480E+02  0.83985803480E+02  0.00000000000E+00 0. -1.
        -11    1    1    2    0    0  0.75166816470E+00  0.24283113599E+02  0.20621258497E+01  0.24382103562E+02  0.00000000000E+00 0.  1.
         11    1    1    2    0    0 -0.75166816470E+00 -0.24283113599E+02 -0.70799628531E+02  0.74852000716E+02  0.00000000000E+00 0. -1.
<mgrwt>
<rscale>  0 0.71572084E+02</rscale>
<asrwt>0</asrwt>
<pdfrwt beam="1">  1        2 0.23458924E-02 0.71572084E+02</pdfrwt>
<pdfrwt beam="2">  1       -2 0.12920893E-01 0.71572084E+02</pdfrwt>
<totfact> 0.15258724E+05</totfact>
</mgrwt>
</event>
<event>
 4    1  0.2126213E+000  0.2879003E+02  0.7546771E-02  0.1611862E+00
          1   -1    0    0  501    0  0.00000000000E+00  0.00000000000E+00  0.16236955917E+01  0.16236955917E+01  0.00000000000E+00 0. -1.
         -1   -1    0    0    0  501 -0.00000000000E+00 -0.00000000000E+00 -0.12762022473E+03  0.12762022473E+03  0.00000000000E+00 0.  1.
        -13    1    1    2    0    0  0.11084783707E+02 -0.91140907459E+01 -0.68071877222E+02  0.69568092891E+02  0.00000000000E+00 0. -1.
         13    1    1    2    0    0 -0.11084783707E+02  0.91140907459E+01 -0.57924651920E+02  0.59675827435E+02  0.00000000000E+00 0.  1.
<mgrwt>
<rscale>  0 0.28790026E+02</rscale>
<asrwt>0</asrwt>
<pdfrwt beam="1">  1        1 0.24979931E-03 0.28790026E+02</pdfrwt>
<pdfrwt beam="2">  1       -1 0.19633882E-01 0.28790026E+02</pdfrwt>
<totfact> 0.13402611E+06</totfact>
</mgrwt>
</event>
<event>
 4    1  0.2126213E+000  0.2718192E+02  0.7546771E-02  0.1631505E+00
         -1   -1    0    0    0  501 -0.00000000000E+00  0.00000000000E+00  0.67284930632E+01  0.67284930632E+01  0.00000000000E+00 0.  1.
          1   -1    0    0  501    0  0.00000000000E+00 -0.00000000000E+00 -0.27452541198E+02  0.27452541198E+02  0.00000000000E+00 0. -1.
        -13    1    1    2    0    0 -0.38859718313E+01 -0.12882299122E+02 -0.12767689341E+02  0.18549078113E+02  0.00000000000E+00 0.  1.
         13    1    1    2    0    0  0.38859718313E+01  0.12882299122E+02 -0.79563587939E+01  0.15631956148E+02  0.00000000000E+00 0. -1.
<mgrwt>
<rscale>  0 0.27181923E+02</rscale>
<asrwt>0</asrwt>
<pdfrwt beam="2">  1        1 0.42234679E-02 0.27181923E+02</pdfrwt>
<pdfrwt beam="1">  1       -1 0.10351528E-02 0.27181923E+02</pdfrwt>
<totfact> 0.19906449E+06</totfact>
</mgrwt>
</event>
<event>
 4    1  0.2126213E+000  0.5913699E+02  0.7546771E-02  0.1401490E+00
         -2   -1    0    0    0  501 -0.00000000000E+00  0.00000000000E+00  0.30209087839E+02  0.30209087839E+02  0.00000000000E+00 0.  1.
          2   -1    0    0  501    0  0.00000000000E+00 -0.00000000000E+00 -0.28941483689E+02  0.28941483689E+02  0.00000000000E+00 0. -1.
        -11    1    1    2    0    0 -0.12861683380E+02  0.24409574588E+02 -0.10000930271E+02  0.29347382119E+02  0.00000000000E+00 0. -1.
         11    1    1    2    0    0  0.12861683380E+02 -0.24409574588E+02  0.11268534421E+02  0.29803189409E+02  0.00000000000E+00 0.  1.
<mgrwt>
<rscale>  0 0.59136988E+02</rscale>
<asrwt>0</asrwt>
<pdfrwt beam="2">  1        2 0.44525360E-02 0.59136988E+02</pdfrwt>
<pdfrwt beam="1">  1       -2 0.46475520E-02 0.59136988E+02</pdfrwt>
<totfact> 0.29854313E+05</totfact>
</mgrwt>
</event>
<event>
 4    1  0.2126213E+000  0.3460441E+02  0.7546771E-02  0.1552142E+00
          2   -1    0    0  501    0  0.00000000000E+00  0.00000000000E+00  0.90017807130E+02  0.90017807130E+02  0.00000000000E+00 0. -1.
         -2   -1    0    0    0  501 -0.00000000000E+00 -0.00000000000E+00 -0.33256339552E+01  0.33256339552E+01  0.00000000000E+00 0.  1.
        -11    1    1    2    0    0  0.29080548958E+01 -0.12970432778E+02  0.73222922072E+02  0.74419656184E+02  0.00000000000E+00 0. -1.
         11    1    1    2    0    0 -0.29080548958E+01  0.12970432778E+02  0.13469251103E+02  0.18923784902E+02  0.00000000000E+00 0.  1.
<mgrwt>
<rscale>  0 0.34604409E+02</rscale>
<asrwt>0</asrwt>
<pdfrwt beam="1">  1        2 0.13848892E-01 0.34604409E+02</pdfrwt>
<pdfrwt beam="2">  1       -2 0.51163606E-03 0.34604409E+02</pdfrwt>
<totfact> 0.14496996E+06</totfact>
</mgrwt>
</event>
<event>
 4    1  0.2126213E+000  0.4922835E+02  0.7546771E-02  0.1449549E+00
         -2   -1    0    0    0  501 -0.00000000000E+00  0.00000000000E+00  0.39659769034E+01  0.39659769034E+01  0.00000000000E+00 0. -1.
          2   -1    0    0  501    0  0.00000000000E+00 -0.00000000000E+00 -0.15276377864E+03  0.15276377864E+03  0.00000000000E+00 0.  1.
        -11    1    1    2    0    0  0.23605417491E+02  0.57471873545E+01 -0.61819453699E+02  0.66422065257E+02  0.00000000000E+00 0.  1.
         11    1    1    2    0    0 -0.23605417491E+02 -0.57471873545E+01 -0.86978348037E+02  0.90307690285E+02  0.00000000000E+00 0. -1.
<mgrwt>
<rscale>  0 0.49228350E+02</rscale>
<asrwt>0</asrwt>
<pdfrwt beam="2">  1        2 0.23502119E-01 0.49228350E+02</pdfrwt>
<pdfrwt beam="1">  1       -2 0.61015030E-03 0.49228350E+02</pdfrwt>
<totfact> 0.70223356E+05</totfact>
</mgrwt>
</event>
<event>
 4    1  0.2126213E+000  0.4890045E+02  0.7546771E-02  0.1451364E+00
          3   -1    0    0  501    0  0.00000000000E+00  0.00000000000E+00  0.16492376534E+03  0.16492376534E+03  0.00000000000E+00 0. -1.
         -3   -1    0    0    0  501 -0.00000000000E+00 -0.00000000000E+00 -0.36247869533E+01  0.36247869533E+01  0.00000000000E+00 0.  1.
        -13    1    1    2    0    0 -0.14735305333E+02  0.19373460983E+02  0.88624346566E+02  0.91906120677E+02  0.00000000000E+00 0. -1.
         13    1    1    2    0    0  0.14735305333E+02 -0.19373460983E+02  0.72674631819E+02  0.76642431614E+02  0.00000000000E+00 0.  1.
<mgrwt>
<rscale>  0 0.48900450E+02</rscale>
<asrwt>0</asrwt>
<pdfrwt beam="1">  1        3 0.25372881E-01 0.48900450E+02</pdfrwt>
<pdfrwt beam="2">  1       -3 0.55765966E-03 0.48900450E+02</pdfrwt>
<totfact> 0.15235743E+05</totfact>
</mgrwt>
</event>
<event>
 4    1  0.2126213E+000  0.3365383E+02  0.7546771E-02  0.1560890E+00
          1   -1    0    0  501    0  0.00000000000E+00  0.00000000000E+00  0.10614698329E+02  0.10614698329E+02  0.00000000000E+00 0.  1.
         -1   -1    0    0    0  501 -0.00000000000E+00 -0.00000000000E+00 -0.26674803963E+02  0.26674803963E+02  0.00000000000E+00 0. -1.
        -13    1    1    2    0    0 -0.80979854799E+01  0.11537897509E+02  0.21520612028E+01  0.14259446524E+02  0.00000000000E+00 0.  1.
         13    1    1    2    0    0  0.80979854799E+01 -0.11537897509E+02 -0.18212166837E+02  0.23030055767E+02  0.00000000000E+00 0. -1.
<mgrwt>
<rscale>  0 0.33653826E+02</rscale>
<asrwt>0</asrwt>
<pdfrwt beam="1">  1        1 0.16330306E-02 0.33653826E+02</pdfrwt>
<pdfrwt beam="2">  1       -1 0.41038159E-02 0.33653826E+02</pdfrwt>
<totfact> 0.11216290E+06</totfact>
</mgrwt>
</event>
<event>
 4    1  0.2126213E+000  0.2603035E+02  0.7546771E-02  0.1646629E+00
          2   -1    0    0  501    0  0.00000000000E+00  0.00000000000E+00  0.10693096541E+03  0.10693096541E+03  0.00000000000E+00 0.  1.
         -2   -1    0    0    0  501 -0.00000000000E+00 -0.00000000000E+00 -0.15841506509E+01  0.15841506509E+01  0.00000000000E+00 0. -1.
        -11    1    1    2    0    0 -0.25957877006E+01 -0.12749941756E+02  0.53962568246E+02  0.55509079440E+02  0.00000000000E+00 0.  1.
         11    1    1    2    0    0  0.25957877006E+01  0.12749941756E+02  0.51384246513E+02  0.53006036621E+02  0.00000000000E+00 0. -1.
<mgrwt>
<rscale>  0 0.26030348E+02</rscale>
<asrwt>0</asrwt>
<pdfrwt beam="1">  1        2 0.16450912E-01 0.26030348E+02</pdfrwt>
<pdfrwt beam="2">  1       -2 0.24371557E-03 0.26030348E+02</pdfrwt>
<totfact> 0.29569840E+06</totfact>
</mgrwt>
</event>
<event>
 4    1  0.2126213E+000  0.2743557E+02  0.7546771E-02  0.1628297E+00
         -2   -1    0    0    0  501 -0.00000000000E+00  0.00000000000E+00  0.22929299998E+01  0.22929299998E+01  0.00000000000E+00 0. -1.
          2   -1    0    0  501    0  0.00000000000E+00 -0.00000000000E+00 -0.82068656190E+02  0.82068656190E+02  0.00000000000E+00 0.  1.
        -11    1    1    2    0    0  0.29463790063E+01  0.13225428473E+02 -0.46471718492E+02  0.48406752909E+02  0.00000000000E+00 0. -1.
         11    1    1    2    0    0 -0.29463790063E+01 -0.13225428473E+02 -0.33304007698E+02  0.35954833281E+02  0.00000000000E+00 0.  1.
<mgrwt>
<rscale>  0 0.27435574E+02</rscale>
<asrwt>0</asrwt>
<pdfrwt beam="2">  1        2 0.12625948E-01 0.27435574E+02</pdfrwt>
<pdfrwt beam="1">  1       -2 0.35275844E-03 0.27435574E+02</pdfrwt>
<totfact> 0.24636324E+06</totfact>
</mgrwt>
</event>
<event>
 4    1  0.2126213E+000  0.3468165E+02  0.7546771E-02  0.1551446E+00
         -4   -1    0    0    0  501 -0.00000000000E+00  0.00000000000E+00  0.22508283653E+02  0.22508283653E+02  0.00000000000E+00 0. -1.
          4   -1    0    0  501    0  0.00000000000E+00 -0.00000000000E+00 -0.13359713307E+02  0.13359713307E+02  0.00000000000E+00 0.  1.
        -13    1    1    2    0    0 -0.79472784685E+01 -0.14093759415E+02  0.11025524581E+02  0.19579465820E+02  0.00000000000E+00 0. -1.
         13    1    1    2    0    0  0.79472784685E+01  0.14093759415E+02 -0.18769542347E+01  0.16288531140E+02  0.00000000000E+00 0.  1.
<mgrwt>
<rscale>  0 0.34681650E+02</rscale>
<asrwt>0</asrwt>
<pdfrwt beam="2">  1        4 0.20553405E-02 0.34681650E+02</pdfrwt>
<pdfrwt beam="1">  1       -4 0.34628129E-02 0.34681650E+02</pdfrwt>
<totfact> 0.36490172E+05</totfact>
</mgrwt>
</event>
<event>
 4    1  0.2126213E+000  0.2394291E+02  0.7546771E-02  0.1676667E+00
          4   -1    0    0  501    0  0.00000000000E+00  0.00000000000E+00  0.60070785495E+01  0.60070785495E+01  0.00000000000E+00 0. -1.
         -4   -1    0    0    0  501 -0.00000000000E+00 -0.00000000000E+00 -0.23857802691E+02  0.23857802691E+02  0.00000000000E+00 0.  1.
        -11    1    1    2    0    0 -0.36784770120E+01  0.98733945934E+01 -0.18362949911E+01  0.10695190191E+02  0.00000000000E+00 0. -1.
         11    1    1    2    0    0  0.36784770120E+01 -0.98733945934E+01 -0.16014429150E+02  0.19169691050E+02  0.00000000000E+00 0.  1.
<mgrwt>
<rscale>  0 0.23942907E+02</rscale>
<asrwt>0</asrwt>
<pdfrwt beam="1">  1        4 0.92416593E-03 0.23942907E+02</pdfrwt>
<pdfrwt beam="2">  1       -4 0.36704312E-02 0.23942907E+02</pdfrwt>
<totfact> 0.85559035E+05</totfact>
</mgrwt>
</event>
<event>
 4    1  0.2126213E+000  0.3443193E+02  0.7546771E-02  0.1553704E+00
         -2   -1    0    0    0  501 -0.00000000000E+00  0.00000000000E+00  0.13701632646E+03  0.13701632646E+03  0.00000000000E+00 0.  1.
          2   -1    0    0  501    0  0.00000000000E+00 -0.00000000000E+00 -0.21631694278E+01  0.21631694278E+01  0.00000000000E+00 0. -1.
        -11    1    1    2    0    0 -0.84901847548E+01  0.14960892623E+02  0.64631975108E+02  0.66882013663E+02  0.00000000000E+00 0. -1.
         11    1    1    2    0    0  0.84901847548E+01 -0.14960892623E+02  0.70221181927E+02  0.72297482227E+02  0.00000000000E+00 0.  1.
<mgrwt>
<rscale>  0 0.34431935E+02</rscale>
<asrwt>0</asrwt>
<pdfrwt beam="2">  1        2 0.33279540E-03 0.34431935E+02</pdfrwt>
<pdfrwt beam="1">  1       -2 0.21079428E-01 0.34431935E+02</pdfrwt>
<totfact> 0.79285019E+05</totfact>
</mgrwt>
</event>
<event>
 4    1  0.2126213E+000  0.2711372E+02  0.7546771E-02  0.1632375E+00
         -2   -1    0    0    0  501 -0.00000000000E+00  0.00000000000E+00  0.11461704283E+02  0.11461704283E+02  0.00000000000E+00 0. -1.
          2   -1    0    0  501    0  0.00000000000E+00 -0.00000000000E+00 -0.16035003624E+02  0.16035003624E+02  0.00000000000E+00 0.  1.
        -13    1    1    2    0    0  0.10935135539E+02  0.33241282162E+01  0.51075298623E+01  0.12518541406E+02  0.00000000000E+00 0. -1.
         13    1    1    2    0    0 -0.10935135539E+02 -0.33241282162E+01 -0.96808292031E+01  0.14978166500E+02  0.00000000000E+00 0.  1.
<mgrwt>
<rscale>  0 0.27113721E+02</rscale>
<asrwt>0</asrwt>
<pdfrwt beam="2">  1        2 0.24669236E-02 0.27113721E+02</pdfrwt>
<pdfrwt beam="1">  1       -2 0.17633391E-02 0.27113721E+02</pdfrwt>
<totfact> 0.20130763E+06</totfact>
</mgrwt>
</event>
<event>
 4    1  0.2126213E+000  0.3123494E+02  0.7546771E-02  0.1584826E+00
          3   -1    0    0  501    0  0.00000000000E+00  0.00000000000E+00  0.16901600547E+02  0.16901600547E+02  0.00000000000E+00 0. -1.
         -3   -1    0    0    0  501 -0.00000000000E+00 -0.00000000000E+00 -0.14430906130E+02  0.14430906130E+02  0.00000000000E+00 0.  1.
        -11    1    1    2    0    0  0.76386643104E+01  0.13618764394E+02  0.94207317180E+00  0.15643127498E+02  0.00000000000E+00 0. -1.
         11    1    1    2    0    0 -0.76386643104E+01 -0.13618764394E+02  0.15286212451E+01  0.15689379178E+02  0.00000000000E+00 0.  1.
<mgrwt>
<rscale>  0 0.31234943E+02</rscale>
<asrwt>0</asrwt>
<pdfrwt beam="1">  1        3 0.26002462E-02 0.31234943E+02</pdfrwt>
<pdfrwt beam="2">  1       -3 0.22201394E-02 0.31234943E+02</pdfrwt>
<totfact> 0.62906349E+05</totfact>
</mgrwt>
</event>
<event>
 4    1  0.2126213E+000  0.2323460E+02  0.7546771E-02  0.1687735E+00
         -2   -1    0    0    0  501 -0.00000000000E+00  0.00000000000E+00  0.65867428684E+02  0.65867428684E+02  0.00000000000E+00 0.  1.
          2   -1    0    0  501    0  0.00000000000E+00 -0.00000000000E+00 -0.20489886703E+01  0.20489886703E+01  0.00000000000E+00 0. -1.
        -13    1    1    2    0    0 -0.23155882203E+01  0.97633700949E+01  0.49022624732E+02  0.50039015578E+02  0.00000000000E+00 0.  1.
         13    1    1    2    0    0  0.23155882203E+01 -0.97633700949E+01  0.14795815282E+02  0.17877401776E+02  0.00000000000E+00 0. -1.
<mgrwt>
<rscale>  0 0.23234596E+02</rscale>
<asrwt>0</asrwt>
<pdfrwt beam="2">  1        2 0.31522908E-03 0.23234596E+02</pdfrwt>
<pdfrwt beam="1">  1       -2 0.10133449E-01 0.23234596E+02</pdfrwt>
<totfact> 0.23283883E+06</totfact>
</mgrwt>
</event>
<event>
 4    1  0.2126213E+000  0.2323040E+02  0.7546771E-02  0.1687802E+00
         -2   -1    0    0    0  501 -0.00000000000E+00  0.00000000000E+00  0.19692836298E+01  0.19692836298E+01  0.00000000000E+00 0.  1.
          2   -1    0    0  501    0  0.00000000000E+00 -0.00000000000E+00 -0.68508605355E+02  0.68508605355E+02  0.00000000000E+00 0. -1.
        -11    1    1    2    0    0 -0.88155899737E+01 -0.52881099927E+01 -0.49673343662E+02  0.50725928325E+02  0.00000000000E+00 0.  1.
         11    1    1    2    0    0  0.88155899737E+01  0.52881099927E+01 -0.16865978064E+02  0.19751960660E+02  0.00000000000E+00 0. -1.
<mgrwt>
<rscale>  0 0.23230400E+02</rscale>
<asrwt>0</asrwt>
<pdfrwt beam="2">  1        2 0.10539785E-01 0.23230400E+02</pdfrwt>
<pdfrwt beam="1">  1       -2 0.30296672E-03 0.23230400E+02</pdfrwt>
<totfact> 0.34868901E+06</totfact>
</mgrwt>
</event>
<event>
 4    1  0.2126213E+000  0.3404255E+02  0.7546771E-02  0.1557271E+00
          1   -1    0    0  501    0  0.00000000000E+00  0.00000000000E+00  0.42660654286E+01  0.42660654286E+01  0.00000000000E+00 0. -1.
         -1   -1    0    0    0  501 -0.00000000000E+00 -0.00000000000E+00 -0.67913595758E+02  0.67913595758E+02  0.00000000000E+00 0.  1.
        -11    1    1    2    0    0 -0.10294064960E+02 -0.40122575118E+01 -0.43698249793E+01  0.11881134378E+02  0.00000000000E+00 0. -1.
         11    1    1    2    0    0  0.10294064960E+02  0.40122575118E+01 -0.59277705350E+02  0.60298526809E+02  0.00000000000E+00 0.  1.
<mgrwt>
<rscale>  0 0.34042552E+02</rscale>
<asrwt>0</asrwt>
<pdfrwt beam="1">  1        1 0.65631781E-03 0.34042552E+02</pdfrwt>
<pdfrwt beam="2">  1       -1 0.10448245E-01 0.34042552E+02</pdfrwt>
<totfact> 0.99902354E+05</totfact>
</mgrwt>
</event>
<event>
 4    1  0.2126213E+000  0.2813169E+02  0.7546771E-02  0.1619709E+00
         -2   -1    0    0    0  501 -0.00000000000E+00  0.00000000000E+00  0.22420088699E+01  0.22420088699E+01  0.00000000000E+00 0. -1.
          2   -1    0    0  501    0  0.00000000000E+00 -0.00000000000E+00 -0.88245887056E+02  0.88245887056E+02  0.00000000000E+00 0.  1.
        -11    1    1    2    0    0  0.48062684085E+01  0.13143511589E+02 -0.38457615255E+02  0.40924812571E+02  0.00000000000E+00 0.  1.
         11    1    1    2    0    0 -0.48062684085E+01 -0.13143511589E+02 -0.47546262931E+02  0.49563083354E+02  0.00000000000E+00 0. -1.
<mgrwt>
<rscale>  0 0.28131695E+02</rscale>
<asrwt>0</asrwt>
<pdfrwt beam="2">  1        2 0.13576290E-01 0.28131695E+02</pdfrwt>
<pdfrwt beam="1">  1       -2 0.34492444E-03 0.28131695E+02</pdfrwt>
<totfact> 0.23607406E+06</totfact>
</mgrwt>
</event>
<event>
 4    1  0.2126213E+000  0.2831816E+02  0.7546771E-02  0.1617460E+00
          2   -1    0    0  501    0  0.00000000000E+00  0.00000000000E+00  0.87869584443E+02  0.87869584443E+02  0.00000000000E+00 0. -1.
         -2   -1    0    0    0  501 -0.00000000000E+00 -0.00000000000E+00 -0.22815577640E+01  0.22815577640E+01  0.00000000000E+00 0.  1.
        -13    1    1    2    0    0  0.13819134276E+02 -0.28040847016E+01  0.46881036953E+02  0.48955724782E+02  0.00000000000E+00 0. -1.
         13    1    1    2    0    0 -0.13819134276E+02  0.28040847016E+01  0.38706989726E+02  0.41195417425E+02  0.00000000000E+00 0.  1.
<mgrwt>
<rscale>  0 0.28318159E+02</rscale>
<asrwt>0</asrwt>
<pdfrwt beam="1">  1        2 0.13518395E-01 0.28318159E+02</pdfrwt>
<pdfrwt beam="2">  1       -2 0.35100895E-03 0.28318159E+02</pdfrwt>
<totfact> 0.23222978E+06</totfact>
</mgrwt>
</event>
<event>
 4    1  0.2126213E+000  0.2170302E+02  0.7546771E-02  0.1713439E+00
         -1   -1    0    0    0  501 -0.00000000000E+00  0.00000000000E+00  0.53446354848E+01  0.53446354848E+01  0.00000000000E+00 0.  1.
          1   -1    0    0  501    0  0.00000000000E+00 -0.00000000000E+00 -0.22032430591E+02  0.22032430591E+02  0.00000000000E+00 0. -1.
        -13    1    1    2    0    0 -0.65656920516E+01 -0.81713580683E+01 -0.11884008782E+02  0.15846421348E+02  0.00000000000E+00 0. -1.
         13    1    1    2    0    0  0.65656920516E+01  0.81713580683E+01 -0.48037863241E+01  0.11530644728E+02  0.00000000000E+00 0.  1.
<mgrwt>
<rscale>  0 0.21703024E+02</rscale>
<asrwt>0</asrwt>
<pdfrwt beam="2">  1        1 0.33896046E-02 0.21703024E+02</pdfrwt>
<pdfrwt beam="1">  1       -1 0.82225163E-03 0.21703024E+02</pdfrwt>
<totfact> 0.33148568E+06</totfact>
</mgrwt>
</event>
<event>
 4    1  0.2126213E+000  0.4036586E+02  0.7546771E-02  0.1505536E+00
          2   -1    0    0  501    0  0.00000000000E+00  0.00000000000E+00  0.16475378103E+03  0.16475378103E+03  0.00000000000E+00 0. -1.
         -2   -1    0    0    0  501 -0.00000000000E+00 -0.00000000000E+00 -0.24724814611E+01  0.24724814611E+01  0.00000000000E+00 0.  1.
        -13    1    1    2    0    0 -0.19313981476E+01 -0.19584994810E+02  0.99690037329E+02  0.10161400427E+03  0.00000000000E+00 0. -1.
         13    1    1    2    0    0  0.19313981476E+01  0.19584994810E+02  0.62591262241E+02  0.65612258225E+02  0.00000000000E+00 0.  1.
<mgrwt>
<rscale>  0 0.40365860E+02</rscale>
<asrwt>0</asrwt>
<pdfrwt beam="1">  1        2 0.25346727E-01 0.40365860E+02</pdfrwt>
<pdfrwt beam="2">  1       -2 0.38038189E-03 0.40365860E+02</pdfrwt>
<totfact> 0.11748105E+06</totfact>
</mgrwt>
</event>
<event>
 4    1  0.2126213E+000  0.2029719E+02  0.7546771E-02  0.1739482E+00
          2   -1    0    0  501    0  0.00000000000E+00  0.00000000000E+00  0.60773077988E+01  0.60773077988E+01  0.00000000000E+00 0.  1.
         -2   -1    0    0    0  501 -0.00000000000E+00 -0.00000000000E+00 -0.16947296312E+02  0.16947296312E+02  0.00000000000E+00 0. -1.
        -13    1    1    2    0    0  0.58964934908E+01 -0.82132682752E+01 -0.44411861006E+01  0.11043122078E+02  0.00000000000E+00 0.  1.
         13    1    1    2    0    0 -0.58964934908E+01  0.82132682752E+01 -0.64288024129E+01  0.11981482033E+02  0.00000000000E+00 0. -1.
<mgrwt>
<rscale>  0 0.20297186E+02</rscale>
<asrwt>0</asrwt>
<pdfrwt beam="1">  1        2 0.93497043E-03 0.20297186E+02</pdfrwt>
<pdfrwt beam="2">  1       -2 0.26072764E-02 0.20297186E+02</pdfrwt>
<totfact> 0.36745005E+06</totfact>
</mgrwt>
</event>
<event>
 4    1  0.2126213E+000  0.4595231E+02  0.7546771E-02  0.1468483E+00
         -2   -1    0    0    0  501 -0.00000000000E+00  0.00000000000E+00  0.14150249686E+02  0.14150249686E+02  0.00000000000E+00 0. -1.
          2   -1    0    0  501    0  0.00000000000E+00 -0.00000000000E+00 -0.37307030142E+02  0.37307030142E+02  0.00000000000E+00 0.  1.
        -13    1    1    2    0    0  0.20151887423E+02 -0.49851170995E+01 -0.55229019121E+00  0.20766679650E+02  0.00000000000E+00 0. -1.
         13    1    1    2    0    0 -0.20151887423E+02  0.49851170995E+01 -0.22604490264E+02  0.30690600178E+02  0.00000000000E+00 0.  1.
<mgrwt>
<rscale>  0 0.45952314E+02</rscale>
<asrwt>0</asrwt>
<pdfrwt beam="2">  1        2 0.57395429E-02 0.45952314E+02</pdfrwt>
<pdfrwt beam="1">  1       -2 0.21769616E-02 0.45952314E+02</pdfrwt>
<totfact> 0.60505104E+05</totfact>
</mgrwt>
</event>
<event>
 4    1  0.2126213E+000  0.1995411E+03  0.7546771E-02  0.1150127E+00
         -2   -1    0    0    0  501 -0.00000000000E+00  0.00000000000E+00  0.29192682145E+03  0.29192682145E+03  0.00000000000E+00 0.  1.
          2   -1    0    0  501    0  0.00000000000E+00 -0.00000000000E+00 -0.34098131167E+02  0.34098131167E+02  0.00000000000E+00 0. -1.
        -11    1    1    2    0    0  0.66251267240E+02  0.14450415712E+02  0.24849019274E+03  0.25757604860E+03  0.00000000000E+00 0.  1.
         11    1    1    2    0    0 -0.66251267240E+02 -0.14450415712E+02  0.93384975483E+01  0.68448904021E+02  0.00000000000E+00 0. -1.
<mgrwt>
<rscale>  0 0.19954106E+03</rscale>
<asrwt>0</asrwt>
<pdfrwt beam="2">  1        2 0.52458665E-02 0.19954106E+03</pdfrwt>
<pdfrwt beam="1">  1       -2 0.44911817E-01 0.19954106E+03</pdfrwt>
<totfact> 0.68230491E+03</totfact>
</mgrwt>
</event>
<event>
 4    1  0.2126213E+000  0.2222808E+02  0.7546771E-02  0.1704337E+00
          2   -1    0    0  501    0  0.00000000000E+00  0.00000000000E+00  0.75384818425E+02  0.75384818425E+02  0.00000000000E+00 0.  1.
         -2   -1    0    0    0  501 -0.00000000000E+00 -0.00000000000E+00 -0.16385518802E+01  0.16385518802E+01  0.00000000000E+00 0. -1.
        -11    1    1    2    0    0 -0.15022231018E+01 -0.10857276235E+02  0.43248246641E+02  0.44615557366E+02  0.00000000000E+00 0.  1.
         11    1    1    2    0    0  0.15022231018E+01  0.10857276235E+02  0.30498019904E+02  0.32407812940E+02  0.00000000000E+00 0. -1.
<mgrwt>
<rscale>  0 0.22228085E+02</rscale>
<asrwt>0</asrwt>
<pdfrwt beam="1">  1        2 0.11597662E-01 0.22228085E+02</pdfrwt>
<pdfrwt beam="2">  1       -2 0.25208496E-03 0.22228085E+02</pdfrwt>
<totfact> 0.39252633E+06</totfact>
</mgrwt>
</event>
<event>
 4    1  0.2126213E+000  0.7370908E+02  0.7546771E-02  0.1347916E+00
         -2   -1    0    0    0  501 -0.00000000000E+00  0.00000000000E+00  0.10810682010E+02  0.10810682010E+02  0.00000000000E+00 0.  1.
          2   -1    0    0  501    0  0.00000000000E+00 -0.00000000000E+00 -0.12564029713E+03  0.12564029713E+03  0.00000000000E+00 0. -1.
        -13    1    1    2    0    0  0.45610397384E+01  0.36205188599E+02 -0.47860245085E+02  0.60184896981E+02  0.00000000000E+00 0. -1.
         13    1    1    2    0    0 -0.45610397384E+01 -0.36205188599E+02 -0.66969370033E+02  0.76266082157E+02  0.00000000000E+00 0.  1.
<mgrwt>
<rscale>  0 0.73709085E+02</rscale>
<asrwt>0</asrwt>
<pdfrwt beam="2">  1        2 0.19329277E-01 0.73709085E+02</pdfrwt>
<pdfrwt beam="1">  1       -2 0.16631818E-02 0.73709085E+02</pdfrwt>
<totfact> 0.23355297E+05</totfact>
</mgrwt>
</event>
<event>
 4    1  0.2126213E+000  0.3127061E+02  0.7546771E-02  0.1584454E+00
         -4   -1    0    0    0  501 -0.00000000000E+00  0.00000000000E+00  0.14568562288E+03  0.14568562288E+03  0.00000000000E+00 0. -1.
          4   -1    0    0  501    0  0.00000000000E+00 -0.00000000000E+00 -0.16780159704E+01  0.16780159704E+01  0.00000000000E+00 0.  1.
        -11    1    1    2    0    0  0.81223870673E+01 -0.13164892784E+02  0.82724393776E+02  0.84158261028E+02  0.00000000000E+00 0. -1.
         11    1    1    2    0    0 -0.81223870673E+01  0.13164892784E+02  0.61283213138E+02  0.63205377826E+02  0.00000000000E+00 0.  1.
<mgrwt>
<rscale>  0 0.31270613E+02</rscale>
<asrwt>0</asrwt>
<pdfrwt beam="2">  1        4 0.25815642E-03 0.31270613E+02</pdfrwt>
<pdfrwt beam="1">  1       -4 0.22413163E-01 0.31270613E+02</pdfrwt>
<totfact> 0.33529317E+05</totfact>
</mgrwt>
</event>
<event>
 4    1  0.2126213E+000  0.2074124E+02  0.7546771E-02  0.1730977E+00
         -3   -1    0    0    0  501 -0.00000000000E+00  0.00000000000E+00  0.64125743304E+02  0.64125743304E+02  0.00000000000E+00 0.  1.
          3   -1    0    0  501    0  0.00000000000E+00 -0.00000000000E+00 -0.16771697572E+01  0.16771697572E+01  0.00000000000E+00 0. -1.
        -13    1    1    2    0    0 -0.80310493440E-01  0.10332114787E+02  0.34045393115E+02  0.35578755432E+02  0.00000000000E+00 0.  1.
         13    1    1    2    0    0  0.80310493440E-01 -0.10332114787E+02  0.28403180432E+02  0.30224157630E+02  0.00000000000E+00 0. -1.
<mgrwt>
<rscale>  0 0.20741240E+02</rscale>
<asrwt>0</asrwt>
<pdfrwt beam="2">  1        3 0.25802617E-03 0.20741240E+02</pdfrwt>
<pdfrwt beam="1">  1       -3 0.98654971E-02 0.20741240E+02</pdfrwt>
<totfact> 0.14321936E+06</totfact>
</mgrwt>
</event>
<event>
 4    1  0.2126213E+000  0.2795303E+02  0.7546771E-02  0.1621884E+00
         -4   -1    0    0    0  501 -0.00000000000E+00  0.00000000000E+00  0.19613639019E+02  0.19613639019E+02  0.00000000000E+00 0. -1.
          4   -1    0    0  501    0  0.00000000000E+00 -0.00000000000E+00 -0.99595446627E+01  0.99595446627E+01  0.00000000000E+00 0.  1.
        -11    1    1    2    0    0 -0.11447047458E+02  0.70539887548E+01  0.88624762747E+01  0.16103947919E+02  0.00000000000E+00 0. -1.
         11    1    1    2    0    0  0.11447047458E+02 -0.70539887548E+01  0.79161808140E+00  0.13469235763E+02  0.00000000000E+00 0.  1.
<mgrwt>
<rscale>  0 0.27953026E+02</rscale>
<asrwt>0</asrwt>
<pdfrwt beam="2">  1        4 0.15322376E-02 0.27953026E+02</pdfrwt>
<pdfrwt beam="1">  1       -4 0.30174829E-02 0.27953026E+02</pdfrwt>
<totfact> 0.61067916E+05</totfact>
</mgrwt>
</event>
<event>
 4    1  0.2126213E+000  0.2341777E+02  0.7546771E-02  0.1684826E+00
         -2   -1    0    0    0  501 -0.00000000000E+00  0.00000000000E+00  0.20544041764E+01  0.20544041764E+01  0.00000000000E+00 0. -1.
          2   -1    0    0  501    0  0.00000000000E+00 -0.00000000000E+00 -0.66733680734E+02  0.66733680734E+02  0.00000000000E+00 0.  1.
        -13    1    1    2    0    0  0.68483660773E+01  0.92571351142E+01 -0.26106131949E+02  0.28532872162E+02  0.00000000000E+00 0.  1.
         13    1    1    2    0    0 -0.68483660773E+01 -0.92571351142E+01 -0.38573144609E+02  0.40255212749E+02  0.00000000000E+00 0. -1.
<mgrwt>
<rscale>  0 0.23417767E+02</rscale>
<asrwt>0</asrwt>
<pdfrwt beam="2">  1        2 0.10266720E-01 0.23417767E+02</pdfrwt>
<pdfrwt beam="1">  1       -2 0.31606217E-03 0.23417767E+02</pdfrwt>
<totfact> 0.34069017E+06</totfact>
</mgrwt>
</event>
<event>
 4    1  0.2126213E+000  0.2554792E+02  0.7546771E-02  0.1653254E+00
          1   -1    0    0  501    0  0.00000000000E+00  0.00000000000E+00  0.84441037053E+01  0.84441037053E+01  0.00000000000E+00 0.  1.
         -1   -1    0    0    0  501 -0.00000000000E+00 -0.00000000000E+00 -0.19324028800E+02  0.19324028800E+02  0.00000000000E+00 0. -1.
        -11    1    1    2    0    0  0.10763539020E+02  0.68320517297E+01 -0.45681329090E+01  0.13542471759E+02  0.00000000000E+00 0. -1.
         11    1    1    2    0    0 -0.10763539020E+02 -0.68320517297E+01 -0.63117921856E+01  0.14225660746E+02  0.00000000000E+00 0.  1.
<mgrwt>
<rscale>  0 0.25547924E+02</rscale>
<asrwt>0</asrwt>
<pdfrwt beam="1">  1        1 0.12990929E-02 0.25547924E+02</pdfrwt>
<pdfrwt beam="2">  1       -1 0.29729275E-02 0.25547924E+02</pdfrwt>
<totfact> 0.21672361E+06</totfact>
</mgrwt>
</event>
<event>
 4    1  0.2126213E+000  0.3496661E+02  0.7546771E-02  0.1548897E+00
         -2   -1    0    0    0  501 -0.00000000000E+00  0.00000000000E+00  0.36910698616E+02  0.36910698616E+02  0.00000000000E+00 0. -1.
          2   -1    0    0  501    0  0.00000000000E+00 -0.00000000000E+00 -0.82812279511E+01  0.82812279511E+01  0.00000000000E+00 0.  1.
        -13    1    1    2    0    0  0.10635639996E+02  0.10180038452E+02  0.26501741848E+02  0.30316535785E+02  0.00000000000E+00 0. -1.
         13    1    1    2    0    0 -0.10635639996E+02 -0.10180038452E+02  0.21277288170E+01  0.14875390782E+02  0.00000000000E+00 0.  1.
<mgrwt>
<rscale>  0 0.34966607E+02</rscale>
<asrwt>0</asrwt>
<pdfrwt beam="2">  1        2 0.12740351E-02 0.34966607E+02</pdfrwt>
<pdfrwt beam="1">  1       -2 0.56785689E-02 0.34966607E+02</pdfrwt>
<totfact> 0.99552000E+05</totfact>
</mgrwt>
</event>
<event>
 4    1  0.2126213E+000  0.3550047E+02  0.7546771E-02  0.1544201E+00
         -2   -1    0    0    0  501 -0.00000000000E+00  0.00000000000E+00  0.32163565030E+02  0.32163565030E+02  0.00000000000E+00 0.  1.
          2   -1    0    0  501    0  0.00000000000E+00 -0.00000000000E+00 -0.97958932221E+01  0.97958932221E+01  0.00000000000E+00 0. -1.
        -13    1    1    2    0    0  0.87085493080E+01 -0.53751464126E+01 -0.59579676133E+01  0.11841807636E+02  0.00000000000E+00 0. -1.
         13    1    1    2    0    0 -0.87085493080E+01  0.53751464126E+01  0.28325639421E+02  0.30117650616E+02  0.00000000000E+00 0.  1.
<mgrwt>
<rscale>  0 0.35500470E+02</rscale>
<asrwt>0</asrwt>
<pdfrwt beam="2">  1        2 0.15070605E-02 0.35500470E+02</pdfrwt>
<pdfrwt beam="1">  1       -2 0.49482407E-02 0.35500470E+02</pdfrwt>
<totfact> 0.97844044E+05</totfact>
</mgrwt>
</event>
<event>
 4    1  0.2126213E+000  0.4699139E+02  0.7546771E-02  0.1462279E+00
         -2   -1    0    0    0  501 -0.00000000000E+00  0.00000000000E+00  0.15976329375E+02  0.15976329375E+02  0.00000000000E+00 0. -1.
          2   -1    0    0  501    0  0.00000000000E+00 -0.00000000000E+00 -0.34554098226E+02  0.34554098226E+02  0.00000000000E+00 0.  1.
        -13    1    1    2    0    0  0.15921495585E+01 -0.23318100197E+02 -0.11873868909E+02  0.26215596500E+02  0.00000000000E+00 0.  1.
         13    1    1    2    0    0 -0.15921495585E+01  0.23318100197E+02 -0.67038999417E+01  0.24314831100E+02  0.00000000000E+00 0. -1.
<mgrwt>
<rscale>  0 0.46991389E+02</rscale>
<asrwt>0</asrwt>
<pdfrwt beam="2">  1        2 0.53160151E-02 0.46991389E+02</pdfrwt>
<pdfrwt beam="1">  1       -2 0.24578969E-02 0.46991389E+02</pdfrwt>
<totfact> 0.56419766E+05</totfact>
</mgrwt>
</event>
<event>
 4    1  0.2126213E+000  0.1296230E+03  0.7546771E-02  0.1228016E+00
          2   -1    0    0  501    0  0.00000000000E+00  0.00000000000E+00  0.37346343509E+03  0.37346343509E+03  0.00000000000E+00 0. -1.
         -2   -1    0    0    0  501 -0.00000000000E+00 -0.00000000000E+00 -0.11247498447E+02  0.11247498447E+02  0.00000000000E+00 0.  1.
        -11    1    1    2    0    0  0.50098956887E+02 -0.15089885768E+02  0.67590499308E+02  0.85475644077E+02  0.00000000000E+00 0.  1.
         11    1    1    2    0    0 -0.50098956887E+02  0.15089885768E+02  0.29462543733E+03  0.29923528946E+03  0.00000000000E+00 0. -1.
<mgrwt>
<rscale>  0 0.12962298E+03</rscale>
<asrwt>0</asrwt>
<pdfrwt beam="1">  1        2 0.57455903E-01 0.12962298E+03</pdfrwt>
<pdfrwt beam="2">  1       -2 0.17303847E-02 0.12962298E+03</pdfrwt>
<totfact> 0.75050101E+04</totfact>
</mgrwt>
</event>
<event>
 4    1  0.2126213E+000  0.3944081E+02  0.7546771E-02  0.1512367E+00
         -1   -1    0    0    0  501 -0.00000000000E+00  0.00000000000E+00  0.97492832056E+01  0.97492832056E+01  0.00000000000E+00 0. -1.
          1   -1    0    0  501    0  0.00000000000E+00 -0.00000000000E+00 -0.39889533491E+02  0.39889533491E+02  0.00000000000E+00 0.  1.
        -13    1    1    2    0    0 -0.82250519257E+01 -0.17859473465E+02 -0.16971386104E+02  0.25973837181E+02  0.00000000000E+00 0.  1.
         13    1    1    2    0    0  0.82250519257E+01  0.17859473465E+02 -0.13168864181E+02  0.23664979515E+02  0.00000000000E+00 0. -1.
<mgrwt>
<rscale>  0 0.39440809E+02</rscale>
<asrwt>0</asrwt>
<pdfrwt beam="2">  1        1 0.61368512E-02 0.39440809E+02</pdfrwt>
<pdfrwt beam="1">  1       -1 0.14998897E-02 0.39440809E+02</pdfrwt>
<totfact> 0.83006341E+05</totfact>
</mgrwt>
</event>
<event>
 4    1  0.2126213E+000  0.2327295E+02  0.7546771E-02  0.1687123E+00
          2   -1    0    0  501    0  0.00000000000E+00  0.00000000000E+00  0.39542901936E+01  0.39542901936E+01  0.00000000000E+00 0.  1.
         -2   -1    0    0    0  501 -0.00000000000E+00 -0.00000000000E+00 -0.34243210453E+02  0.34243210453E+02  0.00000000000E+00 0. -1.
        -13    1    1    2    0    0  0.47323311384E+01 -0.10247200683E+02 -0.10500032188E+02  0.15415925395E+02  0.00000000000E+00 0.  1.
         13    1    1    2    0    0 -0.47323311384E+01  0.10247200683E+02 -0.19788888072E+02  0.22781575252E+02  0.00000000000E+00 0. -1.
<mgrwt>
<rscale>  0 0.23272954E+02</rscale>
<asrwt>0</asrwt>
<pdfrwt beam="1">  1        2 0.60835233E-03 0.23272954E+02</pdfrwt>
<pdfrwt beam="2">  1       -2 0.52681863E-02 0.23272954E+02</pdfrwt>
<totfact> 0.25447380E+06</totfact>
</mgrwt>
</event>
<event>
 4    1  0.2126213E+000  0.3135681E+02  0.7546771E-02  0.1583558E+00
         -2   -1    0    0    0  501 -0.00000000000E+00  0.00000000000E+00  0.75692570637E+01  0.75692570637E+01  0.00000000000E+00 0. -1.
          2   -1    0    0  501    0  0.00000000000E+00 -0.00000000000E+00 -0.32475096835E+02  0.32475096835E+02  0.00000000000E+00 0.  1.
        -11    1    1    2    0    0 -0.21861416901E+01 -0.12624379033E+02 -0.23993013382E+02  0.27199611258E+02  0.00000000000E+00 0.  1.
         11    1    1    2    0    0  0.21861416901E+01  0.12624379033E+02 -0.91282638926E+00  0.12844742640E+02  0.00000000000E+00 0. -1.
<mgrwt>
<rscale>  0 0.31356808E+02</rscale>
<asrwt>0</asrwt>
<pdfrwt beam="2">  1        2 0.49961687E-02 0.31356808E+02</pdfrwt>
<pdfrwt beam="1">  1       -2 0.11645011E-02 0.31356808E+02</pdfrwt>
<totfact> 0.15348824E+06</totfact>
</mgrwt>
</event>
<event>
 4    1  0.2126213E+000  0.2236452E+02  0.7546771E-02  0.1702023E+00
          4   -1    0    0  501    0  0.00000000000E+00  0.00000000000E+00  0.12597056085E+02  0.12597056085E+02  0.00000000000E+00 0. -1.
         -4   -1    0    0    0  501 -0.00000000000E+00 -0.00000000000E+00 -0.99263604991E+01  0.99263604991E+01  0.00000000000E+00 0.  1.
        -13    1    1    2    0    0  0.69298793760E+01  0.76620822056E+01 -0.29743303788E+01  0.10750691749E+02  0.00000000000E+00 0. -1.
         13    1    1    2    0    0 -0.69298793760E+01 -0.76620822056E+01  0.56450259646E+01  0.11772724835E+02  0.00000000000E+00 0.  1.
<mgrwt>
<rscale>  0 0.22364518E+02</rscale>
<asrwt>0</asrwt>
<pdfrwt beam="1">  1        4 0.19380086E-02 0.22364518E+02</pdfrwt>
<pdfrwt beam="2">  1       -4 0.15271324E-02 0.22364518E+02</pdfrwt>
<totfact> 0.10198976E+06</totfact>
</mgrwt>
</event>
<event>
 4    1  0.2126213E+000  0.5666670E+02  0.7546771E-02  0.1412377E+00
         -3   -1    0    0    0  501 -0.00000000000E+00  0.00000000000E+00  0.62747412498E+01  0.62747412498E+01  0.00000000000E+00 0.  1.
          3   -1    0    0  501    0  0.00000000000E+00 -0.00000000000E+00 -0.12793812053E+03  0.12793812053E+03  0.00000000000E+00 0. -1.
        -13    1    1    2    0    0  0.19487799513E+02  0.38493846703E+01 -0.10868319128E+03  0.11048361037E+03  0.00000000000E+00 0. -1.
         13    1    1    2    0    0 -0.19487799513E+02 -0.38493846703E+01 -0.12980187999E+02  0.23729251414E+02  0.00000000000E+00 0.  1.
<mgrwt>
<rscale>  0 0.56666696E+02</rscale>
<asrwt>0</asrwt>
<pdfrwt beam="2">  1        3 0.19682787E-01 0.56666696E+02</pdfrwt>
<pdfrwt beam="1">  1       -3 0.96534484E-03 0.56666696E+02</pdfrwt>
<totfact> 0.11280532E+05</totfact>
</mgrwt>
</event>
<event>
 4    1  0.2126213E+000  0.4460731E+02  0.7546771E-02  0.1476808E+00
         -2   -1    0    0    0  501 -0.00000000000E+00  0.00000000000E+00  0.25016144884E+02  0.25016144884E+02  0.00000000000E+00 0.  1.
          2   -1    0    0  501    0  0.00000000000E+00 -0.00000000000E+00 -0.19885275476E+02  0.19885275476E+02  0.00000000000E+00 0. -1.
        -11    1    1    2    0    0 -0.22269570356E+02 -0.11456173074E+01  0.21077616696E+01  0.22398412044E+02  0.00000000000E+00 0. -1.
         11    1    1    2    0    0  0.22269570356E+02  0.11456173074E+01  0.30231077387E+01  0.22503008315E+02  0.00000000000E+00 0.  1.
<mgrwt>
<rscale>  0 0.44607306E+02</rscale>
<asrwt>0</asrwt>
<pdfrwt beam="2">  1        2 0.30592731E-02 0.44607306E+02</pdfrwt>
<pdfrwt beam="1">  1       -2 0.38486377E-02 0.44607306E+02</pdfrwt>
<totfact> 0.59449756E+05</totfact>
</mgrwt>
</event>
<event>
 4    1  0.2126213E+000  0.1430989E+03  0.7546771E-02  0.1209219E+00
          2   -1    0    0  501    0  0.00000000000E+00  0.00000000000E+00  0.69865301813E+02  0.69865301813E+02  0.00000000000E+00 0. -1.
         -2   -1    0    0    0  501 -0.00000000000E+00 -0.00000000000E+00 -0.73274215448E+02  0.73274215448E+02  0.00000000000E+00 0.  1.
        -13    1    1    2    0    0 -0.26323828114E+02  0.27699487671E+02 -0.62212275755E+02  0.73010771797E+02  0.00000000000E+00 0.  1.
         13    1    1    2    0    0  0.26323828114E+02 -0.27699487671E+02  0.58803362120E+02  0.70128745464E+02  0.00000000000E+00 0. -1.
<mgrwt>
<rscale>  0 0.14309892E+03</rscale>
<asrwt>0</asrwt>
<pdfrwt beam="1">  1        2 0.10748508E-01 0.14309892E+03</pdfrwt>
<pdfrwt beam="2">  1       -2 0.11272956E-01 0.14309892E+03</pdfrwt>
<totfact> 0.29590736E+04</totfact>
</mgrwt>
</event>
<event>
 4    1  0.2126213E+000  0.2210237E+02  0.7546771E-02  0.1706487E+00
         -4   -1    0    0    0  501 -0.00000000000E+00  0.00000000000E+00  0.81319030649E+01  0.81319030649E+01  0.00000000000E+00 0. -1.
          4   -1    0    0  501    0  0.00000000000E+00 -0.00000000000E+00 -0.15018469891E+02  0.15018469891E+02  0.00000000000E+00 0.  1.
        -13    1    1    2    0    0 -0.65689382157E+01  0.88384517318E+01 -0.44143699251E+01  0.11864056647E+02  0.00000000000E+00 0. -1.
         13    1    1    2    0    0  0.65689382157E+01 -0.88384517318E+01 -0.24721969008E+01  0.11286316308E+02  0.00000000000E+00 0.  1.
<mgrwt>
<rscale>  0 0.22102375E+02</rscale>
<asrwt>0</asrwt>
<pdfrwt beam="2">  1        4 0.23105338E-02 0.22102375E+02</pdfrwt>
<pdfrwt beam="1">  1       -4 0.12510620E-02 0.22102375E+02</pdfrwt>
<totfact> 0.10426815E+06</totfact>
</mgrwt>
</event>
<event>
 4    1  0.2126213E+000  0.2274065E+02  0.7546771E-02  0.1695749E+00
          1   -1    0    0  501    0  0.00000000000E+00  0.00000000000E+00  0.20325246983E+01  0.20325246983E+01  0.00000000000E+00 0. -1.
         -1   -1    0    0    0  501 -0.00000000000E+00 -0.00000000000E+00 -0.63607753598E+02  0.63607753598E+02  0.00000000000E+00 0.  1.
        -11    1    1    2    0    0  0.10551020062E+02  0.19176529908E+01 -0.19878842417E+02  0.22586938553E+02  0.00000000000E+00 0. -1.
         11    1    1    2    0    0 -0.10551020062E+02 -0.19176529908E+01 -0.41696386482E+02  0.43053339743E+02  0.00000000000E+00 0.  1.
<mgrwt>
<rscale>  0 0.22740653E+02</rscale>
<asrwt>0</asrwt>
<pdfrwt beam="1">  1        1 0.31269612E-03 0.22740653E+02</pdfrwt>
<pdfrwt beam="2">  1       -1 0.97858080E-02 0.22740653E+02</pdfrwt>
<totfact> 0.25568380E+06</totfact>
</mgrwt>
</event>
<event>
 4    1  0.2126213E+000  0.2495811E+02  0.7546771E-02  0.1661604E+00
         -2   -1    0    0    0  501 -0.00000000000E+00  0.00000000000E+00  0.12056924444E+02  0.12056924444E+02  0.00000000000E+00 0.  1.
          2   -1    0    0  501    0  0.00000000000E+00 -0.00000000000E+00 -0.12915964694E+02  0.12915964694E+02  0.00000000000E+00 0. -1.
        -13    1    1    2    0    0 -0.88757314645E+01  0.72149097023E+01 -0.54217911649E+01  0.12658173268E+02  0.00000000000E+00 0. -1.
         13    1    1    2    0    0  0.88757314645E+01 -0.72149097023E+01  0.45627509154E+01  0.12314715870E+02  0.00000000000E+00 0.  1.
<mgrwt>
<rscale>  0 0.24958110E+02</rscale>
<asrwt>0</asrwt>
<pdfrwt beam="2">  1        2 0.19870715E-02 0.24958110E+02</pdfrwt>
<pdfrwt beam="1">  1       -2 0.18549114E-02 0.24958110E+02</pdfrwt>
<totfact> 0.24045658E+06</totfact>
</mgrwt>
</event>
<event>
 4    1  0.2126213E+000  0.2378367E+02  0.7546771E-02  0.1679113E+00
          2   -1    0    0  501    0  0.00000000000E+00  0.00000000000E+00  0.81273006408E+01  0.81273006408E+01  0.00000000000E+00 0. -1.
         -2   -1    0    0    0  501 -0.00000000000E+00 -0.00000000000E+00 -0.17400090027E+02  0.17400090027E+02  0.00000000000E+00 0.  1.
        -13    1    1    2    0    0  0.10832659461E+02 -0.40946000432E+01 -0.17357595485E+01  0.11710043626E+02  0.00000000000E+00 0. -1.
         13    1    1    2    0    0 -0.10832659461E+02  0.40946000432E+01 -0.75370298376E+01  0.13817347042E+02  0.00000000000E+00 0.  1.
<mgrwt>
<rscale>  0 0.23783672E+02</rscale>
<asrwt>0</asrwt>
<pdfrwt beam="1">  1        2 0.12503540E-02 0.23783672E+02</pdfrwt>
<pdfrwt beam="2">  1       -2 0.26769369E-02 0.23783672E+02</pdfrwt>
<totfact> 0.25904507E+06</totfact>
</mgrwt>
</event>
<event>
 4    1  0.2126213E+000  0.2634153E+02  0.7546771E-02  0.1642448E+00
          2   -1    0    0  501    0  0.00000000000E+00  0.00000000000E+00  0.35716051177E+01  0.35716051177E+01  0.00000000000E+00 0.  1.
         -2   -1    0    0    0  501 -0.00000000000E+00 -0.00000000000E+00 -0.48568943919E+02  0.48568943919E+02  0.00000000000E+00 0. -1.
        -11    1    1    2    0    0  0.91098636373E+01  0.94444648910E+01 -0.20257868004E+02  0.24136460980E+02  0.00000000000E+00 0.  1.
         11    1    1    2    0    0 -0.91098636373E+01 -0.94444648910E+01 -0.24739470798E+02  0.28004088057E+02  0.00000000000E+00 0. -1.
<mgrwt>
<rscale>  0 0.26341533E+02</rscale>
<asrwt>0</asrwt>
<pdfrwt beam="1">  1        2 0.54947774E-03 0.26341533E+02</pdfrwt>
<pdfrwt beam="2">  1       -2 0.74721448E-02 0.26341533E+02</pdfrwt>
<totfact> 0.18412839E+06</totfact>
</mgrwt>
</event>
<event>
 4    1  0.2126213E+000  0.2562926E+02  0.7546771E-02  0.1652125E+00
          1   -1    0    0  501    0  0.00000000000E+00  0.00000000000E+00  0.25417254476E+02  0.25417254476E+02  0.00000000000E+00 0. -1.
         -1   -1    0    0    0  501 -0.00000000000E+00 -0.00000000000E+00 -0.64607604109E+01  0.64607604109E+01  0.00000000000E+00 0.  1.
        -11    1    1    2    0    0  0.84985088492E+01 -0.89579511256E+01  0.52155322249E+01  0.13404152991E+02  0.00000000000E+00 0.  1.
         11    1    1    2    0    0 -0.84985088492E+01  0.89579511256E+01  0.13740961840E+02  0.18473861895E+02  0.00000000000E+00 0. -1.
<mgrwt>
<rscale>  0 0.25629264E+02</rscale>
<asrwt>0</asrwt>
<pdfrwt beam="1">  1        1 0.39103468E-02 0.25629264E+02</pdfrwt>
<pdfrwt beam="2">  1       -1 0.99396315E-03 0.25629264E+02</pdfrwt>
<totfact> 0.22754798E+06</totfact>
</mgrwt>
</event>
<event>
 4    1  0.2126213E+000  0.3372107E+02  0.7546771E-02  0.1560260E+00
         -4   -1    0    0    0  501 -0.00000000000E+00  0.00000000000E+00  0.45123132958E+01  0.45123132958E+01  0.00000000000E+00 0. -1.
          4   -1    0    0  501    0  0.00000000000E+00 -0.00000000000E+00 -0.63000407091E+02  0.63000407091E+02  0.00000000000E+00 0.  1.
        -13    1    1    2    0    0  0.58811522904E+00 -0.15785155428E+02 -0.41048006474E+02  0.43982449305E+02  0.00000000000E+00 0.  1.
         13    1    1    2    0    0 -0.58811522904E+00  0.15785155428E+02 -0.17440087321E+02  0.23530271081E+02  0.00000000000E+00 0. -1.
<mgrwt>
<rscale>  0 0.33721066E+02</rscale>
<asrwt>0</asrwt>
<pdfrwt beam="2">  1        4 0.96923697E-02 0.33721066E+02</pdfrwt>
<pdfrwt beam="1">  1       -4 0.69420209E-03 0.33721066E+02</pdfrwt>
<totfact> 0.35059847E+05</totfact>
</mgrwt>
</event>
<event>
 4    1  0.2126213E+000  0.2977420E+02  0.7546771E-02  0.1600598E+00
         -1   -1    0    0    0  501 -0.00000000000E+00  0.00000000000E+00  0.51288249118E+01  0.51288249118E+01  0.00000000000E+00 0. -1.
          1   -1    0    0  501    0  0.00000000000E+00 -0.00000000000E+00 -0.43211799327E+02  0.43211799327E+02  0.00000000000E+00 0.  1.
        -13    1    1    2    0    0  0.77222447784E+01 -0.91822068153E+01 -0.47319330634E+01  0.12897177092E+02  0.00000000000E+00 0. -1.
         13    1    1    2    0    0 -0.77222447784E+01  0.91822068153E+01 -0.33351041352E+02  0.35443447147E+02  0.00000000000E+00 0.  1.
<mgrwt>
<rscale>  0 0.29774200E+02</rscale>
<asrwt>0</asrwt>
<pdfrwt beam="2">  1        1 0.66479688E-02 0.29774200E+02</pdfrwt>
<pdfrwt beam="1">  1       -1 0.78905002E-03 0.29774200E+02</pdfrwt>
<totfact> 0.16526733E+06</totfact>
</mgrwt>
</event>
<event>
 4    1  0.2126213E+000  0.4571014E+02  0.7546771E-02  0.1469956E+00
          2   -1    0    0  501    0  0.00000000000E+00  0.00000000000E+00  0.54980688864E+01  0.54980688864E+01  0.00000000000E+00 0.  1.
         -2   -1    0    0    0  501 -0.00000000000E+00 -0.00000000000E+00 -0.95006872513E+02  0.95006872513E+02  0.00000000000E+00 0. -1.
        -11    1    1    2    0    0 -0.17291270583E+02 -0.14285206191E+02 -0.35095134236E+02  0.41650013221E+02  0.00000000000E+00 0.  1.
         11    1    1    2    0    0  0.17291270583E+02  0.14285206191E+02 -0.54413669390E+02  0.58854928178E+02  0.00000000000E+00 0. -1.
<mgrwt>
<rscale>  0 0.45710145E+02</rscale>
<asrwt>0</asrwt>
<pdfrwt beam="1">  1        2 0.84585682E-03 0.45710145E+02</pdfrwt>
<pdfrwt beam="2">  1       -2 0.14616441E-01 0.45710145E+02</pdfrwt>
<totfact> 0.44453425E+05</totfact>
</mgrwt>
</event>
<event>
 4    1  0.2126213E+000  0.2221067E+02  0.7546771E-02  0.1704634E+00
         -2   -1    0    0    0  501 -0.00000000000E+00  0.00000000000E+00  0.32259062294E+01  0.32259062294E+01  0.00000000000E+00 0. -1.
          2   -1    0    0  501    0  0.00000000000E+00 -0.00000000000E+00 -0.38230658928E+02  0.38230658928E+02  0.00000000000E+00 0.  1.
        -13    1    1    2    0    0 -0.10315675649E+02 -0.20086585745E+01 -0.24201228699E+02  0.26384604297E+02  0.00000000000E+00 0.  1.
         13    1    1    2    0    0  0.10315675649E+02  0.20086585745E+01 -0.10803524000E+02  0.15071960860E+02  0.00000000000E+00 0. -1.
<mgrwt>
<rscale>  0 0.22210675E+02</rscale>
<asrwt>0</asrwt>
<pdfrwt beam="2">  1        2 0.58816399E-02 0.22210675E+02</pdfrwt>
<pdfrwt beam="1">  1       -2 0.49629326E-03 0.22210675E+02</pdfrwt>
<totfact> 0.35226521E+06</totfact>
</mgrwt>
</event>
<event>
 4    1  0.2126213E+000  0.2619339E+02  0.7546771E-02  0.1644430E+00
          2   -1    0    0  501    0  0.00000000000E+00  0.00000000000E+00  0.27244591505E+02  0.27244591505E+02  0.00000000000E+00 0. -1.
         -2   -1    0    0    0  501 -0.00000000000E+00 -0.00000000000E+00 -0.62956883128E+01  0.62956883128E+01  0.00000000000E+00 0.  1.
        -13    1    1    2    0    0 -0.10045508863E+02 -0.59621112297E+01  0.18056880824E+02  0.21506044819E+02  0.00000000000E+00 0. -1.
         13    1    1    2    0    0  0.10045508863E+02  0.59621112297E+01  0.28920223680E+01  0.12034234999E+02  0.00000000000E+00 0.  1.
<mgrwt>
<rscale>  0 0.26193393E+02</rscale>
<asrwt>0</asrwt>
<pdfrwt beam="1">  1        2 0.41914755E-02 0.26193393E+02</pdfrwt>
<pdfrwt beam="2">  1       -2 0.96856745E-03 0.26193393E+02</pdfrwt>
<totfact> 0.23077893E+06</totfact>
</mgrwt>
</event>
<event>
 4    1  0.2126213E+000  0.3527074E+02  0.7546771E-02  0.1546209E+00
         -3   -1    0    0    0  501 -0.00000000000E+00  0.00000000000E+00  0.17091344691E+02  0.17091344691E+02  0.00000000000E+00 0. -1.
          3   -1    0    0  501    0  0.00000000000E+00 -0.00000000000E+00 -0.18196715033E+02  0.18196715033E+02  0.00000000000E+00 0.  1.
        -13    1    1    2    0    0 -0.73861465603E+01 -0.10828654500E+02 -0.12356418441E+02  0.18013772397E+02  0.00000000000E+00 0.  1.
         13    1    1    2    0    0  0.73861465603E+01  0.10828654500E+02  0.11251048099E+02  0.17274287326E+02  0.00000000000E+00 0. -1.
<mgrwt>
<rscale>  0 0.35270743E+02</rscale>
<asrwt>0</asrwt>
<pdfrwt beam="2">  1        3 0.27994946E-02 0.35270743E+02</pdfrwt>
<pdfrwt beam="1">  1       -3 0.26294376E-02 0.35270743E+02</pdfrwt>
<totfact> 0.46572512E+05</totfact>
</mgrwt>
</event>
<event>
 4    1  0.2126213E+000  0.3343084E+02  0.7546771E-02  0.1562994E+00
         -2   -1    0    0    0  501 -0.00000000000E+00  0.00000000000E+00  0.67163587473E+01  0.67163587473E+01  0.00000000000E+00 0. -1.
          2   -1    0    0  501    0  0.00000000000E+00 -0.00000000000E+00 -0.41600703668E+02  0.41600703668E+02  0.00000000000E+00 0.  1.
        -13    1    1    2    0    0  0.14802550901E+02  0.74228920010E+01 -0.20734887330E+02  0.26535832217E+02  0.00000000000E+00 0. -1.
         13    1    1    2    0    0 -0.14802550901E+02 -0.74228920010E+01 -0.14149457590E+02  0.21781230198E+02  0.00000000000E+00 0.  1.
<mgrwt>
<rscale>  0 0.33430839E+02</rscale>
<asrwt>0</asrwt>
<pdfrwt beam="2">  1        2 0.64001083E-02 0.33430839E+02</pdfrwt>
<pdfrwt beam="1">  1       -2 0.10332860E-02 0.33430839E+02</pdfrwt>
<totfact> 0.13610582E+06</totfact>
</mgrwt>
</event>
<event>
 4    1  0.2126213E+000  0.5164209E+02  0.7546771E-02  0.1436681E+00
         -2   -1    0    0    0  501 -0.00000000000E+00  0.00000000000E+00  0.13305267445E+02  0.13305267445E+02  0.00000000000E+00 0. -1.
          2   -1    0    0  501    0  0.00000000000E+00 -0.00000000000E+00 -0.50109955002E+02  0.50109955002E+02  0.00000000000E+00 0.  1.
        -11    1    1    2    0    0  0.88235961535E+01 -0.24056330803E+02 -0.22317150614E+02  0.33979672045E+02  0.00000000000E+00 0.  1.
         11    1    1    2    0    0 -0.88235961535E+01  0.24056330803E+02 -0.14487536944E+02  0.29435550402E+02  0.00000000000E+00 0. -1.
<mgrwt>
<rscale>  0 0.51642090E+02</rscale>
<asrwt>0</asrwt>
<pdfrwt beam="2">  1        2 0.77092236E-02 0.51642090E+02</pdfrwt>
<pdfrwt beam="1">  1       -2 0.20469643E-02 0.51642090E+02</pdfrwt>
<totfact> 0.47219728E+05</totfact>
</mgrwt>
</event>
<event>
 4    1  0.2126213E+000  0.4919866E+02  0.7546771E-02  0.1449712E+00
          2   -1    0    0  501    0  0.00000000000E+00  0.00000000000E+00  0.96735485397E+01  0.96735485397E+01  0.00000000000E+00 0. -1.
         -2   -1    0    0    0  501 -0.00000000000E+00 -0.00000000000E+00 -0.62554805207E+02  0.62554805207E+02  0.00000000000E+00 0.  1.
        -11    1    1    2    0    0 -0.91177321260E+01  0.94031959765E+01  0.41287069948E+01  0.13733148042E+02  0.00000000000E+00 0. -1.
         11    1    1    2    0    0  0.91177321260E+01 -0.94031959765E+01 -0.57009963662E+02  0.58495205705E+02  0.00000000000E+00 0.  1.
<mgrwt>
<rscale>  0 0.49198656E+02</rscale>
<asrwt>0</asrwt>
<pdfrwt beam="1">  1        2 0.14882382E-02 0.49198656E+02</pdfrwt>
<pdfrwt beam="2">  1       -2 0.96238165E-02 0.49198656E+02</pdfrwt>
<totfact> 0.40687288E+05</totfact>
</mgrwt>
</event>
<event>
 4    1  0.2126213E+000  0.3363051E+02  0.7546771E-02  0.1561109E+00
         -2   -1    0    0    0  501 -0.00000000000E+00  0.00000000000E+00  0.32079451980E+01  0.32079451980E+01  0.00000000000E+00 0. -1.
          2   -1    0    0  501    0  0.00000000000E+00 -0.00000000000E+00 -0.88141415167E+02  0.88141415167E+02  0.00000000000E+00 0.  1.
        -11    1    1    2    0    0  0.57493842706E+01 -0.13747986901E+02 -0.21305960616E+02  0.26000125406E+02  0.00000000000E+00 0. -1.
         11    1    1    2    0    0 -0.57493842706E+01  0.13747986901E+02 -0.63627509352E+02  0.65349234959E+02  0.00000000000E+00 0.  1.
<mgrwt>
<rscale>  0 0.33630512E+02</rscale>
<asrwt>0</asrwt>
<pdfrwt beam="2">  1        2 0.13560217E-01 0.33630512E+02</pdfrwt>
<pdfrwt beam="1">  1       -2 0.49353007E-03 0.33630512E+02</pdfrwt>
<totfact> 0.15452592E+06</totfact>
</mgrwt>
</event>
<event>
 4    1  0.2126213E+000  0.3144934E+02  0.7546771E-02  0.1582599E+00
          2   -1    0    0  501    0  0.00000000000E+00  0.00000000000E+00  0.20632442152E+01  0.20632442152E+01  0.00000000000E+00 0.  1.
         -2   -1    0    0    0  501 -0.00000000000E+00 -0.00000000000E+00 -0.11984290234E+03  0.11984290234E+03  0.00000000000E+00 0. -1.
        -11    1    1    2    0    0 -0.54266021336E+01  0.13281514533E+02 -0.33943221078E+02  0.36850900886E+02  0.00000000000E+00 0.  1.
         11    1    1    2    0    0  0.54266021336E+01 -0.13281514533E+02 -0.83836437044E+02  0.85055245665E+02  0.00000000000E+00 0. -1.
<mgrwt>
<rscale>  0 0.31449335E+02</rscale>
<asrwt>0</asrwt>
<pdfrwt beam="1">  1        2 0.31742209E-03 0.31449335E+02</pdfrwt>
<pdfrwt beam="2">  1       -2 0.18437375E-01 0.31449335E+02</pdfrwt>
<totfact> 0.10198186E+06</totfact>
</mgrwt>
</event>
<event>
 4    1  0.2126213E+000  0.2186486E+02  0.7546771E-02  0.1710600E+00
          2   -1    0    0  501    0  0.00000000000E+00  0.00000000000E+00  0.56815029976E+02  0.56815029976E+02  0.00000000000E+00 0.  1.
         -2   -1    0    0    0  501 -0.00000000000E+00 -0.00000000000E+00 -0.21036330167E+01  0.21036330167E+01  0.00000000000E+00 0. -1.
        -13    1    1    2    0    0 -0.92346174775E+01 -0.44615632330E+01  0.17153494209E+02  0.19985646600E+02  0.00000000000E+00 0. -1.
         13    1    1    2    0    0  0.92346174775E+01  0.44615632330E+01  0.37557902750E+02  0.38933016393E+02  0.00000000000E+00 0.  1.
<mgrwt>
<rscale>  0 0.21864855E+02</rscale>
<asrwt>0</asrwt>
<pdfrwt beam="1">  1        2 0.87407727E-02 0.21864855E+02</pdfrwt>
<pdfrwt beam="2">  1       -2 0.32363589E-03 0.21864855E+02</pdfrwt>
<totfact> 0.38701389E+06</totfact>
</mgrwt>
</event>
<event>
 4    1  0.2126213E+000  0.3356217E+02  0.7546771E-02  0.1561753E+00
         -4   -1    0    0    0  501 -0.00000000000E+00  0.00000000000E+00  0.67989420348E+02  0.67989420348E+02  0.00000000000E+00 0.  1.
          4   -1    0    0  501    0  0.00000000000E+00 -0.00000000000E+00 -0.41418911124E+01  0.41418911124E+01  0.00000000000E+00 0. -1.
        -13    1    1    2    0    0  0.16471839929E+02  0.41627058036E+00  0.25090172399E+02  0.30016854313E+02  0.00000000000E+00 0. -1.
         13    1    1    2    0    0 -0.16471839929E+02 -0.41627058036E+00  0.38757356837E+02  0.42114457147E+02  0.00000000000E+00 0.  1.
<mgrwt>
<rscale>  0 0.33562168E+02</rscale>
<asrwt>0</asrwt>
<pdfrwt beam="2">  1        4 0.63721407E-03 0.33562168E+02</pdfrwt>
<pdfrwt beam="1">  1       -4 0.10459910E-01 0.33562168E+02</pdfrwt>
<totfact> 0.34946521E+05</totfact>
</mgrwt>
</event>
<event>
 4    1  0.2126213E+000  0.3051538E+02  0.7546771E-02  0.1592461E+00
         -4   -1    0    0    0  501 -0.00000000000E+00  0.00000000000E+00  0.98037467462E+01  0.98037467462E+01  0.00000000000E+00 0.  1.
          4   -1    0    0  501    0  0.00000000000E+00 -0.00000000000E+00 -0.23745730391E+02  0.23745730391E+02  0.00000000000E+00 0. -1.
        -11    1    1    2    0    0  0.12079585634E+02 -0.79253732596E+01 -0.12364827977E+02  0.19016227315E+02  0.00000000000E+00 0. -1.
         11    1    1    2    0    0 -0.12079585634E+02  0.79253732596E+01 -0.15771556673E+01  0.14533249822E+02  0.00000000000E+00 0.  1.
<mgrwt>
<rscale>  0 0.30515382E+02</rscale>
<asrwt>0</asrwt>
<pdfrwt beam="2">  1        4 0.36531893E-02 0.30515382E+02</pdfrwt>
<pdfrwt beam="1">  1       -4 0.15082687E-02 0.30515382E+02</pdfrwt>
<totfact> 0.49387911E+05</totfact>
</mgrwt>
</event>
<event>
 4    1  0.2126213E+000  0.2503353E+02  0.7546771E-02  0.1660521E+00
          4   -1    0    0  501    0  0.00000000000E+00  0.00000000000E+00  0.19196592463E+02  0.19196592463E+02  0.00000000000E+00 0. -1.
         -4   -1    0    0    0  501 -0.00000000000E+00 -0.00000000000E+00 -0.81613126703E+01  0.81613126703E+01  0.00000000000E+00 0.  1.
        -11    1    1    2    0    0 -0.57297708493E+00  0.12030887790E+02  0.92395668526E+01  0.15180255577E+02  0.00000000000E+00 0. -1.
         11    1    1    2    0    0  0.57297708493E+00 -0.12030887790E+02  0.17957129399E+01  0.12177649556E+02  0.00000000000E+00 0.  1.
<mgrwt>
<rscale>  0 0.25033529E+02</rscale>
<asrwt>0</asrwt>
<pdfrwt beam="1">  1        4 0.29533219E-02 0.25033529E+02</pdfrwt>
<pdfrwt beam="2">  1       -4 0.12555866E-02 0.25033529E+02</pdfrwt>
<totfact> 0.78522301E+05</totfact>
</mgrwt>
</event>
<event>
 4    1  0.2126213E+000  0.3047700E+02  0.7546771E-02  0.1592875E+00
         -4   -1    0    0    0  501 -0.00000000000E+00  0.00000000000E+00  0.75543867188E+01  0.75543867188E+01  0.00000000000E+00 0.  1.
          4   -1    0    0  501    0  0.00000000000E+00 -0.00000000000E+00 -0.30738679726E+02  0.30738679726E+02  0.00000000000E+00 0. -1.
        -13    1    1    2    0    0  0.25420696199E+01 -0.14722537468E+02 -0.15360817837E+02  0.21428251261E+02  0.00000000000E+00 0. -1.
         13    1    1    2    0    0 -0.25420696199E+01  0.14722537468E+02 -0.78234751700E+01  0.16864815184E+02  0.00000000000E+00 0.  1.
<mgrwt>
<rscale>  0 0.30476999E+02</rscale>
<asrwt>0</asrwt>
<pdfrwt beam="2">  1        4 0.47290277E-02 0.30476999E+02</pdfrwt>
<pdfrwt beam="1">  1       -4 0.11622133E-02 0.30476999E+02</pdfrwt>
<totfact> 0.48668862E+05</totfact>
</mgrwt>
</event>
<event>
 4    1  0.2126213E+000  0.2814527E+02  0.7546771E-02  0.1619544E+00
         -2   -1    0    0    0  501 -0.00000000000E+00  0.00000000000E+00  0.74313240278E+02  0.74313240278E+02  0.00000000000E+00 0.  1.
          2   -1    0    0  501    0  0.00000000000E+00 -0.00000000000E+00 -0.26649226695E+01  0.26649226695E+01  0.00000000000E+00 0. -1.
        -13    1    1    2    0    0  0.12184616282E+02 -0.70408138899E+01  0.35733263248E+02  0.38404479381E+02  0.00000000000E+00 0. -1.
         13    1    1    2    0    0 -0.12184616282E+02  0.70408138899E+01  0.35915054360E+02  0.38573683566E+02  0.00000000000E+00 0.  1.
<mgrwt>
<rscale>  0 0.28145269E+02</rscale>
<asrwt>0</asrwt>
<pdfrwt beam="2">  1        2 0.40998816E-03 0.28145269E+02</pdfrwt>
<pdfrwt beam="1">  1       -2 0.11432805E-01 0.28145269E+02</pdfrwt>
<totfact> 0.14740942E+06</totfact>
</mgrwt>
</event>
<event>
 4    1  0.2126213E+000  0.3648598E+02  0.7546771E-02  0.1535787E+00
         -2   -1    0    0    0  501 -0.00000000000E+00  0.00000000000E+00  0.11021175765E+03  0.11021175765E+03  0.00000000000E+00 0.  1.
          2   -1    0    0  501    0  0.00000000000E+00 -0.00000000000E+00 -0.30197020135E+01  0.30197020135E+01  0.00000000000E+00 0. -1.
        -11    1    1    2    0    0  0.10647177311E+02  0.12787580076E+02  0.76803762483E+02  0.78585638131E+02  0.00000000000E+00 0.  1.
         11    1    1    2    0    0 -0.10647177311E+02 -0.12787580076E+02  0.30388293155E+02  0.34645821534E+02  0.00000000000E+00 0. -1.
<mgrwt>
<rscale>  0 0.36485979E+02</rscale>
<asrwt>0</asrwt>
<pdfrwt beam="2">  1        2 0.46456963E-03 0.36485979E+02</pdfrwt>
<pdfrwt beam="1">  1       -2 0.16955652E-01 0.36485979E+02</pdfrwt>
<totfact> 0.73541499E+05</totfact>
</mgrwt>
</event>
<event>
 4    1  0.2126213E+000  0.2738806E+02  0.7546771E-02  0.1628895E+00
         -1   -1    0    0    0  501 -0.00000000000E+00  0.00000000000E+00  0.64585784795E+01  0.64585784795E+01  0.00000000000E+00 0.  1.
          1   -1    0    0  501    0  0.00000000000E+00 -0.00000000000E+00 -0.29035247203E+02  0.29035247203E+02  0.00000000000E+00 0. -1.
        -11    1    1    2    0    0 -0.11096177308E+02  0.11896138783E+01 -0.21573562019E+02  0.24289069769E+02  0.00000000000E+00 0. -1.
         11    1    1    2    0    0  0.11096177308E+02 -0.11896138783E+01 -0.10031067043E+01  0.11204755914E+02  0.00000000000E+00 0.  1.
<mgrwt>
<rscale>  0 0.27388057E+02</rscale>
<asrwt>0</asrwt>
<pdfrwt beam="2">  1        1 0.44669610E-02 0.27388057E+02</pdfrwt>
<pdfrwt beam="1">  1       -1 0.99362747E-03 0.27388057E+02</pdfrwt>
<totfact> 0.19618676E+06</totfact>
</mgrwt>
</event>
<event>
 4    1  0.2126213E+000  0.3096331E+02  0.7546771E-02  0.1587678E+00
          4   -1    0    0  501    0  0.00000000000E+00  0.00000000000E+00  0.37634285789E+02  0.37634285789E+02  0.00000000000E+00 0. -1.
         -4   -1    0    0    0  501 -0.00000000000E+00 -0.00000000000E+00 -0.63687049504E+01  0.63687049504E+01  0.00000000000E+00 0.  1.
        -11    1    1    2    0    0  0.46381176585E+01  0.95392020262E+01  0.31659062529E+02  0.33388691962E+02  0.00000000000E+00 0. -1.
         11    1    1    2    0    0 -0.46381176585E+01 -0.95392020262E+01 -0.39348168984E+00  0.10614298778E+02  0.00000000000E+00 0.  1.
<mgrwt>
<rscale>  0 0.30963311E+02</rscale>
<asrwt>0</asrwt>
<pdfrwt beam="1">  1        4 0.57898900E-02 0.30963311E+02</pdfrwt>
<pdfrwt beam="2">  1       -4 0.97980078E-03 0.30963311E+02</pdfrwt>
<totfact> 0.46004639E+05</totfact>
</mgrwt>
</event>
<event>
 4    1  0.2126213E+000  0.2907692E+02  0.7546771E-02  0.1608522E+00
         -2   -1    0    0    0  501 -0.00000000000E+00  0.00000000000E+00  0.74677197689E+01  0.74677197689E+01  0.00000000000E+00 0. -1.
          2   -1    0    0  501    0  0.00000000000E+00 -0.00000000000E+00 -0.28304056484E+02  0.28304056484E+02  0.00000000000E+00 0.  1.
        -13    1    1    2    0    0  0.11885305954E+02  0.48032215352E+01 -0.18855483065E+02  0.22800453424E+02  0.00000000000E+00 0.  1.
         13    1    1    2    0    0 -0.11885305954E+02 -0.48032215352E+01 -0.19808536502E+01  0.12971322829E+02  0.00000000000E+00 0. -1.
<mgrwt>
<rscale>  0 0.29076916E+02</rscale>
<asrwt>0</asrwt>
<pdfrwt beam="2">  1        2 0.43544702E-02 0.29076916E+02</pdfrwt>
<pdfrwt beam="1">  1       -2 0.11488800E-02 0.29076916E+02</pdfrwt>
<totfact> 0.18091874E+06</totfact>
</mgrwt>
</event>
<event>
 4    1  0.2126213E+000  0.3686167E+02  0.7546771E-02  0.1532664E+00
          2   -1    0    0  501    0  0.00000000000E+00  0.00000000000E+00  0.16509883282E+03  0.16509883282E+03  0.00000000000E+00 0. -1.
         -2   -1    0    0    0  501 -0.00000000000E+00 -0.00000000000E+00 -0.20575296380E+01  0.20575296380E+01  0.00000000000E+00 0.  1.
        -11    1    1    2    0    0  0.37863800931E+00  0.18104910248E+02  0.65966853920E+02  0.68407287316E+02  0.00000000000E+00 0. -1.
         11    1    1    2    0    0 -0.37863800931E+00 -0.18104910248E+02  0.97074449263E+02  0.98749075143E+02  0.00000000000E+00 0.  1.
<mgrwt>
<rscale>  0 0.36861673E+02</rscale>
<asrwt>0</asrwt>
<pdfrwt beam="1">  1        2 0.25399810E-01 0.36861673E+02</pdfrwt>
<pdfrwt beam="2">  1       -2 0.31654315E-03 0.36861673E+02</pdfrwt>
<totfact> 0.14655507E+06</totfact>
</mgrwt>
</event>
<event>
 4    1  0.2126213E+000  0.2378112E+02  0.7546771E-02  0.1679153E+00
          1   -1    0    0  501    0  0.00000000000E+00  0.00000000000E+00  0.47073840603E+02  0.47073840603E+02  0.00000000000E+00 0.  1.
         -1   -1    0    0    0  501 -0.00000000000E+00 -0.00000000000E+00 -0.30034811689E+01  0.30034811689E+01  0.00000000000E+00 0. -1.
        -11    1    1    2    0    0 -0.10083311190E+02 -0.54950934374E+01  0.15539268367E+02  0.19321958437E+02  0.00000000000E+00 0.  1.
         11    1    1    2    0    0  0.10083311190E+02  0.54950934374E+01  0.28531091066E+02  0.30755363335E+02  0.00000000000E+00 0. -1.
<mgrwt>
<rscale>  0 0.23781118E+02</rscale>
<asrwt>0</asrwt>
<pdfrwt beam="1">  1        1 0.72421288E-02 0.23781118E+02</pdfrwt>
<pdfrwt beam="2">  1       -1 0.46207406E-03 0.23781118E+02</pdfrwt>
<totfact> 0.28095596E+06</totfact>
</mgrwt>
</event>
<event>
 4    1  0.2126213E+000  0.3001245E+02  0.7546771E-02  0.1597951E+00
         -1   -1    0    0    0  501 -0.00000000000E+00  0.00000000000E+00  0.61744076895E+01  0.61744076895E+01  0.00000000000E+00 0. -1.
          1   -1    0    0  501    0  0.00000000000E+00 -0.00000000000E+00 -0.36470986570E+02  0.36470986570E+02  0.00000000000E+00 0.  1.
        -11    1    1    2    0    0 -0.62338609047E+01  0.13232437128E+02 -0.19909618905E+02  0.24705289698E+02  0.00000000000E+00 0.  1.
         11    1    1    2    0    0  0.62338609047E+01 -0.13232437128E+02 -0.10386959975E+02  0.17940104561E+02  0.00000000000E+00 0. -1.
<mgrwt>
<rscale>  0 0.30012447E+02</rscale>
<asrwt>0</asrwt>
<pdfrwt beam="2">  1        1 0.56109211E-02 0.30012447E+02</pdfrwt>
<pdfrwt beam="1">  1       -1 0.94990886E-03 0.30012447E+02</pdfrwt>
<totfact> 0.16023335E+06</totfact>
</mgrwt>
</event>
<event>
 4    1  0.2126213E+000  0.3043320E+02  0.7546771E-02  0.1593349E+00
         -2   -1    0    0    0  501 -0.00000000000E+00  0.00000000000E+00  0.42163930498E+01  0.42163930498E+01  0.00000000000E+00 0.  1.
          2   -1    0    0  501    0  0.00000000000E+00 -0.00000000000E+00 -0.54915402156E+02  0.54915402156E+02  0.00000000000E+00 0. -1.
        -13    1    1    2    0    0 -0.12937214146E+02  0.77220072087E+01 -0.21207664654E+02  0.26014725547E+02  0.00000000000E+00 0. -1.
         13    1    1    2    0    0  0.12937214146E+02 -0.77220072087E+01 -0.29491344452E+02  0.33117069659E+02  0.00000000000E+00 0.  1.
<mgrwt>
<rscale>  0 0.30433200E+02</rscale>
<asrwt>0</asrwt>
<pdfrwt beam="2">  1        2 0.84485228E-02 0.30433200E+02</pdfrwt>
<pdfrwt beam="1">  1       -2 0.64867590E-03 0.30433200E+02</pdfrwt>
<totfact> 0.17851195E+06</totfact>
</mgrwt>
</event>
<event>
 4    1  0.2126213E+000  0.2352672E+02  0.7546771E-02  0.1683112E+00
         -4   -1    0    0    0  501 -0.00000000000E+00  0.00000000000E+00  0.34109137611E+02  0.34109137611E+02  0.00000000000E+00 0. -1.
          4   -1    0    0  501    0  0.00000000000E+00 -0.00000000000E+00 -0.40568792448E+01  0.40568792448E+01  0.00000000000E+00 0.  1.
        -11    1    1    2    0    0  0.50788853414E+01  0.94278632240E+01  0.71291343841E+01  0.12864845057E+02  0.00000000000E+00 0.  1.
         11    1    1    2    0    0 -0.50788853414E+01 -0.94278632240E+01  0.22923123982E+02  0.25301171798E+02  0.00000000000E+00 0. -1.
<mgrwt>
<rscale>  0 0.23526721E+02</rscale>
<asrwt>0</asrwt>
<pdfrwt beam="2">  1        4 0.62413529E-03 0.23526721E+02</pdfrwt>
<pdfrwt beam="1">  1       -4 0.52475594E-02 0.23526721E+02</pdfrwt>
<totfact> 0.85962218E+05</totfact>
</mgrwt>
</event>
<event>
 4    1  0.2126213E+000  0.5199300E+02  0.7546771E-02  0.1434879E+00
         -2   -1    0    0    0  501 -0.00000000000E+00  0.00000000000E+00  0.57360450085E+01  0.57360450085E+01  0.00000000000E+00 0. -1.
          2   -1    0    0  501    0  0.00000000000E+00 -0.00000000000E+00 -0.11781948782E+03  0.11781948782E+03  0.00000000000E+00 0.  1.
        -13    1    1    2    0    0  0.16663574740E+02 -0.47770843559E+01 -0.10208006985E+03  0.10354146956E+03  0.00000000000E+00 0.  1.
         13    1    1    2    0    0 -0.16663574740E+02  0.47770843559E+01 -0.10003372968E+02  0.20014063275E+02  0.00000000000E+00 0. -1.
<mgrwt>
<rscale>  0 0.51992995E+02</rscale>
<asrwt>0</asrwt>
<pdfrwt beam="2">  1        2 0.18126072E-01 0.51992995E+02</pdfrwt>
<pdfrwt beam="1">  1       -2 0.88246859E-03 0.51992995E+02</pdfrwt>
<totfact> 0.56685946E+05</totfact>
</mgrwt>
</event>
<event>
 4    1  0.2126213E+000  0.3118711E+02  0.7546771E-02  0.1585326E+00
          2   -1    0    0  501    0  0.00000000000E+00  0.00000000000E+00  0.56017351573E+02  0.56017351573E+02  0.00000000000E+00 0. -1.
         -2   -1    0    0    0  501 -0.00000000000E+00 -0.00000000000E+00 -0.43407779331E+01  0.43407779331E+01  0.00000000000E+00 0.  1.
        -11    1    1    2    0    0  0.14101858028E+02 -0.57592666806E+01  0.19382395500E+02  0.24651750604E+02  0.00000000000E+00 0.  1.
         11    1    1    2    0    0 -0.14101858028E+02  0.57592666806E+01  0.32294178140E+02  0.35706378901E+02  0.00000000000E+00 0. -1.
<mgrwt>
<rscale>  0 0.31187105E+02</rscale>
<asrwt>0</asrwt>
<pdfrwt beam="1">  1        2 0.86180536E-02 0.31187105E+02</pdfrwt>
<pdfrwt beam="2">  1       -2 0.66781203E-03 0.31187105E+02</pdfrwt>
<totfact> 0.16895643E+06</totfact>
</mgrwt>
</event>
<event>
 4    1  0.2126213E+000  0.2417310E+02  0.7546771E-02  0.1673171E+00
          2   -1    0    0  501    0  0.00000000000E+00  0.00000000000E+00  0.29608698004E+01  0.29608698004E+01  0.00000000000E+00 0. -1.
         -2   -1    0    0    0  501 -0.00000000000E+00 -0.00000000000E+00 -0.49338454223E+02  0.49338454223E+02  0.00000000000E+00 0.  1.
        -11    1    1    2    0    0 -0.48329151672E+01 -0.10572396992E+02 -0.30348778583E+02  0.32498938578E+02  0.00000000000E+00 0.  1.
         11    1    1    2    0    0  0.48329151672E+01  0.10572396992E+02 -0.16028805839E+02  0.19800385446E+02  0.00000000000E+00 0. -1.
<mgrwt>
<rscale>  0 0.24173104E+02</rscale>
<asrwt>0</asrwt>
<pdfrwt beam="1">  1        2 0.45551842E-03 0.24173104E+02</pdfrwt>
<pdfrwt beam="2">  1       -2 0.75905317E-02 0.24173104E+02</pdfrwt>
<totfact> 0.22310190E+06</totfact>
</mgrwt>
</event>
<event>
 4    1  0.2126213E+000  0.2947807E+02  0.7546771E-02  0.1603931E+00
          4   -1    0    0  501    0  0.00000000000E+00  0.00000000000E+00  0.81383126864E+01  0.81383126864E+01  0.00000000000E+00 0.  1.
         -4   -1    0    0    0  501 -0.00000000000E+00 -0.00000000000E+00 -0.26693398436E+02  0.26693398436E+02  0.00000000000E+00 0. -1.
        -11    1    1    2    0    0  0.13056397713E+02 -0.13752002064E+01 -0.13617396956E+01  0.13199054203E+02  0.00000000000E+00 0.  1.
         11    1    1    2    0    0 -0.13056397713E+02  0.13752002064E+01 -0.17193346054E+02  0.21632656919E+02  0.00000000000E+00 0. -1.
<mgrwt>
<rscale>  0 0.29478075E+02</rscale>
<asrwt>0</asrwt>
<pdfrwt beam="1">  1        4 0.12520481E-02 0.29478075E+02</pdfrwt>
<pdfrwt beam="2">  1       -4 0.41066767E-02 0.29478075E+02</pdfrwt>
<totfact> 0.53154190E+05</totfact>
</mgrwt>
</event>
<event>
 4    1  0.2126213E+000  0.2764903E+02  0.7546771E-02  0.1625631E+00
         -2   -1    0    0    0  501 -0.00000000000E+00  0.00000000000E+00  0.31854240230E+01  0.31854240230E+01  0.00000000000E+00 0.  1.
          2   -1    0    0  501    0  0.00000000000E+00 -0.00000000000E+00 -0.59997402496E+02  0.59997402496E+02  0.00000000000E+00 0. -1.
        -11    1    1    2    0    0  0.60041847348E+01 -0.12055761390E+02 -0.35532489327E+02  0.37999334399E+02  0.00000000000E+00 0. -1.
         11    1    1    2    0    0 -0.60041847348E+01  0.12055761390E+02 -0.21279489146E+02  0.25183492120E+02  0.00000000000E+00 0.  1.
<mgrwt>
<rscale>  0 0.27649027E+02</rscale>
<asrwt>0</asrwt>
<pdfrwt beam="2">  1        2 0.92303706E-02 0.27649027E+02</pdfrwt>
<pdfrwt beam="1">  1       -2 0.49006518E-03 0.27649027E+02</pdfrwt>
<totfact> 0.22750667E+06</totfact>
</mgrwt>
</event>
<event>
 4    1  0.2126213E+000  0.2500966E+02  0.7546771E-02  0.1660863E+00
         -4   -1    0    0    0  501 -0.00000000000E+00  0.00000000000E+00  0.11226114206E+01  0.11226114206E+01  0.00000000000E+00 0. -1.
          4   -1    0    0  501    0  0.00000000000E+00 -0.00000000000E+00 -0.13929196719E+03  0.13929196719E+03  0.00000000000E+00 0.  1.
        -13    1    1    2    0    0 -0.11022565096E+02  0.58153917681E+01 -0.74851505101E+02  0.75881905212E+02  0.00000000000E+00 0.  1.
         13    1    1    2    0    0  0.11022565096E+02 -0.58153917681E+01 -0.63317850672E+02  0.64532673402E+02  0.00000000000E+00 0. -1.
<mgrwt>
<rscale>  0 0.25009658E+02</rscale>
<asrwt>0</asrwt>
<pdfrwt beam="2">  1        4 0.21429544E-01 0.25009658E+02</pdfrwt>
<pdfrwt beam="1">  1       -4 0.17270936E-03 0.25009658E+02</pdfrwt>
<totfact> 0.55476837E+05</totfact>
</mgrwt>
</event>
<event>
 4    1  0.2126213E+000  0.3834979E+02  0.7546771E-02  0.1520719E+00
         -4   -1    0    0    0  501 -0.00000000000E+00  0.00000000000E+00  0.45546892238E+02  0.45546892238E+02  0.00000000000E+00 0.  1.
          4   -1    0    0  501    0  0.00000000000E+00 -0.00000000000E+00 -0.80724840984E+01  0.80724840984E+01  0.00000000000E+00 0. -1.
        -13    1    1    2    0    0 -0.38903232093E+01 -0.16258803921E+02  0.31867558426E+02  0.35986450223E+02  0.00000000000E+00 0.  1.
         13    1    1    2    0    0  0.38903232093E+01  0.16258803921E+02  0.56068497131E+01  0.17632926113E+02  0.00000000000E+00 0. -1.
<mgrwt>
<rscale>  0 0.38349788E+02</rscale>
<asrwt>0</asrwt>
<pdfrwt beam="2">  1        4 0.12419207E-02 0.38349788E+02</pdfrwt>
<pdfrwt beam="1">  1       -4 0.70072140E-02 0.38349788E+02</pdfrwt>
<totfact> 0.27131926E+05</totfact>
</mgrwt>
</event>
<event>
 4    1  0.2126213E+000  0.4007468E+02  0.7546771E-02  0.1507663E+00
         -2   -1    0    0    0  501 -0.00000000000E+00  0.00000000000E+00  0.39854929030E+02  0.39854929030E+02  0.00000000000E+00 0. -1.
          2   -1    0    0  501    0  0.00000000000E+00 -0.00000000000E+00 -0.10073910901E+02  0.10073910901E+02  0.00000000000E+00 0.  1.
        -11    1    1    2    0    0 -0.16066458346E+02 -0.11803555909E+02  0.12386294984E+02  0.23470733250E+02  0.00000000000E+00 0.  1.
         11    1    1    2    0    0  0.16066458346E+02  0.11803555909E+02  0.17394723145E+02  0.26458106681E+02  0.00000000000E+00 0. -1.
<mgrwt>
<rscale>  0 0.40074680E+02</rscale>
<asrwt>0</asrwt>
<pdfrwt beam="2">  1        2 0.15498325E-02 0.40074680E+02</pdfrwt>
<pdfrwt beam="1">  1       -2 0.61315275E-02 0.40074680E+02</pdfrwt>
<totfact> 0.71552700E+05</totfact>
</mgrwt>
</event>
<event>
 4    1  0.2126213E+000  0.3157133E+02  0.7546771E-02  0.1581342E+00
         -2   -1    0    0    0  501 -0.00000000000E+00  0.00000000000E+00  0.22436275577E+01  0.22436275577E+01  0.00000000000E+00 0. -1.
          2   -1    0    0  501    0  0.00000000000E+00 -0.00000000000E+00 -0.11106444375E+03  0.11106444375E+03  0.00000000000E+00 0.  1.
        -11    1    1    2    0    0 -0.15273048270E+02  0.24558906420E+01 -0.43123820032E+02  0.45814421926E+02  0.00000000000E+00 0.  1.
         11    1    1    2    0    0  0.15273048270E+02 -0.24558906420E+01 -0.65696996159E+02  0.67493649380E+02  0.00000000000E+00 0. -1.
<mgrwt>
<rscale>  0 0.31571332E+02</rscale>
<asrwt>0</asrwt>
<pdfrwt beam="2">  1        2 0.17086834E-01 0.31571332E+02</pdfrwt>
<pdfrwt beam="1">  1       -2 0.34517354E-03 0.31571332E+02</pdfrwt>
<totfact> 0.19003310E+06</totfact>
</mgrwt>
</event>
<event>
 4    1  0.2126213E+000  0.3054725E+02  0.7546771E-02  0.1592117E+00
          3   -1    0    0  501    0  0.00000000000E+00  0.00000000000E+00  0.43335649684E+02  0.43335649684E+02  0.00000000000E+00 0.  1.
         -3   -1    0    0    0  501 -0.00000000000E+00 -0.00000000000E+00 -0.53831816932E+01  0.53831816932E+01  0.00000000000E+00 0. -1.
        -13    1    1    2    0    0 -0.10339911970E+02 -0.68443012275E+01  0.33198792345E+02  0.35438934127E+02  0.00000000000E+00 0.  1.
         13    1    1    2    0    0  0.10339911970E+02  0.68443012275E+01  0.47536756460E+01  0.13279897251E+02  0.00000000000E+00 0. -1.
<mgrwt>
<rscale>  0 0.30547254E+02</rscale>
<asrwt>0</asrwt>
<pdfrwt beam="1">  1        3 0.66670228E-02 0.30547254E+02</pdfrwt>
<pdfrwt beam="2">  1       -3 0.82818183E-03 0.30547254E+02</pdfrwt>
<totfact> 0.62877969E+05</totfact>
</mgrwt>
</event>
<event>
 4    1  0.2126213E+000  0.2205593E+02  0.7546771E-02  0.1707287E+00
          2   -1    0    0  501    0  0.00000000000E+00  0.00000000000E+00  0.75972711000E+02  0.75972711000E+02  0.00000000000E+00 0. -1.
         -2   -1    0    0    0  501 -0.00000000000E+00 -0.00000000000E+00 -0.16007852705E+01  0.16007852705E+01  0.00000000000E+00 0.  1.
        -13    1    1    2    0    0 -0.10476783073E+02  0.17278380001E+01  0.26712487953E+02  0.28745528701E+02  0.00000000000E+00 0. -1.
         13    1    1    2    0    0  0.10476783073E+02 -0.17278380001E+01  0.47659437777E+02  0.48827967569E+02  0.00000000000E+00 0.  1.
<mgrwt>
<rscale>  0 0.22055929E+02</rscale>
<asrwt>0</asrwt>
<pdfrwt beam="1">  1        2 0.11688107E-01 0.22055929E+02</pdfrwt>
<pdfrwt beam="2">  1       -2 0.24627472E-03 0.22055929E+02</pdfrwt>
<totfact> 0.40008556E+06</totfact>
</mgrwt>
</event>
<event>
 4    1  0.2126213E+000  0.8031701E+02  0.7546771E-02  0.1328154E+00
          2   -1    0    0  501    0  0.00000000000E+00  0.00000000000E+00  0.58161182937E+01  0.58161182937E+01  0.00000000000E+00 0. -1.
         -2   -1    0    0    0  501 -0.00000000000E+00 -0.00000000000E+00 -0.27728207871E+03  0.27728207871E+03  0.00000000000E+00 0.  1.
        -11    1    1    2    0    0 -0.76255982885E+01  0.33633467945E+02 -0.63209766177E+02  0.72005794596E+02  0.00000000000E+00 0. -1.
         11    1    1    2    0    0  0.76255982885E+01 -0.33633467945E+02 -0.20825619424E+03  0.21109240241E+03  0.00000000000E+00 0.  1.
<mgrwt>
<rscale>  0 0.80317006E+02</rscale>
<asrwt>0</asrwt>
<pdfrwt beam="1">  1        2 0.89478744E-03 0.80317006E+02</pdfrwt>
<pdfrwt beam="2">  1       -2 0.42658781E-01 0.80317006E+02</pdfrwt>
<totfact> 0.73701493E+04</totfact>
</mgrwt>
</event>
<event>
 4    1  0.2126213E+000  0.3006287E+02  0.7546771E-02  0.1597395E+00
         -2   -1    0    0    0  501 -0.00000000000E+00  0.00000000000E+00  0.13389429859E+03  0.13389429859E+03  0.00000000000E+00 0. -1.
          2   -1    0    0  501    0  0.00000000000E+00 -0.00000000000E+00 -0.16874807196E+01  0.16874807196E+01  0.00000000000E+00 0.  1.
        -13    1    1    2    0    0  0.14497154229E+02 -0.16510270620E+01  0.82395896167E+02  0.83677817110E+02  0.00000000000E+00 0. -1.
         13    1    1    2    0    0 -0.14497154229E+02  0.16510270620E+01  0.49810921704E+02  0.51903962201E+02  0.00000000000E+00 0.  1.
<mgrwt>
<rscale>  0 0.30062871E+02</rscale>
<asrwt>0</asrwt>
<pdfrwt beam="2">  1        2 0.25961252E-03 0.30062871E+02</pdfrwt>
<pdfrwt beam="1">  1       -2 0.20599115E-01 0.30062871E+02</pdfrwt>
<totfact> 0.10967159E+06</totfact>
</mgrwt>
</event>
<event>
 4    1  0.2126213E+000  0.2763696E+02  0.7546771E-02  0.1625781E+00
          2   -1    0    0  501    0  0.00000000000E+00  0.00000000000E+00  0.53662094062E+02  0.53662094062E+02  0.00000000000E+00 0.  1.
         -2   -1    0    0    0  501 -0.00000000000E+00 -0.00000000000E+00 -0.35583860221E+01  0.35583860221E+01  0.00000000000E+00 0. -1.
        -13    1    1    2    0    0  0.88904078536E+01 -0.82326241849E+01  0.11297104281E+02  0.16566231252E+02  0.00000000000E+00 0. -1.
         13    1    1    2    0    0 -0.88904078536E+01  0.82326241849E+01  0.38806603759E+02  0.40654248832E+02  0.00000000000E+00 0.  1.
<mgrwt>
<rscale>  0 0.27636964E+02</rscale>
<asrwt>0</asrwt>
<pdfrwt beam="1">  1        2 0.82557062E-02 0.27636964E+02</pdfrwt>
<pdfrwt beam="2">  1       -2 0.54744404E-03 0.27636964E+02</pdfrwt>
<totfact> 0.22337440E+06</totfact>
</mgrwt>
</event>
<event>
 4    1  0.2126213E+000  0.2865302E+02  0.7546771E-02  0.1613473E+00
          2   -1    0    0  501    0  0.00000000000E+00  0.00000000000E+00  0.66242718772E+02  0.66242718772E+02  0.00000000000E+00 0.  1.
         -2   -1    0    0    0  501 -0.00000000000E+00 -0.00000000000E+00 -0.30984380184E+01  0.30984380184E+01  0.00000000000E+00 0. -1.
        -11    1    1    2    0    0  0.10246330740E+02  0.35508300381E+01  0.89150222432E+01  0.14038280137E+02  0.00000000000E+00 0. -1.
         11    1    1    2    0    0 -0.10246330740E+02 -0.35508300381E+01  0.54229258510E+02  0.55302876654E+02  0.00000000000E+00 0.  1.
<mgrwt>
<rscale>  0 0.28653025E+02</rscale>
<asrwt>0</asrwt>
<pdfrwt beam="1">  1        2 0.10191186E-01 0.28653025E+02</pdfrwt>
<pdfrwt beam="2">  1       -2 0.47668282E-03 0.28653025E+02</pdfrwt>
<totfact> 0.21308331E+06</totfact>
</mgrwt>
</event>
<event>
 4    1  0.2126213E+000  0.2408861E+02  0.7546771E-02  0.1674448E+00
         -2   -1    0    0    0  501 -0.00000000000E+00  0.00000000000E+00  0.24736812683E+01  0.24736812683E+01  0.00000000000E+00 0.  1.
          2   -1    0    0  501    0  0.00000000000E+00 -0.00000000000E+00 -0.58643462308E+02  0.58643462308E+02  0.00000000000E+00 0. -1.
        -13    1    1    2    0    0 -0.22152521161E+00  0.12030099003E+02 -0.26711812132E+02  0.29296642518E+02  0.00000000000E+00 0. -1.
         13    1    1    2    0    0  0.22152521161E+00 -0.12030099003E+02 -0.29457968908E+02  0.31820501059E+02  0.00000000000E+00 0.  1.
<mgrwt>
<rscale>  0 0.24088606E+02</rscale>
<asrwt>0</asrwt>
<pdfrwt beam="2">  1        2 0.90220713E-02 0.24088606E+02</pdfrwt>
<pdfrwt beam="1">  1       -2 0.38056634E-03 0.24088606E+02</pdfrwt>
<totfact> 0.31207380E+06</totfact>
</mgrwt>
</event>
<event>
 4    1  0.2126213E+000  0.3873812E+02  0.7546771E-02  0.1517708E+00
          2   -1    0    0  501    0  0.00000000000E+00  0.00000000000E+00  0.90877848593E+01  0.90877848593E+01  0.00000000000E+00 0.  1.
         -2   -1    0    0    0  501 -0.00000000000E+00 -0.00000000000E+00 -0.41281831204E+02  0.41281831204E+02  0.00000000000E+00 0. -1.
        -11    1    1    2    0    0  0.59680199688E+01 -0.18127915526E+02 -0.11799902046E+02  0.22438276938E+02  0.00000000000E+00 0.  1.
         11    1    1    2    0    0 -0.59680199688E+01  0.18127915526E+02 -0.20394144298E+02  0.27931339125E+02  0.00000000000E+00 0. -1.
<mgrwt>
<rscale>  0 0.38738116E+02</rscale>
<asrwt>0</asrwt>
<pdfrwt beam="1">  1        2 0.13981207E-02 0.38738116E+02</pdfrwt>
<pdfrwt beam="2">  1       -2 0.63510510E-02 0.38738116E+02</pdfrwt>
<totfact> 0.77106796E+05</totfact>
</mgrwt>
</event>
<event>
 4    1  0.2126213E+000  0.3475278E+02  0.7546771E-02  0.1550807E+00
         -1   -1    0    0    0  501 -0.00000000000E+00  0.00000000000E+00  0.54913745998E+02  0.54913745998E+02  0.00000000000E+00 0.  1.
          1   -1    0    0  501    0  0.00000000000E+00 -0.00000000000E+00 -0.54984224533E+01  0.54984224533E+01  0.00000000000E+00 0. -1.
        -11    1    1    2    0    0  0.13897410926E+02 -0.35576839145E+01  0.76627189782E+01  0.16263837414E+02  0.00000000000E+00 0. -1.
         11    1    1    2    0    0 -0.13897410926E+02  0.35576839145E+01  0.41752604566E+02  0.44148331037E+02  0.00000000000E+00 0.  1.
<mgrwt>
<rscale>  0 0.34752783E+02</rscale>
<asrwt>0</asrwt>
<pdfrwt beam="2">  1        1 0.84591118E-03 0.34752783E+02</pdfrwt>
<pdfrwt beam="1">  1       -1 0.84482682E-02 0.34752783E+02</pdfrwt>
<totfact> 0.97515636E+05</totfact>
</mgrwt>
</event>
<event>
 4    1  0.2126213E+000  0.3366383E+02  0.7546771E-02  0.1560797E+00
          1   -1    0    0  501    0  0.00000000000E+00  0.00000000000E+00  0.97847060638E+02  0.97847060638E+02  0.00000000000E+00 0. -1.
         -1   -1    0    0    0  501 -0.00000000000E+00 -0.00000000000E+00 -0.28954721863E+01  0.28954721863E+01  0.00000000000E+00 0.  1.
        -13    1    1    2    0    0  0.11450782280E+02 -0.80405676111E+01  0.75475808718E+02  0.76761766811E+02  0.00000000000E+00 0. -1.
         13    1    1    2    0    0 -0.11450782280E+02  0.80405676111E+01  0.19475779734E+02  0.23980766013E+02  0.00000000000E+00 0.  1.
<mgrwt>
<rscale>  0 0.33663835E+02</rscale>
<asrwt>0</asrwt>
<pdfrwt beam="1">  1        1 0.15053391E-01 0.33663835E+02</pdfrwt>
<pdfrwt beam="2">  1       -1 0.44545733E-03 0.33663835E+02</pdfrwt>
<totfact> 0.13330698E+06</totfact>
</mgrwt>
</event>
<event>
 4    1  0.2126213E+000  0.3987979E+02  0.7546771E-02  0.1509098E+00
          3   -1    0    0  501    0  0.00000000000E+00  0.00000000000E+00  0.53425085254E+02  0.53425085254E+02  0.00000000000E+00 0.  1.
         -3   -1    0    0    0  501 -0.00000000000E+00 -0.00000000000E+00 -0.74421861266E+01  0.74421861266E+01  0.00000000000E+00 0. -1.
        -13    1    1    2    0    0  0.12884332948E+02 -0.80410441479E+01  0.32715515318E+01  0.15536005791E+02  0.00000000000E+00 0. -1.
         13    1    1    2    0    0 -0.12884332948E+02  0.80410441479E+01  0.42711347595E+02  0.45331265589E+02  0.00000000000E+00 0.  1.
<mgrwt>
<rscale>  0 0.39879791E+02</rscale>
<asrwt>0</asrwt>
<pdfrwt beam="1">  1        3 0.82192436E-02 0.39879791E+02</pdfrwt>
<pdfrwt beam="2">  1       -3 0.11449517E-02 0.39879791E+02</pdfrwt>
<totfact> 0.32177124E+05</totfact>
</mgrwt>
</event>
<event>
 4    1  0.2126213E+000  0.2394182E+02  0.7546771E-02  0.1676683E+00
         -2   -1    0    0    0  501 -0.00000000000E+00  0.00000000000E+00  0.45203566230E+01  0.45203566230E+01  0.00000000000E+00 0.  1.
          2   -1    0    0  501    0  0.00000000000E+00 -0.00000000000E+00 -0.31701626581E+02  0.31701626581E+02  0.00000000000E+00 0. -1.
        -11    1    1    2    0    0 -0.62289162115E+01  0.10113043772E+02 -0.11331567589E+02  0.16415769111E+02  0.00000000000E+00 0. -1.
         11    1    1    2    0    0  0.62289162115E+01 -0.10113043772E+02 -0.15849702369E+02  0.19806214092E+02  0.00000000000E+00 0.  1.
<mgrwt>
<rscale>  0 0.23941818E+02</rscale>
<asrwt>0</asrwt>
<pdfrwt beam="2">  1        2 0.48771733E-02 0.23941818E+02</pdfrwt>
<pdfrwt beam="1">  1       -2 0.69543948E-03 0.23941818E+02</pdfrwt>
<totfact> 0.28970156E+06</totfact>
</mgrwt>
</event>
<event>
 4    1  0.2126213E+000  0.4921430E+02  0.7546771E-02  0.1449626E+00
          1   -1    0    0  501    0  0.00000000000E+00  0.00000000000E+00  0.20174180657E+02  0.20174180657E+02  0.00000000000E+00 0.  1.
         -1   -1    0    0    0  501 -0.00000000000E+00 -0.00000000000E+00 -0.30014195360E+02  0.30014195360E+02  0.00000000000E+00 0. -1.
        -13    1    1    2    0    0 -0.20802494819E+02  0.12675995920E+01 -0.18261809732E+02  0.27710003502E+02  0.00000000000E+00 0. -1.
         13    1    1    2    0    0  0.20802494819E+02 -0.12675995920E+01  0.84217950285E+01  0.22478372515E+02  0.00000000000E+00 0.  1.
<mgrwt>
<rscale>  0 0.49214299E+02</rscale>
<asrwt>0</asrwt>
<pdfrwt beam="1">  1        1 0.31037201E-02 0.49214299E+02</pdfrwt>
<pdfrwt beam="2">  1       -1 0.46175685E-02 0.49214299E+02</pdfrwt>
<totfact> 0.44703061E+05</totfact>
</mgrwt>
</event>
<event>
 4    1  0.2126213E+000  0.2266001E+02  0.7546771E-02  0.1697081E+00
         -2   -1    0    0    0  501 -0.00000000000E+00  0.00000000000E+00  0.38412149486E+02  0.38412149486E+02  0.00000000000E+00 0. -1.
          2   -1    0    0  501    0  0.00000000000E+00 -0.00000000000E+00 -0.33418861821E+01  0.33418861821E+01  0.00000000000E+00 0.  1.
        -13    1    1    2    0    0  0.24717780959E+01 -0.10980487192E+02  0.19929308089E+02  0.22887946758E+02  0.00000000000E+00 0. -1.
         13    1    1    2    0    0 -0.24717780959E+01  0.10980487192E+02  0.15140955216E+02  0.18866088910E+02  0.00000000000E+00 0.  1.
<mgrwt>
<rscale>  0 0.22660012E+02</rscale>
<asrwt>0</asrwt>
<pdfrwt beam="2">  1        2 0.51413636E-03 0.22660012E+02</pdfrwt>
<pdfrwt beam="1">  1       -2 0.59095612E-02 0.22660012E+02</pdfrwt>
<totfact> 0.26644226E+06</totfact>
</mgrwt>
</event>
<event>
 4    1  0.2126213E+000  0.3332498E+02  0.7546771E-02  0.1563999E+00
         -2   -1    0    0    0  501 -0.00000000000E+00  0.00000000000E+00  0.73724681904E+01  0.73724681904E+01  0.00000000000E+00 0.  1.
          2   -1    0    0  501    0  0.00000000000E+00 -0.00000000000E+00 -0.37658830240E+02  0.37658830240E+02  0.00000000000E+00 0. -1.
        -13    1    1    2    0    0 -0.16180672343E+01  0.15218745382E+02 -0.62400989334E+01  0.16527770185E+02  0.00000000000E+00 0.  1.
         13    1    1    2    0    0  0.16180672343E+01 -0.15218745382E+02 -0.24046263116E+02  0.28503528245E+02  0.00000000000E+00 0. -1.
<mgrwt>
<rscale>  0 0.33324977E+02</rscale>
<asrwt>0</asrwt>
<pdfrwt beam="2">  1        2 0.57936662E-02 0.33324977E+02</pdfrwt>
<pdfrwt beam="1">  1       -2 0.11342259E-02 0.33324977E+02</pdfrwt>
<totfact> 0.13514965E+06</totfact>
</mgrwt>
</event>
<event>
 4    1  0.2126213E+000  0.2494447E+02  0.7546771E-02  0.1661801E+00
         -2   -1    0    0    0  501 -0.00000000000E+00  0.00000000000E+00  0.78799288317E+02  0.78799288317E+02  0.00000000000E+00 0.  1.
          2   -1    0    0  501    0  0.00000000000E+00 -0.00000000000E+00 -0.19740872532E+01  0.19740872532E+01  0.00000000000E+00 0. -1.
        -13    1    1    2    0    0  0.11568282532E+02  0.28019302299E+01  0.50476828982E+02  0.51861220944E+02  0.00000000000E+00 0.  1.
         13    1    1    2    0    0 -0.11568282532E+02 -0.28019302299E+01  0.26348372082E+02  0.28912154626E+02  0.00000000000E+00 0. -1.
<mgrwt>
<rscale>  0 0.24944472E+02</rscale>
<asrwt>0</asrwt>
<pdfrwt beam="2">  1        2 0.30370579E-03 0.24944472E+02</pdfrwt>
<pdfrwt beam="1">  1       -2 0.12122965E-01 0.24944472E+02</pdfrwt>
<totfact> 0.19187140E+06</totfact>
</mgrwt>
</event>
<event>
 4    1  0.2126213E+000  0.3367198E+02  0.7546771E-02  0.1560720E+00
          2   -1    0    0  501    0  0.00000000000E+00  0.00000000000E+00  0.10891765390E+03  0.10891765390E+03  0.00000000000E+00 0. -1.
         -2   -1    0    0    0  501 -0.00000000000E+00 -0.00000000000E+00 -0.26024303308E+01  0.26024303308E+01  0.00000000000E+00 0.  1.
        -13    1    1    2    0    0  0.13901858777E+01 -0.16195221229E+02  0.67682260598E+02  0.69606797133E+02  0.00000000000E+00 0. -1.
         13    1    1    2    0    0 -0.13901858777E+01  0.16195221229E+02  0.38632962974E+02  0.41913287101E+02  0.00000000000E+00 0.  1.
<mgrwt>
<rscale>  0 0.33671983E+02</rscale>
<asrwt>0</asrwt>
<pdfrwt beam="1">  1        2 0.16756559E-01 0.33671983E+02</pdfrwt>
<pdfrwt beam="2">  1       -2 0.40037398E-03 0.33671983E+02</pdfrwt>
<totfact> 0.16216319E+06</totfact>
</mgrwt>
</event>
<event>
 4    1  0.2126213E+000  0.5879631E+02  0.7546771E-02  0.1402954E+00
          1   -1    0    0  501    0  0.00000000000E+00  0.00000000000E+00  0.38221472819E+01  0.38221472819E+01  0.00000000000E+00 0.  1.
         -1   -1    0    0    0  501 -0.00000000000E+00 -0.00000000000E+00 -0.22611676167E+03  0.22611676167E+03  0.00000000000E+00 0. -1.
        -13    1    1    2    0    0 -0.13746628512E+02  0.23004792430E+02 -0.63883363342E+02  0.69276795408E+02  0.00000000000E+00 0.  1.
         13    1    1    2    0    0  0.13746628512E+02 -0.23004792430E+02 -0.15841125104E+03  0.16066211354E+03  0.00000000000E+00 0. -1.
<mgrwt>
<rscale>  0 0.58796312E+02</rscale>
<asrwt>0</asrwt>
<pdfrwt beam="1">  1        1 0.58802255E-03 0.58796312E+02</pdfrwt>
<pdfrwt beam="2">  1       -1 0.34787201E-01 0.58796312E+02</pdfrwt>
<totfact> 0.20629668E+05</totfact>
</mgrwt>
</event>
<event>
 4    1  0.2126213E+000  0.2032090E+02  0.7546771E-02  0.1739021E+00
         -2   -1    0    0    0  501 -0.00000000000E+00  0.00000000000E+00  0.56232323830E+01  0.56232323830E+01  0.00000000000E+00 0. -1.
          2   -1    0    0  501    0  0.00000000000E+00 -0.00000000000E+00 -0.18358609578E+02  0.18358609578E+02  0.00000000000E+00 0.  1.
        -13    1    1    2    0    0  0.92911783459E+01 -0.37723409201E+01 -0.44363462845E+01  0.10965296140E+02  0.00000000000E+00 0. -1.
         13    1    1    2    0    0 -0.92911783459E+01  0.37723409201E+01 -0.82990309109E+01  0.13016545822E+02  0.00000000000E+00 0.  1.
<mgrwt>
<rscale>  0 0.20320898E+02</rscale>
<asrwt>0</asrwt>
<pdfrwt beam="2">  1        2 0.28244014E-02 0.20320898E+02</pdfrwt>
<pdfrwt beam="1">  1       -2 0.86511270E-03 0.20320898E+02</pdfrwt>
<totfact> 0.39906718E+06</totfact>
</mgrwt>
</event>
<event>
 4    1  0.2126213E+000  0.3340366E+02  0.7546771E-02  0.1563251E+00
         -2   -1    0    0    0  501 -0.00000000000E+00  0.00000000000E+00  0.71479567725E+02  0.71479567725E+02  0.00000000000E+00 0. -1.
          2   -1    0    0  501    0  0.00000000000E+00 -0.00000000000E+00 -0.39025284765E+01  0.39025284765E+01  0.00000000000E+00 0.  1.
        -13    1    1    2    0    0  0.69266530918E+01 -0.14798061074E+02  0.25974360552E+02  0.30685966511E+02  0.00000000000E+00 0.  1.
         13    1    1    2    0    0 -0.69266530918E+01  0.14798061074E+02  0.41602678696E+02  0.44696129691E+02  0.00000000000E+00 0. -1.
<mgrwt>
<rscale>  0 0.33403655E+02</rscale>
<asrwt>0</asrwt>
<pdfrwt beam="2">  1        2 0.60038905E-03 0.33403655E+02</pdfrwt>
<pdfrwt beam="1">  1       -2 0.10996856E-01 0.33403655E+02</pdfrwt>
<totfact> 0.99797207E+05</totfact>
</mgrwt>
</event>
<event>
 4    1  0.2126213E+000  0.2729588E+02  0.7546771E-02  0.1630059E+00
         -3   -1    0    0    0  501 -0.00000000000E+00  0.00000000000E+00  0.38574923669E+01  0.38574923669E+01  0.00000000000E+00 0.  1.
          3   -1    0    0  501    0  0.00000000000E+00 -0.00000000000E+00 -0.48286886736E+02  0.48286886736E+02  0.00000000000E+00 0. -1.
        -11    1    1    2    0    0 -0.74699643563E+01 -0.11383631268E+02 -0.24005601385E+02  0.27598121787E+02  0.00000000000E+00 0. -1.
         11    1    1    2    0    0  0.74699643563E+01  0.11383631268E+02 -0.20423792984E+02  0.24546257315E+02  0.00000000000E+00 0.  1.
<mgrwt>
<rscale>  0 0.27295882E+02</rscale>
<asrwt>0</asrwt>
<pdfrwt beam="2">  1        3 0.74287526E-02 0.27295882E+02</pdfrwt>
<pdfrwt beam="1">  1       -3 0.59346030E-03 0.27295882E+02</pdfrwt>
<totfact> 0.80739954E+05</totfact>
</mgrwt>
</event>
<event>
 4    1  0.2126213E+000  0.2951341E+02  0.7546771E-02  0.1603530E+00
          3   -1    0    0  501    0  0.00000000000E+00  0.00000000000E+00  0.57326098471E+02  0.57326098471E+02  0.00000000000E+00 0.  1.
         -3   -1    0    0    0  501 -0.00000000000E+00 -0.00000000000E+00 -0.37986243945E+01  0.37986243945E+01  0.00000000000E+00 0. -1.
        -13    1    1    2    0    0  0.10961940311E+02 -0.87320340056E+01  0.17194579093E+02  0.22182563049E+02  0.00000000000E+00 0. -1.
         13    1    1    2    0    0 -0.10961940311E+02  0.87320340056E+01  0.36332894984E+02  0.38942159817E+02  0.00000000000E+00 0.  1.
<mgrwt>
<rscale>  0 0.29513408E+02</rscale>
<asrwt>0</asrwt>
<pdfrwt beam="1">  1        3 0.88193991E-02 0.29513408E+02</pdfrwt>
<pdfrwt beam="2">  1       -3 0.58440380E-03 0.29513408E+02</pdfrwt>
<totfact> 0.65782344E+05</totfact>
</mgrwt>
</event>
<event>
 4    1  0.2126213E+000  0.2978656E+02  0.7546771E-02  0.1600460E+00
         -2   -1    0    0    0  501 -0.00000000000E+00  0.00000000000E+00  0.22799924473E+01  0.22799924473E+01  0.00000000000E+00 0. -1.
          2   -1    0    0  501    0  0.00000000000E+00 -0.00000000000E+00 -0.97285330164E+02  0.97285330164E+02  0.00000000000E+00 0.  1.
        -11    1    1    2    0    0 -0.59278220460E+01  0.13121552275E+02 -0.60229080609E+02  0.61926217060E+02  0.00000000000E+00 0.  1.
         11    1    1    2    0    0  0.59278220460E+01 -0.13121552275E+02 -0.34776257107E+02  0.37639105551E+02  0.00000000000E+00 0. -1.
<mgrwt>
<rscale>  0 0.29786562E+02</rscale>
<asrwt>0</asrwt>
<pdfrwt beam="2">  1        2 0.14966976E-01 0.29786562E+02</pdfrwt>
<pdfrwt beam="1">  1       -2 0.35076803E-03 0.29786562E+02</pdfrwt>
<totfact> 0.21110883E+06</totfact>
</mgrwt>
</event>
<event>
 4    1  0.2126213E+000  0.2092435E+02  0.7546771E-02  0.1727547E+00
          2   -1    0    0  501    0  0.00000000000E+00  0.00000000000E+00  0.32028398501E+02  0.32028398501E+02  0.00000000000E+00 0.  1.
         -2   -1    0    0    0  501 -0.00000000000E+00 -0.00000000000E+00 -0.34175021475E+01  0.34175021475E+01  0.00000000000E+00 0. -1.
        -13    1    1    2    0    0  0.55909730972E+01 -0.87037255494E+01  0.16953354335E+02  0.19860262884E+02  0.00000000000E+00 0.  1.
         13    1    1    2    0    0 -0.55909730972E+01  0.87037255494E+01  0.11657542018E+02  0.15585637764E+02  0.00000000000E+00 0. -1.
<mgrwt>
<rscale>  0 0.20924351E+02</rscale>
<asrwt>0</asrwt>
<pdfrwt beam="1">  1        2 0.49274457E-02 0.20924351E+02</pdfrwt>
<pdfrwt beam="2">  1       -2 0.52576958E-03 0.20924351E+02</pdfrwt>
<totfact> 0.39466430E+06</totfact>
</mgrwt>
</event>
<event>
 4    1  0.2126213E+000  0.3816559E+02  0.7546771E-02  0.1522162E+00
         -2   -1    0    0    0  501 -0.00000000000E+00  0.00000000000E+00  0.77864953007E+02  0.77864953007E+02  0.00000000000E+00 0. -1.
          2   -1    0    0  501    0  0.00000000000E+00 -0.00000000000E+00 -0.46767250594E+01  0.46767250594E+01  0.00000000000E+00 0.  1.
        -13    1    1    2    0    0  0.11437094644E+02  0.12542502153E+02  0.55452220995E+02  0.57991984855E+02  0.00000000000E+00 0. -1.
         13    1    1    2    0    0 -0.11437094644E+02 -0.12542502153E+02  0.17736006952E+02  0.24549693211E+02  0.00000000000E+00 0.  1.
<mgrwt>
<rscale>  0 0.38165585E+02</rscale>
<asrwt>0</asrwt>
<pdfrwt beam="2">  1        2 0.71949622E-03 0.38165585E+02</pdfrwt>
<pdfrwt beam="1">  1       -2 0.11979223E-01 0.38165585E+02</pdfrwt>
<totfact> 0.71636835E+05</totfact>
</mgrwt>
</event>
<event>
 4    1  0.2126213E+000  0.2863493E+02  0.7546771E-02  0.1613687E+00
         -4   -1    0    0    0  501 -0.00000000000E+00  0.00000000000E+00  0.10230492984E+02  0.10230492984E+02  0.00000000000E+00 0.  1.
          4   -1    0    0  501    0  0.00000000000E+00 -0.00000000000E+00 -0.20037133484E+02  0.20037133484E+02  0.00000000000E+00 0. -1.
        -13    1    1    2    0    0 -0.82099956374E+01  0.96885153931E+01 -0.11892309885E+02  0.17398229602E+02  0.00000000000E+00 0. -1.
         13    1    1    2    0    0  0.82099956374E+01 -0.96885153931E+01  0.20856693860E+01  0.12869396865E+02  0.00000000000E+00 0.  1.
<mgrwt>
<rscale>  0 0.28634926E+02</rscale>
<asrwt>0</asrwt>
<pdfrwt beam="2">  1        4 0.30826359E-02 0.28634926E+02</pdfrwt>
<pdfrwt beam="1">  1       -4 0.15739220E-02 0.28634926E+02</pdfrwt>
<totfact> 0.57717718E+05</totfact>
</mgrwt>
</event>
<event>
 4    1  0.2126213E+000  0.3139378E+02  0.7546771E-02  0.1583174E+00
          1   -1    0    0  501    0  0.00000000000E+00  0.00000000000E+00  0.96023087031E+02  0.96023087031E+02  0.00000000000E+00 0. -1.
         -1   -1    0    0    0  501 -0.00000000000E+00 -0.00000000000E+00 -0.25659692248E+01  0.25659692248E+01  0.00000000000E+00 0.  1.
        -11    1    1    2    0    0 -0.14655444077E+02 -0.28434329823E+01  0.31496759458E+02  0.34855602255E+02  0.00000000000E+00 0. -1.
         11    1    1    2    0    0  0.14655444077E+02  0.28434329823E+01  0.61960358349E+02  0.63733454001E+02  0.00000000000E+00 0.  1.
<mgrwt>
<rscale>  0 0.31393776E+02</rscale>
<asrwt>0</asrwt>
<pdfrwt beam="1">  1        1 0.14772780E-01 0.31393776E+02</pdfrwt>
<pdfrwt beam="2">  1       -1 0.39476457E-03 0.31393776E+02</pdfrwt>
<totfact> 0.15710564E+06</totfact>
</mgrwt>
</event>
<event>
 4    1  0.2126213E+000  0.3117135E+02  0.7546771E-02  0.1585490E+00
          2   -1    0    0  501    0  0.00000000000E+00  0.00000000000E+00  0.17242779192E+02  0.17242779192E+02  0.00000000000E+00 0. -1.
         -2   -1    0    0    0  501 -0.00000000000E+00 -0.00000000000E+00 -0.14087826693E+02  0.14087826693E+02  0.00000000000E+00 0.  1.
        -11    1    1    2    0    0 -0.40019553653E+01 -0.12166217570E+02  0.10504337513E+02  0.16564226613E+02  0.00000000000E+00 0. -1.
         11    1    1    2    0    0  0.40019553653E+01  0.12166217570E+02 -0.73493850130E+01  0.14766379271E+02  0.00000000000E+00 0.  1.
<mgrwt>
<rscale>  0 0.31171351E+02</rscale>
<asrwt>0</asrwt>
<pdfrwt beam="1">  1        2 0.26527353E-02 0.31171351E+02</pdfrwt>
<pdfrwt beam="2">  1       -2 0.21673580E-02 0.31171351E+02</pdfrwt>
<totfact> 0.14462330E+06</totfact>
</mgrwt>
</event>
<event>
 4    1  0.2126213E+000  0.4527044E+02  0.7546771E-02  0.1472660E+00
         -1   -1    0    0    0  501 -0.00000000000E+00  0.00000000000E+00  0.53926658679E+01  0.53926658679E+01  0.00000000000E+00 0.  1.
          1   -1    0    0  501    0  0.00000000000E+00 -0.00000000000E+00 -0.95009274233E+02  0.95009274233E+02  0.00000000000E+00 0. -1.
        -13    1    1    2    0    0  0.22592283123E+02  0.12759277453E+01 -0.46051121680E+02  0.51310282169E+02  0.00000000000E+00 0. -1.
         13    1    1    2    0    0 -0.22592283123E+02 -0.12759277453E+01 -0.43565486686E+02  0.49091657932E+02  0.00000000000E+00 0.  1.
<mgrwt>
<rscale>  0 0.45270444E+02</rscale>
<asrwt>0</asrwt>
<pdfrwt beam="2">  1        1 0.14616811E-01 0.45270444E+02</pdfrwt>
<pdfrwt beam="1">  1       -1 0.82964090E-03 0.45270444E+02</pdfrwt>
<totfact> 0.64357601E+05</totfact>
</mgrwt>
</event>
<event>
 4    1  0.2126213E+000  0.3097427E+02  0.7546771E-02  0.1587563E+00
         -4   -1    0    0    0  501 -0.00000000000E+00  0.00000000000E+00  0.94483220578E+01  0.94483220578E+01  0.00000000000E+00 0.  1.
          4   -1    0    0  501    0  0.00000000000E+00 -0.00000000000E+00 -0.25385598636E+02  0.25385598636E+02  0.00000000000E+00 0. -1.
        -13    1    1    2    0    0  0.10252780249E+02  0.31330860965E+01  0.46006190830E+01  0.11666251637E+02  0.00000000000E+00 0.  1.
         13    1    1    2    0    0 -0.10252780249E+02 -0.31330860965E+01 -0.20537895661E+02  0.23167669056E+02  0.00000000000E+00 0. -1.
<mgrwt>
<rscale>  0 0.30974267E+02</rscale>
<asrwt>0</asrwt>
<pdfrwt beam="2">  1        4 0.39054767E-02 0.30974267E+02</pdfrwt>
<pdfrwt beam="1">  1       -4 0.14535880E-02 0.30974267E+02</pdfrwt>
<totfact> 0.47511372E+05</totfact>
</mgrwt>
</event>
<event>
 4    1  0.2126213E+000  0.3674999E+02  0.7546771E-02  0.1533588E+00
          2   -1    0    0  501    0  0.00000000000E+00  0.00000000000E+00  0.97342911066E+01  0.97342911066E+01  0.00000000000E+00 0.  1.
         -2   -1    0    0    0  501 -0.00000000000E+00 -0.00000000000E+00 -0.34685674868E+02  0.34685674868E+02  0.00000000000E+00 0. -1.
        -13    1    1    2    0    0 -0.15053131739E+01 -0.18083025662E+02 -0.15974406904E+02  0.24175265475E+02  0.00000000000E+00 0. -1.
         13    1    1    2    0    0  0.15053131739E+01  0.18083025662E+02 -0.89769768583E+01  0.20244700501E+02  0.00000000000E+00 0.  1.
<mgrwt>
<rscale>  0 0.36749991E+02</rscale>
<asrwt>0</asrwt>
<pdfrwt beam="1">  1        2 0.14975833E-02 0.36749991E+02</pdfrwt>
<pdfrwt beam="2">  1       -2 0.53362576E-02 0.36749991E+02</pdfrwt>
<totfact> 0.89380590E+05</totfact>
</mgrwt>
</event>
<event>
 4    1  0.2126213E+000  0.4491989E+02  0.7546771E-02  0.1474842E+00
         -3   -1    0    0    0  501 -0.00000000000E+00  0.00000000000E+00  0.64139310289E+01  0.64139310289E+01  0.00000000000E+00 0.  1.
          3   -1    0    0  501    0  0.00000000000E+00 -0.00000000000E+00 -0.78648979754E+02  0.78648979754E+02  0.00000000000E+00 0. -1.
        -11    1    1    2    0    0 -0.62461323241E+00  0.14471857907E+02 -0.68621452593E+02  0.70133647909E+02  0.00000000000E+00 0. -1.
         11    1    1    2    0    0  0.62461323241E+00 -0.14471857907E+02 -0.36135961323E+01  0.14929262875E+02  0.00000000000E+00 0.  1.
<mgrwt>
<rscale>  0 0.44919890E+02</rscale>
<asrwt>0</asrwt>
<pdfrwt beam="2">  1        3 0.12099843E-01 0.44919890E+02</pdfrwt>
<pdfrwt beam="1">  1       -3 0.98675864E-03 0.44919890E+02</pdfrwt>
<totfact> 0.22590186E+05</totfact>
</mgrwt>
</event>
<event>
 4    1  0.2126213E+000  0.3266169E+02  0.7546771E-02  0.1570403E+00
          4   -1    0    0  501    0  0.00000000000E+00  0.00000000000E+00  0.96695700192E+02  0.96695700192E+02  0.00000000000E+00 0. -1.
         -4   -1    0    0    0  501 -0.00000000000E+00 -0.00000000000E+00 -0.27581005284E+01  0.27581005284E+01  0.00000000000E+00 0.  1.
        -11    1    1    2    0    0  0.14163655454E+02  0.81144127836E+01  0.48471765886E+02  0.51146504462E+02  0.00000000000E+00 0. -1.
         11    1    1    2    0    0 -0.14163655454E+02 -0.81144127836E+01  0.45465833778E+02  0.48307296258E+02  0.00000000000E+00 0.  1.
<mgrwt>
<rscale>  0 0.32661688E+02</rscale>
<asrwt>0</asrwt>
<pdfrwt beam="1">  1        4 0.14876259E-01 0.32661688E+02</pdfrwt>
<pdfrwt beam="2">  1       -4 0.42432323E-03 0.32661688E+02</pdfrwt>
<totfact> 0.34375471E+05</totfact>
</mgrwt>
</event>
<event>
 4    1  0.2126213E+000  0.5076228E+02  0.7546771E-02  0.1441273E+00
          2   -1    0    0  501    0  0.00000000000E+00  0.00000000000E+00  0.58853689764E+01  0.58853689764E+01  0.00000000000E+00 0. -1.
         -2   -1    0    0    0  501 -0.00000000000E+00 -0.00000000000E+00 -0.10945824789E+03  0.10945824789E+03  0.00000000000E+00 0.  1.
        -13    1    1    2    0    0  0.20233927399E+02 -0.15317321886E+02 -0.50849551024E+02  0.56830528830E+02  0.00000000000E+00 0. -1.
         13    1    1    2    0    0 -0.20233927399E+02  0.15317321886E+02 -0.52723327885E+02  0.58513088032E+02  0.00000000000E+00 0.  1.
<mgrwt>
<rscale>  0 0.50762276E+02</rscale>
<asrwt>0</asrwt>
<pdfrwt beam="1">  1        2 0.90544136E-03 0.50762276E+02</pdfrwt>
<pdfrwt beam="2">  1       -2 0.16839731E-01 0.50762276E+02</pdfrwt>
<totfact> 0.33226982E+05</totfact>
</mgrwt>
</event>
<event>
 4    1  0.2126213E+000  0.2549440E+02  0.7546771E-02  0.1654001E+00
          2   -1    0    0  501    0  0.00000000000E+00  0.00000000000E+00  0.85811742130E+02  0.85811742130E+02  0.00000000000E+00 0.  1.
         -2   -1    0    0    0  501 -0.00000000000E+00 -0.00000000000E+00 -0.18935766890E+01  0.18935766890E+01  0.00000000000E+00 0. -1.
        -11    1    1    2    0    0  0.79357579795E+01 -0.76297431156E+01  0.19850238661E+02  0.22698484743E+02  0.00000000000E+00 0. -1.
         11    1    1    2    0    0 -0.79357579795E+01  0.76297431156E+01  0.64067926781E+02  0.65006834077E+02  0.00000000000E+00 0.  1.
<mgrwt>
<rscale>  0 0.25494401E+02</rscale>
<asrwt>0</asrwt>
<pdfrwt beam="1">  1        2 0.13201803E-01 0.25494401E+02</pdfrwt>
<pdfrwt beam="2">  1       -2 0.29131956E-03 0.25494401E+02</pdfrwt>
<totfact> 0.29490153E+06</totfact>
</mgrwt>
</event>
<event>
 4    1  0.2126213E+000  0.2748045E+02  0.7546771E-02  0.1627734E+00
          4   -1    0    0  501    0  0.00000000000E+00  0.00000000000E+00  0.19299127418E+01  0.19299127418E+01  0.00000000000E+00 0. -1.
         -4   -1    0    0    0  501 -0.00000000000E+00 -0.00000000000E+00 -0.97825011116E+02  0.97825011116E+02  0.00000000000E+00 0.  1.
        -11    1    1    2    0    0 -0.13178991487E+02 -0.36247309883E+01 -0.53041565482E+02  0.54774375032E+02  0.00000000000E+00 0.  1.
         11    1    1    2    0    0  0.13178991487E+02  0.36247309883E+01 -0.42853532892E+02  0.44980548826E+02  0.00000000000E+00 0. -1.
<mgrwt>
<rscale>  0 0.27480447E+02</rscale>
<asrwt>0</asrwt>
<pdfrwt beam="1">  1        4 0.29690964E-03 0.27480447E+02</pdfrwt>
<pdfrwt beam="2">  1       -4 0.15050002E-01 0.27480447E+02</pdfrwt>
<totfact> 0.50446859E+05</totfact>
</mgrwt>
</event>
<event>
 4    1  0.2126213E+000  0.2364053E+02  0.7546771E-02  0.1681333E+00
         -2   -1    0    0    0  501 -0.00000000000E+00  0.00000000000E+00  0.60586512961E+02  0.60586512961E+02  0.00000000000E+00 0.  1.
          2   -1    0    0  501    0  0.00000000000E+00 -0.00000000000E+00 -0.23061010395E+01  0.23061010395E+01  0.00000000000E+00 0. -1.
        -11    1    1    2    0    0 -0.62115086020E+01 -0.95833671259E+01  0.37251008658E+02  0.38962307563E+02  0.00000000000E+00 0. -1.
         11    1    1    2    0    0  0.62115086020E+01  0.95833671259E+01  0.21029403264E+02  0.23930306438E+02  0.00000000000E+00 0.  1.
<mgrwt>
<rscale>  0 0.23640526E+02</rscale>
<asrwt>0</asrwt>
<pdfrwt beam="2">  1        2 0.35478482E-03 0.23640526E+02</pdfrwt>
<pdfrwt beam="1">  1       -2 0.93210008E-02 0.23640526E+02</pdfrwt>
<totfact> 0.22721231E+06</totfact>
</mgrwt>
</event>
<event>
 4    1  0.2126213E+000  0.4868346E+02  0.7546771E-02  0.1452575E+00
          2   -1    0    0  501    0  0.00000000000E+00  0.00000000000E+00  0.97769043635E+01  0.97769043635E+01  0.00000000000E+00 0. -1.
         -2   -1    0    0    0  501 -0.00000000000E+00 -0.00000000000E+00 -0.60604019072E+02  0.60604019072E+02  0.00000000000E+00 0.  1.
        -13    1    1    2    0    0  0.11517568899E+02 -0.19771353102E+02 -0.13408375689E+02  0.26520658654E+02  0.00000000000E+00 0. -1.
         13    1    1    2    0    0 -0.11517568899E+02  0.19771353102E+02 -0.37418739019E+02  0.43860264781E+02  0.00000000000E+00 0.  1.
<mgrwt>
<rscale>  0 0.48683455E+02</rscale>
<asrwt>0</asrwt>
<pdfrwt beam="1">  1        2 0.15041391E-02 0.48683455E+02</pdfrwt>
<pdfrwt beam="2">  1       -2 0.93236954E-02 0.48683455E+02</pdfrwt>
<totfact> 0.41984797E+05</totfact>
</mgrwt>
</event>
<event>
 4    1  0.2126213E+000  0.2242000E+02  0.7546771E-02  0.1701088E+00
          2   -1    0    0  501    0  0.00000000000E+00  0.00000000000E+00  0.99041736386E+02  0.99041736386E+02  0.00000000000E+00 0. -1.
         -2   -1    0    0    0  501 -0.00000000000E+00 -0.00000000000E+00 -0.12687998652E+01  0.12687998652E+01  0.00000000000E+00 0.  1.
        -11    1    1    2    0    0 -0.92080206280E+01 -0.59758042665E+01  0.59055955463E+02  0.60067493340E+02  0.00000000000E+00 0.  1.
         11    1    1    2    0    0  0.92080206280E+01  0.59758042665E+01  0.38716981058E+02  0.40243042911E+02  0.00000000000E+00 0. -1.
<mgrwt>
<rscale>  0 0.22420004E+02</rscale>
<asrwt>0</asrwt>
<pdfrwt beam="1">  1        2 0.15237184E-01 0.22420004E+02</pdfrwt>
<pdfrwt beam="2">  1       -2 0.19520006E-03 0.22420004E+02</pdfrwt>
<totfact> 0.40808340E+06</totfact>
</mgrwt>
</event>
<event>
 4    1  0.2126213E+000  0.4767670E+02  0.7546771E-02  0.1458291E+00
          4   -1    0    0  501    0  0.00000000000E+00  0.00000000000E+00  0.54370827249E+01  0.54370827249E+01  0.00000000000E+00 0.  1.
         -4   -1    0    0    0  501 -0.00000000000E+00 -0.00000000000E+00 -0.10451690261E+03  0.10451690261E+03  0.00000000000E+00 0. -1.
        -13    1    1    2    0    0  0.23440859030E+02  0.21888308865E+00 -0.59524966326E+02  0.63974552738E+02  0.00000000000E+00 0. -1.
         13    1    1    2    0    0 -0.23440859030E+02 -0.21888308865E+00 -0.39554853559E+02  0.45979432597E+02  0.00000000000E+00 0.  1.
<mgrwt>
<rscale>  0 0.47676705E+02</rscale>
<asrwt>0</asrwt>
<pdfrwt beam="1">  1        4 0.83647432E-03 0.47676705E+02</pdfrwt>
<pdfrwt beam="2">  1       -4 0.16079522E-01 0.47676705E+02</pdfrwt>
<totfact> 0.13716281E+05</totfact>
</mgrwt>
</event>
<event>
 4    1  0.2126213E+000  0.2888751E+02  0.7546771E-02  0.1610722E+00
         -2   -1    0    0    0  501 -0.00000000000E+00  0.00000000000E+00  0.46624804832E+01  0.46624804832E+01  0.00000000000E+00 0.  1.
          2   -1    0    0  501    0  0.00000000000E+00 -0.00000000000E+00 -0.44744868712E+02  0.44744868712E+02  0.00000000000E+00 0. -1.
        -13    1    1    2    0    0  0.84881530100E+01  0.69333241852E+01 -0.36131297333E+02  0.37756991044E+02  0.00000000000E+00 0. -1.
         13    1    1    2    0    0 -0.84881530100E+01 -0.69333241852E+01 -0.39510908966E+01  0.11650358151E+02  0.00000000000E+00 0.  1.
<mgrwt>
<rscale>  0 0.28887511E+02</rscale>
<asrwt>0</asrwt>
<pdfrwt beam="2">  1        2 0.68838256E-02 0.28887511E+02</pdfrwt>
<pdfrwt beam="1">  1       -2 0.71730473E-03 0.28887511E+02</pdfrwt>
<totfact> 0.19546195E+06</totfact>
</mgrwt>
</event>
<event>
 4    1  0.2126213E+000  0.4935636E+02  0.7546771E-02  0.1448844E+00
         -2   -1    0    0    0  501 -0.00000000000E+00  0.00000000000E+00  0.96038917529E+02  0.96038917529E+02  0.00000000000E+00 0.  1.
          2   -1    0    0  501    0  0.00000000000E+00 -0.00000000000E+00 -0.63413104818E+01  0.63413104818E+01  0.00000000000E+00 0. -1.
        -13    1    1    2    0    0  0.95236125378E+01  0.20003227232E+02  0.22298476135E+02  0.31433267940E+02  0.00000000000E+00 0. -1.
         13    1    1    2    0    0 -0.95236125378E+01 -0.20003227232E+02  0.67399130912E+02  0.70946960070E+02  0.00000000000E+00 0.  1.
<mgrwt>
<rscale>  0 0.49356361E+02</rscale>
<asrwt>0</asrwt>
<pdfrwt beam="2">  1        2 0.97558630E-03 0.49356361E+02</pdfrwt>
<pdfrwt beam="1">  1       -2 0.14775217E-01 0.49356361E+02</pdfrwt>
<totfact> 0.36798344E+05</totfact>
</mgrwt>
</event>
<event>
 4    1  0.2126213E+000  0.2609280E+02  0.7546771E-02  0.1645784E+00
         -2   -1    0    0    0  501 -0.00000000000E+00  0.00000000000E+00  0.21042215102E+02  0.21042215102E+02  0.00000000000E+00 0. -1.
          2   -1    0    0  501    0  0.00000000000E+00 -0.00000000000E+00 -0.80889068877E+01  0.80889068877E+01  0.00000000000E+00 0.  1.
        -11    1    1    2    0    0  0.12385673485E+02  0.27867031985E+01  0.31202808907E+01  0.13073131806E+02  0.00000000000E+00 0.  1.
         11    1    1    2    0    0 -0.12385673485E+02 -0.27867031985E+01  0.98330273241E+01  0.16057990184E+02  0.00000000000E+00 0. -1.
<mgrwt>
<rscale>  0 0.26092797E+02</rscale>
<asrwt>0</asrwt>
<pdfrwt beam="2">  1        2 0.12444472E-02 0.26092797E+02</pdfrwt>
<pdfrwt beam="1">  1       -2 0.32372638E-02 0.26092797E+02</pdfrwt>
<totfact> 0.20712286E+06</totfact>
</mgrwt>
</event>
<event>
 4    1  0.2126213E+000  0.2820013E+02  0.7546771E-02  0.1618881E+00
         -1   -1    0    0    0  501 -0.00000000000E+00  0.00000000000E+00  0.62075644958E+02  0.62075644958E+02  0.00000000000E+00 0.  1.
          1   -1    0    0  501    0  0.00000000000E+00 -0.00000000000E+00 -0.32027356948E+01  0.32027356948E+01  0.00000000000E+00 0. -1.
        -13    1    1    2    0    0 -0.55355853827E+01  0.12120550151E+02  0.40110144218E+02  0.42265519170E+02  0.00000000000E+00 0. -1.
         13    1    1    2    0    0  0.55355853827E+01 -0.12120550151E+02  0.18762765045E+02  0.23012861483E+02  0.00000000000E+00 0.  1.
<mgrwt>
<rscale>  0 0.28200134E+02</rscale>
<asrwt>0</asrwt>
<pdfrwt beam="2">  1        1 0.49272862E-03 0.28200134E+02</pdfrwt>
<pdfrwt beam="1">  1       -1 0.95500983E-02 0.28200134E+02</pdfrwt>
<totfact> 0.15700120E+06</totfact>
</mgrwt>
</event>
<event>
 4    1  0.2126213E+000  0.2993408E+02  0.7546771E-02  0.1598819E+00
          2   -1    0    0  501    0  0.00000000000E+00  0.00000000000E+00  0.30026466261E+01  0.30026466261E+01  0.00000000000E+00 0.  1.
         -2   -1    0    0    0  501 -0.00000000000E+00 -0.00000000000E+00 -0.74604925406E+02  0.74604925406E+02  0.00000000000E+00 0. -1.
        -11    1    1    2    0    0 -0.24939123408E+01  0.14068932165E+02 -0.47354372819E+02  0.49463027365E+02  0.00000000000E+00 0. -1.
         11    1    1    2    0    0  0.24939123408E+01 -0.14068932165E+02 -0.24247905961E+02  0.28144544667E+02  0.00000000000E+00 0.  1.
<mgrwt>
<rscale>  0 0.29934076E+02</rscale>
<asrwt>0</asrwt>
<pdfrwt beam="1">  1        2 0.46194565E-03 0.29934076E+02</pdfrwt>
<pdfrwt beam="2">  1       -2 0.11477680E-01 0.29934076E+02</pdfrwt>
<totfact> 0.12779131E+06</totfact>
</mgrwt>
</event>
<event>
 4    1  0.2126213E+000  0.2487185E+02  0.7546771E-02  0.1662849E+00
          2   -1    0    0  501    0  0.00000000000E+00  0.00000000000E+00  0.48667916290E+02  0.48667916290E+02  0.00000000000E+00 0. -1.
         -2   -1    0    0    0  501 -0.00000000000E+00 -0.00000000000E+00 -0.31777039878E+01  0.31777039878E+01  0.00000000000E+00 0.  1.
        -11    1    1    2    0    0 -0.27137095669E+01  0.10849838962E+02  0.34080127700E+02  0.35868347176E+02  0.00000000000E+00 0. -1.
         11    1    1    2    0    0  0.27137095669E+01 -0.10849838962E+02  0.11410084602E+02  0.15977273101E+02  0.00000000000E+00 0.  1.
<mgrwt>
<rscale>  0 0.24871850E+02</rscale>
<asrwt>0</asrwt>
<pdfrwt beam="1">  1        2 0.74873712E-02 0.24871850E+02</pdfrwt>
<pdfrwt beam="2">  1       -2 0.48887757E-03 0.24871850E+02</pdfrwt>
<totfact> 0.28118094E+06</totfact>
</mgrwt>
</event>
<event>
 4    1  0.2126213E+000  0.2871181E+02  0.7546771E-02  0.1612780E+00
         -2   -1    0    0    0  501 -0.00000000000E+00  0.00000000000E+00  0.58415374914E+01  0.58415374914E+01  0.00000000000E+00 0. -1.
          2   -1    0    0  501    0  0.00000000000E+00 -0.00000000000E+00 -0.35280438695E+02  0.35280438695E+02  0.00000000000E+00 0.  1.
        -11    1    1    2    0    0  0.49945069604E+01  0.10739964010E+02 -0.31015778517E+01  0.12243843836E+02  0.00000000000E+00 0. -1.
         11    1    1    2    0    0 -0.49945069604E+01 -0.10739964010E+02 -0.26337323352E+02  0.28878132351E+02  0.00000000000E+00 0.  1.
<mgrwt>
<rscale>  0 0.28711810E+02</rscale>
<asrwt>0</asrwt>
<pdfrwt beam="2">  1        2 0.54277598E-02 0.28711810E+02</pdfrwt>
<pdfrwt beam="1">  1       -2 0.89869808E-03 0.28711810E+02</pdfrwt>
<totfact> 0.19171297E+06</totfact>
</mgrwt>
</event>
<event>
 4    1  0.2126213E+000  0.5506070E+02  0.7546771E-02  0.1419812E+00
          1   -1    0    0  501    0  0.00000000000E+00  0.00000000000E+00  0.13554958713E+03  0.13554958713E+03  0.00000000000E+00 0. -1.
         -1   -1    0    0    0  501 -0.00000000000E+00 -0.00000000000E+00 -0.55914609222E+01  0.55914609222E+01  0.00000000000E+00 0.  1.
        -13    1    1    2    0    0  0.26444626775E+02  0.62062830420E+01  0.53491271733E+02  0.59992936135E+02  0.00000000000E+00 0. -1.
         13    1    1    2    0    0 -0.26444626775E+02 -0.62062830420E+01  0.76466854479E+02  0.81148111922E+02  0.00000000000E+00 0.  1.
<mgrwt>
<rscale>  0 0.55060702E+02</rscale>
<asrwt>0</asrwt>
<pdfrwt beam="1">  1        1 0.20853780E-01 0.55060702E+02</pdfrwt>
<pdfrwt beam="2">  1       -1 0.86022486E-03 0.55060702E+02</pdfrwt>
<totfact> 0.41327053E+05</totfact>
</mgrwt>
</event>
<event>
 4    1  0.2126213E+000  0.2313090E+02  0.7546771E-02  0.1689397E+00
         -3   -1    0    0    0  501 -0.00000000000E+00  0.00000000000E+00  0.16050592030E+01  0.16050592030E+01  0.00000000000E+00 0. -1.
          3   -1    0    0  501    0  0.00000000000E+00 -0.00000000000E+00 -0.83336255605E+02  0.83336255605E+02  0.00000000000E+00 0.  1.
        -11    1    1    2    0    0  0.11017956204E+02  0.32788258541E+01 -0.36200939781E+02  0.37982286646E+02  0.00000000000E+00 0. -1.
         11    1    1    2    0    0 -0.11017956204E+02 -0.32788258541E+01 -0.45530256622E+02  0.46959028162E+02  0.00000000000E+00 0.  1.
<mgrwt>
<rscale>  0 0.23130899E+02</rscale>
<asrwt>0</asrwt>
<pdfrwt beam="2">  1        3 0.12820965E-01 0.23130899E+02</pdfrwt>
<pdfrwt beam="1">  1       -3 0.24693214E-03 0.23130899E+02</pdfrwt>
<totfact> 0.10719721E+06</totfact>
</mgrwt>
</event>
<event>
 4    1  0.2126213E+000  0.2473617E+02  0.7546771E-02  0.1664821E+00
         -1   -1    0    0    0  501 -0.00000000000E+00  0.00000000000E+00  0.16746077625E+02  0.16746077625E+02  0.00000000000E+00 0.  1.
          1   -1    0    0  501    0  0.00000000000E+00 -0.00000000000E+00 -0.91346467887E+01  0.91346467887E+01  0.00000000000E+00 0. -1.
        -13    1    1    2    0    0  0.10770806888E+02  0.13502388391E+01 -0.23961258414E+01  0.11116422311E+02  0.00000000000E+00 0. -1.
         13    1    1    2    0    0 -0.10770806888E+02 -0.13502388391E+01  0.10007556678E+02  0.14764302103E+02  0.00000000000E+00 0.  1.
<mgrwt>
<rscale>  0 0.24736168E+02</rscale>
<asrwt>0</asrwt>
<pdfrwt beam="2">  1        1 0.14053303E-02 0.24736168E+02</pdfrwt>
<pdfrwt beam="1">  1       -1 0.25763196E-02 0.24736168E+02</pdfrwt>
<totfact> 0.23504452E+06</totfact>
</mgrwt>
</event>
<event>
 4    1  0.2126213E+000  0.2680966E+02  0.7546771E-02  0.1636292E+00
          2   -1    0    0  501    0  0.00000000000E+00  0.00000000000E+00  0.44177541401E+02  0.44177541401E+02  0.00000000000E+00 0. -1.
         -2   -1    0    0    0  501 -0.00000000000E+00 -0.00000000000E+00 -0.40674400488E+01  0.40674400488E+01  0.00000000000E+00 0.  1.
        -11    1    1    2    0    0  0.88997238099E+01 -0.79742785424E+01  0.30985708862E+02  0.33210064074E+02  0.00000000000E+00 0. -1.
         11    1    1    2    0    0 -0.88997238099E+01  0.79742785424E+01  0.91243924907E+01  0.15034917376E+02  0.00000000000E+00 0.  1.
<mgrwt>
<rscale>  0 0.26809663E+02</rscale>
<asrwt>0</asrwt>
<pdfrwt beam="1">  1        2 0.67965445E-02 0.26809663E+02</pdfrwt>
<pdfrwt beam="2">  1       -2 0.62576004E-03 0.26809663E+02</pdfrwt>
<totfact> 0.23263362E+06</totfact>
</mgrwt>
</event>
<event>
 4    1  0.2126213E+000  0.2444935E+02  0.7546771E-02  0.1669039E+00
         -1   -1    0    0    0  501 -0.00000000000E+00  0.00000000000E+00  0.69678521780E+01  0.69678521780E+01  0.00000000000E+00 0.  1.
          1   -1    0    0  501    0  0.00000000000E+00 -0.00000000000E+00 -0.21447461262E+02  0.21447461262E+02  0.00000000000E+00 0. -1.
        -11    1    1    2    0    0  0.56753500964E+01  0.10824499993E+02 -0.75323052715E+01  0.14356706500E+02  0.00000000000E+00 0. -1.
         11    1    1    2    0    0 -0.56753500964E+01 -0.10824499993E+02 -0.69473038122E+01  0.14058606940E+02  0.00000000000E+00 0.  1.
<mgrwt>
<rscale>  0 0.24449355E+02</rscale>
<asrwt>0</asrwt>
<pdfrwt beam="2">  1        1 0.32996093E-02 0.24449355E+02</pdfrwt>
<pdfrwt beam="1">  1       -1 0.10719773E-02 0.24449355E+02</pdfrwt>
<totfact> 0.25177466E+06</totfact>
</mgrwt>
</event>
<event>
 4    1  0.2126213E+000  0.3251425E+02  0.7546771E-02  0.1571852E+00
          2   -1    0    0  501    0  0.00000000000E+00  0.00000000000E+00  0.95800229786E+02  0.95800229786E+02  0.00000000000E+00 0. -1.
         -2   -1    0    0    0  501 -0.00000000000E+00 -0.00000000000E+00 -0.27588050467E+01  0.27588050467E+01  0.00000000000E+00 0.  1.
        -11    1    1    2    0    0 -0.92454655718E+00 -0.13240322505E+02  0.18063489777E+02  0.22415409639E+02  0.00000000000E+00 0. -1.
         11    1    1    2    0    0  0.92454655718E+00  0.13240322505E+02  0.74977934962E+02  0.76143625193E+02  0.00000000000E+00 0.  1.
<mgrwt>
<rscale>  0 0.32514253E+02</rscale>
<asrwt>0</asrwt>
<pdfrwt beam="1">  1        2 0.14738494E-01 0.32514253E+02</pdfrwt>
<pdfrwt beam="2">  1       -2 0.42443162E-03 0.32514253E+02</pdfrwt>
<totfact> 0.17083627E+06</totfact>
</mgrwt>
</event>
<event>
 4    1  0.2126213E+000  0.5096854E+03  0.7546771E-02  0.1011281E+00
          2   -1    0    0  501    0  0.00000000000E+00  0.00000000000E+00  0.23220494380E+04  0.23220494380E+04  0.00000000000E+00 0. -1.
         -2   -1    0    0    0  501 -0.00000000000E+00 -0.00000000000E+00 -0.27968747299E+02  0.27968747299E+02  0.00000000000E+00 0.  1.
        -11    1    1    2    0    0 -0.15763450794E+03 -0.20016933015E+03  0.11224625040E+04  0.11510162778E+04  0.00000000000E+00 0.  1.
         11    1    1    2    0    0  0.15763450794E+03  0.20016933015E+03  0.11716181867E+04  0.11990019075E+04  0.00000000000E+00 0. -1.
<mgrwt>
<rscale>  0 0.50968545E+03</rscale>
<asrwt>0</asrwt>
<pdfrwt beam="1">  1        2 0.35723823E+00 0.50968545E+03</pdfrwt>
<pdfrwt beam="2">  1       -2 0.43028860E-02 0.50968545E+03</pdfrwt>
<totfact> 0.12045100E+03</totfact>
</mgrwt>
</event>
<event>
 4    1  0.2126213E+000  0.5909268E+02  0.7546771E-02  0.1401679E+00
         -1   -1    0    0    0  501 -0.00000000000E+00  0.00000000000E+00  0.50180061632E+01  0.50180061632E+01  0.00000000000E+00 0.  1.
          1   -1    0    0  501    0  0.00000000000E+00 -0.00000000000E+00 -0.17397072155E+03  0.17397072155E+03  0.00000000000E+00 0. -1.
        -13    1    1    2    0    0 -0.23538057092E+02 -0.11325243467E+02 -0.42649991188E+02  0.50013228446E+02  0.00000000000E+00 0.  1.
         13    1    1    2    0    0  0.23538057092E+02  0.11325243467E+02 -0.12630272420E+03  0.12897549927E+03  0.00000000000E+00 0. -1.
<mgrwt>
<rscale>  0 0.59092678E+02</rscale>
<asrwt>0</asrwt>
<pdfrwt beam="2">  1        1 0.26764718E-01 0.59092678E+02</pdfrwt>
<pdfrwt beam="1">  1       -1 0.77200120E-03 0.59092678E+02</pdfrwt>
<totfact> 0.35949817E+05</totfact>
</mgrwt>
</event>
<event>
 4    1  0.2126213E+000  0.3261713E+02  0.7546771E-02  0.1570840E+00
         -4   -1    0    0    0  501 -0.00000000000E+00  0.00000000000E+00  0.34453773389E+01  0.34453773389E+01  0.00000000000E+00 0. -1.
          4   -1    0    0  501    0  0.00000000000E+00 -0.00000000000E+00 -0.77195990632E+02  0.77195990632E+02  0.00000000000E+00 0.  1.
        -11    1    1    2    0    0 -0.10708078274E+02 -0.12300203537E+02 -0.37138928240E+02  0.40561779278E+02  0.00000000000E+00 0. -1.
         11    1    1    2    0    0  0.10708078274E+02  0.12300203537E+02 -0.36611685053E+02  0.40079588693E+02  0.00000000000E+00 0.  1.
<mgrwt>
<rscale>  0 0.32617131E+02</rscale>
<asrwt>0</asrwt>
<pdfrwt beam="2">  1        4 0.11876306E-01 0.32617131E+02</pdfrwt>
<pdfrwt beam="1">  1       -4 0.53005808E-03 0.32617131E+02</pdfrwt>
<totfact> 0.36369343E+05</totfact>
</mgrwt>
</event>
<event>
 4    1  0.2126213E+000  0.2162045E+02  0.7546771E-02  0.1714900E+00
         -2   -1    0    0    0  501 -0.00000000000E+00  0.00000000000E+00  0.13461609105E+02  0.13461609105E+02  0.00000000000E+00 0. -1.
          2   -1    0    0  501    0  0.00000000000E+00 -0.00000000000E+00 -0.86810557179E+01  0.86810557179E+01  0.00000000000E+00 0.  1.
        -11    1    1    2    0    0 -0.34180833494E+01  0.10124938268E+02  0.71889366157E+00  0.10710484434E+02  0.00000000000E+00 0. -1.
         11    1    1    2    0    0  0.34180833494E+01 -0.10124938268E+02  0.40616597253E+01  0.11432180389E+02  0.00000000000E+00 0.  1.
<mgrwt>
<rscale>  0 0.21620451E+02</rscale>
<asrwt>0</asrwt>
<pdfrwt beam="2">  1        2 0.13355470E-02 0.21620451E+02</pdfrwt>
<pdfrwt beam="1">  1       -2 0.20710168E-02 0.21620451E+02</pdfrwt>
<totfact> 0.32611988E+06</totfact>
</mgrwt>
</event>
<event>
 4    1  0.2126213E+000  0.3513541E+02  0.7546771E-02  0.1547401E+00
          2   -1    0    0  501    0  0.00000000000E+00  0.00000000000E+00  0.31789511733E+01  0.31789511733E+01  0.00000000000E+00 0.  1.
         -2   -1    0    0    0  501 -0.00000000000E+00 -0.00000000000E+00 -0.97083701371E+02  0.97083701371E+02  0.00000000000E+00 0. -1.
        -13    1    1    2    0    0  0.14345673009E+02  0.82860178588E+00 -0.75792080566E+02  0.77142234810E+02  0.00000000000E+00 0. -1.
         13    1    1    2    0    0 -0.14345673009E+02 -0.82860178588E+00 -0.18112669631E+02  0.23120417734E+02  0.00000000000E+00 0.  1.
<mgrwt>
<rscale>  0 0.35135415E+02</rscale>
<asrwt>0</asrwt>
<pdfrwt beam="1">  1        2 0.48906937E-03 0.35135415E+02</pdfrwt>
<pdfrwt beam="2">  1       -2 0.14935955E-01 0.35135415E+02</pdfrwt>
<totfact> 0.83002226E+05</totfact>
</mgrwt>
</event>
<event>
 4    1  0.2126213E+000  0.2956572E+02  0.7546771E-02  0.1602939E+00
         -4   -1    0    0    0  501 -0.00000000000E+00  0.00000000000E+00  0.23584264359E+02  0.23584264359E+02  0.00000000000E+00 0. -1.
          4   -1    0    0  501    0  0.00000000000E+00 -0.00000000000E+00 -0.92660466408E+01  0.92660466408E+01  0.00000000000E+00 0.  1.
        -11    1    1    2    0    0 -0.13352683276E+02 -0.63200149676E+01  0.65544510652E+01  0.16161607860E+02  0.00000000000E+00 0. -1.
         11    1    1    2    0    0  0.13352683276E+02  0.63200149676E+01  0.77637666535E+01  0.16688703140E+02  0.00000000000E+00 0.  1.
<mgrwt>
<rscale>  0 0.29565716E+02</rscale>
<asrwt>0</asrwt>
<pdfrwt beam="2">  1        4 0.14255456E-02 0.29565716E+02</pdfrwt>
<pdfrwt beam="1">  1       -4 0.36283483E-02 0.29565716E+02</pdfrwt>
<totfact> 0.53194815E+05</totfact>
</mgrwt>
</event>
<event>
 4    1  0.2126213E+000  0.3568630E+02  0.7546771E-02  0.1542589E+00
          2   -1    0    0  501    0  0.00000000000E+00  0.00000000000E+00  0.94279130337E+01  0.94279130337E+01  0.00000000000E+00 0.  1.
         -2   -1    0    0    0  501 -0.00000000000E+00 -0.00000000000E+00 -0.33769724774E+02  0.33769724774E+02  0.00000000000E+00 0. -1.
        -11    1    1    2    0    0  0.59669337384E+01  0.16562667060E+02 -0.86517961616E+01  0.19615805240E+02  0.00000000000E+00 0. -1.
         11    1    1    2    0    0 -0.59669337384E+01 -0.16562667060E+02 -0.15690015579E+02  0.23581832568E+02  0.00000000000E+00 0.  1.
<mgrwt>
<rscale>  0 0.35686301E+02</rscale>
<asrwt>0</asrwt>
<pdfrwt beam="1">  1        2 0.14504481E-02 0.35686301E+02</pdfrwt>
<pdfrwt beam="2">  1       -2 0.51953423E-02 0.35686301E+02</pdfrwt>
<totfact> 0.96058987E+05</totfact>
</mgrwt>
</event>
<event>
 4    1  0.2126213E+000  0.2581584E+02  0.7546771E-02  0.1649553E+00
          2   -1    0    0  501    0  0.00000000000E+00  0.00000000000E+00  0.23702758013E+02  0.23702758013E+02  0.00000000000E+00 0.  1.
         -2   -1    0    0    0  501 -0.00000000000E+00 -0.00000000000E+00 -0.70293255498E+01  0.70293255498E+01  0.00000000000E+00 0. -1.
        -11    1    1    2    0    0  0.99027517809E+01 -0.44912338016E+01  0.56666120155E-01  0.10873770503E+02  0.00000000000E+00 0.  1.
         11    1    1    2    0    0 -0.99027517809E+01  0.44912338016E+01  0.16616766344E+02  0.19858313061E+02  0.00000000000E+00 0. -1.
<mgrwt>
<rscale>  0 0.25815840E+02</rscale>
<asrwt>0</asrwt>
<pdfrwt beam="1">  1        2 0.36465781E-02 0.25815840E+02</pdfrwt>
<pdfrwt beam="2">  1       -2 0.10814347E-02 0.25815840E+02</pdfrwt>
<totfact> 0.23519284E+06</totfact>
</mgrwt>
</event>
<event>
 4    1  0.2126213E+000  0.7513844E+02  0.7546771E-02  0.1343443E+00
         -4   -1    0    0    0  501 -0.00000000000E+00  0.00000000000E+00  0.23116584966E+02  0.23116584966E+02  0.00000000000E+00 0. -1.
          4   -1    0    0  501    0  0.00000000000E+00 -0.00000000000E+00 -0.61057729899E+02  0.61057729899E+02  0.00000000000E+00 0.  1.
        -13    1    1    2    0    0 -0.42326649819E+01 -0.27030958313E+02 -0.47812726663E+02  0.55087611957E+02  0.00000000000E+00 0.  1.
         13    1    1    2    0    0  0.42326649819E+01  0.27030958313E+02  0.98715817305E+01  0.29086702908E+02  0.00000000000E+00 0. -1.
<mgrwt>
<rscale>  0 0.75138438E+02</rscale>
<asrwt>0</asrwt>
<pdfrwt beam="2">  1        4 0.93934969E-02 0.75138438E+02</pdfrwt>
<pdfrwt beam="1">  1       -4 0.35563977E-02 0.75138438E+02</pdfrwt>
<totfact> 0.46134710E+04</totfact>
</mgrwt>
</event>
<event>
 4    1  0.2126213E+000  0.4360563E+02  0.7546771E-02  0.1483239E+00
          2   -1    0    0  501    0  0.00000000000E+00  0.00000000000E+00  0.54673097732E+02  0.54673097732E+02  0.00000000000E+00 0.  1.
         -2   -1    0    0    0  501 -0.00000000000E+00 -0.00000000000E+00 -0.86946351116E+01  0.86946351116E+01  0.00000000000E+00 0. -1.
        -11    1    1    2    0    0 -0.18170556922E+02  0.11654441381E+02  0.27436950175E+02  0.34911049507E+02  0.00000000000E+00 0.  1.
         11    1    1    2    0    0  0.18170556922E+02 -0.11654441381E+02  0.18541512446E+02  0.28456683337E+02  0.00000000000E+00 0. -1.
<mgrwt>
<rscale>  0 0.43605625E+02</rscale>
<asrwt>0</asrwt>
<pdfrwt beam="1">  1        2 0.84112456E-02 0.43605625E+02</pdfrwt>
<pdfrwt beam="2">  1       -2 0.13376362E-02 0.43605625E+02</pdfrwt>
<totfact> 0.73904082E+05</totfact>
</mgrwt>
</event>
<event>
 4    1  0.2126213E+000  0.2652010E+02  0.7546771E-02  0.1640082E+00
          1   -1    0    0  501    0  0.00000000000E+00  0.00000000000E+00  0.54698004167E+01  0.54698004167E+01  0.00000000000E+00 0.  1.
         -1   -1    0    0    0  501 -0.00000000000E+00 -0.00000000000E+00 -0.32145393228E+02  0.32145393228E+02  0.00000000000E+00 0. -1.
        -11    1    1    2    0    0  0.70058384829E+01 -0.10632858309E+02 -0.80899516096E+01  0.15085979110E+02  0.00000000000E+00 0.  1.
         11    1    1    2    0    0 -0.70058384829E+01  0.10632858309E+02 -0.18585641202E+02  0.22529214535E+02  0.00000000000E+00 0. -1.
<mgrwt>
<rscale>  0 0.26520097E+02</rscale>
<asrwt>0</asrwt>
<pdfrwt beam="1">  1        1 0.84150775E-03 0.26520097E+02</pdfrwt>
<pdfrwt beam="2">  1       -1 0.49454452E-02 0.26520097E+02</pdfrwt>
<totfact> 0.19247518E+06</totfact>
</mgrwt>
</event>
<event>
 4    1  0.2126213E+000  0.2230534E+02  0.7546771E-02  0.1703024E+00
         -2   -1    0    0    0  501 -0.00000000000E+00  0.00000000000E+00  0.35351025521E+02  0.35351025521E+02  0.00000000000E+00 0.  1.
          2   -1    0    0  501    0  0.00000000000E+00 -0.00000000000E+00 -0.35184847919E+01  0.35184847919E+01  0.00000000000E+00 0. -1.
        -13    1    1    2    0    0  0.18328735653E+01 -0.10271198802E+02  0.90500559069E+01  0.13811606071E+02  0.00000000000E+00 0.  1.
         13    1    1    2    0    0 -0.18328735653E+01  0.10271198802E+02  0.22782484823E+02  0.25057904243E+02  0.00000000000E+00 0. -1.
<mgrwt>
<rscale>  0 0.22305340E+02</rscale>
<asrwt>0</asrwt>
<pdfrwt beam="2">  1        2 0.54130538E-03 0.22305340E+02</pdfrwt>
<pdfrwt beam="1">  1       -2 0.54386191E-02 0.22305340E+02</pdfrwt>
<totfact> 0.27865888E+06</totfact>
</mgrwt>
</event>
<event>
 4    1  0.2126213E+000  0.2601444E+02  0.7546771E-02  0.1646845E+00
          2   -1    0    0  501    0  0.00000000000E+00  0.00000000000E+00  0.21821034795E+01  0.21821034795E+01  0.00000000000E+00 0.  1.
         -2   -1    0    0    0  501 -0.00000000000E+00 -0.00000000000E+00 -0.77534280103E+02  0.77534280103E+02  0.00000000000E+00 0. -1.
        -11    1    1    2    0    0 -0.10052101716E+02  0.70274488030E+01 -0.50947793752E+02  0.52403315485E+02  0.00000000000E+00 0. -1.
         11    1    1    2    0    0  0.10052101716E+02 -0.70274488030E+01 -0.24404382871E+02  0.27313068098E+02  0.00000000000E+00 0.  1.
<mgrwt>
<rscale>  0 0.26014444E+02</rscale>
<asrwt>0</asrwt>
<pdfrwt beam="1">  1        2 0.33570819E-03 0.26014444E+02</pdfrwt>
<pdfrwt beam="2">  1       -2 0.11928352E-01 0.26014444E+02</pdfrwt>
<totfact> 0.17500369E+06</totfact>
</mgrwt>
</event>
<event>
 4    1  0.2126213E+000  0.2693739E+02  0.7546771E-02  0.1634639E+00
         -2   -1    0    0    0  501 -0.00000000000E+00  0.00000000000E+00  0.23551939436E+01  0.23551939436E+01  0.00000000000E+00 0. -1.
          2   -1    0    0  501    0  0.00000000000E+00 -0.00000000000E+00 -0.77023708960E+02  0.77023708960E+02  0.00000000000E+00 0.  1.
        -13    1    1    2    0    0  0.12735411290E+02 -0.37861360943E+01 -0.30824416454E+02  0.33565907957E+02  0.00000000000E+00 0.  1.
         13    1    1    2    0    0 -0.12735411290E+02  0.37861360943E+01 -0.43844098562E+02  0.45812994946E+02  0.00000000000E+00 0. -1.
<mgrwt>
<rscale>  0 0.26937392E+02</rscale>
<asrwt>0</asrwt>
<pdfrwt beam="2">  1        2 0.11849801E-01 0.26937392E+02</pdfrwt>
<pdfrwt beam="1">  1       -2 0.36233753E-03 0.26937392E+02</pdfrwt>
<totfact> 0.25371396E+06</totfact>
</mgrwt>
</event>
<event>
 4    1  0.2126213E+000  0.2349400E+02  0.7546771E-02  0.1683625E+00
         -4   -1    0    0    0  501 -0.00000000000E+00  0.00000000000E+00  0.35864655910E+01  0.35864655910E+01  0.00000000000E+00 0. -1.
          4   -1    0    0  501    0  0.00000000000E+00 -0.00000000000E+00 -0.38475762949E+02  0.38475762949E+02  0.00000000000E+00 0.  1.
        -11    1    1    2    0    0 -0.11733612878E+02 -0.40022083828E+00 -0.16741722138E+02  0.20448058783E+02  0.00000000000E+00 0.  1.
         11    1    1    2    0    0  0.11733612878E+02  0.40022083828E+00 -0.18147575220E+02  0.21614169757E+02  0.00000000000E+00 0. -1.
<mgrwt>
<rscale>  0 0.23493999E+02</rscale>
<asrwt>0</asrwt>
<pdfrwt beam="2">  1        4 0.59193483E-02 0.23493999E+02</pdfrwt>
<pdfrwt beam="1">  1       -4 0.55176393E-03 0.23493999E+02</pdfrwt>
<totfact> 0.84958340E+05</totfact>
</mgrwt>
</event>
<event>
 4    1  0.2126213E+000  0.4035316E+02  0.7546771E-02  0.1505629E+00
          2   -1    0    0  501    0  0.00000000000E+00  0.00000000000E+00  0.60371198911E+01  0.60371198911E+01  0.00000000000E+00 0. -1.
         -2   -1    0    0    0  501 -0.00000000000E+00 -0.00000000000E+00 -0.67431892511E+02  0.67431892511E+02  0.00000000000E+00 0.  1.
        -11    1    1    2    0    0 -0.14893011520E+02  0.10567661546E+02 -0.46318649593E+02  0.49788498299E+02  0.00000000000E+00 0.  1.
         11    1    1    2    0    0  0.14893011520E+02 -0.10567661546E+02 -0.15076123026E+02  0.23680514103E+02  0.00000000000E+00 0. -1.
<mgrwt>
<rscale>  0 0.40353162E+02</rscale>
<asrwt>0</asrwt>
<pdfrwt beam="1">  1        2 0.92878761E-03 0.40353162E+02</pdfrwt>
<pdfrwt beam="2">  1       -2 0.10374138E-01 0.40353162E+02</pdfrwt>
<totfact> 0.64542652E+05</totfact>
</mgrwt>
</event>
<event>
 4    1  0.2126213E+000  0.3839730E+02  0.7546771E-02  0.1520348E+00
         -3   -1    0    0    0  501 -0.00000000000E+00  0.00000000000E+00  0.46158158786E+01  0.46158158786E+01  0.00000000000E+00 0.  1.
          3   -1    0    0  501    0  0.00000000000E+00 -0.00000000000E+00 -0.79853324145E+02  0.79853324145E+02  0.00000000000E+00 0. -1.
        -11    1    1    2    0    0  0.50078644144E+01 -0.14433896217E+02 -0.63195246897E+02  0.65015808050E+02  0.00000000000E+00 0. -1.
         11    1    1    2    0    0 -0.50078644144E+01  0.14433896217E+02 -0.12042261369E+02  0.19453331974E+02  0.00000000000E+00 0.  1.
<mgrwt>
<rscale>  0 0.38397304E+02</rscale>
<asrwt>0</asrwt>
<pdfrwt beam="2">  1        3 0.12285127E-01 0.38397304E+02</pdfrwt>
<pdfrwt beam="1">  1       -3 0.71012554E-03 0.38397304E+02</pdfrwt>
<totfact> 0.33198075E+05</totfact>
</mgrwt>
</event>
<event>
 4    1  0.2126213E+000  0.2344133E+02  0.7546771E-02  0.1684455E+00
          2   -1    0    0  501    0  0.00000000000E+00  0.00000000000E+00  0.73237015354E+02  0.73237015354E+02  0.00000000000E+00 0.  1.
         -2   -1    0    0    0  501 -0.00000000000E+00 -0.00000000000E+00 -0.18757447667E+01  0.18757447667E+01  0.00000000000E+00 0. -1.
        -11    1    1    2    0    0 -0.61932254900E+01  0.95481410682E+01  0.26702389481E+02  0.29026550670E+02  0.00000000000E+00 0. -1.
         11    1    1    2    0    0  0.61932254900E+01 -0.95481410682E+01  0.44658881107E+02  0.46086209451E+02  0.00000000000E+00 0.  1.
<mgrwt>
<rscale>  0 0.23441327E+02</rscale>
<asrwt>0</asrwt>
<pdfrwt beam="1">  1        2 0.11267231E-01 0.23441327E+02</pdfrwt>
<pdfrwt beam="2">  1       -2 0.28857617E-03 0.23441327E+02</pdfrwt>
<totfact> 0.34598855E+06</totfact>
</mgrwt>
</event>
<event>
 4    1  0.2126213E+000  0.2837281E+02  0.7546771E-02  0.1616804E+00
         -2   -1    0    0    0  501 -0.00000000000E+00  0.00000000000E+00  0.31651842475E+01  0.31651842475E+01  0.00000000000E+00 0. -1.
          2   -1    0    0  501    0  0.00000000000E+00 -0.00000000000E+00 -0.63583666208E+02  0.63583666208E+02  0.00000000000E+00 0.  1.
        -13    1    1    2    0    0  0.69385586884E+01 -0.12291359836E+02 -0.33563518795E+02  0.36410587982E+02  0.00000000000E+00 0.  1.
         13    1    1    2    0    0 -0.69385586884E+01  0.12291359836E+02 -0.26854963165E+02  0.30338262473E+02  0.00000000000E+00 0. -1.
<mgrwt>
<rscale>  0 0.28372805E+02</rscale>
<asrwt>0</asrwt>
<pdfrwt beam="2">  1        2 0.97821018E-02 0.28372805E+02</pdfrwt>
<pdfrwt beam="1">  1       -2 0.48695146E-03 0.28372805E+02</pdfrwt>
<totfact> 0.21639062E+06</totfact>
</mgrwt>
</event>
<event>
 4    1  0.2126213E+000  0.7896142E+02  0.7546771E-02  0.1332025E+00
         -1   -1    0    0    0  501 -0.00000000000E+00  0.00000000000E+00  0.66867016223E+01  0.66867016223E+01  0.00000000000E+00 0. -1.
          1   -1    0    0  501    0  0.00000000000E+00 -0.00000000000E+00 -0.23310841376E+03  0.23310841376E+03  0.00000000000E+00 0.  1.
        -13    1    1    2    0    0  0.38134711652E+02  0.92488519984E+01 -0.99998258110E+02  0.10742182795E+03  0.00000000000E+00 0.  1.
         13    1    1    2    0    0 -0.38134711652E+02 -0.92488519984E+01 -0.12642345403E+03  0.13237328743E+03  0.00000000000E+00 0. -1.
<mgrwt>
<rscale>  0 0.78961419E+02</rscale>
<asrwt>0</asrwt>
<pdfrwt beam="2">  1        1 0.35862828E-01 0.78961419E+02</pdfrwt>
<pdfrwt beam="1">  1       -1 0.10287235E-02 0.78961419E+02</pdfrwt>
<totfact> 0.17867927E+05</totfact>
</mgrwt>
</event>
<event>
 4    1  0.2126213E+000  0.5166315E+02  0.7546771E-02  0.1436572E+00
         -2   -1    0    0    0  501 -0.00000000000E+00  0.00000000000E+00  0.41791413116E+02  0.41791413116E+02  0.00000000000E+00 0.  1.
          2   -1    0    0  501    0  0.00000000000E+00 -0.00000000000E+00 -0.15966685031E+02  0.15966685031E+02  0.00000000000E+00 0. -1.
        -11    1    1    2    0    0  0.15555432284E+02  0.20056314417E+00  0.35967014913E+02  0.39187215529E+02  0.00000000000E+00 0.  1.
         11    1    1    2    0    0 -0.15555432284E+02 -0.20056314417E+00 -0.10142286828E+02  0.18570882619E+02  0.00000000000E+00 0. -1.
<mgrwt>
<rscale>  0 0.51663152E+02</rscale>
<asrwt>0</asrwt>
<pdfrwt beam="2">  1        2 0.24564131E-02 0.51663152E+02</pdfrwt>
<pdfrwt beam="1">  1       -2 0.64294481E-02 0.51663152E+02</pdfrwt>
<totfact> 0.38876935E+05</totfact>
</mgrwt>
</event>
<event>
 4    1  0.2126213E+000  0.2723307E+02  0.7546771E-02  0.1630855E+00
         -4   -1    0    0    0  501 -0.00000000000E+00  0.00000000000E+00  0.22312393621E+02  0.22312393621E+02  0.00000000000E+00 0. -1.
          4   -1    0    0  501    0  0.00000000000E+00 -0.00000000000E+00 -0.83097344224E+01  0.83097344224E+01  0.00000000000E+00 0.  1.
        -13    1    1    2    0    0 -0.11543803815E+02  0.67524513908E+01  0.41224266646E+01  0.13994620677E+02  0.00000000000E+00 0.  1.
         13    1    1    2    0    0  0.11543803815E+02 -0.67524513908E+01  0.98802325343E+01  0.16627507367E+02  0.00000000000E+00 0. -1.
<mgrwt>
<rscale>  0 0.27233073E+02</rscale>
<asrwt>0</asrwt>
<pdfrwt beam="2">  1        4 0.12784207E-02 0.27233073E+02</pdfrwt>
<pdfrwt beam="1">  1       -4 0.34326759E-02 0.27233073E+02</pdfrwt>
<totfact> 0.64438047E+05</totfact>
</mgrwt>
</event>
<event>
 4    1  0.2126213E+000  0.4014672E+02  0.7546771E-02  0.1507135E+00
          2   -1    0    0  501    0  0.00000000000E+00  0.00000000000E+00  0.35139201992E+01  0.35139201992E+01  0.00000000000E+00 0. -1.
         -2   -1    0    0    0  501 -0.00000000000E+00 -0.00000000000E+00 -0.11466956044E+03  0.11466956044E+03  0.00000000000E+00 0.  1.
        -13    1    1    2    0    0 -0.15617125911E+02 -0.71879818623E+01 -0.25073287605E+02  0.30401175245E+02  0.00000000000E+00 0. -1.
         13    1    1    2    0    0  0.15617125911E+02  0.71879818623E+01 -0.86082352640E+02  0.87782305398E+02  0.00000000000E+00 0.  1.
<mgrwt>
<rscale>  0 0.40146715E+02</rscale>
<asrwt>0</asrwt>
<pdfrwt beam="1">  1        2 0.54060309E-03 0.40146715E+02</pdfrwt>
<pdfrwt beam="2">  1       -2 0.17641472E-01 0.40146715E+02</pdfrwt>
<totfact> 0.57926826E+05</totfact>
</mgrwt>
</event>
<event>
 4    1  0.2126213E+000  0.5027285E+02  0.7546771E-02  0.1443875E+00
         -1   -1    0    0    0  501 -0.00000000000E+00  0.00000000000E+00  0.26868643845E+01  0.26868643845E+01  0.00000000000E+00 0.  1.
          1   -1    0    0  501    0  0.00000000000E+00 -0.00000000000E+00 -0.23515882533E+03  0.23515882533E+03  0.00000000000E+00 0. -1.
        -11    1    1    2    0    0  0.24648482043E+02  0.43666797903E+01 -0.10542222933E+03  0.10835341248E+03  0.00000000000E+00 0. -1.
         11    1    1    2    0    0 -0.24648482043E+02 -0.43666797903E+01 -0.12704973161E+03  0.12949227723E+03  0.00000000000E+00 0.  1.
<mgrwt>
<rscale>  0 0.50272850E+02</rscale>
<asrwt>0</asrwt>
<pdfrwt beam="2">  1        1 0.36178290E-01 0.50272850E+02</pdfrwt>
<pdfrwt beam="1">  1       -1 0.41336365E-03 0.50272850E+02</pdfrwt>
<totfact> 0.57038595E+05</totfact>
</mgrwt>
</event>
<event>
 4    1  0.2126213E+000  0.3349614E+02  0.7546771E-02  0.1562376E+00
         -4   -1    0    0    0  501 -0.00000000000E+00  0.00000000000E+00  0.67311005858E+02  0.67311005858E+02  0.00000000000E+00 0. -1.
          4   -1    0    0  501    0  0.00000000000E+00 -0.00000000000E+00 -0.41671907928E+01  0.41671907928E+01  0.00000000000E+00 0.  1.
        -11    1    1    2    0    0 -0.14743687272E+02 -0.63967424774E+01  0.41627007699E+02  0.44621770457E+02  0.00000000000E+00 0. -1.
         11    1    1    2    0    0  0.14743687272E+02  0.63967424774E+01  0.21516807366E+02  0.26856426194E+02  0.00000000000E+00 0.  1.
<mgrwt>
<rscale>  0 0.33496137E+02</rscale>
<asrwt>0</asrwt>
<pdfrwt beam="2">  1        4 0.64110632E-03 0.33496137E+02</pdfrwt>
<pdfrwt beam="1">  1       -4 0.10355539E-01 0.33496137E+02</pdfrwt>
<totfact> 0.35173840E+05</totfact>
</mgrwt>
</event>
<event>
 4    1  0.2126213E+000  0.3616433E+02  0.7546771E-02  0.1538498E+00
         -2   -1    0    0    0  501 -0.00000000000E+00  0.00000000000E+00  0.30337000162E+02  0.30337000162E+02  0.00000000000E+00 0.  1.
          2   -1    0    0  501    0  0.00000000000E+00 -0.00000000000E+00 -0.10777752811E+02  0.10777752811E+02  0.00000000000E+00 0. -1.
        -11    1    1    2    0    0  0.19082039447E+01 -0.10973964203E+02  0.25973601150E+02  0.28261229438E+02  0.00000000000E+00 0.  1.
         11    1    1    2    0    0 -0.19082039447E+01  0.10973964203E+02 -0.64143537988E+01  0.12853523536E+02  0.00000000000E+00 0. -1.
<mgrwt>
<rscale>  0 0.36164330E+02</rscale>
<asrwt>0</asrwt>
<pdfrwt beam="2">  1        2 0.16581158E-02 0.36164330E+02</pdfrwt>
<pdfrwt beam="1">  1       -2 0.46672308E-02 0.36164330E+02</pdfrwt>
<totfact> 0.94414772E+05</totfact>
</mgrwt>
</event>
<event>
 4    1  0.2126213E+000  0.2161093E+02  0.7546771E-02  0.1715069E+00
         -2   -1    0    0    0  501 -0.00000000000E+00  0.00000000000E+00  0.16523984753E+01  0.16523984753E+01  0.00000000000E+00 0. -1.
          2   -1    0    0  501    0  0.00000000000E+00 -0.00000000000E+00 -0.70659751543E+02  0.70659751543E+02  0.00000000000E+00 0.  1.
        -11    1    1    2    0    0 -0.10579886999E+02  0.67414115917E+00 -0.41498201135E+02  0.42830937098E+02  0.00000000000E+00 0.  1.
         11    1    1    2    0    0  0.10579886999E+02 -0.67414115917E+00 -0.27509151932E+02  0.29481212920E+02  0.00000000000E+00 0. -1.
<mgrwt>
<rscale>  0 0.21610929E+02</rscale>
<asrwt>0</asrwt>
<pdfrwt beam="2">  1        2 0.10870733E-01 0.21610929E+02</pdfrwt>
<pdfrwt beam="1">  1       -2 0.25421511E-03 0.21610929E+02</pdfrwt>
<totfact> 0.41303536E+06</totfact>
</mgrwt>
</event>
<event>
 4    1  0.2126213E+000  0.7115202E+02  0.7546771E-02  0.1356219E+00
         -2   -1    0    0    0  501 -0.00000000000E+00  0.00000000000E+00  0.61592747380E+01  0.61592747380E+01  0.00000000000E+00 0.  1.
          2   -1    0    0  501    0  0.00000000000E+00 -0.00000000000E+00 -0.20548724925E+03  0.20548724925E+03  0.00000000000E+00 0. -1.
        -11    1    1    2    0    0  0.20132011202E+02 -0.28541511665E+02 -0.79547314982E+02  0.86877448650E+02  0.00000000000E+00 0. -1.
         11    1    1    2    0    0 -0.20132011202E+02  0.28541511665E+02 -0.11978065953E+03  0.12476907534E+03  0.00000000000E+00 0.  1.
<mgrwt>
<rscale>  0 0.71152018E+02</rscale>
<asrwt>0</asrwt>
<pdfrwt beam="2">  1        2 0.31613427E-01 0.71152018E+02</pdfrwt>
<pdfrwt beam="1">  1       -2 0.94758062E-03 0.71152018E+02</pdfrwt>
<totfact> 0.30137744E+05</totfact>
</mgrwt>
</event>
<event>
 4    1  0.2126213E+000  0.2086160E+02  0.7546771E-02  0.1728718E+00
          3   -1    0    0  501    0  0.00000000000E+00  0.00000000000E+00  0.60486794792E+01  0.60486794792E+01  0.00000000000E+00 0.  1.
         -3   -1    0    0    0  501 -0.00000000000E+00 -0.00000000000E+00 -0.17987658997E+02  0.17987658997E+02  0.00000000000E+00 0. -1.
        -13    1    1    2    0    0 -0.30519152148E+01 -0.97630039085E+01 -0.83226349135E+01  0.13186989182E+02  0.00000000000E+00 0. -1.
         13    1    1    2    0    0  0.30519152148E+01  0.97630039085E+01 -0.36163446039E+01  0.10849349293E+02  0.00000000000E+00 0.  1.
<mgrwt>
<rscale>  0 0.20861600E+02</rscale>
<asrwt>0</asrwt>
<pdfrwt beam="1">  1        3 0.93056607E-03 0.20861600E+02</pdfrwt>
<pdfrwt beam="2">  1       -3 0.27673322E-02 0.20861600E+02</pdfrwt>
<totfact> 0.16086817E+06</totfact>
</mgrwt>
</event>
<event>
 4    1  0.2126213E+000  0.4948753E+02  0.7546771E-02  0.1448125E+00
          2   -1    0    0  501    0  0.00000000000E+00  0.00000000000E+00  0.20759617417E+02  0.20759617417E+02  0.00000000000E+00 0.  1.
         -2   -1    0    0    0  501 -0.00000000000E+00 -0.00000000000E+00 -0.29492539491E+02  0.29492539491E+02  0.00000000000E+00 0. -1.
        -13    1    1    2    0    0  0.17712904850E+02  0.12528289711E+02  0.77147937228E+01  0.23026573420E+02  0.00000000000E+00 0. -1.
         13    1    1    2    0    0 -0.17712904850E+02 -0.12528289711E+02 -0.16447715797E+02  0.27225583488E+02  0.00000000000E+00 0.  1.
<mgrwt>
<rscale>  0 0.49487527E+02</rscale>
<asrwt>0</asrwt>
<pdfrwt beam="1">  1        2 0.31937873E-02 0.49487527E+02</pdfrwt>
<pdfrwt beam="2">  1       -2 0.45373138E-02 0.49487527E+02</pdfrwt>
<totfact> 0.45521867E+05</totfact>
</mgrwt>
</event>
<event>
 4    1  0.2126213E+000  0.2056284E+02  0.7546771E-02  0.1734361E+00
         -2   -1    0    0    0  501 -0.00000000000E+00  0.00000000000E+00  0.13920894104E+01  0.13920894104E+01  0.00000000000E+00 0.  1.
          2   -1    0    0  501    0  0.00000000000E+00 -0.00000000000E+00 -0.75934494934E+02  0.75934494934E+02  0.00000000000E+00 0. -1.
        -11    1    1    2    0    0  0.60307871109E+00 -0.10126686409E+02 -0.43557119250E+02  0.44722881379E+02  0.00000000000E+00 0. -1.
         11    1    1    2    0    0 -0.60307871109E+00  0.10126686409E+02 -0.30985286274E+02  0.32603702965E+02  0.00000000000E+00 0.  1.
<mgrwt>
<rscale>  0 0.20562841E+02</rscale>
<asrwt>0</asrwt>
<pdfrwt beam="2">  1        2 0.11682230E-01 0.20562841E+02</pdfrwt>
<pdfrwt beam="1">  1       -2 0.21416761E-03 0.20562841E+02</pdfrwt>
<totfact> 0.46808250E+06</totfact>
</mgrwt>
</event>
<event>
 4    1  0.2126213E+000  0.9415870E+02  0.7546771E-02  0.1293082E+00
         -2   -1    0    0    0  501 -0.00000000000E+00  0.00000000000E+00  0.37791313909E+02  0.37791313909E+02  0.00000000000E+00 0.  1.
          2   -1    0    0  501    0  0.00000000000E+00 -0.00000000000E+00 -0.58650123915E+02  0.58650123915E+02  0.00000000000E+00 0. -1.
        -13    1    1    2    0    0 -0.17246752373E+02  0.43533277489E+02 -0.15433390362E+02  0.49303004517E+02  0.00000000000E+00 0. -1.
         13    1    1    2    0    0  0.17246752373E+02 -0.43533277489E+02 -0.54254196429E+01  0.47138433307E+02  0.00000000000E+00 0.  1.
<mgrwt>
<rscale>  0 0.94158701E+02</rscale>
<asrwt>0</asrwt>
<pdfrwt beam="2">  1        2 0.90230960E-02 0.94158701E+02</pdfrwt>
<pdfrwt beam="1">  1       -2 0.58140483E-02 0.94158701E+02</pdfrwt>
<totfact> 0.96232133E+04</totfact>
</mgrwt>
</event>
<event>
 4    1  0.2126213E+000  0.3965322E+02  0.7546771E-02  0.1510779E+00
          2   -1    0    0  501    0  0.00000000000E+00  0.00000000000E+00  0.94681787695E+01  0.94681787695E+01  0.00000000000E+00 0. -1.
         -2   -1    0    0    0  501 -0.00000000000E+00 -0.00000000000E+00 -0.41517423515E+02  0.41517423515E+02  0.00000000000E+00 0.  1.
        -11    1    1    2    0    0  0.30686424884E+01  0.15543158633E+02 -0.31351295651E+02  0.35127056325E+02  0.00000000000E+00 0.  1.
         11    1    1    2    0    0 -0.30686424884E+01 -0.15543158633E+02 -0.69794909427E+00  0.15858545960E+02  0.00000000000E+00 0. -1.
<mgrwt>
<rscale>  0 0.39653216E+02</rscale>
<asrwt>0</asrwt>
<pdfrwt beam="1">  1        2 0.14566429E-02 0.39653216E+02</pdfrwt>
<pdfrwt beam="2">  1       -2 0.63872959E-02 0.39653216E+02</pdfrwt>
<totfact> 0.72920493E+05</totfact>
</mgrwt>
</event>
<event>
 4    1  0.2126213E+000  0.3440656E+02  0.7546771E-02  0.1553934E+00
          1   -1    0    0  501    0  0.00000000000E+00  0.00000000000E+00  0.38810731733E+02  0.38810731733E+02  0.00000000000E+00 0.  1.
         -1   -1    0    0    0  501 -0.00000000000E+00 -0.00000000000E+00 -0.76255425131E+01  0.76255425131E+01  0.00000000000E+00 0. -1.
        -11    1    1    2    0    0 -0.85212172302E-01 -0.10291458630E+02  0.34197560775E+02  0.35712666447E+02  0.00000000000E+00 0.  1.
         11    1    1    2    0    0  0.85212172302E-01  0.10291458630E+02 -0.30123715544E+01  0.10723607799E+02  0.00000000000E+00 0. -1.
<mgrwt>
<rscale>  0 0.34406562E+02</rscale>
<asrwt>0</asrwt>
<pdfrwt beam="1">  1        1 0.59708817E-02 0.34406562E+02</pdfrwt>
<pdfrwt beam="2">  1       -1 0.11731604E-02 0.34406562E+02</pdfrwt>
<totfact> 0.11582792E+06</totfact>
</mgrwt>
</event>
<event>
 4    1  0.2126213E+000  0.2258484E+02  0.7546771E-02  0.1698330E+00
         -4   -1    0    0    0  501 -0.00000000000E+00  0.00000000000E+00  0.33390598750E+02  0.33390598750E+02  0.00000000000E+00 0.  1.
          4   -1    0    0  501    0  0.00000000000E+00 -0.00000000000E+00 -0.38189999954E+01  0.38189999954E+01  0.00000000000E+00 0. -1.
        -13    1    1    2    0    0  0.20843135867E+01  0.99876808508E+01  0.68125244607E+01  0.12268195525E+02  0.00000000000E+00 0. -1.
         13    1    1    2    0    0 -0.20843135867E+01 -0.99876808508E+01  0.22759074293E+02  0.24941403220E+02  0.00000000000E+00 0.  1.
<mgrwt>
<rscale>  0 0.22584835E+02</rscale>
<asrwt>0</asrwt>
<pdfrwt beam="2">  1        4 0.58753848E-03 0.22584835E+02</pdfrwt>
<pdfrwt beam="1">  1       -4 0.51370150E-02 0.22584835E+02</pdfrwt>
<totfact> 0.94056218E+05</totfact>
</mgrwt>
</event>
<event>
 4    1  0.2126213E+000  0.2535637E+02  0.7546771E-02  0.1655935E+00
          2   -1    0    0  501    0  0.00000000000E+00  0.00000000000E+00  0.60483084576E+01  0.60483084576E+01  0.00000000000E+00 0.  1.
         -2   -1    0    0    0  501 -0.00000000000E+00 -0.00000000000E+00 -0.26575429288E+02  0.26575429288E+02  0.00000000000E+00 0. -1.
        -11    1    1    2    0    0  0.97024700602E+01  0.75990064573E+01 -0.14091859040E+02  0.18720665469E+02  0.00000000000E+00 0. -1.
         11    1    1    2    0    0 -0.97024700602E+01 -0.75990064573E+01 -0.64352617901E+01  0.13903072276E+02  0.00000000000E+00 0.  1.
<mgrwt>
<rscale>  0 0.25356371E+02</rscale>
<asrwt>0</asrwt>
<pdfrwt beam="1">  1        2 0.93050898E-03 0.25356371E+02</pdfrwt>
<pdfrwt beam="2">  1       -2 0.40885276E-02 0.25356371E+02</pdfrwt>
<totfact> 0.21584029E+06</totfact>
</mgrwt>
</event>
<event>
 4    1  0.2126213E+000  0.2723291E+02  0.7546771E-02  0.1630857E+00
         -2   -1    0    0    0  501 -0.00000000000E+00  0.00000000000E+00  0.12891398059E+02  0.12891398059E+02  0.00000000000E+00 0.  1.
          2   -1    0    0  501    0  0.00000000000E+00 -0.00000000000E+00 -0.14382287156E+02  0.14382287156E+02  0.00000000000E+00 0. -1.
        -13    1    1    2    0    0 -0.97392323397E+01  0.26958766374E+01 -0.98853030156E+01  0.14136463954E+02  0.00000000000E+00 0. -1.
         13    1    1    2    0    0  0.97392323397E+01 -0.26958766374E+01  0.83944139184E+01  0.13137221260E+02  0.00000000000E+00 0.  1.
<mgrwt>
<rscale>  0 0.27232906E+02</rscale>
<asrwt>0</asrwt>
<pdfrwt beam="2">  1        2 0.22126596E-02 0.27232906E+02</pdfrwt>
<pdfrwt beam="1">  1       -2 0.19832920E-02 0.27232906E+02</pdfrwt>
<totfact> 0.19714156E+06</totfact>
</mgrwt>
</event>
<event>
 4    1  0.2126213E+000  0.2840881E+02  0.7546771E-02  0.1616374E+00
         -2   -1    0    0    0  501 -0.00000000000E+00  0.00000000000E+00  0.21030232652E+02  0.21030232652E+02  0.00000000000E+00 0.  1.
          2   -1    0    0  501    0  0.00000000000E+00 -0.00000000000E+00 -0.95940509857E+01  0.95940509857E+01  0.00000000000E+00 0. -1.
        -11    1    1    2    0    0  0.10699906573E+02  0.21466133576E+01 -0.40832320038E+01  0.11651984087E+02  0.00000000000E+00 0. -1.
         11    1    1    2    0    0 -0.10699906573E+02 -0.21466133576E+01  0.15519413670E+02  0.18972299550E+02  0.00000000000E+00 0.  1.
<mgrwt>
<rscale>  0 0.28408810E+02</rscale>
<asrwt>0</asrwt>
<pdfrwt beam="2">  1        2 0.14760078E-02 0.28408810E+02</pdfrwt>
<pdfrwt beam="1">  1       -2 0.32354204E-02 0.28408810E+02</pdfrwt>
<totfact> 0.17106878E+06</totfact>
</mgrwt>
</event>
<event>
 4    1  0.2126213E+000  0.2866921E+02  0.7546771E-02  0.1613282E+00
          1   -1    0    0  501    0  0.00000000000E+00  0.00000000000E+00  0.49151515117E+02  0.49151515117E+02  0.00000000000E+00 0.  1.
         -1   -1    0    0    0  501 -0.00000000000E+00 -0.00000000000E+00 -0.41805622142E+01  0.41805622142E+01  0.00000000000E+00 0. -1.
        -11    1    1    2    0    0 -0.62107555237E+01 -0.12012056322E+02  0.31332550573E+02  0.34126114732E+02  0.00000000000E+00 0.  1.
         11    1    1    2    0    0  0.62107555237E+01  0.12012056322E+02  0.13638402330E+02  0.19205962600E+02  0.00000000000E+00 0. -1.
<mgrwt>
<rscale>  0 0.28669215E+02</rscale>
<asrwt>0</asrwt>
<pdfrwt beam="1">  1        1 0.75617711E-02 0.28669215E+02</pdfrwt>
<pdfrwt beam="2">  1       -1 0.64316345E-03 0.28669215E+02</pdfrwt>
<totfact> 0.18250621E+06</totfact>
</mgrwt>
</event>
<event>
 4    1  0.2126213E+000  0.4387343E+02  0.7546771E-02  0.1481500E+00
         -4   -1    0    0    0  501 -0.00000000000E+00  0.00000000000E+00  0.80912744981E+01  0.80912744981E+01  0.00000000000E+00 0.  1.
          4   -1    0    0  501    0  0.00000000000E+00 -0.00000000000E+00 -0.59473865939E+02  0.59473865939E+02  0.00000000000E+00 0. -1.
        -11    1    1    2    0    0  0.25573527799E+01  0.13452134536E+02  0.70162483839E+00  0.13711026739E+02  0.00000000000E+00 0.  1.
         11    1    1    2    0    0 -0.25573527799E+01 -0.13452134536E+02 -0.52084216280E+02  0.53854113699E+02  0.00000000000E+00 0. -1.
<mgrwt>
<rscale>  0 0.43873426E+02</rscale>
<asrwt>0</asrwt>
<pdfrwt beam="2">  1        4 0.91498256E-02 0.43873426E+02</pdfrwt>
<pdfrwt beam="1">  1       -4 0.12448114E-02 0.43873426E+02</pdfrwt>
<totfact> 0.18842647E+05</totfact>
</mgrwt>
</event>
<event>
 4    1  0.2126213E+000  0.2532458E+02  0.7546771E-02  0.1656383E+00
         -2   -1    0    0    0  501 -0.00000000000E+00  0.00000000000E+00  0.22680556951E+02  0.22680556951E+02  0.00000000000E+00 0.  1.
          2   -1    0    0  501    0  0.00000000000E+00 -0.00000000000E+00 -0.70692060651E+01  0.70692060651E+01  0.00000000000E+00 0. -1.
        -11    1    1    2    0    0  0.41187483708E+01  0.11789482061E+02  0.10263535543E+02  0.16164657041E+02  0.00000000000E+00 0.  1.
         11    1    1    2    0    0 -0.41187483708E+01 -0.11789482061E+02  0.53478153424E+01  0.13585105975E+02  0.00000000000E+00 0. -1.
<mgrwt>
<rscale>  0 0.25324575E+02</rscale>
<asrwt>0</asrwt>
<pdfrwt beam="2">  1        2 0.10875702E-02 0.25324575E+02</pdfrwt>
<pdfrwt beam="1">  1       -2 0.34893164E-02 0.25324575E+02</pdfrwt>
<totfact> 0.21988120E+06</totfact>
</mgrwt>
</event>
<event>
 4    1  0.2126213E+000  0.2669700E+02  0.7546771E-02  0.1637759E+00
         -2   -1    0    0    0  501 -0.00000000000E+00  0.00000000000E+00  0.23410959092E+01  0.23410959092E+01  0.00000000000E+00 0. -1.
          2   -1    0    0  501    0  0.00000000000E+00 -0.00000000000E+00 -0.76110704722E+02  0.76110704722E+02  0.00000000000E+00 0.  1.
        -13    1    1    2    0    0  0.55078807980E+01  0.11012312133E+02 -0.52033475972E+02  0.53470462792E+02  0.00000000000E+00 0.  1.
         13    1    1    2    0    0 -0.55078807980E+01 -0.11012312133E+02 -0.21736132841E+02  0.24981337840E+02  0.00000000000E+00 0. -1.
<mgrwt>
<rscale>  0 0.26697001E+02</rscale>
<asrwt>0</asrwt>
<pdfrwt beam="2">  1        2 0.11709338E-01 0.26697001E+02</pdfrwt>
<pdfrwt beam="1">  1       -2 0.36016865E-03 0.26697001E+02</pdfrwt>
<totfact> 0.25843033E+06</totfact>
</mgrwt>
</event>
<event>
 4    1  0.2126213E+000  0.2434064E+02  0.7546771E-02  0.1670657E+00
          2   -1    0    0  501    0  0.00000000000E+00  0.00000000000E+00  0.33184416973E+02  0.33184416973E+02  0.00000000000E+00 0.  1.
         -2   -1    0    0    0  501 -0.00000000000E+00 -0.00000000000E+00 -0.44634416406E+01  0.44634416406E+01  0.00000000000E+00 0. -1.
        -13    1    1    2    0    0  0.82435039061E+01  0.81361194272E+01  0.20140481394E+02  0.23233398089E+02  0.00000000000E+00 0. -1.
         13    1    1    2    0    0 -0.82435039061E+01 -0.81361194272E+01  0.85804939385E+01  0.14414460525E+02  0.00000000000E+00 0.  1.
<mgrwt>
<rscale>  0 0.24340642E+02</rscale>
<asrwt>0</asrwt>
<pdfrwt beam="1">  1        2 0.51052948E-02 0.24340642E+02</pdfrwt>
<pdfrwt beam="2">  1       -2 0.68668335E-03 0.24340642E+02</pdfrwt>
<totfact> 0.28038470E+06</totfact>
</mgrwt>
</event>
<event>
 4    1  0.2126213E+000  0.3558395E+02  0.7546771E-02  0.1543475E+00
          2   -1    0    0  501    0  0.00000000000E+00  0.00000000000E+00  0.20509924701E+02  0.20509924701E+02  0.00000000000E+00 0.  1.
         -2   -1    0    0    0  501 -0.00000000000E+00 -0.00000000000E+00 -0.15434208676E+02  0.15434208676E+02  0.00000000000E+00 0. -1.
        -13    1    1    2    0    0 -0.47774533678E+01  0.17002215674E+02  0.47172553209E+01  0.18279822108E+02  0.00000000000E+00 0.  1.
         13    1    1    2    0    0  0.47774533678E+01 -0.17002215674E+02  0.35846070408E+00  0.17664311269E+02  0.00000000000E+00 0. -1.
<mgrwt>
<rscale>  0 0.35583955E+02</rscale>
<asrwt>0</asrwt>
<pdfrwt beam="1">  1        2 0.31553731E-02 0.35583955E+02</pdfrwt>
<pdfrwt beam="2">  1       -2 0.23744936E-02 0.35583955E+02</pdfrwt>
<totfact> 0.10628877E+06</totfact>
</mgrwt>
</event>
<event>
 4    1  0.2126213E+000  0.4466583E+02  0.7546771E-02  0.1476439E+00
          2   -1    0    0  501    0  0.00000000000E+00  0.00000000000E+00  0.78664057080E+02  0.78664057080E+02  0.00000000000E+00 0. -1.
         -2   -1    0    0    0  501 -0.00000000000E+00 -0.00000000000E+00 -0.63403683471E+01  0.63403683471E+01  0.00000000000E+00 0.  1.
        -13    1    1    2    0    0 -0.26765573959E+01 -0.22171240828E+02  0.36498100525E+02  0.42788307063E+02  0.00000000000E+00 0. -1.
         13    1    1    2    0    0  0.26765573959E+01  0.22171240828E+02  0.35825588207E+02  0.42216118364E+02  0.00000000000E+00 0.  1.
<mgrwt>
<rscale>  0 0.44665830E+02</rscale>
<asrwt>0</asrwt>
<pdfrwt beam="1">  1        2 0.12102162E-01 0.44665830E+02</pdfrwt>
<pdfrwt beam="2">  1       -2 0.97544134E-03 0.44665830E+02</pdfrwt>
<totfact> 0.75034737E+05</totfact>
</mgrwt>
</event>
<event>
 4    1  0.2126213E+000  0.2617551E+02  0.7546771E-02  0.1644670E+00
         -2   -1    0    0    0  501 -0.00000000000E+00  0.00000000000E+00  0.13122417560E+02  0.13122417560E+02  0.00000000000E+00 0. -1.
          2   -1    0    0  501    0  0.00000000000E+00 -0.00000000000E+00 -0.13053181526E+02  0.13053181526E+02  0.00000000000E+00 0.  1.
        -13    1    1    2    0    0 -0.17603021575E+01  0.10004004217E+02 -0.82183215152E+01  0.13065970021E+02  0.00000000000E+00 0.  1.
         13    1    1    2    0    0  0.17603021575E+01 -0.10004004217E+02  0.82875575494E+01  0.13109629064E+02  0.00000000000E+00 0. -1.
<mgrwt>
<rscale>  0 0.26175508E+02</rscale>
<asrwt>0</asrwt>
<pdfrwt beam="2">  1        2 0.20081818E-02 0.26175508E+02</pdfrwt>
<pdfrwt beam="1">  1       -2 0.20188335E-02 0.26175508E+02</pdfrwt>
<totfact> 0.21484435E+06</totfact>
</mgrwt>
</event>
<event>
 4    1  0.2126213E+000  0.2766100E+02  0.7546771E-02  0.1625482E+00
         -2   -1    0    0    0  501 -0.00000000000E+00  0.00000000000E+00  0.11013879073E+02  0.11013879073E+02  0.00000000000E+00 0.  1.
          2   -1    0    0  501    0  0.00000000000E+00 -0.00000000000E+00 -0.17367424709E+02  0.17367424709E+02  0.00000000000E+00 0. -1.
        -11    1    1    2    0    0 -0.65910310821E+01 -0.11861230311E+02 -0.59207818219E+01  0.14804936089E+02  0.00000000000E+00 0. -1.
         11    1    1    2    0    0  0.65910310821E+01  0.11861230311E+02 -0.43276381415E+00  0.13576367693E+02  0.00000000000E+00 0.  1.
<mgrwt>
<rscale>  0 0.27660999E+02</rscale>
<asrwt>0</asrwt>
<pdfrwt beam="2">  1        2 0.26719115E-02 0.27660999E+02</pdfrwt>
<pdfrwt beam="1">  1       -2 0.16944429E-02 0.27660999E+02</pdfrwt>
<totfact> 0.19339286E+06</totfact>
</mgrwt>
</event>
<event>
 4    1  0.2126213E+000  0.2994930E+02  0.7546771E-02  0.1598650E+00
          2   -1    0    0  501    0  0.00000000000E+00  0.00000000000E+00  0.22259431945E+02  0.22259431945E+02  0.00000000000E+00 0.  1.
         -2   -1    0    0    0  501 -0.00000000000E+00 -0.00000000000E+00 -0.10073935417E+02  0.10073935417E+02  0.00000000000E+00 0. -1.
        -13    1    1    2    0    0  0.13459566921E+02  0.29601199138E+01 -0.23172293647E+00  0.13783176235E+02  0.00000000000E+00 0. -1.
         13    1    1    2    0    0 -0.13459566921E+02 -0.29601199138E+01  0.12417219465E+02  0.18550191127E+02  0.00000000000E+00 0.  1.
<mgrwt>
<rscale>  0 0.29949296E+02</rscale>
<asrwt>0</asrwt>
<pdfrwt beam="1">  1        2 0.34245280E-02 0.29949296E+02</pdfrwt>
<pdfrwt beam="2">  1       -2 0.15498362E-02 0.29949296E+02</pdfrwt>
<totfact> 0.16390473E+06</totfact>
</mgrwt>
</event>
<event>
 4    1  0.2126213E+000  0.2139216E+02  0.7546771E-02  0.1718981E+00
         -1   -1    0    0    0  501 -0.00000000000E+00  0.00000000000E+00  0.13011279951E+01  0.13011279951E+01  0.00000000000E+00 0. -1.
          1   -1    0    0  501    0  0.00000000000E+00 -0.00000000000E+00 -0.87928427635E+02  0.87928427635E+02  0.00000000000E+00 0.  1.
        -13    1    1    2    0    0 -0.52955367696E+01  0.88582231234E+01 -0.31593349946E+02  0.33236284199E+02  0.00000000000E+00 0. -1.
         13    1    1    2    0    0  0.52955367696E+01 -0.88582231234E+01 -0.55033949695E+02  0.55993271431E+02  0.00000000000E+00 0.  1.
<mgrwt>
<rscale>  0 0.21392161E+02</rscale>
<asrwt>0</asrwt>
<pdfrwt beam="2">  1        1 0.13527451E-01 0.21392161E+02</pdfrwt>
<pdfrwt beam="1">  1       -1 0.20017352E-03 0.21392161E+02</pdfrwt>
<totfact> 0.37683949E+06</totfact>
</mgrwt>
</event>
<event>
 4    1  0.2126213E+000  0.3039033E+02  0.7546771E-02  0.1593814E+00
          2   -1    0    0  501    0  0.00000000000E+00  0.00000000000E+00  0.71687591255E+01  0.71687591255E+01  0.00000000000E+00 0.  1.
         -2   -1    0    0    0  501 -0.00000000000E+00 -0.00000000000E+00 -0.32208232230E+02  0.32208232230E+02  0.00000000000E+00 0. -1.
        -11    1    1    2    0    0 -0.14895412825E+02  0.28409913997E+01 -0.11257831919E+02  0.18886061921E+02  0.00000000000E+00 0.  1.
         11    1    1    2    0    0  0.14895412825E+02 -0.28409913997E+01 -0.13781641185E+02  0.20490929435E+02  0.00000000000E+00 0. -1.
<mgrwt>
<rscale>  0 0.30390331E+02</rscale>
<asrwt>0</asrwt>
<pdfrwt beam="1">  1        2 0.11028860E-02 0.30390331E+02</pdfrwt>
<pdfrwt beam="2">  1       -2 0.49551126E-02 0.30390331E+02</pdfrwt>
<totfact> 0.14006940E+06</totfact>
</mgrwt>
</event>
<event>
 4    1  0.2126213E+000  0.3300554E+02  0.7546771E-02  0.1567060E+00
         -2   -1    0    0    0  501 -0.00000000000E+00  0.00000000000E+00  0.26553609111E+01  0.26553609111E+01  0.00000000000E+00 0. -1.
          2   -1    0    0  501    0  0.00000000000E+00 -0.00000000000E+00 -0.10256284641E+03  0.10256284641E+03  0.00000000000E+00 0.  1.
        -11    1    1    2    0    0  0.97356521072E+01  0.13255396723E+02 -0.45614328171E+02  0.48488714137E+02  0.00000000000E+00 0.  1.
         11    1    1    2    0    0 -0.97356521072E+01 -0.13255396723E+02 -0.54293157330E+02  0.56729493186E+02  0.00000000000E+00 0. -1.
<mgrwt>
<rscale>  0 0.33005537E+02</rscale>
<asrwt>0</asrwt>
<pdfrwt beam="2">  1        2 0.15778896E-01 0.33005537E+02</pdfrwt>
<pdfrwt beam="1">  1       -2 0.40851715E-03 0.33005537E+02</pdfrwt>
<totfact> 0.16756880E+06</totfact>
</mgrwt>
</event>
<event>
 4    1  0.2126213E+000  0.2142427E+02  0.7546771E-02  0.1718403E+00
          3   -1    0    0  501    0  0.00000000000E+00  0.00000000000E+00  0.80989295010E+01  0.80989295010E+01  0.00000000000E+00 0. -1.
         -3   -1    0    0    0  501 -0.00000000000E+00 -0.00000000000E+00 -0.14168522448E+02  0.14168522448E+02  0.00000000000E+00 0.  1.
        -13    1    1    2    0    0  0.92849856753E+01 -0.46884257111E+01 -0.56963542519E+01  0.11859205134E+02  0.00000000000E+00 0.  1.
         13    1    1    2    0    0 -0.92849856753E+01  0.46884257111E+01 -0.37323869492E+00  0.10408246815E+02  0.00000000000E+00 0. -1.
<mgrwt>
<rscale>  0 0.21424273E+02</rscale>
<asrwt>0</asrwt>
<pdfrwt beam="1">  1        3 0.12459892E-02 0.21424273E+02</pdfrwt>
<pdfrwt beam="2">  1       -3 0.21797727E-02 0.21424273E+02</pdfrwt>
<totfact> 0.15272970E+06</totfact>
</mgrwt>
</event>
<event>
 4    1  0.2126213E+000  0.2499986E+02  0.7546771E-02  0.1661004E+00
         -2   -1    0    0    0  501 -0.00000000000E+00  0.00000000000E+00  0.56152940134E+01  0.56152940134E+01  0.00000000000E+00 0. -1.
          2   -1    0    0  501    0  0.00000000000E+00 -0.00000000000E+00 -0.27825477461E+02  0.27825477461E+02  0.00000000000E+00 0.  1.
        -11    1    1    2    0    0  0.11011302070E+02  0.29922312854E+01 -0.42784143588E+01  0.12186346900E+02  0.00000000000E+00 0. -1.
         11    1    1    2    0    0 -0.11011302070E+02 -0.29922312854E+01 -0.17931769089E+02  0.21254424575E+02  0.00000000000E+00 0.  1.
<mgrwt>
<rscale>  0 0.24999859E+02</rscale>
<asrwt>0</asrwt>
<pdfrwt beam="2">  1        2 0.42808426E-02 0.24999859E+02</pdfrwt>
<pdfrwt beam="1">  1       -2 0.86389140E-03 0.24999859E+02</pdfrwt>
<totfact> 0.25807654E+06</totfact>
</mgrwt>
</event>
<event>
 4    1  0.2126213E+000  0.2258533E+02  0.7546771E-02  0.1698321E+00
         -2   -1    0    0    0  501 -0.00000000000E+00  0.00000000000E+00  0.36455157944E+01  0.36455157944E+01  0.00000000000E+00 0. -1.
          2   -1    0    0  501    0  0.00000000000E+00 -0.00000000000E+00 -0.34981137165E+02  0.34981137165E+02  0.00000000000E+00 0.  1.
        -13    1    1    2    0    0 -0.76218175181E+01 -0.76367501358E+01 -0.99666760109E+01  0.14688317998E+02  0.00000000000E+00 0.  1.
         13    1    1    2    0    0  0.76218175181E+01  0.76367501358E+01 -0.21368945360E+02  0.23938334961E+02  0.00000000000E+00 0. -1.
<mgrwt>
<rscale>  0 0.22585330E+02</rscale>
<asrwt>0</asrwt>
<pdfrwt beam="2">  1        2 0.53817137E-02 0.22585330E+02</pdfrwt>
<pdfrwt beam="1">  1       -2 0.56084856E-03 0.22585330E+02</pdfrwt>
<totfact> 0.33525859E+06</totfact>
</mgrwt>
</event>
<event>
 4    1  0.2126213E+000  0.3435350E+02  0.7546771E-02  0.1554418E+00
          4   -1    0    0  501    0  0.00000000000E+00  0.00000000000E+00  0.95606919655E+02  0.95606919655E+02  0.00000000000E+00 0.  1.
         -4   -1    0    0    0  501 -0.00000000000E+00 -0.00000000000E+00 -0.30859771375E+01  0.30859771375E+01  0.00000000000E+00 0. -1.
        -11    1    1    2    0    0 -0.10727463363E+02 -0.86369501085E+01  0.75749731416E+02  0.76991539710E+02  0.00000000000E+00 0.  1.
         11    1    1    2    0    0  0.10727463363E+02  0.86369501085E+01  0.16771211101E+02  0.21701357082E+02  0.00000000000E+00 0. -1.
<mgrwt>
<rscale>  0 0.34353502E+02</rscale>
<asrwt>0</asrwt>
<pdfrwt beam="1">  1        4 0.14708755E-01 0.34353502E+02</pdfrwt>
<pdfrwt beam="2">  1       -4 0.47476579E-03 0.34353502E+02</pdfrwt>
<totfact> 0.30701780E+05</totfact>
</mgrwt>
</event>
<event>
 4    1  0.2126213E+000  0.2356750E+02  0.7546771E-02  0.1682473E+00
         -2   -1    0    0    0  501 -0.00000000000E+00  0.00000000000E+00  0.86135496518E+02  0.86135496518E+02  0.00000000000E+00 0. -1.
          2   -1    0    0  501    0  0.00000000000E+00 -0.00000000000E+00 -0.16120730299E+01  0.16120730299E+01  0.00000000000E+00 0.  1.
        -13    1    1    2    0    0  0.52432258367E+01 -0.10538885112E+02  0.40231964852E+02  0.41918617731E+02  0.00000000000E+00 0. -1.
         13    1    1    2    0    0 -0.52432258367E+01  0.10538885112E+02  0.44291458635E+02  0.45828951817E+02  0.00000000000E+00 0.  1.
<mgrwt>
<rscale>  0 0.23567495E+02</rscale>
<asrwt>0</asrwt>
<pdfrwt beam="2">  1        2 0.24801130E-03 0.23567495E+02</pdfrwt>
<pdfrwt beam="1">  1       -2 0.13251611E-01 0.23567495E+02</pdfrwt>
<totfact> 0.21401368E+06</totfact>
</mgrwt>
</event>
<event>
 4    1  0.2126213E+000  0.4891349E+02  0.7546771E-02  0.1451292E+00
         -1   -1    0    0    0  501 -0.00000000000E+00  0.00000000000E+00  0.89549963085E+02  0.89549963085E+02  0.00000000000E+00 0. -1.
          1   -1    0    0  501    0  0.00000000000E+00 -0.00000000000E+00 -0.66793147929E+01  0.66793147929E+01  0.00000000000E+00 0.  1.
        -13    1    1    2    0    0 -0.10930574581E+01  0.22096753285E+02  0.61943905820E+02  0.65776201993E+02  0.00000000000E+00 0.  1.
         13    1    1    2    0    0  0.10930574581E+01 -0.22096753285E+02  0.20926742471E+02  0.30453075885E+02  0.00000000000E+00 0. -1.
<mgrwt>
<rscale>  0 0.48913491E+02</rscale>
<asrwt>0</asrwt>
<pdfrwt beam="2">  1        1 0.10275870E-02 0.48913491E+02</pdfrwt>
<pdfrwt beam="1">  1       -1 0.13776917E-01 0.48913491E+02</pdfrwt>
<totfact> 0.39994324E+05</totfact>
</mgrwt>
</event>
<event>
 4    1  0.2126213E+000  0.3748385E+02  0.7546771E-02  0.1527588E+00
          2   -1    0    0  501    0  0.00000000000E+00  0.00000000000E+00  0.14767591011E+02  0.14767591011E+02  0.00000000000E+00 0.  1.
         -2   -1    0    0    0  501 -0.00000000000E+00 -0.00000000000E+00 -0.23785855475E+02  0.23785855475E+02  0.00000000000E+00 0. -1.
        -11    1    1    2    0    0  0.11536077767E+01  0.14635338011E+02 -0.16492152371E+02  0.22079742287E+02  0.00000000000E+00 0. -1.
         11    1    1    2    0    0 -0.11536077767E+01 -0.14635338011E+02  0.74738879071E+01  0.16473704199E+02  0.00000000000E+00 0.  1.
<mgrwt>
<rscale>  0 0.37483852E+02</rscale>
<asrwt>0</asrwt>
<pdfrwt beam="1">  1        2 0.22719371E-02 0.37483852E+02</pdfrwt>
<pdfrwt beam="2">  1       -2 0.36593624E-02 0.37483852E+02</pdfrwt>
<totfact> 0.89559347E+05</totfact>
</mgrwt>
</event>
<event>
 4    1  0.2126213E+000  0.2973068E+02  0.7546771E-02  0.1601085E+00
         -4   -1    0    0    0  501 -0.00000000000E+00  0.00000000000E+00  0.63908862624E+01  0.63908862624E+01  0.00000000000E+00 0.  1.
          4   -1    0    0  501    0  0.00000000000E+00 -0.00000000000E+00 -0.34577099485E+02  0.34577099485E+02  0.00000000000E+00 0. -1.
        -11    1    1    2    0    0 -0.94603971357E+01 -0.78520509122E+01 -0.25607569550E+02  0.28406010557E+02  0.00000000000E+00 0. -1.
         11    1    1    2    0    0  0.94603971357E+01  0.78520509122E+01 -0.25786436721E+01  0.12561975190E+02  0.00000000000E+00 0.  1.
<mgrwt>
<rscale>  0 0.29730678E+02</rscale>
<asrwt>0</asrwt>
<pdfrwt beam="2">  1        4 0.53195537E-02 0.29730678E+02</pdfrwt>
<pdfrwt beam="1">  1       -4 0.98321328E-03 0.29730678E+02</pdfrwt>
<totfact> 0.50980063E+05</totfact>
</mgrwt>
</event>
<event>
 4    1  0.2126213E+000  0.3062965E+02  0.7546771E-02  0.1591231E+00
          2   -1    0    0  501    0  0.00000000000E+00  0.00000000000E+00  0.34792172520E+02  0.34792172520E+02  0.00000000000E+00 0. -1.
         -2   -1    0    0    0  501 -0.00000000000E+00 -0.00000000000E+00 -0.67412830636E+01  0.67412830636E+01  0.00000000000E+00 0.  1.
        -13    1    1    2    0    0  0.12299306408E+02 -0.90938837805E+01  0.12999701443E+02  0.20073960694E+02  0.00000000000E+00 0.  1.
         13    1    1    2    0    0 -0.12299306408E+02  0.90938837805E+01  0.15051188014E+02  0.21459494890E+02  0.00000000000E+00 0. -1.
<mgrwt>
<rscale>  0 0.30629651E+02</rscale>
<asrwt>0</asrwt>
<pdfrwt beam="1">  1        2 0.53526418E-02 0.30629651E+02</pdfrwt>
<pdfrwt beam="2">  1       -2 0.10371205E-02 0.30629651E+02</pdfrwt>
<totfact> 0.16392636E+06</totfact>
</mgrwt>
</event>
<event>
 4    1  0.2126213E+000  0.2360190E+02  0.7546771E-02  0.1681935E+00
         -2   -1    0    0    0  501 -0.00000000000E+00  0.00000000000E+00  0.47836415468E+02  0.47836415468E+02  0.00000000000E+00 0.  1.
          2   -1    0    0  501    0  0.00000000000E+00 -0.00000000000E+00 -0.29112217059E+01  0.29112217059E+01  0.00000000000E+00 0. -1.
        -11    1    1    2    0    0 -0.93879609197E+01 -0.71497847558E+01  0.22256599898E+02  0.25191456315E+02  0.00000000000E+00 0. -1.
         11    1    1    2    0    0  0.93879609197E+01  0.71497847558E+01  0.22668593865E+02  0.25556180859E+02  0.00000000000E+00 0.  1.
<mgrwt>
<rscale>  0 0.23601899E+02</rscale>
<asrwt>0</asrwt>
<pdfrwt beam="2">  1        2 0.44788030E-03 0.23601899E+02</pdfrwt>
<pdfrwt beam="1">  1       -2 0.73594480E-02 0.23601899E+02</pdfrwt>
<totfact> 0.23642686E+06</totfact>
</mgrwt>
</event>
<event>
 4    1  0.2126213E+000  0.4163234E+02  0.7546771E-02  0.1496532E+00
         -1   -1    0    0    0  501 -0.00000000000E+00  0.00000000000E+00  0.46968359514E+02  0.46968359514E+02  0.00000000000E+00 0. -1.
          1   -1    0    0  501    0  0.00000000000E+00 -0.00000000000E+00 -0.92256359467E+01  0.92256359467E+01  0.00000000000E+00 0.  1.
        -13    1    1    2    0    0 -0.16813920471E+02  0.53677229475E+01  0.39753659848E+01  0.18092095123E+02  0.00000000000E+00 0.  1.
         13    1    1    2    0    0  0.16813920471E+02 -0.53677229475E+01  0.33767357582E+02  0.38101900337E+02  0.00000000000E+00 0. -1.
<mgrwt>
<rscale>  0 0.41632343E+02</rscale>
<asrwt>0</asrwt>
<pdfrwt beam="2">  1        1 0.14193286E-02 0.41632343E+02</pdfrwt>
<pdfrwt beam="1">  1       -1 0.72259013E-02 0.41632343E+02</pdfrwt>
<totfact> 0.64296587E+05</totfact>
</mgrwt>
</event>
<event>
 4    1  0.2126213E+000  0.6888256E+02  0.7546771E-02  0.1363935E+00
          2   -1    0    0  501    0  0.00000000000E+00  0.00000000000E+00  0.14643985441E+03  0.14643985441E+03  0.00000000000E+00 0. -1.
         -2   -1    0    0    0  501 -0.00000000000E+00 -0.00000000000E+00 -0.81002650948E+01  0.81002650948E+01  0.00000000000E+00 0.  1.
        -13    1    1    2    0    0  0.12673760018E+02 -0.27706795830E+02  0.10520000913E+03  0.10952320599E+03  0.00000000000E+00 0. -1.
         13    1    1    2    0    0 -0.12673760018E+02  0.27706795830E+02  0.33139580188E+02  0.45016913523E+02  0.00000000000E+00 0.  1.
<mgrwt>
<rscale>  0 0.68882556E+02</rscale>
<asrwt>0</asrwt>
<pdfrwt beam="1">  1        2 0.22529207E-01 0.68882556E+02</pdfrwt>
<pdfrwt beam="2">  1       -2 0.12461947E-02 0.68882556E+02</pdfrwt>
<totfact> 0.29288958E+05</totfact>
</mgrwt>
</event>
<event>
 4    1  0.2126213E+000  0.3590659E+02  0.7546771E-02  0.1540694E+00
          2   -1    0    0  501    0  0.00000000000E+00  0.00000000000E+00  0.38234795456E+02  0.38234795456E+02  0.00000000000E+00 0. -1.
         -2   -1    0    0    0  501 -0.00000000000E+00 -0.00000000000E+00 -0.84300382438E+01  0.84300382438E+01  0.00000000000E+00 0.  1.
        -13    1    1    2    0    0  0.16936829383E+02 -0.92901779412E+00  0.72576304207E+01  0.18449727991E+02  0.00000000000E+00 0.  1.
         13    1    1    2    0    0 -0.16936829383E+02  0.92901779412E+00  0.22547126792E+02  0.28215105709E+02  0.00000000000E+00 0. -1.
<mgrwt>
<rscale>  0 0.35906589E+02</rscale>
<asrwt>0</asrwt>
<pdfrwt beam="1">  1        2 0.58822761E-02 0.35906589E+02</pdfrwt>
<pdfrwt beam="2">  1       -2 0.12969290E-02 0.35906589E+02</pdfrwt>
<totfact> 0.11285274E+06</totfact>
</mgrwt>
</event>
<event>
 4    1  0.2126213E+000  0.2056598E+02  0.7546771E-02  0.1734302E+00
          2   -1    0    0  501    0  0.00000000000E+00  0.00000000000E+00  0.54993577675E+02  0.54993577675E+02  0.00000000000E+00 0.  1.
         -2   -1    0    0    0  501 -0.00000000000E+00 -0.00000000000E+00 -0.19227672355E+01  0.19227672355E+01  0.00000000000E+00 0. -1.
        -13    1    1    2    0    0  0.67635275006E+01  0.77255248896E+01  0.24992513933E+02  0.27019526120E+02  0.00000000000E+00 0. -1.
         13    1    1    2    0    0 -0.67635275006E+01 -0.77255248896E+01  0.28078296507E+02  0.29896818791E+02  0.00000000000E+00 0.  1.
<mgrwt>
<rscale>  0 0.20565977E+02</rscale>
<asrwt>0</asrwt>
<pdfrwt beam="1">  1        2 0.84605492E-02 0.20565977E+02</pdfrwt>
<pdfrwt beam="2">  1       -2 0.29581039E-03 0.20565977E+02</pdfrwt>
<totfact> 0.44180264E+06</totfact>
</mgrwt>
</event>
<event>
 4    1  0.2126213E+000  0.6085594E+02  0.7546771E-02  0.1394274E+00
          2   -1    0    0  501    0  0.00000000000E+00  0.00000000000E+00  0.92043687257E+01  0.92043687257E+01  0.00000000000E+00 0.  1.
         -2   -1    0    0    0  501 -0.00000000000E+00 -0.00000000000E+00 -0.10058932518E+03  0.10058932518E+03  0.00000000000E+00 0. -1.
        -11    1    1    2    0    0  0.59088497262E+01 -0.29292285330E+02 -0.35342720851E+02  0.46282398405E+02  0.00000000000E+00 0.  1.
         11    1    1    2    0    0 -0.59088497262E+01  0.29292285330E+02 -0.56042235607E+02  0.63511295505E+02  0.00000000000E+00 0. -1.
<mgrwt>
<rscale>  0 0.60855936E+02</rscale>
<asrwt>0</asrwt>
<pdfrwt beam="1">  1        2 0.14160568E-02 0.60855936E+02</pdfrwt>
<pdfrwt beam="2">  1       -2 0.15475280E-01 0.60855936E+02</pdfrwt>
<totfact> 0.21754673E+05</totfact>
</mgrwt>
</event>
<event>
 4    1  0.2126213E+000  0.3169813E+02  0.7546771E-02  0.1580042E+00
          2   -1    0    0  501    0  0.00000000000E+00  0.00000000000E+00  0.56947483780E+01  0.56947483780E+01  0.00000000000E+00 0. -1.
         -2   -1    0    0    0  501 -0.00000000000E+00 -0.00000000000E+00 -0.44109570076E+02  0.44109570076E+02  0.00000000000E+00 0.  1.
        -11    1    1    2    0    0 -0.97931661750E+01 -0.64805011939E+01 -0.24838433908E+01  0.12003019514E+02  0.00000000000E+00 0. -1.
         11    1    1    2    0    0  0.97931661750E+01  0.64805011939E+01 -0.35930978307E+02  0.37801298940E+02  0.00000000000E+00 0.  1.
<mgrwt>
<rscale>  0 0.31698133E+02</rscale>
<asrwt>0</asrwt>
<pdfrwt beam="1">  1        2 0.87611513E-03 0.31698133E+02</pdfrwt>
<pdfrwt beam="2">  1       -2 0.67860877E-02 0.31698133E+02</pdfrwt>
<totfact> 0.12203800E+06</totfact>
</mgrwt>
</event>
<event>
 4    1  0.2126213E+000  0.2795631E+02  0.7546771E-02  0.1621844E+00
          1   -1    0    0  501    0  0.00000000000E+00  0.00000000000E+00  0.43182596525E+01  0.43182596525E+01  0.00000000000E+00 0. -1.
         -1   -1    0    0    0  501 -0.00000000000E+00 -0.00000000000E+00 -0.45247109149E+02  0.45247109149E+02  0.00000000000E+00 0.  1.
        -13    1    1    2    0    0  0.13381120387E+02 -0.24439660494E+01 -0.26171426992E+02  0.29495269852E+02  0.00000000000E+00 0. -1.
         13    1    1    2    0    0 -0.13381120387E+02  0.24439660494E+01 -0.14757422504E+02  0.20070098949E+02  0.00000000000E+00 0.  1.
<mgrwt>
<rscale>  0 0.27956306E+02</rscale>
<asrwt>0</asrwt>
<pdfrwt beam="1">  1        1 0.66434760E-03 0.27956306E+02</pdfrwt>
<pdfrwt beam="2">  1       -1 0.69610941E-02 0.27956306E+02</pdfrwt>
<totfact> 0.16560652E+06</totfact>
</mgrwt>
</event>
<event>
 4    1  0.2126213E+000  0.2733250E+02  0.7546771E-02  0.1629596E+00
         -2   -1    0    0    0  501 -0.00000000000E+00  0.00000000000E+00  0.11005894221E+02  0.11005894221E+02  0.00000000000E+00 0. -1.
          2   -1    0    0  501    0  0.00000000000E+00 -0.00000000000E+00 -0.16969669928E+02  0.16969669928E+02  0.00000000000E+00 0.  1.
        -13    1    1    2    0    0  0.13088234100E+02 -0.16044779781E+01 -0.66566465646E+01  0.14771159905E+02  0.00000000000E+00 0.  1.
         13    1    1    2    0    0 -0.13088234100E+02  0.16044779781E+01  0.69287085769E+00  0.13204404245E+02  0.00000000000E+00 0. -1.
<mgrwt>
<rscale>  0 0.27332500E+02</rscale>
<asrwt>0</asrwt>
<pdfrwt beam="2">  1        2 0.26107185E-02 0.27332500E+02</pdfrwt>
<pdfrwt beam="1">  1       -2 0.16932145E-02 0.27332500E+02</pdfrwt>
<totfact> 0.19855744E+06</totfact>
</mgrwt>
</event>
<event>
 4    1  0.2126213E+000  0.2524534E+02  0.7546771E-02  0.1657503E+00
          4   -1    0    0  501    0  0.00000000000E+00  0.00000000000E+00  0.17305843874E+01  0.17305843874E+01  0.00000000000E+00 0. -1.
         -4   -1    0    0    0  501 -0.00000000000E+00 -0.00000000000E+00 -0.92068187724E+02  0.92068187724E+02  0.00000000000E+00 0.  1.
        -11    1    1    2    0    0  0.58850706032E+01  0.11089114183E+02 -0.40282885891E+02  0.42193760262E+02  0.00000000000E+00 0. -1.
         11    1    1    2    0    0 -0.58850706032E+01 -0.11089114183E+02 -0.50054717446E+02  0.51605011849E+02  0.00000000000E+00 0.  1.
<mgrwt>
<rscale>  0 0.25245338E+02</rscale>
<asrwt>0</asrwt>
<pdfrwt beam="1">  1        4 0.26624376E-03 0.25245338E+02</pdfrwt>
<pdfrwt beam="2">  1       -4 0.14164336E-01 0.25245338E+02</pdfrwt>
<totfact> 0.61626928E+05</totfact>
</mgrwt>
</event>
<event>
 4    1  0.2126213E+000  0.8220665E+02  0.7546771E-02  0.1322903E+00
         -2   -1    0    0    0  501 -0.00000000000E+00  0.00000000000E+00  0.46001989557E+02  0.46001989557E+02  0.00000000000E+00 0.  1.
          2   -1    0    0  501    0  0.00000000000E+00 -0.00000000000E+00 -0.36726308836E+02  0.36726308836E+02  0.00000000000E+00 0. -1.
        -11    1    1    2    0    0 -0.30232676797E+02  0.14674632934E+02 -0.19179272420E+02  0.38693721566E+02  0.00000000000E+00 0. -1.
         11    1    1    2    0    0  0.30232676797E+02 -0.14674632934E+02  0.28454953141E+02  0.44034576827E+02  0.00000000000E+00 0.  1.
<mgrwt>
<rscale>  0 0.82206649E+02</rscale>
<asrwt>0</asrwt>
<pdfrwt beam="2">  1        2 0.56502014E-02 0.82206649E+02</pdfrwt>
<pdfrwt beam="1">  1       -2 0.70772292E-02 0.82206649E+02</pdfrwt>
<totfact> 0.12573610E+05</totfact>
</mgrwt>
</event>
<event>
 4    1  0.2126213E+000  0.3255426E+02  0.7546771E-02  0.1571458E+00
         -2   -1    0    0    0  501 -0.00000000000E+00  0.00000000000E+00  0.43718455574E+01  0.43718455574E+01  0.00000000000E+00 0.  1.
          2   -1    0    0  501    0  0.00000000000E+00 -0.00000000000E+00 -0.60602548875E+02  0.60602548875E+02  0.00000000000E+00 0. -1.
        -13    1    1    2    0    0  0.89564318667E+00 -0.13111018465E+02 -0.89461748770E+01  0.15897642179E+02  0.00000000000E+00 0.  1.
         13    1    1    2    0    0 -0.89564318667E+00  0.13111018465E+02 -0.47284528441E+02  0.49076752254E+02  0.00000000000E+00 0. -1.
<mgrwt>
<rscale>  0 0.32554261E+02</rscale>
<asrwt>0</asrwt>
<pdfrwt beam="2">  1        2 0.93234686E-02 0.32554261E+02</pdfrwt>
<pdfrwt beam="1">  1       -2 0.67259166E-03 0.32554261E+02</pdfrwt>
<totfact> 0.15461550E+06</totfact>
</mgrwt>
</event>
<event>
 4    1  0.2126213E+000  0.2094248E+02  0.7546771E-02  0.1727210E+00
          3   -1    0    0  501    0  0.00000000000E+00  0.00000000000E+00  0.60685405159E+02  0.60685405159E+02  0.00000000000E+00 0. -1.
         -3   -1    0    0    0  501 -0.00000000000E+00 -0.00000000000E+00 -0.18068084580E+01  0.18068084580E+01  0.00000000000E+00 0.  1.
        -11    1    1    2    0    0 -0.70175734043E+01 -0.77665034745E+01  0.30293734861E+02  0.32051135464E+02  0.00000000000E+00 0.  1.
         11    1    1    2    0    0  0.70175734043E+01  0.77665034745E+01  0.28584861840E+02  0.30441078153E+02  0.00000000000E+00 0. -1.
<mgrwt>
<rscale>  0 0.20942483E+02</rscale>
<asrwt>0</asrwt>
<pdfrwt beam="1">  1        3 0.93362146E-02 0.20942483E+02</pdfrwt>
<pdfrwt beam="2">  1       -3 0.27797058E-03 0.20942483E+02</pdfrwt>
<totfact> 0.14151961E+06</totfact>
</mgrwt>
</event>
<event>
 4    1  0.2126213E+000  0.3395892E+02  0.7546771E-02  0.1558045E+00
          2   -1    0    0  501    0  0.00000000000E+00  0.00000000000E+00  0.25149567506E+02  0.25149567506E+02  0.00000000000E+00 0. -1.
         -2   -1    0    0    0  501 -0.00000000000E+00 -0.00000000000E+00 -0.11463499072E+02  0.11463499072E+02  0.00000000000E+00 0.  1.
        -13    1    1    2    0    0 -0.14194237138E+02  0.70449732641E+01  0.13418383892E+02  0.20764417701E+02  0.00000000000E+00 0. -1.
         13    1    1    2    0    0  0.14194237138E+02 -0.70449732641E+01  0.26768454183E+00  0.15848648877E+02  0.00000000000E+00 0.  1.
<mgrwt>
<rscale>  0 0.33958919E+02</rscale>
<asrwt>0</asrwt>
<pdfrwt beam="1">  1        2 0.38691642E-02 0.33958919E+02</pdfrwt>
<pdfrwt beam="2">  1       -2 0.17636152E-02 0.33958919E+02</pdfrwt>
<totfact> 0.12233138E+06</totfact>
</mgrwt>
</event>
<event>
 4    1  0.2126213E+000  0.3219766E+02  0.7546771E-02  0.1574994E+00
          2   -1    0    0  501    0  0.00000000000E+00  0.00000000000E+00  0.12841308336E+02  0.12841308336E+02  0.00000000000E+00 0.  1.
         -2   -1    0    0    0  501 -0.00000000000E+00 -0.00000000000E+00 -0.20182702821E+02  0.20182702821E+02  0.00000000000E+00 0. -1.
        -11    1    1    2    0    0 -0.76005479172E+01  0.11513252838E+02  0.48397878452E+01  0.14620084334E+02  0.00000000000E+00 0.  1.
         11    1    1    2    0    0  0.76005479172E+01 -0.11513252838E+02 -0.12181182330E+02  0.18403926823E+02  0.00000000000E+00 0. -1.
<mgrwt>
<rscale>  0 0.32197659E+02</rscale>
<asrwt>0</asrwt>
<pdfrwt beam="1">  1        2 0.19755859E-02 0.32197659E+02</pdfrwt>
<pdfrwt beam="2">  1       -2 0.31050312E-02 0.32197659E+02</pdfrwt>
<totfact> 0.12933414E+06</totfact>
</mgrwt>
</event>
<event>
 4    1  0.2126213E+000  0.2503255E+02  0.7546771E-02  0.1660535E+00
          2   -1    0    0  501    0  0.00000000000E+00  0.00000000000E+00  0.28353725094E+02  0.28353725094E+02  0.00000000000E+00 0. -1.
         -2   -1    0    0    0  501 -0.00000000000E+00 -0.00000000000E+00 -0.55251000089E+01  0.55251000089E+01  0.00000000000E+00 0.  1.
        -13    1    1    2    0    0  0.55279021578E+01  0.10273275188E+02  0.52777215700E+01  0.12804383247E+02  0.00000000000E+00 0.  1.
         13    1    1    2    0    0 -0.55279021578E+01 -0.10273275188E+02  0.17550903515E+02  0.21074441856E+02  0.00000000000E+00 0. -1.
<mgrwt>
<rscale>  0 0.25032552E+02</rscale>
<asrwt>0</asrwt>
<pdfrwt beam="1">  1        2 0.43621115E-02 0.25032552E+02</pdfrwt>
<pdfrwt beam="2">  1       -2 0.85001540E-03 0.25032552E+02</pdfrwt>
<totfact> 0.25783759E+06</totfact>
</mgrwt>
</event>
<event>
 4    1  0.2126213E+000  0.2911475E+02  0.7546771E-02  0.1608085E+00
         -2   -1    0    0    0  501 -0.00000000000E+00  0.00000000000E+00  0.21089124163E+01  0.21089124163E+01  0.00000000000E+00 0. -1.
          2   -1    0    0  501    0  0.00000000000E+00 -0.00000000000E+00 -0.10048643900E+03  0.10048643900E+03  0.00000000000E+00 0.  1.
        -13    1    1    2    0    0  0.14313341174E+02  0.16131331537E+00 -0.58524806827E+02  0.60249902670E+02  0.00000000000E+00 0.  1.
         13    1    1    2    0    0 -0.14313341174E+02 -0.16131331537E+00 -0.39852719756E+02  0.42345448746E+02  0.00000000000E+00 0. -1.
<mgrwt>
<rscale>  0 0.29114745E+02</rscale>
<asrwt>0</asrwt>
<pdfrwt beam="2">  1        2 0.15459452E-01 0.29114745E+02</pdfrwt>
<pdfrwt beam="1">  1       -2 0.32444806E-03 0.29114745E+02</pdfrwt>
<totfact> 0.22447546E+06</totfact>
</mgrwt>
</event>
<event>
 4    1  0.2126213E+000  0.6193068E+02  0.7546771E-02  0.1389904E+00
         -2   -1    0    0    0  501 -0.00000000000E+00  0.00000000000E+00  0.17118764445E+02  0.17118764445E+02  0.00000000000E+00 0. -1.
          2   -1    0    0  501    0  0.00000000000E+00 -0.00000000000E+00 -0.56011763331E+02  0.56011763331E+02  0.00000000000E+00 0.  1.
        -13    1    1    2    0    0  0.10949254829E+02 -0.41346935886E+01 -0.53299294142E+02  0.54569191202E+02  0.00000000000E+00 0.  1.
         13    1    1    2    0    0 -0.10949254829E+02  0.41346935886E+01  0.14406295257E+02  0.18561336573E+02  0.00000000000E+00 0. -1.
<mgrwt>
<rscale>  0 0.61930677E+02</rscale>
<asrwt>0</asrwt>
<pdfrwt beam="2">  1        2 0.86171943E-02 0.61930677E+02</pdfrwt>
<pdfrwt beam="1">  1       -2 0.26336561E-02 0.61930677E+02</pdfrwt>
<totfact> 0.30019849E+05</totfact>
</mgrwt>
</event>
<event>
 4    1  0.2126213E+000  0.2730564E+02  0.7546771E-02  0.1629935E+00
         -1   -1    0    0    0  501 -0.00000000000E+00  0.00000000000E+00  0.14557925584E+02  0.14557925584E+02  0.00000000000E+00 0.  1.
          1   -1    0    0  501    0  0.00000000000E+00 -0.00000000000E+00 -0.12803989433E+02  0.12803989433E+02  0.00000000000E+00 0. -1.
        -11    1    1    2    0    0 -0.10477933604E+02  0.39670824338E+01 -0.69413344854E+01  0.13179793628E+02  0.00000000000E+00 0. -1.
         11    1    1    2    0    0  0.10477933604E+02 -0.39670824338E+01  0.86952706368E+01  0.14182121389E+02  0.00000000000E+00 0.  1.
<mgrwt>
<rscale>  0 0.27305642E+02</rscale>
<asrwt>0</asrwt>
<pdfrwt beam="2">  1        1 0.19698445E-02 0.27305642E+02</pdfrwt>
<pdfrwt beam="1">  1       -1 0.22396809E-02 0.27305642E+02</pdfrwt>
<totfact> 0.18912289E+06</totfact>
</mgrwt>
</event>
<event>
 4    1  0.2126213E+000  0.2408660E+02  0.7546771E-02  0.1674479E+00
         -1   -1    0    0    0  501 -0.00000000000E+00  0.00000000000E+00  0.10751676683E+02  0.10751676683E+02  0.00000000000E+00 0. -1.
          1   -1    0    0  501    0  0.00000000000E+00 -0.00000000000E+00 -0.13490093608E+02  0.13490093608E+02  0.00000000000E+00 0.  1.
        -11    1    1    2    0    0  0.11193288039E+02 -0.46519368014E+00 -0.58175253253E+01  0.12623379231E+02  0.00000000000E+00 0.  1.
         11    1    1    2    0    0 -0.11193288039E+02  0.46519368014E+00  0.30791084005E+01  0.11618391061E+02  0.00000000000E+00 0. -1.
<mgrwt>
<rscale>  0 0.24086604E+02</rscale>
<asrwt>0</asrwt>
<pdfrwt beam="2">  1        1 0.20753990E-02 0.24086604E+02</pdfrwt>
<pdfrwt beam="1">  1       -1 0.16541041E-02 0.24086604E+02</pdfrwt>
<totfact> 0.25504638E+06</totfact>
</mgrwt>
</event>
<event>
 4    1  0.2126213E+000  0.4983998E+02  0.7546771E-02  0.1446207E+00
          2   -1    0    0  501    0  0.00000000000E+00  0.00000000000E+00  0.25760184901E+02  0.25760184901E+02  0.00000000000E+00 0.  1.
         -2   -1    0    0    0  501 -0.00000000000E+00 -0.00000000000E+00 -0.24107200490E+02  0.24107200490E+02  0.00000000000E+00 0. -1.
        -11    1    1    2    0    0  0.13754351021E+02  0.10910856455E+02  0.18521718328E+02  0.25520247068E+02  0.00000000000E+00 0.  1.
         11    1    1    2    0    0 -0.13754351021E+02 -0.10910856455E+02 -0.16868733917E+02  0.24347138324E+02  0.00000000000E+00 0. -1.
<mgrwt>
<rscale>  0 0.49839982E+02</rscale>
<asrwt>0</asrwt>
<pdfrwt beam="1">  1        2 0.39631054E-02 0.49839982E+02</pdfrwt>
<pdfrwt beam="2">  1       -2 0.37088001E-02 0.49839982E+02</pdfrwt>
<totfact> 0.46205948E+05</totfact>
</mgrwt>
</event>
<event>
 4    1  0.2126213E+000  0.6055662E+02  0.7546771E-02  0.1395511E+00
         -2   -1    0    0    0  501 -0.00000000000E+00  0.00000000000E+00  0.11308894747E+02  0.11308894747E+02  0.00000000000E+00 0. -1.
          2   -1    0    0  501    0  0.00000000000E+00 -0.00000000000E+00 -0.81066815492E+02  0.81066815492E+02  0.00000000000E+00 0.  1.
        -11    1    1    2    0    0 -0.18120526122E+02 -0.24199093610E+02 -0.32314361015E+02  0.44251186722E+02  0.00000000000E+00 0.  1.
         11    1    1    2    0    0  0.18120526122E+02  0.24199093610E+02 -0.37443559731E+02  0.48124523517E+02  0.00000000000E+00 0. -1.
<mgrwt>
<rscale>  0 0.60556621E+02</rscale>
<asrwt>0</asrwt>
<pdfrwt beam="2">  1        2 0.12471817E-01 0.60556621E+02</pdfrwt>
<pdfrwt beam="1">  1       -2 0.17398300E-02 0.60556621E+02</pdfrwt>
<totfact> 0.34688297E+05</totfact>
</mgrwt>
</event>
<event>
 4    1  0.2126213E+000  0.3356267E+02  0.7546771E-02  0.1561748E+00
          2   -1    0    0  501    0  0.00000000000E+00  0.00000000000E+00  0.19784296788E+01  0.19784296788E+01  0.00000000000E+00 0.  1.
         -2   -1    0    0    0  501 -0.00000000000E+00 -0.00000000000E+00 -0.14234177196E+03  0.14234177196E+03  0.00000000000E+00 0. -1.
        -11    1    1    2    0    0  0.82415884761E+01  0.13582535808E+02 -0.93419350203E+02  0.94760667220E+02  0.00000000000E+00 0.  1.
         11    1    1    2    0    0 -0.82415884761E+01 -0.13582535808E+02 -0.46943992074E+02  0.49559534415E+02  0.00000000000E+00 0. -1.
<mgrwt>
<rscale>  0 0.33562669E+02</rscale>
<asrwt>0</asrwt>
<pdfrwt beam="1">  1        2 0.30437385E-03 0.33562669E+02</pdfrwt>
<pdfrwt beam="2">  1       -2 0.21898730E-01 0.33562669E+02</pdfrwt>
<totfact> 0.83206306E+05</totfact>
</mgrwt>
</event>
<event>
 4    1  0.2126213E+000  0.3530623E+02  0.7546771E-02  0.1545898E+00
         -2   -1    0    0    0  501 -0.00000000000E+00  0.00000000000E+00  0.81860518440E+01  0.81860518440E+01  0.00000000000E+00 0.  1.
          2   -1    0    0  501    0  0.00000000000E+00 -0.00000000000E+00 -0.38068705835E+02  0.38068705835E+02  0.00000000000E+00 0. -1.
        -11    1    1    2    0    0  0.28492989114E+00  0.10539732170E+02  0.36078512156E+01  0.11143775377E+02  0.00000000000E+00 0.  1.
         11    1    1    2    0    0 -0.28492989114E+00 -0.10539732170E+02 -0.33490505207E+02  0.35110982303E+02  0.00000000000E+00 0. -1.
<mgrwt>
<rscale>  0 0.35306226E+02</rscale>
<asrwt>0</asrwt>
<pdfrwt beam="2">  1        2 0.58567240E-02 0.35306226E+02</pdfrwt>
<pdfrwt beam="1">  1       -2 0.12593926E-02 0.35306226E+02</pdfrwt>
<totfact> 0.11755400E+06</totfact>
</mgrwt>
</event>
<event>
 4    1  0.2126213E+000  0.3374774E+02  0.7546771E-02  0.1560011E+00
          2   -1    0    0  501    0  0.00000000000E+00  0.00000000000E+00  0.14990568408E+02  0.14990568408E+02  0.00000000000E+00 0. -1.
         -2   -1    0    0    0  501 -0.00000000000E+00 -0.00000000000E+00 -0.18993771053E+02  0.18993771053E+02  0.00000000000E+00 0.  1.
        -11    1    1    2    0    0 -0.16666376585E+02 -0.25970779151E+01 -0.24679921432E+01  0.17047108476E+02  0.00000000000E+00 0. -1.
         11    1    1    2    0    0  0.16666376585E+02  0.25970779151E+01 -0.15352105015E+01  0.16937230985E+02  0.00000000000E+00 0.  1.
<mgrwt>
<rscale>  0 0.33747736E+02</rscale>
<asrwt>0</asrwt>
<pdfrwt beam="1">  1        2 0.23062413E-02 0.33747736E+02</pdfrwt>
<pdfrwt beam="2">  1       -2 0.29221186E-02 0.33747736E+02</pdfrwt>
<totfact> 0.11699394E+06</totfact>
</mgrwt>
</event>
<event>
 4    1  0.2126213E+000  0.4949541E+02  0.7546771E-02  0.1448082E+00
         -2   -1    0    0    0  501 -0.00000000000E+00  0.00000000000E+00  0.70268198333E+01  0.70268198333E+01  0.00000000000E+00 0. -1.
          2   -1    0    0  501    0  0.00000000000E+00 -0.00000000000E+00 -0.87158742312E+02  0.87158742312E+02  0.00000000000E+00 0.  1.
        -13    1    1    2    0    0 -0.18208845117E+02 -0.99246625882E+01 -0.65765028295E+02  0.68957232505E+02  0.00000000000E+00 0.  1.
         13    1    1    2    0    0  0.18208845117E+02  0.99246625882E+01 -0.14366894183E+02  0.25228329640E+02  0.00000000000E+00 0. -1.
<mgrwt>
<rscale>  0 0.49495405E+02</rscale>
<asrwt>0</asrwt>
<pdfrwt beam="2">  1        2 0.13409038E-01 0.49495405E+02</pdfrwt>
<pdfrwt beam="1">  1       -2 0.10810492E-02 0.49495405E+02</pdfrwt>
<totfact> 0.59339760E+05</totfact>
</mgrwt>
</event>
<event>
 4    1  0.2126213E+000  0.3050348E+02  0.7546771E-02  0.1592589E+00
          4   -1    0    0  501    0  0.00000000000E+00  0.00000000000E+00  0.74281789419E+02  0.74281789419E+02  0.00000000000E+00 0. -1.
         -4   -1    0    0    0  501 -0.00000000000E+00 -0.00000000000E+00 -0.31315292120E+01  0.31315292120E+01  0.00000000000E+00 0.  1.
        -13    1    1    2    0    0 -0.10841023609E+02  0.10714557466E+02  0.34217773325E+02  0.37459118328E+02  0.00000000000E+00 0. -1.
         13    1    1    2    0    0  0.10841023609E+02 -0.10714557466E+02  0.36932486882E+02  0.39954200303E+02  0.00000000000E+00 0.  1.
<mgrwt>
<rscale>  0 0.30503481E+02</rscale>
<asrwt>0</asrwt>
<pdfrwt beam="1">  1        4 0.11427966E-01 0.30503481E+02</pdfrwt>
<pdfrwt beam="2">  1       -4 0.48177378E-03 0.30503481E+02</pdfrwt>
<totfact> 0.42723779E+05</totfact>
</mgrwt>
</event>
<event>
 4    1  0.2126213E+000  0.3150891E+02  0.7546771E-02  0.1581985E+00
          2   -1    0    0  501    0  0.00000000000E+00  0.00000000000E+00  0.37676331012E+02  0.37676331012E+02  0.00000000000E+00 0.  1.
         -2   -1    0    0    0  501 -0.00000000000E+00 -0.00000000000E+00 -0.65877646756E+01  0.65877646756E+01  0.00000000000E+00 0. -1.
        -11    1    1    2    0    0  0.51665354485E+01 -0.90302688408E+01  0.32164105185E+02  0.33804859210E+02  0.00000000000E+00 0.  1.
         11    1    1    2    0    0 -0.51665354485E+01  0.90302688408E+01 -0.10755388485E+01  0.10459236478E+02  0.00000000000E+00 0. -1.
<mgrwt>
<rscale>  0 0.31508907E+02</rscale>
<asrwt>0</asrwt>
<pdfrwt beam="1">  1        2 0.57963585E-02 0.31508907E+02</pdfrwt>
<pdfrwt beam="2">  1       -2 0.10135023E-02 0.31508907E+02</pdfrwt>
<totfact> 0.15481529E+06</totfact>
</mgrwt>
</event>
<event>
 4    1  0.2126213E+000  0.5058458E+02  0.7546771E-02  0.1442214E+00
         -2   -1    0    0    0  501 -0.00000000000E+00  0.00000000000E+00  0.76134038827E+01  0.76134038827E+01  0.00000000000E+00 0.  1.
          2   -1    0    0  501    0  0.00000000000E+00 -0.00000000000E+00 -0.84022867358E+02  0.84022867358E+02  0.00000000000E+00 0. -1.
        -11    1    1    2    0    0  0.16005995780E+02  0.19385430611E+02 -0.33173589092E+02  0.41622996458E+02  0.00000000000E+00 0. -1.
         11    1    1    2    0    0 -0.16005995780E+02 -0.19385430611E+02 -0.43235874383E+02  0.50013274783E+02  0.00000000000E+00 0.  1.
<mgrwt>
<rscale>  0 0.50584584E+02</rscale>
<asrwt>0</asrwt>
<pdfrwt beam="2">  1        2 0.12926594E-01 0.50584584E+02</pdfrwt>
<pdfrwt beam="1">  1       -2 0.11712930E-02 0.50584584E+02</pdfrwt>
<totfact> 0.55651910E+05</totfact>
</mgrwt>
</event>
<event>
 4    1  0.2126213E+000  0.2387405E+02  0.7546771E-02  0.1677722E+00
          4   -1    0    0  501    0  0.00000000000E+00  0.00000000000E+00  0.72056648245E+02  0.72056648245E+02  0.00000000000E+00 0. -1.
         -4   -1    0    0    0  501 -0.00000000000E+00 -0.00000000000E+00 -0.19775077384E+01  0.19775077384E+01  0.00000000000E+00 0.  1.
        -11    1    1    2    0    0  0.62726611946E+01 -0.86804989888E+01  0.51388570901E+02  0.52492690543E+02  0.00000000000E+00 0.  1.
         11    1    1    2    0    0 -0.62726611946E+01  0.86804989888E+01  0.18690569606E+02  0.21541465441E+02  0.00000000000E+00 0. -1.
<mgrwt>
<rscale>  0 0.23874051E+02</rscale>
<asrwt>0</asrwt>
<pdfrwt beam="1">  1        4 0.11085636E-01 0.23874051E+02</pdfrwt>
<pdfrwt beam="2">  1       -4 0.30423202E-03 0.23874051E+02</pdfrwt>
<totfact> 0.73647914E+05</totfact>
</mgrwt>
</event>
<event>
 4    1  0.2126213E+000  0.2947683E+02  0.7546771E-02  0.1603945E+00
         -4   -1    0    0    0  501 -0.00000000000E+00  0.00000000000E+00  0.49035892123E+01  0.49035892123E+01  0.00000000000E+00 0. -1.
          4   -1    0    0  501    0  0.00000000000E+00 -0.00000000000E+00 -0.44298344218E+02  0.44298344218E+02  0.00000000000E+00 0.  1.
        -13    1    1    2    0    0  0.11621819232E+02  0.24565898358E+01 -0.34260314480E+02  0.36261145378E+02  0.00000000000E+00 0.  1.
         13    1    1    2    0    0 -0.11621819232E+02 -0.24565898358E+01 -0.51344405258E+01  0.12940788052E+02  0.00000000000E+00 0. -1.
<mgrwt>
<rscale>  0 0.29476830E+02</rscale>
<asrwt>0</asrwt>
<pdfrwt beam="2">  1        4 0.68151300E-02 0.29476830E+02</pdfrwt>
<pdfrwt beam="1">  1       -4 0.75439833E-03 0.29476830E+02</pdfrwt>
<totfact> 0.50492305E+05</totfact>
</mgrwt>
</event>
<event>
 4    1  0.2126213E+000  0.4830922E+02  0.7546771E-02  0.1454680E+00
          2   -1    0    0  501    0  0.00000000000E+00  0.00000000000E+00  0.64593083830E+01  0.64593083830E+01  0.00000000000E+00 0. -1.
         -2   -1    0    0    0  501 -0.00000000000E+00 -0.00000000000E+00 -0.90326280260E+02  0.90326280260E+02  0.00000000000E+00 0.  1.
        -11    1    1    2    0    0 -0.21107891951E+01  0.24052792093E+02 -0.40584961385E+02  0.47224266316E+02  0.00000000000E+00 0. -1.
         11    1    1    2    0    0  0.21107891951E+01 -0.24052792093E+02 -0.43282010493E+02  0.49561322327E+02  0.00000000000E+00 0.  1.
<mgrwt>
<rscale>  0 0.48309225E+02</rscale>
<asrwt>0</asrwt>
<pdfrwt beam="1">  1        2 0.99373988E-03 0.48309225E+02</pdfrwt>
<pdfrwt beam="2">  1       -2 0.13896349E-01 0.48309225E+02</pdfrwt>
<totfact> 0.39343882E+05</totfact>
</mgrwt>
</event>
<event>
 4    1  0.2126213E+000  0.2245371E+02  0.7546771E-02  0.1700521E+00
          2   -1    0    0  501    0  0.00000000000E+00  0.00000000000E+00  0.68621017104E+01  0.68621017104E+01  0.00000000000E+00 0. -1.
         -2   -1    0    0    0  501 -0.00000000000E+00 -0.00000000000E+00 -0.18367887972E+02  0.18367887972E+02  0.00000000000E+00 0.  1.
        -11    1    1    2    0    0 -0.43496816710E+01 -0.91105188728E+01 -0.11271466509E+02  0.15131663558E+02  0.00000000000E+00 0.  1.
         11    1    1    2    0    0  0.43496816710E+01  0.91105188728E+01 -0.23431975294E+00  0.10098326125E+02  0.00000000000E+00 0. -1.
<mgrwt>
<rscale>  0 0.22453714E+02</rscale>
<asrwt>0</asrwt>
<pdfrwt beam="1">  1        2 0.10557080E-02 0.22453714E+02</pdfrwt>
<pdfrwt beam="2">  1       -2 0.28258289E-02 0.22453714E+02</pdfrwt>
<totfact> 0.29271329E+06</totfact>
</mgrwt>
</event>
<event>
 4    1  0.2126213E+000  0.3260534E+02  0.7546771E-02  0.1570956E+00
         -2   -1    0    0    0  501 -0.00000000000E+00  0.00000000000E+00  0.30379143471E+01  0.30379143471E+01  0.00000000000E+00 0. -1.
          2   -1    0    0  501    0  0.00000000000E+00 -0.00000000000E+00 -0.87486659605E+02  0.87486659605E+02  0.00000000000E+00 0.  1.
        -11    1    1    2    0    0 -0.15338697180E+02 -0.53628915700E+01 -0.38561305143E+02  0.41845077268E+02  0.00000000000E+00 0. -1.
         11    1    1    2    0    0  0.15338697180E+02  0.53628915700E+01 -0.45887440115E+02  0.48679496684E+02  0.00000000000E+00 0.  1.
<mgrwt>
<rscale>  0 0.32605336E+02</rscale>
<asrwt>0</asrwt>
<pdfrwt beam="2">  1        2 0.13459487E-01 0.32605336E+02</pdfrwt>
<pdfrwt beam="1">  1       -2 0.46737142E-03 0.32605336E+02</pdfrwt>
<totfact> 0.16614877E+06</totfact>
</mgrwt>
</event>
<event>
 4    1  0.2126213E+000  0.2454291E+02  0.7546771E-02  0.1667655E+00
         -4   -1    0    0    0  501 -0.00000000000E+00  0.00000000000E+00  0.53432446978E+01  0.53432446978E+01  0.00000000000E+00 0.  1.
          4   -1    0    0  501    0  0.00000000000E+00 -0.00000000000E+00 -0.28182979444E+02  0.28182979444E+02  0.00000000000E+00 0. -1.
        -13    1    1    2    0    0  0.93524243997E+01 -0.64133456269E+01 -0.50141403468E+01  0.12399211576E+02  0.00000000000E+00 0.  1.
         13    1    1    2    0    0 -0.93524243997E+01  0.64133456269E+01 -0.17825594400E+02  0.21127012566E+02  0.00000000000E+00 0. -1.
<mgrwt>
<rscale>  0 0.24542906E+02</rscale>
<asrwt>0</asrwt>
<pdfrwt beam="2">  1        4 0.43358430E-02 0.24542906E+02</pdfrwt>
<pdfrwt beam="1">  1       -4 0.82203765E-03 0.24542906E+02</pdfrwt>
<totfact> 0.79962620E+05</totfact>
</mgrwt>
</event>
<event>
 4    1  0.2126213E+000  0.3673635E+02  0.7546771E-02  0.1533701E+00
          4   -1    0    0  501    0  0.00000000000E+00  0.00000000000E+00  0.28998305529E+02  0.28998305529E+02  0.00000000000E+00 0. -1.
         -4   -1    0    0    0  501 -0.00000000000E+00 -0.00000000000E+00 -0.11634813156E+02  0.11634813156E+02  0.00000000000E+00 0.  1.
        -11    1    1    2    0    0  0.16339048616E+02 -0.39743006244E+01  0.16856993561E+02  0.23810035847E+02  0.00000000000E+00 0. -1.
         11    1    1    2    0    0 -0.16339048616E+02  0.39743006244E+01  0.50649881080E+00  0.16823082838E+02  0.00000000000E+00 0.  1.
<mgrwt>
<rscale>  0 0.36736351E+02</rscale>
<asrwt>0</asrwt>
<pdfrwt beam="1">  1        4 0.44612777E-02 0.36736351E+02</pdfrwt>
<pdfrwt beam="2">  1       -4 0.17899713E-02 0.36736351E+02</pdfrwt>
<totfact> 0.31357133E+05</totfact>
</mgrwt>
</event>
<event>
 4    1  0.2126213E+000  0.2413092E+02  0.7546771E-02  0.1673808E+00
         -4   -1    0    0    0  501 -0.00000000000E+00  0.00000000000E+00  0.84069730171E+02  0.84069730171E+02  0.00000000000E+00 0.  1.
          4   -1    0    0  501    0  0.00000000000E+00 -0.00000000000E+00 -0.17316021545E+01  0.17316021545E+01  0.00000000000E+00 0. -1.
        -11    1    1    2    0    0  0.27537920581E+01  0.11428186412E+02  0.31504136556E+02  0.33625844755E+02  0.00000000000E+00 0. -1.
         11    1    1    2    0    0 -0.27537920581E+01 -0.11428186412E+02  0.50833991460E+02  0.52175487570E+02  0.00000000000E+00 0.  1.
<mgrwt>
<rscale>  0 0.24130920E+02</rscale>
<asrwt>0</asrwt>
<pdfrwt beam="2">  1        4 0.26640040E-03 0.24130920E+02</pdfrwt>
<pdfrwt beam="1">  1       -4 0.12933802E-01 0.24130920E+02</pdfrwt>
<totfact> 0.69454317E+05</totfact>
</mgrwt>
</event>
<event>
 4    1  0.2126213E+000  0.2272923E+02  0.7546771E-02  0.1695937E+00
         -1   -1    0    0    0  501 -0.00000000000E+00  0.00000000000E+00  0.15758433930E+01  0.15758433930E+01  0.00000000000E+00 0. -1.
          1   -1    0    0  501    0  0.00000000000E+00 -0.00000000000E+00 -0.81958975551E+02  0.81958975551E+02  0.00000000000E+00 0.  1.
        -13    1    1    2    0    0 -0.96740928392E+01 -0.29167648123E+01 -0.21073762812E+02  0.23370902171E+02  0.00000000000E+00 0. -1.
         13    1    1    2    0    0  0.96740928392E+01  0.29167648123E+01 -0.59309369346E+02  0.60163916772E+02  0.00000000000E+00 0.  1.
<mgrwt>
<rscale>  0 0.22729233E+02</rscale>
<asrwt>0</asrwt>
<pdfrwt beam="2">  1        1 0.12609075E-01 0.22729233E+02</pdfrwt>
<pdfrwt beam="1">  1       -1 0.24243742E-03 0.22729233E+02</pdfrwt>
<totfact> 0.32647477E+06</totfact>
</mgrwt>
</event>
<event>
 4    1  0.2126213E+000  0.2435047E+02  0.7546771E-02  0.1670510E+00
          2   -1    0    0  501    0  0.00000000000E+00  0.00000000000E+00  0.13660882375E+02  0.13660882375E+02  0.00000000000E+00 0. -1.
         -2   -1    0    0    0  501 -0.00000000000E+00 -0.00000000000E+00 -0.10851156773E+02  0.10851156773E+02  0.00000000000E+00 0.  1.
        -13    1    1    2    0    0 -0.67590407877E+01 -0.98943488713E+01  0.35763975305E+01  0.12504934676E+02  0.00000000000E+00 0.  1.
         13    1    1    2    0    0  0.67590407877E+01  0.98943488713E+01 -0.76667192808E+00  0.12007104472E+02  0.00000000000E+00 0. -1.
<mgrwt>
<rscale>  0 0.24350472E+02</rscale>
<asrwt>0</asrwt>
<pdfrwt beam="1">  1        2 0.21016742E-02 0.24350472E+02</pdfrwt>
<pdfrwt beam="2">  1       -2 0.16694087E-02 0.24350472E+02</pdfrwt>
<totfact> 0.25615988E+06</totfact>
</mgrwt>
</event>
<event>
 4    1  0.2126213E+000  0.2668633E+02  0.7546771E-02  0.1637899E+00
         -1   -1    0    0    0  501 -0.00000000000E+00  0.00000000000E+00  0.15049891569E+02  0.15049891569E+02  0.00000000000E+00 0. -1.
          1   -1    0    0  501    0  0.00000000000E+00 -0.00000000000E+00 -0.11829988118E+02  0.11829988118E+02  0.00000000000E+00 0.  1.
        -13    1    1    2    0    0  0.45465151072E+01  0.10646614592E+02  0.82927409696E+01  0.14240461884E+02  0.00000000000E+00 0. -1.
         13    1    1    2    0    0 -0.45465151072E+01 -0.10646614592E+02 -0.50728375182E+01  0.12639417802E+02  0.00000000000E+00 0.  1.
<mgrwt>
<rscale>  0 0.26686329E+02</rscale>
<asrwt>0</asrwt>
<pdfrwt beam="2">  1        1 0.18199982E-02 0.26686329E+02</pdfrwt>
<pdfrwt beam="1">  1       -1 0.23153679E-02 0.26686329E+02</pdfrwt>
<totfact> 0.19893258E+06</totfact>
</mgrwt>
</event>
<event>
 4    1  0.2126213E+000  0.3783610E+02  0.7546771E-02  0.1524767E+00
          2   -1    0    0  501    0  0.00000000000E+00  0.00000000000E+00  0.85648965435E+02  0.85648965435E+02  0.00000000000E+00 0. -1.
         -2   -1    0    0    0  501 -0.00000000000E+00 -0.00000000000E+00 -0.41785971537E+01  0.41785971537E+01  0.00000000000E+00 0.  1.
        -11    1    1    2    0    0 -0.12768341324E+01  0.17923489450E+02  0.54782843752E+02  0.57654503285E+02  0.00000000000E+00 0. -1.
         11    1    1    2    0    0  0.12768341324E+01 -0.17923489450E+02  0.26687524530E+02  0.32173059304E+02  0.00000000000E+00 0.  1.
<mgrwt>
<rscale>  0 0.37836095E+02</rscale>
<asrwt>0</asrwt>
<pdfrwt beam="1">  1        2 0.13176763E-01 0.37836095E+02</pdfrwt>
<pdfrwt beam="2">  1       -2 0.64286117E-03 0.37836095E+02</pdfrwt>
<totfact> 0.11536672E+06</totfact>
</mgrwt>
</event>
<event>
 4    1  0.2126213E+000  0.2521101E+02  0.7546771E-02  0.1657989E+00
          2   -1    0    0  501    0  0.00000000000E+00  0.00000000000E+00  0.31138545964E+02  0.31138545964E+02  0.00000000000E+00 0.  1.
         -2   -1    0    0    0  501 -0.00000000000E+00 -0.00000000000E+00 -0.51029608668E+01  0.51029608668E+01  0.00000000000E+00 0. -1.
        -13    1    1    2    0    0 -0.42202379293E+01  0.10922237675E+02  0.19728610351E+02  0.22941746891E+02  0.00000000000E+00 0.  1.
         13    1    1    2    0    0  0.42202379293E+01 -0.10922237675E+02  0.63069747460E+01  0.13299759940E+02  0.00000000000E+00 0. -1.
<mgrwt>
<rscale>  0 0.25211012E+02</rscale>
<asrwt>0</asrwt>
<pdfrwt beam="1">  1        2 0.47905454E-02 0.25211012E+02</pdfrwt>
<pdfrwt beam="2">  1       -2 0.78507092E-03 0.25211012E+02</pdfrwt>
<totfact> 0.25638105E+06</totfact>
</mgrwt>
</event>
<event>
 4    1  0.2126213E+000  0.4828416E+02  0.7546771E-02  0.1454822E+00
          3   -1    0    0  501    0  0.00000000000E+00  0.00000000000E+00  0.23901514303E+02  0.23901514303E+02  0.00000000000E+00 0. -1.
         -3   -1    0    0    0  501 -0.00000000000E+00 -0.00000000000E+00 -0.24385071217E+02  0.24385071217E+02  0.00000000000E+00 0.  1.
        -11    1    1    2    0    0 -0.20004935302E+02  0.65327713174E+01 -0.12073077160E+02  0.24261775072E+02  0.00000000000E+00 0. -1.
         11    1    1    2    0    0  0.20004935302E+02 -0.65327713174E+01  0.11589520247E+02  0.24024810448E+02  0.00000000000E+00 0.  1.
<mgrwt>
<rscale>  0 0.48284164E+02</rscale>
<asrwt>0</asrwt>
<pdfrwt beam="1">  1        3 0.36771561E-02 0.48284164E+02</pdfrwt>
<pdfrwt beam="2">  1       -3 0.37515494E-02 0.48284164E+02</pdfrwt>
<totfact> 0.20737028E+05</totfact>
</mgrwt>
</event>
<event>
 4    1  0.2126213E+000  0.2148517E+02  0.7546771E-02  0.1717311E+00
         -2   -1    0    0    0  501 -0.00000000000E+00  0.00000000000E+00  0.37819719839E+02  0.37819719839E+02  0.00000000000E+00 0.  1.
          2   -1    0    0  501    0  0.00000000000E+00 -0.00000000000E+00 -0.30513999894E+01  0.30513999894E+01  0.00000000000E+00 0. -1.
        -11    1    1    2    0    0 -0.16951948885E+01 -0.10606418487E+02  0.17731264241E+02  0.20730835256E+02  0.00000000000E+00 0.  1.
         11    1    1    2    0    0  0.16951948885E+01  0.10606418487E+02  0.17037055609E+02  0.20140284573E+02  0.00000000000E+00 0. -1.
<mgrwt>
<rscale>  0 0.21485166E+02</rscale>
<asrwt>0</asrwt>
<pdfrwt beam="2">  1        2 0.46944618E-03 0.21485166E+02</pdfrwt>
<pdfrwt beam="1">  1       -2 0.58184181E-02 0.21485166E+02</pdfrwt>
<totfact> 0.30037228E+06</totfact>
</mgrwt>
</event>
<event>
 4    1  0.2126213E+000  0.4925290E+02  0.7546771E-02  0.1449413E+00
         -2   -1    0    0    0  501 -0.00000000000E+00  0.00000000000E+00  0.99007626953E+01  0.99007626953E+01  0.00000000000E+00 0. -1.
          2   -1    0    0  501    0  0.00000000000E+00 -0.00000000000E+00 -0.61254067830E+02  0.61254067830E+02  0.00000000000E+00 0.  1.
        -11    1    1    2    0    0  0.66896265313E+01  0.22865673895E+02 -0.16669445007E+02  0.29076804203E+02  0.00000000000E+00 0.  1.
         11    1    1    2    0    0 -0.66896265313E+01 -0.22865673895E+02 -0.34683860127E+02  0.42078026322E+02  0.00000000000E+00 0. -1.
<mgrwt>
<rscale>  0 0.49252898E+02</rscale>
<asrwt>0</asrwt>
<pdfrwt beam="2">  1        2 0.94237025E-02 0.49252898E+02</pdfrwt>
<pdfrwt beam="1">  1       -2 0.15231943E-02 0.49252898E+02</pdfrwt>
<totfact> 0.55504161E+05</totfact>
</mgrwt>
</event>
<event>
 4    1  0.2126213E+000  0.2275112E+02  0.7546771E-02  0.1695576E+00
          2   -1    0    0  501    0  0.00000000000E+00  0.00000000000E+00  0.19862463624E+02  0.19862463624E+02  0.00000000000E+00 0. -1.
         -2   -1    0    0    0  501 -0.00000000000E+00 -0.00000000000E+00 -0.65149710041E+01  0.65149710041E+01  0.00000000000E+00 0.  1.
        -13    1    1    2    0    0 -0.89543488203E+01 -0.44750545905E+01  0.40907749830E+00  0.10018673604E+02  0.00000000000E+00 0. -1.
         13    1    1    2    0    0  0.89543488203E+01  0.44750545905E+01  0.12938415122E+02  0.16358761024E+02  0.00000000000E+00 0.  1.
<mgrwt>
<rscale>  0 0.22751121E+02</rscale>
<asrwt>0</asrwt>
<pdfrwt beam="1">  1        2 0.30557636E-02 0.22751121E+02</pdfrwt>
<pdfrwt beam="2">  1       -2 0.10023032E-02 0.22751121E+02</pdfrwt>
<totfact> 0.31031763E+06</totfact>
</mgrwt>
</event>
<event>
 4    1  0.2126213E+000  0.4074753E+02  0.7546771E-02  0.1502781E+00
         -2   -1    0    0    0  501 -0.00000000000E+00  0.00000000000E+00  0.21798250267E+02  0.21798250267E+02  0.00000000000E+00 0.  1.
          2   -1    0    0  501    0  0.00000000000E+00 -0.00000000000E+00 -0.19042363500E+02  0.19042363500E+02  0.00000000000E+00 0. -1.
        -11    1    1    2    0    0 -0.14046028669E+02 -0.12118038143E+02 -0.70646267146E+01  0.19850610077E+02  0.00000000000E+00 0.  1.
         11    1    1    2    0    0  0.14046028669E+02  0.12118038143E+02  0.98205134815E+01  0.20990003689E+02  0.00000000000E+00 0. -1.
<mgrwt>
<rscale>  0 0.40747525E+02</rscale>
<asrwt>0</asrwt>
<pdfrwt beam="2">  1        2 0.29295944E-02 0.40747525E+02</pdfrwt>
<pdfrwt beam="1">  1       -2 0.33535770E-02 0.40747525E+02</pdfrwt>
<totfact> 0.74697901E+05</totfact>
</mgrwt>
</event>
<event>
 4    1  0.2126213E+000  0.2068834E+02  0.7546771E-02  0.1731976E+00
         -2   -1    0    0    0  501 -0.00000000000E+00  0.00000000000E+00  0.16571507521E+02  0.16571507521E+02  0.00000000000E+00 0.  1.
          2   -1    0    0  501    0  0.00000000000E+00 -0.00000000000E+00 -0.64569775063E+01  0.64569775063E+01  0.00000000000E+00 0. -1.
        -13    1    1    2    0    0 -0.92981774236E+01  0.45312889522E+01  0.51849986478E+01  0.11570345455E+02  0.00000000000E+00 0. -1.
         13    1    1    2    0    0  0.92981774236E+01 -0.45312889522E+01  0.49295313673E+01  0.11458139573E+02  0.00000000000E+00 0.  1.
<mgrwt>
<rscale>  0 0.20688340E+02</rscale>
<asrwt>0</asrwt>
<pdfrwt beam="2">  1        2 0.99338116E-03 0.20688340E+02</pdfrwt>
<pdfrwt beam="1">  1       -2 0.25494627E-02 0.20688340E+02</pdfrwt>
<totfact> 0.35313449E+06</totfact>
</mgrwt>
</event>
<event>
 4    1  0.2126213E+000  0.5513518E+02  0.7546771E-02  0.1419461E+00
          2   -1    0    0  501    0  0.00000000000E+00  0.00000000000E+00  0.11660315802E+03  0.11660315802E+03  0.00000000000E+00 0.  1.
         -2   -1    0    0    0  501 -0.00000000000E+00 -0.00000000000E+00 -0.65175936184E+01  0.65175936184E+01  0.00000000000E+00 0. -1.
        -11    1    1    2    0    0  0.20402372939E+02 -0.12322944601E+02  0.85973851124E+02  0.89216673678E+02  0.00000000000E+00 0.  1.
         11    1    1    2    0    0 -0.20402372939E+02  0.12322944601E+02  0.24111713281E+02  0.33904077963E+02  0.00000000000E+00 0. -1.
<mgrwt>
<rscale>  0 0.55135179E+02</rscale>
<asrwt>0</asrwt>
<pdfrwt beam="1">  1        2 0.17938946E-01 0.55135179E+02</pdfrwt>
<pdfrwt beam="2">  1       -2 0.10027068E-02 0.55135179E+02</pdfrwt>
<totfact> 0.48667148E+05</totfact>
</mgrwt>
</event>
<event>
 4    1  0.2126213E+000  0.2171380E+02  0.7546771E-02  0.1713249E+00
         -2   -1    0    0    0  501 -0.00000000000E+00  0.00000000000E+00  0.25865839793E+01  0.25865839793E+01  0.00000000000E+00 0. -1.
          2   -1    0    0  501    0  0.00000000000E+00 -0.00000000000E+00 -0.45570640064E+02  0.45570640064E+02  0.00000000000E+00 0.  1.
        -13    1    1    2    0    0 -0.10434700925E+02  0.26682599006E+01 -0.24524597591E+02  0.26785415459E+02  0.00000000000E+00 0.  1.
         13    1    1    2    0    0  0.10434700925E+02 -0.26682599006E+01 -0.18459458494E+02  0.21371808585E+02  0.00000000000E+00 0. -1.
<mgrwt>
<rscale>  0 0.21713801E+02</rscale>
<asrwt>0</asrwt>
<pdfrwt beam="2">  1        2 0.70108669E-02 0.21713801E+02</pdfrwt>
<pdfrwt beam="1">  1       -2 0.39793605E-03 0.21713801E+02</pdfrwt>
<totfact> 0.37990014E+06</totfact>
</mgrwt>
</event>
<event>
 4    1  0.2126213E+000  0.1033357E+03  0.7546771E-02  0.1273434E+00
          1   -1    0    0  501    0  0.00000000000E+00  0.00000000000E+00  0.22829074268E+02  0.22829074268E+02  0.00000000000E+00 0. -1.
         -1   -1    0    0    0  501 -0.00000000000E+00 -0.00000000000E+00 -0.11693717879E+03  0.11693717879E+03  0.00000000000E+00 0.  1.
        -11    1    1    2    0    0  0.26330929500E+02  0.18293446897E+02 -0.10185467262E+03  0.10678175117E+03  0.00000000000E+00 0.  1.
         11    1    1    2    0    0 -0.26330929500E+02 -0.18293446897E+02  0.77465680985E+01  0.32984501891E+02  0.00000000000E+00 0. -1.
<mgrwt>
<rscale>  0 0.10333572E+03</rscale>
<asrwt>0</asrwt>
<pdfrwt beam="1">  1        1 0.35121652E-02 0.10333572E+03</pdfrwt>
<pdfrwt beam="2">  1       -1 0.17990335E-01 0.10333572E+03</pdfrwt>
<totfact> 0.57076290E+04</totfact>
</mgrwt>
</event>
<event>
 4    1  0.2126213E+000  0.3219470E+02  0.7546771E-02  0.1575024E+00
         -1   -1    0    0    0  501 -0.00000000000E+00  0.00000000000E+00  0.35976973193E+01  0.35976973193E+01  0.00000000000E+00 0.  1.
          1   -1    0    0  501    0  0.00000000000E+00 -0.00000000000E+00 -0.72025129277E+02  0.72025129277E+02  0.00000000000E+00 0. -1.
        -11    1    1    2    0    0 -0.14914314663E+02 -0.47882942285E+01 -0.42926940680E+02  0.45695588185E+02  0.00000000000E+00 0. -1.
         11    1    1    2    0    0  0.14914314663E+02  0.47882942285E+01 -0.25500491278E+02  0.29927238411E+02  0.00000000000E+00 0.  1.
<mgrwt>
<rscale>  0 0.32194696E+02</rscale>
<asrwt>0</asrwt>
<pdfrwt beam="2">  1        1 0.11080789E-01 0.32194696E+02</pdfrwt>
<pdfrwt beam="1">  1       -1 0.55349188E-03 0.32194696E+02</pdfrwt>
<totfact> 0.14336992E+06</totfact>
</mgrwt>
</event>
<event>
 4    1  0.2126213E+000  0.2715070E+02  0.7546771E-02  0.1631903E+00
          4   -1    0    0  501    0  0.00000000000E+00  0.00000000000E+00  0.71155191140E+01  0.71155191140E+01  0.00000000000E+00 0.  1.
         -4   -1    0    0    0  501 -0.00000000000E+00 -0.00000000000E+00 -0.25899749896E+02  0.25899749896E+02  0.00000000000E+00 0. -1.
        -11    1    1    2    0    0 -0.21578152161E+01 -0.12666449182E+02 -0.40645529638E+01  0.13476486641E+02  0.00000000000E+00 0.  1.
         11    1    1    2    0    0  0.21578152161E+01  0.12666449182E+02 -0.14719677818E+02  0.19538782369E+02  0.00000000000E+00 0. -1.
<mgrwt>
<rscale>  0 0.27150703E+02</rscale>
<asrwt>0</asrwt>
<pdfrwt beam="1">  1        4 0.10946953E-02 0.27150703E+02</pdfrwt>
<pdfrwt beam="2">  1       -4 0.39845769E-02 0.27150703E+02</pdfrwt>
<totfact> 0.64270220E+05</totfact>
</mgrwt>
</event>
<event>
 4    1  0.2126213E+000  0.2073757E+02  0.7546771E-02  0.1731046E+00
         -1   -1    0    0    0  501 -0.00000000000E+00  0.00000000000E+00  0.90756196064E+02  0.90756196064E+02  0.00000000000E+00 0.  1.
          1   -1    0    0  501    0  0.00000000000E+00 -0.00000000000E+00 -0.11846207310E+01  0.11846207310E+01  0.00000000000E+00 0. -1.
        -11    1    1    2    0    0  0.68463718887E+00 -0.10281255285E+02  0.39656021807E+02  0.40972832509E+02  0.00000000000E+00 0. -1.
         11    1    1    2    0    0 -0.68463718887E+00  0.10281255285E+02  0.49915553527E+02  0.50967984286E+02  0.00000000000E+00 0.  1.
<mgrwt>
<rscale>  0 0.20737567E+02</rscale>
<asrwt>0</asrwt>
<pdfrwt beam="2">  1        1 0.18224941E-03 0.20737567E+02</pdfrwt>
<pdfrwt beam="1">  1       -1 0.13962486E-01 0.20737567E+02</pdfrwt>
<totfact> 0.29896691E+06</totfact>
</mgrwt>
</event>
<event>
 4    1  0.2126213E+000  0.3894643E+02  0.7546771E-02  0.1516111E+00
         -4   -1    0    0    0  501 -0.00000000000E+00  0.00000000000E+00  0.40901053477E+02  0.40901053477E+02  0.00000000000E+00 0. -1.
          4   -1    0    0  501    0  0.00000000000E+00 -0.00000000000E+00 -0.92713043448E+01  0.92713043448E+01  0.00000000000E+00 0.  1.
        -11    1    1    2    0    0  0.16636700154E+02  0.91297853490E+01  0.10188738249E+02  0.21539339814E+02  0.00000000000E+00 0.  1.
         11    1    1    2    0    0 -0.16636700154E+02 -0.91297853490E+01  0.21441010884E+02  0.28633018008E+02  0.00000000000E+00 0. -1.
<mgrwt>
<rscale>  0 0.38946431E+02</rscale>
<asrwt>0</asrwt>
<pdfrwt beam="2">  1        4 0.14263545E-02 0.38946431E+02</pdfrwt>
<pdfrwt beam="1">  1       -4 0.62924696E-02 0.38946431E+02</pdfrwt>
<totfact> 0.26449784E+05</totfact>
</mgrwt>
</event>
<event>
 4    1  0.2126213E+000  0.3659576E+02  0.7546771E-02  0.1534870E+00
         -2   -1    0    0    0  501 -0.00000000000E+00  0.00000000000E+00  0.15537311077E+02  0.15537311077E+02  0.00000000000E+00 0. -1.
          2   -1    0    0  501    0  0.00000000000E+00 -0.00000000000E+00 -0.21548932297E+02  0.21548932297E+02  0.00000000000E+00 0.  1.
        -13    1    1    2    0    0  0.16183958770E+02  0.30067043627E+01  0.50920104559E+01  0.17230477738E+02  0.00000000000E+00 0. -1.
         13    1    1    2    0    0 -0.16183958770E+02 -0.30067043627E+01 -0.11103631675E+02  0.19855765636E+02  0.00000000000E+00 0.  1.
<mgrwt>
<rscale>  0 0.36595763E+02</rscale>
<asrwt>0</asrwt>
<pdfrwt beam="2">  1        2 0.33152203E-02 0.36595763E+02</pdfrwt>
<pdfrwt beam="1">  1       -2 0.23903556E-02 0.36595763E+02</pdfrwt>
<totfact> 0.99675705E+05</totfact>
</mgrwt>
</event>
<event>
 4    1  0.2126213E+000  0.2176020E+02  0.7546771E-02  0.1712433E+00
         -4   -1    0    0    0  501 -0.00000000000E+00  0.00000000000E+00  0.22909961264E+01  0.22909961264E+01  0.00000000000E+00 0. -1.
          4   -1    0    0  501    0  0.00000000000E+00 -0.00000000000E+00 -0.51670352027E+02  0.51670352027E+02  0.00000000000E+00 0.  1.
        -11    1    1    2    0    0 -0.60979922950E+01  0.85675004109E+01 -0.31610550383E+02  0.33313878021E+02  0.00000000000E+00 0.  1.
         11    1    1    2    0    0  0.60979922950E+01 -0.85675004109E+01 -0.17768805517E+02  0.20647470132E+02  0.00000000000E+00 0. -1.
<mgrwt>
<rscale>  0 0.21760200E+02</rscale>
<asrwt>0</asrwt>
<pdfrwt beam="2">  1        4 0.79492852E-02 0.21760200E+02</pdfrwt>
<pdfrwt beam="1">  1       -4 0.35246093E-03 0.21760200E+02</pdfrwt>
<totfact> 0.95558487E+05</totfact>
</mgrwt>
</event>
<event>
 4    1  0.2126213E+000  0.3077039E+02  0.7546771E-02  0.1589726E+00
          2   -1    0    0  501    0  0.00000000000E+00  0.00000000000E+00  0.24396381723E+02  0.24396381723E+02  0.00000000000E+00 0. -1.
         -2   -1    0    0    0  501 -0.00000000000E+00 -0.00000000000E+00 -0.97024340228E+01  0.97024340228E+01  0.00000000000E+00 0.  1.
        -11    1    1    2    0    0 -0.58550798893E+01 -0.99867168080E+01  0.18576610113E+02  0.21888511060E+02  0.00000000000E+00 0. -1.
         11    1    1    2    0    0  0.58550798893E+01  0.99867168080E+01 -0.38826624130E+01  0.12210304686E+02  0.00000000000E+00 0.  1.
<mgrwt>
<rscale>  0 0.30770394E+02</rscale>
<asrwt>0</asrwt>
<pdfrwt beam="1">  1        2 0.37532895E-02 0.30770394E+02</pdfrwt>
<pdfrwt beam="2">  1       -2 0.14926822E-02 0.30770394E+02</pdfrwt>
<totfact> 0.15510556E+06</totfact>
</mgrwt>
</event>
<event>
 4    1  0.2126213E+000  0.6457117E+02  0.7546771E-02  0.1379592E+00
         -2   -1    0    0    0  501 -0.00000000000E+00  0.00000000000E+00  0.32909102934E+02  0.32909102934E+02  0.00000000000E+00 0. -1.
          2   -1    0    0  501    0  0.00000000000E+00 -0.00000000000E+00 -0.31673880180E+02  0.31673880180E+02  0.00000000000E+00 0.  1.
        -13    1    1    2    0    0  0.84562779543E+01 -0.20684325883E+02 -0.22689205638E+02  0.31845722265E+02  0.00000000000E+00 0.  1.
         13    1    1    2    0    0 -0.84562779543E+01  0.20684325883E+02  0.23924428392E+02  0.32737260850E+02  0.00000000000E+00 0. -1.
<mgrwt>
<rscale>  0 0.64571170E+02</rscale>
<asrwt>0</asrwt>
<pdfrwt beam="2">  1        2 0.48729046E-02 0.64571170E+02</pdfrwt>
<pdfrwt beam="1">  1       -2 0.50629389E-02 0.64571170E+02</pdfrwt>
<totfact> 0.23905462E+05</totfact>
</mgrwt>
</event>
<event>
 4    1  0.2126213E+000  0.2155373E+02  0.7546771E-02  0.1716086E+00
         -2   -1    0    0    0  501 -0.00000000000E+00  0.00000000000E+00  0.50601913135E+01  0.50601913135E+01  0.00000000000E+00 0. -1.
          2   -1    0    0  501    0  0.00000000000E+00 -0.00000000000E+00 -0.22951861850E+02  0.22951861850E+02  0.00000000000E+00 0.  1.
        -13    1    1    2    0    0 -0.10100645202E+02 -0.37154505738E+01 -0.82184957210E+01  0.13541465149E+02  0.00000000000E+00 0. -1.
         13    1    1    2    0    0  0.10100645202E+02  0.37154505738E+01 -0.96731748150E+01  0.14470588014E+02  0.00000000000E+00 0.  1.
<mgrwt>
<rscale>  0 0.21553729E+02</rscale>
<asrwt>0</asrwt>
<pdfrwt beam="2">  1        2 0.35310556E-02 0.21553729E+02</pdfrwt>
<pdfrwt beam="1">  1       -2 0.77849098E-03 0.21553729E+02</pdfrwt>
<totfact> 0.35619046E+06</totfact>
</mgrwt>
</event>
<event>
 4    1  0.2126213E+000  0.2201370E+02  0.7546771E-02  0.1708015E+00
          4   -1    0    0  501    0  0.00000000000E+00  0.00000000000E+00  0.91991648175E+01  0.91991648175E+01  0.00000000000E+00 0. -1.
         -4   -1    0    0    0  501 -0.00000000000E+00 -0.00000000000E+00 -0.13169755682E+02  0.13169755682E+02  0.00000000000E+00 0.  1.
        -11    1    1    2    0    0 -0.84812533217E+01  0.63743852356E+01 -0.49628189821E+01  0.11712984986E+02  0.00000000000E+00 0.  1.
         11    1    1    2    0    0  0.84812533217E+01 -0.63743852356E+01  0.99222811705E+00  0.10655935514E+02  0.00000000000E+00 0. -1.
<mgrwt>
<rscale>  0 0.22013701E+02</rscale>
<asrwt>0</asrwt>
<pdfrwt beam="1">  1        4 0.14152561E-02 0.22013701E+02</pdfrwt>
<pdfrwt beam="2">  1       -4 0.20261163E-02 0.22013701E+02</pdfrwt>
<totfact> 0.10551402E+06</totfact>
</mgrwt>
</event>
<event>
 4    1  0.2126213E+000  0.2805306E+02  0.7546771E-02  0.1620663E+00
         -3   -1    0    0    0  501 -0.00000000000E+00  0.00000000000E+00  0.80497604047E+01  0.80497604047E+01  0.00000000000E+00 0.  1.
          3   -1    0    0  501    0  0.00000000000E+00 -0.00000000000E+00 -0.24440922137E+02  0.24440922137E+02  0.00000000000E+00 0. -1.
        -11    1    1    2    0    0  0.11184553255E+01 -0.11977822111E+02 -0.16549343262E+02  0.20459714740E+02  0.00000000000E+00 0. -1.
         11    1    1    2    0    0 -0.11184553255E+01  0.11977822111E+02  0.15818152983E+00  0.12030967801E+02  0.00000000000E+00 0.  1.
<mgrwt>
<rscale>  0 0.28053062E+02</rscale>
<asrwt>0</asrwt>
<pdfrwt beam="2">  1        3 0.37601419E-02 0.28053062E+02</pdfrwt>
<pdfrwt beam="1">  1       -3 0.12384247E-02 0.28053062E+02</pdfrwt>
<totfact> 0.80483841E+05</totfact>
</mgrwt>
</event>
<event>
 4    1  0.2126213E+000  0.2342353E+02  0.7546771E-02  0.1684735E+00
          4   -1    0    0  501    0  0.00000000000E+00  0.00000000000E+00  0.13664914847E+02  0.13664914847E+02  0.00000000000E+00 0. -1.
         -4   -1    0    0    0  501 -0.00000000000E+00 -0.00000000000E+00 -0.10037779721E+02  0.10037779721E+02  0.00000000000E+00 0.  1.
        -11    1    1    2    0    0 -0.56788109711E+01  0.92399320045E+01  0.62866774988E+01  0.12535850648E+02  0.00000000000E+00 0. -1.
         11    1    1    2    0    0  0.56788109711E+01 -0.92399320045E+01 -0.26595423729E+01  0.11166843920E+02  0.00000000000E+00 0.  1.
<mgrwt>
<rscale>  0 0.23423527E+02</rscale>
<asrwt>0</asrwt>
<pdfrwt beam="1">  1        4 0.21022946E-02 0.23423527E+02</pdfrwt>
<pdfrwt beam="2">  1       -4 0.15442738E-02 0.23423527E+02</pdfrwt>
<totfact> 0.91988029E+05</totfact>
</mgrwt>
</event>
<event>
 4    1  0.2126213E+000  0.2785417E+02  0.7546771E-02  0.1623096E+00
          2   -1    0    0  501    0  0.00000000000E+00  0.00000000000E+00  0.65695766673E+02  0.65695766673E+02  0.00000000000E+00 0.  1.
         -2   -1    0    0    0  501 -0.00000000000E+00 -0.00000000000E+00 -0.29524535085E+01  0.29524535085E+01  0.00000000000E+00 0. -1.
        -11    1    1    2    0    0  0.66015397316E+01 -0.10214788281E+02  0.48094635881E+02  0.49608630569E+02  0.00000000000E+00 0.  1.
         11    1    1    2    0    0 -0.66015397316E+01  0.10214788281E+02  0.14648677284E+02  0.19039589613E+02  0.00000000000E+00 0. -1.
<mgrwt>
<rscale>  0 0.27854170E+02</rscale>
<asrwt>0</asrwt>
<pdfrwt beam="1">  1        2 0.10107040E-01 0.27854170E+02</pdfrwt>
<pdfrwt beam="2">  1       -2 0.45422367E-03 0.27854170E+02</pdfrwt>
<totfact> 0.22736558E+06</totfact>
</mgrwt>
</event>
<event>
 4    1  0.2126213E+000  0.2129301E+02  0.7546771E-02  0.1720774E+00
         -2   -1    0    0    0  501 -0.00000000000E+00  0.00000000000E+00  0.18901150168E+01  0.18901150168E+01  0.00000000000E+00 0.  1.
          2   -1    0    0  501    0  0.00000000000E+00 -0.00000000000E+00 -0.59968884789E+02  0.59968884789E+02  0.00000000000E+00 0. -1.
        -11    1    1    2    0    0  0.96274577616E+01  0.36562788701E+01 -0.36884192953E+02  0.38294908382E+02  0.00000000000E+00 0. -1.
         11    1    1    2    0    0 -0.96274577616E+01 -0.36562788701E+01 -0.21194576819E+02  0.23564091424E+02  0.00000000000E+00 0.  1.
<mgrwt>
<rscale>  0 0.21293012E+02</rscale>
<asrwt>0</asrwt>
<pdfrwt beam="2">  1        2 0.92259822E-02 0.21293012E+02</pdfrwt>
<pdfrwt beam="1">  1       -2 0.29078693E-03 0.21293012E+02</pdfrwt>
<totfact> 0.41459969E+06</totfact>
</mgrwt>
</event>
<event>
 4    1  0.2126213E+000  0.2893970E+02  0.7546771E-02  0.1610113E+00
         -2   -1    0    0    0  501 -0.00000000000E+00  0.00000000000E+00  0.69885559153E+02  0.69885559153E+02  0.00000000000E+00 0. -1.
          2   -1    0    0  501    0  0.00000000000E+00 -0.00000000000E+00 -0.29959914386E+01  0.29959914386E+01  0.00000000000E+00 0.  1.
        -11    1    1    2    0    0  0.11652074555E+02 -0.80751878179E+01  0.40742494509E+02  0.43138502044E+02  0.00000000000E+00 0.  1.
         11    1    1    2    0    0 -0.11652074555E+02  0.80751878179E+01  0.26147073206E+02  0.29743048548E+02  0.00000000000E+00 0. -1.
<mgrwt>
<rscale>  0 0.28939698E+02</rscale>
<asrwt>0</asrwt>
<pdfrwt beam="2">  1        2 0.46092181E-03 0.28939698E+02</pdfrwt>
<pdfrwt beam="1">  1       -2 0.10751623E-01 0.28939698E+02</pdfrwt>
<totfact> 0.13989170E+06</totfact>
</mgrwt>
</event>
<event>
 4    1  0.2126213E+000  0.2598022E+02  0.7546771E-02  0.1647309E+00
          2   -1    0    0  501    0  0.00000000000E+00  0.00000000000E+00  0.12086872971E+03  0.12086872971E+03  0.00000000000E+00 0.  1.
         -2   -1    0    0    0  501 -0.00000000000E+00 -0.00000000000E+00 -0.13960847762E+01  0.13960847762E+01  0.00000000000E+00 0. -1.
        -11    1    1    2    0    0  0.12909747522E+02  0.13109979995E+00  0.66497730765E+02  0.67739404818E+02  0.00000000000E+00 0.  1.
         11    1    1    2    0    0 -0.12909747522E+02 -0.13109979995E+00  0.52974914165E+02  0.54525409664E+02  0.00000000000E+00 0. -1.
<mgrwt>
<rscale>  0 0.25980223E+02</rscale>
<asrwt>0</asrwt>
<pdfrwt beam="1">  1        2 0.18595181E-01 0.25980223E+02</pdfrwt>
<pdfrwt beam="2">  1       -2 0.21478237E-03 0.25980223E+02</pdfrwt>
<totfact> 0.30627417E+06</totfact>
</mgrwt>
</event>
<event>
 4    1  0.2126213E+000  0.8066655E+02  0.7546771E-02  0.1327170E+00
          2   -1    0    0  501    0  0.00000000000E+00  0.00000000000E+00  0.24502028924E+03  0.24502028924E+03  0.00000000000E+00 0.  1.
         -2   -1    0    0    0  501 -0.00000000000E+00 -0.00000000000E+00 -0.66393398799E+01  0.66393398799E+01  0.00000000000E+00 0. -1.
        -11    1    1    2    0    0 -0.46994229577E+01  0.39320779321E+02  0.14306518437E+03  0.14844478853E+03  0.00000000000E+00 0.  1.
         11    1    1    2    0    0  0.46994229577E+01 -0.39320779321E+02  0.95315764989E+02  0.10321484059E+03  0.00000000000E+00 0. -1.
<mgrwt>
<rscale>  0 0.80666548E+02</rscale>
<asrwt>0</asrwt>
<pdfrwt beam="1">  1        2 0.37695422E-01 0.80666548E+02</pdfrwt>
<pdfrwt beam="2">  1       -2 0.10214371E-02 0.80666548E+02</pdfrwt>
<totfact> 0.23076930E+05</totfact>
</mgrwt>
</event>
<event>
 4    1  0.2126213E+000  0.2613714E+02  0.7546771E-02  0.1645186E+00
          2   -1    0    0  501    0  0.00000000000E+00  0.00000000000E+00  0.79718567884E+01  0.79718567884E+01  0.00000000000E+00 0.  1.
         -2   -1    0    0    0  501 -0.00000000000E+00 -0.00000000000E+00 -0.21423799258E+02  0.21423799258E+02  0.00000000000E+00 0. -1.
        -13    1    1    2    0    0 -0.68632877842E+01  0.11052021190E+02 -0.53323020658E+01  0.14060061768E+02  0.00000000000E+00 0. -1.
         13    1    1    2    0    0  0.68632877842E+01 -0.11052021190E+02 -0.81196404040E+01  0.15335594279E+02  0.00000000000E+00 0.  1.
<mgrwt>
<rscale>  0 0.26137135E+02</rscale>
<asrwt>0</asrwt>
<pdfrwt beam="1">  1        2 0.12264395E-02 0.26137135E+02</pdfrwt>
<pdfrwt beam="2">  1       -2 0.32959691E-02 0.26137135E+02</pdfrwt>
<totfact> 0.20597949E+06</totfact>
</mgrwt>
</event>
<event>
 4    1  0.2126213E+000  0.2073763E+02  0.7546771E-02  0.1731045E+00
          2   -1    0    0  501    0  0.00000000000E+00  0.00000000000E+00  0.18728355171E+01  0.18728355171E+01  0.00000000000E+00 0. -1.
         -2   -1    0    0    0  501 -0.00000000000E+00 -0.00000000000E+00 -0.57406171645E+02  0.57406171645E+02  0.00000000000E+00 0.  1.
        -13    1    1    2    0    0  0.10074817895E+02  0.16504007306E+01 -0.22584503404E+02  0.24784785095E+02  0.00000000000E+00 0. -1.
         13    1    1    2    0    0 -0.10074817895E+02 -0.16504007306E+01 -0.32948832724E+02  0.34494222067E+02  0.00000000000E+00 0.  1.
<mgrwt>
<rscale>  0 0.20737629E+02</rscale>
<asrwt>0</asrwt>
<pdfrwt beam="1">  1        2 0.28812857E-03 0.20737629E+02</pdfrwt>
<pdfrwt beam="2">  1       -2 0.88317180E-02 0.20737629E+02</pdfrwt>
<totfact> 0.30662618E+06</totfact>
</mgrwt>
</event>
<event>
 4    1  0.2126213E+000  0.2900751E+02  0.7546771E-02  0.1609326E+00
          2   -1    0    0  501    0  0.00000000000E+00  0.00000000000E+00  0.33055606477E+02  0.33055606477E+02  0.00000000000E+00 0.  1.
         -2   -1    0    0    0  501 -0.00000000000E+00 -0.00000000000E+00 -0.63637874527E+01  0.63637874527E+01  0.00000000000E+00 0. -1.
        -11    1    1    2    0    0  0.10748287307E+02  0.72751154231E+01  0.22142957810E+02  0.25666389793E+02  0.00000000000E+00 0.  1.
         11    1    1    2    0    0 -0.10748287307E+02 -0.72751154231E+01  0.45488612150E+01  0.13753004137E+02  0.00000000000E+00 0. -1.
<mgrwt>
<rscale>  0 0.29007506E+02</rscale>
<asrwt>0</asrwt>
<pdfrwt beam="1">  1        2 0.50854778E-02 0.29007506E+02</pdfrwt>
<pdfrwt beam="2">  1       -2 0.97904424E-03 0.29007506E+02</pdfrwt>
<totfact> 0.18550167E+06</totfact>
</mgrwt>
</event>
<event>
 4    1  0.2126213E+000  0.2688390E+02  0.7546771E-02  0.1635330E+00
         -2   -1    0    0    0  501 -0.00000000000E+00  0.00000000000E+00  0.37820178170E+01  0.37820178170E+01  0.00000000000E+00 0.  1.
          2   -1    0    0  501    0  0.00000000000E+00 -0.00000000000E+00 -0.47775046962E+02  0.47775046962E+02  0.00000000000E+00 0. -1.
        -13    1    1    2    0    0  0.10619326453E+02 -0.63693777733E+01 -0.11967672853E+02  0.17221041230E+02  0.00000000000E+00 0.  1.
         13    1    1    2    0    0 -0.10619326453E+02  0.63693777733E+01 -0.32025356292E+02  0.34336023549E+02  0.00000000000E+00 0. -1.
<mgrwt>
<rscale>  0 0.26883904E+02</rscale>
<asrwt>0</asrwt>
<pdfrwt beam="2">  1        2 0.73500076E-02 0.26883904E+02</pdfrwt>
<pdfrwt beam="1">  1       -2 0.58184887E-03 0.26883904E+02</pdfrwt>
<totfact> 0.23389915E+06</totfact>
</mgrwt>
</event>
<event>
 4    1  0.2126213E+000  0.3163339E+02  0.7546771E-02  0.1580705E+00
         -1   -1    0    0    0  501 -0.00000000000E+00  0.00000000000E+00  0.10448796074E+02  0.10448796074E+02  0.00000000000E+00 0. -1.
          1   -1    0    0  501    0  0.00000000000E+00 -0.00000000000E+00 -0.23942268200E+02  0.23942268200E+02  0.00000000000E+00 0.  1.
        -11    1    1    2    0    0  0.13082453690E+02  0.88858935780E+01 -0.64845062889E+01  0.17092645233E+02  0.00000000000E+00 0. -1.
         11    1    1    2    0    0 -0.13082453690E+02 -0.88858935780E+01 -0.70089658363E+01  0.17298419041E+02  0.00000000000E+00 0.  1.
<mgrwt>
<rscale>  0 0.31633392E+02</rscale>
<asrwt>0</asrwt>
<pdfrwt beam="2">  1        1 0.36834258E-02 0.31633392E+02</pdfrwt>
<pdfrwt beam="1">  1       -1 0.16075071E-02 0.31633392E+02</pdfrwt>
<totfact> 0.13750154E+06</totfact>
</mgrwt>
</event>
<event>
 4    1  0.2126213E+000  0.2720451E+02  0.7546771E-02  0.1631218E+00
         -2   -1    0    0    0  501 -0.00000000000E+00  0.00000000000E+00  0.52510676373E+01  0.52510676373E+01  0.00000000000E+00 0.  1.
          2   -1    0    0  501    0  0.00000000000E+00 -0.00000000000E+00 -0.35234983429E+02  0.35234983429E+02  0.00000000000E+00 0. -1.
        -11    1    1    2    0    0  0.12745964734E+02 -0.42092485948E+01 -0.18267338234E+02  0.22668767873E+02  0.00000000000E+00 0. -1.
         11    1    1    2    0    0 -0.12745964734E+02  0.42092485948E+01 -0.11716577558E+02  0.17817283193E+02  0.00000000000E+00 0.  1.
<mgrwt>
<rscale>  0 0.27204506E+02</rscale>
<asrwt>0</asrwt>
<pdfrwt beam="2">  1        2 0.54207666E-02 0.27204506E+02</pdfrwt>
<pdfrwt beam="1">  1       -2 0.80785657E-03 0.27204506E+02</pdfrwt>
<totfact> 0.21778829E+06</totfact>
</mgrwt>
</event>
<event>
 4    1  0.2126213E+000  0.2303948E+02  0.7546771E-02  0.1690871E+00
         -2   -1    0    0    0  501 -0.00000000000E+00  0.00000000000E+00  0.17671361399E+01  0.17671361399E+01  0.00000000000E+00 0.  1.
          2   -1    0    0  501    0  0.00000000000E+00 -0.00000000000E+00 -0.75095766791E+02  0.75095766791E+02  0.00000000000E+00 0. -1.
        -11    1    1    2    0    0  0.11171617336E+02  0.13995843868E+00 -0.27299434917E+02  0.29497182392E+02  0.00000000000E+00 0. -1.
         11    1    1    2    0    0 -0.11171617336E+02 -0.13995843868E+00 -0.46029195734E+02  0.47365720539E+02  0.00000000000E+00 0.  1.
<mgrwt>
<rscale>  0 0.23039483E+02</rscale>
<asrwt>0</asrwt>
<pdfrwt beam="2">  1        2 0.11553192E-01 0.23039483E+02</pdfrwt>
<pdfrwt beam="1">  1       -2 0.27186716E-03 0.23039483E+02</pdfrwt>
<totfact> 0.36164682E+06</totfact>
</mgrwt>
</event>
<event>
 4    1  0.2126213E+000  0.2791671E+02  0.7546771E-02  0.1622328E+00
         -2   -1    0    0    0  501 -0.00000000000E+00  0.00000000000E+00  0.29657700926E+01  0.29657700926E+01  0.00000000000E+00 0. -1.
          2   -1    0    0  501    0  0.00000000000E+00 -0.00000000000E+00 -0.65694805514E+02  0.65694805514E+02  0.00000000000E+00 0.  1.
        -13    1    1    2    0    0 -0.13620280354E+01 -0.11563128853E+02 -0.50300052615E+02  0.51629994793E+02  0.00000000000E+00 0.  1.
         13    1    1    2    0    0  0.13620280354E+01  0.11563128853E+02 -0.12428982806E+02  0.17030580814E+02  0.00000000000E+00 0. -1.
<mgrwt>
<rscale>  0 0.27916711E+02</rscale>
<asrwt>0</asrwt>
<pdfrwt beam="2">  1        2 0.10106892E-01 0.27916711E+02</pdfrwt>
<pdfrwt beam="1">  1       -2 0.45627238E-03 0.27916711E+02</pdfrwt>
<totfact> 0.22617187E+06</totfact>
</mgrwt>
</event>
<event>
 4    1  0.2126213E+000  0.2141682E+02  0.7546771E-02  0.1718537E+00
         -2   -1    0    0    0  501 -0.00000000000E+00  0.00000000000E+00  0.64990518217E+01  0.64990518217E+01  0.00000000000E+00 0. -1.
          2   -1    0    0  501    0  0.00000000000E+00 -0.00000000000E+00 -0.17644126880E+02  0.17644126880E+02  0.00000000000E+00 0.  1.
        -11    1    1    2    0    0 -0.37285451515E+01 -0.94767696354E+01 -0.93043732526E+01  0.13794294955E+02  0.00000000000E+00 0.  1.
         11    1    1    2    0    0  0.37285451515E+01  0.94767696354E+01 -0.18407018053E+01  0.10348883747E+02  0.00000000000E+00 0. -1.
<mgrwt>
<rscale>  0 0.21416825E+02</rscale>
<asrwt>0</asrwt>
<pdfrwt beam="2">  1        2 0.27144811E-02 0.21416825E+02</pdfrwt>
<pdfrwt beam="1">  1       -2 0.99985412E-03 0.21416825E+02</pdfrwt>
<totfact> 0.35282517E+06</totfact>
</mgrwt>
</event>
<event>
 4    1  0.2126213E+000  0.1171636E+03  0.7546771E-02  0.1247851E+00
          2   -1    0    0  501    0  0.00000000000E+00  0.00000000000E+00  0.10755427002E+03  0.10755427002E+03  0.00000000000E+00 0. -1.
         -2   -1    0    0    0  501 -0.00000000000E+00 -0.00000000000E+00 -0.31907888731E+02  0.31907888731E+02  0.00000000000E+00 0.  1.
        -11    1    1    2    0    0 -0.40391994810E+02 -0.42013312413E+02  0.30761273537E+02  0.65900588877E+02  0.00000000000E+00 0.  1.
         11    1    1    2    0    0  0.40391994810E+02  0.42013312413E+02  0.44885107756E+02  0.73561569878E+02  0.00000000000E+00 0. -1.
<mgrwt>
<rscale>  0 0.11716364E+03</rscale>
<asrwt>0</asrwt>
<pdfrwt beam="1">  1        2 0.16546811E-01 0.11716364E+03</pdfrwt>
<pdfrwt beam="2">  1       -2 0.49089060E-02 0.11716364E+03</pdfrwt>
<totfact> 0.62172267E+04</totfact>
</mgrwt>
</event>
<event>
 4    1  0.2126213E+000  0.2210560E+02  0.7546771E-02  0.1706432E+00
         -2   -1    0    0    0  501 -0.00000000000E+00  0.00000000000E+00  0.91561685720E+01  0.91561685720E+01  0.00000000000E+00 0. -1.
          2   -1    0    0  501    0  0.00000000000E+00 -0.00000000000E+00 -0.13342302847E+02  0.13342302847E+02  0.00000000000E+00 0.  1.
        -11    1    1    2    0    0  0.10455347224E+02  0.26928868164E+01 -0.45012230069E+01  0.11697304542E+02  0.00000000000E+00 0.  1.
         11    1    1    2    0    0 -0.10455347224E+02 -0.26928868164E+01  0.31508873221E+00  0.10801166877E+02  0.00000000000E+00 0. -1.
<mgrwt>
<rscale>  0 0.22105599E+02</rscale>
<asrwt>0</asrwt>
<pdfrwt beam="2">  1        2 0.20526620E-02 0.22105599E+02</pdfrwt>
<pdfrwt beam="1">  1       -2 0.14086413E-02 0.22105599E+02</pdfrwt>
<totfact> 0.32044777E+06</totfact>
</mgrwt>
</event>
<event>
 4    1  0.2126213E+000  0.3851678E+02  0.7546771E-02  0.1519419E+00
         -2   -1    0    0    0  501 -0.00000000000E+00  0.00000000000E+00  0.19422137737E+02  0.19422137737E+02  0.00000000000E+00 0. -1.
          2   -1    0    0  501    0  0.00000000000E+00 -0.00000000000E+00 -0.19096019980E+02  0.19096019980E+02  0.00000000000E+00 0.  1.
        -13    1    1    2    0    0 -0.10546099155E+02  0.62439763865E+01 -0.14692711106E+02  0.19133301026E+02  0.00000000000E+00 0.  1.
         13    1    1    2    0    0  0.10546099155E+02 -0.62439763865E+01  0.15018828863E+02  0.19384856691E+02  0.00000000000E+00 0. -1.
<mgrwt>
<rscale>  0 0.38516777E+02</rscale>
<asrwt>0</asrwt>
<pdfrwt beam="2">  1        2 0.29378492E-02 0.38516777E+02</pdfrwt>
<pdfrwt beam="1">  1       -2 0.29880212E-02 0.38516777E+02</pdfrwt>
<totfact> 0.86284041E+05</totfact>
</mgrwt>
</event>
<event>
 4    1  0.2126213E+000  0.2696400E+02  0.7546771E-02  0.1634296E+00
         -2   -1    0    0    0  501 -0.00000000000E+00  0.00000000000E+00  0.23267296607E+02  0.23267296607E+02  0.00000000000E+00 0.  1.
          2   -1    0    0  501    0  0.00000000000E+00 -0.00000000000E+00 -0.78120084910E+01  0.78120084910E+01  0.00000000000E+00 0. -1.
        -11    1    1    2    0    0  0.91600587899E+01  0.98844221236E+01  0.72726269542E+01  0.15313379136E+02  0.00000000000E+00 0. -1.
         11    1    1    2    0    0 -0.91600587899E+01 -0.98844221236E+01  0.81826611621E+01  0.15765925962E+02  0.00000000000E+00 0.  1.
<mgrwt>
<rscale>  0 0.26964000E+02</rscale>
<asrwt>0</asrwt>
<pdfrwt beam="2">  1        2 0.12018475E-02 0.26964000E+02</pdfrwt>
<pdfrwt beam="1">  1       -2 0.35795841E-02 0.26964000E+02</pdfrwt>
<totfact> 0.19049593E+06</totfact>
</mgrwt>
</event>
<event>
 4    1  0.2126213E+000  0.2218190E+02  0.7546771E-02  0.1705125E+00
          2   -1    0    0  501    0  0.00000000000E+00  0.00000000000E+00  0.25320336669E+01  0.25320336669E+01  0.00000000000E+00 0.  1.
         -2   -1    0    0    0  501 -0.00000000000E+00 -0.00000000000E+00 -0.48581157755E+02  0.48581157755E+02  0.00000000000E+00 0. -1.
        -13    1    1    2    0    0 -0.43062584796E+01  0.94993072287E+01 -0.14332700873E+02  0.17725885429E+02  0.00000000000E+00 0.  1.
         13    1    1    2    0    0  0.43062584796E+01 -0.94993072287E+01 -0.31716423214E+02  0.33387305992E+02  0.00000000000E+00 0. -1.
<mgrwt>
<rscale>  0 0.22181896E+02</rscale>
<asrwt>0</asrwt>
<pdfrwt beam="1">  1        2 0.38954361E-03 0.22181896E+02</pdfrwt>
<pdfrwt beam="2">  1       -2 0.74740249E-02 0.22181896E+02</pdfrwt>
<totfact> 0.27091947E+06</totfact>
</mgrwt>
</event>
<event>
 4    1  0.2126213E+000  0.2157164E+02  0.7546771E-02  0.1715767E+00
          3   -1    0    0  501    0  0.00000000000E+00  0.00000000000E+00  0.26977747885E+02  0.26977747885E+02  0.00000000000E+00 0. -1.
         -3   -1    0    0    0  501 -0.00000000000E+00 -0.00000000000E+00 -0.43122169051E+01  0.43122169051E+01  0.00000000000E+00 0.  1.
        -13    1    1    2    0    0  0.95430617847E+01 -0.49296748514E+01  0.99099464339E+01  0.14614334083E+02  0.00000000000E+00 0. -1.
         13    1    1    2    0    0 -0.95430617847E+01  0.49296748514E+01  0.12755584546E+02  0.16675630707E+02  0.00000000000E+00 0.  1.
<mgrwt>
<rscale>  0 0.21571639E+02</rscale>
<asrwt>0</asrwt>
<pdfrwt beam="1">  1        3 0.41504226E-02 0.21571639E+02</pdfrwt>
<pdfrwt beam="2">  1       -3 0.66341800E-03 0.21571639E+02</pdfrwt>
<totfact> 0.14584719E+06</totfact>
</mgrwt>
</event>
<event>
 4    1  0.2126213E+000  0.6722805E+02  0.7546771E-02  0.1369781E+00
         -2   -1    0    0    0  501 -0.00000000000E+00  0.00000000000E+00  0.38913474647E+02  0.38913474647E+02  0.00000000000E+00 0.  1.
          2   -1    0    0  501    0  0.00000000000E+00 -0.00000000000E+00 -0.29036286899E+02  0.29036286899E+02  0.00000000000E+00 0. -1.
        -11    1    1    2    0    0  0.11372863164E+02  0.10302508935E+02 -0.25289302894E+02  0.29580949068E+02  0.00000000000E+00 0. -1.
         11    1    1    2    0    0 -0.11372863164E+02 -0.10302508935E+02  0.35166490642E+02  0.38368812478E+02  0.00000000000E+00 0.  1.
<mgrwt>
<rscale>  0 0.67228054E+02</rscale>
<asrwt>0</asrwt>
<pdfrwt beam="2">  1        2 0.44671211E-02 0.67228054E+02</pdfrwt>
<pdfrwt beam="1">  1       -2 0.59866884E-02 0.67228054E+02</pdfrwt>
<totfact> 0.21026299E+05</totfact>
</mgrwt>
</event>
<event>
 4    1  0.2126213E+000  0.2826612E+02  0.7546771E-02  0.1618085E+00
         -1   -1    0    0    0  501 -0.00000000000E+00  0.00000000000E+00  0.35647699214E+02  0.35647699214E+02  0.00000000000E+00 0. -1.
          1   -1    0    0  501    0  0.00000000000E+00 -0.00000000000E+00 -0.56032631157E+01  0.56032631157E+01  0.00000000000E+00 0.  1.
        -13    1    1    2    0    0  0.64548877351E+01 -0.83205846494E+01  0.28778026420E+02  0.30644289993E+02  0.00000000000E+00 0.  1.
         13    1    1    2    0    0 -0.64548877351E+01  0.83205846494E+01  0.12664096786E+01  0.10606672336E+02  0.00000000000E+00 0. -1.
<mgrwt>
<rscale>  0 0.28266124E+02</rscale>
<asrwt>0</asrwt>
<pdfrwt beam="2">  1        1 0.86204050E-03 0.28266124E+02</pdfrwt>
<pdfrwt beam="1">  1       -1 0.54842613E-02 0.28266124E+02</pdfrwt>
<totfact> 0.16485408E+06</totfact>
</mgrwt>
</event>
<event>
 4    1  0.2126213E+000  0.2506967E+02  0.7546771E-02  0.1660003E+00
         -4   -1    0    0    0  501 -0.00000000000E+00  0.00000000000E+00  0.25911621780E+02  0.25911621780E+02  0.00000000000E+00 0. -1.
          4   -1    0    0  501    0  0.00000000000E+00 -0.00000000000E+00 -0.60637697416E+01  0.60637697416E+01  0.00000000000E+00 0.  1.
        -13    1    1    2    0    0  0.48083041750E+01  0.11539268589E+02  0.87496706131E+01  0.15258808750E+02  0.00000000000E+00 0.  1.
         13    1    1    2    0    0 -0.48083041750E+01 -0.11539268589E+02  0.11098181425E+02  0.16716582772E+02  0.00000000000E+00 0. -1.
<mgrwt>
<rscale>  0 0.25069672E+02</rscale>
<asrwt>0</asrwt>
<pdfrwt beam="2">  1        4 0.93288767E-03 0.25069672E+02</pdfrwt>
<pdfrwt beam="1">  1       -4 0.39864033E-02 0.25069672E+02</pdfrwt>
<totfact> 0.76837704E+05</totfact>
</mgrwt>
</event>
<event>
 4    1  0.2126213E+000  0.4987791E+02  0.7546771E-02  0.1446001E+00
         -2   -1    0    0    0  501 -0.00000000000E+00  0.00000000000E+00  0.12381638139E+02  0.12381638139E+02  0.00000000000E+00 0. -1.
          2   -1    0    0  501    0  0.00000000000E+00 -0.00000000000E+00 -0.50231760318E+02  0.50231760318E+02  0.00000000000E+00 0.  1.
        -11    1    1    2    0    0  0.24938806199E+02  0.72845981989E-01 -0.18982835616E+02  0.31341624227E+02  0.00000000000E+00 0. -1.
         11    1    1    2    0    0 -0.24938806199E+02 -0.72845981989E-01 -0.18867286563E+02  0.31271774229E+02  0.00000000000E+00 0.  1.
<mgrwt>
<rscale>  0 0.49877910E+02</rscale>
<asrwt>0</asrwt>
<pdfrwt beam="2">  1        2 0.77279632E-02 0.49877910E+02</pdfrwt>
<pdfrwt beam="1">  1       -2 0.19048674E-02 0.49877910E+02</pdfrwt>
<totfact> 0.51667807E+05</totfact>
</mgrwt>
</event>
<event>
 4    1  0.2126213E+000  0.2051418E+02  0.7546771E-02  0.1735292E+00
          2   -1    0    0  501    0  0.00000000000E+00  0.00000000000E+00  0.23441464429E+02  0.23441464429E+02  0.00000000000E+00 0.  1.
         -2   -1    0    0    0  501 -0.00000000000E+00 -0.00000000000E+00 -0.44881095713E+01  0.44881095713E+01  0.00000000000E+00 0. -1.
        -11    1    1    2    0    0  0.21012455505E+01 -0.98101510836E+01  0.65714112397E+01  0.11993237379E+02  0.00000000000E+00 0. -1.
         11    1    1    2    0    0 -0.21012455505E+01  0.98101510836E+01  0.12381943618E+02  0.15936336621E+02  0.00000000000E+00 0.  1.
<mgrwt>
<rscale>  0 0.20514177E+02</rscale>
<asrwt>0</asrwt>
<pdfrwt beam="1">  1        2 0.36063791E-02 0.20514177E+02</pdfrwt>
<pdfrwt beam="2">  1       -2 0.69047841E-03 0.20514177E+02</pdfrwt>
<totfact> 0.39936772E+06</totfact>
</mgrwt>
</event>
<event>
 4    1  0.2126213E+000  0.6045093E+02  0.7546771E-02  0.1395949E+00
          2   -1    0    0  501    0  0.00000000000E+00  0.00000000000E+00  0.43360912886E+02  0.43360912886E+02  0.00000000000E+00 0.  1.
         -2   -1    0    0    0  501 -0.00000000000E+00 -0.00000000000E+00 -0.21069174069E+02  0.21069174069E+02  0.00000000000E+00 0. -1.
        -11    1    1    2    0    0 -0.19484591572E+02 -0.84034984866E+00 -0.13465753115E+02  0.23699831298E+02  0.00000000000E+00 0. -1.
         11    1    1    2    0    0  0.19484591572E+02  0.84034984866E+00  0.35757491932E+02  0.40730255657E+02  0.00000000000E+00 0.  1.
<mgrwt>
<rscale>  0 0.60450926E+02</rscale>
<asrwt>0</asrwt>
<pdfrwt beam="1">  1        2 0.66709096E-02 0.60450926E+02</pdfrwt>
<pdfrwt beam="2">  1       -2 0.32414114E-02 0.60450926E+02</pdfrwt>
<totfact> 0.30363933E+05</totfact>
</mgrwt>
</event>
<event>
 4    1  0.2126213E+000  0.3791751E+02  0.7546771E-02  0.1524120E+00
         -2   -1    0    0    0  501 -0.00000000000E+00  0.00000000000E+00  0.43008101588E+01  0.43008101588E+01  0.00000000000E+00 0.  1.
          2   -1    0    0  501    0  0.00000000000E+00 -0.00000000000E+00 -0.83573657322E+02  0.83573657322E+02  0.00000000000E+00 0. -1.
        -13    1    1    2    0    0  0.15763025914E+02  0.79688905646E+01 -0.23671066154E+02  0.29534650424E+02  0.00000000000E+00 0.  1.
         13    1    1    2    0    0 -0.15763025914E+02 -0.79688905646E+01 -0.55601781009E+02  0.58339817056E+02  0.00000000000E+00 0. -1.
<mgrwt>
<rscale>  0 0.37917512E+02</rscale>
<asrwt>0</asrwt>
<pdfrwt beam="2">  1        2 0.12857485E-01 0.37917512E+02</pdfrwt>
<pdfrwt beam="1">  1       -2 0.66166313E-03 0.37917512E+02</pdfrwt>
<totfact> 0.11411893E+06</totfact>
</mgrwt>
</event>
<event>
 4    1  0.2126213E+000  0.2893792E+02  0.7546771E-02  0.1610134E+00
          2   -1    0    0  501    0  0.00000000000E+00  0.00000000000E+00  0.30748986272E+02  0.30748986272E+02  0.00000000000E+00 0. -1.
         -2   -1    0    0    0  501 -0.00000000000E+00 -0.00000000000E+00 -0.68083805465E+01  0.68083805465E+01  0.00000000000E+00 0.  1.
        -13    1    1    2    0    0 -0.49080739674E+01 -0.13512749908E+02  0.98506945977E+01  0.17427558182E+02  0.00000000000E+00 0. -1.
         13    1    1    2    0    0  0.49080739674E+01  0.13512749908E+02  0.14089911128E+02  0.20129808636E+02  0.00000000000E+00 0.  1.
<mgrwt>
<rscale>  0 0.28937920E+02</rscale>
<asrwt>0</asrwt>
<pdfrwt beam="1">  1        2 0.47306132E-02 0.28937920E+02</pdfrwt>
<pdfrwt beam="2">  1       -2 0.10474432E-02 0.28937920E+02</pdfrwt>
<totfact> 0.18486344E+06</totfact>
</mgrwt>
</event>
<event>
 4    1  0.2126213E+000  0.4286082E+02  0.7546771E-02  0.1488156E+00
          4   -1    0    0  501    0  0.00000000000E+00  0.00000000000E+00  0.13630480496E+02  0.13630480496E+02  0.00000000000E+00 0. -1.
         -4   -1    0    0    0  501 -0.00000000000E+00 -0.00000000000E+00 -0.33693788149E+02  0.33693788149E+02  0.00000000000E+00 0.  1.
        -11    1    1    2    0    0  0.79777609600E+01 -0.12874750721E+02  0.67082837539E+01  0.16565172713E+02  0.00000000000E+00 0. -1.
         11    1    1    2    0    0 -0.79777609600E+01  0.12874750721E+02 -0.26771591407E+02  0.30759095932E+02  0.00000000000E+00 0.  1.
<mgrwt>
<rscale>  0 0.42860822E+02</rscale>
<asrwt>0</asrwt>
<pdfrwt beam="1">  1        4 0.20969970E-02 0.42860822E+02</pdfrwt>
<pdfrwt beam="2">  1       -4 0.51836598E-02 0.42860822E+02</pdfrwt>
<totfact> 0.21224588E+05</totfact>
</mgrwt>
</event>
<event>
 4    1  0.2126213E+000  0.3830598E+02  0.7546771E-02  0.1521061E+00
         -2   -1    0    0    0  501 -0.00000000000E+00  0.00000000000E+00  0.12710316880E+03  0.12710316880E+03  0.00000000000E+00 0. -1.
          2   -1    0    0  501    0  0.00000000000E+00 -0.00000000000E+00 -0.28861357012E+01  0.28861357012E+01  0.00000000000E+00 0.  1.
        -13    1    1    2    0    0  0.61657543974E+01  0.17708231453E+02  0.48861460812E+02  0.52335841841E+02  0.00000000000E+00 0. -1.
         13    1    1    2    0    0 -0.61657543974E+01 -0.17708231453E+02  0.75355572284E+02  0.77653462658E+02  0.00000000000E+00 0.  1.
<mgrwt>
<rscale>  0 0.38305978E+02</rscale>
<asrwt>0</asrwt>
<pdfrwt beam="2">  1        2 0.44402098E-03 0.38305978E+02</pdfrwt>
<pdfrwt beam="1">  1       -2 0.19554329E-01 0.38305978E+02</pdfrwt>
<totfact> 0.62960393E+05</totfact>
</mgrwt>
</event>
<event>
 4    1  0.2126213E+000  0.2964819E+02  0.7546771E-02  0.1602010E+00
          2   -1    0    0  501    0  0.00000000000E+00  0.00000000000E+00  0.34997537406E+01  0.34997537406E+01  0.00000000000E+00 0. -1.
         -2   -1    0    0    0  501 -0.00000000000E+00 -0.00000000000E+00 -0.62791229176E+02  0.62791229176E+02  0.00000000000E+00 0.  1.
        -11    1    1    2    0    0 -0.24525797885E+01  0.14548077784E+02 -0.26411663556E+02  0.30252895508E+02  0.00000000000E+00 0. -1.
         11    1    1    2    0    0  0.24525797885E+01 -0.14548077784E+02 -0.32879811880E+02  0.36038087409E+02  0.00000000000E+00 0.  1.
<mgrwt>
<rscale>  0 0.29648193E+02</rscale>
<asrwt>0</asrwt>
<pdfrwt beam="1">  1        2 0.53842368E-03 0.29648193E+02</pdfrwt>
<pdfrwt beam="2">  1       -2 0.96601886E-02 0.29648193E+02</pdfrwt>
<totfact> 0.13486682E+06</totfact>
</mgrwt>
</event>
<event>
 4    1  0.2126213E+000  0.3298409E+02  0.7546771E-02  0.1567267E+00
          2   -1    0    0  501    0  0.00000000000E+00  0.00000000000E+00  0.50058147535E+02  0.50058147535E+02  0.00000000000E+00 0. -1.
         -2   -1    0    0    0  501 -0.00000000000E+00 -0.00000000000E+00 -0.54334318486E+01  0.54334318486E+01  0.00000000000E+00 0.  1.
        -13    1    1    2    0    0  0.82317475040E+01 -0.86667853291E+01  0.41428800112E+02  0.43118677086E+02  0.00000000000E+00 0. -1.
         13    1    1    2    0    0 -0.82317475040E+01  0.86667853291E+01  0.31959155745E+01  0.12372902298E+02  0.00000000000E+00 0.  1.
<mgrwt>
<rscale>  0 0.32984089E+02</rscale>
<asrwt>0</asrwt>
<pdfrwt beam="1">  1        2 0.77012531E-02 0.32984089E+02</pdfrwt>
<pdfrwt beam="2">  1       -2 0.83591263E-03 0.32984089E+02</pdfrwt>
<totfact> 0.14483178E+06</totfact>
</mgrwt>
</event>
<event>
 4    1  0.2126213E+000  0.3621047E+02  0.7546771E-02  0.1538107E+00
          2   -1    0    0  501    0  0.00000000000E+00  0.00000000000E+00  0.74924830869E+02  0.74924830869E+02  0.00000000000E+00 0. -1.
         -2   -1    0    0    0  501 -0.00000000000E+00 -0.00000000000E+00 -0.43750444973E+01  0.43750444973E+01  0.00000000000E+00 0.  1.
        -13    1    1    2    0    0  0.14700910846E+02  0.74463203964E+01  0.51697486683E+02  0.54260433066E+02  0.00000000000E+00 0. -1.
         13    1    1    2    0    0 -0.14700910846E+02 -0.74463203964E+01  0.18852299688E+02  0.25039442300E+02  0.00000000000E+00 0.  1.
<mgrwt>
<rscale>  0 0.36210466E+02</rscale>
<asrwt>0</asrwt>
<pdfrwt beam="1">  1        2 0.11526896E-01 0.36210466E+02</pdfrwt>
<pdfrwt beam="2">  1       -2 0.67308383E-03 0.36210466E+02</pdfrwt>
<totfact> 0.12467406E+06</totfact>
</mgrwt>
</event>
<event>
 4    1  0.2126213E+000  0.2175743E+02  0.7546771E-02  0.1712481E+00
          2   -1    0    0  501    0  0.00000000000E+00  0.00000000000E+00  0.15907502690E+01  0.15907502690E+01  0.00000000000E+00 0.  1.
         -2   -1    0    0    0  501 -0.00000000000E+00 -0.00000000000E+00 -0.74396603364E+02  0.74396603364E+02  0.00000000000E+00 0. -1.
        -13    1    1    2    0    0  0.94198207860E+01 -0.45181513507E+01 -0.25809885949E+02  0.27844154287E+02  0.00000000000E+00 0. -1.
         13    1    1    2    0    0 -0.94198207860E+01  0.45181513507E+01 -0.46995967146E+02  0.48143199346E+02  0.00000000000E+00 0.  1.
<mgrwt>
<rscale>  0 0.21757428E+02</rscale>
<asrwt>0</asrwt>
<pdfrwt beam="1">  1        2 0.24473080E-03 0.21757428E+02</pdfrwt>
<pdfrwt beam="2">  1       -2 0.11445632E-01 0.21757428E+02</pdfrwt>
<totfact> 0.26350111E+06</totfact>
</mgrwt>
</event>
<event>
 4    1  0.2126213E+000  0.2480718E+02  0.7546771E-02  0.1663787E+00
         -1   -1    0    0    0  501 -0.00000000000E+00  0.00000000000E+00  0.57764714241E+01  0.57764714241E+01  0.00000000000E+00 0. -1.
          1   -1    0    0  501    0  0.00000000000E+00 -0.00000000000E+00 -0.26633743847E+02  0.26633743847E+02  0.00000000000E+00 0.  1.
        -13    1    1    2    0    0  0.24724058157E+01 -0.10956377197E+02 -0.17304034738E+02  0.20629702131E+02  0.00000000000E+00 0.  1.
         13    1    1    2    0    0 -0.24724058157E+01  0.10956377197E+02 -0.35532376854E+01  0.11780513140E+02  0.00000000000E+00 0. -1.
<mgrwt>
<rscale>  0 0.24807181E+02</rscale>
<asrwt>0</asrwt>
<pdfrwt beam="2">  1        1 0.40974991E-02 0.24807181E+02</pdfrwt>
<pdfrwt beam="1">  1       -1 0.88868790E-03 0.24807181E+02</pdfrwt>
<totfact> 0.24612449E+06</totfact>
</mgrwt>
</event>
<event>
 4    1  0.2126213E+000  0.2804409E+02  0.7546771E-02  0.1620773E+00
         -1   -1    0    0    0  501 -0.00000000000E+00  0.00000000000E+00  0.24798487264E+01  0.24798487264E+01  0.00000000000E+00 0. -1.
          1   -1    0    0  501    0  0.00000000000E+00 -0.00000000000E+00 -0.79286199990E+02  0.79286199990E+02  0.00000000000E+00 0.  1.
        -13    1    1    2    0    0  0.59618978822E+01 -0.12688944870E+02 -0.39142122820E+02  0.41577149098E+02  0.00000000000E+00 0. -1.
         13    1    1    2    0    0 -0.59618978822E+01  0.12688944870E+02 -0.37664228444E+02  0.40188899618E+02  0.00000000000E+00 0.  1.
<mgrwt>
<rscale>  0 0.28044093E+02</rscale>
<asrwt>0</asrwt>
<pdfrwt beam="2">  1        1 0.12197876E-01 0.28044093E+02</pdfrwt>
<pdfrwt beam="1">  1       -1 0.38151522E-03 0.28044093E+02</pdfrwt>
<totfact> 0.20065554E+06</totfact>
</mgrwt>
</event>
<event>
 4    1  0.2126213E+000  0.3560176E+02  0.7546771E-02  0.1543321E+00
         -1   -1    0    0    0  501 -0.00000000000E+00  0.00000000000E+00  0.21050981822E+02  0.21050981822E+02  0.00000000000E+00 0. -1.
          1   -1    0    0  501    0  0.00000000000E+00 -0.00000000000E+00 -0.15052566807E+02  0.15052566807E+02  0.00000000000E+00 0.  1.
        -11    1    1    2    0    0 -0.10501153707E+02  0.10764755037E+02  0.12658005577E+02  0.19656532893E+02  0.00000000000E+00 0. -1.
         11    1    1    2    0    0  0.10501153707E+02 -0.10764755037E+02 -0.66595905620E+01  0.16447015736E+02  0.00000000000E+00 0.  1.
<mgrwt>
<rscale>  0 0.35601759E+02</rscale>
<asrwt>0</asrwt>
<pdfrwt beam="2">  1        1 0.23157795E-02 0.35601759E+02</pdfrwt>
<pdfrwt beam="1">  1       -1 0.32386126E-02 0.35601759E+02</pdfrwt>
<totfact> 0.99904174E+05</totfact>
</mgrwt>
</event>
<event>
 4    1  0.2126213E+000  0.3015498E+02  0.7546771E-02  0.1596382E+00
         -3   -1    0    0    0  501 -0.00000000000E+00  0.00000000000E+00  0.76369302838E+01  0.76369302838E+01  0.00000000000E+00 0. -1.
          3   -1    0    0  501    0  0.00000000000E+00 -0.00000000000E+00 -0.29767297713E+02  0.29767297713E+02  0.00000000000E+00 0.  1.
        -11    1    1    2    0    0  0.80230597101E+01 -0.10468923975E+02 -0.20040742152E+01  0.13341070788E+02  0.00000000000E+00 0. -1.
         11    1    1    2    0    0 -0.80230597101E+01  0.10468923975E+02 -0.20126293214E+02  0.24063157208E+02  0.00000000000E+00 0.  1.
<mgrwt>
<rscale>  0 0.30154985E+02</rscale>
<asrwt>0</asrwt>
<pdfrwt beam="2">  1        3 0.45795843E-02 0.30154985E+02</pdfrwt>
<pdfrwt beam="1">  1       -3 0.11749123E-02 0.30154985E+02</pdfrwt>
<totfact> 0.67032063E+05</totfact>
</mgrwt>
</event>
<event>
 4    1  0.2126213E+000  0.2361737E+02  0.7546771E-02  0.1681694E+00
          2   -1    0    0  501    0  0.00000000000E+00  0.00000000000E+00  0.31223476322E+01  0.31223476322E+01  0.00000000000E+00 0.  1.
         -2   -1    0    0    0  501 -0.00000000000E+00 -0.00000000000E+00 -0.44660325195E+02  0.44660325195E+02  0.00000000000E+00 0. -1.
        -11    1    1    2    0    0 -0.36342636801E+01 -0.10468930725E+02 -0.29021730992E+02  0.31065531587E+02  0.00000000000E+00 0.  1.
         11    1    1    2    0    0  0.36342636801E+01  0.10468930725E+02 -0.12516246571E+02  0.16717141241E+02  0.00000000000E+00 0. -1.
<mgrwt>
<rscale>  0 0.23617372E+02</rscale>
<asrwt>0</asrwt>
<pdfrwt beam="1">  1        2 0.48036121E-03 0.23617372E+02</pdfrwt>
<pdfrwt beam="2">  1       -2 0.68708187E-02 0.23617372E+02</pdfrwt>
<totfact> 0.23831917E+06</totfact>
</mgrwt>
</event>
<event>
 4    1  0.2126213E+000  0.2870248E+02  0.7546771E-02  0.1612890E+00
         -2   -1    0    0    0  501 -0.00000000000E+00  0.00000000000E+00  0.23344872894E+02  0.23344872894E+02  0.00000000000E+00 0.  1.
          2   -1    0    0  501    0  0.00000000000E+00 -0.00000000000E+00 -0.88224121724E+01  0.88224121724E+01  0.00000000000E+00 0. -1.
        -13    1    1    2    0    0  0.94187599848E+01  0.10030148296E+02  0.11833027949E+02  0.18147657285E+02  0.00000000000E+00 0.  1.
         13    1    1    2    0    0 -0.94187599848E+01 -0.10030148296E+02  0.26894327719E+01  0.14019627781E+02  0.00000000000E+00 0. -1.
<mgrwt>
<rscale>  0 0.28702480E+02</rscale>
<asrwt>0</asrwt>
<pdfrwt beam="2">  1        2 0.13572942E-02 0.28702480E+02</pdfrwt>
<pdfrwt beam="1">  1       -2 0.35915189E-02 0.28702480E+02</pdfrwt>
<totfact> 0.16536516E+06</totfact>
</mgrwt>
</event>
<event>
 4    1  0.2126213E+000  0.2079941E+02  0.7546771E-02  0.1729883E+00
         -3   -1    0    0    0  501 -0.00000000000E+00  0.00000000000E+00  0.38280508929E+01  0.38280508929E+01  0.00000000000E+00 0. -1.
          3   -1    0    0  501    0  0.00000000000E+00 -0.00000000000E+00 -0.28252976535E+02  0.28252976535E+02  0.00000000000E+00 0.  1.
        -13    1    1    2    0    0 -0.54128666462E+01  0.85454999310E+01 -0.84885502814E+01  0.13205308792E+02  0.00000000000E+00 0.  1.
         13    1    1    2    0    0  0.54128666462E+01 -0.85454999310E+01 -0.15936375361E+02  0.18875718636E+02  0.00000000000E+00 0. -1.
<mgrwt>
<rscale>  0 0.20799407E+02</rscale>
<asrwt>0</asrwt>
<pdfrwt beam="2">  1        3 0.43466118E-02 0.20799407E+02</pdfrwt>
<pdfrwt beam="1">  1       -3 0.58893090E-03 0.20799407E+02</pdfrwt>
<totfact> 0.15751493E+06</totfact>
</mgrwt>
</event>
<event>
 4    1  0.2126213E+000  0.2245671E+02  0.7546771E-02  0.1700471E+00
          1   -1    0    0  501    0  0.00000000000E+00  0.00000000000E+00  0.31987857716E+01  0.31987857716E+01  0.00000000000E+00 0. -1.
         -1   -1    0    0    0  501 -0.00000000000E+00 -0.00000000000E+00 -0.39413689372E+02  0.39413689372E+02  0.00000000000E+00 0.  1.
        -13    1    1    2    0    0 -0.88576469343E+01  0.56596753062E+01 -0.25598793049E+02  0.27672875516E+02  0.00000000000E+00 0.  1.
         13    1    1    2    0    0  0.88576469343E+01 -0.56596753062E+01 -0.10616110552E+02  0.14939599628E+02  0.00000000000E+00 0. -1.
<mgrwt>
<rscale>  0 0.22456709E+02</rscale>
<asrwt>0</asrwt>
<pdfrwt beam="1">  1        1 0.49212089E-03 0.22456709E+02</pdfrwt>
<pdfrwt beam="2">  1       -1 0.60636444E-02 0.22456709E+02</pdfrwt>
<totfact> 0.27610145E+06</totfact>
</mgrwt>
</event>
<event>
 4    1  0.2126213E+000  0.4328210E+02  0.7546771E-02  0.1485360E+00
         -2   -1    0    0    0  501 -0.00000000000E+00  0.00000000000E+00  0.42339452929E+02  0.42339452929E+02  0.00000000000E+00 0.  1.
          2   -1    0    0  501    0  0.00000000000E+00 -0.00000000000E+00 -0.11061434655E+02  0.11061434655E+02  0.00000000000E+00 0. -1.
        -13    1    1    2    0    0 -0.13313482912E+02 -0.17046326747E+02  0.16519252796E+02  0.27216020939E+02  0.00000000000E+00 0. -1.
         13    1    1    2    0    0  0.13313482912E+02  0.17046326747E+02  0.14758765479E+02  0.26184866646E+02  0.00000000000E+00 0.  1.
<mgrwt>
<rscale>  0 0.43282102E+02</rscale>
<asrwt>0</asrwt>
<pdfrwt beam="2">  1        2 0.17017592E-02 0.43282102E+02</pdfrwt>
<pdfrwt beam="1">  1       -2 0.65137619E-02 0.43282102E+02</pdfrwt>
<totfact> 0.59116588E+05</totfact>
</mgrwt>
</event>
<event>
 4    1  0.2126213E+000  0.5980278E+02  0.7546771E-02  0.1398661E+00
         -4   -1    0    0    0  501 -0.00000000000E+00  0.00000000000E+00  0.15010999912E+03  0.15010999912E+03  0.00000000000E+00 0.  1.
          4   -1    0    0  501    0  0.00000000000E+00 -0.00000000000E+00 -0.59562536820E+01  0.59562536820E+01  0.00000000000E+00 0. -1.
        -11    1    1    2    0    0 -0.27723200835E+02 -0.43705156464E+01  0.45155884779E+02  0.53167012346E+02  0.00000000000E+00 0. -1.
         11    1    1    2    0    0  0.27723200835E+02  0.43705156464E+01  0.98997860662E+02  0.10289924046E+03  0.00000000000E+00 0.  1.
<mgrwt>
<rscale>  0 0.59802784E+02</rscale>
<asrwt>0</asrwt>
<pdfrwt beam="2">  1        4 0.91634683E-03 0.59802784E+02</pdfrwt>
<pdfrwt beam="1">  1       -4 0.23093843E-01 0.59802784E+02</pdfrwt>
<totfact> 0.70120601E+04</totfact>
</mgrwt>
</event>
<event>
 4    1  0.2126213E+000  0.4585431E+02  0.7546771E-02  0.1469078E+00
          2   -1    0    0  501    0  0.00000000000E+00  0.00000000000E+00  0.49096008827E+01  0.49096008827E+01  0.00000000000E+00 0. -1.
         -2   -1    0    0    0  501 -0.00000000000E+00 -0.00000000000E+00 -0.10706662519E+03  0.10706662519E+03  0.00000000000E+00 0.  1.
        -11    1    1    2    0    0  0.82094274245E+01 -0.19990289600E+02 -0.32377187944E+02  0.38926709033E+02  0.00000000000E+00 0. -1.
         11    1    1    2    0    0 -0.82094274245E+01  0.19990289600E+02 -0.69779836368E+02  0.73049517044E+02  0.00000000000E+00 0.  1.
<mgrwt>
<rscale>  0 0.45854308E+02</rscale>
<asrwt>0</asrwt>
<pdfrwt beam="1">  1        2 0.75532322E-03 0.45854308E+02</pdfrwt>
<pdfrwt beam="2">  1       -2 0.16471788E-01 0.45854308E+02</pdfrwt>
<totfact> 0.42812067E+05</totfact>
</mgrwt>
</event>
<event>
 4    1  0.2126213E+000  0.3012854E+02  0.7546771E-02  0.1596672E+00
         -1   -1    0    0    0  501 -0.00000000000E+00  0.00000000000E+00  0.40716000588E+02  0.40716000588E+02  0.00000000000E+00 0.  1.
          1   -1    0    0  501    0  0.00000000000E+00 -0.00000000000E+00 -0.55735375543E+01  0.55735375543E+01  0.00000000000E+00 0. -1.
        -11    1    1    2    0    0 -0.13588416211E+02  0.30507692091E+01  0.87479615798E+01  0.16446248195E+02  0.00000000000E+00 0.  1.
         11    1    1    2    0    0  0.13588416211E+02 -0.30507692091E+01  0.26394501454E+02  0.29843289948E+02  0.00000000000E+00 0. -1.
<mgrwt>
<rscale>  0 0.30128535E+02</rscale>
<asrwt>0</asrwt>
<pdfrwt beam="2">  1        1 0.85746734E-03 0.30128535E+02</pdfrwt>
<pdfrwt beam="1">  1       -1 0.62639999E-02 0.30128535E+02</pdfrwt>
<totfact> 0.14055401E+06</totfact>
</mgrwt>
</event>
<event>
 4    1  0.2126213E+000  0.4273255E+02  0.7546771E-02  0.1489014E+00
         -2   -1    0    0    0  501 -0.00000000000E+00  0.00000000000E+00  0.19522026888E+03  0.19522026888E+03  0.00000000000E+00 0.  1.
          2   -1    0    0  501    0  0.00000000000E+00 -0.00000000000E+00 -0.23384753507E+01  0.23384753507E+01  0.00000000000E+00 0. -1.
        -11    1    1    2    0    0  0.21351687707E+02 -0.43306993265E+00  0.93389379309E+02  0.95800095435E+02  0.00000000000E+00 0. -1.
         11    1    1    2    0    0 -0.21351687707E+02  0.43306993265E+00  0.99492414221E+02  0.10175864880E+03  0.00000000000E+00 0.  1.
<mgrwt>
<rscale>  0 0.42732554E+02</rscale>
<asrwt>0</asrwt>
<pdfrwt beam="2">  1        2 0.35976559E-03 0.42732554E+02</pdfrwt>
<pdfrwt beam="1">  1       -2 0.30033875E-01 0.42732554E+02</pdfrwt>
<totfact> 0.41760360E+05</totfact>
</mgrwt>
</event>
<event>
 4    1  0.2126213E+000  0.5412235E+02  0.7546771E-02  0.1424296E+00
         -2   -1    0    0    0  501 -0.00000000000E+00  0.00000000000E+00  0.11813045405E+02  0.11813045405E+02  0.00000000000E+00 0. -1.
          2   -1    0    0  501    0  0.00000000000E+00 -0.00000000000E+00 -0.61991393094E+02  0.61991393094E+02  0.00000000000E+00 0.  1.
        -13    1    1    2    0    0 -0.19005842994E+02 -0.19259365174E+02 -0.25637911546E+02  0.37275296421E+02  0.00000000000E+00 0.  1.
         13    1    1    2    0    0  0.19005842994E+02  0.19259365174E+02 -0.24540436144E+02  0.36529142078E+02  0.00000000000E+00 0. -1.
<mgrwt>
<rscale>  0 0.54122348E+02</rscale>
<asrwt>0</asrwt>
<pdfrwt beam="2">  1        2 0.95371376E-02 0.54122348E+02</pdfrwt>
<pdfrwt beam="1">  1       -2 0.18173916E-02 0.54122348E+02</pdfrwt>
<totfact> 0.43665278E+05</totfact>
</mgrwt>
</event>
<event>
 4    1  0.2126213E+000  0.3156991E+02  0.7546771E-02  0.1581357E+00
          2   -1    0    0  501    0  0.00000000000E+00  0.00000000000E+00  0.41620813726E+02  0.41620813726E+02  0.00000000000E+00 0. -1.
         -2   -1    0    0    0  501 -0.00000000000E+00 -0.00000000000E+00 -0.59865429809E+01  0.59865429809E+01  0.00000000000E+00 0.  1.
        -11    1    1    2    0    0  0.14637318514E+02 -0.51580568261E+01  0.22163766819E+02  0.27057146988E+02  0.00000000000E+00 0.  1.
         11    1    1    2    0    0 -0.14637318514E+02  0.51580568261E+01  0.13470503926E+02  0.20550209720E+02  0.00000000000E+00 0. -1.
<mgrwt>
<rscale>  0 0.31569909E+02</rscale>
<asrwt>0</asrwt>
<pdfrwt beam="1">  1        2 0.64032019E-02 0.31569909E+02</pdfrwt>
<pdfrwt beam="2">  1       -2 0.92100664E-03 0.31569909E+02</pdfrwt>
<totfact> 0.15634769E+06</totfact>
</mgrwt>
</event>
<event>
 4    1  0.2126213E+000  0.3992130E+02  0.7546771E-02  0.1508791E+00
          2   -1    0    0  501    0  0.00000000000E+00  0.00000000000E+00  0.35931080630E+01  0.35931080630E+01  0.00000000000E+00 0. -1.
         -2   -1    0    0    0  501 -0.00000000000E+00 -0.00000000000E+00 -0.11088657965E+03  0.11088657965E+03  0.00000000000E+00 0.  1.
        -13    1    1    2    0    0 -0.16158428888E+02 -0.43420899231E+01 -0.22433103957E+02  0.27985580612E+02  0.00000000000E+00 0. -1.
         13    1    1    2    0    0  0.16158428888E+02  0.43420899231E+01 -0.84860367630E+02  0.86494107102E+02  0.00000000000E+00 0.  1.
<mgrwt>
<rscale>  0 0.39921296E+02</rscale>
<asrwt>0</asrwt>
<pdfrwt beam="1">  1        2 0.55278586E-03 0.39921296E+02</pdfrwt>
<pdfrwt beam="2">  1       -2 0.17059474E-01 0.39921296E+02</pdfrwt>
<totfact> 0.59243013E+05</totfact>
</mgrwt>
</event>
<event>
 4    1  0.2126213E+000  0.3200440E+02  0.7546771E-02  0.1576934E+00
          2   -1    0    0  501    0  0.00000000000E+00  0.00000000000E+00  0.62407131760E+02  0.62407131760E+02  0.00000000000E+00 0. -1.
         -2   -1    0    0    0  501 -0.00000000000E+00 -0.00000000000E+00 -0.41032236013E+01  0.41032236013E+01  0.00000000000E+00 0.  1.
        -13    1    1    2    0    0 -0.12460403984E+02 -0.96833062979E+01  0.34666854589E+02  0.38089616635E+02  0.00000000000E+00 0. -1.
         13    1    1    2    0    0  0.12460403984E+02  0.96833062979E+01  0.23637053570E+02  0.28420738727E+02  0.00000000000E+00 0.  1.
<mgrwt>
<rscale>  0 0.32004401E+02</rscale>
<asrwt>0</asrwt>
<pdfrwt beam="1">  1        2 0.96010965E-02 0.32004401E+02</pdfrwt>
<pdfrwt beam="2">  1       -2 0.63126521E-03 0.32004401E+02</pdfrwt>
<totfact> 0.16196027E+06</totfact>
</mgrwt>
</event>
<event>
 4    1  0.2126213E+000  0.3012574E+02  0.7546771E-02  0.1596703E+00
          2   -1    0    0  501    0  0.00000000000E+00  0.00000000000E+00  0.81872661447E+01  0.81872661447E+01  0.00000000000E+00 0.  1.
         -2   -1    0    0    0  501 -0.00000000000E+00 -0.00000000000E+00 -0.27712557327E+02  0.27712557327E+02  0.00000000000E+00 0. -1.
        -11    1    1    2    0    0  0.87948301828E+01  0.86560105944E+01  0.53092981631E+00  0.12351414649E+02  0.00000000000E+00 0.  1.
         11    1    1    2    0    0 -0.87948301828E+01 -0.86560105944E+01 -0.20056220999E+02  0.23548408823E+02  0.00000000000E+00 0. -1.
<mgrwt>
<rscale>  0 0.30125742E+02</rscale>
<asrwt>0</asrwt>
<pdfrwt beam="1">  1        2 0.12595794E-02 0.30125742E+02</pdfrwt>
<pdfrwt beam="2">  1       -2 0.42634703E-02 0.30125742E+02</pdfrwt>
<totfact> 0.14540694E+06</totfact>
</mgrwt>
</event>
<event>
 4    1  0.2126213E+000  0.2310943E+02  0.7546771E-02  0.1689742E+00
          4   -1    0    0  501    0  0.00000000000E+00  0.00000000000E+00  0.35930402081E+01  0.35930402081E+01  0.00000000000E+00 0. -1.
         -4   -1    0    0    0  501 -0.00000000000E+00 -0.00000000000E+00 -0.37158359141E+02  0.37158359141E+02  0.00000000000E+00 0.  1.
        -11    1    1    2    0    0 -0.10170775304E+02 -0.25138663447E+01 -0.81893549299E+01  0.13297733959E+02  0.00000000000E+00 0. -1.
         11    1    1    2    0    0  0.10170775304E+02  0.25138663447E+01 -0.25375964003E+02  0.27453665391E+02  0.00000000000E+00 0.  1.
<mgrwt>
<rscale>  0 0.23109433E+02</rscale>
<asrwt>0</asrwt>
<pdfrwt beam="1">  1        4 0.55277543E-03 0.23109433E+02</pdfrwt>
<pdfrwt beam="2">  1       -4 0.57166705E-02 0.23109433E+02</pdfrwt>
<totfact> 0.88409497E+05</totfact>
</mgrwt>
</event>
<event>
 4    1  0.2126213E+000  0.2058935E+02  0.7546771E-02  0.1733856E+00
          2   -1    0    0  501    0  0.00000000000E+00  0.00000000000E+00  0.15546291730E+01  0.15546291730E+01  0.00000000000E+00 0. -1.
         -2   -1    0    0    0  501 -0.00000000000E+00 -0.00000000000E+00 -0.68170809209E+02  0.68170809209E+02  0.00000000000E+00 0.  1.
        -13    1    1    2    0    0  0.46127552107E+01 -0.90369884269E+01 -0.27407776783E+02  0.29225517937E+02  0.00000000000E+00 0. -1.
         13    1    1    2    0    0 -0.46127552107E+01  0.90369884269E+01 -0.39208403253E+02  0.40499920445E+02  0.00000000000E+00 0.  1.
<mgrwt>
<rscale>  0 0.20589350E+02</rscale>
<asrwt>0</asrwt>
<pdfrwt beam="1">  1        2 0.23917376E-03 0.20589350E+02</pdfrwt>
<pdfrwt beam="2">  1       -2 0.10487815E-01 0.20589350E+02</pdfrwt>
<totfact> 0.30252276E+06</totfact>
</mgrwt>
</event>
<event>
 4    1  0.2126213E+000  0.2257018E+02  0.7546771E-02  0.1698574E+00
          1   -1    0    0  501    0  0.00000000000E+00  0.00000000000E+00  0.13888055026E+01  0.13888055026E+01  0.00000000000E+00 0. -1.
         -1   -1    0    0    0  501 -0.00000000000E+00 -0.00000000000E+00 -0.91699852402E+02  0.91699852402E+02  0.00000000000E+00 0.  1.
        -11    1    1    2    0    0 -0.57585679963E+01  0.88839736117E+01 -0.29040127879E+02  0.30909790031E+02  0.00000000000E+00 0. -1.
         11    1    1    2    0    0  0.57585679963E+01 -0.88839736117E+01 -0.61270919020E+02  0.62178867873E+02  0.00000000000E+00 0.  1.
<mgrwt>
<rscale>  0 0.22570180E+02</rscale>
<asrwt>0</asrwt>
<pdfrwt beam="1">  1        1 0.21366240E-03 0.22570180E+02</pdfrwt>
<pdfrwt beam="2">  1       -1 0.14107668E-01 0.22570180E+02</pdfrwt>
<totfact> 0.24729838E+06</totfact>
</mgrwt>
</event>
<event>
 4    1  0.2126213E+000  0.3173910E+02  0.7546771E-02  0.1579624E+00
         -2   -1    0    0    0  501 -0.00000000000E+00  0.00000000000E+00  0.18966553419E+02  0.18966553419E+02  0.00000000000E+00 0.  1.
          2   -1    0    0  501    0  0.00000000000E+00 -0.00000000000E+00 -0.13278245402E+02  0.13278245402E+02  0.00000000000E+00 0. -1.
        -13    1    1    2    0    0 -0.40892686548E+01  0.98982673239E+01  0.14741626071E+02  0.18221233585E+02  0.00000000000E+00 0.  1.
         13    1    1    2    0    0  0.40892686548E+01 -0.98982673239E+01 -0.90533180539E+01  0.14023565236E+02  0.00000000000E+00 0. -1.
<mgrwt>
<rscale>  0 0.31739096E+02</rscale>
<asrwt>0</asrwt>
<pdfrwt beam="2">  1        2 0.20428070E-02 0.31739096E+02</pdfrwt>
<pdfrwt beam="1">  1       -2 0.29179313E-02 0.31739096E+02</pdfrwt>
<totfact> 0.13452111E+06</totfact>
</mgrwt>
</event>
<event>
 4    1  0.2126213E+000  0.2435277E+02  0.7546771E-02  0.1670476E+00
         -2   -1    0    0    0  501 -0.00000000000E+00  0.00000000000E+00  0.87649193978E+01  0.87649193978E+01  0.00000000000E+00 0.  1.
          2   -1    0    0  501    0  0.00000000000E+00 -0.00000000000E+00 -0.16915661006E+02  0.16915661006E+02  0.00000000000E+00 0. -1.
        -11    1    1    2    0    0 -0.73209637592E+01  0.84243929979E+01  0.10580590589E+01  0.11210994457E+02  0.00000000000E+00 0. -1.
         11    1    1    2    0    0  0.73209637592E+01 -0.84243929979E+01 -0.92088006673E+01  0.14469585947E+02  0.00000000000E+00 0.  1.
<mgrwt>
<rscale>  0 0.24352774E+02</rscale>
<asrwt>0</asrwt>
<pdfrwt beam="2">  1        2 0.26024094E-02 0.24352774E+02</pdfrwt>
<pdfrwt beam="1">  1       -2 0.13484491E-02 0.24352774E+02</pdfrwt>
<totfact> 0.26101836E+06</totfact>
</mgrwt>
</event>
<event>
 4    1  0.2126213E+000  0.2224153E+02  0.7546771E-02  0.1704108E+00
         -4   -1    0    0    0  501 -0.00000000000E+00  0.00000000000E+00  0.86615753306E+01  0.86615753306E+01  0.00000000000E+00 0. -1.
          4   -1    0    0  501    0  0.00000000000E+00 -0.00000000000E+00 -0.14278164265E+02  0.14278164265E+02  0.00000000000E+00 0.  1.
        -13    1    1    2    0    0 -0.10759679142E+02  0.17639373306E+01 -0.50654240235E+01  0.12022507671E+02  0.00000000000E+00 0.  1.
         13    1    1    2    0    0  0.10759679142E+02 -0.17639373306E+01 -0.55116491125E+00  0.10917231925E+02  0.00000000000E+00 0. -1.
<mgrwt>
<rscale>  0 0.22241528E+02</rscale>
<asrwt>0</asrwt>
<pdfrwt beam="2">  1        4 0.21966406E-02 0.22241528E+02</pdfrwt>
<pdfrwt beam="1">  1       -4 0.13325501E-02 0.22241528E+02</pdfrwt>
<totfact> 0.10299488E+06</totfact>
</mgrwt>
</event>
<event>
 4    1  0.2126213E+000  0.1252587E+03  0.7546771E-02  0.1234665E+00
          2   -1    0    0  501    0  0.00000000000E+00  0.00000000000E+00  0.28262633710E+03  0.28262633710E+03  0.00000000000E+00 0. -1.
         -2   -1    0    0    0  501 -0.00000000000E+00 -0.00000000000E+00 -0.13878528119E+02  0.13878528119E+02  0.00000000000E+00 0.  1.
        -11    1    1    2    0    0  0.14873339706E+02 -0.60125509355E+02  0.15634427992E+03  0.16816606963E+03  0.00000000000E+00 0.  1.
         11    1    1    2    0    0 -0.14873339706E+02  0.60125509355E+02  0.11240352906E+03  0.12833879559E+03  0.00000000000E+00 0. -1.
<mgrwt>
<rscale>  0 0.12525873E+03</rscale>
<asrwt>0</asrwt>
<pdfrwt beam="1">  1        2 0.43480971E-01 0.12525873E+03</pdfrwt>
<pdfrwt beam="2">  1       -2 0.21351584E-02 0.12525873E+03</pdfrwt>
<totfact> 0.74029004E+04</totfact>
</mgrwt>
</event>
<event>
 4    1  0.2126213E+000  0.6259649E+02  0.7546771E-02  0.1387248E+00
         -1   -1    0    0    0  501 -0.00000000000E+00  0.00000000000E+00  0.12702221494E+02  0.12702221494E+02  0.00000000000E+00 0. -1.
          1   -1    0    0  501    0  0.00000000000E+00 -0.00000000000E+00 -0.77118816709E+02  0.77118816709E+02  0.00000000000E+00 0.  1.
        -11    1    1    2    0    0  0.19018722998E+02 -0.36305908296E+01  0.30769745071E+01  0.19605121432E+02  0.00000000000E+00 0. -1.
         11    1    1    2    0    0 -0.19018722998E+02  0.36305908296E+01 -0.67493569722E+02  0.70215916772E+02  0.00000000000E+00 0.  1.
<mgrwt>
<rscale>  0 0.62596495E+02</rscale>
<asrwt>0</asrwt>
<pdfrwt beam="2">  1        1 0.11864433E-01 0.62596495E+02</pdfrwt>
<pdfrwt beam="1">  1       -1 0.19541879E-02 0.62596495E+02</pdfrwt>
<totfact> 0.27419624E+05</totfact>
</mgrwt>
</event>
<event>
 4    1  0.2126213E+000  0.3240906E+02  0.7546771E-02  0.1572891E+00
          2   -1    0    0  501    0  0.00000000000E+00  0.00000000000E+00  0.44089577540E+02  0.44089577540E+02  0.00000000000E+00 0. -1.
         -2   -1    0    0    0  501 -0.00000000000E+00 -0.00000000000E+00 -0.59557576389E+01  0.59557576389E+01  0.00000000000E+00 0.  1.
        -13    1    1    2    0    0  0.11927160229E+02  0.86671057590E+01  0.29449818228E+02  0.32934293176E+02  0.00000000000E+00 0. -1.
         13    1    1    2    0    0 -0.11927160229E+02 -0.86671057590E+01  0.86840016734E+01  0.17111042003E+02  0.00000000000E+00 0.  1.
<mgrwt>
<rscale>  0 0.32409063E+02</rscale>
<asrwt>0</asrwt>
<pdfrwt beam="1">  1        2 0.67830117E-02 0.32409063E+02</pdfrwt>
<pdfrwt beam="2">  1       -2 0.91627044E-03 0.32409063E+02</pdfrwt>
<totfact> 0.14805393E+06</totfact>
</mgrwt>
</event>
<event>
 4    1  0.2126213E+000  0.5088775E+02  0.7546771E-02  0.1440611E+00
          2   -1    0    0  501    0  0.00000000000E+00  0.00000000000E+00  0.10667544404E+02  0.10667544404E+02  0.00000000000E+00 0.  1.
         -2   -1    0    0    0  501 -0.00000000000E+00 -0.00000000000E+00 -0.60687887392E+02  0.60687887392E+02  0.00000000000E+00 0. -1.
        -13    1    1    2    0    0  0.98927352906E+01  0.72371166485E+01 -0.56275064161E+02  0.57594486848E+02  0.00000000000E+00 0. -1.
         13    1    1    2    0    0 -0.98927352906E+01 -0.72371166485E+01  0.62547211734E+01  0.13760944948E+02  0.00000000000E+00 0.  1.
<mgrwt>
<rscale>  0 0.50887748E+02</rscale>
<asrwt>0</asrwt>
<pdfrwt beam="1">  1        2 0.16411607E-02 0.50887748E+02</pdfrwt>
<pdfrwt beam="2">  1       -2 0.93365981E-02 0.50887748E+02</pdfrwt>
<totfact> 0.37722736E+05</totfact>
</mgrwt>
</event>
<event>
 4    1  0.2126213E+000  0.3325807E+02  0.7546771E-02  0.1564637E+00
         -4   -1    0    0    0  501 -0.00000000000E+00  0.00000000000E+00  0.72456110257E+02  0.72456110257E+02  0.00000000000E+00 0. -1.
          4   -1    0    0  501    0  0.00000000000E+00 -0.00000000000E+00 -0.38164455318E+01  0.38164455318E+01  0.00000000000E+00 0.  1.
        -13    1    1    2    0    0 -0.13561233689E+02  0.28799357687E+01  0.55379238107E+02  0.57088187066E+02  0.00000000000E+00 0. -1.
         13    1    1    2    0    0  0.13561233689E+02 -0.28799357687E+01  0.13260426618E+02  0.19184368723E+02  0.00000000000E+00 0.  1.
<mgrwt>
<rscale>  0 0.33258070E+02</rscale>
<asrwt>0</asrwt>
<pdfrwt beam="2">  1        4 0.58714552E-03 0.33258070E+02</pdfrwt>
<pdfrwt beam="1">  1       -4 0.11147093E-01 0.33258070E+02</pdfrwt>
<totfact> 0.35242181E+05</totfact>
</mgrwt>
</event>
<event>
 4    1  0.2126213E+000  0.2719883E+02  0.7546771E-02  0.1631290E+00
          2   -1    0    0  501    0  0.00000000000E+00  0.00000000000E+00  0.18408140102E+01  0.18408140102E+01  0.00000000000E+00 0. -1.
         -2   -1    0    0    0  501 -0.00000000000E+00 -0.00000000000E+00 -0.10046861482E+03  0.10046861482E+03  0.00000000000E+00 0.  1.
        -11    1    1    2    0    0  0.94463958861E+01  0.91844564668E+01 -0.36638354269E+02  0.38935300684E+02  0.00000000000E+00 0. -1.
         11    1    1    2    0    0 -0.94463958861E+01 -0.91844564668E+01 -0.61989446540E+02  0.63374128145E+02  0.00000000000E+00 0.  1.
<mgrwt>
<rscale>  0 0.27198826E+02</rscale>
<asrwt>0</asrwt>
<pdfrwt beam="1">  1        2 0.28320205E-03 0.27198826E+02</pdfrwt>
<pdfrwt beam="2">  1       -2 0.15456716E-01 0.27198826E+02</pdfrwt>
<totfact> 0.14932107E+06</totfact>
</mgrwt>
</event>
<event>
 4    1  0.2126213E+000  0.2427494E+02  0.7546771E-02  0.1671640E+00
         -2   -1    0    0    0  501 -0.00000000000E+00  0.00000000000E+00  0.28536210646E+02  0.28536210646E+02  0.00000000000E+00 0. -1.
          2   -1    0    0  501    0  0.00000000000E+00 -0.00000000000E+00 -0.51624978296E+01  0.51624978296E+01  0.00000000000E+00 0.  1.
        -11    1    1    2    0    0  0.68142367850E+01  0.89606110609E+01  0.17986294585E+02  0.21218698510E+02  0.00000000000E+00 0. -1.
         11    1    1    2    0    0 -0.68142367850E+01 -0.89606110609E+01  0.53874182311E+01  0.12480009966E+02  0.00000000000E+00 0.  1.
<mgrwt>
<rscale>  0 0.24274936E+02</rscale>
<asrwt>0</asrwt>
<pdfrwt beam="2">  1        2 0.79423045E-03 0.24274936E+02</pdfrwt>
<pdfrwt beam="1">  1       -2 0.43901862E-02 0.24274936E+02</pdfrwt>
<totfact> 0.23626117E+06</totfact>
</mgrwt>
</event>
<event>
 4    1  0.2126213E+000  0.4507117E+02  0.7546771E-02  0.1473898E+00
         -1   -1    0    0    0  501 -0.00000000000E+00  0.00000000000E+00  0.25873211723E+01  0.25873211723E+01  0.00000000000E+00 0.  1.
          1   -1    0    0  501    0  0.00000000000E+00 -0.00000000000E+00 -0.19628509953E+03  0.19628509953E+03  0.00000000000E+00 0. -1.
        -13    1    1    2    0    0  0.21007987774E+02 -0.79771332171E+01 -0.89357678141E+02  0.92139919945E+02  0.00000000000E+00 0. -1.
         13    1    1    2    0    0 -0.21007987774E+02  0.79771332171E+01 -0.10434010021E+03  0.10673250075E+03  0.00000000000E+00 0.  1.
<mgrwt>
<rscale>  0 0.45071170E+02</rscale>
<asrwt>0</asrwt>
<pdfrwt beam="2">  1        1 0.30197714E-01 0.45071170E+02</pdfrwt>
<pdfrwt beam="1">  1       -1 0.39804932E-03 0.45071170E+02</pdfrwt>
<totfact> 0.72533414E+05</totfact>
</mgrwt>
</event>
<event>
 4    1  0.2126213E+000  0.2949301E+02  0.7546771E-02  0.1603761E+00
          4   -1    0    0  501    0  0.00000000000E+00  0.00000000000E+00  0.27787458826E+02  0.27787458826E+02  0.00000000000E+00 0.  1.
         -4   -1    0    0    0  501 -0.00000000000E+00 -0.00000000000E+00 -0.78258105368E+01  0.78258105368E+01  0.00000000000E+00 0. -1.
        -13    1    1    2    0    0 -0.35881492023E+01  0.11203249722E+02 -0.75668373866E+00  0.11788137652E+02  0.00000000000E+00 0. -1.
         13    1    1    2    0    0  0.35881492023E+01 -0.11203249722E+02  0.20718332028E+02  0.23825131711E+02  0.00000000000E+00 0.  1.
<mgrwt>
<rscale>  0 0.29493009E+02</rscale>
<asrwt>0</asrwt>
<pdfrwt beam="1">  1        4 0.42749936E-02 0.29493009E+02</pdfrwt>
<pdfrwt beam="2">  1       -4 0.12039709E-02 0.29493009E+02</pdfrwt>
<totfact> 0.52938787E+05</totfact>
</mgrwt>
</event>
<event>
 4    1  0.2126213E+000  0.5662089E+02  0.7546771E-02  0.1412585E+00
         -2   -1    0    0    0  501 -0.00000000000E+00  0.00000000000E+00  0.38982020745E+01  0.38982020745E+01  0.00000000000E+00 0. -1.
          2   -1    0    0  501    0  0.00000000000E+00 -0.00000000000E+00 -0.20560281767E+03  0.20560281767E+03  0.00000000000E+00 0.  1.
        -11    1    1    2    0    0  0.20116418777E+02  0.19908591561E+02 -0.10335910715E+03  0.10716402079E+03  0.00000000000E+00 0.  1.
         11    1    1    2    0    0 -0.20116418777E+02 -0.19908591561E+02 -0.98345508448E+02  0.10233699895E+03  0.00000000000E+00 0. -1.
<mgrwt>
<rscale>  0 0.56620891E+02</rscale>
<asrwt>0</asrwt>
<pdfrwt beam="2">  1        2 0.31631198E-01 0.56620891E+02</pdfrwt>
<pdfrwt beam="1">  1       -2 0.59972348E-03 0.56620891E+02</pdfrwt>
<totfact> 0.54295679E+05</totfact>
</mgrwt>
</event>
<event>
 4    1  0.2126213E+000  0.5144504E+02  0.7546771E-02  0.1437700E+00
         -2   -1    0    0    0  501 -0.00000000000E+00  0.00000000000E+00  0.53534127619E+01  0.53534127619E+01  0.00000000000E+00 0.  1.
          2   -1    0    0  501    0  0.00000000000E+00 -0.00000000000E+00 -0.12359367356E+03  0.12359367356E+03  0.00000000000E+00 0. -1.
        -11    1    1    2    0    0 -0.23129718598E+02  0.59172397006E+01 -0.83115922765E+02  0.86476899951E+02  0.00000000000E+00 0. -1.
         11    1    1    2    0    0  0.23129718598E+02 -0.59172397006E+01 -0.35124338033E+02  0.42470186371E+02  0.00000000000E+00 0.  1.
<mgrwt>
<rscale>  0 0.51445037E+02</rscale>
<asrwt>0</asrwt>
<pdfrwt beam="2">  1        2 0.19014412E-01 0.51445037E+02</pdfrwt>
<pdfrwt beam="1">  1       -2 0.82360194E-03 0.51445037E+02</pdfrwt>
<totfact> 0.59022484E+05</totfact>
</mgrwt>
</event>
<event>
 4    1  0.2126213E+000  0.3904403E+02  0.7546771E-02  0.1515367E+00
          4   -1    0    0  501    0  0.00000000000E+00  0.00000000000E+00  0.10147215323E+02  0.10147215323E+02  0.00000000000E+00 0.  1.
         -4   -1    0    0    0  501 -0.00000000000E+00 -0.00000000000E+00 -0.37557990635E+02  0.37557990635E+02  0.00000000000E+00 0. -1.
        -11    1    1    2    0    0 -0.16971026617E+02  0.50963024241E+01 -0.36952443295E+01  0.18100908085E+02  0.00000000000E+00 0.  1.
         11    1    1    2    0    0  0.16971026617E+02 -0.50963024241E+01 -0.23715530982E+02  0.29604297874E+02  0.00000000000E+00 0. -1.
<mgrwt>
<rscale>  0 0.39044027E+02</rscale>
<asrwt>0</asrwt>
<pdfrwt beam="1">  1        4 0.15611100E-02 0.39044027E+02</pdfrwt>
<pdfrwt beam="2">  1       -4 0.57781525E-02 0.39044027E+02</pdfrwt>
<totfact> 0.26505640E+05</totfact>
</mgrwt>
</event>
<event>
 4    1  0.2126213E+000  0.3266979E+02  0.7546771E-02  0.1570324E+00
          4   -1    0    0  501    0  0.00000000000E+00  0.00000000000E+00  0.95928259028E+01  0.95928259028E+01  0.00000000000E+00 0. -1.
         -4   -1    0    0    0  501 -0.00000000000E+00 -0.00000000000E+00 -0.27815445652E+02  0.27815445652E+02  0.00000000000E+00 0.  1.
        -13    1    1    2    0    0 -0.11037075795E+02 -0.11033909574E+02 -0.35883937413E+01  0.16013768208E+02  0.00000000000E+00 0. -1.
         13    1    1    2    0    0  0.11037075795E+02  0.11033909574E+02 -0.14634226008E+02  0.21394503347E+02  0.00000000000E+00 0.  1.
<mgrwt>
<rscale>  0 0.32669786E+02</rscale>
<asrwt>0</asrwt>
<pdfrwt beam="1">  1        4 0.14758194E-02 0.32669786E+02</pdfrwt>
<pdfrwt beam="2">  1       -4 0.42792992E-02 0.32669786E+02</pdfrwt>
<totfact> 0.41663557E+05</totfact>
</mgrwt>
</event>
<event>
 4    1  0.2126213E+000  0.3378836E+02  0.7546771E-02  0.1559631E+00
          4   -1    0    0  501    0  0.00000000000E+00  0.00000000000E+00  0.63372600981E+02  0.63372600981E+02  0.00000000000E+00 0. -1.
         -4   -1    0    0    0  501 -0.00000000000E+00 -0.00000000000E+00 -0.45037326094E+01  0.45037326094E+01  0.00000000000E+00 0.  1.
        -11    1    1    2    0    0  0.65232055682E+01  0.99635329605E+01  0.53624452470E+01  0.13060628582E+02  0.00000000000E+00 0.  1.
         11    1    1    2    0    0 -0.65232055682E+01 -0.99635329605E+01  0.53506423125E+02  0.54815705008E+02  0.00000000000E+00 0. -1.
<mgrwt>
<rscale>  0 0.33788356E+02</rscale>
<asrwt>0</asrwt>
<pdfrwt beam="1">  1        4 0.97496302E-02 0.33788356E+02</pdfrwt>
<pdfrwt beam="2">  1       -4 0.69288199E-03 0.33788356E+02</pdfrwt>
<totfact> 0.34860863E+05</totfact>
</mgrwt>
</event>
<event>
 4    1  0.2126213E+000  0.2861308E+02  0.7546771E-02  0.1613945E+00
         -2   -1    0    0    0  501 -0.00000000000E+00  0.00000000000E+00  0.45843186740E+02  0.45843186740E+02  0.00000000000E+00 0. -1.
          2   -1    0    0  501    0  0.00000000000E+00 -0.00000000000E+00 -0.44647234695E+01  0.44647234695E+01  0.00000000000E+00 0.  1.
        -13    1    1    2    0    0  0.11759681175E+02 -0.37184550096E+01  0.33435993347E+02  0.35638219092E+02  0.00000000000E+00 0. -1.
         13    1    1    2    0    0 -0.11759681175E+02  0.37184550096E+01  0.79424699240E+01  0.14669691117E+02  0.00000000000E+00 0.  1.
<mgrwt>
<rscale>  0 0.28613085E+02</rscale>
<asrwt>0</asrwt>
<pdfrwt beam="2">  1        2 0.68688057E-03 0.28613085E+02</pdfrwt>
<pdfrwt beam="1">  1       -2 0.70527976E-02 0.28613085E+02</pdfrwt>
<totfact> 0.15370567E+06</totfact>
</mgrwt>
</event>
<event>
 4    1  0.2126213E+000  0.2794217E+02  0.7546771E-02  0.1622016E+00
         -2   -1    0    0    0  501 -0.00000000000E+00  0.00000000000E+00  0.24002768358E+02  0.24002768358E+02  0.00000000000E+00 0. -1.
          2   -1    0    0  501    0  0.00000000000E+00 -0.00000000000E+00 -0.81320317915E+01  0.81320317915E+01  0.00000000000E+00 0.  1.
        -13    1    1    2    0    0 -0.28581027399E+01 -0.12843203704E+02  0.13338707690E+02  0.18736001588E+02  0.00000000000E+00 0. -1.
         13    1    1    2    0    0  0.28581027399E+01  0.12843203704E+02  0.25320288768E+01  0.13398798562E+02  0.00000000000E+00 0.  1.
<mgrwt>
<rscale>  0 0.27942174E+02</rscale>
<asrwt>0</asrwt>
<pdfrwt beam="2">  1        2 0.12510818E-02 0.27942174E+02</pdfrwt>
<pdfrwt beam="1">  1       -2 0.36927336E-02 0.27942174E+02</pdfrwt>
<totfact> 0.17521737E+06</totfact>
</mgrwt>
</event>
<event>
 4    1  0.2126213E+000  0.4167509E+02  0.7546771E-02  0.1496234E+00
          1   -1    0    0  501    0  0.00000000000E+00  0.00000000000E+00  0.42867679382E+02  0.42867679382E+02  0.00000000000E+00 0. -1.
         -1   -1    0    0    0  501 -0.00000000000E+00 -0.00000000000E+00 -0.10128919857E+02  0.10128919857E+02  0.00000000000E+00 0.  1.
        -13    1    1    2    0    0  0.19352712827E+01  0.19364848948E+02  0.25839683049E+02  0.32348599193E+02  0.00000000000E+00 0. -1.
         13    1    1    2    0    0 -0.19352712827E+01 -0.19364848948E+02  0.68990764759E+01  0.20648000046E+02  0.00000000000E+00 0.  1.
<mgrwt>
<rscale>  0 0.41675090E+02</rscale>
<asrwt>0</asrwt>
<pdfrwt beam="1">  1        1 0.65950275E-02 0.41675090E+02</pdfrwt>
<pdfrwt beam="2">  1       -1 0.15582954E-02 0.41675090E+02</pdfrwt>
<totfact> 0.72811763E+05</totfact>
</mgrwt>
</event>
<event>
 4    1  0.2126213E+000  0.3479427E+02  0.7546771E-02  0.1550435E+00
          4   -1    0    0  501    0  0.00000000000E+00  0.00000000000E+00  0.46079088861E+01  0.46079088861E+01  0.00000000000E+00 0.  1.
         -4   -1    0    0    0  501 -0.00000000000E+00 -0.00000000000E+00 -0.65682784604E+02  0.65682784604E+02  0.00000000000E+00 0. -1.
        -13    1    1    2    0    0  0.83846836940E+01 -0.88254908662E+01 -0.55645285406E+02  0.56961302632E+02  0.00000000000E+00 0. -1.
         13    1    1    2    0    0 -0.83846836940E+01  0.88254908662E+01 -0.54295903118E+01  0.13329390858E+02  0.00000000000E+00 0.  1.
<mgrwt>
<rscale>  0 0.34794269E+02</rscale>
<asrwt>0</asrwt>
<pdfrwt beam="1">  1        4 0.70890902E-03 0.34794269E+02</pdfrwt>
<pdfrwt beam="2">  1       -4 0.10105044E-01 0.34794269E+02</pdfrwt>
<totfact> 0.32346736E+05</totfact>
</mgrwt>
</event>
<event>
 4    1  0.2126213E+000  0.4705130E+02  0.7546771E-02  0.1461928E+00
          3   -1    0    0  501    0  0.00000000000E+00  0.00000000000E+00  0.93677182106E+02  0.93677182106E+02  0.00000000000E+00 0. -1.
         -3   -1    0    0    0  501 -0.00000000000E+00 -0.00000000000E+00 -0.59081214408E+01  0.59081214408E+01  0.00000000000E+00 0.  1.
        -13    1    1    2    0    0  0.17120288309E+02  0.16122623076E+02  0.45244588159E+02  0.50991332639E+02  0.00000000000E+00 0. -1.
         13    1    1    2    0    0 -0.17120288309E+02 -0.16122623076E+02  0.42524472506E+02  0.48593970908E+02  0.00000000000E+00 0.  1.
<mgrwt>
<rscale>  0 0.47051298E+02</rscale>
<asrwt>0</asrwt>
<pdfrwt beam="1">  1        3 0.14411873E-01 0.47051298E+02</pdfrwt>
<pdfrwt beam="2">  1       -3 0.90894183E-03 0.47051298E+02</pdfrwt>
<totfact> 0.19450664E+05</totfact>
</mgrwt>
</event>
<event>
 4    1  0.2126213E+000  0.2669961E+02  0.7546771E-02  0.1637725E+00
         -2   -1    0    0    0  501 -0.00000000000E+00  0.00000000000E+00  0.78016078707E+01  0.78016078707E+01  0.00000000000E+00 0. -1.
          2   -1    0    0  501    0  0.00000000000E+00 -0.00000000000E+00 -0.22843669561E+02  0.22843669561E+02  0.00000000000E+00 0.  1.
        -13    1    1    2    0    0  0.84496801697E+01  0.10007978279E+02 -0.10483242996E+02  0.16776623853E+02  0.00000000000E+00 0. -1.
         13    1    1    2    0    0 -0.84496801697E+01 -0.10007978279E+02 -0.45588186947E+01  0.13868653579E+02  0.00000000000E+00 0.  1.
<mgrwt>
<rscale>  0 0.26699614E+02</rscale>
<asrwt>0</asrwt>
<pdfrwt beam="2">  1        2 0.35144107E-02 0.26699614E+02</pdfrwt>
<pdfrwt beam="1">  1       -2 0.12002474E-02 0.26699614E+02</pdfrwt>
<totfact> 0.21636509E+06</totfact>
</mgrwt>
</event>
<event>
 4    1  0.2126213E+000  0.3501240E+02  0.7546771E-02  0.1548490E+00
         -1   -1    0    0    0  501 -0.00000000000E+00  0.00000000000E+00  0.10556780650E+02  0.10556780650E+02  0.00000000000E+00 0.  1.
          1   -1    0    0  501    0  0.00000000000E+00 -0.00000000000E+00 -0.29030354572E+02  0.29030354572E+02  0.00000000000E+00 0. -1.
        -13    1    1    2    0    0 -0.12826088248E+02 -0.37852202234E+01 -0.22010279432E+02  0.25754394432E+02  0.00000000000E+00 0. -1.
         13    1    1    2    0    0  0.12826088248E+02  0.37852202234E+01  0.35367055101E+01  0.13832740789E+02  0.00000000000E+00 0.  1.
<mgrwt>
<rscale>  0 0.35012403E+02</rscale>
<asrwt>0</asrwt>
<pdfrwt beam="2">  1        1 0.44662083E-02 0.35012403E+02</pdfrwt>
<pdfrwt beam="1">  1       -1 0.16241201E-02 0.35012403E+02</pdfrwt>
<totfact> 0.10874961E+06</totfact>
</mgrwt>
</event>
<event>
 4    1  0.2126213E+000  0.2419302E+02  0.7546771E-02  0.1672871E+00
         -2   -1    0    0    0  501 -0.00000000000E+00  0.00000000000E+00  0.40114359979E+01  0.40114359979E+01  0.00000000000E+00 0.  1.
          2   -1    0    0  501    0  0.00000000000E+00 -0.00000000000E+00 -0.36477111676E+02  0.36477111676E+02  0.00000000000E+00 0. -1.
        -11    1    1    2    0    0  0.77131501121E+01 -0.68405896579E+01 -0.26822570604E+02  0.28735633721E+02  0.00000000000E+00 0. -1.
         11    1    1    2    0    0 -0.77131501121E+01  0.68405896579E+01 -0.56431050746E+01  0.11752913954E+02  0.00000000000E+00 0.  1.
<mgrwt>
<rscale>  0 0.24193024E+02</rscale>
<asrwt>0</asrwt>
<pdfrwt beam="2">  1        2 0.56118634E-02 0.24193024E+02</pdfrwt>
<pdfrwt beam="1">  1       -2 0.61714399E-03 0.24193024E+02</pdfrwt>
<totfact> 0.28776890E+06</totfact>
</mgrwt>
</event>
<event>
 4    1  0.2126213E+000  0.3737012E+02  0.7546771E-02  0.1528507E+00
         -1   -1    0    0    0  501 -0.00000000000E+00  0.00000000000E+00  0.13501262128E+03  0.13501262128E+03  0.00000000000E+00 0. -1.
          1   -1    0    0  501    0  0.00000000000E+00 -0.00000000000E+00 -0.25859172621E+01  0.25859172621E+01  0.00000000000E+00 0.  1.
        -13    1    1    2    0    0 -0.66661252696E+01 -0.16501743967E+02  0.45259079075E+02  0.48632592146E+02  0.00000000000E+00 0.  1.
         13    1    1    2    0    0  0.66661252696E+01  0.16501743967E+02  0.87167624946E+02  0.88965946400E+02  0.00000000000E+00 0. -1.
<mgrwt>
<rscale>  0 0.37370120E+02</rscale>
<asrwt>0</asrwt>
<pdfrwt beam="2">  1        1 0.39783353E-03 0.37370120E+02</pdfrwt>
<pdfrwt beam="1">  1       -1 0.20771167E-01 0.37370120E+02</pdfrwt>
<totfact> 0.71619117E+05</totfact>
</mgrwt>
</event>
<event>
 4    1  0.2126213E+000  0.2174016E+02  0.7546771E-02  0.1712785E+00
         -2   -1    0    0    0  501 -0.00000000000E+00  0.00000000000E+00  0.24202464382E+02  0.24202464382E+02  0.00000000000E+00 0.  1.
          2   -1    0    0  501    0  0.00000000000E+00 -0.00000000000E+00 -0.48820931811E+01  0.48820931811E+01  0.00000000000E+00 0. -1.
        -11    1    1    2    0    0 -0.89516239771E+01 -0.53789347567E+01  0.13694607399E+02  0.17222275772E+02  0.00000000000E+00 0. -1.
         11    1    1    2    0    0  0.89516239771E+01  0.53789347567E+01  0.56257638020E+01  0.11862281791E+02  0.00000000000E+00 0.  1.
<mgrwt>
<rscale>  0 0.21740164E+02</rscale>
<asrwt>0</asrwt>
<pdfrwt beam="2">  1        2 0.75109127E-03 0.21740164E+02</pdfrwt>
<pdfrwt beam="1">  1       -2 0.37234560E-02 0.21740164E+02</pdfrwt>
<totfact> 0.30668126E+06</totfact>
</mgrwt>
</event>
<event>
 4    1  0.2126213E+000  0.6194421E+02  0.7546771E-02  0.1389849E+00
          4   -1    0    0  501    0  0.00000000000E+00  0.00000000000E+00  0.39435957167E+02  0.39435957167E+02  0.00000000000E+00 0.  1.
         -4   -1    0    0    0  501 -0.00000000000E+00 -0.00000000000E+00 -0.24324789833E+02  0.24324789833E+02  0.00000000000E+00 0. -1.
        -13    1    1    2    0    0 -0.29526195265E+02 -0.22975492334E+00 -0.20686013126E+01  0.29599461238E+02  0.00000000000E+00 0. -1.
         13    1    1    2    0    0  0.29526195265E+02  0.22975492334E+00  0.17179768647E+02  0.34161285762E+02  0.00000000000E+00 0.  1.
<mgrwt>
<rscale>  0 0.61944213E+02</rscale>
<asrwt>0</asrwt>
<pdfrwt beam="1">  1        4 0.60670703E-02 0.61944213E+02</pdfrwt>
<pdfrwt beam="2">  1       -4 0.37422754E-02 0.61944213E+02</pdfrwt>
<totfact> 0.80551204E+04</totfact>
</mgrwt>
</event>
<event>
 4    1  0.2126213E+000  0.6349235E+02  0.7546771E-02  0.1383734E+00
          3   -1    0    0  501    0  0.00000000000E+00  0.00000000000E+00  0.30757908826E+02  0.30757908826E+02  0.00000000000E+00 0. -1.
         -3   -1    0    0    0  501 -0.00000000000E+00 -0.00000000000E+00 -0.32766194631E+02  0.32766194631E+02  0.00000000000E+00 0.  1.
        -13    1    1    2    0    0 -0.15201002522E+02  0.38277391167E+01 -0.28624063714E+02  0.32635243035E+02  0.00000000000E+00 0.  1.
         13    1    1    2    0    0  0.15201002522E+02 -0.38277391167E+01  0.26615777910E+02  0.30888860422E+02  0.00000000000E+00 0. -1.
<mgrwt>
<rscale>  0 0.63492350E+02</rscale>
<asrwt>0</asrwt>
<pdfrwt beam="1">  1        3 0.47319860E-02 0.63492350E+02</pdfrwt>
<pdfrwt beam="2">  1       -3 0.50409530E-02 0.63492350E+02</pdfrwt>
<totfact> 0.98880221E+04</totfact>
</mgrwt>
</event>
<event>
 4    1  0.2126213E+000  0.1160843E+03  0.7546771E-02  0.1249700E+00
          3   -1    0    0  501    0  0.00000000000E+00  0.00000000000E+00  0.27497833521E+03  0.27497833521E+03  0.00000000000E+00 0. -1.
         -3   -1    0    0    0  501 -0.00000000000E+00 -0.00000000000E+00 -0.12251488102E+02  0.12251488102E+02  0.00000000000E+00 0.  1.
        -13    1    1    2    0    0 -0.57331181884E+01  0.44520343613E+02  0.22240912781E+03  0.22689369708E+03  0.00000000000E+00 0. -1.
         13    1    1    2    0    0  0.57331181884E+01 -0.44520343613E+02  0.40317719296E+02  0.60336126233E+02  0.00000000000E+00 0.  1.
<mgrwt>
<rscale>  0 0.11608435E+03</rscale>
<asrwt>0</asrwt>
<pdfrwt beam="1">  1        3 0.42304355E-01 0.11608435E+03</pdfrwt>
<pdfrwt beam="2">  1       -3 0.18848445E-02 0.11608435E+03</pdfrwt>
<totfact> 0.12702716E+04</totfact>
</mgrwt>
</event>
<event>
 4    1  0.2126213E+000  0.2474923E+02  0.7546771E-02  0.1664630E+00
          2   -1    0    0  501    0  0.00000000000E+00  0.00000000000E+00  0.24154650736E+01  0.24154650736E+01  0.00000000000E+00 0. -1.
         -2   -1    0    0    0  501 -0.00000000000E+00 -0.00000000000E+00 -0.63396135145E+02  0.63396135145E+02  0.00000000000E+00 0.  1.
        -11    1    1    2    0    0  0.79706037086E+01  0.91998180451E+01 -0.36414886312E+02  0.38395457031E+02  0.00000000000E+00 0.  1.
         11    1    1    2    0    0 -0.79706037086E+01 -0.91998180451E+01 -0.24565783760E+02  0.27416143187E+02  0.00000000000E+00 0. -1.
<mgrwt>
<rscale>  0 0.24749234E+02</rscale>
<asrwt>0</asrwt>
<pdfrwt beam="1">  1        2 0.37161000E-03 0.24749234E+02</pdfrwt>
<pdfrwt beam="2">  1       -2 0.97532519E-02 0.24749234E+02</pdfrwt>
<totfact> 0.20339119E+06</totfact>
</mgrwt>
</event>
<event>
 4    1  0.2126213E+000  0.5230374E+02  0.7546771E-02  0.1433298E+00
          2   -1    0    0  501    0  0.00000000000E+00  0.00000000000E+00  0.10799699747E+03  0.10799699747E+03  0.00000000000E+00 0. -1.
         -2   -1    0    0    0  501 -0.00000000000E+00 -0.00000000000E+00 -0.63327707280E+01  0.63327707280E+01  0.00000000000E+00 0.  1.
        -13    1    1    2    0    0 -0.17690095910E+02  0.19239368605E+02  0.48843770152E+02  0.55396811103E+02  0.00000000000E+00 0. -1.
         13    1    1    2    0    0  0.17690095910E+02 -0.19239368605E+02  0.52820456589E+02  0.58932957094E+02  0.00000000000E+00 0.  1.
<mgrwt>
<rscale>  0 0.52303737E+02</rscale>
<asrwt>0</asrwt>
<pdfrwt beam="1">  1        2 0.16614921E-01 0.52303737E+02</pdfrwt>
<pdfrwt beam="2">  1       -2 0.97427250E-03 0.52303737E+02</pdfrwt>
<totfact> 0.54509760E+05</totfact>
</mgrwt>
</event>
<event>
 4    1  0.2126213E+000  0.5115571E+02  0.7546771E-02  0.1439206E+00
          2   -1    0    0  501    0  0.00000000000E+00  0.00000000000E+00  0.29808195565E+02  0.29808195565E+02  0.00000000000E+00 0. -1.
         -2   -1    0    0    0  501 -0.00000000000E+00 -0.00000000000E+00 -0.21947876528E+02  0.21947876528E+02  0.00000000000E+00 0.  1.
        -13    1    1    2    0    0  0.11928151300E+02 -0.73071413166E+01  0.25595288030E+02  0.29168371175E+02  0.00000000000E+00 0. -1.
         13    1    1    2    0    0 -0.11928151300E+02  0.73071413166E+01 -0.17734968992E+02  0.22587700919E+02  0.00000000000E+00 0.  1.
<mgrwt>
<rscale>  0 0.51155707E+02</rscale>
<asrwt>0</asrwt>
<pdfrwt beam="1">  1        2 0.45858763E-02 0.51155707E+02</pdfrwt>
<pdfrwt beam="2">  1       -2 0.33765964E-02 0.51155707E+02</pdfrwt>
<totfact> 0.44168967E+05</totfact>
</mgrwt>
</event>
<event>
 4    1  0.2126213E+000  0.3346343E+02  0.7546771E-02  0.1562685E+00
          4   -1    0    0  501    0  0.00000000000E+00  0.00000000000E+00  0.28463425238E+02  0.28463425238E+02  0.00000000000E+00 0. -1.
         -4   -1    0    0    0  501 -0.00000000000E+00 -0.00000000000E+00 -0.98354412084E+01  0.98354412084E+01  0.00000000000E+00 0.  1.
        -13    1    1    2    0    0  0.13016660029E+02  0.75094496388E-01  0.21345462266E+02  0.25001356700E+02  0.00000000000E+00 0. -1.
         13    1    1    2    0    0 -0.13016660029E+02 -0.75094496388E-01 -0.27174782367E+01  0.13297509746E+02  0.00000000000E+00 0.  1.
<mgrwt>
<rscale>  0 0.33463434E+02</rscale>
<asrwt>0</asrwt>
<pdfrwt beam="1">  1        4 0.43789885E-02 0.33463434E+02</pdfrwt>
<pdfrwt beam="2">  1       -4 0.15131448E-02 0.33463434E+02</pdfrwt>
<totfact> 0.39296881E+05</totfact>
</mgrwt>
</event>
<event>
 4    1  0.2126213E+000  0.2290914E+02  0.7546771E-02  0.1692987E+00
          4   -1    0    0  501    0  0.00000000000E+00  0.00000000000E+00  0.76954927517E+02  0.76954927517E+02  0.00000000000E+00 0. -1.
         -4   -1    0    0    0  501 -0.00000000000E+00 -0.00000000000E+00 -0.17049875939E+01  0.17049875939E+01  0.00000000000E+00 0.  1.
        -13    1    1    2    0    0 -0.61068491941E+00 -0.11246166580E+02  0.30457132358E+02  0.32472851897E+02  0.00000000000E+00 0.  1.
         13    1    1    2    0    0  0.61068491941E+00  0.11246166580E+02  0.44792807565E+02  0.46187063214E+02  0.00000000000E+00 0. -1.
<mgrwt>
<rscale>  0 0.22909142E+02</rscale>
<asrwt>0</asrwt>
<pdfrwt beam="1">  1        4 0.11839217E-01 0.22909142E+02</pdfrwt>
<pdfrwt beam="2">  1       -4 0.26230584E-03 0.22909142E+02</pdfrwt>
<totfact> 0.79157108E+05</totfact>
</mgrwt>
</event>
<event>
 4    1  0.2126213E+000  0.2251168E+02  0.7546771E-02  0.1699550E+00
         -2   -1    0    0    0  501 -0.00000000000E+00  0.00000000000E+00  0.28871117366E+01  0.28871117366E+01  0.00000000000E+00 0.  1.
          2   -1    0    0  501    0  0.00000000000E+00 -0.00000000000E+00 -0.43882580672E+02  0.43882580672E+02  0.00000000000E+00 0. -1.
        -11    1    1    2    0    0 -0.99263382789E+01 -0.51268226574E+01 -0.23344399584E+02  0.25880059778E+02  0.00000000000E+00 0. -1.
         11    1    1    2    0    0  0.99263382789E+01  0.51268226574E+01 -0.17651069352E+02  0.20889632631E+02  0.00000000000E+00 0.  1.
<mgrwt>
<rscale>  0 0.22511678E+02</rscale>
<asrwt>0</asrwt>
<pdfrwt beam="2">  1        2 0.67511653E-02 0.22511678E+02</pdfrwt>
<pdfrwt beam="1">  1       -2 0.44417110E-03 0.22511678E+02</pdfrwt>
<totfact> 0.34811015E+06</totfact>
</mgrwt>
</event>
<event>
 4    1  0.2126213E+000  0.4110335E+02  0.7546771E-02  0.1500245E+00
         -4   -1    0    0    0  501 -0.00000000000E+00  0.00000000000E+00  0.24434650843E+02  0.24434650843E+02  0.00000000000E+00 0.  1.
          4   -1    0    0  501    0  0.00000000000E+00 -0.00000000000E+00 -0.17285751312E+02  0.17285751312E+02  0.00000000000E+00 0. -1.
        -11    1    1    2    0    0 -0.92507562790E+01 -0.15686091454E+02  0.13243278954E+02  0.22516980133E+02  0.00000000000E+00 0. -1.
         11    1    1    2    0    0  0.92507562790E+01  0.15686091454E+02 -0.60943794231E+01  0.19203422023E+02  0.00000000000E+00 0.  1.
<mgrwt>
<rscale>  0 0.41103348E+02</rscale>
<asrwt>0</asrwt>
<pdfrwt beam="2">  1        4 0.26593464E-02 0.41103348E+02</pdfrwt>
<pdfrwt beam="1">  1       -4 0.37591770E-02 0.41103348E+02</pdfrwt>
<totfact> 0.23913480E+05</totfact>
</mgrwt>
</event>
<event>
 4    1  0.2126213E+000  0.4459584E+02  0.7546771E-02  0.1476881E+00
         -2   -1    0    0    0  501 -0.00000000000E+00  0.00000000000E+00  0.76210269712E+02  0.76210269712E+02  0.00000000000E+00 0.  1.
          2   -1    0    0  501    0  0.00000000000E+00 -0.00000000000E+00 -0.65240185081E+01  0.65240185081E+01  0.00000000000E+00 0. -1.
        -13    1    1    2    0    0 -0.10225257165E+02 -0.19815165710E+02  0.34885992117E+02  0.41403250141E+02  0.00000000000E+00 0. -1.
         13    1    1    2    0    0  0.10225257165E+02  0.19815165710E+02  0.34800259086E+02  0.41331038079E+02  0.00000000000E+00 0.  1.
<mgrwt>
<rscale>  0 0.44595839E+02</rscale>
<asrwt>0</asrwt>
<pdfrwt beam="2">  1        2 0.10036952E-02 0.44595839E+02</pdfrwt>
<pdfrwt beam="1">  1       -2 0.11724656E-01 0.44595839E+02</pdfrwt>
<totfact> 0.49574699E+05</totfact>
</mgrwt>
</event>
<event>
 4    1  0.2126213E+000  0.2503837E+02  0.7546771E-02  0.1660451E+00
         -2   -1    0    0    0  501 -0.00000000000E+00  0.00000000000E+00  0.66877804966E+02  0.66877804966E+02  0.00000000000E+00 0. -1.
          2   -1    0    0  501    0  0.00000000000E+00 -0.00000000000E+00 -0.23435279209E+01  0.23435279209E+01  0.00000000000E+00 0.  1.
        -11    1    1    2    0    0  0.12238867847E+02 -0.13650901067E+01  0.38496195922E+02  0.40417947222E+02  0.00000000000E+00 0. -1.
         11    1    1    2    0    0 -0.12238867847E+02  0.13650901067E+01  0.26038081123E+02  0.28803385665E+02  0.00000000000E+00 0.  1.
<mgrwt>
<rscale>  0 0.25038371E+02</rscale>
<asrwt>0</asrwt>
<pdfrwt beam="2">  1        2 0.36054281E-03 0.25038371E+02</pdfrwt>
<pdfrwt beam="1">  1       -2 0.10288892E-01 0.25038371E+02</pdfrwt>
<totfact> 0.19627064E+06</totfact>
</mgrwt>
</event>
<event>
 4    1  0.2126213E+000  0.2874877E+02  0.7546771E-02  0.1612346E+00
          3   -1    0    0  501    0  0.00000000000E+00  0.00000000000E+00  0.11138338337E+02  0.11138338337E+02  0.00000000000E+00 0.  1.
         -3   -1    0    0    0  501 -0.00000000000E+00 -0.00000000000E+00 -0.18550603505E+02  0.18550603505E+02  0.00000000000E+00 0. -1.
        -13    1    1    2    0    0  0.12028797124E+02  0.69584543756E+01  0.89785620856E-01  0.13896766135E+02  0.00000000000E+00 0.  1.
         13    1    1    2    0    0 -0.12028797124E+02 -0.69584543756E+01 -0.75020507880E+01  0.15792175707E+02  0.00000000000E+00 0. -1.
<mgrwt>
<rscale>  0 0.28748767E+02</rscale>
<asrwt>0</asrwt>
<pdfrwt beam="1">  1        3 0.17135905E-02 0.28748767E+02</pdfrwt>
<pdfrwt beam="2">  1       -3 0.28539390E-02 0.28748767E+02</pdfrwt>
<totfact> 0.76753568E+05</totfact>
</mgrwt>
</event>
<event>
 4    1  0.2126213E+000  0.2246647E+02  0.7546771E-02  0.1700307E+00
          4   -1    0    0  501    0  0.00000000000E+00  0.00000000000E+00  0.63880535117E+02  0.63880535117E+02  0.00000000000E+00 0. -1.
         -4   -1    0    0    0  501 -0.00000000000E+00 -0.00000000000E+00 -0.19753366921E+01  0.19753366921E+01  0.00000000000E+00 0.  1.
        -13    1    1    2    0    0 -0.10871920945E+02 -0.76205653526E+00  0.22975288645E+02  0.25429181731E+02  0.00000000000E+00 0.  1.
         13    1    1    2    0    0  0.10871920945E+02  0.76205653526E+00  0.38929909780E+02  0.40426690078E+02  0.00000000000E+00 0. -1.
<mgrwt>
<rscale>  0 0.22466470E+02</rscale>
<asrwt>0</asrwt>
<pdfrwt beam="1">  1        4 0.98277731E-02 0.22466470E+02</pdfrwt>
<pdfrwt beam="2">  1       -4 0.30389800E-03 0.22466470E+02</pdfrwt>
<totfact> 0.85881447E+05</totfact>
</mgrwt>
</event>
<event>
 4    1  0.2126213E+000  0.3585091E+02  0.7546771E-02  0.1541172E+00
         -4   -1    0    0    0  501 -0.00000000000E+00  0.00000000000E+00  0.14348501884E+02  0.14348501884E+02  0.00000000000E+00 0. -1.
          4   -1    0    0  501    0  0.00000000000E+00 -0.00000000000E+00 -0.22394112937E+02  0.22394112937E+02  0.00000000000E+00 0.  1.
        -11    1    1    2    0    0 -0.12778065645E+02  0.33874775507E+01  0.83848418488E+01  0.15654377618E+02  0.00000000000E+00 0. -1.
         11    1    1    2    0    0  0.12778065645E+02 -0.33874775507E+01 -0.16430452902E+02  0.21088237203E+02  0.00000000000E+00 0.  1.
<mgrwt>
<rscale>  0 0.35850912E+02</rscale>
<asrwt>0</asrwt>
<pdfrwt beam="2">  1        4 0.34452481E-02 0.35850912E+02</pdfrwt>
<pdfrwt beam="1">  1       -4 0.22074618E-02 0.35850912E+02</pdfrwt>
<totfact> 0.33666932E+05</totfact>
</mgrwt>
</event>
<event>
 4    1  0.2126213E+000  0.2562449E+02  0.7546771E-02  0.1652191E+00
          2   -1    0    0  501    0  0.00000000000E+00  0.00000000000E+00  0.95232286998E+01  0.95232286998E+01  0.00000000000E+00 0. -1.
         -2   -1    0    0    0  501 -0.00000000000E+00 -0.00000000000E+00 -0.17237180095E+02  0.17237180095E+02  0.00000000000E+00 0.  1.
        -11    1    1    2    0    0 -0.11223311339E+02 -0.20102699145E+01 -0.99598020595E+01  0.15139404202E+02  0.00000000000E+00 0.  1.
         11    1    1    2    0    0  0.11223311339E+02  0.20102699145E+01  0.22458506645E+01  0.11621004593E+02  0.00000000000E+00 0. -1.
<mgrwt>
<rscale>  0 0.25624489E+02</rscale>
<asrwt>0</asrwt>
<pdfrwt beam="1">  1        2 0.14651121E-02 0.25624489E+02</pdfrwt>
<pdfrwt beam="2">  1       -2 0.26518739E-02 0.25624489E+02</pdfrwt>
<totfact> 0.21972712E+06</totfact>
</mgrwt>
</event>
<event>
 4    1  0.2126213E+000  0.2741047E+02  0.7546771E-02  0.1628613E+00
          4   -1    0    0  501    0  0.00000000000E+00  0.00000000000E+00  0.23517512088E+02  0.23517512088E+02  0.00000000000E+00 0. -1.
         -4   -1    0    0    0  501 -0.00000000000E+00 -0.00000000000E+00 -0.79869591408E+01  0.79869591408E+01  0.00000000000E+00 0.  1.
        -11    1    1    2    0    0 -0.44339538778E+01  0.10310818205E+02  0.16805152083E+02  0.20208563917E+02  0.00000000000E+00 0. -1.
         11    1    1    2    0    0  0.44339538778E+01 -0.10310818205E+02 -0.12745991352E+01  0.11295907312E+02  0.00000000000E+00 0.  1.
<mgrwt>
<rscale>  0 0.27410466E+02</rscale>
<asrwt>0</asrwt>
<pdfrwt beam="1">  1        4 0.36180787E-02 0.27410466E+02</pdfrwt>
<pdfrwt beam="2">  1       -4 0.12287630E-02 0.27410466E+02</pdfrwt>
<totfact> 0.63300871E+05</totfact>
</mgrwt>
</event>
<event>
 4    1  0.2126213E+000  0.2850250E+02  0.7546771E-02  0.1615257E+00
          2   -1    0    0  501    0  0.00000000000E+00  0.00000000000E+00  0.21797607636E+01  0.21797607636E+01  0.00000000000E+00 0. -1.
         -2   -1    0    0    0  501 -0.00000000000E+00 -0.00000000000E+00 -0.93174489452E+02  0.93174489452E+02  0.00000000000E+00 0.  1.
        -11    1    1    2    0    0  0.11948463678E+02  0.62718266758E+01 -0.60826956801E+02  0.62305860621E+02  0.00000000000E+00 0. -1.
         11    1    1    2    0    0 -0.11948463678E+02 -0.62718266758E+01 -0.30167771887E+02  0.33048389594E+02  0.00000000000E+00 0.  1.
<mgrwt>
<rscale>  0 0.28502498E+02</rscale>
<asrwt>0</asrwt>
<pdfrwt beam="1">  1        2 0.33534785E-03 0.28502498E+02</pdfrwt>
<pdfrwt beam="2">  1       -2 0.14334535E-01 0.28502498E+02</pdfrwt>
<totfact> 0.13652029E+06</totfact>
</mgrwt>
</event>
<event>
 4    1  0.2126213E+000  0.3013601E+02  0.7546771E-02  0.1596590E+00
          2   -1    0    0  501    0  0.00000000000E+00  0.00000000000E+00  0.52783849303E+01  0.52783849303E+01  0.00000000000E+00 0. -1.
         -2   -1    0    0    0  501 -0.00000000000E+00 -0.00000000000E+00 -0.43014062531E+02  0.43014062531E+02  0.00000000000E+00 0.  1.
        -11    1    1    2    0    0 -0.10901098280E+02  0.42037540950E+01 -0.34115807639E+02  0.36060973685E+02  0.00000000000E+00 0.  1.
         11    1    1    2    0    0  0.10901098280E+02 -0.42037540950E+01 -0.36198699612E+01  0.12231473776E+02  0.00000000000E+00 0. -1.
<mgrwt>
<rscale>  0 0.30136010E+02</rscale>
<asrwt>0</asrwt>
<pdfrwt beam="1">  1        2 0.81205920E-03 0.30136010E+02</pdfrwt>
<pdfrwt beam="2">  1       -2 0.66175482E-02 0.30136010E+02</pdfrwt>
<totfact> 0.13764393E+06</totfact>
</mgrwt>
</event>
<event>
 4    1  0.2126213E+000  0.3035013E+02  0.7546771E-02  0.1594250E+00
         -4   -1    0    0    0  501 -0.00000000000E+00  0.00000000000E+00  0.46540052255E+02  0.46540052255E+02  0.00000000000E+00 0.  1.
          4   -1    0    0  501    0  0.00000000000E+00 -0.00000000000E+00 -0.49480521140E+01  0.49480521140E+01  0.00000000000E+00 0. -1.
        -13    1    1    2    0    0 -0.95862392471E+01  0.10483475029E+02  0.11741967655E+02  0.18430220725E+02  0.00000000000E+00 0.  1.
         13    1    1    2    0    0  0.95862392471E+01 -0.10483475029E+02  0.29850032486E+02  0.33057883644E+02  0.00000000000E+00 0. -1.
<mgrwt>
<rscale>  0 0.30350130E+02</rscale>
<asrwt>0</asrwt>
<pdfrwt beam="2">  1        4 0.76123882E-03 0.30350130E+02</pdfrwt>
<pdfrwt beam="1">  1       -4 0.71600077E-02 0.30350130E+02</pdfrwt>
<totfact> 0.46913206E+05</totfact>
</mgrwt>
</event>
<event>
 4    1  0.2126213E+000  0.2624270E+02  0.7546771E-02  0.1643768E+00
          2   -1    0    0  501    0  0.00000000000E+00  0.00000000000E+00  0.20567100901E+02  0.20567100901E+02  0.00000000000E+00 0. -1.
         -2   -1    0    0    0  501 -0.00000000000E+00 -0.00000000000E+00 -0.83711256493E+01  0.83711256493E+01  0.00000000000E+00 0.  1.
        -11    1    1    2    0    0  0.65604395839E+01  0.10932400274E+02  0.26790287229E+01  0.13028197810E+02  0.00000000000E+00 0.  1.
         11    1    1    2    0    0 -0.65604395839E+01 -0.10932400274E+02  0.95169465290E+01  0.15910028740E+02  0.00000000000E+00 0. -1.
<mgrwt>
<rscale>  0 0.26242697E+02</rscale>
<asrwt>0</asrwt>
<pdfrwt beam="1">  1        2 0.31641694E-02 0.26242697E+02</pdfrwt>
<pdfrwt beam="2">  1       -2 0.12878655E-02 0.26242697E+02</pdfrwt>
<totfact> 0.22296833E+06</totfact>
</mgrwt>
</event>
<event>
 4    1  0.2126213E+000  0.2794630E+02  0.7546771E-02  0.1621966E+00
         -2   -1    0    0    0  501 -0.00000000000E+00  0.00000000000E+00  0.13633362541E+02  0.13633362541E+02  0.00000000000E+00 0.  1.
          2   -1    0    0  501    0  0.00000000000E+00 -0.00000000000E+00 -0.14321409005E+02  0.14321409005E+02  0.00000000000E+00 0. -1.
        -13    1    1    2    0    0 -0.23493627811E+01  0.12732324577E+02 -0.56008385193E+01  0.14106770954E+02  0.00000000000E+00 0. -1.
         13    1    1    2    0    0  0.23493627811E+01 -0.12732324577E+02  0.49127920554E+01  0.13848000592E+02  0.00000000000E+00 0.  1.
<mgrwt>
<rscale>  0 0.27946303E+02</rscale>
<asrwt>0</asrwt>
<pdfrwt beam="2">  1        2 0.22032937E-02 0.27946303E+02</pdfrwt>
<pdfrwt beam="1">  1       -2 0.20974404E-02 0.27946303E+02</pdfrwt>
<totfact> 0.18515515E+06</totfact>
</mgrwt>
</event>
<event>
 4    1  0.2126213E+000  0.2813956E+02  0.7546771E-02  0.1619613E+00
         -1   -1    0    0    0  501 -0.00000000000E+00  0.00000000000E+00  0.79308878582E+02  0.79308878582E+02  0.00000000000E+00 0.  1.
          1   -1    0    0  501    0  0.00000000000E+00 -0.00000000000E+00 -0.24960473186E+01  0.24960473186E+01  0.00000000000E+00 0. -1.
        -13    1    1    2    0    0  0.10592680565E+02 -0.53757815637E+01  0.60326677319E+02  0.61485054325E+02  0.00000000000E+00 0.  1.
         13    1    1    2    0    0 -0.10592680565E+02  0.53757815637E+01  0.16486153945E+02  0.20319871576E+02  0.00000000000E+00 0. -1.
<mgrwt>
<rscale>  0 0.28139560E+02</rscale>
<asrwt>0</asrwt>
<pdfrwt beam="2">  1        1 0.38400734E-03 0.28139560E+02</pdfrwt>
<pdfrwt beam="1">  1       -1 0.12201364E-01 0.28139560E+02</pdfrwt>
<totfact> 0.15292865E+06</totfact>
</mgrwt>
</event>
<event>
 4    1  0.2126213E+000  0.2590276E+02  0.7546771E-02  0.1648364E+00
          2   -1    0    0  501    0  0.00000000000E+00  0.00000000000E+00  0.94681554430E+02  0.94681554430E+02  0.00000000000E+00 0. -1.
         -2   -1    0    0    0  501 -0.00000000000E+00 -0.00000000000E+00 -0.17716042776E+01  0.17716042776E+01  0.00000000000E+00 0.  1.
        -11    1    1    2    0    0  0.92696943295E+01  0.87344844574E+01  0.55203440688E+02  0.56653669921E+02  0.00000000000E+00 0. -1.
         11    1    1    2    0    0 -0.92696943295E+01 -0.87344844574E+01  0.37706509464E+02  0.39799488787E+02  0.00000000000E+00 0.  1.
<mgrwt>
<rscale>  0 0.25902760E+02</rscale>
<asrwt>0</asrwt>
<pdfrwt beam="1">  1        2 0.14566389E-01 0.25902760E+02</pdfrwt>
<pdfrwt beam="2">  1       -2 0.27255458E-03 0.25902760E+02</pdfrwt>
<totfact> 0.29059328E+06</totfact>
</mgrwt>
</event>
<event>
 4    1  0.2126213E+000  0.2431077E+02  0.7546771E-02  0.1671104E+00
          2   -1    0    0  501    0  0.00000000000E+00  0.00000000000E+00  0.54311655388E+02  0.54311655388E+02  0.00000000000E+00 0.  1.
         -2   -1    0    0    0  501 -0.00000000000E+00 -0.00000000000E+00 -0.27204718069E+01  0.27204718069E+01  0.00000000000E+00 0. -1.
        -11    1    1    2    0    0 -0.11774450979E+02  0.29460593235E+01  0.27345287156E+02  0.29917915887E+02  0.00000000000E+00 0. -1.
         11    1    1    2    0    0  0.11774450979E+02 -0.29460593235E+01  0.24245896426E+02  0.27114211309E+02  0.00000000000E+00 0.  1.
<mgrwt>
<rscale>  0 0.24310765E+02</rscale>
<asrwt>0</asrwt>
<pdfrwt beam="1">  1        2 0.83556385E-02 0.24310765E+02</pdfrwt>
<pdfrwt beam="2">  1       -2 0.41853416E-03 0.24310765E+02</pdfrwt>
<totfact> 0.30163395E+06</totfact>
</mgrwt>
</event>
<event>
 4    1  0.2126213E+000  0.3052912E+02  0.7546771E-02  0.1592312E+00
          3   -1    0    0  501    0  0.00000000000E+00  0.00000000000E+00  0.32204633010E+02  0.32204633010E+02  0.00000000000E+00 0. -1.
         -3   -1    0    0    0  501 -0.00000000000E+00 -0.00000000000E+00 -0.72351963750E+01  0.72351963750E+01  0.00000000000E+00 0.  1.
        -11    1    1    2    0    0 -0.12354013078E+02  0.83668192905E+01  0.83222438703E+01  0.17084643608E+02  0.00000000000E+00 0.  1.
         11    1    1    2    0    0  0.12354013078E+02 -0.83668192905E+01  0.16647192765E+02  0.22355185777E+02  0.00000000000E+00 0. -1.
<mgrwt>
<rscale>  0 0.30529123E+02</rscale>
<asrwt>0</asrwt>
<pdfrwt beam="1">  1        3 0.49545588E-02 0.30529123E+02</pdfrwt>
<pdfrwt beam="2">  1       -3 0.11131072E-02 0.30529123E+02</pdfrwt>
<totfact> 0.64722084E+05</totfact>
</mgrwt>
</event>
<event>
 4    1  0.2126213E+000  0.2285615E+02  0.7546771E-02  0.1693853E+00
          2   -1    0    0  501    0  0.00000000000E+00  0.00000000000E+00  0.48019677889E+01  0.48019677889E+01  0.00000000000E+00 0. -1.
         -2   -1    0    0    0  501 -0.00000000000E+00 -0.00000000000E+00 -0.27197374094E+02  0.27197374094E+02  0.00000000000E+00 0.  1.
        -13    1    1    2    0    0 -0.89013325564E+01 -0.64379646180E+01 -0.15607204723E+02  0.19085752513E+02  0.00000000000E+00 0.  1.
         13    1    1    2    0    0  0.89013325564E+01  0.64379646180E+01 -0.67882015813E+01  0.12913589370E+02  0.00000000000E+00 0. -1.
<mgrwt>
<rscale>  0 0.22856151E+02</rscale>
<asrwt>0</asrwt>
<pdfrwt beam="1">  1        2 0.73876428E-03 0.22856151E+02</pdfrwt>
<pdfrwt beam="2">  1       -2 0.41842114E-02 0.22856151E+02</pdfrwt>
<totfact> 0.27148623E+06</totfact>
</mgrwt>
</event>
<event>
 4    1  0.2126213E+000  0.2595914E+02  0.7546771E-02  0.1647596E+00
          4   -1    0    0  501    0  0.00000000000E+00  0.00000000000E+00  0.72319591187E+02  0.72319591187E+02  0.00000000000E+00 0. -1.
         -4   -1    0    0    0  501 -0.00000000000E+00 -0.00000000000E+00 -0.23295095422E+01  0.23295095422E+01  0.00000000000E+00 0.  1.
        -11    1    1    2    0    0 -0.96129914822E+01 -0.36123809289E+01  0.57821578843E+02  0.58726432559E+02  0.00000000000E+00 0. -1.
         11    1    1    2    0    0  0.96129914822E+01  0.36123809289E+01  0.12168502801E+02  0.15922668169E+02  0.00000000000E+00 0.  1.
<mgrwt>
<rscale>  0 0.25959135E+02</rscale>
<asrwt>0</asrwt>
<pdfrwt beam="1">  1        4 0.11126089E-01 0.25959135E+02</pdfrwt>
<pdfrwt beam="2">  1       -4 0.35838614E-03 0.25959135E+02</pdfrwt>
<totfact> 0.61456343E+05</totfact>
</mgrwt>
</event>
<event>
 4    1  0.2126213E+000  0.2538539E+02  0.7546771E-02  0.1655527E+00
         -2   -1    0    0    0  501 -0.00000000000E+00  0.00000000000E+00  0.63545204727E+02  0.63545204727E+02  0.00000000000E+00 0.  1.
          2   -1    0    0  501    0  0.00000000000E+00 -0.00000000000E+00 -0.25352745257E+01  0.25352745257E+01  0.00000000000E+00 0. -1.
        -13    1    1    2    0    0  0.95197333437E+01 -0.35742665854E+01  0.50278833350E+02  0.51296800949E+02  0.00000000000E+00 0.  1.
         13    1    1    2    0    0 -0.95197333437E+01  0.35742665854E+01  0.10731096851E+02  0.14783678304E+02  0.00000000000E+00 0. -1.
<mgrwt>
<rscale>  0 0.25385393E+02</rscale>
<asrwt>0</asrwt>
<pdfrwt beam="2">  1        2 0.39004228E-03 0.25385393E+02</pdfrwt>
<pdfrwt beam="1">  1       -2 0.97761841E-02 0.25385393E+02</pdfrwt>
<totfact> 0.19196240E+06</totfact>
</mgrwt>
</event>
<event>
 4    1  0.2126213E+000  0.3109966E+02  0.7546771E-02  0.1586242E+00
          2   -1    0    0  501    0  0.00000000000E+00  0.00000000000E+00  0.85480050045E+02  0.85480050045E+02  0.00000000000E+00 0. -1.
         -2   -1    0    0    0  501 -0.00000000000E+00 -0.00000000000E+00 -0.28286976651E+01  0.28286976651E+01  0.00000000000E+00 0.  1.
        -13    1    1    2    0    0 -0.82367164474E+01  0.99610687572E+01  0.16778701114E+02  0.21179971664E+02  0.00000000000E+00 0.  1.
         13    1    1    2    0    0  0.82367164474E+01 -0.99610687572E+01  0.65872651267E+02  0.67128776047E+02  0.00000000000E+00 0. -1.
<mgrwt>
<rscale>  0 0.31099660E+02</rscale>
<asrwt>0</asrwt>
<pdfrwt beam="1">  1        2 0.13150775E-01 0.31099660E+02</pdfrwt>
<pdfrwt beam="2">  1       -2 0.43518432E-03 0.31099660E+02</pdfrwt>
<totfact> 0.18501455E+06</totfact>
</mgrwt>
</event>
<event>
 4    1  0.2126213E+000  0.2062466E+02  0.7546771E-02  0.1733184E+00
         -2   -1    0    0    0  501 -0.00000000000E+00  0.00000000000E+00  0.79448748510E+02  0.79448748510E+02  0.00000000000E+00 0.  1.
          2   -1    0    0  501    0  0.00000000000E+00 -0.00000000000E+00 -0.13385249001E+01  0.13385249001E+01  0.00000000000E+00 0. -1.
        -13    1    1    2    0    0 -0.54105014584E+01 -0.86377445599E+01  0.32911536364E+02  0.34453641069E+02  0.00000000000E+00 0. -1.
         13    1    1    2    0    0  0.54105014584E+01  0.86377445599E+01  0.45198687246E+02  0.46333632341E+02  0.00000000000E+00 0.  1.
<mgrwt>
<rscale>  0 0.20624658E+02</rscale>
<asrwt>0</asrwt>
<pdfrwt beam="2">  1        2 0.20592697E-03 0.20624658E+02</pdfrwt>
<pdfrwt beam="1">  1       -2 0.12222881E-01 0.20624658E+02</pdfrwt>
<totfact> 0.29263701E+06</totfact>
</mgrwt>
</event>
<event>
 4    1  0.2126213E+000  0.3752592E+02  0.7546771E-02  0.1527250E+00
          1   -1    0    0  501    0  0.00000000000E+00  0.00000000000E+00  0.24897361968E+02  0.24897361968E+02  0.00000000000E+00 0. -1.
         -1   -1    0    0    0  501 -0.00000000000E+00 -0.00000000000E+00 -0.14139996064E+02  0.14139996064E+02  0.00000000000E+00 0.  1.
        -11    1    1    2    0    0  0.17135348081E+02  0.72628494848E+01  0.28995331124E+01  0.18835509783E+02  0.00000000000E+00 0.  1.
         11    1    1    2    0    0 -0.17135348081E+02 -0.72628494848E+01  0.78578327912E+01  0.20201848249E+02  0.00000000000E+00 0. -1.
<mgrwt>
<rscale>  0 0.37525916E+02</rscale>
<asrwt>0</asrwt>
<pdfrwt beam="1">  1        1 0.38303634E-02 0.37525916E+02</pdfrwt>
<pdfrwt beam="2">  1       -1 0.21753840E-02 0.37525916E+02</pdfrwt>
<totfact> 0.90690608E+05</totfact>
</mgrwt>
</event>
<event>
 4    1  0.2126213E+000  0.2340800E+02  0.7546771E-02  0.1684981E+00
          2   -1    0    0  501    0  0.00000000000E+00  0.00000000000E+00  0.86225905699E+02  0.86225905699E+02  0.00000000000E+00 0. -1.
         -2   -1    0    0    0  501 -0.00000000000E+00 -0.00000000000E+00 -0.15886594307E+01  0.15886594307E+01  0.00000000000E+00 0.  1.
        -11    1    1    2    0    0  0.10049733285E+02 -0.32116234204E+01  0.23310835570E+02  0.25587237425E+02  0.00000000000E+00 0.  1.
         11    1    1    2    0    0 -0.10049733285E+02  0.32116234204E+01  0.61326410699E+02  0.62227327705E+02  0.00000000000E+00 0. -1.
<mgrwt>
<rscale>  0 0.23407998E+02</rscale>
<asrwt>0</asrwt>
<pdfrwt beam="1">  1        2 0.13265520E-01 0.23407998E+02</pdfrwt>
<pdfrwt beam="2">  1       -2 0.24440921E-03 0.23407998E+02</pdfrwt>
<totfact> 0.35893206E+06</totfact>
</mgrwt>
</event>
<event>
 4    1  0.2126213E+000  0.2405569E+02  0.7546771E-02  0.1674948E+00
         -2   -1    0    0    0  501 -0.00000000000E+00  0.00000000000E+00  0.19681308461E+01  0.19681308461E+01  0.00000000000E+00 0.  1.
          2   -1    0    0  501    0  0.00000000000E+00 -0.00000000000E+00 -0.73505797756E+02  0.73505797756E+02  0.00000000000E+00 0. -1.
        -11    1    1    2    0    0  0.10258640804E+02  0.47378144814E+01 -0.22839411615E+02  0.25481862572E+02  0.00000000000E+00 0.  1.
         11    1    1    2    0    0 -0.10258640804E+02 -0.47378144814E+01 -0.48698255295E+02  0.49992066030E+02  0.00000000000E+00 0. -1.
<mgrwt>
<rscale>  0 0.24055688E+02</rscale>
<asrwt>0</asrwt>
<pdfrwt beam="2">  1        2 0.11308584E-01 0.24055688E+02</pdfrwt>
<pdfrwt beam="1">  1       -2 0.30278937E-03 0.24055688E+02</pdfrwt>
<totfact> 0.32638370E+06</totfact>
</mgrwt>
</event>
<event>
 4    1  0.2126213E+000  0.2699943E+02  0.7546771E-02  0.1633840E+00
         -3   -1    0    0    0  501 -0.00000000000E+00  0.00000000000E+00  0.29306588436E+01  0.29306588436E+01  0.00000000000E+00 0.  1.
          3   -1    0    0  501    0  0.00000000000E+00 -0.00000000000E+00 -0.62184766541E+02  0.62184766541E+02  0.00000000000E+00 0. -1.
        -11    1    1    2    0    0  0.49486910931E+01  0.10816008822E+02 -0.14228417199E+02  0.18545173128E+02  0.00000000000E+00 0.  1.
         11    1    1    2    0    0 -0.49486910931E+01 -0.10816008822E+02 -0.45025690499E+02  0.46570252257E+02  0.00000000000E+00 0. -1.
<mgrwt>
<rscale>  0 0.26999432E+02</rscale>
<asrwt>0</asrwt>
<pdfrwt beam="2">  1        3 0.95668864E-02 0.26999432E+02</pdfrwt>
<pdfrwt beam="1">  1       -3 0.45087063E-03 0.26999432E+02</pdfrwt>
<totfact> 0.79818970E+05</totfact>
</mgrwt>
</event>
<event>
 4    1  0.2126213E+000  0.3308366E+02  0.7546771E-02  0.1566308E+00
         -1   -1    0    0    0  501 -0.00000000000E+00  0.00000000000E+00  0.45441918485E+02  0.45441918485E+02  0.00000000000E+00 0. -1.
          1   -1    0    0  501    0  0.00000000000E+00 -0.00000000000E+00 -0.60215790787E+01  0.60215790787E+01  0.00000000000E+00 0.  1.
        -13    1    1    2    0    0 -0.62675347115E+01 -0.11998005453E+02  0.49202730883E+01  0.14402889067E+02  0.00000000000E+00 0.  1.
         13    1    1    2    0    0  0.62675347115E+01  0.11998005453E+02  0.34500066318E+02  0.37060608497E+02  0.00000000000E+00 0. -1.
<mgrwt>
<rscale>  0 0.33083658E+02</rscale>
<asrwt>0</asrwt>
<pdfrwt beam="2">  1        1 0.92639681E-03 0.33083658E+02</pdfrwt>
<pdfrwt beam="1">  1       -1 0.69910642E-02 0.33083658E+02</pdfrwt>
<totfact> 0.11170264E+06</totfact>
</mgrwt>
</event>
<event>
 4    1  0.2126213E+000  0.2929061E+02  0.7546771E-02  0.1606065E+00
         -2   -1    0    0    0  501 -0.00000000000E+00  0.00000000000E+00  0.15332991668E+01  0.15332991668E+01  0.00000000000E+00 0. -1.
          2   -1    0    0  501    0  0.00000000000E+00 -0.00000000000E+00 -0.13988460850E+03  0.13988460850E+03  0.00000000000E+00 0.  1.
        -13    1    1    2    0    0 -0.14263269473E+02  0.32497739684E+01 -0.72531327163E+02  0.73991859734E+02  0.00000000000E+00 0. -1.
         13    1    1    2    0    0  0.14263269473E+02 -0.32497739684E+01 -0.65819982174E+02  0.67426047936E+02  0.00000000000E+00 0.  1.
<mgrwt>
<rscale>  0 0.29290610E+02</rscale>
<asrwt>0</asrwt>
<pdfrwt beam="2">  1        2 0.21520712E-01 0.29290610E+02</pdfrwt>
<pdfrwt beam="1">  1       -2 0.23589215E-03 0.29290610E+02</pdfrwt>
<totfact> 0.24117090E+06</totfact>
</mgrwt>
</event>
<event>
 4    1  0.2126213E+000  0.3999509E+02  0.7546771E-02  0.1508248E+00
         -2   -1    0    0    0  501 -0.00000000000E+00  0.00000000000E+00  0.18748607008E+02  0.18748607008E+02  0.00000000000E+00 0. -1.
          2   -1    0    0  501    0  0.00000000000E+00 -0.00000000000E+00 -0.21329682102E+02  0.21329682102E+02  0.00000000000E+00 0.  1.
        -11    1    1    2    0    0 -0.16104599172E+02  0.87745898437E+01  0.66978888522E+01  0.19524683262E+02  0.00000000000E+00 0. -1.
         11    1    1    2    0    0  0.16104599172E+02 -0.87745898437E+01 -0.92789639461E+01  0.20553605847E+02  0.00000000000E+00 0.  1.
<mgrwt>
<rscale>  0 0.39995091E+02</rscale>
<asrwt>0</asrwt>
<pdfrwt beam="2">  1        2 0.32814895E-02 0.39995091E+02</pdfrwt>
<pdfrwt beam="1">  1       -2 0.28844011E-02 0.39995091E+02</pdfrwt>
<totfact> 0.79521697E+05</totfact>
</mgrwt>
</event>
<event>
 4    1  0.2126213E+000  0.2590831E+02  0.7546771E-02  0.1648288E+00
          2   -1    0    0  501    0  0.00000000000E+00  0.00000000000E+00  0.74953027992E+01  0.74953027992E+01  0.00000000000E+00 0.  1.
         -2   -1    0    0    0  501 -0.00000000000E+00 -0.00000000000E+00 -0.22388705283E+02  0.22388705283E+02  0.00000000000E+00 0. -1.
        -13    1    1    2    0    0 -0.98302307596E+01  0.80267829046E+01 -0.44505106329E+01  0.13448781561E+02  0.00000000000E+00 0.  1.
         13    1    1    2    0    0  0.98302307596E+01 -0.80267829046E+01 -0.10442891851E+02  0.16435226521E+02  0.00000000000E+00 0. -1.
<mgrwt>
<rscale>  0 0.25908310E+02</rscale>
<asrwt>0</asrwt>
<pdfrwt beam="1">  1        2 0.11531235E-02 0.25908310E+02</pdfrwt>
<pdfrwt beam="2">  1       -2 0.34444161E-02 0.25908310E+02</pdfrwt>
<totfact> 0.20919031E+06</totfact>
</mgrwt>
</event>
<event>
 4    1  0.2126213E+000  0.2332620E+02  0.7546771E-02  0.1686276E+00
          2   -1    0    0  501    0  0.00000000000E+00  0.00000000000E+00  0.42162421925E+02  0.42162421925E+02  0.00000000000E+00 0. -1.
         -2   -1    0    0    0  501 -0.00000000000E+00 -0.00000000000E+00 -0.32262825241E+01  0.32262825241E+01  0.00000000000E+00 0.  1.
        -11    1    1    2    0    0 -0.36520983192E+01 -0.96760789436E+01  0.89780037886E+01  0.13695578771E+02  0.00000000000E+00 0.  1.
         11    1    1    2    0    0  0.36520983192E+01  0.96760789436E+01  0.29958135612E+02  0.31693125678E+02  0.00000000000E+00 0. -1.
<mgrwt>
<rscale>  0 0.23326199E+02</rscale>
<asrwt>0</asrwt>
<pdfrwt beam="1">  1        2 0.64865261E-02 0.23326199E+02</pdfrwt>
<pdfrwt beam="2">  1       -2 0.49635119E-03 0.23326199E+02</pdfrwt>
<totfact> 0.31914042E+06</totfact>
</mgrwt>
</event>
<event>
 4    1  0.2126213E+000  0.2570392E+02  0.7546771E-02  0.1651092E+00
         -2   -1    0    0    0  501 -0.00000000000E+00  0.00000000000E+00  0.46477520662E+02  0.46477520662E+02  0.00000000000E+00 0. -1.
          2   -1    0    0  501    0  0.00000000000E+00 -0.00000000000E+00 -0.35538233385E+01  0.35538233385E+01  0.00000000000E+00 0.  1.
        -11    1    1    2    0    0 -0.10394672296E+02 -0.37325074209E+01  0.34254035932E+02  0.35990551557E+02  0.00000000000E+00 0. -1.
         11    1    1    2    0    0  0.10394672296E+02  0.37325074209E+01  0.86696613924E+01  0.14040792444E+02  0.00000000000E+00 0.  1.
<mgrwt>
<rscale>  0 0.25703922E+02</rscale>
<asrwt>0</asrwt>
<pdfrwt beam="2">  1        2 0.54674209E-03 0.25703922E+02</pdfrwt>
<pdfrwt beam="1">  1       -2 0.71503873E-02 0.25703922E+02</pdfrwt>
<totfact> 0.19587299E+06</totfact>
</mgrwt>
</event>
<event>
 4    1  0.2126213E+000  0.2539862E+02  0.7546771E-02  0.1655342E+00
          2   -1    0    0  501    0  0.00000000000E+00  0.00000000000E+00  0.23172106102E+02  0.23172106102E+02  0.00000000000E+00 0. -1.
         -2   -1    0    0    0  501 -0.00000000000E+00 -0.00000000000E+00 -0.69597656333E+01  0.69597656333E+01  0.00000000000E+00 0.  1.
        -11    1    1    2    0    0 -0.52476469121E+01 -0.10806801122E+02  0.12990119780E+02  0.17693726586E+02  0.00000000000E+00 0. -1.
         11    1    1    2    0    0  0.52476469121E+01  0.10806801122E+02  0.32222206890E+01  0.12438145150E+02  0.00000000000E+00 0.  1.
<mgrwt>
<rscale>  0 0.25398616E+02</rscale>
<asrwt>0</asrwt>
<pdfrwt beam="1">  1        2 0.35649393E-02 0.25398616E+02</pdfrwt>
<pdfrwt beam="2">  1       -2 0.10707332E-02 0.25398616E+02</pdfrwt>
<totfact> 0.24380553E+06</totfact>
</mgrwt>
</event>
<event>
 4    1  0.2126213E+000  0.2923338E+02  0.7546771E-02  0.1606721E+00
          2   -1    0    0  501    0  0.00000000000E+00  0.00000000000E+00  0.35709977499E+01  0.35709977499E+01  0.00000000000E+00 0.  1.
         -2   -1    0    0    0  501 -0.00000000000E+00 -0.00000000000E+00 -0.59828535570E+02  0.59828535570E+02  0.00000000000E+00 0. -1.
        -13    1    1    2    0    0 -0.67660696271E+01 -0.10055178951E+02 -0.45848996725E+02  0.47423800171E+02  0.00000000000E+00 0. -1.
         13    1    1    2    0    0  0.67660696271E+01  0.10055178951E+02 -0.10408541095E+02  0.15975733149E+02  0.00000000000E+00 0.  1.
<mgrwt>
<rscale>  0 0.29233376E+02</rscale>
<asrwt>0</asrwt>
<pdfrwt beam="1">  1        2 0.54938426E-03 0.29233376E+02</pdfrwt>
<pdfrwt beam="2">  1       -2 0.92043902E-02 0.29233376E+02</pdfrwt>
<totfact> 0.14047283E+06</totfact>
</mgrwt>
</event>
<event>
 4    1  0.2126213E+000  0.4472287E+02  0.7546771E-02  0.1476079E+00
          2   -1    0    0  501    0  0.00000000000E+00  0.00000000000E+00  0.50157283540E+02  0.50157283540E+02  0.00000000000E+00 0. -1.
         -2   -1    0    0    0  501 -0.00000000000E+00 -0.00000000000E+00 -0.99693164638E+01  0.99693164638E+01  0.00000000000E+00 0.  1.
        -13    1    1    2    0    0 -0.44659880152E+01  0.21842769879E+02  0.22415674646E+02  0.31615093148E+02  0.00000000000E+00 0. -1.
         13    1    1    2    0    0  0.44659880152E+01 -0.21842769879E+02  0.17772292430E+02  0.28511506855E+02  0.00000000000E+00 0.  1.
<mgrwt>
<rscale>  0 0.44722873E+02</rscale>
<asrwt>0</asrwt>
<pdfrwt beam="1">  1        2 0.77165050E-02 0.44722873E+02</pdfrwt>
<pdfrwt beam="2">  1       -2 0.15337410E-02 0.44722873E+02</pdfrwt>
<totfact> 0.68228567E+05</totfact>
</mgrwt>
</event>
<event>
 4    1  0.2126213E+000  0.3226920E+02  0.7546771E-02  0.1574280E+00
          4   -1    0    0  501    0  0.00000000000E+00  0.00000000000E+00  0.42267289648E+01  0.42267289648E+01  0.00000000000E+00 0.  1.
         -4   -1    0    0    0  501 -0.00000000000E+00 -0.00000000000E+00 -0.61590245104E+02  0.61590245104E+02  0.00000000000E+00 0. -1.
        -13    1    1    2    0    0  0.46972290185E+01  0.11330997971E+02 -0.50060833121E+02  0.51541657795E+02  0.00000000000E+00 0. -1.
         13    1    1    2    0    0 -0.46972290185E+01 -0.11330997971E+02 -0.73026830184E+01  0.14275316274E+02  0.00000000000E+00 0.  1.
<mgrwt>
<rscale>  0 0.32269197E+02</rscale>
<asrwt>0</asrwt>
<pdfrwt beam="1">  1        4 0.65026599E-03 0.32269197E+02</pdfrwt>
<pdfrwt beam="2">  1       -4 0.94754224E-02 0.32269197E+02</pdfrwt>
<totfact> 0.38974132E+05</totfact>
</mgrwt>
</event>
<event>
 4    1  0.2126213E+000  0.2253366E+02  0.7546771E-02  0.1699183E+00
          2   -1    0    0  501    0  0.00000000000E+00  0.00000000000E+00  0.70407756851E+02  0.70407756851E+02  0.00000000000E+00 0. -1.
         -2   -1    0    0    0  501 -0.00000000000E+00 -0.00000000000E+00 -0.18029465940E+01  0.18029465940E+01  0.00000000000E+00 0.  1.
        -13    1    1    2    0    0 -0.80510691205E+01  0.61446511937E+01  0.18484358074E+02  0.21077190176E+02  0.00000000000E+00 0. -1.
         13    1    1    2    0    0  0.80510691205E+01 -0.61446511937E+01  0.50120452183E+02  0.51133513269E+02  0.00000000000E+00 0.  1.
<mgrwt>
<rscale>  0 0.22533657E+02</rscale>
<asrwt>0</asrwt>
<pdfrwt beam="1">  1        2 0.10831960E-01 0.22533657E+02</pdfrwt>
<pdfrwt beam="2">  1       -2 0.27737645E-03 0.22533657E+02</pdfrwt>
<totfact> 0.37559010E+06</totfact>
</mgrwt>
</event>
<event>
 4    1  0.2126213E+000  0.3173597E+02  0.7546771E-02  0.1579656E+00
          2   -1    0    0  501    0  0.00000000000E+00  0.00000000000E+00  0.30299361670E+01  0.30299361670E+01  0.00000000000E+00 0. -1.
         -2   -1    0    0    0  501 -0.00000000000E+00 -0.00000000000E+00 -0.83101737354E+02  0.83101737354E+02  0.00000000000E+00 0.  1.
        -13    1    1    2    0    0  0.61383113958E+01  0.13360961177E+02 -0.23842843994E+02  0.28012057406E+02  0.00000000000E+00 0.  1.
         13    1    1    2    0    0 -0.61383113958E+01 -0.13360961177E+02 -0.56228957193E+02  0.58119616115E+02  0.00000000000E+00 0. -1.
<mgrwt>
<rscale>  0 0.31735971E+02</rscale>
<asrwt>0</asrwt>
<pdfrwt beam="1">  1        2 0.46614416E-03 0.31735971E+02</pdfrwt>
<pdfrwt beam="2">  1       -2 0.12784879E-01 0.31735971E+02</pdfrwt>
<totfact> 0.10913553E+06</totfact>
</mgrwt>
</event>
<event>
 4    1  0.2126213E+000  0.6817856E+02  0.7546771E-02  0.1366399E+00
          2   -1    0    0  501    0  0.00000000000E+00  0.00000000000E+00  0.29507070421E+03  0.29507070421E+03  0.00000000000E+00 0.  1.
         -2   -1    0    0    0  501 -0.00000000000E+00 -0.00000000000E+00 -0.39383064472E+01  0.39383064472E+01  0.00000000000E+00 0. -1.
        -11    1    1    2    0    0  0.25933629238E+02  0.21183762089E+02  0.17357070389E+03  0.17677130466E+03  0.00000000000E+00 0.  1.
         11    1    1    2    0    0 -0.25933629238E+02 -0.21183762089E+02  0.11756169388E+03  0.12223770601E+03  0.00000000000E+00 0. -1.
<mgrwt>
<rscale>  0 0.68178555E+02</rscale>
<asrwt>0</asrwt>
<pdfrwt beam="1">  1        2 0.45395476E-01 0.68178555E+02</pdfrwt>
<pdfrwt beam="2">  1       -2 0.60589353E-03 0.68178555E+02</pdfrwt>
<totfact> 0.38298635E+05</totfact>
</mgrwt>
</event>
<event>
 4    1  0.2126213E+000  0.9279095E+02  0.7546771E-02  0.1296230E+00
         -2   -1    0    0    0  501 -0.00000000000E+00  0.00000000000E+00  0.16036266527E+02  0.16036266527E+02  0.00000000000E+00 0.  1.
          2   -1    0    0  501    0  0.00000000000E+00 -0.00000000000E+00 -0.13422950061E+03  0.13422950061E+03  0.00000000000E+00 0. -1.
        -13    1    1    2    0    0  0.21539182476E+02  0.36984398433E+01  0.71787507669E+01  0.23003245458E+02  0.00000000000E+00 0.  1.
         13    1    1    2    0    0 -0.21539182476E+02 -0.36984398433E+01 -0.12537198485E+03  0.12726252168E+03  0.00000000000E+00 0. -1.
<mgrwt>
<rscale>  0 0.92790949E+02</rscale>
<asrwt>0</asrwt>
<pdfrwt beam="2">  1        2 0.20650692E-01 0.92790949E+02</pdfrwt>
<pdfrwt beam="1">  1       -2 0.24671179E-02 0.92790949E+02</pdfrwt>
<totfact> 0.12839534E+05</totfact>
</mgrwt>
</event>
<event>
 4    1  0.2126213E+000  0.4351775E+02  0.7546771E-02  0.1483813E+00
          2   -1    0    0  501    0  0.00000000000E+00  0.00000000000E+00  0.32866753110E+02  0.32866753110E+02  0.00000000000E+00 0.  1.
         -2   -1    0    0    0  501 -0.00000000000E+00 -0.00000000000E+00 -0.14405095133E+02  0.14405095133E+02  0.00000000000E+00 0. -1.
        -11    1    1    2    0    0  0.10899400766E+02  0.93825984227E+01 -0.85062195526E+01  0.16708855775E+02  0.00000000000E+00 0. -1.
         11    1    1    2    0    0 -0.10899400766E+02 -0.93825984227E+01  0.26967877529E+02  0.30562992469E+02  0.00000000000E+00 0.  1.
<mgrwt>
<rscale>  0 0.43517753E+02</rscale>
<asrwt>0</asrwt>
<pdfrwt beam="1">  1        2 0.50564235E-02 0.43517753E+02</pdfrwt>
<pdfrwt beam="2">  1       -2 0.22161685E-02 0.43517753E+02</pdfrwt>
<totfact> 0.68162794E+05</totfact>
</mgrwt>
</event>
<event>
 4    1  0.2126213E+000  0.2626461E+02  0.7546771E-02  0.1643475E+00
         -2   -1    0    0    0  501 -0.00000000000E+00  0.00000000000E+00  0.46697585424E+02  0.46697585424E+02  0.00000000000E+00 0. -1.
          2   -1    0    0  501    0  0.00000000000E+00 -0.00000000000E+00 -0.36930682591E+01  0.36930682591E+01  0.00000000000E+00 0.  1.
        -11    1    1    2    0    0 -0.60951450591E+01 -0.96037284032E+01  0.34094169673E+02  0.35941546964E+02  0.00000000000E+00 0. -1.
         11    1    1    2    0    0  0.60951450591E+01  0.96037284032E+01  0.89103474925E+01  0.14449106719E+02  0.00000000000E+00 0.  1.
<mgrwt>
<rscale>  0 0.26264605E+02</rscale>
<asrwt>0</asrwt>
<pdfrwt beam="2">  1        2 0.56816438E-03 0.26264605E+02</pdfrwt>
<pdfrwt beam="1">  1       -2 0.71842435E-02 0.26264605E+02</pdfrwt>
<totfact> 0.18639194E+06</totfact>
</mgrwt>
</event>
<event>
 4    1  0.2126213E+000  0.3451939E+02  0.7546771E-02  0.1552910E+00
         -2   -1    0    0    0  501 -0.00000000000E+00  0.00000000000E+00  0.17042635706E+02  0.17042635706E+02  0.00000000000E+00 0. -1.
          2   -1    0    0  501    0  0.00000000000E+00 -0.00000000000E+00 -0.17479515571E+02  0.17479515571E+02  0.00000000000E+00 0.  1.
        -13    1    1    2    0    0  0.91251214566E+01  0.12224110854E+02  0.78568762826E+01  0.17158882035E+02  0.00000000000E+00 0.  1.
         13    1    1    2    0    0 -0.91251214566E+01 -0.12224110854E+02 -0.82937561477E+01  0.17363269243E+02  0.00000000000E+00 0. -1.
<mgrwt>
<rscale>  0 0.34519387E+02</rscale>
<asrwt>0</asrwt>
<pdfrwt beam="2">  1        2 0.26891562E-02 0.34519387E+02</pdfrwt>
<pdfrwt beam="1">  1       -2 0.26219440E-02 0.34519387E+02</pdfrwt>
<totfact> 0.11252138E+06</totfact>
</mgrwt>
</event>
<event>
 4    1  0.2126213E+000  0.2716317E+02  0.7546771E-02  0.1631744E+00
         -2   -1    0    0    0  501 -0.00000000000E+00  0.00000000000E+00  0.89134645177E+01  0.89134645177E+01  0.00000000000E+00 0. -1.
          2   -1    0    0  501    0  0.00000000000E+00 -0.00000000000E+00 -0.20694467485E+02  0.20694467485E+02  0.00000000000E+00 0.  1.
        -13    1    1    2    0    0  0.11150666439E+02 -0.76168019030E+01 -0.43085438658E+01  0.14174504701E+02  0.00000000000E+00 0. -1.
         13    1    1    2    0    0 -0.11150666439E+02  0.76168019030E+01 -0.74724591018E+01  0.15433427302E+02  0.00000000000E+00 0.  1.
<mgrwt>
<rscale>  0 0.27163166E+02</rscale>
<asrwt>0</asrwt>
<pdfrwt beam="2">  1        2 0.31837642E-02 0.27163166E+02</pdfrwt>
<pdfrwt beam="1">  1       -2 0.13713022E-02 0.27163166E+02</pdfrwt>
<totfact> 0.20556922E+06</totfact>
</mgrwt>
</event>
<event>
 4    1  0.2126213E+000  0.3934903E+02  0.7546771E-02  0.1513057E+00
         -3   -1    0    0    0  501 -0.00000000000E+00  0.00000000000E+00  0.15129769764E+03  0.15129769764E+03  0.00000000000E+00 0.  1.
          3   -1    0    0  501    0  0.00000000000E+00 -0.00000000000E+00 -0.25584427773E+01  0.25584427773E+01  0.00000000000E+00 0. -1.
        -11    1    1    2    0    0 -0.37366378883E+01 -0.19099872962E+02  0.63092108517E+02  0.66025614477E+02  0.00000000000E+00 0. -1.
         11    1    1    2    0    0  0.37366378883E+01  0.19099872962E+02  0.85647146350E+02  0.87830525945E+02  0.00000000000E+00 0.  1.
<mgrwt>
<rscale>  0 0.39349028E+02</rscale>
<asrwt>0</asrwt>
<pdfrwt beam="2">  1        3 0.39360670E-03 0.39349028E+02</pdfrwt>
<pdfrwt beam="1">  1       -3 0.23276562E-01 0.39349028E+02</pdfrwt>
<totfact> 0.26748637E+05</totfact>
</mgrwt>
</event>
<event>
 4    1  0.2126213E+000  0.3753969E+02  0.7546771E-02  0.1527139E+00
          2   -1    0    0  501    0  0.00000000000E+00  0.00000000000E+00  0.17012506829E+02  0.17012506829E+02  0.00000000000E+00 0. -1.
         -2   -1    0    0    0  501 -0.00000000000E+00 -0.00000000000E+00 -0.20708710223E+02  0.20708710223E+02  0.00000000000E+00 0.  1.
        -11    1    1    2    0    0 -0.18349594144E+02  0.31853345594E+01  0.49838043228E+00  0.18630682880E+02  0.00000000000E+00 0.  1.
         11    1    1    2    0    0  0.18349594144E+02 -0.31853345594E+01 -0.41945838265E+01  0.19090534172E+02  0.00000000000E+00 0. -1.
<mgrwt>
<rscale>  0 0.37539690E+02</rscale>
<asrwt>0</asrwt>
<pdfrwt beam="1">  1        2 0.26173087E-02 0.37539690E+02</pdfrwt>
<pdfrwt beam="2">  1       -2 0.31859554E-02 0.37539690E+02</pdfrwt>
<totfact> 0.90790437E+05</totfact>
</mgrwt>
</event>
<event>
 4    1  0.2126213E+000  0.3192152E+02  0.7546771E-02  0.1577771E+00
          2   -1    0    0  501    0  0.00000000000E+00  0.00000000000E+00  0.32825371500E+02  0.32825371500E+02  0.00000000000E+00 0.  1.
         -2   -1    0    0    0  501 -0.00000000000E+00 -0.00000000000E+00 -0.77606370544E+01  0.77606370544E+01  0.00000000000E+00 0. -1.
        -11    1    1    2    0    0 -0.61545179265E+01  0.95386542805E+01 -0.17327146846E+01  0.11483305995E+02  0.00000000000E+00 0. -1.
         11    1    1    2    0    0  0.61545179265E+01 -0.95386542805E+01  0.26797449130E+02  0.29102702559E+02  0.00000000000E+00 0.  1.
<mgrwt>
<rscale>  0 0.31921516E+02</rscale>
<asrwt>0</asrwt>
<pdfrwt beam="1">  1        2 0.50500571E-02 0.31921516E+02</pdfrwt>
<pdfrwt beam="2">  1       -2 0.11939442E-02 0.31921516E+02</pdfrwt>
<totfact> 0.14720482E+06</totfact>
</mgrwt>
</event>
<event>
 4    1  0.2126213E+000  0.1662745E+03  0.7546771E-02  0.1181790E+00
          1   -1    0    0  501    0  0.00000000000E+00  0.00000000000E+00  0.90207072414E+02  0.90207072414E+02  0.00000000000E+00 0. -1.
         -1   -1    0    0    0  501 -0.00000000000E+00 -0.00000000000E+00 -0.76621529356E+02  0.76621529356E+02  0.00000000000E+00 0.  1.
        -13    1    1    2    0    0 -0.72826994360E+02  0.32445437609E+02  0.30436662058E+02  0.85339720684E+02  0.00000000000E+00 0.  1.
         13    1    1    2    0    0  0.72826994360E+02 -0.32445437609E+02 -0.16851119000E+02  0.81488881086E+02  0.00000000000E+00 0. -1.
<mgrwt>
<rscale>  0 0.16627452E+03</rscale>
<asrwt>0</asrwt>
<pdfrwt beam="1">  1        1 0.13878011E-01 0.16627452E+03</pdfrwt>
<pdfrwt beam="2">  1       -1 0.11787928E-01 0.16627452E+03</pdfrwt>
<totfact> 0.18404333E+04</totfact>
</mgrwt>
</event>
<event>
 4    1  0.2126213E+000  0.3192451E+02  0.7546771E-02  0.1577741E+00
         -3   -1    0    0    0  501 -0.00000000000E+00  0.00000000000E+00  0.33918007612E+02  0.33918007612E+02  0.00000000000E+00 0.  1.
          3   -1    0    0  501    0  0.00000000000E+00 -0.00000000000E+00 -0.75120459894E+01  0.75120459894E+01  0.00000000000E+00 0. -1.
        -13    1    1    2    0    0  0.29417728013E+01 -0.12302093695E+02  0.25838439799E+02  0.28768394250E+02  0.00000000000E+00 0.  1.
         13    1    1    2    0    0 -0.29417728013E+01  0.12302093695E+02  0.56752182333E+00  0.12661659351E+02  0.00000000000E+00 0. -1.
<mgrwt>
<rscale>  0 0.31924513E+02</rscale>
<asrwt>0</asrwt>
<pdfrwt beam="2">  1        3 0.11556994E-02 0.31924513E+02</pdfrwt>
<pdfrwt beam="1">  1       -3 0.52181550E-02 0.31924513E+02</pdfrwt>
<totfact> 0.57930013E+05</totfact>
</mgrwt>
</event>
<event>
 4    1  0.2126213E+000  0.3116978E+02  0.7546771E-02  0.1585507E+00
          2   -1    0    0  501    0  0.00000000000E+00  0.00000000000E+00  0.10445910829E+03  0.10445910829E+03  0.00000000000E+00 0.  1.
         -2   -1    0    0    0  501 -0.00000000000E+00 -0.00000000000E+00 -0.23252051178E+01  0.23252051178E+01  0.00000000000E+00 0. -1.
        -11    1    1    2    0    0 -0.14206322737E+02 -0.28908346897E+01  0.70661233843E+02  0.72133116521E+02  0.00000000000E+00 0.  1.
         11    1    1    2    0    0  0.14206322737E+02  0.28908346897E+01  0.31472669326E+02  0.34651196883E+02  0.00000000000E+00 0. -1.
<mgrwt>
<rscale>  0 0.31169784E+02</rscale>
<asrwt>0</asrwt>
<pdfrwt beam="1">  1        2 0.16070628E-01 0.31169784E+02</pdfrwt>
<pdfrwt beam="2">  1       -2 0.35772395E-03 0.31169784E+02</pdfrwt>
<totfact> 0.19290668E+06</totfact>
</mgrwt>
</event>
<event>
 4    1  0.2126213E+000  0.2123450E+02  0.7546771E-02  0.1721837E+00
          2   -1    0    0  501    0  0.00000000000E+00  0.00000000000E+00  0.41604290700E+02  0.41604290700E+02  0.00000000000E+00 0. -1.
         -2   -1    0    0    0  501 -0.00000000000E+00 -0.00000000000E+00 -0.27094802469E+01  0.27094802469E+01  0.00000000000E+00 0.  1.
        -11    1    1    2    0    0  0.61629091693E-01  0.10462489120E+02  0.23214506770E+02  0.25463322668E+02  0.00000000000E+00 0. -1.
         11    1    1    2    0    0 -0.61629091693E-01 -0.10462489120E+02  0.15680303684E+02  0.18850448279E+02  0.00000000000E+00 0.  1.
<mgrwt>
<rscale>  0 0.21234501E+02</rscale>
<asrwt>0</asrwt>
<pdfrwt beam="1">  1        2 0.64006596E-02 0.21234501E+02</pdfrwt>
<pdfrwt beam="2">  1       -2 0.41684314E-03 0.21234501E+02</pdfrwt>
<totfact> 0.39449297E+06</totfact>
</mgrwt>
</event>
<event>
 4    1  0.2126213E+000  0.2354731E+02  0.7546771E-02  0.1682789E+00
         -3   -1    0    0    0  501 -0.00000000000E+00  0.00000000000E+00  0.92757932102E+02  0.92757932102E+02  0.00000000000E+00 0. -1.
          3   -1    0    0  501    0  0.00000000000E+00 -0.00000000000E+00 -0.14944164952E+01  0.14944164952E+01  0.00000000000E+00 0.  1.
        -13    1    1    2    0    0 -0.89760471118E+01 -0.60456375294E+01  0.64191345827E+02  0.65097219864E+02  0.00000000000E+00 0. -1.
         13    1    1    2    0    0  0.89760471118E+01  0.60456375294E+01  0.27072169780E+02  0.29155128734E+02  0.00000000000E+00 0.  1.
<mgrwt>
<rscale>  0 0.23547313E+02</rscale>
<asrwt>0</asrwt>
<pdfrwt beam="2">  1        3 0.22991030E-03 0.23547313E+02</pdfrwt>
<pdfrwt beam="1">  1       -3 0.14270447E-01 0.23547313E+02</pdfrwt>
<totfact> 0.10067914E+06</totfact>
</mgrwt>
</event>
<event>
 4    1  0.2126213E+000  0.4129568E+02  0.7546771E-02  0.1498888E+00
         -2   -1    0    0    0  501 -0.00000000000E+00  0.00000000000E+00  0.15604414111E+03  0.15604414111E+03  0.00000000000E+00 0. -1.
          2   -1    0    0  501    0  0.00000000000E+00 -0.00000000000E+00 -0.27321320160E+01  0.27321320160E+01  0.00000000000E+00 0.  1.
        -11    1    1    2    0    0 -0.20595827643E+02  0.32294001546E+00  0.71163380108E+02  0.74084540054E+02  0.00000000000E+00 0.  1.
         11    1    1    2    0    0  0.20595827643E+02 -0.32294001546E+00  0.82148628981E+02  0.84691733067E+02  0.00000000000E+00 0. -1.
<mgrwt>
<rscale>  0 0.41295675E+02</rscale>
<asrwt>0</asrwt>
<pdfrwt beam="2">  1        2 0.42032812E-03 0.41295675E+02</pdfrwt>
<pdfrwt beam="1">  1       -2 0.24006784E-01 0.41295675E+02</pdfrwt>
<totfact> 0.49281910E+05</totfact>
</mgrwt>
</event>
<event>
 4    1  0.2126213E+000  0.2121240E+02  0.7546771E-02  0.1722240E+00
          2   -1    0    0  501    0  0.00000000000E+00  0.00000000000E+00  0.16798767791E+02  0.16798767791E+02  0.00000000000E+00 0.  1.
         -2   -1    0    0    0  501 -0.00000000000E+00 -0.00000000000E+00 -0.66964112037E+01  0.66964112037E+01  0.00000000000E+00 0. -1.
        -13    1    1    2    0    0  0.89043951151E+01 -0.57032603868E+01  0.41404884118E+01  0.11356014957E+02  0.00000000000E+00 0.  1.
         13    1    1    2    0    0 -0.89043951151E+01  0.57032603868E+01  0.59618681758E+01  0.12139164038E+02  0.00000000000E+00 0. -1.
<mgrwt>
<rscale>  0 0.21212398E+02</rscale>
<asrwt>0</asrwt>
<pdfrwt beam="1">  1        2 0.25844258E-02 0.21212398E+02</pdfrwt>
<pdfrwt beam="2">  1       -2 0.10302171E-02 0.21212398E+02</pdfrwt>
<totfact> 0.35914651E+06</totfact>
</mgrwt>
</event>
<event>
 4    1  0.2126213E+000  0.3092926E+02  0.7546771E-02  0.1588038E+00
          2   -1    0    0  501    0  0.00000000000E+00  0.00000000000E+00  0.28894880846E+01  0.28894880846E+01  0.00000000000E+00 0. -1.
         -2   -1    0    0    0  501 -0.00000000000E+00 -0.00000000000E+00 -0.82767163685E+02  0.82767163685E+02  0.00000000000E+00 0.  1.
        -11    1    1    2    0    0 -0.55455175590E+01 -0.13822752376E+02 -0.28408698530E+02  0.32076087673E+02  0.00000000000E+00 0. -1.
         11    1    1    2    0    0  0.55455175590E+01  0.13822752376E+02 -0.51468977071E+02  0.53580564097E+02  0.00000000000E+00 0.  1.
<mgrwt>
<rscale>  0 0.30929257E+02</rscale>
<asrwt>0</asrwt>
<pdfrwt beam="1">  1        2 0.44453669E-03 0.30929257E+02</pdfrwt>
<pdfrwt beam="2">  1       -2 0.12733408E-01 0.30929257E+02</pdfrwt>
<totfact> 0.11598097E+06</totfact>
</mgrwt>
</event>
<event>
 4    1  0.2126213E+000  0.4117655E+02  0.7546771E-02  0.1499728E+00
          4   -1    0    0  501    0  0.00000000000E+00  0.00000000000E+00  0.19256621756E+02  0.19256621756E+02  0.00000000000E+00 0.  1.
         -4   -1    0    0    0  501 -0.00000000000E+00 -0.00000000000E+00 -0.22012013666E+02  0.22012013666E+02  0.00000000000E+00 0. -1.
        -13    1    1    2    0    0 -0.19654585896E+02  0.10710808402E+01 -0.74266772122E+01  0.21038191351E+02  0.00000000000E+00 0. -1.
         13    1    1    2    0    0  0.19654585896E+02 -0.10710808402E+01  0.46712853027E+01  0.20230444071E+02  0.00000000000E+00 0.  1.
<mgrwt>
<rscale>  0 0.41176548E+02</rscale>
<asrwt>0</asrwt>
<pdfrwt beam="1">  1        4 0.29625572E-02 0.41176548E+02</pdfrwt>
<pdfrwt beam="2">  1       -4 0.33864636E-02 0.41176548E+02</pdfrwt>
<totfact> 0.23847883E+05</totfact>
</mgrwt>
</event>
<event>
 4    1  0.2126213E+000  0.2258681E+02  0.7546771E-02  0.1698297E+00
         -2   -1    0    0    0  501 -0.00000000000E+00  0.00000000000E+00  0.69921691905E+01  0.69921691905E+01  0.00000000000E+00 0. -1.
          2   -1    0    0  501    0  0.00000000000E+00 -0.00000000000E+00 -0.18240543794E+02  0.18240543794E+02  0.00000000000E+00 0.  1.
        -11    1    1    2    0    0 -0.83904290145E+01  0.75590229057E+01 -0.55646319266E+01  0.12589807577E+02  0.00000000000E+00 0.  1.
         11    1    1    2    0    0  0.83904290145E+01 -0.75590229057E+01 -0.56837426769E+01  0.12642905408E+02  0.00000000000E+00 0. -1.
<mgrwt>
<rscale>  0 0.22586808E+02</rscale>
<asrwt>0</asrwt>
<pdfrwt beam="2">  1        2 0.28062374E-02 0.22586808E+02</pdfrwt>
<pdfrwt beam="1">  1       -2 0.10757184E-02 0.22586808E+02</pdfrwt>
<totfact> 0.31310804E+06</totfact>
</mgrwt>
</event>
<event>
 4    1  0.2126213E+000  0.3521844E+02  0.7546771E-02  0.1546669E+00
          2   -1    0    0  501    0  0.00000000000E+00  0.00000000000E+00  0.27399121593E+02  0.27399121593E+02  0.00000000000E+00 0.  1.
         -2   -1    0    0    0  501 -0.00000000000E+00 -0.00000000000E+00 -0.11317319235E+02  0.11317319235E+02  0.00000000000E+00 0. -1.
        -11    1    1    2    0    0 -0.14774245518E+02 -0.87079135371E+01  0.12435240227E+02  0.21183514541E+02  0.00000000000E+00 0.  1.
         11    1    1    2    0    0  0.14774245518E+02  0.87079135371E+01  0.36465621315E+01  0.17532926287E+02  0.00000000000E+00 0. -1.
<mgrwt>
<rscale>  0 0.35218439E+02</rscale>
<asrwt>0</asrwt>
<pdfrwt beam="1">  1        2 0.42152495E-02 0.35218439E+02</pdfrwt>
<pdfrwt beam="2">  1       -2 0.17411260E-02 0.35218439E+02</pdfrwt>
<totfact> 0.11303680E+06</totfact>
</mgrwt>
</event>
<event>
 4    1  0.2126213E+000  0.2912400E+02  0.7546771E-02  0.1607979E+00
          2   -1    0    0  501    0  0.00000000000E+00  0.00000000000E+00  0.36832553020E+01  0.36832553020E+01  0.00000000000E+00 0.  1.
         -2   -1    0    0    0  501 -0.00000000000E+00 -0.00000000000E+00 -0.57571838729E+02  0.57571838729E+02  0.00000000000E+00 0. -1.
        -11    1    1    2    0    0 -0.58085170436E+01  0.11677585396E+02 -0.40566303049E+02  0.42611381273E+02  0.00000000000E+00 0. -1.
         11    1    1    2    0    0  0.58085170436E+01 -0.11677585396E+02 -0.13322280379E+02  0.18643712759E+02  0.00000000000E+00 0.  1.
<mgrwt>
<rscale>  0 0.29123996E+02</rscale>
<asrwt>0</asrwt>
<pdfrwt beam="1">  1        2 0.56665472E-03 0.29123996E+02</pdfrwt>
<pdfrwt beam="2">  1       -2 0.88572051E-02 0.29123996E+02</pdfrwt>
<totfact> 0.14259196E+06</totfact>
</mgrwt>
</event>
<event>
 4    1  0.2126213E+000  0.4879929E+02  0.7546771E-02  0.1451928E+00
         -2   -1    0    0    0  501 -0.00000000000E+00  0.00000000000E+00  0.17968446414E+02  0.17968446414E+02  0.00000000000E+00 0.  1.
          2   -1    0    0  501    0  0.00000000000E+00 -0.00000000000E+00 -0.33132679964E+02  0.33132679964E+02  0.00000000000E+00 0. -1.
        -11    1    1    2    0    0 -0.84996911608E+01  0.11207054645E+02 -0.28459952462E+02  0.31746050428E+02  0.00000000000E+00 0. -1.
         11    1    1    2    0    0  0.84996911608E+01 -0.11207054645E+02  0.13295718911E+02  0.19355075950E+02  0.00000000000E+00 0.  1.
<mgrwt>
<rscale>  0 0.48799294E+02</rscale>
<asrwt>0</asrwt>
<pdfrwt beam="2">  1        2 0.50973353E-02 0.48799294E+02</pdfrwt>
<pdfrwt beam="1">  1       -2 0.27643764E-02 0.48799294E+02</pdfrwt>
<totfact> 0.50824443E+05</totfact>
</mgrwt>
</event>
<event>
 4    1  0.2126213E+000  0.2223360E+02  0.7546771E-02  0.1704243E+00
         -3   -1    0    0    0  501 -0.00000000000E+00  0.00000000000E+00  0.12810734569E+01  0.12810734569E+01  0.00000000000E+00 0. -1.
          3   -1    0    0  501    0  0.00000000000E+00 -0.00000000000E+00 -0.96468535066E+02  0.96468535066E+02  0.00000000000E+00 0.  1.
        -11    1    1    2    0    0 -0.17410380126E+01 -0.10514011126E+02 -0.33685530674E+02  0.35331156507E+02  0.00000000000E+00 0. -1.
         11    1    1    2    0    0  0.17410380126E+01  0.10514011126E+02 -0.61501930935E+02  0.62418452015E+02  0.00000000000E+00 0.  1.
<mgrwt>
<rscale>  0 0.22233603E+02</rscale>
<asrwt>0</asrwt>
<pdfrwt beam="2">  1        3 0.14841309E-01 0.22233603E+02</pdfrwt>
<pdfrwt beam="1">  1       -3 0.19708828E-03 0.22233603E+02</pdfrwt>
<totfact> 0.11326791E+06</totfact>
</mgrwt>
</event>
<event>
 4    1  0.2126213E+000  0.4082348E+02  0.7546771E-02  0.1502237E+00
          2   -1    0    0  501    0  0.00000000000E+00  0.00000000000E+00  0.39373384223E+02  0.39373384223E+02  0.00000000000E+00 0.  1.
         -2   -1    0    0    0  501 -0.00000000000E+00 -0.00000000000E+00 -0.10581746650E+02  0.10581746650E+02  0.00000000000E+00 0. -1.
        -13    1    1    2    0    0 -0.12293268853E+02  0.64998946544E+01 -0.38886115327E+01  0.14439334793E+02  0.00000000000E+00 0. -1.
         13    1    1    2    0    0  0.12293268853E+02 -0.64998946544E+01  0.32680249105E+02  0.35515796080E+02  0.00000000000E+00 0.  1.
<mgrwt>
<rscale>  0 0.40823482E+02</rscale>
<asrwt>0</asrwt>
<pdfrwt beam="1">  1        2 0.60574437E-02 0.40823482E+02</pdfrwt>
<pdfrwt beam="2">  1       -2 0.16279610E-02 0.40823482E+02</pdfrwt>
<totfact> 0.82391909E+05</totfact>
</mgrwt>
</event>
<event>
 4    1  0.2126213E+000  0.2538853E+02  0.7546771E-02  0.1655483E+00
          1   -1    0    0  501    0  0.00000000000E+00  0.00000000000E+00  0.19923906441E+02  0.19923906441E+02  0.00000000000E+00 0.  1.
         -1   -1    0    0    0  501 -0.00000000000E+00 -0.00000000000E+00 -0.80879898430E+01  0.80879898430E+01  0.00000000000E+00 0. -1.
        -13    1    1    2    0    0  0.72709969231E+01 -0.91113247509E+01  0.11463293630E+02  0.16349028590E+02  0.00000000000E+00 0.  1.
         13    1    1    2    0    0 -0.72709969231E+01  0.91113247509E+01  0.37262296752E+00  0.11662867694E+02  0.00000000000E+00 0. -1.
<mgrwt>
<rscale>  0 0.25388529E+02</rscale>
<asrwt>0</asrwt>
<pdfrwt beam="1">  1        1 0.30652164E-02 0.25388529E+02</pdfrwt>
<pdfrwt beam="2">  1       -1 0.12443061E-02 0.25388529E+02</pdfrwt>
<totfact> 0.22973661E+06</totfact>
</mgrwt>
</event>
<event>
 4    1  0.2126213E+000  0.5342804E+02  0.7546771E-02  0.1427682E+00
          2   -1    0    0  501    0  0.00000000000E+00  0.00000000000E+00  0.59188525506E+02  0.59188525506E+02  0.00000000000E+00 0.  1.
         -2   -1    0    0    0  501 -0.00000000000E+00 -0.00000000000E+00 -0.12057047442E+02  0.12057047442E+02  0.00000000000E+00 0. -1.
        -11    1    1    2    0    0  0.25603743177E+02 -0.17823468463E+01  0.33447084536E+02  0.42159647637E+02  0.00000000000E+00 0.  1.
         11    1    1    2    0    0 -0.25603743177E+02  0.17823468463E+01  0.13684393528E+02  0.29085925311E+02  0.00000000000E+00 0. -1.
<mgrwt>
<rscale>  0 0.53428040E+02</rscale>
<asrwt>0</asrwt>
<pdfrwt beam="1">  1        2 0.91059268E-02 0.53428040E+02</pdfrwt>
<pdfrwt beam="2">  1       -2 0.18549304E-02 0.53428040E+02</pdfrwt>
<totfact> 0.44710117E+05</totfact>
</mgrwt>
</event>
<event>
 4    1  0.2126213E+000  0.3279741E+02  0.7546771E-02  0.1569078E+00
         -4   -1    0    0    0  501 -0.00000000000E+00  0.00000000000E+00  0.10373663054E+03  0.10373663054E+03  0.00000000000E+00 0. -1.
          4   -1    0    0  501    0  0.00000000000E+00 -0.00000000000E+00 -0.25923096111E+01  0.25923096111E+01  0.00000000000E+00 0.  1.
        -11    1    1    2    0    0 -0.13439744671E+01 -0.15822996035E+02  0.37306114162E+02  0.40545278699E+02  0.00000000000E+00 0.  1.
         11    1    1    2    0    0  0.13439744671E+01  0.15822996035E+02  0.63838206771E+02  0.65783661456E+02  0.00000000000E+00 0. -1.
<mgrwt>
<rscale>  0 0.32797406E+02</rscale>
<asrwt>0</asrwt>
<pdfrwt beam="2">  1        4 0.39881694E-03 0.32797406E+02</pdfrwt>
<pdfrwt beam="1">  1       -4 0.15959478E-01 0.32797406E+02</pdfrwt>
<totfact> 0.33424619E+05</totfact>
</mgrwt>
</event>
<event>
 4    1  0.2126213E+000  0.3190191E+02  0.7546771E-02  0.1577969E+00
         -2   -1    0    0    0  501 -0.00000000000E+00  0.00000000000E+00  0.19082476838E+02  0.19082476838E+02  0.00000000000E+00 0.  1.
          2   -1    0    0  501    0  0.00000000000E+00 -0.00000000000E+00 -0.13333329179E+02  0.13333329179E+02  0.00000000000E+00 0. -1.
        -13    1    1    2    0    0 -0.12316018901E+02 -0.44581419039E+01  0.12124712520E+02  0.17848473450E+02  0.00000000000E+00 0.  1.
         13    1    1    2    0    0  0.12316018901E+02  0.44581419039E+01 -0.63755648617E+01  0.14567332567E+02  0.00000000000E+00 0. -1.
<mgrwt>
<rscale>  0 0.31901909E+02</rscale>
<asrwt>0</asrwt>
<pdfrwt beam="2">  1        2 0.20512814E-02 0.31901909E+02</pdfrwt>
<pdfrwt beam="1">  1       -2 0.29357657E-02 0.31901909E+02</pdfrwt>
<totfact> 0.13288054E+06</totfact>
</mgrwt>
</event>
<event>
 4    1  0.2126213E+000  0.2378708E+02  0.7546771E-02  0.1679061E+00
         -2   -1    0    0    0  501 -0.00000000000E+00  0.00000000000E+00  0.18376190126E+01  0.18376190126E+01  0.00000000000E+00 0. -1.
          2   -1    0    0  501    0  0.00000000000E+00 -0.00000000000E+00 -0.76978036884E+02  0.76978036884E+02  0.00000000000E+00 0.  1.
        -13    1    1    2    0    0 -0.66998067939E+01 -0.98072788186E+01 -0.35511174767E+02  0.37444808215E+02  0.00000000000E+00 0. -1.
         13    1    1    2    0    0  0.66998067939E+01  0.98072788186E+01 -0.39629243105E+02  0.41370847682E+02  0.00000000000E+00 0.  1.
<mgrwt>
<rscale>  0 0.23787081E+02</rscale>
<asrwt>0</asrwt>
<pdfrwt beam="2">  1        2 0.11842774E-01 0.23787081E+02</pdfrwt>
<pdfrwt beam="1">  1       -2 0.28271063E-03 0.23787081E+02</pdfrwt>
<totfact> 0.33796057E+06</totfact>
</mgrwt>
</event>
<event>
 4    1  0.2126213E+000  0.5874447E+02  0.7546771E-02  0.1403177E+00
         -2   -1    0    0    0  501 -0.00000000000E+00  0.00000000000E+00  0.55206370017E+01  0.55206370017E+01  0.00000000000E+00 0.  1.
          2   -1    0    0  501    0  0.00000000000E+00 -0.00000000000E+00 -0.15627329244E+03  0.15627329244E+03  0.00000000000E+00 0. -1.
        -11    1    1    2    0    0  0.68638064346E+01 -0.25854991248E+02 -0.10878462133E+03  0.11202538217E+03  0.00000000000E+00 0. -1.
         11    1    1    2    0    0 -0.68638064346E+01  0.25854991248E+02 -0.41968034109E+02  0.49768547278E+02  0.00000000000E+00 0.  1.
<mgrwt>
<rscale>  0 0.58744468E+02</rscale>
<asrwt>0</asrwt>
<pdfrwt beam="2">  1        2 0.24042048E-01 0.58744468E+02</pdfrwt>
<pdfrwt beam="1">  1       -2 0.84932867E-03 0.58744468E+02</pdfrwt>
<totfact> 0.45169824E+05</totfact>
</mgrwt>
</event>
<event>
 4    1  0.2126213E+000  0.4096468E+02  0.7546771E-02  0.1501230E+00
         -2   -1    0    0    0  501 -0.00000000000E+00  0.00000000000E+00  0.11470961053E+02  0.11470961053E+02  0.00000000000E+00 0.  1.
          2   -1    0    0  501    0  0.00000000000E+00 -0.00000000000E+00 -0.36572892913E+02  0.36572892913E+02  0.00000000000E+00 0. -1.
        -13    1    1    2    0    0 -0.67294412046E+01  0.17251438385E+02 -0.22817505427E+02  0.29385984060E+02  0.00000000000E+00 0. -1.
         13    1    1    2    0    0  0.67294412046E+01 -0.17251438385E+02 -0.22844264331E+01  0.18657869906E+02  0.00000000000E+00 0.  1.
<mgrwt>
<rscale>  0 0.40964679E+02</rscale>
<asrwt>0</asrwt>
<pdfrwt beam="2">  1        2 0.56265988E-02 0.40964679E+02</pdfrwt>
<pdfrwt beam="1">  1       -2 0.17647633E-02 0.40964679E+02</pdfrwt>
<totfact> 0.80743439E+05</totfact>
</mgrwt>
</event>
<event>
 4    1  0.2126213E+000  0.3451771E+02  0.7546771E-02  0.1552926E+00
          2   -1    0    0  501    0  0.00000000000E+00  0.00000000000E+00  0.39770916083E+02  0.39770916083E+02  0.00000000000E+00 0. -1.
         -2   -1    0    0    0  501 -0.00000000000E+00 -0.00000000000E+00 -0.74895949431E+01  0.74895949431E+01  0.00000000000E+00 0.  1.
        -11    1    1    2    0    0  0.12871978009E+02 -0.56647617489E+01  0.29838539919E+02  0.32986600432E+02  0.00000000000E+00 0. -1.
         11    1    1    2    0    0 -0.12871978009E+02  0.56647617489E+01  0.24427812201E+01  0.14273910594E+02  0.00000000000E+00 0.  1.
<mgrwt>
<rscale>  0 0.34517709E+02</rscale>
<asrwt>0</asrwt>
<pdfrwt beam="1">  1        2 0.61186023E-02 0.34517709E+02</pdfrwt>
<pdfrwt beam="2">  1       -2 0.11522454E-02 0.34517709E+02</pdfrwt>
<totfact> 0.12504824E+06</totfact>
</mgrwt>
</event>
<event>
 4    1  0.2126213E+000  0.2455658E+02  0.7546771E-02  0.1667454E+00
         -4   -1    0    0    0  501 -0.00000000000E+00  0.00000000000E+00  0.65160109643E+01  0.65160109643E+01  0.00000000000E+00 0.  1.
          4   -1    0    0  501    0  0.00000000000E+00 -0.00000000000E+00 -0.23136304124E+02  0.23136304124E+02  0.00000000000E+00 0. -1.
        -11    1    1    2    0    0 -0.54530712663E+01  0.10796086373E+02 -0.10861665128E+02  0.16256298366E+02  0.00000000000E+00 0.  1.
         11    1    1    2    0    0  0.54530712663E+01 -0.10796086373E+02 -0.57586280321E+01  0.13396016722E+02  0.00000000000E+00 0. -1.
<mgrwt>
<rscale>  0 0.24556580E+02</rscale>
<asrwt>0</asrwt>
<pdfrwt beam="2">  1        4 0.35594314E-02 0.24556580E+02</pdfrwt>
<pdfrwt beam="1">  1       -4 0.10024632E-02 0.24556580E+02</pdfrwt>
<totfact> 0.81105345E+05</totfact>
</mgrwt>
</event>
<event>
 4    1  0.2126213E+000  0.2254710E+02  0.7546771E-02  0.1698958E+00
          2   -1    0    0  501    0  0.00000000000E+00  0.00000000000E+00  0.32219308161E+02  0.32219308161E+02  0.00000000000E+00 0.  1.
         -2   -1    0    0    0  501 -0.00000000000E+00 -0.00000000000E+00 -0.39446202407E+01  0.39446202407E+01  0.00000000000E+00 0. -1.
        -11    1    1    2    0    0  0.10179946012E+02  0.11135853486E+01  0.65764666343E+01  0.12170508885E+02  0.00000000000E+00 0.  1.
         11    1    1    2    0    0 -0.10179946012E+02 -0.11135853486E+01  0.21698221286E+02  0.23993419517E+02  0.00000000000E+00 0. -1.
<mgrwt>
<rscale>  0 0.22547100E+02</rscale>
<asrwt>0</asrwt>
<pdfrwt beam="1">  1        2 0.49568165E-02 0.22547100E+02</pdfrwt>
<pdfrwt beam="2">  1       -2 0.60686467E-03 0.22547100E+02</pdfrwt>
<totfact> 0.33322307E+06</totfact>
</mgrwt>
</event>
<event>
 4    1  0.2126213E+000  0.6705144E+02  0.7546771E-02  0.1370417E+00
         -2   -1    0    0    0  501 -0.00000000000E+00  0.00000000000E+00  0.66083216945E+01  0.66083216945E+01  0.00000000000E+00 0.  1.
          2   -1    0    0  501    0  0.00000000000E+00 -0.00000000000E+00 -0.17008463174E+03  0.17008463174E+03  0.00000000000E+00 0. -1.
        -13    1    1    2    0    0  0.17649587769E+02 -0.28469423883E+02 -0.85425453278E+02  0.91757964845E+02  0.00000000000E+00 0. -1.
         13    1    1    2    0    0 -0.17649587769E+02  0.28469423883E+02 -0.78050856768E+02  0.84934988590E+02  0.00000000000E+00 0.  1.
<mgrwt>
<rscale>  0 0.67051442E+02</rscale>
<asrwt>0</asrwt>
<pdfrwt beam="2">  1        2 0.26166864E-01 0.67051442E+02</pdfrwt>
<pdfrwt beam="1">  1       -2 0.10166650E-02 0.67051442E+02</pdfrwt>
<totfact> 0.32987732E+05</totfact>
</mgrwt>
</event>
<event>
 4    1  0.2126213E+000  0.3584875E+02  0.7546771E-02  0.1541190E+00
         -2   -1    0    0    0  501 -0.00000000000E+00  0.00000000000E+00  0.13402592578E+03  0.13402592578E+03  0.00000000000E+00 0. -1.
          2   -1    0    0  501    0  0.00000000000E+00 -0.00000000000E+00 -0.23971723764E+01  0.23971723764E+01  0.00000000000E+00 0.  1.
        -13    1    1    2    0    0  0.15990621494E+02  0.66481060420E+01  0.83412980734E+02  0.85191681781E+02  0.00000000000E+00 0. -1.
         13    1    1    2    0    0 -0.15990621494E+02 -0.66481060420E+01  0.48215772667E+02  0.51231416373E+02  0.00000000000E+00 0.  1.
<mgrwt>
<rscale>  0 0.35848752E+02</rscale>
<asrwt>0</asrwt>
<pdfrwt beam="2">  1        2 0.36879586E-03 0.35848752E+02</pdfrwt>
<pdfrwt beam="1">  1       -2 0.20619367E-01 0.35848752E+02</pdfrwt>
<totfact> 0.72565733E+05</totfact>
</mgrwt>
</event>
<event>
 4    1  0.2126213E+000  0.4054914E+02  0.7546771E-02  0.1504209E+00
          4   -1    0    0  501    0  0.00000000000E+00  0.00000000000E+00  0.65980363325E+01  0.65980363325E+01  0.00000000000E+00 0. -1.
         -4   -1    0    0    0  501 -0.00000000000E+00 -0.00000000000E+00 -0.62300080310E+02  0.62300080310E+02  0.00000000000E+00 0.  1.
        -13    1    1    2    0    0 -0.18591366692E+01 -0.10563443104E+02  0.13826188705E+01  0.10814543648E+02  0.00000000000E+00 0. -1.
         13    1    1    2    0    0  0.18591366692E+01  0.10563443104E+02 -0.57084662848E+02  0.58083572995E+02  0.00000000000E+00 0.  1.
<mgrwt>
<rscale>  0 0.40549140E+02</rscale>
<asrwt>0</asrwt>
<pdfrwt beam="1">  1        4 0.10150825E-02 0.40549140E+02</pdfrwt>
<pdfrwt beam="2">  1       -4 0.95846277E-02 0.40549140E+02</pdfrwt>
<totfact> 0.22675007E+05</totfact>
</mgrwt>
</event>
<event>
 4    1  0.2126213E+000  0.2211186E+02  0.7546771E-02  0.1706325E+00
          2   -1    0    0  501    0  0.00000000000E+00  0.00000000000E+00  0.85589068165E+01  0.85589068165E+01  0.00000000000E+00 0.  1.
         -2   -1    0    0    0  501 -0.00000000000E+00 -0.00000000000E+00 -0.14281453184E+02  0.14281453184E+02  0.00000000000E+00 0. -1.
        -13    1    1    2    0    0 -0.27376700118E+01  0.10588869448E+02 -0.11910172312E+01  0.11001705110E+02  0.00000000000E+00 0.  1.
         13    1    1    2    0    0  0.27376700118E+01 -0.10588869448E+02 -0.45315291359E+01  0.11838654890E+02  0.00000000000E+00 0. -1.
<mgrwt>
<rscale>  0 0.22111864E+02</rscale>
<asrwt>0</asrwt>
<pdfrwt beam="1">  1        2 0.13167549E-02 0.22111864E+02</pdfrwt>
<pdfrwt beam="2">  1       -2 0.21971467E-02 0.22111864E+02</pdfrwt>
<totfact> 0.30907173E+06</totfact>
</mgrwt>
</event>
<event>
 4    1  0.2126213E+000  0.2837002E+02  0.7546771E-02  0.1616838E+00
          2   -1    0    0  501    0  0.00000000000E+00  0.00000000000E+00  0.20134129207E+02  0.20134129207E+02  0.00000000000E+00 0. -1.
         -2   -1    0    0    0  501 -0.00000000000E+00 -0.00000000000E+00 -0.99937018574E+01  0.99937018574E+01  0.00000000000E+00 0.  1.
        -13    1    1    2    0    0  0.10055620744E+02  0.63253399718E+01 -0.31617969291E+01  0.12293184865E+02  0.00000000000E+00 0.  1.
         13    1    1    2    0    0 -0.10055620744E+02 -0.63253399718E+01  0.13302224278E+02  0.17834646199E+02  0.00000000000E+00 0. -1.
<mgrwt>
<rscale>  0 0.28370018E+02</rscale>
<asrwt>0</asrwt>
<pdfrwt beam="1">  1        2 0.30975583E-02 0.28370018E+02</pdfrwt>
<pdfrwt beam="2">  1       -2 0.15374926E-02 0.28370018E+02</pdfrwt>
<totfact> 0.18475278E+06</totfact>
</mgrwt>
</event>
<event>
 4    1  0.2126213E+000  0.2923890E+02  0.7546771E-02  0.1606657E+00
         -1   -1    0    0    0  501 -0.00000000000E+00  0.00000000000E+00  0.80120338668E+01  0.80120338668E+01  0.00000000000E+00 0.  1.
          1   -1    0    0  501    0  0.00000000000E+00 -0.00000000000E+00 -0.26675911963E+02  0.26675911963E+02  0.00000000000E+00 0. -1.
        -11    1    1    2    0    0 -0.12840652106E+02 -0.47672192407E+01 -0.15395122250E+02  0.20606273678E+02  0.00000000000E+00 0. -1.
         11    1    1    2    0    0  0.12840652106E+02  0.47672192407E+01 -0.32687558453E+01  0.14081672151E+02  0.00000000000E+00 0.  1.
<mgrwt>
<rscale>  0 0.29238899E+02</rscale>
<asrwt>0</asrwt>
<pdfrwt beam="2">  1        1 0.41039865E-02 0.29238899E+02</pdfrwt>
<pdfrwt beam="1">  1       -1 0.12326206E-02 0.29238899E+02</pdfrwt>
<totfact> 0.16720529E+06</totfact>
</mgrwt>
</event>
<event>
 4    1  0.2126213E+000  0.2165716E+02  0.7546771E-02  0.1714250E+00
          2   -1    0    0  501    0  0.00000000000E+00  0.00000000000E+00  0.78122371411E+02  0.78122371411E+02  0.00000000000E+00 0.  1.
         -2   -1    0    0    0  501 -0.00000000000E+00 -0.00000000000E+00 -0.15009541091E+01  0.15009541091E+01  0.00000000000E+00 0. -1.
        -13    1    1    2    0    0 -0.56592842211E+01  0.88494994983E+01  0.28641378716E+02  0.30506879782E+02  0.00000000000E+00 0. -1.
         13    1    1    2    0    0  0.56592842211E+01 -0.88494994983E+01  0.47980038586E+02  0.49116445739E+02  0.00000000000E+00 0.  1.
<mgrwt>
<rscale>  0 0.21657155E+02</rscale>
<asrwt>0</asrwt>
<pdfrwt beam="1">  1        2 0.12018823E-01 0.21657155E+02</pdfrwt>
<pdfrwt beam="2">  1       -2 0.23091608E-03 0.21657155E+02</pdfrwt>
<totfact> 0.41917843E+06</totfact>
</mgrwt>
</event>
<event>
 4    1  0.2126213E+000  0.2291755E+02  0.7546771E-02  0.1692850E+00
         -1   -1    0    0    0  501 -0.00000000000E+00  0.00000000000E+00  0.30335873371E+02  0.30335873371E+02  0.00000000000E+00 0.  1.
          1   -1    0    0  501    0  0.00000000000E+00 -0.00000000000E+00 -0.43283260310E+01  0.43283260310E+01  0.00000000000E+00 0. -1.
        -11    1    1    2    0    0  0.25511658551E+00  0.11329536346E+02  0.15570707208E+02  0.19257995774E+02  0.00000000000E+00 0. -1.
         11    1    1    2    0    0 -0.25511658551E+00 -0.11329536346E+02  0.10436840132E+02  0.15406203628E+02  0.00000000000E+00 0.  1.
<mgrwt>
<rscale>  0 0.22917552E+02</rscale>
<asrwt>0</asrwt>
<pdfrwt beam="2">  1        1 0.66589633E-03 0.22917552E+02</pdfrwt>
<pdfrwt beam="1">  1       -1 0.46670573E-02 0.22917552E+02</pdfrwt>
<totfact> 0.26927338E+06</totfact>
</mgrwt>
</event>
<event>
 4    1  0.2126213E+000  0.2835225E+02  0.7546771E-02  0.1617051E+00
         -2   -1    0    0    0  501 -0.00000000000E+00  0.00000000000E+00  0.58563499922E+01  0.58563499922E+01  0.00000000000E+00 0.  1.
          2   -1    0    0  501    0  0.00000000000E+00 -0.00000000000E+00 -0.34315315325E+02  0.34315315325E+02  0.00000000000E+00 0. -1.
        -13    1    1    2    0    0  0.11631555740E+01  0.10629240286E+02 -0.10419507876E+01  0.10743339396E+02  0.00000000000E+00 0.  1.
         13    1    1    2    0    0 -0.11631555740E+01 -0.10629240286E+02 -0.27417014545E+02  0.29428325921E+02  0.00000000000E+00 0. -1.
<mgrwt>
<rscale>  0 0.28352248E+02</rscale>
<asrwt>0</asrwt>
<pdfrwt beam="2">  1        2 0.52792793E-02 0.28352248E+02</pdfrwt>
<pdfrwt beam="1">  1       -2 0.90097691E-03 0.28352248E+02</pdfrwt>
<totfact> 0.19681768E+06</totfact>
</mgrwt>
</event>
<event>
 4    1  0.2126213E+000  0.2110648E+02  0.7546771E-02  0.1724179E+00
         -2   -1    0    0    0  501 -0.00000000000E+00  0.00000000000E+00  0.11163371157E+02  0.11163371157E+02  0.00000000000E+00 0. -1.
          2   -1    0    0  501    0  0.00000000000E+00 -0.00000000000E+00 -0.99764558261E+01  0.99764558261E+01  0.00000000000E+00 0.  1.
        -11    1    1    2    0    0 -0.76080090106E+01  0.70413198640E+01  0.25736732880E+01  0.10681094547E+02  0.00000000000E+00 0. -1.
         11    1    1    2    0    0  0.76080090106E+01 -0.70413198640E+01 -0.13867579572E+01  0.10458732436E+02  0.00000000000E+00 0.  1.
<mgrwt>
<rscale>  0 0.21106480E+02</rscale>
<asrwt>0</asrwt>
<pdfrwt beam="2">  1        2 0.15348394E-02 0.21106480E+02</pdfrwt>
<pdfrwt beam="1">  1       -2 0.17174417E-02 0.21106480E+02</pdfrwt>
<totfact> 0.34859522E+06</totfact>
</mgrwt>
</event>
<event>
 4    1  0.2126213E+000  0.2256721E+02  0.7546771E-02  0.1698623E+00
         -2   -1    0    0    0  501 -0.00000000000E+00  0.00000000000E+00  0.12818381630E+01  0.12818381630E+01  0.00000000000E+00 0.  1.
          2   -1    0    0  501    0  0.00000000000E+00 -0.00000000000E+00 -0.99325933529E+02  0.99325933529E+02  0.00000000000E+00 0. -1.
        -11    1    1    2    0    0 -0.11155072198E+02 -0.70065521784E+00 -0.55918802725E+02  0.57024898524E+02  0.00000000000E+00 0. -1.
         11    1    1    2    0    0  0.11155072198E+02  0.70065521784E+00 -0.42125292642E+02  0.43582873169E+02  0.00000000000E+00 0.  1.
<mgrwt>
<rscale>  0 0.22567213E+02</rscale>
<asrwt>0</asrwt>
<pdfrwt beam="2">  1        2 0.15280911E-01 0.22567213E+02</pdfrwt>
<pdfrwt beam="1">  1       -2 0.19720590E-03 0.22567213E+02</pdfrwt>
<totfact> 0.40237599E+06</totfact>
</mgrwt>
</event>
<event>
 4    1  0.2126213E+000  0.2250338E+02  0.7546771E-02  0.1699689E+00
          2   -1    0    0  501    0  0.00000000000E+00  0.00000000000E+00  0.18040533209E+01  0.18040533209E+01  0.00000000000E+00 0. -1.
         -2   -1    0    0    0  501 -0.00000000000E+00 -0.00000000000E+00 -0.70175613541E+02  0.70175613541E+02  0.00000000000E+00 0.  1.
        -11    1    1    2    0    0  0.39596680801E+01  0.10250629805E+02 -0.26451896851E+02  0.28643624591E+02  0.00000000000E+00 0.  1.
         11    1    1    2    0    0 -0.39596680801E+01 -0.10250629805E+02 -0.41919663369E+02  0.43336042271E+02  0.00000000000E+00 0. -1.
<mgrwt>
<rscale>  0 0.22503382E+02</rscale>
<asrwt>0</asrwt>
<pdfrwt beam="1">  1        2 0.27754666E-03 0.22503382E+02</pdfrwt>
<pdfrwt beam="2">  1       -2 0.10796248E-01 0.22503382E+02</pdfrwt>
<totfact> 0.24721221E+06</totfact>
</mgrwt>
</event>
<event>
 4    1  0.2126213E+000  0.2410229E+02  0.7546771E-02  0.1674241E+00
          4   -1    0    0  501    0  0.00000000000E+00  0.00000000000E+00  0.69832038337E+01  0.69832038337E+01  0.00000000000E+00 0. -1.
         -4   -1    0    0    0  501 -0.00000000000E+00 -0.00000000000E+00 -0.20797065589E+02  0.20797065589E+02  0.00000000000E+00 0.  1.
        -11    1    1    2    0    0 -0.11033750895E+02  0.30073745778E+01 -0.11287137091E+02  0.16068211611E+02  0.00000000000E+00 0.  1.
         11    1    1    2    0    0  0.11033750895E+02 -0.30073745778E+01 -0.25267246637E+01  0.11712057811E+02  0.00000000000E+00 0. -1.
<mgrwt>
<rscale>  0 0.24102294E+02</rscale>
<asrwt>0</asrwt>
<pdfrwt beam="1">  1        4 0.10743391E-02 0.24102294E+02</pdfrwt>
<pdfrwt beam="2">  1       -4 0.31995485E-02 0.24102294E+02</pdfrwt>
<totfact> 0.85073292E+05</totfact>
</mgrwt>
</event>
<event>
 4    1  0.2126213E+000  0.6244146E+02  0.7546771E-02  0.1387863E+00
         -3   -1    0    0    0  501 -0.00000000000E+00  0.00000000000E+00  0.43368364774E+02  0.43368364774E+02  0.00000000000E+00 0. -1.
          3   -1    0    0  501    0  0.00000000000E+00 -0.00000000000E+00 -0.22475689918E+02  0.22475689918E+02  0.00000000000E+00 0.  1.
        -13    1    1    2    0    0  0.23160130837E+01  0.19186070588E+02  0.36303233192E+02  0.41126560292E+02  0.00000000000E+00 0. -1.
         13    1    1    2    0    0 -0.23160130837E+01 -0.19186070588E+02 -0.15410558336E+02  0.24717494401E+02  0.00000000000E+00 0.  1.
<mgrwt>
<rscale>  0 0.62441458E+02</rscale>
<asrwt>0</asrwt>
<pdfrwt beam="2">  1        3 0.34577985E-02 0.62441458E+02</pdfrwt>
<pdfrwt beam="1">  1       -3 0.66720561E-02 0.62441458E+02</pdfrwt>
<totfact> 0.10269246E+05</totfact>
</mgrwt>
</event>
<event>
 4    1  0.2126213E+000  0.2188145E+02  0.7546771E-02  0.1710310E+00
          4   -1    0    0  501    0  0.00000000000E+00  0.00000000000E+00  0.28209544658E+01  0.28209544658E+01  0.00000000000E+00 0.  1.
         -4   -1    0    0    0  501 -0.00000000000E+00 -0.00000000000E+00 -0.42432269760E+02  0.42432269760E+02  0.00000000000E+00 0. -1.
        -11    1    1    2    0    0  0.54508816220E+01  0.94860011440E+01 -0.19689167602E+02  0.22524645369E+02  0.00000000000E+00 0. -1.
         11    1    1    2    0    0 -0.54508816220E+01 -0.94860011440E+01 -0.19922147693E+02  0.22728578857E+02  0.00000000000E+00 0.  1.
<mgrwt>
<rscale>  0 0.21881453E+02</rscale>
<asrwt>0</asrwt>
<pdfrwt beam="1">  1        4 0.43399302E-03 0.21881453E+02</pdfrwt>
<pdfrwt beam="2">  1       -4 0.65280411E-02 0.21881453E+02</pdfrwt>
<totfact> 0.97475723E+05</totfact>
</mgrwt>
</event>
<event>
 4    1  0.2126213E+000  0.2638220E+02  0.7546771E-02  0.1641907E+00
         -4   -1    0    0    0  501 -0.00000000000E+00  0.00000000000E+00  0.14020982482E+03  0.14020982482E+03  0.00000000000E+00 0.  1.
          4   -1    0    0  501    0  0.00000000000E+00 -0.00000000000E+00 -0.12410335904E+01  0.12410335904E+01  0.00000000000E+00 0. -1.
        -13    1    1    2    0    0 -0.11939686979E+02 -0.55441958818E+01  0.74004926459E+02  0.75166637369E+02  0.00000000000E+00 0.  1.
         13    1    1    2    0    0  0.11939686979E+02  0.55441958818E+01  0.64963864770E+02  0.66284221041E+02  0.00000000000E+00 0. -1.
<mgrwt>
<rscale>  0 0.26382199E+02</rscale>
<asrwt>0</asrwt>
<pdfrwt beam="2">  1        4 0.19092835E-03 0.26382199E+02</pdfrwt>
<pdfrwt beam="1">  1       -4 0.21570730E-01 0.26382199E+02</pdfrwt>
<totfact> 0.49369393E+05</totfact>
</mgrwt>
</event>
<event>
 4    1  0.2126213E+000  0.2070077E+02  0.7546771E-02  0.1731741E+00
          1   -1    0    0  501    0  0.00000000000E+00  0.00000000000E+00  0.70728154397E+01  0.70728154397E+01  0.00000000000E+00 0. -1.
         -1   -1    0    0    0  501 -0.00000000000E+00 -0.00000000000E+00 -0.15146786546E+02  0.15146786546E+02  0.00000000000E+00 0.  1.
        -11    1    1    2    0    0 -0.96202115853E+01  0.37271475655E+01 -0.49288049703E+01  0.11433862792E+02  0.00000000000E+00 0.  1.
         11    1    1    2    0    0  0.96202115853E+01 -0.37271475655E+01 -0.31451661360E+01  0.10785739193E+02  0.00000000000E+00 0. -1.
<mgrwt>
<rscale>  0 0.20700766E+02</rscale>
<asrwt>0</asrwt>
<pdfrwt beam="1">  1        1 0.10881255E-02 0.20700766E+02</pdfrwt>
<pdfrwt beam="2">  1       -1 0.23302748E-02 0.20700766E+02</pdfrwt>
<totfact> 0.35171045E+06</totfact>
</mgrwt>
</event>
<event>
 4    1  0.2126213E+000  0.3298082E+02  0.7546771E-02  0.1567299E+00
          2   -1    0    0  501    0  0.00000000000E+00  0.00000000000E+00  0.29865866897E+01  0.29865866897E+01  0.00000000000E+00 0.  1.
         -2   -1    0    0    0  501 -0.00000000000E+00 -0.00000000000E+00 -0.91051637337E+02  0.91051637337E+02  0.00000000000E+00 0. -1.
        -11    1    1    2    0    0 -0.12103402231E+02  0.10587998651E+02 -0.33620183908E+02  0.37268147620E+02  0.00000000000E+00 0. -1.
         11    1    1    2    0    0  0.12103402231E+02 -0.10587998651E+02 -0.54444866740E+02  0.56770076407E+02  0.00000000000E+00 0.  1.
<mgrwt>
<rscale>  0 0.32980819E+02</rscale>
<asrwt>0</asrwt>
<pdfrwt beam="1">  1        2 0.45947483E-03 0.32980819E+02</pdfrwt>
<pdfrwt beam="2">  1       -2 0.14007946E-01 0.32980819E+02</pdfrwt>
<totfact> 0.97767813E+05</totfact>
</mgrwt>
</event>
<event>
 4    1  0.2126213E+000  0.3601598E+02  0.7546771E-02  0.1539759E+00
         -4   -1    0    0    0  501 -0.00000000000E+00  0.00000000000E+00  0.56079622439E+01  0.56079622439E+01  0.00000000000E+00 0.  1.
          4   -1    0    0  501    0  0.00000000000E+00 -0.00000000000E+00 -0.57826311220E+02  0.57826311220E+02  0.00000000000E+00 0. -1.
        -13    1    1    2    0    0 -0.22954212153E+01  0.16232638713E+02 -0.12985531629E+02  0.20913908047E+02  0.00000000000E+00 0.  1.
         13    1    1    2    0    0  0.22954212153E+01 -0.16232638713E+02 -0.39232817347E+02  0.42520365416E+02  0.00000000000E+00 0. -1.
<mgrwt>
<rscale>  0 0.36015984E+02</rscale>
<asrwt>0</asrwt>
<pdfrwt beam="2">  1        4 0.88963559E-02 0.36015984E+02</pdfrwt>
<pdfrwt beam="1">  1       -4 0.86276339E-03 0.36015984E+02</pdfrwt>
<totfact> 0.30491781E+05</totfact>
</mgrwt>
</event>
<event>
 4    1  0.2126213E+000  0.4188704E+02  0.7546771E-02  0.1494767E+00
         -1   -1    0    0    0  501 -0.00000000000E+00  0.00000000000E+00  0.10139017647E+02  0.10139017647E+02  0.00000000000E+00 0.  1.
          1   -1    0    0  501    0  0.00000000000E+00 -0.00000000000E+00 -0.43261693659E+02  0.43261693659E+02  0.00000000000E+00 0. -1.
        -11    1    1    2    0    0  0.71297540652E+01  0.16298026875E+02 -0.30652707214E+02  0.35440760892E+02  0.00000000000E+00 0. -1.
         11    1    1    2    0    0 -0.71297540652E+01 -0.16298026875E+02 -0.24699687985E+01  0.17959950415E+02  0.00000000000E+00 0.  1.
<mgrwt>
<rscale>  0 0.41887042E+02</rscale>
<asrwt>0</asrwt>
<pdfrwt beam="2">  1        1 0.66556453E-02 0.41887042E+02</pdfrwt>
<pdfrwt beam="1">  1       -1 0.15598488E-02 0.41887042E+02</pdfrwt>
<totfact> 0.71952466E+05</totfact>
</mgrwt>
</event>
<event>
 4    1  0.2126213E+000  0.4168379E+02  0.7546771E-02  0.1496174E+00
          4   -1    0    0  501    0  0.00000000000E+00  0.00000000000E+00  0.10602613487E+03  0.10602613487E+03  0.00000000000E+00 0.  1.
         -4   -1    0    0    0  501 -0.00000000000E+00 -0.00000000000E+00 -0.40969567031E+01  0.40969567031E+01  0.00000000000E+00 0. -1.
        -11    1    1    2    0    0  0.18846327985E+02  0.68314200195E+01  0.35896182278E+02  0.41114331810E+02  0.00000000000E+00 0. -1.
         11    1    1    2    0    0 -0.18846327985E+02 -0.68314200195E+01  0.66032995885E+02  0.69008759760E+02  0.00000000000E+00 0.  1.
<mgrwt>
<rscale>  0 0.41683785E+02</rscale>
<asrwt>0</asrwt>
<pdfrwt beam="1">  1        4 0.16311711E-01 0.41683785E+02</pdfrwt>
<pdfrwt beam="2">  1       -4 0.63030111E-03 0.41683785E+02</pdfrwt>
<totfact> 0.18953282E+05</totfact>
</mgrwt>
</event>
<event>
 4    1  0.2126213E+000  0.2171109E+02  0.7546771E-02  0.1713297E+00
          4   -1    0    0  501    0  0.00000000000E+00  0.00000000000E+00  0.26184101615E+01  0.26184101615E+01  0.00000000000E+00 0. -1.
         -4   -1    0    0    0  501 -0.00000000000E+00 -0.00000000000E+00 -0.45005495704E+02  0.45005495704E+02  0.00000000000E+00 0.  1.
        -13    1    1    2    0    0 -0.23505595487E+01  0.10554677118E+02 -0.19093580290E+02  0.21942906543E+02  0.00000000000E+00 0. -1.
         13    1    1    2    0    0  0.23505595487E+01 -0.10554677118E+02 -0.23293505252E+02  0.25680999322E+02  0.00000000000E+00 0.  1.
<mgrwt>
<rscale>  0 0.21711089E+02</rscale>
<asrwt>0</asrwt>
<pdfrwt beam="1">  1        4 0.40283237E-03 0.21711089E+02</pdfrwt>
<pdfrwt beam="2">  1       -4 0.69239218E-02 0.21711089E+02</pdfrwt>
<totfact> 0.98211466E+05</totfact>
</mgrwt>
</event>
<event>
 4    1  0.2126213E+000  0.2107436E+02  0.7546771E-02  0.1724770E+00
          2   -1    0    0  501    0  0.00000000000E+00  0.00000000000E+00  0.53569743438E+02  0.53569743438E+02  0.00000000000E+00 0.  1.
         -2   -1    0    0    0  501 -0.00000000000E+00 -0.00000000000E+00 -0.20726648901E+01  0.20726648901E+01  0.00000000000E+00 0. -1.
        -11    1    1    2    0    0  0.74516018987E+01 -0.74193036379E+01  0.27538665607E+02  0.29477967039E+02  0.00000000000E+00 0. -1.
         11    1    1    2    0    0 -0.74516018987E+01  0.74193036379E+01  0.23958412941E+02  0.26164441289E+02  0.00000000000E+00 0.  1.
<mgrwt>
<rscale>  0 0.21074357E+02</rscale>
<asrwt>0</asrwt>
<pdfrwt beam="1">  1        2 0.82414979E-02 0.21074357E+02</pdfrwt>
<pdfrwt beam="2">  1       -2 0.31887156E-03 0.21074357E+02</pdfrwt>
<totfact> 0.41650467E+06</totfact>
</mgrwt>
</event>
<event>
 4    1  0.2126213E+000  0.3781413E+02  0.7546771E-02  0.1524942E+00
          2   -1    0    0  501    0  0.00000000000E+00  0.00000000000E+00  0.39080334951E+01  0.39080334951E+01  0.00000000000E+00 0. -1.
         -2   -1    0    0    0  501 -0.00000000000E+00 -0.00000000000E+00 -0.91472370931E+02  0.91472370931E+02  0.00000000000E+00 0.  1.
        -13    1    1    2    0    0 -0.12320139221E+02  0.44319549337E+01 -0.78186947328E+02  0.79275638045E+02  0.00000000000E+00 0.  1.
         13    1    1    2    0    0  0.12320139221E+02 -0.44319549337E+01 -0.93773901073E+01  0.16104766381E+02  0.00000000000E+00 0. -1.
<mgrwt>
<rscale>  0 0.37814129E+02</rscale>
<asrwt>0</asrwt>
<pdfrwt beam="1">  1        2 0.60123597E-03 0.37814129E+02</pdfrwt>
<pdfrwt beam="2">  1       -2 0.14072671E-01 0.37814129E+02</pdfrwt>
<totfact> 0.70709670E+05</totfact>
</mgrwt>
</event>
<event>
 4    1  0.2126213E+000  0.3810787E+02  0.7546771E-02  0.1522616E+00
          2   -1    0    0  501    0  0.00000000000E+00  0.00000000000E+00  0.94411264217E+02  0.94411264217E+02  0.00000000000E+00 0.  1.
         -2   -1    0    0    0  501 -0.00000000000E+00 -0.00000000000E+00 -0.38454351450E+01  0.38454351450E+01  0.00000000000E+00 0. -1.
        -13    1    1    2    0    0  0.13897831314E+02 -0.94127457264E+01  0.68531714008E+02  0.70557390273E+02  0.00000000000E+00 0.  1.
         13    1    1    2    0    0 -0.13897831314E+02  0.94127457264E+01  0.22034115065E+02  0.27699309089E+02  0.00000000000E+00 0. -1.
<mgrwt>
<rscale>  0 0.38107868E+02</rscale>
<asrwt>0</asrwt>
<pdfrwt beam="1">  1        2 0.14524808E-01 0.38107868E+02</pdfrwt>
<pdfrwt beam="2">  1       -2 0.59160548E-03 0.38107868E+02</pdfrwt>
<totfact> 0.11600371E+06</totfact>
</mgrwt>
</event>
<event>
 4    1  0.2126213E+000  0.3324094E+02  0.7546771E-02  0.1564800E+00
          2   -1    0    0  501    0  0.00000000000E+00  0.00000000000E+00  0.79255384892E+02  0.79255384892E+02  0.00000000000E+00 0. -1.
         -2   -1    0    0    0  501 -0.00000000000E+00 -0.00000000000E+00 -0.34854410541E+01  0.34854410541E+01  0.00000000000E+00 0.  1.
        -11    1    1    2    0    0  0.85564829503E+01 -0.90766294500E+01  0.65224733618E+02  0.66406810481E+02  0.00000000000E+00 0. -1.
         11    1    1    2    0    0 -0.85564829503E+01  0.90766294500E+01  0.10545210220E+02  0.16334015466E+02  0.00000000000E+00 0.  1.
<mgrwt>
<rscale>  0 0.33240937E+02</rscale>
<asrwt>0</asrwt>
<pdfrwt beam="1">  1        2 0.12193135E-01 0.33240937E+02</pdfrwt>
<pdfrwt beam="2">  1       -2 0.53622176E-03 0.33240937E+02</pdfrwt>
<totfact> 0.15519401E+06</totfact>
</mgrwt>
</event>
<event>
 4    1  0.2126213E+000  0.8876892E+02  0.7546771E-02  0.1305861E+00
          2   -1    0    0  501    0  0.00000000000E+00  0.00000000000E+00  0.83148605041E+02  0.83148605041E+02  0.00000000000E+00 0. -1.
         -2   -1    0    0    0  501 -0.00000000000E+00 -0.00000000000E+00 -0.23692282572E+02  0.23692282572E+02  0.00000000000E+00 0.  1.
        -13    1    1    2    0    0  0.36510356643E+02 -0.25238341216E+02  0.29709651385E+02  0.53410143185E+02  0.00000000000E+00 0.  1.
         13    1    1    2    0    0 -0.36510356643E+02  0.25238341216E+02  0.29746671084E+02  0.53430744428E+02  0.00000000000E+00 0. -1.
<mgrwt>
<rscale>  0 0.88768919E+02</rscale>
<asrwt>0</asrwt>
<pdfrwt beam="1">  1        2 0.12792093E-01 0.88768919E+02</pdfrwt>
<pdfrwt beam="2">  1       -2 0.36449666E-02 0.88768919E+02</pdfrwt>
<totfact> 0.12506257E+05</totfact>
</mgrwt>
</event>
<event>
 4    1  0.2126213E+000  0.1102037E+03  0.7546771E-02  0.1260193E+00
          1   -1    0    0  501    0  0.00000000000E+00  0.00000000000E+00  0.17104653481E+03  0.17104653481E+03  0.00000000000E+00 0. -1.
         -1   -1    0    0    0  501 -0.00000000000E+00 -0.00000000000E+00 -0.17750797740E+02  0.17750797740E+02  0.00000000000E+00 0.  1.
        -11    1    1    2    0    0  0.26027665186E+02  0.31734150858E+02  0.13662071495E+02  0.43256766907E+02  0.00000000000E+00 0.  1.
         11    1    1    2    0    0 -0.26027665186E+02 -0.31734150858E+02  0.13963366557E+03  0.14554056564E+03  0.00000000000E+00 0. -1.
<mgrwt>
<rscale>  0 0.11020367E+03</rscale>
<asrwt>0</asrwt>
<pdfrwt beam="1">  1        1 0.26314850E-01 0.11020367E+03</pdfrwt>
<pdfrwt beam="2">  1       -1 0.27308921E-02 0.11020367E+03</pdfrwt>
<totfact> 0.68613065E+04</totfact>
</mgrwt>
</event>
<event>
 4    1  0.2126213E+000  0.5851451E+02  0.7546771E-02  0.1404174E+00
         -3   -1    0    0    0  501 -0.00000000000E+00  0.00000000000E+00  0.64212767253E+02  0.64212767253E+02  0.00000000000E+00 0.  1.
          3   -1    0    0  501    0  0.00000000000E+00 -0.00000000000E+00 -0.13330478158E+02  0.13330478158E+02  0.00000000000E+00 0. -1.
        -11    1    1    2    0    0 -0.13826761928E+02  0.77543371018E+00 -0.87120946171E+01  0.16360966826E+02  0.00000000000E+00 0. -1.
         11    1    1    2    0    0  0.13826761928E+02 -0.77543371018E+00  0.59594383712E+02  0.61182278585E+02  0.00000000000E+00 0.  1.
<mgrwt>
<rscale>  0 0.58514507E+02</rscale>
<asrwt>0</asrwt>
<pdfrwt beam="2">  1        3 0.20508428E-02 0.58514507E+02</pdfrwt>
<pdfrwt beam="1">  1       -3 0.98788871E-02 0.58514507E+02</pdfrwt>
<totfact> 0.11804819E+05</totfact>
</mgrwt>
</event>
<event>
 4    1  0.2126213E+000  0.7815417E+02  0.7546771E-02  0.1334373E+00
         -4   -1    0    0    0  501 -0.00000000000E+00  0.00000000000E+00  0.56041661899E+02  0.56041661899E+02  0.00000000000E+00 0.  1.
          4   -1    0    0  501    0  0.00000000000E+00 -0.00000000000E+00 -0.27247915131E+02  0.27247915131E+02  0.00000000000E+00 0. -1.
        -11    1    1    2    0    0 -0.33995053573E+02 -0.17083589630E+02  0.48943756380E+01  0.38359713437E+02  0.00000000000E+00 0. -1.
         11    1    1    2    0    0  0.33995053573E+02  0.17083589630E+02  0.23899371130E+02  0.44929863593E+02  0.00000000000E+00 0.  1.
<mgrwt>
<rscale>  0 0.78154167E+02</rscale>
<asrwt>0</asrwt>
<pdfrwt beam="2">  1        4 0.41919870E-02 0.78154167E+02</pdfrwt>
<pdfrwt beam="1">  1       -4 0.86217941E-02 0.78154167E+02</pdfrwt>
<totfact> 0.41657421E+04</totfact>
</mgrwt>
</event>
<event>
 4    1  0.2126213E+000  0.3219114E+02  0.7546771E-02  0.1575059E+00
         -2   -1    0    0    0  501 -0.00000000000E+00  0.00000000000E+00  0.13890229840E+01  0.13890229840E+01  0.00000000000E+00 0.  1.
          2   -1    0    0  501    0  0.00000000000E+00 -0.00000000000E+00 -0.18651050617E+03  0.18651050617E+03  0.00000000000E+00 0. -1.
        -11    1    1    2    0    0 -0.15896775373E+02  0.25167624385E+01 -0.93498654168E+02  0.94873810357E+02  0.00000000000E+00 0. -1.
         11    1    1    2    0    0  0.15896775373E+02 -0.25167624385E+01 -0.91622829017E+02  0.93025718796E+02  0.00000000000E+00 0.  1.
<mgrwt>
<rscale>  0 0.32191140E+02</rscale>
<asrwt>0</asrwt>
<pdfrwt beam="2">  1        2 0.28693916E-01 0.32191140E+02</pdfrwt>
<pdfrwt beam="1">  1       -2 0.21369590E-03 0.32191140E+02</pdfrwt>
<totfact> 0.21026414E+06</totfact>
</mgrwt>
</event>
<event>
 4    1  0.2126213E+000  0.2312676E+02  0.7546771E-02  0.1689464E+00
          4   -1    0    0  501    0  0.00000000000E+00  0.00000000000E+00  0.42290542934E+02  0.42290542934E+02  0.00000000000E+00 0. -1.
         -4   -1    0    0    0  501 -0.00000000000E+00 -0.00000000000E+00 -0.31617408833E+01  0.31617408833E+01  0.00000000000E+00 0.  1.
        -13    1    1    2    0    0  0.76752193791E+01  0.80239509214E+01  0.25908253618E+02  0.28187415391E+02  0.00000000000E+00 0. -1.
         13    1    1    2    0    0 -0.76752193791E+01 -0.80239509214E+01  0.13220548433E+02  0.17264868426E+02  0.00000000000E+00 0.  1.
<mgrwt>
<rscale>  0 0.23126758E+02</rscale>
<asrwt>0</asrwt>
<pdfrwt beam="1">  1        4 0.65062369E-02 0.23126758E+02</pdfrwt>
<pdfrwt beam="2">  1       -4 0.48642171E-03 0.23126758E+02</pdfrwt>
<totfact> 0.86742568E+05</totfact>
</mgrwt>
</event>
<event>
 4    1  0.2126213E+000  0.2146448E+02  0.7546771E-02  0.1717682E+00
          2   -1    0    0  501    0  0.00000000000E+00  0.00000000000E+00  0.38181951460E+01  0.38181951460E+01  0.00000000000E+00 0.  1.
         -2   -1    0    0    0  501 -0.00000000000E+00 -0.00000000000E+00 -0.30166343042E+02  0.30166343042E+02  0.00000000000E+00 0. -1.
        -13    1    1    2    0    0  0.47195576372E+01 -0.94881965414E+01 -0.15861422949E+02  0.19075765669E+02  0.00000000000E+00 0. -1.
         13    1    1    2    0    0 -0.47195576372E+01  0.94881965414E+01 -0.10486724946E+02  0.14908772518E+02  0.00000000000E+00 0.  1.
<mgrwt>
<rscale>  0 0.21464481E+02</rscale>
<asrwt>0</asrwt>
<pdfrwt beam="1">  1        2 0.58741465E-03 0.21464481E+02</pdfrwt>
<pdfrwt beam="2">  1       -2 0.46409757E-02 0.21464481E+02</pdfrwt>
<totfact> 0.30867601E+06</totfact>
</mgrwt>
</event>
<event>
 4    1  0.2126213E+000  0.2310993E+02  0.7546771E-02  0.1689734E+00
          1   -1    0    0  501    0  0.00000000000E+00  0.00000000000E+00  0.14296044828E+02  0.14296044828E+02  0.00000000000E+00 0.  1.
         -1   -1    0    0    0  501 -0.00000000000E+00 -0.00000000000E+00 -0.93394493912E+01  0.93394493912E+01  0.00000000000E+00 0. -1.
        -11    1    1    2    0    0 -0.11434031725E+02 -0.12620851663E+01  0.35926861425E+01  0.12051445315E+02  0.00000000000E+00 0.  1.
         11    1    1    2    0    0  0.11434031725E+02  0.12620851663E+01  0.13639092938E+01  0.11584048904E+02  0.00000000000E+00 0. -1.
<mgrwt>
<rscale>  0 0.23109927E+02</rscale>
<asrwt>0</asrwt>
<pdfrwt beam="1">  1        1 0.21993915E-02 0.23109927E+02</pdfrwt>
<pdfrwt beam="2">  1       -1 0.14368384E-02 0.23109927E+02</pdfrwt>
<totfact> 0.28152589E+06</totfact>
</mgrwt>
</event>
<event>
 4    1  0.2126213E+000  0.2197676E+02  0.7546771E-02  0.1708654E+00
         -2   -1    0    0    0  501 -0.00000000000E+00  0.00000000000E+00  0.20904284187E+01  0.20904284187E+01  0.00000000000E+00 0. -1.
          2   -1    0    0  501    0  0.00000000000E+00 -0.00000000000E+00 -0.57760669014E+02  0.57760669014E+02  0.00000000000E+00 0.  1.
        -11    1    1    2    0    0  0.53728438280E+01 -0.93772457267E+01 -0.22426376569E+02  0.24894629024E+02  0.00000000000E+00 0. -1.
         11    1    1    2    0    0 -0.53728438280E+01  0.93772457267E+01 -0.33243864027E+02  0.34956468409E+02  0.00000000000E+00 0.  1.
<mgrwt>
<rscale>  0 0.21976764E+02</rscale>
<asrwt>0</asrwt>
<pdfrwt beam="2">  1        2 0.88862565E-02 0.21976764E+02</pdfrwt>
<pdfrwt beam="1">  1       -2 0.32160438E-03 0.21976764E+02</pdfrwt>
<totfact> 0.38362943E+06</totfact>
</mgrwt>
</event>
<event>
 4    1  0.2126213E+000  0.2561351E+02  0.7546771E-02  0.1652343E+00
          2   -1    0    0  501    0  0.00000000000E+00  0.00000000000E+00  0.38222719742E+01  0.38222719742E+01  0.00000000000E+00 0.  1.
         -2   -1    0    0    0  501 -0.00000000000E+00 -0.00000000000E+00 -0.42909822579E+02  0.42909822579E+02  0.00000000000E+00 0. -1.
        -11    1    1    2    0    0  0.69356078657E+01  0.84199997730E+01 -0.31784854482E+02  0.33604702455E+02  0.00000000000E+00 0. -1.
         11    1    1    2    0    0 -0.69356078657E+01 -0.84199997730E+01 -0.73026961232E+01  0.13127392099E+02  0.00000000000E+00 0.  1.
<mgrwt>
<rscale>  0 0.25613513E+02</rscale>
<asrwt>0</asrwt>
<pdfrwt beam="1">  1        2 0.58804183E-03 0.25613513E+02</pdfrwt>
<pdfrwt beam="2">  1       -2 0.66015113E-02 0.25613513E+02</pdfrwt>
<totfact> 0.19959428E+06</totfact>
</mgrwt>
</event>
<event>
 4    1  0.2126213E+000  0.4989183E+02  0.7546771E-02  0.1445926E+00
         -2   -1    0    0    0  501 -0.00000000000E+00  0.00000000000E+00  0.51332677749E+02  0.51332677749E+02  0.00000000000E+00 0. -1.
          2   -1    0    0  501    0  0.00000000000E+00 -0.00000000000E+00 -0.12122856086E+02  0.12122856086E+02  0.00000000000E+00 0.  1.
        -13    1    1    2    0    0  0.19710764172E+02 -0.11650706068E+02  0.70111952886E+01  0.23945981615E+02  0.00000000000E+00 0.  1.
         13    1    1    2    0    0 -0.19710764172E+02  0.11650706068E+02  0.32198626375E+02  0.39509552220E+02  0.00000000000E+00 0. -1.
<mgrwt>
<rscale>  0 0.49891830E+02</rscale>
<asrwt>0</asrwt>
<pdfrwt beam="2">  1        2 0.18650548E-02 0.49891830E+02</pdfrwt>
<pdfrwt beam="1">  1       -2 0.78973349E-02 0.49891830E+02</pdfrwt>
<totfact> 0.40793512E+05</totfact>
</mgrwt>
</event>
<event>
 4    1  0.2126213E+000  0.2918571E+02  0.7546771E-02  0.1607268E+00
         -2   -1    0    0    0  501 -0.00000000000E+00  0.00000000000E+00  0.62512391647E+02  0.62512391647E+02  0.00000000000E+00 0.  1.
          2   -1    0    0  501    0  0.00000000000E+00 -0.00000000000E+00 -0.34065462520E+01  0.34065462520E+01  0.00000000000E+00 0. -1.
        -11    1    1    2    0    0 -0.34268107679E+01 -0.11627454712E+02  0.47903380518E+02  0.49413303878E+02  0.00000000000E+00 0. -1.
         11    1    1    2    0    0  0.34268107679E+01  0.11627454712E+02  0.11202464877E+02  0.16505634021E+02  0.00000000000E+00 0.  1.
<mgrwt>
<rscale>  0 0.29185706E+02</rscale>
<asrwt>0</asrwt>
<pdfrwt beam="2">  1        2 0.52408408E-03 0.29185706E+02</pdfrwt>
<pdfrwt beam="1">  1       -2 0.96172902E-02 0.29185706E+02</pdfrwt>
<totfact> 0.13995553E+06</totfact>
</mgrwt>
</event>
<event>
 4    1  0.2126213E+000  0.3308983E+02  0.7546771E-02  0.1566248E+00
         -1   -1    0    0    0  501 -0.00000000000E+00  0.00000000000E+00  0.48532774508E+01  0.48532774508E+01  0.00000000000E+00 0. -1.
          1   -1    0    0  501    0  0.00000000000E+00 -0.00000000000E+00 -0.56401928706E+02  0.56401928706E+02  0.00000000000E+00 0.  1.
        -11    1    1    2    0    0  0.85002949346E+00  0.16265348865E+02 -0.31155524097E+02  0.35156092013E+02  0.00000000000E+00 0.  1.
         11    1    1    2    0    0 -0.85002949346E+00 -0.16265348865E+02 -0.20393127158E+02  0.26099114144E+02  0.00000000000E+00 0. -1.
<mgrwt>
<rscale>  0 0.33089830E+02</rscale>
<asrwt>0</asrwt>
<pdfrwt beam="2">  1        1 0.86772200E-02 0.33089830E+02</pdfrwt>
<pdfrwt beam="1">  1       -1 0.74665805E-03 0.33089830E+02</pdfrwt>
<totfact> 0.13118106E+06</totfact>
</mgrwt>
</event>
<event>
 4    1  0.2126213E+000  0.5420010E+02  0.7546771E-02  0.1423920E+00
          2   -1    0    0  501    0  0.00000000000E+00  0.00000000000E+00  0.10220501979E+03  0.10220501979E+03  0.00000000000E+00 0.  1.
         -2   -1    0    0    0  501 -0.00000000000E+00 -0.00000000000E+00 -0.71856809239E+01  0.71856809239E+01  0.00000000000E+00 0. -1.
        -13    1    1    2    0    0 -0.10288456635E+02 -0.24375580918E+02  0.35673665329E+02  0.44414318447E+02  0.00000000000E+00 0.  1.
         13    1    1    2    0    0  0.10288456635E+02  0.24375580918E+02  0.59345673535E+02  0.64976382266E+02  0.00000000000E+00 0. -1.
<mgrwt>
<rscale>  0 0.54200098E+02</rscale>
<asrwt>0</asrwt>
<pdfrwt beam="1">  1        2 0.15723848E-01 0.54200098E+02</pdfrwt>
<pdfrwt beam="2">  1       -2 0.11054894E-02 0.54200098E+02</pdfrwt>
<totfact> 0.49039440E+05</totfact>
</mgrwt>
</event>
<event>
 4    1  0.2126213E+000  0.9622540E+02  0.7546771E-02  0.1288440E+00
          2   -1    0    0  501    0  0.00000000000E+00  0.00000000000E+00  0.17661093891E+03  0.17661093891E+03  0.00000000000E+00 0. -1.
         -2   -1    0    0    0  501 -0.00000000000E+00 -0.00000000000E+00 -0.13106956448E+02  0.13106956448E+02  0.00000000000E+00 0.  1.
        -11    1    1    2    0    0 -0.40342743428E+02 -0.57380268243E+01  0.13218678625E+03  0.13832500988E+03  0.00000000000E+00 0. -1.
         11    1    1    2    0    0  0.40342743428E+02  0.57380268243E+01  0.31317196211E+02  0.51392885477E+02  0.00000000000E+00 0.  1.
<mgrwt>
<rscale>  0 0.96225400E+02</rscale>
<asrwt>0</asrwt>
<pdfrwt beam="1">  1        2 0.27170912E-01 0.96225400E+02</pdfrwt>
<pdfrwt beam="2">  1       -2 0.20164550E-02 0.96225400E+02</pdfrwt>
<totfact> 0.12782894E+05</totfact>
</mgrwt>
</event>
<event>
 4    1  0.2126213E+000  0.4806587E+02  0.7546771E-02  0.1456062E+00
         -2   -1    0    0    0  501 -0.00000000000E+00  0.00000000000E+00  0.50519544762E+02  0.50519544762E+02  0.00000000000E+00 0. -1.
          2   -1    0    0  501    0  0.00000000000E+00 -0.00000000000E+00 -0.11432842052E+02  0.11432842052E+02  0.00000000000E+00 0.  1.
        -11    1    1    2    0    0 -0.22014701905E+02  0.79799490526E+01  0.26514806337E+02  0.35374590343E+02  0.00000000000E+00 0. -1.
         11    1    1    2    0    0  0.22014701905E+02 -0.79799490526E+01  0.12571896373E+02  0.26577796471E+02  0.00000000000E+00 0.  1.
<mgrwt>
<rscale>  0 0.48065870E+02</rscale>
<asrwt>0</asrwt>
<pdfrwt beam="2">  1        2 0.17588988E-02 0.48065870E+02</pdfrwt>
<pdfrwt beam="1">  1       -2 0.77722375E-02 0.48065870E+02</pdfrwt>
<totfact> 0.44732516E+05</totfact>
</mgrwt>
</event>
<event>
 4    1  0.2126213E+000  0.2598790E+02  0.7546771E-02  0.1647205E+00
         -1   -1    0    0    0  501 -0.00000000000E+00  0.00000000000E+00  0.14513891772E+02  0.14513891772E+02  0.00000000000E+00 0. -1.
          1   -1    0    0  501    0  0.00000000000E+00 -0.00000000000E+00 -0.11633184989E+02  0.11633184989E+02  0.00000000000E+00 0.  1.
        -11    1    1    2    0    0 -0.11935907001E+02 -0.11954726991E+01  0.64657187470E+01  0.13627198899E+02  0.00000000000E+00 0. -1.
         11    1    1    2    0    0  0.11935907001E+02  0.11954726991E+01 -0.35850119635E+01  0.12519877862E+02  0.00000000000E+00 0.  1.
<mgrwt>
<rscale>  0 0.25987904E+02</rscale>
<asrwt>0</asrwt>
<pdfrwt beam="2">  1        1 0.17897208E-02 0.25987904E+02</pdfrwt>
<pdfrwt beam="1">  1       -1 0.22329064E-02 0.25987904E+02</pdfrwt>
<totfact> 0.21171203E+06</totfact>
</mgrwt>
</event>
<event>
 4    1  0.2126213E+000  0.2195900E+02  0.7546771E-02  0.1708962E+00
         -4   -1    0    0    0  501 -0.00000000000E+00  0.00000000000E+00  0.26314133782E+01  0.26314133782E+01  0.00000000000E+00 0. -1.
          4   -1    0    0  501    0  0.00000000000E+00 -0.00000000000E+00 -0.45811672278E+02  0.45811672278E+02  0.00000000000E+00 0.  1.
        -13    1    1    2    0    0  0.99175526500E+01 -0.34702430136E+01 -0.28618117830E+02  0.30486014913E+02  0.00000000000E+00 0.  1.
         13    1    1    2    0    0 -0.99175526500E+01  0.34702430136E+01 -0.14562141070E+02  0.17957070743E+02  0.00000000000E+00 0. -1.
<mgrwt>
<rscale>  0 0.21959002E+02</rscale>
<asrwt>0</asrwt>
<pdfrwt beam="2">  1        4 0.70479498E-02 0.21959002E+02</pdfrwt>
<pdfrwt beam="1">  1       -4 0.40483282E-03 0.21959002E+02</pdfrwt>
<totfact> 0.95637058E+05</totfact>
</mgrwt>
</event>
<event>
 4    1  0.2126213E+000  0.2634500E+02  0.7546771E-02  0.1642402E+00
          2   -1    0    0  501    0  0.00000000000E+00  0.00000000000E+00  0.21773520107E+02  0.21773520107E+02  0.00000000000E+00 0. -1.
         -2   -1    0    0    0  501 -0.00000000000E+00 -0.00000000000E+00 -0.79690717049E+01  0.79690717049E+01  0.00000000000E+00 0.  1.
        -13    1    1    2    0    0  0.89257779699E+01 -0.81076667655E+01  0.91647464014E+00  0.12093126085E+02  0.00000000000E+00 0.  1.
         13    1    1    2    0    0 -0.89257779699E+01  0.81076667655E+01  0.12887973762E+02  0.17649465727E+02  0.00000000000E+00 0. -1.
<mgrwt>
<rscale>  0 0.26344999E+02</rscale>
<asrwt>0</asrwt>
<pdfrwt beam="1">  1        2 0.33497723E-02 0.26344999E+02</pdfrwt>
<pdfrwt beam="2">  1       -2 0.12260110E-02 0.26344999E+02</pdfrwt>
<totfact> 0.22221105E+06</totfact>
</mgrwt>
</event>
<event>
 4    1  0.2126213E+000  0.2336430E+02  0.7546771E-02  0.1685672E+00
         -4   -1    0    0    0  501 -0.00000000000E+00  0.00000000000E+00  0.30234610802E+02  0.30234610802E+02  0.00000000000E+00 0. -1.
          4   -1    0    0  501    0  0.00000000000E+00 -0.00000000000E+00 -0.45137869266E+01  0.45137869266E+01  0.00000000000E+00 0.  1.
        -11    1    1    2    0    0  0.11267177636E+02  0.28097684605E+01  0.14758323576E+02  0.18779036330E+02  0.00000000000E+00 0. -1.
         11    1    1    2    0    0 -0.11267177636E+02 -0.28097684605E+01  0.10962500299E+02  0.15969361399E+02  0.00000000000E+00 0.  1.
<mgrwt>
<rscale>  0 0.23364297E+02</rscale>
<asrwt>0</asrwt>
<pdfrwt beam="2">  1        4 0.69442877E-03 0.23364297E+02</pdfrwt>
<pdfrwt beam="1">  1       -4 0.46514785E-02 0.23364297E+02</pdfrwt>
<totfact> 0.88397385E+05</totfact>
</mgrwt>
</event>
<event>
 4    1  0.2126213E+000  0.4880905E+02  0.7546771E-02  0.1451873E+00
         -2   -1    0    0    0  501 -0.00000000000E+00  0.00000000000E+00  0.65666113936E+01  0.65666113936E+01  0.00000000000E+00 0. -1.
          2   -1    0    0  501    0  0.00000000000E+00 -0.00000000000E+00 -0.90698341089E+02  0.90698341089E+02  0.00000000000E+00 0.  1.
        -11    1    1    2    0    0  0.19810496447E+02 -0.13968993852E+01 -0.70330384876E+02  0.73080572892E+02  0.00000000000E+00 0.  1.
         11    1    1    2    0    0 -0.19810496447E+02  0.13968993852E+01 -0.13801344819E+02  0.24184379591E+02  0.00000000000E+00 0. -1.
<mgrwt>
<rscale>  0 0.48809047E+02</rscale>
<asrwt>0</asrwt>
<pdfrwt beam="2">  1        2 0.13953591E-01 0.48809047E+02</pdfrwt>
<pdfrwt beam="1">  1       -2 0.10102479E-02 0.48809047E+02</pdfrwt>
<totfact> 0.62080253E+05</totfact>
</mgrwt>
</event>
<event>
 4    1  0.2126213E+000  0.5972269E+02  0.7546771E-02  0.1398999E+00
         -4   -1    0    0    0  501 -0.00000000000E+00  0.00000000000E+00  0.11079524472E+02  0.11079524472E+02  0.00000000000E+00 0.  1.
          4   -1    0    0  501    0  0.00000000000E+00 -0.00000000000E+00 -0.80481791357E+02  0.80481791357E+02  0.00000000000E+00 0. -1.
        -13    1    1    2    0    0 -0.14145270555E+02 -0.94133695630E+01 -0.72348207266E+02  0.74316642148E+02  0.00000000000E+00 0. -1.
         13    1    1    2    0    0  0.14145270555E+02  0.94133695630E+01  0.29459403810E+01  0.17244673680E+02  0.00000000000E+00 0.  1.
<mgrwt>
<rscale>  0 0.59722692E+02</rscale>
<asrwt>0</asrwt>
<pdfrwt beam="2">  1        4 0.12381814E-01 0.59722692E+02</pdfrwt>
<pdfrwt beam="1">  1       -4 0.17045423E-02 0.59722692E+02</pdfrwt>
<totfact> 0.82048822E+04</totfact>
</mgrwt>
</event>
<event>
 4    1  0.2126213E+000  0.4964589E+02  0.7546771E-02  0.1447261E+00
          2   -1    0    0  501    0  0.00000000000E+00  0.00000000000E+00  0.13664658824E+02  0.13664658824E+02  0.00000000000E+00 0. -1.
         -2   -1    0    0    0  501 -0.00000000000E+00 -0.00000000000E+00 -0.45092870433E+02  0.45092870433E+02  0.00000000000E+00 0.  1.
        -13    1    1    2    0    0  0.59868636430E+01 -0.17974267493E+02  0.32690274648E+01  0.19225071359E+02  0.00000000000E+00 0. -1.
         13    1    1    2    0    0 -0.59868636430E+01  0.17974267493E+02 -0.34697239073E+02  0.39532457899E+02  0.00000000000E+00 0.  1.
<mgrwt>
<rscale>  0 0.49645894E+02</rscale>
<asrwt>0</asrwt>
<pdfrwt beam="1">  1        2 0.21022552E-02 0.49645894E+02</pdfrwt>
<pdfrwt beam="2">  1       -2 0.69373647E-02 0.49645894E+02</pdfrwt>
<totfact> 0.42209875E+05</totfact>
</mgrwt>
</event>
<event>
 4    1  0.2126213E+000  0.5173562E+02  0.7546771E-02  0.1436199E+00
         -2   -1    0    0    0  501 -0.00000000000E+00  0.00000000000E+00  0.14024660594E+02  0.14024660594E+02  0.00000000000E+00 0. -1.
          2   -1    0    0  501    0  0.00000000000E+00 -0.00000000000E+00 -0.47711928812E+02  0.47711928812E+02  0.00000000000E+00 0.  1.
        -11    1    1    2    0    0  0.21898265849E+02  0.13750397567E+02 -0.15969884504E+02  0.30391523350E+02  0.00000000000E+00 0.  1.
         11    1    1    2    0    0 -0.21898265849E+02 -0.13750397567E+02 -0.17717383713E+02  0.31345066056E+02  0.00000000000E+00 0. -1.
<mgrwt>
<rscale>  0 0.51735621E+02</rscale>
<asrwt>0</asrwt>
<pdfrwt beam="2">  1        2 0.73402968E-02 0.51735621E+02</pdfrwt>
<pdfrwt beam="1">  1       -2 0.21576401E-02 0.51735621E+02</pdfrwt>
<totfact> 0.46561609E+05</totfact>
</mgrwt>
</event>
<event>
 4    1  0.2126213E+000  0.2366809E+02  0.7546771E-02  0.1680904E+00
          4   -1    0    0  501    0  0.00000000000E+00  0.00000000000E+00  0.11279116203E+02  0.11279116203E+02  0.00000000000E+00 0. -1.
         -4   -1    0    0    0  501 -0.00000000000E+00 -0.00000000000E+00 -0.12416276274E+02  0.12416276274E+02  0.00000000000E+00 0.  1.
        -11    1    1    2    0    0 -0.15431639996E+01  0.11626447778E+02 -0.21480500317E+01  0.11923496216E+02  0.00000000000E+00 0.  1.
         11    1    1    2    0    0  0.15431639996E+01 -0.11626447778E+02  0.10108899602E+01  0.11771896261E+02  0.00000000000E+00 0. -1.
<mgrwt>
<rscale>  0 0.23668090E+02</rscale>
<asrwt>0</asrwt>
<pdfrwt beam="1">  1        4 0.17352486E-02 0.23668090E+02</pdfrwt>
<pdfrwt beam="2">  1       -4 0.19101964E-02 0.23668090E+02</pdfrwt>
<totfact> 0.89973913E+05</totfact>
</mgrwt>
</event>
<event>
 4    1  0.2126213E+000  0.3257407E+02  0.7546771E-02  0.1571263E+00
         -4   -1    0    0    0  501 -0.00000000000E+00  0.00000000000E+00  0.10417128247E+03  0.10417128247E+03  0.00000000000E+00 0.  1.
          4   -1    0    0  501    0  0.00000000000E+00 -0.00000000000E+00 -0.25464547523E+01  0.25464547523E+01  0.00000000000E+00 0. -1.
        -11    1    1    2    0    0  0.70238529652E+01  0.13164947018E+02  0.29425079560E+02  0.32992205861E+02  0.00000000000E+00 0. -1.
         11    1    1    2    0    0 -0.70238529652E+01 -0.13164947018E+02  0.72199748159E+02  0.73725531363E+02  0.00000000000E+00 0.  1.
<mgrwt>
<rscale>  0 0.32574067E+02</rscale>
<asrwt>0</asrwt>
<pdfrwt beam="2">  1        4 0.39176235E-03 0.32574067E+02</pdfrwt>
<pdfrwt beam="1">  1       -4 0.16026348E-01 0.32574067E+02</pdfrwt>
<totfact> 0.33910899E+05</totfact>
</mgrwt>
</event>
<event>
 4    1  0.2126213E+000  0.2967561E+02  0.7546771E-02  0.1601702E+00
          1   -1    0    0  501    0  0.00000000000E+00  0.00000000000E+00  0.38671176128E+01  0.38671176128E+01  0.00000000000E+00 0. -1.
         -1   -1    0    0    0  501 -0.00000000000E+00 -0.00000000000E+00 -0.56931409959E+02  0.56931409959E+02  0.00000000000E+00 0.  1.
        -13    1    1    2    0    0 -0.12491520913E+02  0.79856428726E+00 -0.10208100556E+02  0.16151814653E+02  0.00000000000E+00 0. -1.
         13    1    1    2    0    0  0.12491520913E+02 -0.79856428726E+00 -0.42856191790E+02  0.44646712918E+02  0.00000000000E+00 0.  1.
<mgrwt>
<rscale>  0 0.29675610E+02</rscale>
<asrwt>0</asrwt>
<pdfrwt beam="1">  1        1 0.59494118E-03 0.29675610E+02</pdfrwt>
<pdfrwt beam="2">  1       -1 0.87586784E-02 0.29675610E+02</pdfrwt>
<totfact> 0.14085148E+06</totfact>
</mgrwt>
</event>
<event>
 4    1  0.2126213E+000  0.2882435E+02  0.7546771E-02  0.1611460E+00
         -2   -1    0    0    0  501 -0.00000000000E+00  0.00000000000E+00  0.14211179364E+02  0.14211179364E+02  0.00000000000E+00 0.  1.
          2   -1    0    0  501    0  0.00000000000E+00 -0.00000000000E+00 -0.14616009159E+02  0.14616009159E+02  0.00000000000E+00 0. -1.
        -11    1    1    2    0    0  0.10237058233E+02 -0.64769711906E+01 -0.80110150104E+01  0.14523253030E+02  0.00000000000E+00 0. -1.
         11    1    1    2    0    0 -0.10237058233E+02  0.64769711906E+01  0.76061852156E+01  0.14303935493E+02  0.00000000000E+00 0.  1.
<mgrwt>
<rscale>  0 0.28824346E+02</rscale>
<asrwt>0</asrwt>
<pdfrwt beam="2">  1        2 0.22486168E-02 0.28824346E+02</pdfrwt>
<pdfrwt beam="1">  1       -2 0.21863353E-02 0.28824346E+02</pdfrwt>
<totfact> 0.17213566E+06</totfact>
</mgrwt>
</event>
<event>
 4    1  0.2126213E+000  0.2389105E+02  0.7546771E-02  0.1677461E+00
          1   -1    0    0  501    0  0.00000000000E+00  0.00000000000E+00  0.99261757916E+01  0.99261757916E+01  0.00000000000E+00 0.  1.
         -1   -1    0    0    0  501 -0.00000000000E+00 -0.00000000000E+00 -0.14375682964E+02  0.14375682964E+02  0.00000000000E+00 0. -1.
        -13    1    1    2    0    0 -0.77913597423E+01 -0.74481062843E+01 -0.74626648074E+01  0.13109955754E+02  0.00000000000E+00 0. -1.
         13    1    1    2    0    0  0.77913597423E+01  0.74481062843E+01  0.30131576349E+01  0.11191903001E+02  0.00000000000E+00 0.  1.
<mgrwt>
<rscale>  0 0.23891049E+02</rscale>
<asrwt>0</asrwt>
<pdfrwt beam="1">  1        1 0.15271040E-02 0.23891049E+02</pdfrwt>
<pdfrwt beam="2">  1       -1 0.22116435E-02 0.23891049E+02</pdfrwt>
<totfact> 0.25619108E+06</totfact>
</mgrwt>
</event>
<event>
 4    1  0.2126213E+000  0.2333875E+02  0.7546771E-02  0.1686077E+00
          2   -1    0    0  501    0  0.00000000000E+00  0.00000000000E+00  0.43445646396E+01  0.43445646396E+01  0.00000000000E+00 0. -1.
         -2   -1    0    0    0  501 -0.00000000000E+00 -0.00000000000E+00 -0.31343592223E+02  0.31343592223E+02  0.00000000000E+00 0.  1.
        -11    1    1    2    0    0  0.64498961160E+01  0.93801874840E+01 -0.17423528331E+02  0.20812698447E+02  0.00000000000E+00 0.  1.
         11    1    1    2    0    0 -0.64498961160E+01 -0.93801874840E+01 -0.95754992518E+01  0.14875458415E+02  0.00000000000E+00 0. -1.
<mgrwt>
<rscale>  0 0.23338746E+02</rscale>
<asrwt>0</asrwt>
<pdfrwt beam="1">  1        2 0.66839453E-03 0.23338746E+02</pdfrwt>
<pdfrwt beam="2">  1       -2 0.48220913E-02 0.23338746E+02</pdfrwt>
<totfact> 0.25536969E+06</totfact>
</mgrwt>
</event>
<event>
 4    1  0.2126213E+000  0.2918795E+02  0.7546771E-02  0.1607242E+00
         -4   -1    0    0    0  501 -0.00000000000E+00  0.00000000000E+00  0.37463132634E+02  0.37463132634E+02  0.00000000000E+00 0.  1.
          4   -1    0    0  501    0  0.00000000000E+00 -0.00000000000E+00 -0.56851659097E+01  0.56851659097E+01  0.00000000000E+00 0. -1.
        -13    1    1    2    0    0  0.85702117832E+01  0.11714820130E+02  0.13647733705E+02  0.19923508124E+02  0.00000000000E+00 0. -1.
         13    1    1    2    0    0 -0.85702117832E+01 -0.11714820130E+02  0.18130233019E+02  0.23224790419E+02  0.00000000000E+00 0.  1.
<mgrwt>
<rscale>  0 0.29187951E+02</rscale>
<asrwt>0</asrwt>
<pdfrwt beam="2">  1        4 0.87464093E-03 0.29187951E+02</pdfrwt>
<pdfrwt beam="1">  1       -4 0.57635587E-02 0.29187951E+02</pdfrwt>
<totfact> 0.52718934E+05</totfact>
</mgrwt>
</event>
<event>
 4    1  0.2126213E+000  0.7448515E+02  0.7546771E-02  0.1345473E+00
         -4   -1    0    0    0  501 -0.00000000000E+00  0.00000000000E+00  0.22970782308E+02  0.22970782308E+02  0.00000000000E+00 0.  1.
          4   -1    0    0  501    0  0.00000000000E+00 -0.00000000000E+00 -0.60381460252E+02  0.60381460252E+02  0.00000000000E+00 0. -1.
        -11    1    1    2    0    0 -0.16454496422E+02  0.23816447985E+02 -0.44926257381E+02  0.53444758858E+02  0.00000000000E+00 0. -1.
         11    1    1    2    0    0  0.16454496422E+02 -0.23816447985E+02  0.75155794365E+01  0.29907483702E+02  0.00000000000E+00 0.  1.
<mgrwt>
<rscale>  0 0.74485150E+02</rscale>
<asrwt>0</asrwt>
<pdfrwt beam="2">  1        4 0.92894554E-02 0.74485150E+02</pdfrwt>
<pdfrwt beam="1">  1       -4 0.35339665E-02 0.74485150E+02</pdfrwt>
<totfact> 0.47306063E+04</totfact>
</mgrwt>
</event>
<event>
 4    1  0.2126213E+000  0.2683516E+02  0.7546771E-02  0.1635961E+00
          2   -1    0    0  501    0  0.00000000000E+00  0.00000000000E+00  0.41670543364E+01  0.41670543364E+01  0.00000000000E+00 0. -1.
         -2   -1    0    0    0  501 -0.00000000000E+00 -0.00000000000E+00 -0.43203538087E+02  0.43203538087E+02  0.00000000000E+00 0.  1.
        -13    1    1    2    0    0 -0.21407324177E+00 -0.12032914856E+02 -0.90459257628E+01  0.15055418964E+02  0.00000000000E+00 0. -1.
         13    1    1    2    0    0  0.21407324177E+00  0.12032914856E+02 -0.29990557988E+02  0.32315173459E+02  0.00000000000E+00 0.  1.
<mgrwt>
<rscale>  0 0.26835163E+02</rscale>
<asrwt>0</asrwt>
<pdfrwt beam="1">  1        2 0.64108526E-03 0.26835163E+02</pdfrwt>
<pdfrwt beam="2">  1       -2 0.66466984E-02 0.26835163E+02</pdfrwt>
<totfact> 0.17940503E+06</totfact>
</mgrwt>
</event>
<event>
 4    1  0.2126213E+000  0.2466094E+02  0.7546771E-02  0.1665920E+00
          2   -1    0    0  501    0  0.00000000000E+00  0.00000000000E+00  0.65605860933E+01  0.65605860933E+01  0.00000000000E+00 0. -1.
         -2   -1    0    0    0  501 -0.00000000000E+00 -0.00000000000E+00 -0.23174838316E+02  0.23174838316E+02  0.00000000000E+00 0.  1.
        -13    1    1    2    0    0 -0.78293194522E+01  0.93406582921E+01 -0.10561103901E+02  0.16127090749E+02  0.00000000000E+00 0.  1.
         13    1    1    2    0    0  0.78293194522E+01 -0.93406582921E+01 -0.60531483216E+01  0.13608333661E+02  0.00000000000E+00 0. -1.
<mgrwt>
<rscale>  0 0.24660943E+02</rscale>
<asrwt>0</asrwt>
<pdfrwt beam="1">  1        2 0.10093209E-02 0.24660943E+02</pdfrwt>
<pdfrwt beam="2">  1       -2 0.35653597E-02 0.24660943E+02</pdfrwt>
<totfact> 0.23286155E+06</totfact>
</mgrwt>
</event>
<event>
 4    1  0.2126213E+000  0.7604849E+02  0.7546771E-02  0.1340655E+00
          2   -1    0    0  501    0  0.00000000000E+00  0.00000000000E+00  0.69563339445E+02  0.69563339445E+02  0.00000000000E+00 0.  1.
         -2   -1    0    0    0  501 -0.00000000000E+00 -0.00000000000E+00 -0.20784558054E+02  0.20784558054E+02  0.00000000000E+00 0. -1.
        -13    1    1    2    0    0  0.20718289223E+02 -0.14238666177E+02  0.58281708465E+02  0.63472392931E+02  0.00000000000E+00 0.  1.
         13    1    1    2    0    0 -0.20718289223E+02  0.14238666177E+02 -0.95029270735E+01  0.26875504568E+02  0.00000000000E+00 0. -1.
<mgrwt>
<rscale>  0 0.76048492E+02</rscale>
<asrwt>0</asrwt>
<pdfrwt beam="1">  1        2 0.10702052E-01 0.76048492E+02</pdfrwt>
<pdfrwt beam="2">  1       -2 0.31976243E-02 0.76048492E+02</pdfrwt>
<totfact> 0.18206768E+05</totfact>
</mgrwt>
</event>
<event>
 4    1  0.2126213E+000  0.2710722E+02  0.7546771E-02  0.1632458E+00
         -1   -1    0    0    0  501 -0.00000000000E+00  0.00000000000E+00  0.16004377770E+02  0.16004377770E+02  0.00000000000E+00 0. -1.
          1   -1    0    0  501    0  0.00000000000E+00 -0.00000000000E+00 -0.11478131366E+02  0.11478131366E+02  0.00000000000E+00 0.  1.
        -13    1    1    2    0    0 -0.98526748511E+01 -0.35087079725E+01  0.11003035088E+02  0.15180678987E+02  0.00000000000E+00 0.  1.
         13    1    1    2    0    0  0.98526748511E+01  0.35087079725E+01 -0.64767886841E+01  0.12301830149E+02  0.00000000000E+00 0. -1.
<mgrwt>
<rscale>  0 0.27107220E+02</rscale>
<asrwt>0</asrwt>
<pdfrwt beam="2">  1        1 0.17658664E-02 0.27107220E+02</pdfrwt>
<pdfrwt beam="1">  1       -1 0.24622120E-02 0.27107220E+02</pdfrwt>
<totfact> 0.19131991E+06</totfact>
</mgrwt>
</event>
<event>
 4    1  0.2126213E+000  0.3379583E+02  0.7546771E-02  0.1559561E+00
          2   -1    0    0  501    0  0.00000000000E+00  0.00000000000E+00  0.52030843107E+02  0.52030843107E+02  0.00000000000E+00 0. -1.
         -2   -1    0    0    0  501 -0.00000000000E+00 -0.00000000000E+00 -0.54878897718E+01  0.54878897718E+01  0.00000000000E+00 0.  1.
        -11    1    1    2    0    0 -0.64460427309E+00  0.10531274912E+02  0.45735655267E+02  0.46936909023E+02  0.00000000000E+00 0. -1.
         11    1    1    2    0    0  0.64460427309E+00 -0.10531274912E+02  0.80729806770E+00  0.10581823855E+02  0.00000000000E+00 0.  1.
<mgrwt>
<rscale>  0 0.33795830E+02</rscale>
<asrwt>0</asrwt>
<pdfrwt beam="1">  1        2 0.80047448E-02 0.33795830E+02</pdfrwt>
<pdfrwt beam="2">  1       -2 0.84429077E-03 0.33795830E+02</pdfrwt>
<totfact> 0.13745488E+06</totfact>
</mgrwt>
</event>
<event>
 4    1  0.2126213E+000  0.4375917E+02  0.7546771E-02  0.1482240E+00
         -2   -1    0    0    0  501 -0.00000000000E+00  0.00000000000E+00  0.35508599184E+02  0.35508599184E+02  0.00000000000E+00 0. -1.
          2   -1    0    0  501    0  0.00000000000E+00 -0.00000000000E+00 -0.13481696981E+02  0.13481696981E+02  0.00000000000E+00 0.  1.
        -11    1    1    2    0    0  0.66168413733E+01  0.18608604530E+02  0.47228222957E+00  0.19755652427E+02  0.00000000000E+00 0.  1.
         11    1    1    2    0    0 -0.66168413733E+01 -0.18608604530E+02  0.21554619973E+02  0.29234643738E+02  0.00000000000E+00 0. -1.
<mgrwt>
<rscale>  0 0.43759167E+02</rscale>
<asrwt>0</asrwt>
<pdfrwt beam="2">  1        2 0.20741072E-02 0.43759167E+02</pdfrwt>
<pdfrwt beam="1">  1       -2 0.54628614E-02 0.43759167E+02</pdfrwt>
<totfact> 0.59142027E+05</totfact>
</mgrwt>
</event>
<event>
 4    1  0.2126213E+000  0.2758310E+02  0.7546771E-02  0.1626451E+00
          2   -1    0    0  501    0  0.00000000000E+00  0.00000000000E+00  0.19536792458E+02  0.19536792458E+02  0.00000000000E+00 0.  1.
         -2   -1    0    0    0  501 -0.00000000000E+00 -0.00000000000E+00 -0.97358274672E+01  0.97358274672E+01  0.00000000000E+00 0. -1.
        -13    1    1    2    0    0  0.10791914129E+01 -0.13620258993E+02  0.68946006089E+01  0.15303974212E+02  0.00000000000E+00 0.  1.
         13    1    1    2    0    0 -0.10791914129E+01  0.13620258993E+02  0.29063643819E+01  0.13968645713E+02  0.00000000000E+00 0. -1.
<mgrwt>
<rscale>  0 0.27583099E+02</rscale>
<asrwt>0</asrwt>
<pdfrwt beam="1">  1        2 0.30056604E-02 0.27583099E+02</pdfrwt>
<pdfrwt beam="2">  1       -2 0.14978196E-02 0.27583099E+02</pdfrwt>
<totfact> 0.19701708E+06</totfact>
</mgrwt>
</event>
<event>
 4    1  0.2126213E+000  0.8347153E+02  0.7546771E-02  0.1319479E+00
          4   -1    0    0  501    0  0.00000000000E+00  0.00000000000E+00  0.13324845425E+02  0.13324845425E+02  0.00000000000E+00 0. -1.
         -4   -1    0    0    0  501 -0.00000000000E+00 -0.00000000000E+00 -0.13072378440E+03  0.13072378440E+03  0.00000000000E+00 0.  1.
        -11    1    1    2    0    0  0.32431836003E+02 -0.14084047544E+01 -0.13432023915E+02  0.35131564966E+02  0.00000000000E+00 0. -1.
         11    1    1    2    0    0 -0.32431836003E+02  0.14084047544E+01 -0.10396691506E+03  0.10891706486E+03  0.00000000000E+00 0.  1.
<mgrwt>
<rscale>  0 0.83471533E+02</rscale>
<asrwt>0</asrwt>
<pdfrwt beam="1">  1        4 0.20499761E-02 0.83471533E+02</pdfrwt>
<pdfrwt beam="2">  1       -4 0.20111352E-01 0.83471533E+02</pdfrwt>
<totfact> 0.30355972E+04</totfact>
</mgrwt>
</event>
<event>
 4    1  0.2126213E+000  0.3878619E+02  0.7546771E-02  0.1517339E+00
          2   -1    0    0  501    0  0.00000000000E+00  0.00000000000E+00  0.33163328941E+01  0.33163328941E+01  0.00000000000E+00 0.  1.
         -2   -1    0    0    0  501 -0.00000000000E+00 -0.00000000000E+00 -0.11340605050E+03  0.11340605050E+03  0.00000000000E+00 0. -1.
        -11    1    1    2    0    0  0.17098739957E+02  0.41856509686E+01 -0.79531231297E+02  0.81456143622E+02  0.00000000000E+00 0.  1.
         11    1    1    2    0    0 -0.17098739957E+02 -0.41856509686E+01 -0.30558486304E+02  0.35266239767E+02  0.00000000000E+00 0. -1.
<mgrwt>
<rscale>  0 0.38786194E+02</rscale>
<asrwt>0</asrwt>
<pdfrwt beam="1">  1        2 0.51020510E-03 0.38786194E+02</pdfrwt>
<pdfrwt beam="2">  1       -2 0.17447083E-01 0.38786194E+02</pdfrwt>
<totfact> 0.63096252E+05</totfact>
</mgrwt>
</event>
<event>
 4    1  0.2126213E+000  0.2333035E+02  0.7546771E-02  0.1686210E+00
         -4   -1    0    0    0  501 -0.00000000000E+00  0.00000000000E+00  0.64450832453E+02  0.64450832453E+02  0.00000000000E+00 0.  1.
          4   -1    0    0  501    0  0.00000000000E+00 -0.00000000000E+00 -0.21113203154E+01  0.21113203154E+01  0.00000000000E+00 0. -1.
        -13    1    1    2    0    0 -0.23497090274E+01 -0.11141394597E+02  0.38401237088E+02  0.40053799020E+02  0.00000000000E+00 0. -1.
         13    1    1    2    0    0  0.23497090274E+01  0.11141394597E+02  0.23938275050E+02  0.26508353749E+02  0.00000000000E+00 0.  1.
<mgrwt>
<rscale>  0 0.23330354E+02</rscale>
<asrwt>0</asrwt>
<pdfrwt beam="2">  1        4 0.32481856E-03 0.23330354E+02</pdfrwt>
<pdfrwt beam="1">  1       -4 0.99155112E-02 0.23330354E+02</pdfrwt>
<totfact> 0.79179923E+05</totfact>
</mgrwt>
</event>
<event>
 4    1  0.2126213E+000  0.2665801E+02  0.7546771E-02  0.1638269E+00
          3   -1    0    0  501    0  0.00000000000E+00  0.00000000000E+00  0.78776227786E+02  0.78776227786E+02  0.00000000000E+00 0.  1.
         -3   -1    0    0    0  501 -0.00000000000E+00 -0.00000000000E+00 -0.22552786568E+01  0.22552786568E+01  0.00000000000E+00 0. -1.
        -11    1    1    2    0    0 -0.10972653656E+02  0.57184800535E+01  0.53325153439E+02  0.54741868178E+02  0.00000000000E+00 0. -1.
         11    1    1    2    0    0  0.10972653656E+02 -0.57184800535E+01  0.23195795690E+02  0.26289638265E+02  0.00000000000E+00 0.  1.
<mgrwt>
<rscale>  0 0.26658008E+02</rscale>
<asrwt>0</asrwt>
<pdfrwt beam="1">  1        3 0.12119418E-01 0.26658008E+02</pdfrwt>
<pdfrwt beam="2">  1       -3 0.34696601E-03 0.26658008E+02</pdfrwt>
<totfact> 0.78768372E+05</totfact>
</mgrwt>
</event>
<event>
 4    1  0.2126213E+000  0.2423537E+02  0.7546771E-02  0.1672234E+00
         -2   -1    0    0    0  501 -0.00000000000E+00  0.00000000000E+00  0.39985780004E+01  0.39985780004E+01  0.00000000000E+00 0. -1.
          2   -1    0    0  501    0  0.00000000000E+00 -0.00000000000E+00 -0.36722630634E+02  0.36722630634E+02  0.00000000000E+00 0.  1.
        -13    1    1    2    0    0  0.67927863209E+01 -0.99272860034E+01 -0.13900978680E+02  0.18382876860E+02  0.00000000000E+00 0. -1.
         13    1    1    2    0    0 -0.67927863209E+01  0.99272860034E+01 -0.18823073953E+02  0.22338331774E+02  0.00000000000E+00 0.  1.
<mgrwt>
<rscale>  0 0.24235371E+02</rscale>
<asrwt>0</asrwt>
<pdfrwt beam="2">  1        2 0.56496357E-02 0.24235371E+02</pdfrwt>
<pdfrwt beam="1">  1       -2 0.61516582E-03 0.24235371E+02</pdfrwt>
<totfact> 0.28685805E+06</totfact>
</mgrwt>
</event>
<event>
 4    1  0.2126213E+000  0.3052430E+02  0.7546771E-02  0.1592365E+00
         -1   -1    0    0    0  501 -0.00000000000E+00  0.00000000000E+00  0.15921060168E+01  0.15921060168E+01  0.00000000000E+00 0.  1.
          1   -1    0    0  501    0  0.00000000000E+00 -0.00000000000E+00 -0.14630508685E+03  0.14630508685E+03  0.00000000000E+00 0. -1.
        -13    1    1    2    0    0 -0.13901484574E+02 -0.61245577679E+01 -0.79496798192E+02  0.80935174084E+02  0.00000000000E+00 0.  1.
         13    1    1    2    0    0  0.13901484574E+02  0.61245577679E+01 -0.65216182643E+02  0.66962018784E+02  0.00000000000E+00 0. -1.
<mgrwt>
<rscale>  0 0.30524299E+02</rscale>
<asrwt>0</asrwt>
<pdfrwt beam="2">  1        1 0.22508472E-01 0.30524299E+02</pdfrwt>
<pdfrwt beam="1">  1       -1 0.24493942E-03 0.30524299E+02</pdfrwt>
<totfact> 0.17745100E+06</totfact>
</mgrwt>
</event>
<event>
 4    1  0.2126213E+000  0.2722903E+02  0.7546771E-02  0.1630906E+00
          4   -1    0    0  501    0  0.00000000000E+00  0.00000000000E+00  0.17585684344E+01  0.17585684344E+01  0.00000000000E+00 0.  1.
         -4   -1    0    0    0  501 -0.00000000000E+00 -0.00000000000E+00 -0.10540105496E+03  0.10540105496E+03  0.00000000000E+00 0. -1.
        -13    1    1    2    0    0 -0.13259655400E+02  0.83099270603E+00 -0.40116240954E+02  0.42258984825E+02  0.00000000000E+00 0. -1.
         13    1    1    2    0    0  0.13259655400E+02 -0.83099270603E+00 -0.63526245569E+02  0.64900638566E+02  0.00000000000E+00 0.  1.
<mgrwt>
<rscale>  0 0.27229026E+02</rscale>
<asrwt>0</asrwt>
<pdfrwt beam="1">  1        4 0.27054894E-03 0.27229026E+02</pdfrwt>
<pdfrwt beam="2">  1       -4 0.16215550E-01 0.27229026E+02</pdfrwt>
<totfact> 0.50422757E+05</totfact>
</mgrwt>
</event>
<event>
 4    1  0.2126213E+000  0.1222442E+03  0.7546771E-02  0.1239440E+00
         -1   -1    0    0    0  501 -0.00000000000E+00  0.00000000000E+00  0.14371470893E+03  0.14371470893E+03  0.00000000000E+00 0.  1.
          1   -1    0    0  501    0  0.00000000000E+00 -0.00000000000E+00 -0.25995318482E+02  0.25995318482E+02  0.00000000000E+00 0. -1.
        -13    1    1    2    0    0 -0.60945871789E+02 -0.45068435088E+01  0.60379665422E+02  0.85909341302E+02  0.00000000000E+00 0.  1.
         13    1    1    2    0    0  0.60945871789E+02  0.45068435088E+01  0.57339725027E+02  0.83800686111E+02  0.00000000000E+00 0. -1.
<mgrwt>
<rscale>  0 0.12224418E+03</rscale>
<asrwt>0</asrwt>
<pdfrwt beam="2">  1        1 0.39992798E-02 0.12224418E+03</pdfrwt>
<pdfrwt beam="1">  1       -1 0.22109955E-01 0.12224418E+03</pdfrwt>
<totfact> 0.35141313E+04</totfact>
</mgrwt>
</event>
<event>
 4    1  0.2126213E+000  0.3585140E+02  0.7546771E-02  0.1541167E+00
         -2   -1    0    0    0  501 -0.00000000000E+00  0.00000000000E+00  0.67783734741E+01  0.67783734741E+01  0.00000000000E+00 0.  1.
          2   -1    0    0  501    0  0.00000000000E+00 -0.00000000000E+00 -0.47405278362E+02  0.47405278362E+02  0.00000000000E+00 0. -1.
        -11    1    1    2    0    0 -0.63560160086E+01 -0.16674958164E+02 -0.17749731455E+02  0.25169547791E+02  0.00000000000E+00 0. -1.
         11    1    1    2    0    0  0.63560160086E+01  0.16674958164E+02 -0.22877173432E+02  0.29014104045E+02  0.00000000000E+00 0.  1.
<mgrwt>
<rscale>  0 0.35851398E+02</rscale>
<asrwt>0</asrwt>
<pdfrwt beam="2">  1        2 0.72931197E-02 0.35851398E+02</pdfrwt>
<pdfrwt beam="1">  1       -2 0.10428267E-02 0.35851398E+02</pdfrwt>
<totfact> 0.11718066E+06</totfact>
</mgrwt>
</event>
<event>
 4    1  0.2126213E+000  0.2360565E+02  0.7546771E-02  0.1681877E+00
         -1   -1    0    0    0  501 -0.00000000000E+00  0.00000000000E+00  0.55665737433E+01  0.55665737433E+01  0.00000000000E+00 0.  1.
          1   -1    0    0  501    0  0.00000000000E+00 -0.00000000000E+00 -0.25025558953E+02  0.25025558953E+02  0.00000000000E+00 0. -1.
        -13    1    1    2    0    0  0.58153613571E+01  0.86121430173E+01 -0.16982182414E+02  0.19909343400E+02  0.00000000000E+00 0. -1.
         13    1    1    2    0    0 -0.58153613571E+01 -0.86121430173E+01 -0.24768027953E+01  0.10682789296E+02  0.00000000000E+00 0.  1.
<mgrwt>
<rscale>  0 0.23605645E+02</rscale>
<asrwt>0</asrwt>
<pdfrwt beam="2">  1        1 0.38500859E-02 0.23605645E+02</pdfrwt>
<pdfrwt beam="1">  1       -1 0.85639598E-03 0.23605645E+02</pdfrwt>
<totfact> 0.27516793E+06</totfact>
</mgrwt>
</event>
<event>
 4    1  0.2126213E+000  0.3810886E+02  0.7546771E-02  0.1522608E+00
         -4   -1    0    0    0  501 -0.00000000000E+00  0.00000000000E+00  0.10673719485E+02  0.10673719485E+02  0.00000000000E+00 0. -1.
          4   -1    0    0  501    0  0.00000000000E+00 -0.00000000000E+00 -0.34015434720E+02  0.34015434720E+02  0.00000000000E+00 0.  1.
        -13    1    1    2    0    0 -0.49571332764E+01  0.14151192779E+02 -0.25458686801E+02  0.29546136144E+02  0.00000000000E+00 0.  1.
         13    1    1    2    0    0  0.49571332764E+01 -0.14151192779E+02  0.21169715654E+01  0.15143018061E+02  0.00000000000E+00 0. -1.
<mgrwt>
<rscale>  0 0.38108855E+02</rscale>
<asrwt>0</asrwt>
<pdfrwt beam="2">  1        4 0.52331438E-02 0.38108855E+02</pdfrwt>
<pdfrwt beam="1">  1       -4 0.16421107E-02 0.38108855E+02</pdfrwt>
<totfact> 0.28358116E+05</totfact>
</mgrwt>
</event>
<event>
 4    1  0.2126213E+000  0.2424935E+02  0.7546771E-02  0.1672024E+00
          2   -1    0    0  501    0  0.00000000000E+00  0.00000000000E+00  0.70634619587E+01  0.70634619587E+01  0.00000000000E+00 0.  1.
         -2   -1    0    0    0  501 -0.00000000000E+00 -0.00000000000E+00 -0.20812426234E+02  0.20812426234E+02  0.00000000000E+00 0. -1.
        -13    1    1    2    0    0 -0.16917107641E+01  0.11941087173E+02 -0.83085833063E+01  0.14645272437E+02  0.00000000000E+00 0. -1.
         13    1    1    2    0    0  0.16917107641E+01 -0.11941087173E+02 -0.54403809694E+01  0.13230615756E+02  0.00000000000E+00 0.  1.
<mgrwt>
<rscale>  0 0.24249353E+02</rscale>
<asrwt>0</asrwt>
<pdfrwt beam="1">  1        2 0.10866865E-02 0.24249353E+02</pdfrwt>
<pdfrwt beam="2">  1       -2 0.32019117E-02 0.24249353E+02</pdfrwt>
<totfact> 0.24421818E+06</totfact>
</mgrwt>
</event>
<event>
 4    1  0.2126213E+000  0.3159217E+02  0.7546771E-02  0.1581128E+00
          2   -1    0    0  501    0  0.00000000000E+00  0.00000000000E+00  0.77612846144E+02  0.77612846144E+02  0.00000000000E+00 0. -1.
         -2   -1    0    0    0  501 -0.00000000000E+00 -0.00000000000E+00 -0.32148844914E+01  0.32148844914E+01  0.00000000000E+00 0.  1.
        -11    1    1    2    0    0 -0.17109022552E+01  0.13857374546E+02  0.18300481888E+02  0.23018723969E+02  0.00000000000E+00 0.  1.
         11    1    1    2    0    0  0.17109022552E+01 -0.13857374546E+02  0.56097479766E+02  0.57809006667E+02  0.00000000000E+00 0. -1.
<mgrwt>
<rscale>  0 0.31592172E+02</rscale>
<asrwt>0</asrwt>
<pdfrwt beam="1">  1        2 0.11940436E-01 0.31592172E+02</pdfrwt>
<pdfrwt beam="2">  1       -2 0.49459767E-03 0.31592172E+02</pdfrwt>
<totfact> 0.17451407E+06</totfact>
</mgrwt>
</event>
<event>
 4    1  0.2126213E+000  0.2343846E+02  0.7546771E-02  0.1684500E+00
          4   -1    0    0  501    0  0.00000000000E+00  0.00000000000E+00  0.33825009143E+02  0.33825009143E+02  0.00000000000E+00 0.  1.
         -4   -1    0    0    0  501 -0.00000000000E+00 -0.00000000000E+00 -0.40603196912E+01  0.40603196912E+01  0.00000000000E+00 0. -1.
        -11    1    1    2    0    0 -0.56017217460E+01 -0.86060825629E+01  0.57535619653E+01  0.11770616759E+02  0.00000000000E+00 0. -1.
         11    1    1    2    0    0  0.56017217460E+01  0.86060825629E+01  0.24011127487E+02  0.26114712075E+02  0.00000000000E+00 0.  1.
<mgrwt>
<rscale>  0 0.23438460E+02</rscale>
<asrwt>0</asrwt>
<pdfrwt beam="1">  1        4 0.52038474E-02 0.23438460E+02</pdfrwt>
<pdfrwt beam="2">  1       -4 0.62466459E-03 0.23438460E+02</pdfrwt>
<totfact> 0.86743532E+05</totfact>
</mgrwt>
</event>
<event>
 4    1  0.2126213E+000  0.2311045E+02  0.7546771E-02  0.1689726E+00
         -2   -1    0    0    0  501 -0.00000000000E+00  0.00000000000E+00  0.15460270996E+02  0.15460270996E+02  0.00000000000E+00 0. -1.
          2   -1    0    0  501    0  0.00000000000E+00 -0.00000000000E+00 -0.86365384444E+01  0.86365384444E+01  0.00000000000E+00 0.  1.
        -11    1    1    2    0    0 -0.10399234226E+02 -0.39491762859E+01  0.15056667907E+00  0.11124870164E+02  0.00000000000E+00 0.  1.
         11    1    1    2    0    0  0.10399234226E+02  0.39491762859E+01  0.66731658721E+01  0.12971939276E+02  0.00000000000E+00 0. -1.
<mgrwt>
<rscale>  0 0.23110450E+02</rscale>
<asrwt>0</asrwt>
<pdfrwt beam="2">  1        2 0.13286982E-02 0.23110450E+02</pdfrwt>
<pdfrwt beam="1">  1       -2 0.23785032E-02 0.23110450E+02</pdfrwt>
<totfact> 0.27875232E+06</totfact>
</mgrwt>
</event>
<event>
 4    1  0.2126213E+000  0.3524182E+02  0.7546771E-02  0.1546464E+00
          1   -1    0    0  501    0  0.00000000000E+00  0.00000000000E+00  0.96140425780E+02  0.96140425780E+02  0.00000000000E+00 0.  1.
         -1   -1    0    0    0  501 -0.00000000000E+00 -0.00000000000E+00 -0.32296143623E+01  0.32296143623E+01  0.00000000000E+00 0. -1.
        -13    1    1    2    0    0 -0.32197071059E+01  0.15321053039E+02  0.69257274863E+02  0.71004727318E+02  0.00000000000E+00 0.  1.
         13    1    1    2    0    0  0.32197071059E+01 -0.15321053039E+02  0.23653536554E+02  0.28365312824E+02  0.00000000000E+00 0. -1.
<mgrwt>
<rscale>  0 0.35241822E+02</rscale>
<asrwt>0</asrwt>
<pdfrwt beam="1">  1        1 0.14790833E-01 0.35241822E+02</pdfrwt>
<pdfrwt beam="2">  1       -1 0.49686382E-03 0.35241822E+02</pdfrwt>
<totfact> 0.11915598E+06</totfact>
</mgrwt>
</event>
<event>
 4    1  0.2126213E+000  0.2199552E+02  0.7546771E-02  0.1708329E+00
         -2   -1    0    0    0  501 -0.00000000000E+00  0.00000000000E+00  0.57236269989E+02  0.57236269989E+02  0.00000000000E+00 0.  1.
          2   -1    0    0  501    0  0.00000000000E+00 -0.00000000000E+00 -0.21131834991E+01  0.21131834991E+01  0.00000000000E+00 0. -1.
        -13    1    1    2    0    0 -0.10032090409E+02 -0.82776754583E+00  0.15608956892E+02  0.18573302678E+02  0.00000000000E+00 0. -1.
         13    1    1    2    0    0  0.10032090409E+02  0.82776754583E+00  0.39514129597E+02  0.40776150810E+02  0.00000000000E+00 0.  1.
<mgrwt>
<rscale>  0 0.21995521E+02</rscale>
<asrwt>0</asrwt>
<pdfrwt beam="2">  1        2 0.32510520E-03 0.21995521E+02</pdfrwt>
<pdfrwt beam="1">  1       -2 0.88055788E-02 0.21995521E+02</pdfrwt>
<totfact> 0.26934271E+06</totfact>
</mgrwt>
</event>
<event>
 4    1  0.2126213E+000  0.2207447E+02  0.7546771E-02  0.1706967E+00
          2   -1    0    0  501    0  0.00000000000E+00  0.00000000000E+00  0.62341932574E+01  0.62341932574E+01  0.00000000000E+00 0. -1.
         -2   -1    0    0    0  501 -0.00000000000E+00 -0.00000000000E+00 -0.19540705357E+02  0.19540705357E+02  0.00000000000E+00 0.  1.
        -13    1    1    2    0    0 -0.95424257829E+01 -0.38340509639E+01 -0.11332933869E+02  0.15303373049E+02  0.00000000000E+00 0.  1.
         13    1    1    2    0    0  0.95424257829E+01  0.38340509639E+01 -0.19735782302E+01  0.10471525564E+02  0.00000000000E+00 0. -1.
<mgrwt>
<rscale>  0 0.22074468E+02</rscale>
<asrwt>0</asrwt>
<pdfrwt beam="1">  1        2 0.95910666E-03 0.22074468E+02</pdfrwt>
<pdfrwt beam="2">  1       -2 0.30062623E-02 0.22074468E+02</pdfrwt>
<totfact> 0.30228036E+06</totfact>
</mgrwt>
</event>
<event>
 4    1  0.2126213E+000  0.3759111E+02  0.7546771E-02  0.1526725E+00
         -2   -1    0    0    0  501 -0.00000000000E+00  0.00000000000E+00  0.84733922038E+01  0.84733922038E+01  0.00000000000E+00 0.  1.
          2   -1    0    0  501    0  0.00000000000E+00 -0.00000000000E+00 -0.41692018377E+02  0.41692018377E+02  0.00000000000E+00 0. -1.
        -11    1    1    2    0    0  0.94419064670E+01 -0.16036192277E+02 -0.20130923032E+02  0.27414651605E+02  0.00000000000E+00 0.  1.
         11    1    1    2    0    0 -0.94419064670E+01  0.16036192277E+02 -0.13087703141E+02  0.22750758976E+02  0.00000000000E+00 0. -1.
<mgrwt>
<rscale>  0 0.37591107E+02</rscale>
<asrwt>0</asrwt>
<pdfrwt beam="2">  1        2 0.64141566E-02 0.37591107E+02</pdfrwt>
<pdfrwt beam="1">  1       -2 0.13035988E-02 0.37591107E+02</pdfrwt>
<totfact> 0.10211781E+06</totfact>
</mgrwt>
</event>
<event>
 4    1  0.2126213E+000  0.4280695E+02  0.7546771E-02  0.1488516E+00
          2   -1    0    0  501    0  0.00000000000E+00  0.00000000000E+00  0.95037379021E+01  0.95037379021E+01  0.00000000000E+00 0. -1.
         -2   -1    0    0    0  501 -0.00000000000E+00 -0.00000000000E+00 -0.48202995764E+02  0.48202995764E+02  0.00000000000E+00 0.  1.
        -11    1    1    2    0    0 -0.80561100545E+01  0.12547554589E+02  0.13495633800E+01  0.14972085917E+02  0.00000000000E+00 0. -1.
         11    1    1    2    0    0  0.80561100545E+01 -0.12547554589E+02 -0.40048821242E+02  0.42734647750E+02  0.00000000000E+00 0.  1.
<mgrwt>
<rscale>  0 0.42806945E+02</rscale>
<asrwt>0</asrwt>
<pdfrwt beam="1">  1        2 0.14621135E-02 0.42806945E+02</pdfrwt>
<pdfrwt beam="2">  1       -2 0.74158455E-02 0.42806945E+02</pdfrwt>
<totfact> 0.59460609E+05</totfact>
</mgrwt>
</event>
<event>
 4    1  0.2126213E+000  0.3473825E+02  0.7546771E-02  0.1550937E+00
          2   -1    0    0  501    0  0.00000000000E+00  0.00000000000E+00  0.30895867911E+01  0.30895867911E+01  0.00000000000E+00 0. -1.
         -2   -1    0    0    0  501 -0.00000000000E+00 -0.00000000000E+00 -0.97646249231E+02  0.97646249231E+02  0.00000000000E+00 0.  1.
        -13    1    1    2    0    0 -0.34659663043E+01  0.13379126066E+02 -0.16771568630E+02  0.21732451565E+02  0.00000000000E+00 0. -1.
         13    1    1    2    0    0  0.34659663043E+01 -0.13379126066E+02 -0.77785093810E+02  0.79003384457E+02  0.00000000000E+00 0.  1.
<mgrwt>
<rscale>  0 0.34738253E+02</rscale>
<asrwt>0</asrwt>
<pdfrwt beam="1">  1        2 0.47532104E-03 0.34738253E+02</pdfrwt>
<pdfrwt beam="2">  1       -2 0.15022500E-01 0.34738253E+02</pdfrwt>
<totfact> 0.85139675E+05</totfact>
</mgrwt>
</event>
<event>
 4    1  0.2126213E+000  0.4974192E+02  0.7546771E-02  0.1446739E+00
          4   -1    0    0  501    0  0.00000000000E+00  0.00000000000E+00  0.16413049845E+02  0.16413049845E+02  0.00000000000E+00 0.  1.
         -4   -1    0    0    0  501 -0.00000000000E+00 -0.00000000000E+00 -0.37687364020E+02  0.37687364020E+02  0.00000000000E+00 0. -1.
        -13    1    1    2    0    0  0.12139922429E+02 -0.71951057502E+01  0.11636998411E+02  0.18291172607E+02  0.00000000000E+00 0.  1.
         13    1    1    2    0    0 -0.12139922429E+02  0.71951057502E+01 -0.32911312586E+02  0.35809241258E+02  0.00000000000E+00 0. -1.
<mgrwt>
<rscale>  0 0.49741917E+02</rscale>
<asrwt>0</asrwt>
<pdfrwt beam="1">  1        4 0.25250846E-02 0.49741917E+02</pdfrwt>
<pdfrwt beam="2">  1       -4 0.57980559E-02 0.49741917E+02</pdfrwt>
<totfact> 0.14421113E+05</totfact>
</mgrwt>
</event>
<event>
 4    1  0.2126213E+000  0.2372551E+02  0.7546771E-02  0.1680013E+00
         -2   -1    0    0    0  501 -0.00000000000E+00  0.00000000000E+00  0.22549695910E+01  0.22549695910E+01  0.00000000000E+00 0. -1.
          2   -1    0    0  501    0  0.00000000000E+00 -0.00000000000E+00 -0.62406602244E+02  0.62406602244E+02  0.00000000000E+00 0.  1.
        -13    1    1    2    0    0 -0.94598277413E+01  0.71467618410E+01 -0.31167491015E+02  0.33346319766E+02  0.00000000000E+00 0. -1.
         13    1    1    2    0    0  0.94598277413E+01 -0.71467618410E+01 -0.28984141637E+02  0.31315252069E+02  0.00000000000E+00 0.  1.
<mgrwt>
<rscale>  0 0.23725513E+02</rscale>
<asrwt>0</asrwt>
<pdfrwt beam="2">  1        2 0.96010151E-02 0.23725513E+02</pdfrwt>
<pdfrwt beam="1">  1       -2 0.34691842E-03 0.23725513E+02</pdfrwt>
<totfact> 0.32667067E+06</totfact>
</mgrwt>
</event>
<event>
 4    1  0.2126213E+000  0.2043673E+02  0.7546771E-02  0.1736780E+00
         -2   -1    0    0    0  501 -0.00000000000E+00  0.00000000000E+00  0.69481291896E+02  0.69481291896E+02  0.00000000000E+00 0. -1.
          2   -1    0    0  501    0  0.00000000000E+00 -0.00000000000E+00 -0.15027784865E+01  0.15027784865E+01  0.00000000000E+00 0.  1.
        -11    1    1    2    0    0 -0.95341674555E+01  0.35274489092E+01  0.30393458008E+02  0.32048487243E+02  0.00000000000E+00 0. -1.
         11    1    1    2    0    0  0.95341674555E+01 -0.35274489092E+01  0.37585055402E+02  0.38935583140E+02  0.00000000000E+00 0.  1.
<mgrwt>
<rscale>  0 0.20436731E+02</rscale>
<asrwt>0</asrwt>
<pdfrwt beam="2">  1        2 0.23119674E-03 0.20436731E+02</pdfrwt>
<pdfrwt beam="1">  1       -2 0.10689427E-01 0.20436731E+02</pdfrwt>
<totfact> 0.30643609E+06</totfact>
</mgrwt>
</event>
<event>
 4    1  0.2126213E+000  0.2838037E+02  0.7546771E-02  0.1616714E+00
          3   -1    0    0  501    0  0.00000000000E+00  0.00000000000E+00  0.75585087957E+01  0.75585087957E+01  0.00000000000E+00 0.  1.
         -3   -1    0    0    0  501 -0.00000000000E+00 -0.00000000000E+00 -0.26640348743E+02  0.26640348743E+02  0.00000000000E+00 0. -1.
        -11    1    1    2    0    0  0.95492483005E+01 -0.85070625284E+01 -0.16949876275E+02  0.21233383191E+02  0.00000000000E+00 0. -1.
         11    1    1    2    0    0 -0.95492483005E+01  0.85070625284E+01 -0.21319636716E+01  0.12965474348E+02  0.00000000000E+00 0.  1.
<mgrwt>
<rscale>  0 0.28380367E+02</rscale>
<asrwt>0</asrwt>
<pdfrwt beam="1">  1        3 0.11628475E-02 0.28380367E+02</pdfrwt>
<pdfrwt beam="2">  1       -3 0.40985153E-02 0.28380367E+02</pdfrwt>
<totfact> 0.77942451E+05</totfact>
</mgrwt>
</event>
<event>
 4    1  0.2126213E+000  0.3079297E+02  0.7546771E-02  0.1589485E+00
         -2   -1    0    0    0  501 -0.00000000000E+00  0.00000000000E+00  0.43987095691E+02  0.43987095691E+02  0.00000000000E+00 0.  1.
          2   -1    0    0  501    0  0.00000000000E+00 -0.00000000000E+00 -0.53891201214E+01  0.53891201214E+01  0.00000000000E+00 0. -1.
        -13    1    1    2    0    0  0.10296543692E+02  0.11375218369E+02  0.21350789269E+02  0.26292025547E+02  0.00000000000E+00 0. -1.
         13    1    1    2    0    0 -0.10296543692E+02 -0.11375218369E+02  0.17247186301E+02  0.23084190266E+02  0.00000000000E+00 0.  1.
<mgrwt>
<rscale>  0 0.30792969E+02</rscale>
<asrwt>0</asrwt>
<pdfrwt beam="2">  1        2 0.82909543E-03 0.30792969E+02</pdfrwt>
<pdfrwt beam="1">  1       -2 0.67672452E-02 0.30792969E+02</pdfrwt>
<totfact> 0.13055329E+06</totfact>
</mgrwt>
</event>
<event>
 4    1  0.2126213E+000  0.2665828E+02  0.7546771E-02  0.1638266E+00
          2   -1    0    0  501    0  0.00000000000E+00  0.00000000000E+00  0.24833762281E+01  0.24833762281E+01  0.00000000000E+00 0.  1.
         -2   -1    0    0    0  501 -0.00000000000E+00 -0.00000000000E+00 -0.71542103341E+02  0.71542103341E+02  0.00000000000E+00 0. -1.
        -13    1    1    2    0    0  0.12034804935E+02  0.41193652039E+01 -0.45588068296E+02  0.47329458801E+02  0.00000000000E+00 0. -1.
         13    1    1    2    0    0 -0.12034804935E+02 -0.41193652039E+01 -0.23470658817E+02  0.26696020768E+02  0.00000000000E+00 0.  1.
<mgrwt>
<rscale>  0 0.26658279E+02</rscale>
<asrwt>0</asrwt>
<pdfrwt beam="1">  1        2 0.38205786E-03 0.26658279E+02</pdfrwt>
<pdfrwt beam="2">  1       -2 0.11006478E-01 0.26658279E+02</pdfrwt>
<totfact> 0.16812342E+06</totfact>
</mgrwt>
</event>
<event>
 4    1  0.2126213E+000  0.3013177E+02  0.7546771E-02  0.1596637E+00
          2   -1    0    0  501    0  0.00000000000E+00  0.00000000000E+00  0.17733626833E+02  0.17733626833E+02  0.00000000000E+00 0.  1.
         -2   -1    0    0    0  501 -0.00000000000E+00 -0.00000000000E+00 -0.12799466565E+02  0.12799466565E+02  0.00000000000E+00 0. -1.
        -13    1    1    2    0    0  0.12782663853E+02 -0.19088230883E+00 -0.56107952137E+01  0.13961158768E+02  0.00000000000E+00 0.  1.
         13    1    1    2    0    0 -0.12782663853E+02  0.19088230883E+00  0.10544955482E+02  0.16571934629E+02  0.00000000000E+00 0. -1.
<mgrwt>
<rscale>  0 0.30131775E+02</rscale>
<asrwt>0</asrwt>
<pdfrwt beam="1">  1        2 0.27282503E-02 0.30131775E+02</pdfrwt>
<pdfrwt beam="2">  1       -2 0.19691487E-02 0.30131775E+02</pdfrwt>
<totfact> 0.15760418E+06</totfact>
</mgrwt>
</event>
<event>
 4    1  0.2126213E+000  0.2665106E+02  0.7546771E-02  0.1638360E+00
         -3   -1    0    0    0  501 -0.00000000000E+00  0.00000000000E+00  0.82818046339E+02  0.82818046339E+02  0.00000000000E+00 0. -1.
          3   -1    0    0  501    0  0.00000000000E+00 -0.00000000000E+00 -0.21440951808E+01  0.21440951808E+01  0.00000000000E+00 0.  1.
        -11    1    1    2    0    0 -0.12457668143E+02  0.23962024948E+01  0.27334809584E+02  0.30135147203E+02  0.00000000000E+00 0.  1.
         11    1    1    2    0    0  0.12457668143E+02 -0.23962024948E+01  0.53339141574E+02  0.54826994317E+02  0.00000000000E+00 0. -1.
<mgrwt>
<rscale>  0 0.26651062E+02</rscale>
<asrwt>0</asrwt>
<pdfrwt beam="2">  1        3 0.32986086E-03 0.26651062E+02</pdfrwt>
<pdfrwt beam="1">  1       -3 0.12741235E-01 0.26651062E+02</pdfrwt>
<totfact> 0.78040858E+05</totfact>
</mgrwt>
</event>
<event>
 4    1  0.2126213E+000  0.2723447E+02  0.7546771E-02  0.1630837E+00
          4   -1    0    0  501    0  0.00000000000E+00  0.00000000000E+00  0.12195451638E+02  0.12195451638E+02  0.00000000000E+00 0.  1.
         -4   -1    0    0    0  501 -0.00000000000E+00 -0.00000000000E+00 -0.15204770164E+02  0.15204770164E+02  0.00000000000E+00 0. -1.
        -13    1    1    2    0    0 -0.13410541051E+01 -0.12872350450E+02  0.27558762470E+01  0.13232183724E+02  0.00000000000E+00 0.  1.
         13    1    1    2    0    0  0.13410541051E+01  0.12872350450E+02 -0.57651947732E+01  0.14168038078E+02  0.00000000000E+00 0. -1.
<mgrwt>
<rscale>  0 0.27234466E+02</rscale>
<asrwt>0</asrwt>
<pdfrwt beam="1">  1        4 0.18762233E-02 0.27234466E+02</pdfrwt>
<pdfrwt beam="2">  1       -4 0.23391954E-02 0.27234466E+02</pdfrwt>
<totfact> 0.65259867E+05</totfact>
</mgrwt>
</event>
<event>
 4    1  0.2126213E+000  0.2410392E+02  0.7546771E-02  0.1674216E+00
         -1   -1    0    0    0  501 -0.00000000000E+00  0.00000000000E+00  0.21052336727E+01  0.21052336727E+01  0.00000000000E+00 0.  1.
          1   -1    0    0  501    0  0.00000000000E+00 -0.00000000000E+00 -0.68994586362E+02  0.68994586362E+02  0.00000000000E+00 0. -1.
        -11    1    1    2    0    0  0.67518181803E+00  0.10511124362E+02 -0.50722616543E+02  0.51804666149E+02  0.00000000000E+00 0. -1.
         11    1    1    2    0    0 -0.67518181803E+00 -0.10511124362E+02 -0.16166736147E+02  0.19295153886E+02  0.00000000000E+00 0.  1.
<mgrwt>
<rscale>  0 0.24103919E+02</rscale>
<asrwt>0</asrwt>
<pdfrwt beam="2">  1        1 0.10614552E-01 0.24103919E+02</pdfrwt>
<pdfrwt beam="1">  1       -1 0.32388210E-03 0.24103919E+02</pdfrwt>
<totfact> 0.28100235E+06</totfact>
</mgrwt>
</event>
<event>
 4    1  0.2126213E+000  0.3292035E+02  0.7546771E-02  0.1567884E+00
         -2   -1    0    0    0  501 -0.00000000000E+00  0.00000000000E+00  0.29166982063E+02  0.29166982063E+02  0.00000000000E+00 0.  1.
          2   -1    0    0  501    0  0.00000000000E+00 -0.00000000000E+00 -0.92891791074E+01  0.92891791074E+01  0.00000000000E+00 0. -1.
        -13    1    1    2    0    0 -0.13200439210E+02 -0.91491432747E+01  0.57304676663E+01  0.17052761585E+02  0.00000000000E+00 0. -1.
         13    1    1    2    0    0  0.13200439210E+02  0.91491432747E+01  0.14147335289E+02  0.21403399585E+02  0.00000000000E+00 0.  1.
<mgrwt>
<rscale>  0 0.32920348E+02</rscale>
<asrwt>0</asrwt>
<pdfrwt beam="2">  1        2 0.14291045E-02 0.32920348E+02</pdfrwt>
<pdfrwt beam="1">  1       -2 0.44872280E-02 0.32920348E+02</pdfrwt>
<totfact> 0.11790862E+06</totfact>
</mgrwt>
</event>
<event>
 4    1  0.2126213E+000  0.2305016E+02  0.7546771E-02  0.1690698E+00
         -3   -1    0    0    0  501 -0.00000000000E+00  0.00000000000E+00  0.51438067107E+02  0.51438067107E+02  0.00000000000E+00 0. -1.
          3   -1    0    0  501    0  0.00000000000E+00 -0.00000000000E+00 -0.25822803198E+01  0.25822803198E+01  0.00000000000E+00 0.  1.
        -13    1    1    2    0    0 -0.64464665268E+01  0.90579114941E+01  0.31545963244E+02  0.33447727700E+02  0.00000000000E+00 0. -1.
         13    1    1    2    0    0  0.64464665268E+01 -0.90579114941E+01  0.17309823543E+02  0.20572619726E+02  0.00000000000E+00 0.  1.
<mgrwt>
<rscale>  0 0.23050163E+02</rscale>
<asrwt>0</asrwt>
<pdfrwt beam="2">  1        3 0.39727393E-03 0.23050163E+02</pdfrwt>
<pdfrwt beam="1">  1       -3 0.79135480E-02 0.23050163E+02</pdfrwt>
<totfact> 0.11750056E+06</totfact>
</mgrwt>
</event>
<event>
 4    1  0.2126213E+000  0.2833845E+02  0.7546771E-02  0.1617216E+00
         -3   -1    0    0    0  501 -0.00000000000E+00  0.00000000000E+00  0.34638438906E+01  0.34638438906E+01  0.00000000000E+00 0.  1.
          3   -1    0    0  501    0  0.00000000000E+00 -0.00000000000E+00 -0.57960718865E+02  0.57960718865E+02  0.00000000000E+00 0. -1.
        -13    1    1    2    0    0 -0.54643734566E+01 -0.11543401421E+02 -0.40549647152E+02  0.42513331765E+02  0.00000000000E+00 0. -1.
         13    1    1    2    0    0  0.54643734566E+01  0.11543401421E+02 -0.13947227823E+02  0.18911230991E+02  0.00000000000E+00 0.  1.
<mgrwt>
<rscale>  0 0.28338446E+02</rscale>
<asrwt>0</asrwt>
<pdfrwt beam="2">  1        3 0.89170335E-02 0.28338446E+02</pdfrwt>
<pdfrwt beam="1">  1       -3 0.53289907E-03 0.28338446E+02</pdfrwt>
<totfact> 0.72179782E+05</totfact>
</mgrwt>
</event>
<event>
 4    1  0.2126213E+000  0.4225503E+02  0.7546771E-02  0.1492244E+00
          1   -1    0    0  501    0  0.00000000000E+00  0.00000000000E+00  0.51318371002E+02  0.51318371002E+02  0.00000000000E+00 0.  1.
         -1   -1    0    0    0  501 -0.00000000000E+00 -0.00000000000E+00 -0.86980915213E+01  0.86980915213E+01  0.00000000000E+00 0. -1.
        -11    1    1    2    0    0 -0.14024052711E+02  0.12628253986E+02  0.34801492842E+02  0.39589023191E+02  0.00000000000E+00 0.  1.
         11    1    1    2    0    0  0.14024052711E+02 -0.12628253986E+02  0.78187866386E+01  0.20427439332E+02  0.00000000000E+00 0. -1.
<mgrwt>
<rscale>  0 0.42255030E+02</rscale>
<asrwt>0</asrwt>
<pdfrwt beam="1">  1        1 0.78951338E-02 0.42255030E+02</pdfrwt>
<pdfrwt beam="2">  1       -1 0.13381680E-02 0.42255030E+02</pdfrwt>
<totfact> 0.71477802E+05</totfact>
</mgrwt>
</event>
<event>
 4    1  0.2126213E+000  0.2290031E+02  0.7546771E-02  0.1693131E+00
         -2   -1    0    0    0  501 -0.00000000000E+00  0.00000000000E+00  0.71065264063E+01  0.71065264063E+01  0.00000000000E+00 0.  1.
          2   -1    0    0  501    0  0.00000000000E+00 -0.00000000000E+00 -0.18448683044E+02  0.18448683044E+02  0.00000000000E+00 0. -1.
        -13    1    1    2    0    0 -0.10775429603E+02  0.17657256886E+01 -0.18250122771E+01  0.11070607036E+02  0.00000000000E+00 0. -1.
         13    1    1    2    0    0  0.10775429603E+02 -0.17657256886E+01 -0.95171443610E+01  0.14484602415E+02  0.00000000000E+00 0.  1.
<mgrwt>
<rscale>  0 0.22900310E+02</rscale>
<asrwt>0</asrwt>
<pdfrwt beam="2">  1        2 0.28382590E-02 0.22900310E+02</pdfrwt>
<pdfrwt beam="1">  1       -2 0.10933117E-02 0.22900310E+02</pdfrwt>
<totfact> 0.30359570E+06</totfact>
</mgrwt>
</event>
<event>
 4    1  0.2126213E+000  0.2332128E+02  0.7546771E-02  0.1686355E+00
          2   -1    0    0  501    0  0.00000000000E+00  0.00000000000E+00  0.41442313694E+01  0.41442313694E+01  0.00000000000E+00 0. -1.
         -2   -1    0    0    0  501 -0.00000000000E+00 -0.00000000000E+00 -0.32809583890E+02  0.32809583890E+02  0.00000000000E+00 0.  1.
        -11    1    1    2    0    0  0.10264417913E+02  0.22670060842E+01 -0.63353234893E+01  0.12273300917E+02  0.00000000000E+00 0. -1.
         11    1    1    2    0    0 -0.10264417913E+02 -0.22670060842E+01 -0.22330029031E+02  0.24680514342E+02  0.00000000000E+00 0.  1.
<mgrwt>
<rscale>  0 0.23321278E+02</rscale>
<asrwt>0</asrwt>
<pdfrwt beam="1">  1        2 0.63757408E-03 0.23321278E+02</pdfrwt>
<pdfrwt beam="2">  1       -2 0.50476281E-02 0.23321278E+02</pdfrwt>
<totfact> 0.25451864E+06</totfact>
</mgrwt>
</event>
<event>
 4    1  0.2126213E+000  0.6252134E+02  0.7546771E-02  0.1387545E+00
         -4   -1    0    0    0  501 -0.00000000000E+00  0.00000000000E+00  0.34862803762E+02  0.34862803762E+02  0.00000000000E+00 0. -1.
          4   -1    0    0  501    0  0.00000000000E+00 -0.00000000000E+00 -0.28030720299E+02  0.28030720299E+02  0.00000000000E+00 0.  1.
        -11    1    1    2    0    0 -0.17653712089E+02 -0.15448242544E+02 -0.17369188688E+02  0.29188875688E+02  0.00000000000E+00 0.  1.
         11    1    1    2    0    0  0.17653712089E+02  0.15448242544E+02  0.24201272152E+02  0.33704648374E+02  0.00000000000E+00 0. -1.
<mgrwt>
<rscale>  0 0.62521340E+02</rscale>
<asrwt>0</asrwt>
<pdfrwt beam="2">  1        4 0.43124185E-02 0.62521340E+02</pdfrwt>
<pdfrwt beam="1">  1       -4 0.53635083E-02 0.62521340E+02</pdfrwt>
<totfact> 0.78847719E+04</totfact>
</mgrwt>
</event>
<event>
 4    1  0.2126213E+000  0.2569969E+02  0.7546771E-02  0.1651151E+00
          2   -1    0    0  501    0  0.00000000000E+00  0.00000000000E+00  0.63020484757E+01  0.63020484757E+01  0.00000000000E+00 0.  1.
         -2   -1    0    0    0  501 -0.00000000000E+00 -0.00000000000E+00 -0.26200777160E+02  0.26200777160E+02  0.00000000000E+00 0. -1.
        -11    1    1    2    0    0  0.21283941850E+01 -0.12464003582E+02 -0.12843637097E+02  0.18023331018E+02  0.00000000000E+00 0.  1.
         11    1    1    2    0    0 -0.21283941850E+01  0.12464003582E+02 -0.70550915876E+01  0.14479494618E+02  0.00000000000E+00 0. -1.
<mgrwt>
<rscale>  0 0.25699694E+02</rscale>
<asrwt>0</asrwt>
<pdfrwt beam="1">  1        2 0.96954593E-03 0.25699694E+02</pdfrwt>
<pdfrwt beam="2">  1       -2 0.40308888E-02 0.25699694E+02</pdfrwt>
<totfact> 0.20971607E+06</totfact>
</mgrwt>
</event>
<event>
 4    1  0.2126213E+000  0.3122852E+02  0.7546771E-02  0.1584893E+00
         -2   -1    0    0    0  501 -0.00000000000E+00  0.00000000000E+00  0.23702729802E+01  0.23702729802E+01  0.00000000000E+00 0.  1.
          2   -1    0    0  501    0  0.00000000000E+00 -0.00000000000E+00 -0.10285951662E+03  0.10285951662E+03  0.00000000000E+00 0. -1.
        -11    1    1    2    0    0  0.13843784887E+02  0.40100753926E+01 -0.30005823365E+02  0.33287843433E+02  0.00000000000E+00 0. -1.
         11    1    1    2    0    0 -0.13843784887E+02 -0.40100753926E+01 -0.70483420278E+02  0.71941946170E+02  0.00000000000E+00 0.  1.
<mgrwt>
<rscale>  0 0.31228521E+02</rscale>
<asrwt>0</asrwt>
<pdfrwt beam="2">  1        2 0.15824534E-01 0.31228521E+02</pdfrwt>
<pdfrwt beam="1">  1       -2 0.36465755E-03 0.31228521E+02</pdfrwt>
<totfact> 0.19131948E+06</totfact>
</mgrwt>
</event>
<event>
 4    1  0.2126213E+000  0.2932680E+02  0.7546771E-02  0.1605651E+00
         -4   -1    0    0    0  501 -0.00000000000E+00  0.00000000000E+00  0.96954174577E+01  0.96954174577E+01  0.00000000000E+00 0.  1.
          4   -1    0    0  501    0  0.00000000000E+00 -0.00000000000E+00 -0.22177004831E+02  0.22177004831E+02  0.00000000000E+00 0. -1.
        -11    1    1    2    0    0 -0.10988346420E+02  0.96821498155E+01 -0.70301573464E+01  0.16245334543E+02  0.00000000000E+00 0. -1.
         11    1    1    2    0    0  0.10988346420E+02 -0.96821498155E+01 -0.54514300271E+01  0.15627087746E+02  0.00000000000E+00 0.  1.
<mgrwt>
<rscale>  0 0.29326801E+02</rscale>
<asrwt>0</asrwt>
<pdfrwt beam="2">  1        4 0.34118469E-02 0.29326801E+02</pdfrwt>
<pdfrwt beam="1">  1       -4 0.14916027E-02 0.29326801E+02</pdfrwt>
<totfact> 0.54376665E+05</totfact>
</mgrwt>
</event>
<event>
 4    1  0.2126213E+000  0.2558291E+02  0.7546771E-02  0.1652768E+00
         -3   -1    0    0    0  501 -0.00000000000E+00  0.00000000000E+00  0.53444561577E+01  0.53444561577E+01  0.00000000000E+00 0.  1.
          3   -1    0    0  501    0  0.00000000000E+00 -0.00000000000E+00 -0.30615157722E+02  0.30615157722E+02  0.00000000000E+00 0. -1.
        -13    1    1    2    0    0 -0.12053426359E+01  0.10906080977E+02 -0.21876736814E+02  0.24474212281E+02  0.00000000000E+00 0. -1.
         13    1    1    2    0    0  0.12053426359E+01 -0.10906080977E+02 -0.33939647505E+01  0.11485401599E+02  0.00000000000E+00 0.  1.
<mgrwt>
<rscale>  0 0.25582914E+02</rscale>
<asrwt>0</asrwt>
<pdfrwt beam="2">  1        3 0.47100243E-02 0.25582914E+02</pdfrwt>
<pdfrwt beam="1">  1       -3 0.82222402E-03 0.25582914E+02</pdfrwt>
<totfact> 0.98257471E+05</totfact>
</mgrwt>
</event>
<event>
 4    1  0.2126213E+000  0.2125082E+02  0.7546771E-02  0.1721540E+00
          1   -1    0    0  501    0  0.00000000000E+00  0.00000000000E+00  0.87980631982E+01  0.87980631982E+01  0.00000000000E+00 0.  1.
         -1   -1    0    0    0  501 -0.00000000000E+00 -0.00000000000E+00 -0.12832292154E+02  0.12832292154E+02  0.00000000000E+00 0. -1.
        -11    1    1    2    0    0  0.82852970399E+01 -0.66232514221E+01 -0.26492627606E+01  0.10933078231E+02  0.00000000000E+00 0. -1.
         11    1    1    2    0    0 -0.82852970399E+01  0.66232514221E+01 -0.13849661952E+01  0.10697277121E+02  0.00000000000E+00 0.  1.
<mgrwt>
<rscale>  0 0.21250818E+02</rscale>
<asrwt>0</asrwt>
<pdfrwt beam="1">  1        1 0.13535482E-02 0.21250818E+02</pdfrwt>
<pdfrwt beam="2">  1       -1 0.19741988E-02 0.21250818E+02</pdfrwt>
<totfact> 0.33442079E+06</totfact>
</mgrwt>
</event>
<event>
 4    1  0.2126213E+000  0.2497184E+02  0.7546771E-02  0.1661407E+00
         -2   -1    0    0    0  501 -0.00000000000E+00  0.00000000000E+00  0.69714064103E+02  0.69714064103E+02  0.00000000000E+00 0. -1.
          2   -1    0    0  501    0  0.00000000000E+00 -0.00000000000E+00 -0.22362519852E+01  0.22362519852E+01  0.00000000000E+00 0.  1.
        -11    1    1    2    0    0  0.97725576624E+01 -0.34190317758E+01  0.13630790229E+02  0.17116982906E+02  0.00000000000E+00 0.  1.
         11    1    1    2    0    0 -0.97725576624E+01  0.34190317758E+01  0.53847021889E+02  0.54833333182E+02  0.00000000000E+00 0. -1.
<mgrwt>
<rscale>  0 0.24971841E+02</rscale>
<asrwt>0</asrwt>
<pdfrwt beam="2">  1        2 0.34403882E-03 0.24971841E+02</pdfrwt>
<pdfrwt beam="1">  1       -2 0.10725239E-01 0.24971841E+02</pdfrwt>
<totfact> 0.19597234E+06</totfact>
</mgrwt>
</event>
<event>
 4    1  0.2126213E+000  0.2819971E+02  0.7546771E-02  0.1618886E+00
          2   -1    0    0  501    0  0.00000000000E+00  0.00000000000E+00  0.14068980273E+03  0.14068980273E+03  0.00000000000E+00 0.  1.
         -2   -1    0    0    0  501 -0.00000000000E+00 -0.00000000000E+00 -0.14130801224E+01  0.14130801224E+01  0.00000000000E+00 0. -1.
        -11    1    1    2    0    0 -0.11506872698E+02 -0.77027732782E+01  0.56244117123E+02  0.57923583681E+02  0.00000000000E+00 0. -1.
         11    1    1    2    0    0  0.11506872698E+02  0.77027732782E+01  0.83032605480E+02  0.84179299168E+02  0.00000000000E+00 0.  1.
<mgrwt>
<rscale>  0 0.28199714E+02</rscale>
<asrwt>0</asrwt>
<pdfrwt beam="1">  1        2 0.21644574E-01 0.28199714E+02</pdfrwt>
<pdfrwt beam="2">  1       -2 0.21739705E-03 0.28199714E+02</pdfrwt>
<totfact> 0.26390907E+06</totfact>
</mgrwt>
</event>
<event>
 4    1  0.2126213E+000  0.5015960E+02  0.7546771E-02  0.1444483E+00
          2   -1    0    0  501    0  0.00000000000E+00  0.00000000000E+00  0.13946642728E+03  0.13946642728E+03  0.00000000000E+00 0.  1.
         -2   -1    0    0    0  501 -0.00000000000E+00 -0.00000000000E+00 -0.45100199815E+01  0.45100199815E+01  0.00000000000E+00 0. -1.
        -11    1    1    2    0    0 -0.18912387911E+02  0.15960481786E+02  0.55790142809E+02  0.61032412945E+02  0.00000000000E+00 0. -1.
         11    1    1    2    0    0  0.18912387911E+02 -0.15960481786E+02  0.79166264487E+02  0.82944034313E+02  0.00000000000E+00 0.  1.
<mgrwt>
<rscale>  0 0.50159600E+02</rscale>
<asrwt>0</asrwt>
<pdfrwt beam="1">  1        2 0.21456370E-01 0.50159600E+02</pdfrwt>
<pdfrwt beam="2">  1       -2 0.69384933E-03 0.50159600E+02</pdfrwt>
<totfact> 0.65174208E+05</totfact>
</mgrwt>
</event>
<event>
 4    1  0.2126213E+000  0.2990531E+02  0.7546771E-02  0.1599138E+00
         -2   -1    0    0    0  501 -0.00000000000E+00  0.00000000000E+00  0.82049918622E+01  0.82049918622E+01  0.00000000000E+00 0. -1.
          2   -1    0    0  501    0  0.00000000000E+00 -0.00000000000E+00 -0.27249488923E+02  0.27249488923E+02  0.00000000000E+00 0.  1.
        -11    1    1    2    0    0  0.43416255214E+01  0.93255211678E+01 -0.22387973760E+02  0.24638109228E+02  0.00000000000E+00 0.  1.
         11    1    1    2    0    0 -0.43416255214E+01 -0.93255211678E+01  0.33434766999E+01  0.10816371557E+02  0.00000000000E+00 0. -1.
<mgrwt>
<rscale>  0 0.29905306E+02</rscale>
<asrwt>0</asrwt>
<pdfrwt beam="2">  1        2 0.41922290E-02 0.29905306E+02</pdfrwt>
<pdfrwt beam="1">  1       -2 0.12623065E-02 0.29905306E+02</pdfrwt>
<totfact> 0.16835347E+06</totfact>
</mgrwt>
</event>
<event>
 4    1  0.2126213E+000  0.1681578E+03  0.7546771E-02  0.1179783E+00
         -4   -1    0    0    0  501 -0.00000000000E+00  0.00000000000E+00  0.58346427602E+02  0.58346427602E+02  0.00000000000E+00 0. -1.
          4   -1    0    0  501    0  0.00000000000E+00 -0.00000000000E+00 -0.12116015326E+03  0.12116015326E+03  0.00000000000E+00 0.  1.
        -13    1    1    2    0    0  0.20517767226E+02  0.58248518090E+02  0.29499838846E+02  0.68440551748E+02  0.00000000000E+00 0. -1.
         13    1    1    2    0    0 -0.20517767226E+02 -0.58248518090E+02 -0.92313564501E+02  0.11106602911E+03  0.00000000000E+00 0.  1.
<mgrwt>
<rscale>  0 0.16815781E+03</rscale>
<asrwt>0</asrwt>
<pdfrwt beam="2">  1        4 0.18640023E-01 0.16815781E+03</pdfrwt>
<pdfrwt beam="1">  1       -4 0.89763735E-02 0.16815781E+03</pdfrwt>
<totfact> 0.40081892E+03</totfact>
</mgrwt>
</event>
<event>
 4    1  0.2126213E+000  0.2760834E+02  0.7546771E-02  0.1626137E+00
         -4   -1    0    0    0  501 -0.00000000000E+00  0.00000000000E+00  0.45186473318E+01  0.45186473318E+01  0.00000000000E+00 0. -1.
          4   -1    0    0  501    0  0.00000000000E+00 -0.00000000000E+00 -0.42170832459E+02  0.42170832459E+02  0.00000000000E+00 0.  1.
        -13    1    1    2    0    0  0.11982392642E+02  0.49795994866E+01 -0.26790785663E+02  0.29767773530E+02  0.00000000000E+00 0.  1.
         13    1    1    2    0    0 -0.11982392642E+02 -0.49795994866E+01 -0.10861399465E+02  0.16921706261E+02  0.00000000000E+00 0. -1.
<mgrwt>
<rscale>  0 0.27608341E+02</rscale>
<asrwt>0</asrwt>
<pdfrwt beam="2">  1        4 0.64878207E-02 0.27608341E+02</pdfrwt>
<pdfrwt beam="1">  1       -4 0.69517648E-03 0.27608341E+02</pdfrwt>
<totfact> 0.58904340E+05</totfact>
</mgrwt>
</event>
<event>
 4    1  0.2126213E+000  0.3280258E+02  0.7546771E-02  0.1569027E+00
          2   -1    0    0  501    0  0.00000000000E+00  0.00000000000E+00  0.32767508993E+02  0.32767508993E+02  0.00000000000E+00 0.  1.
         -2   -1    0    0    0  501 -0.00000000000E+00 -0.00000000000E+00 -0.82094223393E+01  0.82094223393E+01  0.00000000000E+00 0. -1.
        -11    1    1    2    0    0  0.35730068163E+01  0.12679040570E+02  0.72778430356E-01  0.13173068898E+02  0.00000000000E+00 0. -1.
         11    1    1    2    0    0 -0.35730068163E+01 -0.12679040570E+02  0.24485308224E+02  0.27803862435E+02  0.00000000000E+00 0.  1.
<mgrwt>
<rscale>  0 0.32802580E+02</rscale>
<asrwt>0</asrwt>
<pdfrwt beam="1">  1        2 0.50411552E-02 0.32802580E+02</pdfrwt>
<pdfrwt beam="2">  1       -2 0.12629881E-02 0.32802580E+02</pdfrwt>
<totfact> 0.13775123E+06</totfact>
</mgrwt>
</event>
<event>
 4    1  0.2126213E+000  0.2972377E+02  0.7546771E-02  0.1601162E+00
          2   -1    0    0  501    0  0.00000000000E+00  0.00000000000E+00  0.32851347187E+02  0.32851347187E+02  0.00000000000E+00 0. -1.
         -2   -1    0    0    0  501 -0.00000000000E+00 -0.00000000000E+00 -0.67234865576E+01  0.67234865576E+01  0.00000000000E+00 0.  1.
        -13    1    1    2    0    0  0.30871925386E+01 -0.14231903981E+02  0.17013055168E+02  0.22394684522E+02  0.00000000000E+00 0. -1.
         13    1    1    2    0    0 -0.30871925386E+01  0.14231903981E+02  0.91148054608E+01  0.17180149222E+02  0.00000000000E+00 0.  1.
<mgrwt>
<rscale>  0 0.29723768E+02</rscale>
<asrwt>0</asrwt>
<pdfrwt beam="1">  1        2 0.50540533E-02 0.29723768E+02</pdfrwt>
<pdfrwt beam="2">  1       -2 0.10343826E-02 0.29723768E+02</pdfrwt>
<totfact> 0.17485464E+06</totfact>
</mgrwt>
</event>
<event>
 4    1  0.2126213E+000  0.7802876E+02  0.7546771E-02  0.1334740E+00
         -2   -1    0    0    0  501 -0.00000000000E+00  0.00000000000E+00  0.86832191400E+02  0.86832191400E+02  0.00000000000E+00 0.  1.
          2   -1    0    0  501    0  0.00000000000E+00 -0.00000000000E+00 -0.17529464545E+02  0.17529464545E+02  0.00000000000E+00 0. -1.
        -11    1    1    2    0    0  0.17211292342E+02  0.35012524649E+02  0.34480322844E+02  0.52067246229E+02  0.00000000000E+00 0. -1.
         11    1    1    2    0    0 -0.17211292342E+02 -0.35012524649E+02  0.34822404011E+02  0.52294409716E+02  0.00000000000E+00 0.  1.
<mgrwt>
<rscale>  0 0.78028759E+02</rscale>
<asrwt>0</asrwt>
<pdfrwt beam="2">  1        2 0.26968407E-02 0.78028759E+02</pdfrwt>
<pdfrwt beam="1">  1       -2 0.13358798E-01 0.78028759E+02</pdfrwt>
<totfact> 0.12220004E+05</totfact>
</mgrwt>
</event>
<event>
 4    1  0.2126213E+000  0.2376873E+02  0.7546771E-02  0.1679344E+00
          2   -1    0    0  501    0  0.00000000000E+00  0.00000000000E+00  0.93961402568E+01  0.93961402568E+01  0.00000000000E+00 0. -1.
         -2   -1    0    0    0  501 -0.00000000000E+00 -0.00000000000E+00 -0.15031501755E+02  0.15031501755E+02  0.00000000000E+00 0.  1.
        -13    1    1    2    0    0  0.37906486614E+01  0.10935785461E+02 -0.55901838036E+01  0.12853426620E+02  0.00000000000E+00 0.  1.
         13    1    1    2    0    0 -0.37906486614E+01 -0.10935785461E+02 -0.45177694557E-01  0.11574215392E+02  0.00000000000E+00 0. -1.
<mgrwt>
<rscale>  0 0.23768727E+02</rscale>
<asrwt>0</asrwt>
<pdfrwt beam="1">  1        2 0.14455601E-02 0.23768727E+02</pdfrwt>
<pdfrwt beam="2">  1       -2 0.23125387E-02 0.23768727E+02</pdfrwt>
<totfact> 0.26268159E+06</totfact>
</mgrwt>
</event>
<event>
 4    1  0.2126213E+000  0.2534001E+02  0.7546771E-02  0.1656166E+00
          4   -1    0    0  501    0  0.00000000000E+00  0.00000000000E+00  0.20609740032E+01  0.20609740032E+01  0.00000000000E+00 0.  1.
         -4   -1    0    0    0  501 -0.00000000000E+00 -0.00000000000E+00 -0.77889877166E+02  0.77889877166E+02  0.00000000000E+00 0. -1.
        -13    1    1    2    0    0 -0.15126248550E+01 -0.11189437296E+02 -0.19779361083E+02  0.22775308248E+02  0.00000000000E+00 0.  1.
         13    1    1    2    0    0  0.15126248550E+01  0.11189437296E+02 -0.56049542080E+02  0.57175542921E+02  0.00000000000E+00 0. -1.
<mgrwt>
<rscale>  0 0.25340009E+02</rscale>
<asrwt>0</asrwt>
<pdfrwt beam="1">  1        4 0.31707289E-03 0.25340009E+02</pdfrwt>
<pdfrwt beam="2">  1       -4 0.11983059E-01 0.25340009E+02</pdfrwt>
<totfact> 0.63693299E+05</totfact>
</mgrwt>
</event>
<event>
 4    1  0.2126213E+000  0.3618777E+02  0.7546771E-02  0.1538299E+00
         -2   -1    0    0    0  501 -0.00000000000E+00  0.00000000000E+00  0.42901255852E+02  0.42901255852E+02  0.00000000000E+00 0. -1.
          2   -1    0    0  501    0  0.00000000000E+00 -0.00000000000E+00 -0.76312141956E+01  0.76312141956E+01  0.00000000000E+00 0.  1.
        -11    1    1    2    0    0  0.24265724731E+01  0.17689706323E+02  0.13546008689E+02  0.22412235836E+02  0.00000000000E+00 0.  1.
         11    1    1    2    0    0 -0.24265724731E+01 -0.17689706323E+02  0.21724032967E+02  0.28120234212E+02  0.00000000000E+00 0. -1.
<mgrwt>
<rscale>  0 0.36187770E+02</rscale>
<asrwt>0</asrwt>
<pdfrwt beam="2">  1        2 0.11740330E-02 0.36187770E+02</pdfrwt>
<pdfrwt beam="1">  1       -2 0.66001931E-02 0.36187770E+02</pdfrwt>
<totfact> 0.89986269E+05</totfact>
</mgrwt>
</event>
<event>
 4    1  0.2126213E+000  0.2781187E+02  0.7546771E-02  0.1623616E+00
          3   -1    0    0  501    0  0.00000000000E+00  0.00000000000E+00  0.59997555191E+02  0.59997555191E+02  0.00000000000E+00 0. -1.
         -3   -1    0    0    0  501 -0.00000000000E+00 -0.00000000000E+00 -0.32230477481E+01  0.32230477481E+01  0.00000000000E+00 0.  1.
        -13    1    1    2    0    0  0.11886026215E+02  0.36502637673E+01  0.42541699197E+02  0.44321532186E+02  0.00000000000E+00 0. -1.
         13    1    1    2    0    0 -0.11886026215E+02 -0.36502637673E+01  0.14232808246E+02  0.18899070753E+02  0.00000000000E+00 0.  1.
<mgrwt>
<rscale>  0 0.27811867E+02</rscale>
<asrwt>0</asrwt>
<pdfrwt beam="1">  1        3 0.92303923E-02 0.27811867E+02</pdfrwt>
<pdfrwt beam="2">  1       -3 0.49585355E-03 0.27811867E+02</pdfrwt>
<totfact> 0.74980500E+05</totfact>
</mgrwt>
</event>
<event>
 4    1  0.2126213E+000  0.2012360E+02  0.7546771E-02  0.1742881E+00
         -2   -1    0    0    0  501 -0.00000000000E+00  0.00000000000E+00  0.18522922528E+01  0.18522922528E+01  0.00000000000E+00 0. -1.
          2   -1    0    0  501    0  0.00000000000E+00 -0.00000000000E+00 -0.54656523350E+02  0.54656523350E+02  0.00000000000E+00 0.  1.
        -11    1    1    2    0    0  0.61704724404E+00 -0.10034483583E+02 -0.25250297915E+02  0.27178100612E+02  0.00000000000E+00 0. -1.
         11    1    1    2    0    0 -0.61704724404E+00  0.10034483583E+02 -0.27553933182E+02  0.29330714991E+02  0.00000000000E+00 0.  1.
<mgrwt>
<rscale>  0 0.20123604E+02</rscale>
<asrwt>0</asrwt>
<pdfrwt beam="2">  1        2 0.84086957E-02 0.20123604E+02</pdfrwt>
<pdfrwt beam="1">  1       -2 0.28496804E-03 0.20123604E+02</pdfrwt>
<totfact> 0.46332662E+06</totfact>
</mgrwt>
</event>
<event>
 4    1  0.2126213E+000  0.3556642E+02  0.7546771E-02  0.1543627E+00
          2   -1    0    0  501    0  0.00000000000E+00  0.00000000000E+00  0.28055628078E+02  0.28055628078E+02  0.00000000000E+00 0. -1.
         -2   -1    0    0    0  501 -0.00000000000E+00 -0.00000000000E+00 -0.11271982408E+02  0.11271982408E+02  0.00000000000E+00 0.  1.
        -11    1    1    2    0    0 -0.13571488410E+02 -0.72439995594E+01  0.18256072886E+02  0.23873521409E+02  0.00000000000E+00 0. -1.
         11    1    1    2    0    0  0.13571488410E+02  0.72439995594E+01 -0.14724272157E+01  0.15454089077E+02  0.00000000000E+00 0.  1.
<mgrwt>
<rscale>  0 0.35566419E+02</rscale>
<asrwt>0</asrwt>
<pdfrwt beam="1">  1        2 0.43162504E-02 0.35566419E+02</pdfrwt>
<pdfrwt beam="2">  1       -2 0.17341512E-02 0.35566419E+02</pdfrwt>
<totfact> 0.11066261E+06</totfact>
</mgrwt>
</event>
<event>
 4    1  0.2126213E+000  0.3726540E+02  0.7546771E-02  0.1529357E+00
         -2   -1    0    0    0  501 -0.00000000000E+00  0.00000000000E+00  0.36452586586E+02  0.36452586586E+02  0.00000000000E+00 0.  1.
          2   -1    0    0  501    0  0.00000000000E+00 -0.00000000000E+00 -0.95240857968E+01  0.95240857968E+01  0.00000000000E+00 0. -1.
        -11    1    1    2    0    0  0.38939394093E+01  0.15092743578E+02  0.86875211194E+00  0.15611162771E+02  0.00000000000E+00 0. -1.
         11    1    1    2    0    0 -0.38939394093E+01 -0.15092743578E+02  0.26059748678E+02  0.30365509612E+02  0.00000000000E+00 0.  1.
<mgrwt>
<rscale>  0 0.37265403E+02</rscale>
<asrwt>0</asrwt>
<pdfrwt beam="2">  1        2 0.14652440E-02 0.37265403E+02</pdfrwt>
<pdfrwt beam="1">  1       -2 0.56080902E-02 0.37265403E+02</pdfrwt>
<totfact> 0.85940361E+05</totfact>
</mgrwt>
</event>
<event>
 4    1  0.2126213E+000  0.5355647E+02  0.7546771E-02  0.1427051E+00
         -2   -1    0    0    0  501 -0.00000000000E+00  0.00000000000E+00  0.15410744599E+03  0.15410744599E+03  0.00000000000E+00 0.  1.
          2   -1    0    0  501    0  0.00000000000E+00 -0.00000000000E+00 -0.46530777064E+01  0.46530777064E+01  0.00000000000E+00 0. -1.
        -13    1    1    2    0    0 -0.11297975124E+02  0.24238684128E+02  0.78830299358E+02  0.83242862439E+02  0.00000000000E+00 0. -1.
         13    1    1    2    0    0  0.11297975124E+02 -0.24238684128E+02  0.70624068923E+02  0.75517661255E+02  0.00000000000E+00 0.  1.
<mgrwt>
<rscale>  0 0.53556472E+02</rscale>
<asrwt>0</asrwt>
<pdfrwt beam="2">  1        2 0.71585823E-03 0.53556472E+02</pdfrwt>
<pdfrwt beam="1">  1       -2 0.23708834E-01 0.53556472E+02</pdfrwt>
<totfact> 0.26254133E+05</totfact>
</mgrwt>
</event>
<event>
 4    1  0.2126213E+000  0.2155199E+02  0.7546771E-02  0.1716117E+00
          2   -1    0    0  501    0  0.00000000000E+00  0.00000000000E+00  0.25154513075E+02  0.25154513075E+02  0.00000000000E+00 0. -1.
         -2   -1    0    0    0  501 -0.00000000000E+00 -0.00000000000E+00 -0.46163501724E+01  0.46163501724E+01  0.00000000000E+00 0.  1.
        -13    1    1    2    0    0 -0.10072129136E+02  0.95078015422E+00  0.15395043307E+02  0.18421702600E+02  0.00000000000E+00 0. -1.
         13    1    1    2    0    0  0.10072129136E+02 -0.95078015422E+00  0.51431195957E+01  0.11349160648E+02  0.00000000000E+00 0.  1.
<mgrwt>
<rscale>  0 0.21551987E+02</rscale>
<asrwt>0</asrwt>
<pdfrwt beam="1">  1        2 0.38699250E-02 0.21551987E+02</pdfrwt>
<pdfrwt beam="2">  1       -2 0.71020773E-03 0.21551987E+02</pdfrwt>
<totfact> 0.35951782E+06</totfact>
</mgrwt>
</event>
<event>
 4    1  0.2126213E+000  0.9216948E+02  0.7546771E-02  0.1297681E+00
         -2   -1    0    0    0  501 -0.00000000000E+00  0.00000000000E+00  0.27047253141E+02  0.27047253141E+02  0.00000000000E+00 0.  1.
          2   -1    0    0  501    0  0.00000000000E+00 -0.00000000000E+00 -0.78521952169E+02  0.78521952169E+02  0.00000000000E+00 0. -1.
        -11    1    1    2    0    0  0.41553193560E+00  0.45806694740E+02 -0.19967404104E+02  0.49971223484E+02  0.00000000000E+00 0.  1.
         11    1    1    2    0    0 -0.41553193560E+00 -0.45806694740E+02 -0.31507294923E+02  0.55597981827E+02  0.00000000000E+00 0. -1.
<mgrwt>
<rscale>  0 0.92169477E+02</rscale>
<asrwt>0</asrwt>
<pdfrwt beam="2">  1        2 0.12080300E-01 0.92169477E+02</pdfrwt>
<pdfrwt beam="1">  1       -2 0.41611159E-02 0.92169477E+02</pdfrwt>
<totfact> 0.11085031E+05</totfact>
</mgrwt>
</event>
<event>
 4    1  0.2126213E+000  0.5931816E+02  0.7546771E-02  0.1400716E+00
          2   -1    0    0  501    0  0.00000000000E+00  0.00000000000E+00  0.10285107577E+02  0.10285107577E+02  0.00000000000E+00 0.  1.
         -2   -1    0    0    0  501 -0.00000000000E+00 -0.00000000000E+00 -0.85527631575E+02  0.85527631575E+02  0.00000000000E+00 0. -1.
        -11    1    1    2    0    0  0.21132915980E+02  0.16191150078E+02 -0.58737476668E+02  0.64489104847E+02  0.00000000000E+00 0.  1.
         11    1    1    2    0    0 -0.21132915980E+02 -0.16191150078E+02 -0.16505047330E+02  0.31323634304E+02  0.00000000000E+00 0. -1.
<mgrwt>
<rscale>  0 0.59318155E+02</rscale>
<asrwt>0</asrwt>
<pdfrwt beam="1">  1        2 0.15823242E-02 0.59318155E+02</pdfrwt>
<pdfrwt beam="2">  1       -2 0.13158097E-01 0.59318155E+02</pdfrwt>
<totfact> 0.24129985E+05</totfact>
</mgrwt>
</event>
<event>
 4    1  0.2126213E+000  0.4477291E+02  0.7546771E-02  0.1475764E+00
         -2   -1    0    0    0  501 -0.00000000000E+00  0.00000000000E+00  0.28538299013E+01  0.28538299013E+01  0.00000000000E+00 0.  1.
          2   -1    0    0  501    0  0.00000000000E+00 -0.00000000000E+00 -0.17560731823E+03  0.17560731823E+03  0.00000000000E+00 0. -1.
        -11    1    1    2    0    0  0.13396597232E+02  0.17206330190E+02 -0.10655462377E+03  0.10876311169E+03  0.00000000000E+00 0. -1.
         11    1    1    2    0    0 -0.13396597232E+02 -0.17206330190E+02 -0.66198864554E+02  0.69698036445E+02  0.00000000000E+00 0.  1.
<mgrwt>
<rscale>  0 0.44772912E+02</rscale>
<asrwt>0</asrwt>
<pdfrwt beam="2">  1        2 0.27016515E-01 0.44772912E+02</pdfrwt>
<pdfrwt beam="1">  1       -2 0.43905068E-03 0.44772912E+02</pdfrwt>
<totfact> 0.92891381E+05</totfact>
</mgrwt>
</event>
<event>
 4    1  0.2126213E+000  0.2454908E+02  0.7546771E-02  0.1667564E+00
         -4   -1    0    0    0  501 -0.00000000000E+00  0.00000000000E+00  0.26731775486E+02  0.26731775486E+02  0.00000000000E+00 0. -1.
          4   -1    0    0  501    0  0.00000000000E+00 -0.00000000000E+00 -0.56361498643E+01  0.56361498643E+01  0.00000000000E+00 0.  1.
        -11    1    1    2    0    0  0.99598917509E+01  0.42972198458E+01  0.18121867706E+02  0.21120313237E+02  0.00000000000E+00 0. -1.
         11    1    1    2    0    0 -0.99598917509E+01 -0.42972198458E+01  0.29737579153E+01  0.11247612112E+02  0.00000000000E+00 0.  1.
<mgrwt>
<rscale>  0 0.24549077E+02</rscale>
<asrwt>0</asrwt>
<pdfrwt beam="2">  1        4 0.86709999E-03 0.24549077E+02</pdfrwt>
<pdfrwt beam="1">  1       -4 0.41125808E-02 0.24549077E+02</pdfrwt>
<totfact> 0.80284366E+05</totfact>
</mgrwt>
</event>
<event>
 4    1  0.2126213E+000  0.3317796E+02  0.7546771E-02  0.1565403E+00
          2   -1    0    0  501    0  0.00000000000E+00  0.00000000000E+00  0.11648093487E+03  0.11648093487E+03  0.00000000000E+00 0. -1.
         -2   -1    0    0    0  501 -0.00000000000E+00 -0.00000000000E+00 -0.23625694957E+01  0.23625694957E+01  0.00000000000E+00 0.  1.
        -11    1    1    2    0    0  0.14801179876E+02  0.66719215065E+01  0.44856780482E+02  0.47704509404E+02  0.00000000000E+00 0.  1.
         11    1    1    2    0    0 -0.14801179876E+02 -0.66719215065E+01  0.69261584896E+02  0.71138994965E+02  0.00000000000E+00 0. -1.
<mgrwt>
<rscale>  0 0.33177963E+02</rscale>
<asrwt>0</asrwt>
<pdfrwt beam="1">  1        2 0.17920139E-01 0.33177963E+02</pdfrwt>
<pdfrwt beam="2">  1       -2 0.36347232E-03 0.33177963E+02</pdfrwt>
<totfact> 0.17093461E+06</totfact>
</mgrwt>
</event>
<event>
 4    1  0.2126213E+000  0.2010440E+02  0.7546771E-02  0.1743260E+00
          2   -1    0    0  501    0  0.00000000000E+00  0.00000000000E+00  0.20226081549E+01  0.20226081549E+01  0.00000000000E+00 0.  1.
         -2   -1    0    0    0  501 -0.00000000000E+00 -0.00000000000E+00 -0.49958625381E+02  0.49958625381E+02  0.00000000000E+00 0. -1.
        -11    1    1    2    0    0  0.44594487186E+00  0.10033795812E+02 -0.25036563156E+02  0.26976015641E+02  0.00000000000E+00 0.  1.
         11    1    1    2    0    0 -0.44594487186E+00 -0.10033795812E+02 -0.22899454070E+02  0.25005217894E+02  0.00000000000E+00 0. -1.
<mgrwt>
<rscale>  0 0.20104400E+02</rscale>
<asrwt>0</asrwt>
<pdfrwt beam="1">  1        2 0.31117050E-03 0.20104400E+02</pdfrwt>
<pdfrwt beam="2">  1       -2 0.76859419E-02 0.20104400E+02</pdfrwt>
<totfact> 0.33519119E+06</totfact>
</mgrwt>
</event>
<event>
 4    1  0.2126213E+000  0.3373731E+02  0.7546771E-02  0.1560108E+00
         -1   -1    0    0    0  501 -0.00000000000E+00  0.00000000000E+00  0.55431934322E+02  0.55431934322E+02  0.00000000000E+00 0. -1.
          1   -1    0    0  501    0  0.00000000000E+00 -0.00000000000E+00 -0.51333491605E+01  0.51333491605E+01  0.00000000000E+00 0.  1.
        -13    1    1    2    0    0  0.74903382388E+00 -0.15782901503E+02  0.14545369354E+02  0.21476238060E+02  0.00000000000E+00 0.  1.
         13    1    1    2    0    0 -0.74903382388E+00  0.15782901503E+02  0.35753215807E+02  0.39089045423E+02  0.00000000000E+00 0. -1.
<mgrwt>
<rscale>  0 0.33737307E+02</rscale>
<asrwt>0</asrwt>
<pdfrwt beam="2">  1        1 0.78974606E-03 0.33737307E+02</pdfrwt>
<pdfrwt beam="1">  1       -1 0.85279895E-02 0.33737307E+02</pdfrwt>
<totfact> 0.10450594E+06</totfact>
</mgrwt>
</event>
<event>
 4    1  0.2126213E+000  0.3603300E+02  0.7546771E-02  0.1539614E+00
         -2   -1    0    0    0  501 -0.00000000000E+00  0.00000000000E+00  0.45588218851E+02  0.45588218851E+02  0.00000000000E+00 0. -1.
          2   -1    0    0  501    0  0.00000000000E+00 -0.00000000000E+00 -0.71201362344E+01  0.71201362344E+01  0.00000000000E+00 0.  1.
        -11    1    1    2    0    0  0.14515546465E+01  0.16472999316E+02  0.87746416997E+01  0.18720605074E+02  0.00000000000E+00 0.  1.
         11    1    1    2    0    0 -0.14515546465E+01 -0.16472999316E+02  0.29693440916E+02  0.33987750011E+02  0.00000000000E+00 0. -1.
<mgrwt>
<rscale>  0 0.36033003E+02</rscale>
<asrwt>0</asrwt>
<pdfrwt beam="2">  1        2 0.10954056E-02 0.36033003E+02</pdfrwt>
<pdfrwt beam="1">  1       -2 0.70135720E-02 0.36033003E+02</pdfrwt>
<totfact> 0.90092589E+05</totfact>
</mgrwt>
</event>
<event>
 4    1  0.2126213E+000  0.2923865E+02  0.7546771E-02  0.1606660E+00
          2   -1    0    0  501    0  0.00000000000E+00  0.00000000000E+00  0.28376858479E+02  0.28376858479E+02  0.00000000000E+00 0.  1.
         -2   -1    0    0    0  501 -0.00000000000E+00 -0.00000000000E+00 -0.75316548210E+01  0.75316548210E+01  0.00000000000E+00 0. -1.
        -11    1    1    2    0    0  0.12010348551E+02 -0.51778191486E+01  0.24005924115E+01  0.13297410552E+02  0.00000000000E+00 0. -1.
         11    1    1    2    0    0 -0.12010348551E+02  0.51778191486E+01  0.18444611247E+02  0.22611102748E+02  0.00000000000E+00 0.  1.
<mgrwt>
<rscale>  0 0.29238653E+02</rscale>
<asrwt>0</asrwt>
<pdfrwt beam="1">  1        2 0.43656705E-02 0.29238653E+02</pdfrwt>
<pdfrwt beam="2">  1       -2 0.11587161E-02 0.29238653E+02</pdfrwt>
<totfact> 0.17858891E+06</totfact>
</mgrwt>
</event>
<event>
 4    1  0.2126213E+000  0.2082726E+02  0.7546771E-02  0.1729360E+00
          4   -1    0    0  501    0  0.00000000000E+00  0.00000000000E+00  0.10739257958E+03  0.10739257958E+03  0.00000000000E+00 0. -1.
         -4   -1    0    0    0  501 -0.00000000000E+00 -0.00000000000E+00 -0.10097872741E+01  0.10097872741E+01  0.00000000000E+00 0.  1.
        -11    1    1    2    0    0  0.11583885991E+01  0.10348880105E+02  0.52932374681E+02  0.53946987617E+02  0.00000000000E+00 0. -1.
         11    1    1    2    0    0 -0.11583885991E+01 -0.10348880105E+02  0.53450417621E+02  0.54455379233E+02  0.00000000000E+00 0.  1.
<mgrwt>
<rscale>  0 0.20827257E+02</rscale>
<asrwt>0</asrwt>
<pdfrwt beam="1">  1        4 0.16521926E-01 0.20827257E+02</pdfrwt>
<pdfrwt beam="2">  1       -4 0.15535197E-03 0.20827257E+02</pdfrwt>
<totfact> 0.88199401E+05</totfact>
</mgrwt>
</event>
<event>
 4    1  0.2126213E+000  0.5063385E+02  0.7546771E-02  0.1441952E+00
          2   -1    0    0  501    0  0.00000000000E+00  0.00000000000E+00  0.70691077363E+01  0.70691077363E+01  0.00000000000E+00 0. -1.
         -2   -1    0    0    0  501 -0.00000000000E+00 -0.00000000000E+00 -0.90668681965E+02  0.90668681965E+02  0.00000000000E+00 0.  1.
        -13    1    1    2    0    0  0.20747760481E+02  0.11412721699E+02 -0.24510321484E+02  0.34080428999E+02  0.00000000000E+00 0. -1.
         13    1    1    2    0    0 -0.20747760481E+02 -0.11412721699E+02 -0.59089252745E+02  0.63657360702E+02  0.00000000000E+00 0.  1.
<mgrwt>
<rscale>  0 0.50633850E+02</rscale>
<asrwt>0</asrwt>
<pdfrwt beam="1">  1        2 0.10875551E-02 0.50633850E+02</pdfrwt>
<pdfrwt beam="2">  1       -2 0.13949028E-01 0.50633850E+02</pdfrwt>
<totfact> 0.35062598E+05</totfact>
</mgrwt>
</event>
<event>
 4    1  0.2126213E+000  0.2807770E+02  0.7546771E-02  0.1620364E+00
          2   -1    0    0  501    0  0.00000000000E+00  0.00000000000E+00  0.61738967411E+02  0.61738967411E+02  0.00000000000E+00 0. -1.
         -2   -1    0    0    0  501 -0.00000000000E+00 -0.00000000000E+00 -0.31922995303E+01  0.31922995303E+01  0.00000000000E+00 0.  1.
        -13    1    1    2    0    0 -0.40968461818E+01 -0.98359770360E+01  0.50412515977E+02  0.51526229825E+02  0.00000000000E+00 0. -1.
         13    1    1    2    0    0  0.40968461818E+01  0.98359770360E+01  0.81341519040E+01  0.13405037116E+02  0.00000000000E+00 0.  1.
<mgrwt>
<rscale>  0 0.28077698E+02</rscale>
<asrwt>0</asrwt>
<pdfrwt beam="1">  1        2 0.94983018E-02 0.28077698E+02</pdfrwt>
<pdfrwt beam="2">  1       -2 0.49112305E-03 0.28077698E+02</pdfrwt>
<totfact> 0.22057476E+06</totfact>
</mgrwt>
</event>
<event>
 4    1  0.2126213E+000  0.2421673E+02  0.7546771E-02  0.1672514E+00
         -3   -1    0    0    0  501 -0.00000000000E+00  0.00000000000E+00  0.10322640848E+03  0.10322640848E+03  0.00000000000E+00 0.  1.
          3   -1    0    0  501    0  0.00000000000E+00 -0.00000000000E+00 -0.14203004842E+01  0.14203004842E+01  0.00000000000E+00 0. -1.
        -11    1    1    2    0    0  0.10688984078E+02  0.40283364007E+01  0.33547603352E+02  0.35439011914E+02  0.00000000000E+00 0. -1.
         11    1    1    2    0    0 -0.10688984078E+02 -0.40283364007E+01  0.68258504643E+02  0.69207697049E+02  0.00000000000E+00 0.  1.
<mgrwt>
<rscale>  0 0.24216731E+02</rscale>
<asrwt>0</asrwt>
<pdfrwt beam="2">  1        3 0.21850785E-03 0.24216731E+02</pdfrwt>
<pdfrwt beam="1">  1       -3 0.15880980E-01 0.24216731E+02</pdfrwt>
<totfact> 0.92235195E+05</totfact>
</mgrwt>
</event>
<event>
 4    1  0.2126213E+000  0.2757813E+02  0.7546771E-02  0.1626513E+00
          2   -1    0    0  501    0  0.00000000000E+00  0.00000000000E+00  0.52639874804E+02  0.52639874804E+02  0.00000000000E+00 0.  1.
         -2   -1    0    0    0  501 -0.00000000000E+00 -0.00000000000E+00 -0.36120573405E+01  0.36120573405E+01  0.00000000000E+00 0. -1.
        -13    1    1    2    0    0  0.13285914587E+02 -0.36772795245E+01  0.23867809663E+02  0.27562841820E+02  0.00000000000E+00 0. -1.
         13    1    1    2    0    0 -0.13285914587E+02  0.36772795245E+01  0.25160007801E+02  0.28689090325E+02  0.00000000000E+00 0.  1.
<mgrwt>
<rscale>  0 0.27578125E+02</rscale>
<asrwt>0</asrwt>
<pdfrwt beam="1">  1        2 0.80984417E-02 0.27578125E+02</pdfrwt>
<pdfrwt beam="2">  1       -2 0.55570117E-03 0.27578125E+02</pdfrwt>
<totfact> 0.22377682E+06</totfact>
</mgrwt>
</event>
<event>
 4    1  0.2126213E+000  0.3216349E+02  0.7546771E-02  0.1575336E+00
          2   -1    0    0  501    0  0.00000000000E+00  0.00000000000E+00  0.35686786629E+02  0.35686786629E+02  0.00000000000E+00 0.  1.
         -2   -1    0    0    0  501 -0.00000000000E+00 -0.00000000000E+00 -0.72470086209E+01  0.72470086209E+01  0.00000000000E+00 0. -1.
        -13    1    1    2    0    0  0.12189908246E+02 -0.24854461782E+00  0.22185664270E+00  0.12194460129E+02  0.00000000000E+00 0. -1.
         13    1    1    2    0    0 -0.12189908246E+02  0.24854461782E+00  0.28217921366E+02  0.30739335121E+02  0.00000000000E+00 0.  1.
<mgrwt>
<rscale>  0 0.32163486E+02</rscale>
<asrwt>0</asrwt>
<pdfrwt beam="1">  1        2 0.54902748E-02 0.32163486E+02</pdfrwt>
<pdfrwt beam="2">  1       -2 0.11149244E-02 0.32163486E+02</pdfrwt>
<totfact> 0.14618774E+06</totfact>
</mgrwt>
</event>
<event>
 4    1  0.2126213E+000  0.4522120E+02  0.7546771E-02  0.1472965E+00
         -2   -1    0    0    0  501 -0.00000000000E+00  0.00000000000E+00  0.16065923328E+02  0.16065923328E+02  0.00000000000E+00 0.  1.
          2   -1    0    0  501    0  0.00000000000E+00 -0.00000000000E+00 -0.31821336854E+02  0.31821336854E+02  0.00000000000E+00 0. -1.
        -13    1    1    2    0    0  0.87630483960E+01 -0.10673268104E+02 -0.26836554314E+02  0.30181290838E+02  0.00000000000E+00 0. -1.
         13    1    1    2    0    0 -0.87630483960E+01  0.10673268104E+02  0.11081140789E+02  0.17705969344E+02  0.00000000000E+00 0.  1.
<mgrwt>
<rscale>  0 0.45221197E+02</rscale>
<asrwt>0</asrwt>
<pdfrwt beam="2">  1        2 0.48955903E-02 0.45221197E+02</pdfrwt>
<pdfrwt beam="1">  1       -2 0.24716805E-02 0.45221197E+02</pdfrwt>
<totfact> 0.61475308E+05</totfact>
</mgrwt>
</event>
<event>
 4    1  0.2126213E+000  0.9923997E+02  0.7546771E-02  0.1281902E+00
          2   -1    0    0  501    0  0.00000000000E+00  0.00000000000E+00  0.43279486117E+02  0.43279486117E+02  0.00000000000E+00 0. -1.
         -2   -1    0    0    0  501 -0.00000000000E+00 -0.00000000000E+00 -0.56889370599E+02  0.56889370599E+02  0.00000000000E+00 0.  1.
        -11    1    1    2    0    0 -0.21278583861E+02 -0.37377502482E+02  0.18171098474E+02  0.46690948188E+02  0.00000000000E+00 0. -1.
         11    1    1    2    0    0  0.21278583861E+02  0.37377502482E+02 -0.31780982956E+02  0.53477908529E+02  0.00000000000E+00 0.  1.
<mgrwt>
<rscale>  0 0.99239966E+02</rscale>
<asrwt>0</asrwt>
<pdfrwt beam="1">  1        2 0.66583825E-02 0.99239966E+02</pdfrwt>
<pdfrwt beam="2">  1       -2 0.87522109E-02 0.99239966E+02</pdfrwt>
<totfact> 0.76088316E+04</totfact>
</mgrwt>
</event>
<event>
 4    1  0.2126213E+000  0.2763831E+02  0.7546771E-02  0.1625764E+00
         -2   -1    0    0    0  501 -0.00000000000E+00  0.00000000000E+00  0.23516931573E+01  0.23516931573E+01  0.00000000000E+00 0. -1.
          2   -1    0    0  501    0  0.00000000000E+00 -0.00000000000E+00 -0.81204904732E+02  0.81204904732E+02  0.00000000000E+00 0.  1.
        -13    1    1    2    0    0  0.13172989523E+02 -0.50494069710E-01 -0.52051501362E+02  0.53692541351E+02  0.00000000000E+00 0.  1.
         13    1    1    2    0    0 -0.13172989523E+02  0.50494069710E-01 -0.26801710212E+02  0.29864056538E+02  0.00000000000E+00 0. -1.
<mgrwt>
<rscale>  0 0.27638308E+02</rscale>
<asrwt>0</asrwt>
<pdfrwt beam="2">  1        2 0.12493064E-01 0.27638308E+02</pdfrwt>
<pdfrwt beam="1">  1       -2 0.36179891E-03 0.27638308E+02</pdfrwt>
<totfact> 0.24161872E+06</totfact>
</mgrwt>
</event>
<event>
 4    1  0.2126213E+000  0.4849620E+02  0.7546771E-02  0.1453626E+00
         -1   -1    0    0    0  501 -0.00000000000E+00  0.00000000000E+00  0.40171219044E+01  0.40171219044E+01  0.00000000000E+00 0.  1.
          1   -1    0    0  501    0  0.00000000000E+00 -0.00000000000E+00 -0.14636606446E+03  0.14636606446E+03  0.00000000000E+00 0. -1.
        -13    1    1    2    0    0 -0.14147338789E+02  0.19559299328E+02 -0.78284281927E+02  0.81921561154E+02  0.00000000000E+00 0. -1.
         13    1    1    2    0    0  0.14147338789E+02 -0.19559299328E+02 -0.64064660627E+02  0.68461625209E+02  0.00000000000E+00 0.  1.
<mgrwt>
<rscale>  0 0.48496199E+02</rscale>
<asrwt>0</asrwt>
<pdfrwt beam="2">  1        1 0.22517856E-01 0.48496199E+02</pdfrwt>
<pdfrwt beam="1">  1       -1 0.61801877E-03 0.48496199E+02</pdfrwt>
<totfact> 0.57621169E+05</totfact>
</mgrwt>
</event>
<event>
 4    1  0.2126213E+000  0.3570074E+02  0.7546771E-02  0.1542464E+00
          3   -1    0    0  501    0  0.00000000000E+00  0.00000000000E+00  0.71680603423E+01  0.71680603423E+01  0.00000000000E+00 0.  1.
         -3   -1    0    0    0  501 -0.00000000000E+00 -0.00000000000E+00 -0.44452162911E+02  0.44452162911E+02  0.00000000000E+00 0. -1.
        -13    1    1    2    0    0  0.15252170520E+02  0.59338981673E+01 -0.83368357616E+01  0.18366890960E+02  0.00000000000E+00 0.  1.
         13    1    1    2    0    0 -0.15252170520E+02 -0.59338981673E+01 -0.28947266807E+02  0.33253332293E+02  0.00000000000E+00 0. -1.
<mgrwt>
<rscale>  0 0.35700744E+02</rscale>
<asrwt>0</asrwt>
<pdfrwt beam="1">  1        3 0.11027785E-02 0.35700744E+02</pdfrwt>
<pdfrwt beam="2">  1       -3 0.68387943E-02 0.35700744E+02</pdfrwt>
<totfact> 0.43136587E+05</totfact>
</mgrwt>
</event>
<event>
 4    1  0.2126213E+000  0.2581777E+02  0.7546771E-02  0.1649526E+00
          2   -1    0    0  501    0  0.00000000000E+00  0.00000000000E+00  0.39262331401E+01  0.39262331401E+01  0.00000000000E+00 0.  1.
         -2   -1    0    0    0  501 -0.00000000000E+00 -0.00000000000E+00 -0.42442555986E+02  0.42442555986E+02  0.00000000000E+00 0. -1.
        -13    1    1    2    0    0  0.10289159427E+02  0.68839065347E+01 -0.25828781993E+02  0.28642293032E+02  0.00000000000E+00 0. -1.
         13    1    1    2    0    0 -0.10289159427E+02 -0.68839065347E+01 -0.12687540853E+02  0.17726496094E+02  0.00000000000E+00 0.  1.
<mgrwt>
<rscale>  0 0.25817774E+02</rscale>
<asrwt>0</asrwt>
<pdfrwt beam="1">  1        2 0.60403584E-03 0.25817774E+02</pdfrwt>
<pdfrwt beam="2">  1       -2 0.65296243E-02 0.25817774E+02</pdfrwt>
<totfact> 0.19632001E+06</totfact>
</mgrwt>
</event>
<event>
 4    1  0.2126213E+000  0.7991664E+02  0.7546771E-02  0.1329288E+00
          2   -1    0    0  501    0  0.00000000000E+00  0.00000000000E+00  0.77759592381E+01  0.77759592381E+01  0.00000000000E+00 0. -1.
         -2   -1    0    0    0  501 -0.00000000000E+00 -0.00000000000E+00 -0.20533382068E+03  0.20533382068E+03  0.00000000000E+00 0.  1.
        -11    1    1    2    0    0  0.33924555297E+02  0.12473639039E+02 -0.14420603766E+03  0.14866690425E+03  0.00000000000E+00 0. -1.
         11    1    1    2    0    0 -0.33924555297E+02 -0.12473639039E+02 -0.53351823785E+02  0.64442875667E+02  0.00000000000E+00 0.  1.
<mgrwt>
<rscale>  0 0.79916642E+02</rscale>
<asrwt>0</asrwt>
<pdfrwt beam="1">  1        2 0.11963015E-02 0.79916642E+02</pdfrwt>
<pdfrwt beam="2">  1       -2 0.31589816E-01 0.79916642E+02</pdfrwt>
<totfact> 0.86200310E+04</totfact>
</mgrwt>
</event>
<event>
 4    1  0.2126213E+000  0.3958548E+02  0.7546771E-02  0.1511284E+00
          1   -1    0    0  501    0  0.00000000000E+00  0.00000000000E+00  0.69164096892E+01  0.69164096892E+01  0.00000000000E+00 0. -1.
         -1   -1    0    0    0  501 -0.00000000000E+00 -0.00000000000E+00 -0.56641015692E+02  0.56641015692E+02  0.00000000000E+00 0.  1.
        -11    1    1    2    0    0  0.17733633900E+02 -0.79869163017E+01 -0.18967446689E+02  0.27166829723E+02  0.00000000000E+00 0. -1.
         11    1    1    2    0    0 -0.17733633900E+02  0.79869163017E+01 -0.30757159313E+02  0.36390595657E+02  0.00000000000E+00 0.  1.
<mgrwt>
<rscale>  0 0.39585476E+02</rscale>
<asrwt>0</asrwt>
<pdfrwt beam="1">  1        1 0.10640630E-02 0.39585476E+02</pdfrwt>
<pdfrwt beam="2">  1       -1 0.87140027E-02 0.39585476E+02</pdfrwt>
<totfact> 0.71168174E+05</totfact>
</mgrwt>
</event>
<event>
 4    1  0.2126213E+000  0.2338747E+02  0.7546771E-02  0.1685305E+00
          2   -1    0    0  501    0  0.00000000000E+00  0.00000000000E+00  0.17860268709E+02  0.17860268709E+02  0.00000000000E+00 0. -1.
         -2   -1    0    0    0  501 -0.00000000000E+00 -0.00000000000E+00 -0.76562951076E+01  0.76562951076E+01  0.00000000000E+00 0.  1.
        -11    1    1    2    0    0  0.10780687896E+02 -0.39728881615E+01  0.27275326353E+01  0.11808747018E+02  0.00000000000E+00 0.  1.
         11    1    1    2    0    0 -0.10780687896E+02  0.39728881615E+01  0.74764409658E+01  0.13707816798E+02  0.00000000000E+00 0. -1.
<mgrwt>
<rscale>  0 0.23387474E+02</rscale>
<asrwt>0</asrwt>
<pdfrwt beam="1">  1        2 0.27477336E-02 0.23387474E+02</pdfrwt>
<pdfrwt beam="2">  1       -2 0.11778916E-02 0.23387474E+02</pdfrwt>
<totfact> 0.28827692E+06</totfact>
</mgrwt>
</event>
<event>
 4    1  0.2126213E+000  0.3602900E+02  0.7546771E-02  0.1539648E+00
         -4   -1    0    0    0  501 -0.00000000000E+00  0.00000000000E+00  0.35838029632E+01  0.35838029632E+01  0.00000000000E+00 0.  1.
          4   -1    0    0  501    0  0.00000000000E+00 -0.00000000000E+00 -0.90552476670E+02  0.90552476670E+02  0.00000000000E+00 0. -1.
        -11    1    1    2    0    0 -0.15799347806E+02  0.28666391360E+01 -0.22148012209E+02  0.27356378705E+02  0.00000000000E+00 0.  1.
         11    1    1    2    0    0  0.15799347806E+02 -0.28666391360E+01 -0.64820661497E+02  0.66779900928E+02  0.00000000000E+00 0. -1.
<mgrwt>
<rscale>  0 0.36029001E+02</rscale>
<asrwt>0</asrwt>
<pdfrwt beam="2">  1        4 0.13931150E-01 0.36029001E+02</pdfrwt>
<pdfrwt beam="1">  1       -4 0.55135432E-03 0.36029001E+02</pdfrwt>
<totfact> 0.27857911E+05</totfact>
</mgrwt>
</event>
<event>
 4    1  0.2126213E+000  0.2773612E+02  0.7546771E-02  0.1624551E+00
         -2   -1    0    0    0  501 -0.00000000000E+00  0.00000000000E+00  0.72732226959E+01  0.72732226959E+01  0.00000000000E+00 0. -1.
          2   -1    0    0  501    0  0.00000000000E+00 -0.00000000000E+00 -0.26442623201E+02  0.26442623201E+02  0.00000000000E+00 0.  1.
        -13    1    1    2    0    0  0.16611563716E+01  0.13744786673E+02 -0.10560577317E+02  0.17412765272E+02  0.00000000000E+00 0.  1.
         13    1    1    2    0    0 -0.16611563716E+01 -0.13744786673E+02 -0.86088231881E+01  0.16303080625E+02  0.00000000000E+00 0. -1.
<mgrwt>
<rscale>  0 0.27736120E+02</rscale>
<asrwt>0</asrwt>
<pdfrwt beam="2">  1        2 0.40680958E-02 0.27736120E+02</pdfrwt>
<pdfrwt beam="1">  1       -2 0.11189574E-02 0.27736120E+02</pdfrwt>
<totfact> 0.20086730E+06</totfact>
</mgrwt>
</event>
<event>
 4    1  0.2126213E+000  0.2090569E+02  0.7546771E-02  0.1727895E+00
         -2   -1    0    0    0  501 -0.00000000000E+00  0.00000000000E+00  0.15266757250E+02  0.15266757250E+02  0.00000000000E+00 0. -1.
          2   -1    0    0  501    0  0.00000000000E+00 -0.00000000000E+00 -0.71568564620E+01  0.71568564620E+01  0.00000000000E+00 0.  1.
        -13    1    1    2    0    0  0.90867135795E+01 -0.51057026174E+01  0.49032113952E+01  0.11518595612E+02  0.00000000000E+00 0. -1.
         13    1    1    2    0    0 -0.90867135795E+01  0.51057026174E+01  0.32066893929E+01  0.10905018100E+02  0.00000000000E+00 0.  1.
<mgrwt>
<rscale>  0 0.20905692E+02</rscale>
<asrwt>0</asrwt>
<pdfrwt beam="2">  1        2 0.11010548E-02 0.20905692E+02</pdfrwt>
<pdfrwt beam="1">  1       -2 0.23487319E-02 0.20905692E+02</pdfrwt>
<totfact> 0.34743085E+06</totfact>
</mgrwt>
</event>
<event>
 4    1  0.2126213E+000  0.2308902E+02  0.7546771E-02  0.1690071E+00
         -2   -1    0    0    0  501 -0.00000000000E+00  0.00000000000E+00  0.11215928175E+02  0.11215928175E+02  0.00000000000E+00 0. -1.
          2   -1    0    0  501    0  0.00000000000E+00 -0.00000000000E+00 -0.11882719087E+02  0.11882719087E+02  0.00000000000E+00 0.  1.
        -13    1    1    2    0    0 -0.21395796082E+01 -0.11221344624E+02 -0.20012281006E+01  0.11597469119E+02  0.00000000000E+00 0.  1.
         13    1    1    2    0    0  0.21395796082E+01  0.11221344624E+02  0.13344371891E+01  0.11501178143E+02  0.00000000000E+00 0. -1.
<mgrwt>
<rscale>  0 0.23089021E+02</rscale>
<asrwt>0</asrwt>
<pdfrwt beam="2">  1        2 0.18281106E-02 0.23089021E+02</pdfrwt>
<pdfrwt beam="1">  1       -2 0.17255274E-02 0.23089021E+02</pdfrwt>
<totfact> 0.28682315E+06</totfact>
</mgrwt>
</event>
<event>
 4    1  0.2126213E+000  0.2583260E+02  0.7546771E-02  0.1649323E+00
          3   -1    0    0  501    0  0.00000000000E+00  0.00000000000E+00  0.76415585582E+02  0.76415585582E+02  0.00000000000E+00 0.  1.
         -3   -1    0    0    0  501 -0.00000000000E+00 -0.00000000000E+00 -0.21832040567E+01  0.21832040567E+01  0.00000000000E+00 0. -1.
        -13    1    1    2    0    0  0.11924476289E+02 -0.49627306863E+01  0.37404611389E+02  0.39571792780E+02  0.00000000000E+00 0. -1.
         13    1    1    2    0    0 -0.11924476289E+02  0.49627306863E+01  0.36827770136E+02  0.39026996859E+02  0.00000000000E+00 0.  1.
<mgrwt>
<rscale>  0 0.25832601E+02</rscale>
<asrwt>0</asrwt>
<pdfrwt beam="1">  1        3 0.11756242E-01 0.25832601E+02</pdfrwt>
<pdfrwt beam="2">  1       -3 0.33587761E-03 0.25832601E+02</pdfrwt>
<totfact> 0.85120735E+05</totfact>
</mgrwt>
</event>
<event>
 4    1  0.2126213E+000  0.3462167E+02  0.7546771E-02  0.1551986E+00
          2   -1    0    0  501    0  0.00000000000E+00  0.00000000000E+00  0.30206277383E+02  0.30206277383E+02  0.00000000000E+00 0.  1.
         -2   -1    0    0    0  501 -0.00000000000E+00 -0.00000000000E+00 -0.99206214797E+01  0.99206214797E+01  0.00000000000E+00 0. -1.
        -11    1    1    2    0    0 -0.10294012795E+02 -0.24123356028E+01 -0.57436146404E+01  0.12032255467E+02  0.00000000000E+00 0. -1.
         11    1    1    2    0    0  0.10294012795E+02  0.24123356028E+01  0.26029270543E+02  0.28094643395E+02  0.00000000000E+00 0.  1.
<mgrwt>
<rscale>  0 0.34621672E+02</rscale>
<asrwt>0</asrwt>
<pdfrwt beam="1">  1        2 0.46471196E-02 0.34621672E+02</pdfrwt>
<pdfrwt beam="2">  1       -2 0.15262495E-02 0.34621672E+02</pdfrwt>
<totfact> 0.11941115E+06</totfact>
</mgrwt>
</event>
<event>
 4    1  0.2126213E+000  0.3279152E+02  0.7546771E-02  0.1569135E+00
         -2   -1    0    0    0  501 -0.00000000000E+00  0.00000000000E+00  0.30432212752E+02  0.30432212752E+02  0.00000000000E+00 0. -1.
          2   -1    0    0  501    0  0.00000000000E+00 -0.00000000000E+00 -0.88334342008E+01  0.88334342008E+01  0.00000000000E+00 0.  1.
        -13    1    1    2    0    0 -0.70553366459E+01  0.14690917796E+02  0.12948141943E+02  0.20814783704E+02  0.00000000000E+00 0.  1.
         13    1    1    2    0    0  0.70553366459E+01 -0.14690917796E+02  0.86506366085E+01  0.18450863249E+02  0.00000000000E+00 0. -1.
<mgrwt>
<rscale>  0 0.32791520E+02</rscale>
<asrwt>0</asrwt>
<pdfrwt beam="2">  1        2 0.13589899E-02 0.32791520E+02</pdfrwt>
<pdfrwt beam="1">  1       -2 0.46818788E-02 0.32791520E+02</pdfrwt>
<totfact> 0.11837639E+06</totfact>
</mgrwt>
</event>
<event>
 4    1  0.2126213E+000  0.2295303E+02  0.7546771E-02  0.1692273E+00
          1   -1    0    0  501    0  0.00000000000E+00  0.00000000000E+00  0.64364856574E+02  0.64364856574E+02  0.00000000000E+00 0. -1.
         -1   -1    0    0    0  501 -0.00000000000E+00 -0.00000000000E+00 -0.20463095468E+01  0.20463095468E+01  0.00000000000E+00 0.  1.
        -11    1    1    2    0    0 -0.13823195316E+01  0.11251876797E+02  0.25987631718E+02  0.28352646103E+02  0.00000000000E+00 0. -1.
         11    1    1    2    0    0  0.13823195316E+01 -0.11251876797E+02  0.36330915309E+02  0.38058520017E+02  0.00000000000E+00 0.  1.
<mgrwt>
<rscale>  0 0.22953032E+02</rscale>
<asrwt>0</asrwt>
<pdfrwt beam="1">  1        1 0.99022841E-02 0.22953032E+02</pdfrwt>
<pdfrwt beam="2">  1       -1 0.31481690E-03 0.22953032E+02</pdfrwt>
<totfact> 0.31219922E+06</totfact>
</mgrwt>
</event>
<event>
 4    1  0.2126213E+000  0.3503309E+02  0.7546771E-02  0.1548307E+00
         -2   -1    0    0    0  501 -0.00000000000E+00  0.00000000000E+00  0.43609450752E+01  0.43609450752E+01  0.00000000000E+00 0.  1.
          2   -1    0    0  501    0  0.00000000000E+00 -0.00000000000E+00 -0.70358449561E+02  0.70358449561E+02  0.00000000000E+00 0. -1.
        -11    1    1    2    0    0  0.51765733420E+01 -0.16077515098E+02 -0.23098698763E+02  0.28615263197E+02  0.00000000000E+00 0.  1.
         11    1    1    2    0    0 -0.51765733420E+01  0.16077515098E+02 -0.42898805722E+02  0.46104131439E+02  0.00000000000E+00 0. -1.
<mgrwt>
<rscale>  0 0.35033089E+02</rscale>
<asrwt>0</asrwt>
<pdfrwt beam="2">  1        2 0.10824377E-01 0.35033089E+02</pdfrwt>
<pdfrwt beam="1">  1       -2 0.67091463E-03 0.35033089E+02</pdfrwt>
<totfact> 0.13334133E+06</totfact>
</mgrwt>
</event>
<event>
 4    1  0.2126213E+000  0.4445548E+02  0.7546771E-02  0.1477770E+00
          2   -1    0    0  501    0  0.00000000000E+00  0.00000000000E+00  0.47521337657E+02  0.47521337657E+02  0.00000000000E+00 0.  1.
         -2   -1    0    0    0  501 -0.00000000000E+00 -0.00000000000E+00 -0.10396853768E+02  0.10396853768E+02  0.00000000000E+00 0. -1.
        -11    1    1    2    0    0  0.18792322357E+02 -0.11853320722E+02  0.19406381826E+02  0.29500173683E+02  0.00000000000E+00 0.  1.
         11    1    1    2    0    0 -0.18792322357E+02  0.11853320722E+02  0.17718102062E+02  0.28418017742E+02  0.00000000000E+00 0. -1.
<mgrwt>
<rscale>  0 0.44455479E+02</rscale>
<asrwt>0</asrwt>
<pdfrwt beam="1">  1        2 0.73109749E-02 0.44455479E+02</pdfrwt>
<pdfrwt beam="2">  1       -2 0.15995160E-02 0.44455479E+02</pdfrwt>
<totfact> 0.68601205E+05</totfact>
</mgrwt>
</event>
<event>
 4    1  0.2126213E+000  0.5829853E+02  0.7546771E-02  0.1405114E+00
          2   -1    0    0  501    0  0.00000000000E+00  0.00000000000E+00  0.22163685548E+02  0.22163685548E+02  0.00000000000E+00 0. -1.
         -2   -1    0    0    0  501 -0.00000000000E+00 -0.00000000000E+00 -0.38336562033E+02  0.38336562033E+02  0.00000000000E+00 0.  1.
        -11    1    1    2    0    0 -0.17836774829E+02  0.37919104210E+01  0.15513344816E+02  0.23941449169E+02  0.00000000000E+00 0. -1.
         11    1    1    2    0    0  0.17836774829E+02 -0.37919104210E+01 -0.31686221301E+02  0.36558798412E+02  0.00000000000E+00 0.  1.
<mgrwt>
<rscale>  0 0.58298525E+02</rscale>
<asrwt>0</asrwt>
<pdfrwt beam="1">  1        2 0.34097978E-02 0.58298525E+02</pdfrwt>
<pdfrwt beam="2">  1       -2 0.58979326E-02 0.58298525E+02</pdfrwt>
<totfact> 0.29584139E+05</totfact>
</mgrwt>
</event>
<event>
 4    1  0.2126213E+000  0.2892157E+02  0.7546771E-02  0.1610325E+00
         -2   -1    0    0    0  501 -0.00000000000E+00  0.00000000000E+00  0.25525410073E+02  0.25525410073E+02  0.00000000000E+00 0. -1.
          2   -1    0    0  501    0  0.00000000000E+00 -0.00000000000E+00 -0.81923986987E+01  0.81923986987E+01  0.00000000000E+00 0.  1.
        -13    1    1    2    0    0 -0.37351321038E+01 -0.12544306785E+02  0.15834594893E+02  0.20543739678E+02  0.00000000000E+00 0. -1.
         13    1    1    2    0    0  0.37351321038E+01  0.12544306785E+02  0.14984164821E+01  0.13174069094E+02  0.00000000000E+00 0.  1.
<mgrwt>
<rscale>  0 0.28921572E+02</rscale>
<asrwt>0</asrwt>
<pdfrwt beam="2">  1        2 0.12603690E-02 0.28921572E+02</pdfrwt>
<pdfrwt beam="1">  1       -2 0.39269861E-02 0.28921572E+02</pdfrwt>
<totfact> 0.16101769E+06</totfact>
</mgrwt>
</event>
<event>
 4    1  0.2126213E+000  0.2134045E+02  0.7546771E-02  0.1719915E+00
         -2   -1    0    0    0  501 -0.00000000000E+00  0.00000000000E+00  0.22675403501E+01  0.22675403501E+01  0.00000000000E+00 0.  1.
          2   -1    0    0  501    0  0.00000000000E+00 -0.00000000000E+00 -0.50210242736E+02  0.50210242736E+02  0.00000000000E+00 0. -1.
        -13    1    1    2    0    0 -0.97103704629E+00  0.10589241429E+02 -0.26141482488E+02  0.28221482131E+02  0.00000000000E+00 0. -1.
         13    1    1    2    0    0  0.97103704629E+00 -0.10589241429E+02 -0.21801219898E+02  0.24256300955E+02  0.00000000000E+00 0.  1.
<mgrwt>
<rscale>  0 0.21340455E+02</rscale>
<asrwt>0</asrwt>
<pdfrwt beam="2">  1        2 0.77246522E-02 0.21340455E+02</pdfrwt>
<pdfrwt beam="1">  1       -2 0.34885238E-03 0.21340455E+02</pdfrwt>
<totfact> 0.40082946E+06</totfact>
</mgrwt>
</event>
<event>
 4    1  0.2126213E+000  0.4147587E+02  0.7546771E-02  0.1497623E+00
         -2   -1    0    0    0  501 -0.00000000000E+00  0.00000000000E+00  0.95626959567E+01  0.95626959567E+01  0.00000000000E+00 0. -1.
          2   -1    0    0  501    0  0.00000000000E+00 -0.00000000000E+00 -0.44972871900E+02  0.44972871900E+02  0.00000000000E+00 0.  1.
        -11    1    1    2    0    0  0.17094831723E+02  0.11070570896E+01 -0.33072989264E+02  0.37246227539E+02  0.00000000000E+00 0.  1.
         11    1    1    2    0    0 -0.17094831723E+02 -0.11070570896E+01 -0.23371866784E+01  0.17289340317E+02  0.00000000000E+00 0. -1.
<mgrwt>
<rscale>  0 0.41475868E+02</rscale>
<asrwt>0</asrwt>
<pdfrwt beam="2">  1        2 0.69189034E-02 0.41475868E+02</pdfrwt>
<pdfrwt beam="1">  1       -2 0.14711840E-02 0.41475868E+02</pdfrwt>
<totfact> 0.80926953E+05</totfact>
</mgrwt>
</event>
<event>
 4    1  0.2126213E+000  0.3092298E+02  0.7546771E-02  0.1588105E+00
         -2   -1    0    0    0  501 -0.00000000000E+00  0.00000000000E+00  0.14831970084E+02  0.14831970084E+02  0.00000000000E+00 0.  1.
          2   -1    0    0  501    0  0.00000000000E+00 -0.00000000000E+00 -0.16117732337E+02  0.16117732337E+02  0.00000000000E+00 0. -1.
        -13    1    1    2    0    0 -0.73913746782E+01 -0.13176196626E+02 -0.39340573648E+01  0.15611578540E+02  0.00000000000E+00 0.  1.
         13    1    1    2    0    0  0.73913746782E+01  0.13176196626E+02  0.26482951113E+01  0.15338123880E+02  0.00000000000E+00 0. -1.
<mgrwt>
<rscale>  0 0.30922983E+02</rscale>
<asrwt>0</asrwt>
<pdfrwt beam="2">  1        2 0.24796511E-02 0.30922983E+02</pdfrwt>
<pdfrwt beam="1">  1       -2 0.22818415E-02 0.30922983E+02</pdfrwt>
<totfact> 0.14643822E+06</totfact>
</mgrwt>
</event>
