<event>
 4    1  0.5624886E-001  0.3500758E+02  0.7818608E-02  0.1548533E+00
         -4   -1    0    0    0  501 -0.00000000000E+00  0.00000000000E+00  0.24368774078E+02  0.24410111635E+02  0.14200000000E+01 0.  1.
          4   -1    0    0  501    0  0.00000000000E+00 -0.00000000000E+00 -0.12480465440E+02  0.12560987923E+02  0.14200000000E+01 0. -1.
        -13    1    1    2    0    0 -0.21410153420E+01 -0.17290483890E+02  0.41685972102E+01  0.17914607309E+02  0.10570000000E+00 0. -1.
         13    1    1    2    0    0  0.21410153420E+01  0.17290483890E+02  0.77197114273E+01  0.19056492250E+02  0.10570000000E+00 0.  1.
<mgrwt>
<rscale>  0 0.35007575E+02</rscale>
<asrwt>0</asrwt>
<pdfrwt beam="2">  1        4 0.19294455E-02 0.35007575E+02</pdfrwt>
<pdfrwt beam="1">  1       -4 0.37584160E-02 0.35007575E+02</pdfrwt>
<totfact> 0.35563945E+05</totfact>
</mgrwt>
</event>
<event>
 4    1  0.5624886E-001  0.4257424E+02  0.7818608E-02  0.1490079E+00
          4   -1    0    0  501    0  0.00000000000E+00  0.00000000000E+00  0.15524076020E+02  0.15588885024E+02  0.14200000000E+01 0. -1.
         -4   -1    0    0    0  501 -0.00000000000E+00 -0.00000000000E+00 -0.29046607688E+02  0.29081296708E+02  0.14200000000E+01 0.  1.
        -13    1    1    2    0    0  0.35611267232E+01  0.13271927956E+02  0.10296541920E+02  0.17171361134E+02  0.10570000000E+00 0. -1.
         13    1    1    2    0    0 -0.35611267232E+01 -0.13271927956E+02 -0.23819073588E+02  0.27498820598E+02  0.10570000000E+00 0.  1.
<mgrwt>
<rscale>  0 0.42574244E+02</rscale>
<asrwt>0</asrwt>
<pdfrwt beam="1">  1        4 0.23959731E-02 0.42574244E+02</pdfrwt>
<pdfrwt beam="2">  1       -4 0.44763626E-02 0.42574244E+02</pdfrwt>
<totfact> 0.21758579E+05</totfact>
</mgrwt>
</event>
<event>
 4    1  0.5624886E-001  0.2379606E+02  0.7818608E-02  0.1678922E+00
         -4   -1    0    0    0  501 -0.00000000000E+00  0.00000000000E+00  0.82540122651E+02  0.82552336413E+02  0.14200000000E+01 0.  1.
          4   -1    0    0  501    0  0.00000000000E+00 -0.00000000000E+00 -0.14066634351E+01  0.19987751298E+01  0.14200000000E+01 0. -1.
        -13    1    1    2    0    0  0.10172980310E+02 -0.39227443618E+01  0.23647420018E+02  0.26040143965E+02  0.10570000000E+00 0. -1.
         13    1    1    2    0    0 -0.10172980310E+02  0.39227443618E+01  0.57486039198E+02  0.58510967577E+02  0.10570000000E+00 0.  1.
<mgrwt>
<rscale>  0 0.23796056E+02</rscale>
<asrwt>0</asrwt>
<pdfrwt beam="2">  1        4 0.26289629E-03 0.23796056E+02</pdfrwt>
<pdfrwt beam="1">  1       -4 0.12744969E-01 0.23796056E+02</pdfrwt>
<totfact> 0.71798595E+05</totfact>
</mgrwt>
</event>
<event>
 4    1  0.5624886E-001  0.3758687E+02  0.7818608E-02  0.1526760E+00
          4   -1    0    0  501    0  0.00000000000E+00  0.00000000000E+00  0.54541366750E+02  0.54559848671E+02  0.14200000000E+01 0.  1.
         -4   -1    0    0    0  501 -0.00000000000E+00 -0.00000000000E+00 -0.63780192868E+01  0.65341816644E+01  0.14200000000E+01 0. -1.
        -13    1    1    2    0    0 -0.74794916251E+01 -0.12982686363E+02  0.56428422683E+01  0.16010802027E+02  0.10570000000E+00 0. -1.
         13    1    1    2    0    0  0.74794916251E+01  0.12982686363E+02  0.42520505195E+02  0.45083228309E+02  0.10570000000E+00 0.  1.
<mgrwt>
<rscale>  0 0.37586866E+02</rscale>
<asrwt>0</asrwt>
<pdfrwt beam="1">  1        4 0.84044136E-02 0.37586866E+02</pdfrwt>
<pdfrwt beam="2">  1       -4 0.99466793E-03 0.37586866E+02</pdfrwt>
<totfact> 0.27787262E+05</totfact>
</mgrwt>
</event>
<event>
 4    1  0.5624886E-001  0.4567210E+02  0.7818608E-02  0.1470189E+00
         -4   -1    0    0    0  501 -0.00000000000E+00  0.00000000000E+00  0.40767923217E+02  0.40792645948E+02  0.14200000000E+01 0. -1.
          4   -1    0    0  501    0  0.00000000000E+00 -0.00000000000E+00 -0.12723447973E+02  0.12802442279E+02  0.14200000000E+01 0.  1.
        -13    1    1    2    0    0  0.81670631014E+01  0.21261090798E+02  0.15964383198E+02  0.27813802419E+02  0.10570000000E+00 0. -1.
         13    1    1    2    0    0 -0.81670631014E+01 -0.21261090798E+02  0.12080092046E+02  0.25781285809E+02  0.10570000000E+00 0.  1.
<mgrwt>
<rscale>  0 0.45672102E+02</rscale>
<asrwt>0</asrwt>
<pdfrwt beam="2">  1        4 0.19654318E-02 0.45672102E+02</pdfrwt>
<pdfrwt beam="1">  1       -4 0.62799662E-02 0.45672102E+02</pdfrwt>
<totfact> 0.17823111E+05</totfact>
</mgrwt>
</event>
<event>
 4    1  0.5624886E-001  0.5762350E+02  0.7818608E-02  0.1408084E+00
         -4   -1    0    0    0  501 -0.00000000000E+00  0.00000000000E+00  0.17042371975E+02  0.17101428084E+02  0.14200000000E+01 0.  1.
          4   -1    0    0  501    0  0.00000000000E+00 -0.00000000000E+00 -0.48555296925E+02  0.48576056443E+02  0.14200000000E+01 0. -1.
        -13    1    1    2    0    0  0.19798435397E+02 -0.20514988289E+02 -0.20492052014E+02  0.35110940701E+02  0.10570000000E+00 0. -1.
         13    1    1    2    0    0 -0.19798435397E+02  0.20514988289E+02 -0.11020872937E+02  0.30566543826E+02  0.10570000000E+00 0.  1.
<mgrwt>
<rscale>  0 0.57623498E+02</rscale>
<asrwt>0</asrwt>
<pdfrwt beam="2">  1        4 0.74761853E-02 0.57623498E+02</pdfrwt>
<pdfrwt beam="1">  1       -4 0.26280431E-02 0.57623498E+02</pdfrwt>
<totfact> 0.96347272E+04</totfact>
</mgrwt>
</event>
<event>
 4    1  0.5624886E-001  0.2169369E+02  0.7818608E-02  0.1713604E+00
         -4   -1    0    0    0  501 -0.00000000000E+00  0.00000000000E+00  0.15492830787E+01  0.21015894123E+01  0.14200000000E+01 0.  1.
          4   -1    0    0  501    0  0.00000000000E+00 -0.00000000000E+00 -0.63891199394E+02  0.63906977397E+02  0.14200000000E+01 0. -1.
        -13    1    1    2    0    0 -0.35550957202E+01 -0.95975444601E+01 -0.20246094141E+02  0.22686274831E+02  0.10570000000E+00 0.  1.
         13    1    1    2    0    0  0.35550957202E+01  0.95975444601E+01 -0.42095822174E+02  0.43322291978E+02  0.10570000000E+00 0. -1.
<mgrwt>
<rscale>  0 0.21693694E+02</rscale>
<asrwt>0</asrwt>
<pdfrwt beam="2">  1        4 0.98731124E-02 0.21693694E+02</pdfrwt>
<pdfrwt beam="1">  1       -4 0.28205009E-03 0.21693694E+02</pdfrwt>
<totfact> 0.92297569E+05</totfact>
</mgrwt>
</event>
<event>
 4    1  0.5624886E-001  0.3907236E+02  0.7818608E-02  0.1515151E+00
         -4   -1    0    0    0  501 -0.00000000000E+00  0.00000000000E+00  0.43556858107E+01  0.45813097343E+01  0.14200000000E+01 0. -1.
          4   -1    0    0  501    0  0.00000000000E+00 -0.00000000000E+00 -0.85180086438E+02  0.85191921716E+02  0.14200000000E+01 0.  1.
        -13    1    1    2    0    0 -0.14149948202E+02 -0.13183199437E+02 -0.46760183051E+02  0.50601814918E+02  0.10570000000E+00 0.  1.
         13    1    1    2    0    0  0.14149948202E+02  0.13183199437E+02 -0.34064217577E+02  0.39171416532E+02  0.10570000000E+00 0. -1.
<mgrwt>
<rscale>  0 0.39072360E+02</rscale>
<asrwt>0</asrwt>
<pdfrwt beam="2">  1        4 0.13122894E-01 0.39072360E+02</pdfrwt>
<pdfrwt beam="1">  1       -4 0.68837167E-03 0.39072360E+02</pdfrwt>
<totfact> 0.23321809E+05</totfact>
</mgrwt>
</event>
<event>
 4    1  0.5624886E-001  0.2693196E+02  0.7818608E-02  0.1634709E+00
         -4   -1    0    0    0  501 -0.00000000000E+00  0.00000000000E+00  0.62248657085E+01  0.63847751009E+01  0.14200000000E+01 0. -1.
          4   -1    0    0  501    0  0.00000000000E+00 -0.00000000000E+00 -0.28583184585E+02  0.28618435335E+02  0.14200000000E+01 0.  1.
        -13    1    1    2    0    0  0.12019508123E+02  0.33387216087E+01 -0.17768702005E+02  0.21710678961E+02  0.10570000000E+00 0.  1.
         13    1    1    2    0    0 -0.12019508123E+02 -0.33387216087E+01 -0.45896168718E+01  0.13292531475E+02  0.10570000000E+00 0. -1.
<mgrwt>
<rscale>  0 0.26931957E+02</rscale>
<asrwt>0</asrwt>
<pdfrwt beam="2">  1        4 0.44124253E-02 0.26931957E+02</pdfrwt>
<pdfrwt beam="1">  1       -4 0.97268398E-03 0.26931957E+02</pdfrwt>
<totfact> 0.64930568E+05</totfact>
</mgrwt>
</event>
<event>
 4    1  0.5624886E-001  0.3607053E+02  0.7818608E-02  0.1539294E+00
         -4   -1    0    0    0  501 -0.00000000000E+00  0.00000000000E+00  0.61287904498E+02  0.61304352519E+02  0.14200000000E+01 0.  1.
          4   -1    0    0  501    0  0.00000000000E+00 -0.00000000000E+00 -0.51947952556E+01  0.53853781434E+01  0.14200000000E+01 0. -1.
        -13    1    1    2    0    0  0.11474710964E+02  0.27033675544E-01  0.53771104854E+02  0.54981929870E+02  0.10570000000E+00 0.  1.
         13    1    1    2    0    0 -0.11474710964E+02 -0.27033675544E-01  0.23220043893E+01  0.11707800793E+02  0.10570000000E+00 0. -1.
<mgrwt>
<rscale>  0 0.36070532E+02</rscale>
<asrwt>0</asrwt>
<pdfrwt beam="2">  1        4 0.81512472E-03 0.36070532E+02</pdfrwt>
<pdfrwt beam="1">  1       -4 0.94448339E-02 0.36070532E+02</pdfrwt>
<totfact> 0.30081374E+05</totfact>
</mgrwt>
</event>
<event>
 4    1  0.5624886E-001  0.2418632E+02  0.7818608E-02  0.1672972E+00
         -4   -1    0    0    0  501 -0.00000000000E+00  0.00000000000E+00  0.14454771616E+01  0.20262784173E+01  0.14200000000E+01 0. -1.
          4   -1    0    0  501    0  0.00000000000E+00 -0.00000000000E+00 -0.83660336592E+02  0.83672386835E+02  0.14200000000E+01 0.  1.
        -13    1    1    2    0    0 -0.11952968087E+02 -0.14047258457E+01 -0.45279854612E+02  0.46852140901E+02  0.10570000000E+00 0.  1.
         13    1    1    2    0    0  0.11952968087E+02  0.14047258457E+01 -0.36935004819E+02  0.38846524352E+02  0.10570000000E+00 0. -1.
<mgrwt>
<rscale>  0 0.24186321E+02</rscale>
<asrwt>0</asrwt>
<pdfrwt beam="2">  1        4 0.12916422E-01 0.24186321E+02</pdfrwt>
<pdfrwt beam="1">  1       -4 0.26798513E-03 0.24186321E+02</pdfrwt>
<totfact> 0.69140130E+05</totfact>
</mgrwt>
</event>
<event>
 4    1  0.5624886E-001  0.2759731E+02  0.7818608E-02  0.1626274E+00
          4   -1    0    0  501    0  0.00000000000E+00  0.00000000000E+00  0.45422849214E+02  0.45445039671E+02  0.14200000000E+01 0. -1.
         -4   -1    0    0    0  501 -0.00000000000E+00 -0.00000000000E+00 -0.40476119474E+01  0.42894711185E+01  0.14200000000E+01 0.  1.
        -13    1    1    2    0    0 -0.13418160634E+02  0.25079268113E+01  0.24316580549E+02  0.27886268911E+02  0.10570000000E+00 0. -1.
         13    1    1    2    0    0  0.13418160634E+02 -0.25079268113E+01  0.17058656717E+02  0.21848241879E+02  0.10570000000E+00 0.  1.
<mgrwt>
<rscale>  0 0.27597306E+02</rscale>
<asrwt>0</asrwt>
<pdfrwt beam="1">  1        4 0.70084418E-02 0.27597306E+02</pdfrwt>
<pdfrwt beam="2">  1       -4 0.64302107E-03 0.27597306E+02</pdfrwt>
<totfact> 0.58332774E+05</totfact>
</mgrwt>
</event>
<event>
 4    1  0.5624886E-001  0.2492413E+02  0.7818608E-02  0.1662094E+00
          4   -1    0    0  501    0  0.00000000000E+00  0.00000000000E+00  0.25822972019E+01  0.29469745229E+01  0.14200000000E+01 0.  1.
         -4   -1    0    0    0  501 -0.00000000000E+00 -0.00000000000E+00 -0.55800584072E+02  0.55818649059E+02  0.14200000000E+01 0. -1.
        -13    1    1    2    0    0 -0.81854990617E+01 -0.89485546043E+01 -0.33366113598E+02  0.35501939856E+02  0.10570000000E+00 0. -1.
         13    1    1    2    0    0  0.81854990617E+01  0.89485546043E+01 -0.19852173272E+02  0.23263683726E+02  0.10570000000E+00 0.  1.
<mgrwt>
<rscale>  0 0.24924134E+02</rscale>
<asrwt>0</asrwt>
<pdfrwt beam="1">  1        4 0.42671825E-03 0.24924134E+02</pdfrwt>
<pdfrwt beam="2">  1       -4 0.86141462E-02 0.24924134E+02</pdfrwt>
<totfact> 0.70611310E+05</totfact>
</mgrwt>
</event>
<event>
 4    1  0.5624886E-001  0.3071305E+02  0.7818608E-02  0.1590338E+00
          4   -1    0    0  501    0  0.00000000000E+00  0.00000000000E+00  0.20229230683E+02  0.20279008211E+02  0.14200000000E+01 0.  1.
         -4   -1    0    0    0  501 -0.00000000000E+00 -0.00000000000E+00 -0.11549895336E+02  0.11636858780E+02  0.14200000000E+01 0. -1.
        -13    1    1    2    0    0  0.81524390361E+00 -0.15307845974E+02  0.34003986367E+01  0.15702504716E+02  0.10570000000E+00 0. -1.
         13    1    1    2    0    0 -0.81524390361E+00  0.15307845974E+02  0.52789367106E+01  0.16213362275E+02  0.10570000000E+00 0.  1.
<mgrwt>
<rscale>  0 0.30713054E+02</rscale>
<asrwt>0</asrwt>
<pdfrwt beam="1">  1        4 0.31227079E-02 0.30713054E+02</pdfrwt>
<pdfrwt beam="2">  1       -4 0.17874255E-02 0.30713054E+02</pdfrwt>
<totfact> 0.48969001E+05</totfact>
</mgrwt>
</event>
<event>
 4    1  0.5624886E-001  0.2806743E+02  0.7818608E-02  0.1620489E+00
          4   -1    0    0  501    0  0.00000000000E+00  0.00000000000E+00  0.17252520522E+02  0.17310859724E+02  0.14200000000E+01 0.  1.
         -4   -1    0    0    0  501 -0.00000000000E+00 -0.00000000000E+00 -0.11293299116E+02  0.11382223197E+02  0.14200000000E+01 0. -1.
        -13    1    1    2    0    0 -0.10984403185E+02  0.73807070108E+01  0.77529599964E+01  0.15337910891E+02  0.10570000000E+00 0.  1.
         13    1    1    2    0    0  0.10984403185E+02 -0.73807070108E+01 -0.17937385896E+01  0.13355172029E+02  0.10570000000E+00 0. -1.
<mgrwt>
<rscale>  0 0.28067431E+02</rscale>
<asrwt>0</asrwt>
<pdfrwt beam="1">  1        4 0.26655619E-02 0.28067431E+02</pdfrwt>
<pdfrwt beam="2">  1       -4 0.17487586E-02 0.28067431E+02</pdfrwt>
<totfact> 0.60725541E+05</totfact>
</mgrwt>
</event>
<event>
 4    1  0.5624886E-001  0.3406480E+02  0.7818608E-02  0.1557066E+00
          4   -1    0    0  501    0  0.00000000000E+00  0.00000000000E+00  0.21499442709E+01  0.25765597932E+01  0.14200000000E+01 0.  1.
         -4   -1    0    0    0  501 -0.00000000000E+00 -0.00000000000E+00 -0.12232458778E+03  0.12233282951E+03  0.14200000000E+01 0. -1.
        -13    1    1    2    0    0 -0.41636567189E+00  0.14953667056E+02 -0.30228991555E+02  0.33728157699E+02  0.10570000000E+00 0.  1.
         13    1    1    2    0    0  0.41636567189E+00 -0.14953667056E+02 -0.89945651954E+02  0.91181231603E+02  0.10570000000E+00 0. -1.
<mgrwt>
<rscale>  0 0.34064800E+02</rscale>
<asrwt>0</asrwt>
<pdfrwt beam="1">  1        4 0.36421131E-03 0.34064800E+02</pdfrwt>
<pdfrwt beam="2">  1       -4 0.18852613E-01 0.34064800E+02</pdfrwt>
<totfact> 0.29216320E+05</totfact>
</mgrwt>
</event>
<event>
 4    1  0.5624886E-001  0.2485910E+02  0.7818608E-02  0.1663034E+00
          4   -1    0    0  501    0  0.00000000000E+00  0.00000000000E+00  0.16168479329E+01  0.21518822547E+01  0.14200000000E+01 0.  1.
         -4   -1    0    0    0  501 -0.00000000000E+00 -0.00000000000E+00 -0.81445028204E+02  0.81457406165E+02  0.14200000000E+01 0. -1.
        -13    1    1    2    0    0  0.79268523129E+01  0.95291824749E+01 -0.43000678414E+02  0.44751646034E+02  0.10570000000E+00 0. -1.
         13    1    1    2    0    0 -0.79268523129E+01 -0.95291824749E+01 -0.36827501857E+02  0.38857642386E+02  0.10570000000E+00 0.  1.
<mgrwt>
<rscale>  0 0.24859098E+02</rscale>
<asrwt>0</asrwt>
<pdfrwt beam="1">  1        4 0.29085454E-03 0.24859098E+02</pdfrwt>
<pdfrwt beam="2">  1       -4 0.12572110E-01 0.24859098E+02</pdfrwt>
<totfact> 0.65632729E+05</totfact>
</mgrwt>
</event>
<event>
 4    1  0.5624886E-001  0.2536264E+02  0.7818608E-02  0.1655847E+00
         -4   -1    0    0    0  501 -0.00000000000E+00  0.00000000000E+00  0.29116574869E+02  0.29151180629E+02  0.14200000000E+01 0. -1.
          4   -1    0    0  501    0  0.00000000000E+00 -0.00000000000E+00 -0.53933287791E+01  0.55771314597E+01  0.14200000000E+01 0.  1.
        -13    1    1    2    0    0  0.11062189572E+02  0.64371923695E-01  0.20349826704E+02  0.23162530113E+02  0.10570000000E+00 0. -1.
         13    1    1    2    0    0 -0.11062189572E+02 -0.64371923695E-01  0.33734193858E+01  0.11565781976E+02  0.10570000000E+00 0.  1.
<mgrwt>
<rscale>  0 0.25362635E+02</rscale>
<asrwt>0</asrwt>
<pdfrwt beam="2">  1        4 0.84654356E-03 0.25362635E+02</pdfrwt>
<pdfrwt beam="1">  1       -4 0.44962736E-02 0.25362635E+02</pdfrwt>
<totfact> 0.74122321E+05</totfact>
</mgrwt>
</event>
<event>
 4    1  0.5624886E-001  0.3351914E+02  0.7818608E-02  0.1562158E+00
          4   -1    0    0  501    0  0.00000000000E+00  0.00000000000E+00  0.50510611088E+01  0.52468674773E+01  0.14200000000E+01 0. -1.
         -4   -1    0    0    0  501 -0.00000000000E+00 -0.00000000000E+00 -0.54346146133E+02  0.54364694421E+02  0.14200000000E+01 0.  1.
        -13    1    1    2    0    0  0.10529593251E+02  0.12775532080E+02 -0.20014902867E+02  0.25974873690E+02  0.10570000000E+00 0. -1.
         13    1    1    2    0    0 -0.10529593251E+02 -0.12775532080E+02 -0.29280182157E+02  0.33636688208E+02  0.10570000000E+00 0.  1.
<mgrwt>
<rscale>  0 0.33519142E+02</rscale>
<asrwt>0</asrwt>
<pdfrwt beam="1">  1        4 0.79357518E-03 0.33519142E+02</pdfrwt>
<pdfrwt beam="2">  1       -4 0.83774340E-02 0.33519142E+02</pdfrwt>
<totfact> 0.36436115E+05</totfact>
</mgrwt>
</event>
<event>
 4    1  0.5624886E-001  0.2463495E+02  0.7818608E-02  0.1666301E+00
          4   -1    0    0  501    0  0.00000000000E+00  0.00000000000E+00  0.32828956194E+02  0.32859652536E+02  0.14200000000E+01 0. -1.
         -4   -1    0    0    0  501 -0.00000000000E+00 -0.00000000000E+00 -0.44787684575E+01  0.46984855960E+01  0.14200000000E+01 0.  1.
        -13    1    1    2    0    0  0.22690723572E+01 -0.10656241366E+02  0.22933821620E+02  0.25390461122E+02  0.10570000000E+00 0. -1.
         13    1    1    2    0    0 -0.22690723572E+01  0.10656241366E+02  0.54163661162E+01  0.12167677009E+02  0.10570000000E+00 0.  1.
<mgrwt>
<rscale>  0 0.24634947E+02</rscale>
<asrwt>0</asrwt>
<pdfrwt beam="1">  1        4 0.50698711E-02 0.24634947E+02</pdfrwt>
<pdfrwt beam="2">  1       -4 0.70830390E-03 0.24634947E+02</pdfrwt>
<totfact> 0.78093132E+05</totfact>
</mgrwt>
</event>
<event>
 4    1  0.5624886E-001  0.2430649E+02  0.7818608E-02  0.1671168E+00
          4   -1    0    0  501    0  0.00000000000E+00  0.00000000000E+00  0.87641336645E+01  0.88784254736E+01  0.14200000000E+01 0. -1.
         -4   -1    0    0    0  501 -0.00000000000E+00 -0.00000000000E+00 -0.16598954115E+02  0.16659582159E+02  0.14200000000E+01 0.  1.
        -13    1    1    2    0    0 -0.18261241901E+01 -0.12014801297E+02 -0.39154924835E+01  0.12768415471E+02  0.10570000000E+00 0.  1.
         13    1    1    2    0    0  0.18261241901E+01  0.12014801297E+02 -0.39193279674E+01  0.12769592162E+02  0.10570000000E+00 0. -1.
<mgrwt>
<rscale>  0 0.24306489E+02</rscale>
<asrwt>0</asrwt>
<pdfrwt beam="1">  1        4 0.13617836E-02 0.24306489E+02</pdfrwt>
<pdfrwt beam="2">  1       -4 0.25671406E-02 0.24306489E+02</pdfrwt>
<totfact> 0.84327706E+05</totfact>
</mgrwt>
</event>
<event>
 4    1  0.5624886E-001  0.4407144E+02  0.7818608E-02  0.1480223E+00
         -4   -1    0    0    0  501 -0.00000000000E+00  0.00000000000E+00  0.64619889904E+01  0.66161697161E+01  0.14200000000E+01 0.  1.
          4   -1    0    0  501    0  0.00000000000E+00 -0.00000000000E+00 -0.74096007657E+02  0.74109613079E+02  0.14200000000E+01 0. -1.
        -13    1    1    2    0    0  0.15353336041E+00 -0.20730665312E+02 -0.47496980225E+02  0.51824302791E+02  0.10570000000E+00 0. -1.
         13    1    1    2    0    0 -0.15353336041E+00  0.20730665312E+02 -0.20137038441E+02  0.28901480004E+02  0.10570000000E+00 0.  1.
<mgrwt>
<rscale>  0 0.44071437E+02</rscale>
<asrwt>0</asrwt>
<pdfrwt beam="2">  1        4 0.11412292E-01 0.44071437E+02</pdfrwt>
<pdfrwt beam="1">  1       -4 0.10070588E-02 0.44071437E+02</pdfrwt>
<totfact> 0.17946333E+05</totfact>
</mgrwt>
</event>
<event>
 4    1  0.5624886E-001  0.6494286E+02  0.7818608E-02  0.1378187E+00
          4   -1    0    0  501    0  0.00000000000E+00  0.00000000000E+00  0.80222176512E+02  0.80234743125E+02  0.14200000000E+01 0.  1.
         -4   -1    0    0    0  501 -0.00000000000E+00 -0.00000000000E+00 -0.13091426731E+02  0.13168213768E+02  0.14200000000E+01 0. -1.
        -13    1    1    2    0    0  0.16644754580E+01 -0.21629581248E+02 -0.11843466122E+01  0.21726092904E+02  0.10570000000E+00 0. -1.
         13    1    1    2    0    0 -0.16644754580E+01  0.21629581248E+02  0.68315096394E+02  0.71676863989E+02  0.10570000000E+00 0.  1.
<mgrwt>
<rscale>  0 0.64942858E+02</rscale>
<asrwt>0</asrwt>
<pdfrwt beam="1">  1        4 0.12348747E-01 0.64942858E+02</pdfrwt>
<pdfrwt beam="2">  1       -4 0.20209390E-02 0.64942858E+02</pdfrwt>
<totfact> 0.65907676E+04</totfact>
</mgrwt>
</event>
<event>
 4    1  0.5624886E-001  0.4688683E+02  0.7818608E-02  0.1462895E+00
          4   -1    0    0  501    0  0.00000000000E+00  0.00000000000E+00  0.91286160312E+02  0.91297204034E+02  0.14200000000E+01 0.  1.
         -4   -1    0    0    0  501 -0.00000000000E+00 -0.00000000000E+00 -0.59252559454E+01  0.60930335645E+01  0.14200000000E+01 0. -1.
        -13    1    1    2    0    0 -0.20229794923E+02  0.22428683204E+01  0.66842031180E+02  0.69872336198E+02  0.10570000000E+00 0.  1.
         13    1    1    2    0    0  0.20229794923E+02 -0.22428683204E+01  0.18518873186E+02  0.27517901401E+02  0.10570000000E+00 0. -1.
<mgrwt>
<rscale>  0 0.46886825E+02</rscale>
<asrwt>0</asrwt>
<pdfrwt beam="1">  1        4 0.14057780E-01 0.46886825E+02</pdfrwt>
<pdfrwt beam="2">  1       -4 0.92533336E-03 0.46886825E+02</pdfrwt>
<totfact> 0.14757684E+05</totfact>
</mgrwt>
</event>
<event>
 4    1  0.5624886E-001  0.2426000E+02  0.7818608E-02  0.1671864E+00
          4   -1    0    0  501    0  0.00000000000E+00  0.00000000000E+00  0.24704992615E+01  0.28495204160E+01  0.14200000000E+01 0. -1.
         -4   -1    0    0    0  501 -0.00000000000E+00 -0.00000000000E+00 -0.54925583749E+02  0.54943936427E+02  0.14200000000E+01 0.  1.
        -13    1    1    2    0    0 -0.78376892055E+01  0.72366466609E+01 -0.39980248047E+02  0.41379098992E+02  0.10570000000E+00 0.  1.
         13    1    1    2    0    0  0.78376892055E+01 -0.72366466609E+01 -0.12474836440E+02  0.16414357851E+02  0.10570000000E+00 0. -1.
<mgrwt>
<rscale>  0 0.24260003E+02</rscale>
<asrwt>0</asrwt>
<pdfrwt beam="1">  1        4 0.41064407E-03 0.24260003E+02</pdfrwt>
<pdfrwt beam="2">  1       -4 0.84806561E-02 0.24260003E+02</pdfrwt>
<totfact> 0.75058778E+05</totfact>
</mgrwt>
</event>
<event>
 4    1  0.5624886E-001  0.3546344E+02  0.7818608E-02  0.1544523E+00
         -4   -1    0    0    0  501 -0.00000000000E+00  0.00000000000E+00  0.39207960565E+02  0.39233666304E+02  0.14200000000E+01 0.  1.
          4   -1    0    0  501    0  0.00000000000E+00 -0.00000000000E+00 -0.79276964337E+01  0.80538668195E+01  0.14200000000E+01 0. -1.
        -13    1    1    2    0    0 -0.13342355530E+02  0.62367782979E+01  0.24745833136E+01  0.14934878295E+02  0.10570000000E+00 0. -1.
         13    1    1    2    0    0  0.13342355530E+02 -0.62367782979E+01  0.28805680817E+02  0.32352654829E+02  0.10570000000E+00 0.  1.
<mgrwt>
<rscale>  0 0.35463444E+02</rscale>
<asrwt>0</asrwt>
<pdfrwt beam="2">  1        4 0.12313284E-02 0.35463444E+02</pdfrwt>
<pdfrwt beam="1">  1       -4 0.60436767E-02 0.35463444E+02</pdfrwt>
<totfact> 0.33299685E+05</totfact>
</mgrwt>
</event>
<event>
 4    1  0.5624886E-001  0.2692315E+02  0.7818608E-02  0.1634822E+00
          4   -1    0    0  501    0  0.00000000000E+00  0.00000000000E+00  0.11441379087E+02  0.11529161089E+02  0.14200000000E+01 0.  1.
         -4   -1    0    0    0  501 -0.00000000000E+00 -0.00000000000E+00 -0.15657913269E+02  0.15722170586E+02  0.14200000000E+01 0. -1.
        -13    1    1    2    0    0  0.12884168445E+02  0.33680337722E+01 -0.12031044645E+00  0.13318074002E+02  0.10570000000E+00 0.  1.
         13    1    1    2    0    0 -0.12884168445E+02 -0.33680337722E+01 -0.40962237347E+01  0.13933257673E+02  0.10570000000E+00 0. -1.
<mgrwt>
<rscale>  0 0.26923148E+02</rscale>
<asrwt>0</asrwt>
<pdfrwt beam="1">  1        4 0.17719075E-02 0.26923148E+02</pdfrwt>
<pdfrwt beam="2">  1       -4 0.24206051E-02 0.26923148E+02</pdfrwt>
<totfact> 0.66979491E+05</totfact>
</mgrwt>
</event>
<event>
 4    1  0.5624886E-001  0.4740705E+02  0.7818608E-02  0.1459851E+00
          4   -1    0    0  501    0  0.00000000000E+00  0.00000000000E+00  0.21185297685E+03  0.21185773576E+03  0.14200000000E+01 0.  1.
         -4   -1    0    0    0  501 -0.00000000000E+00 -0.00000000000E+00 -0.24568988322E+01  0.28377371040E+01  0.14200000000E+01 0. -1.
        -13    1    1    2    0    0 -0.22642016982E+02  0.55528245018E+01  0.12409849437E+03  0.12626932434E+03  0.10570000000E+00 0.  1.
         13    1    1    2    0    0  0.22642016982E+02 -0.55528245018E+01  0.85297583657E+02  0.88426148526E+02  0.10570000000E+00 0. -1.
<mgrwt>
<rscale>  0 0.47407052E+02</rscale>
<asrwt>0</asrwt>
<pdfrwt beam="1">  1        4 0.32622430E-01 0.47407052E+02</pdfrwt>
<pdfrwt beam="2">  1       -4 0.40764572E-03 0.47407052E+02</pdfrwt>
<totfact> 0.10981097E+05</totfact>
</mgrwt>
</event>
<event>
 4    1  0.5624886E-001  0.2588251E+02  0.7818608E-02  0.1648640E+00
          4   -1    0    0  501    0  0.00000000000E+00  0.00000000000E+00  0.39025941588E+01  0.41529075559E+01  0.14200000000E+01 0. -1.
         -4   -1    0    0    0  501 -0.00000000000E+00 -0.00000000000E+00 -0.41317670407E+02  0.41342064388E+02  0.14200000000E+01 0.  1.
        -13    1    1    2    0    0  0.84870586339E+01  0.97632984888E+01 -0.18117182232E+02  0.22261977140E+02  0.10570000000E+00 0. -1.
         13    1    1    2    0    0 -0.84870586339E+01 -0.97632984888E+01 -0.19297894016E+02  0.23232994804E+02  0.10570000000E+00 0.  1.
<mgrwt>
<rscale>  0 0.25882514E+02</rscale>
<asrwt>0</asrwt>
<pdfrwt beam="1">  1        4 0.62153047E-03 0.25882514E+02</pdfrwt>
<pdfrwt beam="2">  1       -4 0.63776957E-02 0.25882514E+02</pdfrwt>
<totfact> 0.68140706E+05</totfact>
</mgrwt>
</event>
<event>
 4    1  0.5624886E-001  0.2416831E+02  0.7818608E-02  0.1673243E+00
         -4   -1    0    0    0  501 -0.00000000000E+00  0.00000000000E+00  0.35405829351E+02  0.35434293446E+02  0.14200000000E+01 0.  1.
          4   -1    0    0  501    0  0.00000000000E+00 -0.00000000000E+00 -0.39710760311E+01  0.42173267415E+01  0.14200000000E+01 0. -1.
        -13    1    1    2    0    0  0.71540371415E+01  0.86664506283E+01  0.84302470001E+01  0.14048766881E+02  0.10570000000E+00 0. -1.
         13    1    1    2    0    0 -0.71540371415E+01 -0.86664506283E+01  0.23004506319E+02  0.25602853306E+02  0.10570000000E+00 0.  1.
<mgrwt>
<rscale>  0 0.24168311E+02</rscale>
<asrwt>0</asrwt>
<pdfrwt beam="2">  1        4 0.63206668E-03 0.24168311E+02</pdfrwt>
<pdfrwt beam="1">  1       -4 0.54681826E-02 0.24168311E+02</pdfrwt>
<totfact> 0.80721515E+05</totfact>
</mgrwt>
</event>
<event>
 4    1  0.5624886E-001  0.2269291E+02  0.7818608E-02  0.1696537E+00
         -4   -1    0    0    0  501 -0.00000000000E+00  0.00000000000E+00  0.84889778244E+01  0.86069242185E+01  0.14200000000E+01 0. -1.
          4   -1    0    0  501    0  0.00000000000E+00 -0.00000000000E+00 -0.14909249805E+02  0.14976719593E+02  0.14200000000E+01 0.  1.
        -13    1    1    2    0    0  0.89574216671E+01 -0.50355974825E+01  0.17888981899E+01  0.10430914349E+02  0.10570000000E+00 0. -1.
         13    1    1    2    0    0 -0.89574216671E+01  0.50355974825E+01 -0.82091701709E+01  0.13152729463E+02  0.10570000000E+00 0.  1.
<mgrwt>
<rscale>  0 0.22692914E+02</rscale>
<asrwt>0</asrwt>
<pdfrwt beam="2">  1        4 0.23079935E-02 0.22692914E+02</pdfrwt>
<pdfrwt beam="1">  1       -4 0.13202594E-02 0.22692914E+02</pdfrwt>
<totfact> 0.98442220E+05</totfact>
</mgrwt>
</event>
<event>
 4    1  0.5624886E-001  0.4422474E+02  0.7818608E-02  0.1479240E+00
          4   -1    0    0  501    0  0.00000000000E+00  0.00000000000E+00  0.37284068029E+01  0.39896638063E+01  0.14200000000E+01 0. -1.
         -4   -1    0    0    0  501 -0.00000000000E+00 -0.00000000000E+00 -0.12643904585E+03  0.12644701940E+03  0.14200000000E+01 0.  1.
        -13    1    1    2    0    0  0.19503474344E+02  0.42899802030E+01 -0.33350526650E+02  0.38872332602E+02  0.10570000000E+00 0. -1.
         13    1    1    2    0    0 -0.19503474344E+02 -0.42899802030E+01 -0.89360112396E+02  0.91564350604E+02  0.10570000000E+00 0.  1.
<mgrwt>
<rscale>  0 0.44224737E+02</rscale>
<asrwt>0</asrwt>
<pdfrwt beam="1">  1        4 0.59431119E-03 0.44224737E+02</pdfrwt>
<pdfrwt beam="2">  1       -4 0.19472868E-01 0.44224737E+02</pdfrwt>
<totfact> 0.15639754E+05</totfact>
</mgrwt>
</event>
<event>
 4    1  0.5624886E-001  0.6962290E+02  0.7818608E-02  0.1361380E+00
          4   -1    0    0  501    0  0.00000000000E+00  0.00000000000E+00  0.62301943678E+02  0.62318124058E+02  0.14200000000E+01 0. -1.
         -4   -1    0    0    0  501 -0.00000000000E+00 -0.00000000000E+00 -0.19406381471E+02  0.19458264100E+02  0.14200000000E+01 0.  1.
        -13    1    1    2    0    0  0.14328842542E+02 -0.30592862682E+02  0.31315982940E+02  0.46064530125E+02  0.10570000000E+00 0. -1.
         13    1    1    2    0    0 -0.14328842542E+02  0.30592862682E+02  0.11579579267E+02  0.35711858033E+02  0.10570000000E+00 0.  1.
<mgrwt>
<rscale>  0 0.69622901E+02</rscale>
<asrwt>0</asrwt>
<pdfrwt beam="1">  1        4 0.95901498E-02 0.69622901E+02</pdfrwt>
<pdfrwt beam="2">  1       -4 0.29908328E-02 0.69622901E+02</pdfrwt>
<totfact> 0.56686420E+04</totfact>
</mgrwt>
</event>
<event>
 4    1  0.5624886E-001  0.4262269E+02  0.7818608E-02  0.1489753E+00
          4   -1    0    0  501    0  0.00000000000E+00  0.00000000000E+00  0.16371187480E+02  0.16432655888E+02  0.14200000000E+01 0.  1.
         -4   -1    0    0    0  501 -0.00000000000E+00 -0.00000000000E+00 -0.27610504988E+02  0.27646995961E+02  0.14200000000E+01 0. -1.
        -13    1    1    2    0    0 -0.41512061993E+01 -0.94084387548E+01  0.13684160072E+02  0.17117787301E+02  0.10570000000E+00 0.  1.
         13    1    1    2    0    0  0.41512061993E+01  0.94084387548E+01 -0.24923477580E+02  0.26961864547E+02  0.10570000000E+00 0. -1.
<mgrwt>
<rscale>  0 0.42622687E+02</rscale>
<asrwt>0</asrwt>
<pdfrwt beam="1">  1        4 0.25261796E-02 0.42622687E+02</pdfrwt>
<pdfrwt beam="2">  1       -4 0.42553053E-02 0.42622687E+02</pdfrwt>
<totfact> 0.21741301E+05</totfact>
</mgrwt>
</event>
<event>
 4    1  0.5624886E-001  0.7944966E+02  0.7818608E-02  0.1330621E+00
          4   -1    0    0  501    0  0.00000000000E+00  0.00000000000E+00  0.11789293587E+02  0.11874503917E+02  0.14200000000E+01 0.  1.
         -4   -1    0    0    0  501 -0.00000000000E+00 -0.00000000000E+00 -0.13328452375E+03  0.13329208781E+03  0.14200000000E+01 0. -1.
        -13    1    1    2    0    0 -0.37406786608E+02 -0.10727078916E+02 -0.46163209299E+02  0.60377073229E+02  0.10570000000E+00 0.  1.
         13    1    1    2    0    0  0.37406786608E+02  0.10727078916E+02 -0.75332020869E+02  0.84789518498E+02  0.10570000000E+00 0. -1.
<mgrwt>
<rscale>  0 0.79449660E+02</rscale>
<asrwt>0</asrwt>
<pdfrwt beam="1">  1        4 0.18208741E-02 0.79449660E+02</pdfrwt>
<pdfrwt beam="2">  1       -4 0.20512447E-01 0.79449660E+02</pdfrwt>
<totfact> 0.34513803E+04</totfact>
</mgrwt>
</event>
<event>
 4    1  0.5624886E-001  0.2353934E+02  0.7818608E-02  0.1682914E+00
         -4   -1    0    0    0  501 -0.00000000000E+00  0.00000000000E+00  0.13003267718E+02  0.13080572287E+02  0.14200000000E+01 0. -1.
          4   -1    0    0  501    0  0.00000000000E+00 -0.00000000000E+00 -0.10496275714E+02  0.10591893309E+02  0.14200000000E+01 0.  1.
        -13    1    1    2    0    0 -0.92980633623E+01  0.71865923863E+01  0.60729710755E+00  0.11767798209E+02  0.10570000000E+00 0. -1.
         13    1    1    2    0    0  0.92980633623E+01 -0.71865923863E+01  0.18996948966E+01  0.11904667387E+02  0.10570000000E+00 0.  1.
<mgrwt>
<rscale>  0 0.23539342E+02</rscale>
<asrwt>0</asrwt>
<pdfrwt beam="2">  1        4 0.16281133E-02 0.23539342E+02</pdfrwt>
<pdfrwt beam="1">  1       -4 0.20138044E-02 0.23539342E+02</pdfrwt>
<totfact> 0.91037319E+05</totfact>
</mgrwt>
</event>
<event>
 4    1  0.5624886E-001  0.2046760E+02  0.7818608E-02  0.1736186E+00
          4   -1    0    0  501    0  0.00000000000E+00  0.00000000000E+00  0.22197501615E+02  0.22242874768E+02  0.14200000000E+01 0.  1.
         -4   -1    0    0    0  501 -0.00000000000E+00 -0.00000000000E+00 -0.45598315266E+01  0.47758207201E+01  0.14200000000E+01 0. -1.
        -13    1    1    2    0    0  0.17257344348E+01 -0.99874281763E+01  0.10682228190E+02  0.14725761525E+02  0.10570000000E+00 0.  1.
         13    1    1    2    0    0 -0.17257344348E+01  0.99874281763E+01  0.69554418988E+01  0.12292933963E+02  0.10570000000E+00 0. -1.
<mgrwt>
<rscale>  0 0.20467596E+02</rscale>
<asrwt>0</asrwt>
<pdfrwt beam="1">  1        4 0.34351050E-02 0.20467596E+02</pdfrwt>
<pdfrwt beam="2">  1       -4 0.72161734E-03 0.20467596E+02</pdfrwt>
<totfact> 0.12031840E+06</totfact>
</mgrwt>
</event>
<event>
 4    1  0.5624886E-001  0.2024515E+02  0.7818608E-02  0.1740496E+00
         -4   -1    0    0    0  501 -0.00000000000E+00  0.00000000000E+00  0.27030036154E+01  0.30532979784E+01  0.14200000000E+01 0.  1.
          4   -1    0    0  501    0  0.00000000000E+00 -0.00000000000E+00 -0.35236054122E+02  0.35264655252E+02  0.14200000000E+01 0. -1.
        -13    1    1    2    0    0 -0.46301512360E+01  0.90004222460E+01 -0.16082363004E+02  0.19002617540E+02  0.10570000000E+00 0. -1.
         13    1    1    2    0    0  0.46301512360E+01 -0.90004222460E+01 -0.16450687502E+02  0.19315335691E+02  0.10570000000E+00 0.  1.
<mgrwt>
<rscale>  0 0.20245152E+02</rscale>
<asrwt>0</asrwt>
<pdfrwt beam="2">  1        4 0.54500769E-02 0.20245152E+02</pdfrwt>
<pdfrwt beam="1">  1       -4 0.44499254E-03 0.20245152E+02</pdfrwt>
<totfact> 0.11747607E+06</totfact>
</mgrwt>
</event>
<event>
 4    1  0.5624886E-001  0.2761607E+02  0.7818608E-02  0.1626041E+00
         -4   -1    0    0    0  501 -0.00000000000E+00  0.00000000000E+00  0.87626939325E+02  0.87638444164E+02  0.14200000000E+01 0.  1.
          4   -1    0    0  501    0  0.00000000000E+00 -0.00000000000E+00 -0.19312427913E+01  0.23971021503E+01  0.14200000000E+01 0. -1.
        -13    1    1    2    0    0 -0.11557559708E+02  0.21526411163E+01  0.19238622126E+02  0.22546547495E+02  0.10570000000E+00 0. -1.
         13    1    1    2    0    0  0.11557559708E+02 -0.21526411163E+01  0.66457074408E+02  0.67488998819E+02  0.10570000000E+00 0.  1.
<mgrwt>
<rscale>  0 0.27616068E+02</rscale>
<asrwt>0</asrwt>
<pdfrwt beam="2">  1        4 0.33383465E-03 0.27616068E+02</pdfrwt>
<pdfrwt beam="1">  1       -4 0.13517786E-01 0.27616068E+02</pdfrwt>
<totfact> 0.51307195E+05</totfact>
</mgrwt>
</event>
<event>
 4    1  0.5624886E-001  0.2195524E+02  0.7818608E-02  0.1709027E+00
          4   -1    0    0  501    0  0.00000000000E+00  0.00000000000E+00  0.59406628030E+02  0.59423596776E+02  0.14200000000E+01 0. -1.
         -4   -1    0    0    0  501 -0.00000000000E+00 -0.00000000000E+00 -0.17605932771E+01  0.22618772485E+01  0.14200000000E+01 0.  1.
        -13    1    1    2    0    0 -0.78953595208E+01  0.63751370949E+01  0.17063616934E+02  0.19853394427E+02  0.10570000000E+00 0. -1.
         13    1    1    2    0    0  0.78953595208E+01 -0.63751370949E+01  0.40582417819E+02  0.41832079597E+02  0.10570000000E+00 0.  1.
<mgrwt>
<rscale>  0 0.21955236E+02</rscale>
<asrwt>0</asrwt>
<pdfrwt beam="1">  1        4 0.91793457E-02 0.21955236E+02</pdfrwt>
<pdfrwt beam="2">  1       -4 0.31072614E-03 0.21955236E+02</pdfrwt>
<totfact> 0.91347830E+05</totfact>
</mgrwt>
</event>
<event>
 4    1  0.5624886E-001  0.2540657E+02  0.7818608E-02  0.1655230E+00
          4   -1    0    0  501    0  0.00000000000E+00  0.00000000000E+00  0.14099713994E+01  0.20011045318E+01  0.14200000000E+01 0.  1.
         -4   -1    0    0    0  501 -0.00000000000E+00 -0.00000000000E+00 -0.94019878619E+02  0.94030601271E+02  0.14200000000E+01 0. -1.
        -13    1    1    2    0    0  0.12175501989E+02 -0.85178847554E+00 -0.32998217353E+02  0.35183261834E+02  0.10570000000E+00 0. -1.
         13    1    1    2    0    0 -0.12175501989E+02  0.85178847554E+00 -0.59611689866E+02  0.60848443969E+02  0.10570000000E+00 0.  1.
<mgrwt>
<rscale>  0 0.25406566E+02</rscale>
<asrwt>0</asrwt>
<pdfrwt beam="1">  1        4 0.26321535E-03 0.25406566E+02</pdfrwt>
<pdfrwt beam="2">  1       -4 0.14510889E-01 0.25406566E+02</pdfrwt>
<totfact> 0.60403472E+05</totfact>
</mgrwt>
</event>
<event>
 4    1  0.5624886E-001  0.2467087E+02  0.7818608E-02  0.1665775E+00
         -4   -1    0    0    0  501 -0.00000000000E+00  0.00000000000E+00  0.78889852761E+01  0.80157650095E+01  0.14200000000E+01 0.  1.
          4   -1    0    0  501    0  0.00000000000E+00 -0.00000000000E+00 -0.18980770313E+02  0.19033813115E+02  0.14200000000E+01 0. -1.
        -13    1    1    2    0    0 -0.10137137636E+02 -0.44134480046E+01 -0.11542378399E+02  0.15983671491E+02  0.10570000000E+00 0. -1.
         13    1    1    2    0    0  0.10137137636E+02  0.44134480046E+01  0.45059336218E+00  0.11065906633E+02  0.10570000000E+00 0.  1.
<mgrwt>
<rscale>  0 0.24670873E+02</rscale>
<asrwt>0</asrwt>
<pdfrwt beam="2">  1        4 0.29339510E-02 0.24670873E+02</pdfrwt>
<pdfrwt beam="1">  1       -4 0.12275226E-02 0.24670873E+02</pdfrwt>
<totfact> 0.81151064E+05</totfact>
</mgrwt>
</event>
<event>
 4    1  0.5624886E-001  0.3008845E+02  0.7818608E-02  0.1597113E+00
          4   -1    0    0  501    0  0.00000000000E+00  0.00000000000E+00  0.57760755111E+01  0.59480625677E+01  0.14200000000E+01 0. -1.
         -4   -1    0    0    0  501 -0.00000000000E+00 -0.00000000000E+00 -0.38423725796E+02  0.38449955839E+02  0.14200000000E+01 0.  1.
        -13    1    1    2    0    0 -0.24405017644E+01 -0.12030141136E+02 -0.34907265647E+01  0.12762315192E+02  0.10570000000E+00 0. -1.
         13    1    1    2    0    0  0.24405017644E+01  0.12030141136E+02 -0.29156923720E+02  0.31635703215E+02  0.10570000000E+00 0.  1.
<mgrwt>
<rscale>  0 0.30088452E+02</rscale>
<asrwt>0</asrwt>
<pdfrwt beam="1">  1        4 0.90387449E-03 0.30088452E+02</pdfrwt>
<pdfrwt beam="2">  1       -4 0.59265898E-02 0.30088452E+02</pdfrwt>
<totfact> 0.49021623E+05</totfact>
</mgrwt>
</event>
<event>
 4    1  0.5624886E-001  0.3898904E+02  0.7818608E-02  0.1515786E+00
         -4   -1    0    0    0  501 -0.00000000000E+00  0.00000000000E+00  0.54907549417E+01  0.56714010465E+01  0.14200000000E+01 0.  1.
          4   -1    0    0  501    0  0.00000000000E+00 -0.00000000000E+00 -0.67905524522E+02  0.67920369998E+02  0.14200000000E+01 0. -1.
        -13    1    1    2    0    0  0.12934673520E+02 -0.14584437534E+02 -0.31427148012E+02  0.36982271455E+02  0.10570000000E+00 0. -1.
         13    1    1    2    0    0 -0.12934673520E+02  0.14584437534E+02 -0.30987621568E+02  0.36609499590E+02  0.10570000000E+00 0.  1.
<mgrwt>
<rscale>  0 0.38989041E+02</rscale>
<asrwt>0</asrwt>
<pdfrwt beam="2">  1        4 0.10462041E-01 0.38989041E+02</pdfrwt>
<pdfrwt beam="1">  1       -4 0.85976939E-03 0.38989041E+02</pdfrwt>
<totfact> 0.24544059E+05</totfact>
</mgrwt>
</event>
<event>
 4    1  0.5624886E-001  0.2139174E+02  0.7818608E-02  0.1718989E+00
         -4   -1    0    0    0  501 -0.00000000000E+00  0.00000000000E+00  0.73344943764E+02  0.73358688482E+02  0.14200000000E+01 0. -1.
          4   -1    0    0  501    0  0.00000000000E+00 -0.00000000000E+00 -0.12197559224E+01  0.18719520588E+01  0.14200000000E+01 0.  1.
        -13    1    1    2    0    0  0.15548631836E+01  0.10560888102E+02  0.33728457998E+02  0.35377535365E+02  0.10570000000E+00 0. -1.
         13    1    1    2    0    0 -0.15548631836E+01 -0.10560888102E+02  0.38396729843E+02  0.39853105176E+02  0.10570000000E+00 0.  1.
<mgrwt>
<rscale>  0 0.21391740E+02</rscale>
<asrwt>0</asrwt>
<pdfrwt beam="2">  1        4 0.23888100E-03 0.21391740E+02</pdfrwt>
<pdfrwt beam="1">  1       -4 0.11335063E-01 0.21391740E+02</pdfrwt>
<totfact> 0.92202295E+05</totfact>
</mgrwt>
</event>
<event>
 4    1  0.5624886E-001  0.2482715E+02  0.7818608E-02  0.1663497E+00
         -4   -1    0    0    0  501 -0.00000000000E+00  0.00000000000E+00  0.80164148024E+01  0.81412103697E+01  0.14200000000E+01 0.  1.
          4   -1    0    0  501    0  0.00000000000E+00 -0.00000000000E+00 -0.18922590151E+02  0.18975795583E+02  0.14200000000E+01 0. -1.
        -13    1    1    2    0    0 -0.36638971012E+01  0.11562022407E+02 -0.25672047369E+01  0.12397831131E+02  0.10570000000E+00 0.  1.
         13    1    1    2    0    0  0.36638971012E+01 -0.11562022407E+02 -0.83389706117E+01  0.14719174822E+02  0.10570000000E+00 0. -1.
<mgrwt>
<rscale>  0 0.24827149E+02</rscale>
<asrwt>0</asrwt>
<pdfrwt beam="2">  1        4 0.29248601E-02 0.24827149E+02</pdfrwt>
<pdfrwt beam="1">  1       -4 0.12469870E-02 0.24827149E+02</pdfrwt>
<totfact> 0.80025579E+05</totfact>
</mgrwt>
</event>
<event>
 4    1  0.5624886E-001  0.7385298E+02  0.7818608E-02  0.1347460E+00
          4   -1    0    0  501    0  0.00000000000E+00  0.00000000000E+00  0.44814893103E+02  0.44837384445E+02  0.14200000000E+01 0. -1.
         -4   -1    0    0    0  501 -0.00000000000E+00 -0.00000000000E+00 -0.30379905563E+02  0.30413073867E+02  0.14200000000E+01 0.  1.
        -13    1    1    2    0    0 -0.15568782946E+02  0.33436503947E+02  0.90309700760E+01  0.37973100896E+02  0.10570000000E+00 0. -1.
         13    1    1    2    0    0  0.15568782946E+02 -0.33436503947E+02  0.54040174642E+01  0.37277357416E+02  0.10570000000E+00 0.  1.
<mgrwt>
<rscale>  0 0.73852980E+02</rscale>
<asrwt>0</asrwt>
<pdfrwt beam="1">  1        4 0.68988804E-02 0.73852980E+02</pdfrwt>
<pdfrwt beam="2">  1       -4 0.46781132E-02 0.73852980E+02</pdfrwt>
<totfact> 0.49397719E+04</totfact>
</mgrwt>
</event>
<event>
 4    1  0.5624886E-001  0.2445088E+02  0.7818608E-02  0.1669017E+00
         -4   -1    0    0    0  501 -0.00000000000E+00  0.00000000000E+00  0.19351707308E+02  0.19403736128E+02  0.14200000000E+01 0. -1.
          4   -1    0    0  501    0  0.00000000000E+00 -0.00000000000E+00 -0.75951343646E+01  0.77267370873E+01  0.14200000000E+01 0.  1.
        -13    1    1    2    0    0 -0.38891908379E+01 -0.10696831361E+02  0.10828381657E+02  0.15710284159E+02  0.10570000000E+00 0. -1.
         13    1    1    2    0    0  0.38891908379E+01  0.10696831361E+02  0.92819128619E+00  0.11420189057E+02  0.10570000000E+00 0.  1.
<mgrwt>
<rscale>  0 0.24450881E+02</rscale>
<asrwt>0</asrwt>
<pdfrwt beam="2">  1        4 0.11826077E-02 0.24450881E+02</pdfrwt>
<pdfrwt beam="1">  1       -4 0.29913113E-02 0.24450881E+02</pdfrwt>
<totfact> 0.82711783E+05</totfact>
</mgrwt>
</event>
<event>
 4    1  0.5624886E-001  0.3532631E+02  0.7818608E-02  0.1545722E+00
         -4   -1    0    0    0  501 -0.00000000000E+00  0.00000000000E+00  0.29175690518E+02  0.29210226244E+02  0.14200000000E+01 0. -1.
          4   -1    0    0  501    0  0.00000000000E+00 -0.00000000000E+00 -0.10605178028E+02  0.10699822475E+02  0.14200000000E+01 0.  1.
        -13    1    1    2    0    0  0.66901125819E+00  0.15923747717E+02  0.68408395509E+00  0.15952819838E+02  0.10570000000E+00 0.  1.
         13    1    1    2    0    0 -0.66901125819E+00 -0.15923747717E+02  0.17886428535E+02  0.23957228881E+02  0.10570000000E+00 0. -1.
<mgrwt>
<rscale>  0 0.35326308E+02</rscale>
<asrwt>0</asrwt>
<pdfrwt beam="2">  1        4 0.16415028E-02 0.35326308E+02</pdfrwt>
<pdfrwt beam="1">  1       -4 0.44985047E-02 0.35326308E+02</pdfrwt>
<totfact> 0.34461414E+05</totfact>
</mgrwt>
</event>
<event>
 4    1  0.5624886E-001  0.1157163E+03  0.7818608E-02  0.1250336E+00
          4   -1    0    0  501    0  0.00000000000E+00  0.00000000000E+00  0.33845773622E+02  0.33875548587E+02  0.14200000000E+01 0. -1.
         -4   -1    0    0    0  501 -0.00000000000E+00 -0.00000000000E+00 -0.98828019833E+02  0.98838220867E+02  0.14200000000E+01 0.  1.
        -13    1    1    2    0    0 -0.25233654379E+02  0.26415454362E+02 -0.83948498338E+02  0.91552581002E+02  0.10570000000E+00 0.  1.
         13    1    1    2    0    0  0.25233654379E+02 -0.26415454362E+02  0.18966252127E+02  0.41161188451E+02  0.10570000000E+00 0. -1.
<mgrwt>
<rscale>  0 0.11571626E+03</rscale>
<asrwt>0</asrwt>
<pdfrwt beam="1">  1        4 0.52101172E-02 0.11571626E+03</pdfrwt>
<pdfrwt beam="2">  1       -4 0.15207386E-01 0.11571626E+03</pdfrwt>
<totfact> 0.12773811E+04</totfact>
</mgrwt>
</event>
<event>
 4    1  0.5624886E-001  0.2461338E+02  0.7818608E-02  0.1666618E+00
          4   -1    0    0  501    0  0.00000000000E+00  0.00000000000E+00  0.18420197183E+01  0.23258195637E+01  0.14200000000E+01 0. -1.
         -4   -1    0    0    0  501 -0.00000000000E+00 -0.00000000000E+00 -0.72186184235E+02  0.72200149546E+02  0.14200000000E+01 0.  1.
        -13    1    1    2    0    0 -0.45133508091E+01 -0.95654788300E+01 -0.16124254835E+02  0.19283969697E+02  0.10570000000E+00 0. -1.
         13    1    1    2    0    0  0.45133508091E+01  0.95654788300E+01 -0.54219909682E+02  0.55241999413E+02  0.10570000000E+00 0.  1.
<mgrwt>
<rscale>  0 0.24613382E+02</rscale>
<asrwt>0</asrwt>
<pdfrwt beam="1">  1        4 0.32167733E-03 0.24613382E+02</pdfrwt>
<pdfrwt beam="2">  1       -4 0.11143854E-01 0.24613382E+02</pdfrwt>
<totfact> 0.68930257E+05</totfact>
</mgrwt>
</event>
<event>
 4    1  0.5624886E-001  0.2030094E+02  0.7818608E-02  0.1739409E+00
          4   -1    0    0  501    0  0.00000000000E+00  0.00000000000E+00  0.14218808854E+02  0.14289539014E+02  0.14200000000E+01 0.  1.
         -4   -1    0    0    0  501 -0.00000000000E+00 -0.00000000000E+00 -0.70868668179E+01  0.72277300236E+01  0.14200000000E+01 0. -1.
        -13    1    1    2    0    0 -0.39976459266E+01  0.92892899150E+01  0.26487834338E+01  0.10454630852E+02  0.10570000000E+00 0. -1.
         13    1    1    2    0    0  0.39976459266E+01 -0.92892899150E+01  0.44831586022E+01  0.11062638185E+02  0.10570000000E+00 0.  1.
<mgrwt>
<rscale>  0 0.20300943E+02</rscale>
<asrwt>0</asrwt>
<pdfrwt beam="1">  1        4 0.22037855E-02 0.20300943E+02</pdfrwt>
<pdfrwt beam="2">  1       -4 0.11065636E-02 0.20300943E+02</pdfrwt>
<totfact> 0.12535351E+06</totfact>
</mgrwt>
</event>
<event>
 4    1  0.5624886E-001  0.2561674E+02  0.7818608E-02  0.1652298E+00
          4   -1    0    0  501    0  0.00000000000E+00  0.00000000000E+00  0.88327852985E+01  0.89462000944E+01  0.14200000000E+01 0. -1.
         -4   -1    0    0    0  501 -0.00000000000E+00 -0.00000000000E+00 -0.18313780888E+02  0.18368749832E+02  0.14200000000E+01 0.  1.
        -13    1    1    2    0    0 -0.94408102472E+01 -0.58807723184E+01 -0.11512151578E+02  0.16007910158E+02  0.10570000000E+00 0.  1.
         13    1    1    2    0    0  0.94408102472E+01  0.58807723184E+01  0.20311559890E+01  0.11307039768E+02  0.10570000000E+00 0. -1.
<mgrwt>
<rscale>  0 0.25616737E+02</rscale>
<asrwt>0</asrwt>
<pdfrwt beam="1">  1        4 0.13718426E-02 0.25616737E+02</pdfrwt>
<pdfrwt beam="2">  1       -4 0.28304573E-02 0.25616737E+02</pdfrwt>
<totfact> 0.74692598E+05</totfact>
</mgrwt>
</event>
<event>
 4    1  0.5624886E-001  0.4621074E+02  0.7818608E-02  0.1466922E+00
         -4   -1    0    0    0  501 -0.00000000000E+00  0.00000000000E+00  0.90302110185E+01  0.91411766770E+01  0.14200000000E+01 0.  1.
          4   -1    0    0  501    0  0.00000000000E+00 -0.00000000000E+00 -0.58638483499E+02  0.58655674466E+02  0.14200000000E+01 0. -1.
        -13    1    1    2    0    0  0.12516696046E+02 -0.13939923855E+01  0.36155235118E+01  0.13103208670E+02  0.10570000000E+00 0.  1.
         13    1    1    2    0    0 -0.12516696046E+02  0.13939923855E+01 -0.53223795992E+02  0.54693642473E+02  0.10570000000E+00 0. -1.
<mgrwt>
<rscale>  0 0.46210738E+02</rscale>
<asrwt>0</asrwt>
<pdfrwt beam="2">  1        4 0.90311631E-02 0.46210738E+02</pdfrwt>
<pdfrwt beam="1">  1       -4 0.13991215E-02 0.46210738E+02</pdfrwt>
<totfact> 0.16595195E+05</totfact>
</mgrwt>
</event>
<event>
 4    1  0.5624886E-001  0.2133997E+02  0.7818608E-02  0.1719923E+00
         -4   -1    0    0    0  501 -0.00000000000E+00  0.00000000000E+00  0.30092648796E+01  0.33274727821E+01  0.14200000000E+01 0. -1.
          4   -1    0    0  501    0  0.00000000000E+00 -0.00000000000E+00 -0.35599795138E+02  0.35628104270E+02  0.14200000000E+01 0.  1.
        -13    1    1    2    0    0 -0.90356471875E+01 -0.47385538781E+01 -0.21992558397E+02  0.24244187144E+02  0.10570000000E+00 0.  1.
         13    1    1    2    0    0  0.90356471875E+01  0.47385538781E+01 -0.10597971862E+02  0.14711389908E+02  0.10570000000E+00 0. -1.
<mgrwt>
<rscale>  0 0.21339970E+02</rscale>
<asrwt>0</asrwt>
<pdfrwt beam="2">  1        4 0.55035464E-02 0.21339970E+02</pdfrwt>
<pdfrwt beam="1">  1       -4 0.48961901E-03 0.21339970E+02</pdfrwt>
<totfact> 0.10515464E+06</totfact>
</mgrwt>
</event>
<event>
 4    1  0.5624886E-001  0.2570651E+02  0.7818608E-02  0.1651057E+00
          4   -1    0    0  501    0  0.00000000000E+00  0.00000000000E+00  0.20920537308E+02  0.20968673808E+02  0.14200000000E+01 0. -1.
         -4   -1    0    0    0  501 -0.00000000000E+00 -0.00000000000E+00 -0.77752568669E+01  0.79038610405E+01  0.14200000000E+01 0.  1.
        -13    1    1    2    0    0  0.11886557463E+02 -0.21184815676E+01  0.11521793664E+02  0.16689551049E+02  0.10570000000E+00 0.  1.
         13    1    1    2    0    0 -0.11886557463E+02  0.21184815676E+01  0.16234867769E+01  0.12182983800E+02  0.10570000000E+00 0. -1.
<mgrwt>
<rscale>  0 0.25706514E+02</rscale>
<asrwt>0</asrwt>
<pdfrwt beam="1">  1        4 0.32321397E-02 0.25706514E+02</pdfrwt>
<pdfrwt beam="2">  1       -4 0.12097888E-02 0.25706514E+02</pdfrwt>
<totfact> 0.73657481E+05</totfact>
</mgrwt>
</event>
<event>
 4    1  0.5624886E-001  0.2875239E+02  0.7818608E-02  0.1612303E+00
          4   -1    0    0  501    0  0.00000000000E+00  0.00000000000E+00  0.48877971108E+02  0.48898593636E+02  0.14200000000E+01 0. -1.
         -4   -1    0    0    0  501 -0.00000000000E+00 -0.00000000000E+00 -0.40870192442E+01  0.43266761264E+01  0.14200000000E+01 0.  1.
        -13    1    1    2    0    0 -0.11263161281E+02 -0.24251061700E+01  0.64793897388E+01  0.13218683968E+02  0.10570000000E+00 0.  1.
         13    1    1    2    0    0  0.11263161281E+02  0.24251061700E+01  0.38311562125E+02  0.40006585794E+02  0.10570000000E+00 0. -1.
<mgrwt>
<rscale>  0 0.28752391E+02</rscale>
<asrwt>0</asrwt>
<pdfrwt beam="1">  1        4 0.75397095E-02 0.28752391E+02</pdfrwt>
<pdfrwt beam="2">  1       -4 0.64879367E-03 0.28752391E+02</pdfrwt>
<totfact> 0.52643756E+05</totfact>
</mgrwt>
</event>
<event>
 4    1  0.5624886E-001  0.2107517E+02  0.7818608E-02  0.1724755E+00
         -4   -1    0    0    0  501 -0.00000000000E+00  0.00000000000E+00  0.17274107680E+01  0.22361457827E+01  0.14200000000E+01 0. -1.
          4   -1    0    0  501    0  0.00000000000E+00 -0.00000000000E+00 -0.55511853444E+02  0.55530012361E+02  0.14200000000E+01 0.  1.
        -13    1    1    2    0    0  0.91720404801E+01 -0.51682599176E+01 -0.25690322750E+02  0.27764025151E+02  0.10570000000E+00 0.  1.
         13    1    1    2    0    0 -0.91720404801E+01  0.51682599176E+01 -0.28094119926E+02  0.30002132992E+02  0.10570000000E+00 0. -1.
<mgrwt>
<rscale>  0 0.21075169E+02</rscale>
<asrwt>0</asrwt>
<pdfrwt beam="2">  1        4 0.85808143E-02 0.21075169E+02</pdfrwt>
<pdfrwt beam="1">  1       -4 0.30628585E-03 0.21075169E+02</pdfrwt>
<totfact> 0.10072737E+06</totfact>
</mgrwt>
</event>
<event>
 4    1  0.5624886E-001  0.3907650E+02  0.7818608E-02  0.1515120E+00
         -4   -1    0    0    0  501 -0.00000000000E+00  0.00000000000E+00  0.28247215215E+02  0.28282884708E+02  0.14200000000E+01 0. -1.
          4   -1    0    0  501    0  0.00000000000E+00 -0.00000000000E+00 -0.13432721592E+02  0.13507568595E+02  0.14200000000E+01 0.  1.
        -13    1    1    2    0    0  0.12090046310E+02 -0.11874636623E+02  0.17806580956E+02  0.24581735344E+02  0.10570000000E+00 0.  1.
         13    1    1    2    0    0 -0.12090046310E+02  0.11874636623E+02 -0.29920873328E+01  0.17208717959E+02  0.10570000000E+00 0. -1.
<mgrwt>
<rscale>  0 0.39076499E+02</rscale>
<asrwt>0</asrwt>
<pdfrwt beam="2">  1        4 0.20750738E-02 0.39076499E+02</pdfrwt>
<pdfrwt beam="1">  1       -4 0.43542266E-02 0.39076499E+02</pdfrwt>
<totfact> 0.26981452E+05</totfact>
</mgrwt>
</event>
<event>
 4    1  0.5624886E-001  0.2554587E+02  0.7818608E-02  0.1653283E+00
         -4   -1    0    0    0  501 -0.00000000000E+00  0.00000000000E+00  0.42573087796E+01  0.44878812422E+01  0.14200000000E+01 0. -1.
          4   -1    0    0  501    0  0.00000000000E+00 -0.00000000000E+00 -0.37066931399E+02  0.37094120873E+02  0.14200000000E+01 0.  1.
        -13    1    1    2    0    0 -0.10294842451E+02  0.66376603152E+01 -0.22294977078E+02  0.25438543412E+02  0.10570000000E+00 0. -1.
         13    1    1    2    0    0  0.10294842451E+02 -0.66376603152E+01 -0.10514645542E+02  0.16143458703E+02  0.10570000000E+00 0.  1.
<mgrwt>
<rscale>  0 0.25545872E+02</rscale>
<asrwt>0</asrwt>
<pdfrwt beam="2">  1        4 0.57224325E-02 0.25545872E+02</pdfrwt>
<pdfrwt beam="1">  1       -4 0.67479845E-03 0.25545872E+02</pdfrwt>
<totfact> 0.71111402E+05</totfact>
</mgrwt>
</event>
<event>
 4    1  0.5624886E-001  0.3182204E+02  0.7818608E-02  0.1578780E+00
         -4   -1    0    0    0  501 -0.00000000000E+00  0.00000000000E+00  0.43143614762E+01  0.45420386334E+01  0.14200000000E+01 0. -1.
          4   -1    0    0  501    0  0.00000000000E+00 -0.00000000000E+00 -0.56933335998E+02  0.56951041675E+02  0.14200000000E+01 0.  1.
        -13    1    1    2    0    0  0.12536081847E+02  0.84082906827E+01 -0.36028685766E+02  0.39063154901E+02  0.10570000000E+00 0.  1.
         13    1    1    2    0    0 -0.12536081847E+02 -0.84082906827E+01 -0.16590288755E+02  0.22429925407E+02  0.10570000000E+00 0. -1.
<mgrwt>
<rscale>  0 0.31822043E+02</rscale>
<asrwt>0</asrwt>
<pdfrwt beam="2">  1        4 0.87778498E-02 0.31822043E+02</pdfrwt>
<pdfrwt beam="1">  1       -4 0.68262357E-03 0.31822043E+02</pdfrwt>
<totfact> 0.40783034E+05</totfact>
</mgrwt>
</event>
<event>
 4    1  0.5624886E-001  0.2194308E+02  0.7818608E-02  0.1709238E+00
          4   -1    0    0  501    0  0.00000000000E+00  0.00000000000E+00  0.20234447604E+02  0.20284212329E+02  0.14200000000E+01 0.  1.
         -4   -1    0    0    0  501 -0.00000000000E+00 -0.00000000000E+00 -0.58062620112E+01  0.59773805754E+01  0.14200000000E+01 0. -1.
        -13    1    1    2    0    0  0.23326864763E+01  0.10357856363E+02  0.39067298113E+01  0.11313722860E+02  0.10570000000E+00 0. -1.
         13    1    1    2    0    0 -0.23326864763E+01 -0.10357856363E+02  0.10521455781E+02  0.14947870045E+02  0.10570000000E+00 0.  1.
<mgrwt>
<rscale>  0 0.21943079E+02</rscale>
<asrwt>0</asrwt>
<pdfrwt beam="1">  1        4 0.31299829E-02 0.21943079E+02</pdfrwt>
<pdfrwt beam="2">  1       -4 0.91026213E-03 0.21943079E+02</pdfrwt>
<totfact> 0.10445748E+06</totfact>
</mgrwt>
</event>
<event>
 4    1  0.5624886E-001  0.3208866E+02  0.7818608E-02  0.1576086E+00
          4   -1    0    0  501    0  0.00000000000E+00  0.00000000000E+00  0.24844807452E+02  0.24885354274E+02  0.14200000000E+01 0.  1.
         -4   -1    0    0    0  501 -0.00000000000E+00 -0.00000000000E+00 -0.10263224123E+02  0.10360992684E+02  0.14200000000E+01 0. -1.
        -13    1    1    2    0    0 -0.63701709170E+01  0.14703544539E+02  0.64147296541E+01  0.17260742410E+02  0.10570000000E+00 0.  1.
         13    1    1    2    0    0  0.63701709170E+01 -0.14703544539E+02  0.81668536757E+01  0.17985604548E+02  0.10570000000E+00 0. -1.
<mgrwt>
<rscale>  0 0.32088665E+02</rscale>
<asrwt>0</asrwt>
<pdfrwt beam="1">  1        4 0.38329177E-02 0.32088665E+02</pdfrwt>
<pdfrwt beam="2">  1       -4 0.15895972E-02 0.32088665E+02</pdfrwt>
<totfact> 0.43758293E+05</totfact>
</mgrwt>
</event>
<event>
 4    1  0.5624886E-001  0.4867257E+02  0.7818608E-02  0.1452636E+00
         -4   -1    0    0    0  501 -0.00000000000E+00  0.00000000000E+00  0.85197494273E+01  0.86372756297E+01  0.14200000000E+01 0. -1.
          4   -1    0    0  501    0  0.00000000000E+00 -0.00000000000E+00 -0.68914433077E+02  0.68929061261E+02  0.14200000000E+01 0.  1.
        -13    1    1    2    0    0 -0.58396074881E+01 -0.23609915184E+02 -0.28850348927E+02  0.37734373141E+02  0.10570000000E+00 0.  1.
         13    1    1    2    0    0  0.58396074881E+01  0.23609915184E+02 -0.31544334723E+02  0.39831963750E+02  0.10570000000E+00 0. -1.
<mgrwt>
<rscale>  0 0.48672567E+02</rscale>
<asrwt>0</asrwt>
<pdfrwt beam="2">  1        4 0.10612386E-01 0.48672567E+02</pdfrwt>
<pdfrwt beam="1">  1       -4 0.13208964E-02 0.48672567E+02</pdfrwt>
<totfact> 0.14210702E+05</totfact>
</mgrwt>
</event>
<event>
 4    1  0.5624886E-001  0.3543006E+02  0.7818608E-02  0.1544814E+00
          4   -1    0    0  501    0  0.00000000000E+00  0.00000000000E+00  0.11931463931E+02  0.12015666088E+02  0.14200000000E+01 0. -1.
         -4   -1    0    0    0  501 -0.00000000000E+00 -0.00000000000E+00 -0.26106029553E+02  0.26144620460E+02  0.14200000000E+01 0.  1.
        -13    1    1    2    0    0 -0.13052982479E+02 -0.11420063939E+02 -0.32019621092E+01  0.17636948313E+02  0.10570000000E+00 0. -1.
         13    1    1    2    0    0  0.13052982479E+02  0.11420063939E+02 -0.10972603513E+02  0.20523338235E+02  0.10570000000E+00 0.  1.
<mgrwt>
<rscale>  0 0.35430060E+02</rscale>
<asrwt>0</asrwt>
<pdfrwt beam="1">  1        4 0.18450555E-02 0.35430060E+02</pdfrwt>
<pdfrwt beam="2">  1       -4 0.40257578E-02 0.35430060E+02</pdfrwt>
<totfact> 0.34438196E+05</totfact>
</mgrwt>
</event>
<event>
 4    1  0.5624886E-001  0.2706644E+02  0.7818608E-02  0.1632980E+00
         -4   -1    0    0    0  501 -0.00000000000E+00  0.00000000000E+00  0.59371346326E+02  0.59388325154E+02  0.14200000000E+01 0. -1.
          4   -1    0    0  501    0  0.00000000000E+00 -0.00000000000E+00 -0.29030019553E+01  0.32316900149E+01  0.14200000000E+01 0.  1.
        -13    1    1    2    0    0 -0.98779647184E+01 -0.92274771120E+01  0.29727099598E+02  0.32656272657E+02  0.10570000000E+00 0.  1.
         13    1    1    2    0    0  0.98779647184E+01  0.92274771120E+01  0.26741244772E+02  0.29963742512E+02  0.10570000000E+00 0. -1.
<mgrwt>
<rscale>  0 0.27066444E+02</rscale>
<asrwt>0</asrwt>
<pdfrwt beam="2">  1        4 0.47320543E-03 0.27066444E+02</pdfrwt>
<pdfrwt beam="1">  1       -4 0.91606433E-02 0.27066444E+02</pdfrwt>
<totfact> 0.58302331E+05</totfact>
</mgrwt>
</event>
<event>
 4    1  0.5624886E-001  0.3032476E+02  0.7818608E-02  0.1594526E+00
         -4   -1    0    0    0  501 -0.00000000000E+00  0.00000000000E+00  0.17598650515E+02  0.17655846056E+02  0.14200000000E+01 0.  1.
          4   -1    0    0  501    0  0.00000000000E+00 -0.00000000000E+00 -0.12946103996E+02  0.13023747874E+02  0.14200000000E+01 0. -1.
        -13    1    1    2    0    0 -0.46994774127E+01  0.12616316646E+02  0.93814003379E+01  0.16409703790E+02  0.10570000000E+00 0. -1.
         13    1    1    2    0    0  0.46994774127E+01 -0.12616316646E+02 -0.47288538193E+01  0.14269890140E+02  0.10570000000E+00 0.  1.
<mgrwt>
<rscale>  0 0.30324764E+02</rscale>
<asrwt>0</asrwt>
<pdfrwt beam="2">  1        4 0.20020806E-02 0.30324764E+02</pdfrwt>
<pdfrwt beam="1">  1       -4 0.27178570E-02 0.30324764E+02</pdfrwt>
<totfact> 0.50644690E+05</totfact>
</mgrwt>
</event>
<event>
 4    1  0.5624886E-001  0.2458918E+02  0.7818608E-02  0.1666974E+00
         -4   -1    0    0    0  501 -0.00000000000E+00  0.00000000000E+00  0.27363326627E+02  0.27400146790E+02  0.14200000000E+01 0. -1.
          4   -1    0    0  501    0  0.00000000000E+00 -0.00000000000E+00 -0.53915457162E+01  0.55754071788E+01  0.14200000000E+01 0.  1.
        -13    1    1    2    0    0  0.79161611223E+01  0.89411450147E+01  0.70677597519E+01  0.13877106380E+02  0.10570000000E+00 0.  1.
         13    1    1    2    0    0 -0.79161611223E+01 -0.89411450147E+01  0.14904021159E+02  0.19098447588E+02  0.10570000000E+00 0. -1.
<mgrwt>
<rscale>  0 0.24589185E+02</rscale>
<asrwt>0</asrwt>
<pdfrwt beam="2">  1        4 0.84644409E-03 0.24589185E+02</pdfrwt>
<pdfrwt beam="1">  1       -4 0.42267180E-02 0.24589185E+02</pdfrwt>
<totfact> 0.79810626E+05</totfact>
</mgrwt>
</event>
<event>
 4    1  0.5624886E-001  0.2833222E+02  0.7818608E-02  0.1617291E+00
          4   -1    0    0  501    0  0.00000000000E+00  0.00000000000E+00  0.34288718640E+01  0.37112750181E+01  0.14200000000E+01 0.  1.
         -4   -1    0    0    0  501 -0.00000000000E+00 -0.00000000000E+00 -0.55919564699E+02  0.55937591262E+02  0.14200000000E+01 0. -1.
        -13    1    1    2    0    0 -0.45152397529E+01 -0.12182731927E+02 -0.14361639418E+02  0.19366832640E+02  0.10570000000E+00 0.  1.
         13    1    1    2    0    0  0.45152397529E+01  0.12182731927E+02 -0.38129053417E+02  0.40282033640E+02  0.10570000000E+00 0. -1.
<mgrwt>
<rscale>  0 0.28332215E+02</rscale>
<asrwt>0</asrwt>
<pdfrwt beam="1">  1        4 0.55062877E-03 0.28332215E+02</pdfrwt>
<pdfrwt beam="2">  1       -4 0.86261193E-02 0.28332215E+02</pdfrwt>
<totfact> 0.53241065E+05</totfact>
</mgrwt>
</event>
<event>
 4    1  0.5624886E-001  0.2250921E+02  0.7818608E-02  0.1699591E+00
         -4   -1    0    0    0  501 -0.00000000000E+00  0.00000000000E+00  0.77990193422E+02  0.78003119618E+02  0.14200000000E+01 0. -1.
          4   -1    0    0  501    0  0.00000000000E+00 -0.00000000000E+00 -0.12981389815E+01  0.19239451176E+01  0.14200000000E+01 0.  1.
        -13    1    1    2    0    0  0.32664284217E+01  0.97209468256E+01  0.21885735991E+02  0.24169463671E+02  0.10570000000E+00 0. -1.
         13    1    1    2    0    0 -0.32664284217E+01 -0.97209468256E+01  0.54806318450E+02  0.55757601064E+02  0.10570000000E+00 0.  1.
<mgrwt>
<rscale>  0 0.22509208E+02</rscale>
<asrwt>0</asrwt>
<pdfrwt beam="2">  1        4 0.24884696E-03 0.22509208E+02</pdfrwt>
<pdfrwt beam="1">  1       -4 0.12047624E-01 0.22509208E+02</pdfrwt>
<totfact> 0.81791918E+05</totfact>
</mgrwt>
</event>
<event>
 4    1  0.5624886E-001  0.5071902E+02  0.7818608E-02  0.1441502E+00
          4   -1    0    0  501    0  0.00000000000E+00  0.00000000000E+00  0.23309837358E+01  0.27294477786E+01  0.14200000000E+01 0. -1.
         -4   -1    0    0    0  501 -0.00000000000E+00 -0.00000000000E+00 -0.25376929882E+03  0.25377327169E+03  0.14200000000E+01 0.  1.
        -13    1    1    2    0    0 -0.24533415675E+02 -0.63374565104E+01 -0.12055749017E+03  0.12319160461E+03  0.10570000000E+00 0. -1.
         13    1    1    2    0    0  0.24533415675E+02  0.63374565104E+01 -0.13088082492E+03  0.13331111485E+03  0.10570000000E+00 0.  1.
<mgrwt>
<rscale>  0 0.50719018E+02</rscale>
<asrwt>0</asrwt>
<pdfrwt beam="1">  1        4 0.38956977E-03 0.50719018E+02</pdfrwt>
<pdfrwt beam="2">  1       -4 0.39072367E-01 0.50719018E+02</pdfrwt>
<totfact> 0.85899437E+04</totfact>
</mgrwt>
</event>
<event>
 4    1  0.5624886E-001  0.2595640E+02  0.7818608E-02  0.1647633E+00
         -4   -1    0    0    0  501 -0.00000000000E+00  0.00000000000E+00  0.49842073389E+01  0.51825401877E+01  0.14200000000E+01 0.  1.
          4   -1    0    0  501    0  0.00000000000E+00 -0.00000000000E+00 -0.32920303884E+02  0.32950915128E+02  0.14200000000E+01 0. -1.
        -13    1    1    2    0    0 -0.24093323250E+01 -0.12458247963E+02 -0.99689420696E+01  0.16137032039E+02  0.10570000000E+00 0.  1.
         13    1    1    2    0    0  0.24093323250E+01  0.12458247963E+02 -0.17967154475E+02  0.21996423277E+02  0.10570000000E+00 0. -1.
<mgrwt>
<rscale>  0 0.25956404E+02</rscale>
<asrwt>0</asrwt>
<pdfrwt beam="2">  1        4 0.50822731E-02 0.25956404E+02</pdfrwt>
<pdfrwt beam="1">  1       -4 0.78441223E-03 0.25956404E+02</pdfrwt>
<totfact> 0.69571166E+05</totfact>
</mgrwt>
</event>
<event>
 4    1  0.5624886E-001  0.4627464E+02  0.7818608E-02  0.1466538E+00
          4   -1    0    0  501    0  0.00000000000E+00  0.00000000000E+00  0.20570568691E+02  0.20619522212E+02  0.14200000000E+01 0. -1.
         -4   -1    0    0    0  501 -0.00000000000E+00 -0.00000000000E+00 -0.25925013782E+02  0.25963873740E+02  0.14200000000E+01 0.  1.
        -13    1    1    2    0    0  0.15808471840E+02  0.20620131480E+01  0.14202626109E+02  0.21351473977E+02  0.10570000000E+00 0. -1.
         13    1    1    2    0    0 -0.15808471840E+02 -0.20620131480E+01 -0.19557071200E+02  0.25231921975E+02  0.10570000000E+00 0.  1.
<mgrwt>
<rscale>  0 0.46274644E+02</rscale>
<asrwt>0</asrwt>
<pdfrwt beam="1">  1        4 0.31714578E-02 0.46274644E+02</pdfrwt>
<pdfrwt beam="2">  1       -4 0.39952185E-02 0.46274644E+02</pdfrwt>
<totfact> 0.17644827E+05</totfact>
</mgrwt>
</event>
<event>
 4    1  0.5624886E-001  0.2221749E+02  0.7818608E-02  0.1704518E+00
          4   -1    0    0  501    0  0.00000000000E+00  0.00000000000E+00  0.68394084465E+00  0.15761266063E+01  0.14200000000E+01 0.  1.
         -4   -1    0    0    0  501 -0.00000000000E+00 -0.00000000000E+00 -0.10830529197E+03  0.10831460044E+03  0.14200000000E+01 0. -1.
        -13    1    1    2    0    0 -0.75798558963E+01  0.79433604558E+01 -0.62148702112E+02  0.63111199778E+02  0.10570000000E+00 0. -1.
         13    1    1    2    0    0  0.75798558963E+01 -0.79433604558E+01 -0.45472649010E+02  0.46779527266E+02  0.10570000000E+00 0.  1.
<mgrwt>
<rscale>  0 0.22217486E+02</rscale>
<asrwt>0</asrwt>
<pdfrwt beam="1">  1        4 0.17456746E-03 0.22217486E+02</pdfrwt>
<pdfrwt beam="2">  1       -4 0.16731690E-01 0.22217486E+02</pdfrwt>
<totfact> 0.76980038E+05</totfact>
</mgrwt>
</event>
<event>
 4    1  0.5624886E-001  0.6257160E+02  0.7818608E-02  0.1387346E+00
          4   -1    0    0  501    0  0.00000000000E+00  0.00000000000E+00  0.18102963496E+03  0.18103520412E+03  0.14200000000E+01 0.  1.
         -4   -1    0    0    0  501 -0.00000000000E+00 -0.00000000000E+00 -0.53078713907E+01  0.54945335289E+01  0.14200000000E+01 0. -1.
        -13    1    1    2    0    0 -0.27241302479E+01  0.28945431849E+02  0.12230872942E+03  0.12571672671E+03  0.10570000000E+00 0.  1.
         13    1    1    2    0    0  0.27241302479E+01 -0.28945431849E+02  0.53413034146E+02  0.60813010941E+02  0.10570000000E+00 0. -1.
<mgrwt>
<rscale>  0 0.62571598E+02</rscale>
<asrwt>0</asrwt>
<pdfrwt beam="1">  1        4 0.27865497E-01 0.62571598E+02</pdfrwt>
<pdfrwt beam="2">  1       -4 0.83138272E-03 0.62571598E+02</pdfrwt>
<totfact> 0.58598524E+04</totfact>
</mgrwt>
</event>
<event>
 4    1  0.5624886E-001  0.2756526E+02  0.7818608E-02  0.1626674E+00
         -4   -1    0    0    0  501 -0.00000000000E+00  0.00000000000E+00  0.13965193126E+02  0.14037201254E+02  0.14200000000E+01 0.  1.
          4   -1    0    0  501    0  0.00000000000E+00 -0.00000000000E+00 -0.13458015293E+02  0.13532722403E+02  0.14200000000E+01 0. -1.
        -13    1    1    2    0    0 -0.48179378165E+01 -0.11711751897E+02 -0.51853490764E+01  0.13684906826E+02  0.10570000000E+00 0.  1.
         13    1    1    2    0    0  0.48179378165E+01  0.11711751897E+02  0.56925269095E+01  0.13885016831E+02  0.10570000000E+00 0. -1.
<mgrwt>
<rscale>  0 0.27565258E+02</rscale>
<asrwt>0</asrwt>
<pdfrwt beam="2">  1        4 0.20817497E-02 0.27565258E+02</pdfrwt>
<pdfrwt beam="1">  1       -4 0.21597770E-02 0.27565258E+02</pdfrwt>
<totfact> 0.63494453E+05</totfact>
</mgrwt>
</event>
<event>
 4    1  0.5624886E-001  0.2255792E+02  0.7818608E-02  0.1698778E+00
         -4   -1    0    0    0  501 -0.00000000000E+00  0.00000000000E+00  0.26086855793E+01  0.29701246525E+01  0.14200000000E+01 0.  1.
          4   -1    0    0  501    0  0.00000000000E+00 -0.00000000000E+00 -0.45233154262E+02  0.45255437734E+02  0.14200000000E+01 0. -1.
        -13    1    1    2    0    0  0.20343626840E+01 -0.10860734570E+02 -0.26144698019E+02  0.28383984814E+02  0.10570000000E+00 0. -1.
         13    1    1    2    0    0 -0.20343626840E+01  0.10860734570E+02 -0.16479770664E+02  0.19841577572E+02  0.10570000000E+00 0.  1.
<mgrwt>
<rscale>  0 0.22557915E+02</rscale>
<asrwt>0</asrwt>
<pdfrwt beam="2">  1        4 0.69884634E-02 0.22557915E+02</pdfrwt>
<pdfrwt beam="1">  1       -4 0.43085340E-03 0.22557915E+02</pdfrwt>
<totfact> 0.90485652E+05</totfact>
</mgrwt>
</event>
<event>
 4    1  0.5624886E-001  0.9921920E+02  0.7818608E-02  0.1281946E+00
          4   -1    0    0  501    0  0.00000000000E+00  0.00000000000E+00  0.41216787238E+02  0.41241240891E+02  0.14200000000E+01 0.  1.
         -4   -1    0    0    0  501 -0.00000000000E+00 -0.00000000000E+00 -0.59660801119E+02  0.59677697594E+02  0.14200000000E+01 0. -1.
        -13    1    1    2    0    0 -0.76933868352E+01 -0.29034110821E+02 -0.49381733870E+02  0.57799088268E+02  0.10570000000E+00 0. -1.
         13    1    1    2    0    0  0.76933868352E+01  0.29034110821E+02  0.30937719989E+02  0.43119850217E+02  0.10570000000E+00 0.  1.
<mgrwt>
<rscale>  0 0.99219204E+02</rscale>
<asrwt>0</asrwt>
<pdfrwt beam="1">  1        4 0.63442250E-02 0.99219204E+02</pdfrwt>
<pdfrwt beam="2">  1       -4 0.91817655E-02 0.99219204E+02</pdfrwt>
<totfact> 0.20961861E+04</totfact>
</mgrwt>
</event>
<event>
 4    1  0.5624886E-001  0.5429676E+02  0.7818608E-02  0.1423454E+00
         -4   -1    0    0    0  501 -0.00000000000E+00  0.00000000000E+00  0.58192257130E+02  0.58209579881E+02  0.14200000000E+01 0. -1.
          4   -1    0    0  501    0  0.00000000000E+00 -0.00000000000E+00 -0.12606431786E+02  0.12686154751E+02  0.14200000000E+01 0.  1.
        -13    1    1    2    0    0 -0.19817125974E+02 -0.11745520118E+02  0.40366691380E+01  0.23387637652E+02  0.10570000000E+00 0.  1.
         13    1    1    2    0    0  0.19817125974E+02  0.11745520118E+02  0.41549156206E+02  0.47508096980E+02  0.10570000000E+00 0. -1.
<mgrwt>
<rscale>  0 0.54296756E+02</rscale>
<asrwt>0</asrwt>
<pdfrwt beam="2">  1        4 0.19469161E-02 0.54296756E+02</pdfrwt>
<pdfrwt beam="1">  1       -4 0.89601199E-02 0.54296756E+02</pdfrwt>
<totfact> 0.11033284E+05</totfact>
</mgrwt>
</event>
<event>
 4    1  0.5624886E-001  0.3107150E+02  0.7818608E-02  0.1586538E+00
          4   -1    0    0  501    0  0.00000000000E+00  0.00000000000E+00  0.34040802165E+01  0.36883820465E+01  0.14200000000E+01 0. -1.
         -4   -1    0    0    0  501 -0.00000000000E+00 -0.00000000000E+00 -0.67768809035E+02  0.67783684453E+02  0.14200000000E+01 0.  1.
        -13    1    1    2    0    0  0.12887239880E+02 -0.18253833325E+01 -0.51691827424E+02  0.53305432847E+02  0.10570000000E+00 0.  1.
         13    1    1    2    0    0 -0.12887239880E+02  0.18253833325E+01 -0.12672901394E+02  0.18166633653E+02  0.10570000000E+00 0. -1.
<mgrwt>
<rscale>  0 0.31071498E+02</rscale>
<asrwt>0</asrwt>
<pdfrwt beam="1">  1        4 0.54671833E-03 0.31071498E+02</pdfrwt>
<pdfrwt beam="2">  1       -4 0.10448983E-01 0.31071498E+02</pdfrwt>
<totfact> 0.41728238E+05</totfact>
</mgrwt>
</event>
<event>
 4    1  0.5624886E-001  0.2702619E+02  0.7818608E-02  0.1633496E+00
         -4   -1    0    0    0  501 -0.00000000000E+00  0.00000000000E+00  0.25346665311E+01  0.29053286258E+01  0.14200000000E+01 0. -1.
          4   -1    0    0  501    0  0.00000000000E+00 -0.00000000000E+00 -0.66755039933E+02  0.66770141205E+02  0.14200000000E+01 0.  1.
        -13    1    1    2    0    0  0.11842837188E+02  0.64001620245E+01 -0.29084222440E+02  0.32048682251E+02  0.10570000000E+00 0. -1.
         13    1    1    2    0    0 -0.11842837188E+02 -0.64001620245E+01 -0.35136150962E+02  0.37626787579E+02  0.10570000000E+00 0.  1.
<mgrwt>
<rscale>  0 0.27026186E+02</rscale>
<asrwt>0</asrwt>
<pdfrwt beam="2">  1        4 0.10299679E-01 0.27026186E+02</pdfrwt>
<pdfrwt beam="1">  1       -4 0.41962285E-03 0.27026186E+02</pdfrwt>
<totfact> 0.57187266E+05</totfact>
</mgrwt>
</event>
<event>
 4    1  0.5624886E-001  0.2122927E+02  0.7818608E-02  0.1721933E+00
          4   -1    0    0  501    0  0.00000000000E+00  0.00000000000E+00  0.91874942351E+01  0.92965827227E+01  0.14200000000E+01 0. -1.
         -4   -1    0    0    0  501 -0.00000000000E+00 -0.00000000000E+00 -0.12040024423E+02  0.12123472610E+02  0.14200000000E+01 0.  1.
        -13    1    1    2    0    0  0.81509708650E+01 -0.67028098915E+01 -0.27881065157E+00  0.10557220011E+02  0.10570000000E+00 0.  1.
         13    1    1    2    0    0 -0.81509708650E+01  0.67028098915E+01 -0.25737195368E+01  0.10862835322E+02  0.10570000000E+00 0. -1.
<mgrwt>
<rscale>  0 0.21229269E+02</rscale>
<asrwt>0</asrwt>
<pdfrwt beam="1">  1        4 0.14282712E-02 0.21229269E+02</pdfrwt>
<pdfrwt beam="2">  1       -4 0.18671220E-02 0.21229269E+02</pdfrwt>
<totfact> 0.11431579E+06</totfact>
</mgrwt>
</event>
<event>
 4    1  0.5624886E-001  0.2606227E+02  0.7818608E-02  0.1646197E+00
          4   -1    0    0  501    0  0.00000000000E+00  0.00000000000E+00  0.13877871408E+02  0.13950330276E+02  0.14200000000E+01 0. -1.
         -4   -1    0    0    0  501 -0.00000000000E+00 -0.00000000000E+00 -0.12090076504E+02  0.12173181584E+02  0.14200000000E+01 0.  1.
        -13    1    1    2    0    0 -0.25745014034E+01  0.12003524643E+02 -0.34851885816E+01  0.12762067751E+02  0.10570000000E+00 0.  1.
         13    1    1    2    0    0  0.25745014034E+01 -0.12003524643E+02  0.52729834854E+01  0.13361444109E+02  0.10570000000E+00 0. -1.
<mgrwt>
<rscale>  0 0.26062265E+02</rscale>
<asrwt>0</asrwt>
<pdfrwt beam="1">  1        4 0.21470236E-02 0.26062265E+02</pdfrwt>
<pdfrwt beam="2">  1       -4 0.18719782E-02 0.26062265E+02</pdfrwt>
<totfact> 0.72276315E+05</totfact>
</mgrwt>
</event>
<event>
 4    1  0.5624886E-001  0.4219854E+02  0.7818608E-02  0.1492629E+00
          4   -1    0    0  501    0  0.00000000000E+00  0.00000000000E+00  0.11174002659E+02  0.11263868581E+02  0.14200000000E+01 0. -1.
         -4   -1    0    0    0  501 -0.00000000000E+00 -0.00000000000E+00 -0.39578406193E+02  0.39603871488E+02  0.14200000000E+01 0.  1.
        -13    1    1    2    0    0 -0.15992696557E+02 -0.87836867508E+01 -0.26973509322E+02  0.32565332390E+02  0.10570000000E+00 0.  1.
         13    1    1    2    0    0  0.15992696557E+02  0.87836867508E+01 -0.14308942133E+01  0.18302407678E+02  0.10570000000E+00 0. -1.
<mgrwt>
<rscale>  0 0.42198541E+02</rscale>
<asrwt>0</asrwt>
<pdfrwt beam="1">  1        4 0.17279490E-02 0.42198541E+02</pdfrwt>
<pdfrwt beam="2">  1       -4 0.60978571E-02 0.42198541E+02</pdfrwt>
<totfact> 0.21786806E+05</totfact>
</mgrwt>
</event>
<event>
 4    1  0.5624886E-001  0.1461922E+03  0.7818608E-02  0.1205232E+00
         -4   -1    0    0    0  501 -0.00000000000E+00  0.00000000000E+00  0.16375166093E+03  0.16375781769E+03  0.14200000000E+01 0.  1.
          4   -1    0    0  501    0  0.00000000000E+00 -0.00000000000E+00 -0.32606695005E+02  0.32637600389E+02  0.14200000000E+01 0. -1.
        -13    1    1    2    0    0 -0.29898393439E+02  0.15474241414E+02  0.15273520614E+03  0.15640147200E+03  0.10570000000E+00 0.  1.
         13    1    1    2    0    0  0.29898393439E+02 -0.15474241414E+02 -0.21590240222E+02  0.39993946078E+02  0.10570000000E+00 0. -1.
<mgrwt>
<rscale>  0 0.14619220E+03</rscale>
<asrwt>0</asrwt>
<pdfrwt beam="2">  1        4 0.50192656E-02 0.14619220E+03</pdfrwt>
<pdfrwt beam="1">  1       -4 0.25195414E-01 0.14619220E+03</pdfrwt>
<totfact> 0.58248442E+03</totfact>
</mgrwt>
</event>
<event>
 4    1  0.5624886E-001  0.2216404E+02  0.7818608E-02  0.1705430E+00
          4   -1    0    0  501    0  0.00000000000E+00  0.00000000000E+00  0.73819525799E+01  0.75172883337E+01  0.14200000000E+01 0. -1.
         -4   -1    0    0    0  501 -0.00000000000E+00 -0.00000000000E+00 -0.16319112923E+02  0.16380776740E+02  0.14200000000E+01 0.  1.
        -13    1    1    2    0    0  0.13414281728E+01  0.10992793585E+02 -0.48986016826E+01  0.12109847698E+02  0.10570000000E+00 0. -1.
         13    1    1    2    0    0 -0.13414281728E+01 -0.10992793585E+02 -0.40385586605E+01  0.11788217375E+02  0.10570000000E+00 0.  1.
<mgrwt>
<rscale>  0 0.22164040E+02</rscale>
<asrwt>0</asrwt>
<pdfrwt beam="1">  1        4 0.11508388E-02 0.22164040E+02</pdfrwt>
<pdfrwt beam="2">  1       -4 0.25257866E-02 0.22164040E+02</pdfrwt>
<totfact> 0.10332305E+06</totfact>
</mgrwt>
</event>
<event>
 4    1  0.5624886E-001  0.3020923E+02  0.7818608E-02  0.1595787E+00
          4   -1    0    0  501    0  0.00000000000E+00  0.00000000000E+00  0.12744036926E+03  0.12744828016E+03  0.14200000000E+01 0. -1.
         -4   -1    0    0    0  501 -0.00000000000E+00 -0.00000000000E+00 -0.14994277124E+01  0.20651110054E+01  0.14200000000E+01 0.  1.
        -13    1    1    2    0    0  0.97103212880E+01  0.11444090453E+02  0.70247014719E+02  0.71832526025E+02  0.10570000000E+00 0.  1.
         13    1    1    2    0    0 -0.97103212880E+01 -0.11444090453E+02  0.55693926827E+02  0.57680865144E+02  0.10570000000E+00 0. -1.
<mgrwt>
<rscale>  0 0.30209233E+02</rscale>
<asrwt>0</asrwt>
<pdfrwt beam="1">  1        4 0.19650331E-01 0.30209233E+02</pdfrwt>
<pdfrwt beam="2">  1       -4 0.27480385E-03 0.30209233E+02</pdfrwt>
<totfact> 0.37847616E+05</totfact>
</mgrwt>
</event>
<event>
 4    1  0.5624886E-001  0.3542529E+02  0.7818608E-02  0.1544856E+00
         -4   -1    0    0    0  501 -0.00000000000E+00  0.00000000000E+00  0.40678985598E+01  0.43086191167E+01  0.14200000000E+01 0. -1.
          4   -1    0    0  501    0  0.00000000000E+00 -0.00000000000E+00 -0.74661226664E+02  0.74674729106E+02  0.14200000000E+01 0.  1.
        -13    1    1    2    0    0 -0.11867589823E+02 -0.13136228840E+02 -0.36570573186E+02  0.40630262022E+02  0.10570000000E+00 0.  1.
         13    1    1    2    0    0  0.11867589823E+02  0.13136228840E+02 -0.34022754919E+02  0.38353086201E+02  0.10570000000E+00 0. -1.
<mgrwt>
<rscale>  0 0.35425292E+02</rscale>
<asrwt>0</asrwt>
<pdfrwt beam="2">  1        4 0.11505897E-01 0.35425292E+02</pdfrwt>
<pdfrwt beam="1">  1       -4 0.64538622E-03 0.35425292E+02</pdfrwt>
<totfact> 0.30242107E+05</totfact>
</mgrwt>
</event>
<event>
 4    1  0.5624886E-001  0.2488180E+02  0.7818608E-02  0.1662706E+00
         -4   -1    0    0    0  501 -0.00000000000E+00  0.00000000000E+00  0.16899816971E+02  0.16959369494E+02  0.14200000000E+01 0.  1.
          4   -1    0    0  501    0  0.00000000000E+00 -0.00000000000E+00 -0.90271799790E+01  0.91381824436E+01  0.14200000000E+01 0. -1.
        -13    1    1    2    0    0 -0.98152102677E+01 -0.75060979671E+01  0.54507953818E+01  0.13505635937E+02  0.10570000000E+00 0.  1.
         13    1    1    2    0    0  0.98152102677E+01  0.75060979671E+01  0.24218416101E+01  0.12591916001E+02  0.10570000000E+00 0. -1.
<mgrwt>
<rscale>  0 0.24881797E+02</rscale>
<asrwt>0</asrwt>
<pdfrwt beam="2">  1        4 0.14019165E-02 0.24881797E+02</pdfrwt>
<pdfrwt beam="1">  1       -4 0.26130914E-02 0.24881797E+02</pdfrwt>
<totfact> 0.79979627E+05</totfact>
</mgrwt>
</event>
<event>
 4    1  0.5624886E-001  0.2696577E+02  0.7818608E-02  0.1634273E+00
          4   -1    0    0  501    0  0.00000000000E+00  0.00000000000E+00  0.90737759645E+01  0.91842152770E+01  0.14200000000E+01 0.  1.
         -4   -1    0    0    0  501 -0.00000000000E+00 -0.00000000000E+00 -0.19777222578E+02  0.19828134882E+02  0.14200000000E+01 0. -1.
        -13    1    1    2    0    0 -0.12172572755E+02  0.43014915834E+01 -0.11705652559E+01  0.12963631930E+02  0.10570000000E+00 0.  1.
         13    1    1    2    0    0  0.12172572755E+02 -0.43014915834E+01 -0.95328813575E+01  0.16048718229E+02  0.10570000000E+00 0. -1.
<mgrwt>
<rscale>  0 0.26965769E+02</rscale>
<asrwt>0</asrwt>
<pdfrwt beam="1">  1        4 0.14083772E-02 0.26965769E+02</pdfrwt>
<pdfrwt beam="2">  1       -4 0.30550613E-02 0.26965769E+02</pdfrwt>
<totfact> 0.66277836E+05</totfact>
</mgrwt>
</event>
<event>
 4    1  0.5624886E-001  0.6937708E+02  0.7818608E-02  0.1362224E+00
         -4   -1    0    0    0  501 -0.00000000000E+00  0.00000000000E+00  0.20876492331E+03  0.20876975261E+03  0.14200000000E+01 0.  1.
          4   -1    0    0  501    0  0.00000000000E+00 -0.00000000000E+00 -0.56714447439E+01  0.58465105390E+01  0.14200000000E+01 0. -1.
        -13    1    1    2    0    0 -0.22476615546E+02  0.24775593285E+02  0.73151503357E+02  0.80437440815E+02  0.10570000000E+00 0. -1.
         13    1    1    2    0    0  0.22476615546E+02 -0.24775593285E+02  0.12994197521E+03  0.13417882233E+03  0.10570000000E+00 0.  1.
<mgrwt>
<rscale>  0 0.69377081E+02</rscale>
<asrwt>0</asrwt>
<pdfrwt beam="2">  1        4 0.88636809E-03 0.69377081E+02</pdfrwt>
<pdfrwt beam="1">  1       -4 0.32131517E-01 0.69377081E+02</pdfrwt>
<totfact> 0.42536806E+04</totfact>
</mgrwt>
</event>
<event>
 4    1  0.5624886E-001  0.3413737E+02  0.7818608E-02  0.1556397E+00
         -4   -1    0    0    0  501 -0.00000000000E+00  0.00000000000E+00  0.75781970833E+01  0.77100889122E+01  0.14200000000E+01 0. -1.
          4   -1    0    0  501    0  0.00000000000E+00 -0.00000000000E+00 -0.37967570266E+02  0.37994115227E+02  0.14200000000E+01 0.  1.
        -13    1    1    2    0    0  0.10228805163E+02 -0.64963500801E+01  0.89904591560E+00  0.12151151200E+02  0.10570000000E+00 0. -1.
         13    1    1    2    0    0 -0.10228805163E+02  0.64963500801E+01 -0.31288419098E+02  0.33553052940E+02  0.10570000000E+00 0.  1.
<mgrwt>
<rscale>  0 0.34137374E+02</rscale>
<asrwt>0</asrwt>
<pdfrwt beam="2">  1        4 0.58533520E-02 0.34137374E+02</pdfrwt>
<pdfrwt beam="1">  1       -4 0.11780639E-02 0.34137374E+02</pdfrwt>
<totfact> 0.36571151E+05</totfact>
</mgrwt>
</event>
<event>
 4    1  0.5624886E-001  0.7488150E+02  0.7818608E-02  0.1344238E+00
         -4   -1    0    0    0  501 -0.00000000000E+00  0.00000000000E+00  0.14382277614E+02  0.14452207768E+02  0.14200000000E+01 0.  1.
          4   -1    0    0  501    0  0.00000000000E+00 -0.00000000000E+00 -0.97156336657E+02  0.97166713192E+02  0.14200000000E+01 0. -1.
        -13    1    1    2    0    0  0.26721100264E+02  0.21373630872E+00 -0.22962747975E+01  0.26820643783E+02  0.10570000000E+00 0.  1.
         13    1    1    2    0    0 -0.26721100264E+02 -0.21373630872E+00 -0.80477784246E+02  0.84798277177E+02  0.10570000000E+00 0. -1.
<mgrwt>
<rscale>  0 0.74881497E+02</rscale>
<asrwt>0</asrwt>
<pdfrwt beam="2">  1        4 0.14953306E-01 0.74881497E+02</pdfrwt>
<pdfrwt beam="1">  1       -4 0.22188356E-02 0.74881497E+02</pdfrwt>
<totfact> 0.43531213E+04</totfact>
</mgrwt>
</event>
<event>
 4    1  0.5624886E-001  0.2319258E+02  0.7818608E-02  0.1688407E+00
         -4   -1    0    0    0  501 -0.00000000000E+00  0.00000000000E+00  0.81729271270E+02  0.81741606188E+02  0.14200000000E+01 0. -1.
          4   -1    0    0  501    0  0.00000000000E+00 -0.00000000000E+00 -0.13241561584E+01  0.19415945848E+01  0.14200000000E+01 0.  1.
        -13    1    1    2    0    0 -0.10267950954E+02 -0.24863209408E+01  0.57450346602E+02  0.58413749287E+02  0.10570000000E+00 0. -1.
         13    1    1    2    0    0  0.10267950954E+02  0.24863209408E+01  0.22954768510E+02  0.25269451487E+02  0.10570000000E+00 0.  1.
<mgrwt>
<rscale>  0 0.23192575E+02</rscale>
<asrwt>0</asrwt>
<pdfrwt beam="2">  1        4 0.25216040E-03 0.23192575E+02</pdfrwt>
<pdfrwt beam="1">  1       -4 0.12622180E-01 0.23192575E+02</pdfrwt>
<totfact> 0.75971966E+05</totfact>
</mgrwt>
</event>
<event>
 4    1  0.5624886E-001  0.2611962E+02  0.7818608E-02  0.1645422E+00
          4   -1    0    0  501    0  0.00000000000E+00  0.00000000000E+00  0.17503416455E+01  0.22539068028E+01  0.14200000000E+01 0. -1.
         -4   -1    0    0    0  501 -0.00000000000E+00 -0.00000000000E+00 -0.84678575176E+02  0.84690480539E+02  0.14200000000E+01 0.  1.
        -13    1    1    2    0    0  0.23807589962E+01  0.11984277475E+02 -0.26117201750E+02  0.28834186649E+02  0.10570000000E+00 0. -1.
         13    1    1    2    0    0 -0.23807589962E+01 -0.11984277475E+02 -0.56811031781E+02  0.58110200692E+02  0.10570000000E+00 0.  1.
<mgrwt>
<rscale>  0 0.26119620E+02</rscale>
<asrwt>0</asrwt>
<pdfrwt beam="1">  1        4 0.30893497E-03 0.26119620E+02</pdfrwt>
<pdfrwt beam="2">  1       -4 0.13067122E-01 0.26119620E+02</pdfrwt>
<totfact> 0.58433921E+05</totfact>
</mgrwt>
</event>
<event>
 4    1  0.5624886E-001  0.4615200E+02  0.7818608E-02  0.1467276E+00
         -4   -1    0    0    0  501 -0.00000000000E+00  0.00000000000E+00  0.54873854612E+02  0.54892224586E+02  0.14200000000E+01 0. -1.
          4   -1    0    0  501    0  0.00000000000E+00 -0.00000000000E+00 -0.96320482491E+01  0.97361570177E+01  0.14200000000E+01 0.  1.
        -13    1    1    2    0    0 -0.20935526737E+02 -0.78987201170E+01  0.30518166877E+02  0.37842512354E+02  0.10570000000E+00 0. -1.
         13    1    1    2    0    0  0.20935526737E+02  0.78987201170E+01  0.14723639486E+02  0.26785869249E+02  0.10570000000E+00 0.  1.
<mgrwt>
<rscale>  0 0.46151995E+02</rscale>
<asrwt>0</asrwt>
<pdfrwt beam="2">  1        4 0.14912750E-02 0.46151995E+02</pdfrwt>
<pdfrwt beam="1">  1       -4 0.84515531E-02 0.46151995E+02</pdfrwt>
<totfact> 0.16802330E+05</totfact>
</mgrwt>
</event>
<event>
 4    1  0.5624886E-001  0.2258666E+02  0.7818608E-02  0.1698299E+00
         -4   -1    0    0    0  501 -0.00000000000E+00  0.00000000000E+00  0.61622598175E+02  0.61638956885E+02  0.14200000000E+01 0. -1.
          4   -1    0    0  501    0  0.00000000000E+00 -0.00000000000E+00 -0.18074767430E+01  0.22985587172E+01  0.14200000000E+01 0.  1.
        -13    1    1    2    0    0 -0.12578068676E+01 -0.11062866065E+02  0.35247910018E+02  0.36964786173E+02  0.10570000000E+00 0. -1.
         13    1    1    2    0    0  0.12578068676E+01  0.11062866065E+02  0.24567211414E+02  0.26972729429E+02  0.10570000000E+00 0.  1.
<mgrwt>
<rscale>  0 0.22586659E+02</rscale>
<asrwt>0</asrwt>
<pdfrwt beam="2">  1        4 0.31710727E-03 0.22586659E+02</pdfrwt>
<pdfrwt beam="1">  1       -4 0.95194327E-02 0.22586659E+02</pdfrwt>
<totfact> 0.85472125E+05</totfact>
</mgrwt>
</event>
<event>
 4    1  0.5624886E-001  0.2209878E+02  0.7818608E-02  0.1706549E+00
         -4   -1    0    0    0  501 -0.00000000000E+00  0.00000000000E+00  0.31182201131E+01  0.34263240760E+01  0.14200000000E+01 0. -1.
          4   -1    0    0  501    0  0.00000000000E+00 -0.00000000000E+00 -0.36987796492E+02  0.37015044095E+02  0.14200000000E+01 0.  1.
        -13    1    1    2    0    0  0.75125214972E+00  0.10434604363E+02 -0.10430465327E+02  0.14773324860E+02  0.10570000000E+00 0. -1.
         13    1    1    2    0    0 -0.75125214972E+00 -0.10434604363E+02 -0.23439111052E+02  0.25668043311E+02  0.10570000000E+00 0.  1.
<mgrwt>
<rscale>  0 0.22098780E+02</rscale>
<asrwt>0</asrwt>
<pdfrwt beam="2">  1        4 0.57162262E-02 0.22098780E+02</pdfrwt>
<pdfrwt beam="1">  1       -4 0.50552247E-03 0.22098780E+02</pdfrwt>
<totfact> 0.97228384E+05</totfact>
</mgrwt>
</event>
<event>
 4    1  0.5624886E-001  0.2771963E+02  0.7818608E-02  0.1624755E+00
         -4   -1    0    0    0  501 -0.00000000000E+00  0.00000000000E+00  0.31926966223E+01  0.34942397918E+01  0.14200000000E+01 0. -1.
          4   -1    0    0  501    0  0.00000000000E+00 -0.00000000000E+00 -0.57142905903E+02  0.57160546665E+02  0.14200000000E+01 0.  1.
        -13    1    1    2    0    0  0.11956013657E+02  0.27812987440E+01 -0.12895664293E+02  0.17804247115E+02  0.10570000000E+00 0. -1.
         13    1    1    2    0    0 -0.11956013657E+02 -0.27812987440E+01 -0.41054544987E+02  0.42850539342E+02  0.10570000000E+00 0.  1.
<mgrwt>
<rscale>  0 0.27719633E+02</rscale>
<asrwt>0</asrwt>
<pdfrwt beam="2">  1        4 0.88157682E-02 0.27719633E+02</pdfrwt>
<pdfrwt beam="1">  1       -4 0.51573675E-03 0.27719633E+02</pdfrwt>
<totfact> 0.55686573E+05</totfact>
</mgrwt>
</event>
<event>
 4    1  0.5624886E-001  0.2695097E+02  0.7818608E-02  0.1634464E+00
          4   -1    0    0  501    0  0.00000000000E+00  0.00000000000E+00  0.11105360607E+02  0.11195777517E+02  0.14200000000E+01 0. -1.
         -4   -1    0    0    0  501 -0.00000000000E+00 -0.00000000000E+00 -0.16163478376E+02  0.16225733673E+02  0.14200000000E+01 0.  1.
        -13    1    1    2    0    0 -0.11174418019E+02  0.72264246604E+01 -0.46846984370E+01  0.14108380607E+02  0.10570000000E+00 0. -1.
         13    1    1    2    0    0  0.11174418019E+02 -0.72264246604E+01 -0.37341933207E+00  0.13313130583E+02  0.10570000000E+00 0.  1.
<mgrwt>
<rscale>  0 0.26950969E+02</rscale>
<asrwt>0</asrwt>
<pdfrwt beam="1">  1        4 0.17202610E-02 0.26950969E+02</pdfrwt>
<pdfrwt beam="2">  1       -4 0.24984330E-02 0.26950969E+02</pdfrwt>
<totfact> 0.66781101E+05</totfact>
</mgrwt>
</event>
<event>
 4    1  0.5624886E-001  0.4633140E+02  0.7818608E-02  0.1466197E+00
         -4   -1    0    0    0  501 -0.00000000000E+00  0.00000000000E+00  0.13858409214E+02  0.13930969311E+02  0.14200000000E+01 0.  1.
          4   -1    0    0  501    0  0.00000000000E+00 -0.00000000000E+00 -0.38536972333E+02  0.38563125348E+02  0.14200000000E+01 0. -1.
        -13    1    1    2    0    0 -0.19180534438E+02  0.57663363615E+01 -0.25527816021E+02  0.32447251034E+02  0.10570000000E+00 0. -1.
         13    1    1    2    0    0  0.19180534438E+02 -0.57663363615E+01  0.84925290308E+00  0.20046843625E+02  0.10570000000E+00 0.  1.
<mgrwt>
<rscale>  0 0.46331399E+02</rscale>
<asrwt>0</asrwt>
<pdfrwt beam="2">  1        4 0.59363583E-02 0.46331399E+02</pdfrwt>
<pdfrwt beam="1">  1       -4 0.21396563E-02 0.46331399E+02</pdfrwt>
<totfact> 0.17266962E+05</totfact>
</mgrwt>
</event>
<event>
 4    1  0.5624886E-001  0.2339357E+02  0.7818608E-02  0.1685209E+00
          4   -1    0    0  501    0  0.00000000000E+00  0.00000000000E+00  0.36823107359E+01  0.39466203714E+01  0.14200000000E+01 0. -1.
         -4   -1    0    0    0  501 -0.00000000000E+00 -0.00000000000E+00 -0.35588395042E+02  0.35616713235E+02  0.14200000000E+01 0.  1.
        -13    1    1    2    0    0 -0.10690224470E+02 -0.47169522125E+01 -0.16836812608E+02  0.20494388712E+02  0.10570000000E+00 0. -1.
         13    1    1    2    0    0  0.10690224470E+02  0.47169522125E+01 -0.15069271698E+02  0.19068944894E+02  0.10570000000E+00 0.  1.
<mgrwt>
<rscale>  0 0.23393571E+02</rscale>
<asrwt>0</asrwt>
<pdfrwt beam="1">  1        4 0.58901920E-03 0.23393571E+02</pdfrwt>
<pdfrwt beam="2">  1       -4 0.54976473E-02 0.23393571E+02</pdfrwt>
<totfact> 0.86541446E+05</totfact>
</mgrwt>
</event>
<event>
 4    1  0.5624886E-001  0.2733296E+02  0.7818608E-02  0.1629590E+00
         -4   -1    0    0    0  501 -0.00000000000E+00  0.00000000000E+00  0.42958300623E+01  0.45244398464E+01  0.14200000000E+01 0.  1.
          4   -1    0    0  501    0  0.00000000000E+00 -0.00000000000E+00 -0.42109902524E+02  0.42133837833E+02  0.14200000000E+01 0. -1.
        -13    1    1    2    0    0 -0.11888739634E+02  0.18490170795E+01 -0.29969947048E+02  0.32295044400E+02  0.10570000000E+00 0. -1.
         13    1    1    2    0    0  0.11888739634E+02 -0.18490170795E+01 -0.78441254134E+01  0.14363233280E+02  0.10570000000E+00 0.  1.
<mgrwt>
<rscale>  0 0.27332962E+02</rscale>
<asrwt>0</asrwt>
<pdfrwt beam="2">  1        4 0.64978728E-02 0.27332962E+02</pdfrwt>
<pdfrwt beam="1">  1       -4 0.68032351E-03 0.27332962E+02</pdfrwt>
<totfact> 0.60226396E+05</totfact>
</mgrwt>
</event>
<event>
 4    1  0.5624886E-001  0.4191471E+02  0.7818608E-02  0.1494576E+00
         -4   -1    0    0    0  501 -0.00000000000E+00  0.00000000000E+00  0.11423646572E+02  0.11511563795E+02  0.14200000000E+01 0.  1.
          4   -1    0    0  501    0  0.00000000000E+00 -0.00000000000E+00 -0.38198959748E+02  0.38225344025E+02  0.14200000000E+01 0. -1.
        -13    1    1    2    0    0  0.11425938974E+02 -0.76088329067E+01 -0.32178032730E+02  0.34984044684E+02  0.10570000000E+00 0. -1.
         13    1    1    2    0    0 -0.11425938974E+02  0.76088329067E+01  0.54027195535E+01  0.14752863135E+02  0.10570000000E+00 0.  1.
<mgrwt>
<rscale>  0 0.41914706E+02</rscale>
<asrwt>0</asrwt>
<pdfrwt beam="2">  1        4 0.58855554E-02 0.41914706E+02</pdfrwt>
<pdfrwt beam="1">  1       -4 0.17662765E-02 0.41914706E+02</pdfrwt>
<totfact> 0.22223488E+05</totfact>
</mgrwt>
</event>
<event>
 4    1  0.5624886E-001  0.2738703E+02  0.7818608E-02  0.1628908E+00
         -4   -1    0    0    0  501 -0.00000000000E+00  0.00000000000E+00  0.17837398901E+02  0.17893831327E+02  0.14200000000E+01 0. -1.
          4   -1    0    0  501    0  0.00000000000E+00 -0.00000000000E+00 -0.10390918038E+02  0.10487496254E+02  0.14200000000E+01 0.  1.
        -13    1    1    2    0    0  0.11429910976E+02  0.33273846540E+01  0.10735504803E+02  0.16030489369E+02  0.10570000000E+00 0. -1.
         13    1    1    2    0    0 -0.11429910976E+02 -0.33273846540E+01 -0.32890239404E+01  0.12350838211E+02  0.10570000000E+00 0.  1.
<mgrwt>
<rscale>  0 0.27387035E+02</rscale>
<asrwt>0</asrwt>
<pdfrwt beam="2">  1        4 0.16103728E-02 0.27387035E+02</pdfrwt>
<pdfrwt beam="1">  1       -4 0.27559853E-02 0.27387035E+02</pdfrwt>
<totfact> 0.64205418E+05</totfact>
</mgrwt>
</event>
<event>
 4    1  0.5624886E-001  0.2175082E+02  0.7818608E-02  0.1712597E+00
         -4   -1    0    0    0  501 -0.00000000000E+00  0.00000000000E+00  0.29833392631E+02  0.29867167858E+02  0.14200000000E+01 0. -1.
          4   -1    0    0  501    0  0.00000000000E+00 -0.00000000000E+00 -0.38000879730E+01  0.40567312707E+01  0.14200000000E+01 0.  1.
        -13    1    1    2    0    0  0.10599230111E+02 -0.29843735953E+00  0.92506025720E+01  0.14071871384E+02  0.10570000000E+00 0.  1.
         13    1    1    2    0    0 -0.10599230111E+02  0.29843735953E+00  0.16782702086E+02  0.19852027745E+02  0.10570000000E+00 0. -1.
<mgrwt>
<rscale>  0 0.21750816E+02</rscale>
<asrwt>0</asrwt>
<pdfrwt beam="2">  1        4 0.60696882E-03 0.21750816E+02</pdfrwt>
<pdfrwt beam="1">  1       -4 0.46120925E-02 0.21750816E+02</pdfrwt>
<totfact> 0.10309124E+06</totfact>
</mgrwt>
</event>
<event>
 4    1  0.5624886E-001  0.5222618E+02  0.7818608E-02  0.1433691E+00
         -4   -1    0    0    0  501 -0.00000000000E+00  0.00000000000E+00  0.17486266206E+02  0.17543828140E+02  0.14200000000E+01 0. -1.
          4   -1    0    0  501    0  0.00000000000E+00 -0.00000000000E+00 -0.38861309628E+02  0.38887244515E+02  0.14200000000E+01 0.  1.
        -13    1    1    2    0    0 -0.11776632628E+02 -0.14986981931E+02  0.85984582619E+01  0.20910364904E+02  0.10570000000E+00 0. -1.
         13    1    1    2    0    0  0.11776632628E+02  0.14986981931E+02 -0.29973501684E+02  0.35520707751E+02  0.10570000000E+00 0.  1.
<mgrwt>
<rscale>  0 0.52226176E+02</rscale>
<asrwt>0</asrwt>
<pdfrwt beam="2">  1        4 0.59850859E-02 0.52226176E+02</pdfrwt>
<pdfrwt beam="1">  1       -4 0.26966176E-02 0.52226176E+02</pdfrwt>
<totfact> 0.12684364E+05</totfact>
</mgrwt>
</event>
<event>
 4    1  0.5624886E-001  0.3978572E+02  0.7818608E-02  0.1509794E+00
          4   -1    0    0  501    0  0.00000000000E+00  0.00000000000E+00  0.44723899746E+01  0.46924057886E+01  0.14200000000E+01 0.  1.
         -4   -1    0    0    0  501 -0.00000000000E+00 -0.00000000000E+00 -0.86131808616E+02  0.86143513136E+02  0.14200000000E+01 0. -1.
        -13    1    1    2    0    0  0.65640432870E+01  0.17610977409E+02 -0.55710650434E+02  0.58795586007E+02  0.10570000000E+00 0. -1.
         13    1    1    2    0    0 -0.65640432870E+01 -0.17610977409E+02 -0.25948768206E+02  0.32040332918E+02  0.10570000000E+00 0.  1.
<mgrwt>
<rscale>  0 0.39785720E+02</rscale>
<asrwt>0</asrwt>
<pdfrwt beam="1">  1        4 0.70588470E-03 0.39785720E+02</pdfrwt>
<pdfrwt beam="2">  1       -4 0.13268871E-01 0.39785720E+02</pdfrwt>
<totfact> 0.22281163E+05</totfact>
</mgrwt>
</event>
<event>
 4    1  0.5624886E-001  0.2593230E+02  0.7818608E-02  0.1647961E+00
         -4   -1    0    0    0  501 -0.00000000000E+00  0.00000000000E+00  0.12752027938E+02  0.12830846291E+02  0.14200000000E+01 0. -1.
          4   -1    0    0  501    0  0.00000000000E+00 -0.00000000000E+00 -0.13025724695E+02  0.13102896773E+02  0.14200000000E+01 0.  1.
        -13    1    1    2    0    0  0.99549434357E+01 -0.11735701761E+01 -0.83611553565E+01  0.13053668341E+02  0.10570000000E+00 0.  1.
         13    1    1    2    0    0 -0.99549434357E+01  0.11735701761E+01  0.80874585995E+01  0.12880074722E+02  0.10570000000E+00 0. -1.
<mgrwt>
<rscale>  0 0.25932299E+02</rscale>
<asrwt>0</asrwt>
<pdfrwt beam="2">  1        4 0.20159569E-02 0.25932299E+02</pdfrwt>
<pdfrwt beam="1">  1       -4 0.19738497E-02 0.25932299E+02</pdfrwt>
<totfact> 0.73130398E+05</totfact>
</mgrwt>
</event>
<event>
 4    1  0.5624886E-001  0.2537522E+02  0.7818608E-02  0.1655670E+00
          4   -1    0    0  501    0  0.00000000000E+00  0.00000000000E+00  0.36501612001E+01  0.39166410081E+01  0.14200000000E+01 0.  1.
         -4   -1    0    0    0  501 -0.00000000000E+00 -0.00000000000E+00 -0.42269008425E+02  0.42292853690E+02  0.14200000000E+01 0. -1.
        -13    1    1    2    0    0  0.16419269510E+01  0.12017593381E+02 -0.12533299885E+02  0.17441710159E+02  0.10570000000E+00 0.  1.
         13    1    1    2    0    0 -0.16419269510E+01 -0.12017593381E+02 -0.26085547339E+02  0.28767784539E+02  0.10570000000E+00 0. -1.
<mgrwt>
<rscale>  0 0.25375225E+02</rscale>
<asrwt>0</asrwt>
<pdfrwt beam="1">  1        4 0.58389599E-03 0.25375225E+02</pdfrwt>
<pdfrwt beam="2">  1       -4 0.65252567E-02 0.25375225E+02</pdfrwt>
<totfact> 0.70950424E+05</totfact>
</mgrwt>
</event>
<event>
 4    1  0.5624886E-001  0.3096126E+02  0.7818608E-02  0.1587700E+00
          4   -1    0    0  501    0  0.00000000000E+00  0.00000000000E+00  0.50296636832E+01  0.52262717846E+01  0.14200000000E+01 0.  1.
         -4   -1    0    0    0  501 -0.00000000000E+00 -0.00000000000E+00 -0.46526256303E+02  0.46547920744E+02  0.14200000000E+01 0. -1.
        -13    1    1    2    0    0 -0.70795915065E+01  0.13399946174E+02 -0.26025644794E+02  0.30116847989E+02  0.10570000000E+00 0.  1.
         13    1    1    2    0    0  0.70795915065E+01 -0.13399946174E+02 -0.15470947826E+02  0.21657344539E+02  0.10570000000E+00 0. -1.
<mgrwt>
<rscale>  0 0.30961263E+02</rscale>
<asrwt>0</asrwt>
<pdfrwt beam="1">  1        4 0.79058464E-03 0.30961263E+02</pdfrwt>
<pdfrwt beam="2">  1       -4 0.71746755E-02 0.30961263E+02</pdfrwt>
<totfact> 0.44801633E+05</totfact>
</mgrwt>
</event>
<event>
 4    1  0.5624886E-001  0.2441637E+02  0.7818608E-02  0.1669529E+00
         -4   -1    0    0    0  501 -0.00000000000E+00  0.00000000000E+00  0.79029315522E+01  0.80294910872E+01  0.14200000000E+01 0. -1.
          4   -1    0    0  501    0  0.00000000000E+00 -0.00000000000E+00 -0.18555094969E+02  0.18609351125E+02  0.14200000000E+01 0.  1.
        -13    1    1    2    0    0 -0.90882634542E+01 -0.53450054988E+01 -0.12039472563E+02  0.16003927283E+02  0.10570000000E+00 0.  1.
         13    1    1    2    0    0  0.90882634542E+01  0.53450054988E+01  0.13873091464E+01  0.10634914929E+02  0.10570000000E+00 0. -1.
<mgrwt>
<rscale>  0 0.24416374E+02</rscale>
<asrwt>0</asrwt>
<pdfrwt beam="2">  1        4 0.28685389E-02 0.24416374E+02</pdfrwt>
<pdfrwt beam="1">  1       -4 0.12297445E-02 0.24416374E+02</pdfrwt>
<totfact> 0.83133216E+05</totfact>
</mgrwt>
</event>
<event>
 4    1  0.5624886E-001  0.2037288E+02  0.7818608E-02  0.1738013E+00
          4   -1    0    0  501    0  0.00000000000E+00  0.00000000000E+00  0.21900865667E+02  0.21946852097E+02  0.14200000000E+01 0.  1.
         -4   -1    0    0    0  501 -0.00000000000E+00 -0.00000000000E+00 -0.45792508506E+01  0.47943652711E+01  0.14200000000E+01 0. -1.
        -13    1    1    2    0    0 -0.91145805550E+01  0.44981560830E+01  0.77867452120E+01  0.12804435182E+02  0.10570000000E+00 0. -1.
         13    1    1    2    0    0  0.91145805550E+01 -0.44981560830E+01  0.95348696045E+01  0.13936782186E+02  0.10570000000E+00 0.  1.
<mgrwt>
<rscale>  0 0.20372883E+02</rscale>
<asrwt>0</asrwt>
<pdfrwt beam="1">  1        4 0.33894486E-02 0.20372883E+02</pdfrwt>
<pdfrwt beam="2">  1       -4 0.72458482E-03 0.20372883E+02</pdfrwt>
<totfact> 0.12161645E+06</totfact>
</mgrwt>
</event>
<event>
 4    1  0.5624886E-001  0.3267925E+02  0.7818608E-02  0.1570231E+00
         -4   -1    0    0    0  501 -0.00000000000E+00  0.00000000000E+00  0.26277949706E+02  0.26316288507E+02  0.14200000000E+01 0. -1.
          4   -1    0    0  501    0  0.00000000000E+00 -0.00000000000E+00 -0.10064351673E+02  0.10164033382E+02  0.14200000000E+01 0.  1.
        -13    1    1    2    0    0 -0.79619552739E+01 -0.71746234437E+01  0.21874365179E+02  0.24359125145E+02  0.10570000000E+00 0. -1.
         13    1    1    2    0    0  0.79619552739E+01  0.71746234437E+01 -0.56607671457E+01  0.12121196744E+02  0.10570000000E+00 0.  1.
<mgrwt>
<rscale>  0 0.32679246E+02</rscale>
<asrwt>0</asrwt>
<pdfrwt beam="2">  1        4 0.15589788E-02 0.32679246E+02</pdfrwt>
<pdfrwt beam="1">  1       -4 0.40533784E-02 0.32679246E+02</pdfrwt>
<totfact> 0.41775653E+05</totfact>
</mgrwt>
</event>
<event>
 4    1  0.5624886E-001  0.5455987E+02  0.7818608E-02  0.1422192E+00
         -4   -1    0    0    0  501 -0.00000000000E+00  0.00000000000E+00  0.59620041844E+02  0.59636949868E+02  0.14200000000E+01 0.  1.
          4   -1    0    0  501    0  0.00000000000E+00 -0.00000000000E+00 -0.12423164554E+02  0.12504056044E+02  0.14200000000E+01 0. -1.
        -13    1    1    2    0    0 -0.10421323432E+02  0.71500486654E+01 -0.83673163439E+01  0.15157517385E+02  0.10570000000E+00 0. -1.
         13    1    1    2    0    0  0.10421323432E+02 -0.71500486654E+01  0.55564193634E+02  0.56983488526E+02  0.10570000000E+00 0.  1.
<mgrwt>
<rscale>  0 0.54559871E+02</rscale>
<asrwt>0</asrwt>
<pdfrwt beam="2">  1        4 0.19187791E-02 0.54559871E+02</pdfrwt>
<pdfrwt beam="1">  1       -4 0.91798373E-02 0.54559871E+02</pdfrwt>
<totfact> 0.10862016E+05</totfact>
</mgrwt>
</event>
<event>
 4    1  0.5624886E-001  0.3158863E+02  0.7818608E-02  0.1581164E+00
         -4   -1    0    0    0  501 -0.00000000000E+00  0.00000000000E+00  0.10915953249E+02  0.11007926023E+02  0.14200000000E+01 0.  1.
          4   -1    0    0  501    0  0.00000000000E+00 -0.00000000000E+00 -0.22642651592E+02  0.22687134484E+02  0.14200000000E+01 0. -1.
        -13    1    1    2    0    0 -0.10700705105E+02 -0.88353512980E+01 -0.13908199332E+02  0.19647333241E+02  0.10570000000E+00 0. -1.
         13    1    1    2    0    0  0.10700705105E+02  0.88353512980E+01  0.21815009895E+01  0.14047727267E+02  0.10570000000E+00 0.  1.
<mgrwt>
<rscale>  0 0.31588632E+02</rscale>
<asrwt>0</asrwt>
<pdfrwt beam="2">  1        4 0.34939814E-02 0.31588632E+02</pdfrwt>
<pdfrwt beam="1">  1       -4 0.16898740E-02 0.31588632E+02</pdfrwt>
<totfact> 0.45621136E+05</totfact>
</mgrwt>
</event>
<event>
 4    1  0.5624886E-001  0.4176292E+02  0.7818608E-02  0.1495625E+00
          4   -1    0    0  501    0  0.00000000000E+00  0.00000000000E+00  0.69896907910E+02  0.69911330522E+02  0.14200000000E+01 0.  1.
         -4   -1    0    0    0  501 -0.00000000000E+00 -0.00000000000E+00 -0.61421862094E+01  0.63041931625E+01  0.14200000000E+01 0. -1.
        -13    1    1    2    0    0 -0.17926411683E+02 -0.43074638879E+01  0.49768800256E+02  0.53074053288E+02  0.10570000000E+00 0.  1.
         13    1    1    2    0    0  0.17926411683E+02  0.43074638879E+01  0.13985921445E+02  0.23141470397E+02  0.10570000000E+00 0. -1.
<mgrwt>
<rscale>  0 0.41762920E+02</rscale>
<asrwt>0</asrwt>
<pdfrwt beam="1">  1        4 0.10766941E-01 0.41762920E+02</pdfrwt>
<pdfrwt beam="2">  1       -4 0.95852327E-03 0.41762920E+02</pdfrwt>
<totfact> 0.20687913E+05</totfact>
</mgrwt>
</event>
<event>
 4    1  0.5624886E-001  0.2497389E+02  0.7818608E-02  0.1661377E+00
          4   -1    0    0  501    0  0.00000000000E+00  0.00000000000E+00  0.39459782251E+02  0.39485324049E+02  0.14200000000E+01 0. -1.
         -4   -1    0    0    0  501 -0.00000000000E+00 -0.00000000000E+00 -0.37961528819E+01  0.40530453616E+01  0.14200000000E+01 0.  1.
        -13    1    1    2    0    0 -0.10025865264E+01  0.11855979309E+02  0.24434321447E+02  0.27177502869E+02  0.10570000000E+00 0. -1.
         13    1    1    2    0    0  0.10025865264E+01 -0.11855979309E+02  0.11229307922E+02  0.16360866542E+02  0.10570000000E+00 0.  1.
<mgrwt>
<rscale>  0 0.24973889E+02</rscale>
<asrwt>0</asrwt>
<pdfrwt beam="1">  1        4 0.60924615E-02 0.24973889E+02</pdfrwt>
<pdfrwt beam="2">  1       -4 0.60574923E-03 0.24973889E+02</pdfrwt>
<totfact> 0.74152877E+05</totfact>
</mgrwt>
</event>
<event>
 4    1  0.5624886E-001  0.2538496E+02  0.7818608E-02  0.1655533E+00
          4   -1    0    0  501    0  0.00000000000E+00  0.00000000000E+00  0.73441083043E+02  0.73454809771E+02  0.14200000000E+01 0. -1.
         -4   -1    0    0    0  501 -0.00000000000E+00 -0.00000000000E+00 -0.19483513584E+01  0.24109070940E+01  0.14200000000E+01 0.  1.
        -13    1    1    2    0    0 -0.91030479380E+01  0.83041525719E+01  0.44842481639E+02  0.46504663892E+02  0.10570000000E+00 0. -1.
         13    1    1    2    0    0  0.91030479380E+01 -0.83041525719E+01  0.26650250046E+02  0.29361052973E+02  0.10570000000E+00 0.  1.
<mgrwt>
<rscale>  0 0.25384962E+02</rscale>
<asrwt>0</asrwt>
<pdfrwt beam="1">  1        4 0.11335265E-01 0.25384962E+02</pdfrwt>
<pdfrwt beam="2">  1       -4 0.33638347E-03 0.25384962E+02</pdfrwt>
<totfact> 0.64250438E+05</totfact>
</mgrwt>
</event>
<event>
 4    1  0.5624886E-001  0.3941468E+02  0.7818608E-02  0.1512563E+00
         -4   -1    0    0    0  501 -0.00000000000E+00  0.00000000000E+00  0.16237657899E+02  0.16299629874E+02  0.14200000000E+01 0.  1.
          4   -1    0    0  501    0  0.00000000000E+00 -0.00000000000E+00 -0.23789692846E+02  0.23832034863E+02  0.14200000000E+01 0. -1.
        -13    1    1    2    0    0 -0.16110695791E+02  0.11284773698E+02 -0.50094629280E+01  0.20297943925E+02  0.10570000000E+00 0.  1.
         13    1    1    2    0    0  0.16110695791E+02 -0.11284773698E+02 -0.25425720196E+01  0.19833720812E+02  0.10570000000E+00 0. -1.
<mgrwt>
<rscale>  0 0.39414684E+02</rscale>
<asrwt>0</asrwt>
<pdfrwt beam="2">  1        4 0.36679769E-02 0.39414684E+02</pdfrwt>
<pdfrwt beam="1">  1       -4 0.25061254E-02 0.39414684E+02</pdfrwt>
<totfact> 0.26582244E+05</totfact>
</mgrwt>
</event>
<event>
 4    1  0.5624886E-001  0.8567301E+02  0.7818608E-02  0.1313682E+00
         -4   -1    0    0    0  501 -0.00000000000E+00  0.00000000000E+00  0.94267828243E+01  0.95331335046E+01  0.14200000000E+01 0.  1.
          4   -1    0    0  501    0  0.00000000000E+00 -0.00000000000E+00 -0.19345371860E+03  0.19345893011E+03  0.14200000000E+01 0. -1.
        -13    1    1    2    0    0 -0.64862796840E+01  0.42148936922E+02 -0.10159418801E+03  0.11018164511E+03  0.10570000000E+00 0.  1.
         13    1    1    2    0    0  0.64862796840E+01 -0.42148936922E+02 -0.82432747759E+02  0.92810418507E+02  0.10570000000E+00 0. -1.
<mgrwt>
<rscale>  0 0.85673011E+02</rscale>
<asrwt>0</asrwt>
<pdfrwt beam="2">  1        4 0.29770689E-01 0.85673011E+02</pdfrwt>
<pdfrwt beam="1">  1       -4 0.14588561E-02 0.85673011E+02</pdfrwt>
<totfact> 0.25092874E+04</totfact>
</mgrwt>
</event>
<event>
 4    1  0.5624886E-001  0.2445099E+02  0.7818608E-02  0.1669015E+00
         -4   -1    0    0    0  501 -0.00000000000E+00  0.00000000000E+00  0.30400040611E+02  0.30433186970E+02  0.14200000000E+01 0. -1.
          4   -1    0    0  501    0  0.00000000000E+00 -0.00000000000E+00 -0.47773630188E+01  0.49839339295E+01  0.14200000000E+01 0.  1.
        -13    1    1    2    0    0 -0.90185246193E+01 -0.81102025671E+01  0.10594448011E+02  0.16104740704E+02  0.10570000000E+00 0. -1.
         13    1    1    2    0    0  0.90185246193E+01  0.81102025671E+01  0.15028229581E+02  0.19312380195E+02  0.10570000000E+00 0.  1.
<mgrwt>
<rscale>  0 0.24450989E+02</rscale>
<asrwt>0</asrwt>
<pdfrwt beam="2">  1        4 0.75341872E-03 0.24450989E+02</pdfrwt>
<pdfrwt beam="1">  1       -4 0.46953691E-02 0.24450989E+02</pdfrwt>
<totfact> 0.80020433E+05</totfact>
</mgrwt>
</event>
<event>
 4    1  0.5624886E-001  0.2531362E+02  0.7818608E-02  0.1656538E+00
          4   -1    0    0  501    0  0.00000000000E+00  0.00000000000E+00  0.25296302452E+02  0.25336126732E+02  0.14200000000E+01 0. -1.
         -4   -1    0    0    0  501 -0.00000000000E+00 -0.00000000000E+00 -0.62076972635E+01  0.63680377916E+01  0.14200000000E+01 0.  1.
        -13    1    1    2    0    0  0.12434701627E+02  0.29345000291E+00  0.12475076610E+02  0.17616657639E+02  0.10570000000E+00 0.  1.
         13    1    1    2    0    0 -0.12434701627E+02 -0.29345000291E+00  0.66135285794E+01  0.14087506885E+02  0.10570000000E+00 0. -1.
<mgrwt>
<rscale>  0 0.25313617E+02</rscale>
<asrwt>0</asrwt>
<pdfrwt beam="1">  1        4 0.39071361E-02 0.25313617E+02</pdfrwt>
<pdfrwt beam="2">  1       -4 0.97042765E-03 0.25313617E+02</pdfrwt>
<totfact> 0.75318503E+05</totfact>
</mgrwt>
</event>
<event>
 4    1  0.5624886E-001  0.8689048E+02  0.7818608E-02  0.1310561E+00
         -4   -1    0    0    0  501 -0.00000000000E+00  0.00000000000E+00  0.40028530141E+02  0.40053709257E+02  0.14200000000E+01 0.  1.
          4   -1    0    0  501    0  0.00000000000E+00 -0.00000000000E+00 -0.47102882475E+02  0.47124281824E+02  0.14200000000E+01 0. -1.
        -13    1    1    2    0    0  0.98782513095E+01 -0.25937782735E+02 -0.37071255070E+02  0.46310231559E+02  0.10570000000E+00 0. -1.
         13    1    1    2    0    0 -0.98782513095E+01  0.25937782735E+02  0.29996902736E+02  0.40867759522E+02  0.10570000000E+00 0.  1.
<mgrwt>
<rscale>  0 0.86890481E+02</rscale>
<asrwt>0</asrwt>
<pdfrwt beam="2">  1        4 0.72501803E-02 0.86890481E+02</pdfrwt>
<pdfrwt beam="1">  1       -4 0.61618184E-02 0.86890481E+02</pdfrwt>
<totfact> 0.31068282E+04</totfact>
</mgrwt>
</event>
<event>
 4    1  0.5624886E-001  0.3112106E+02  0.7818608E-02  0.1586017E+00
          4   -1    0    0  501    0  0.00000000000E+00  0.00000000000E+00  0.52287401998E+02  0.52306680335E+02  0.14200000000E+01 0. -1.
         -4   -1    0    0    0  501 -0.00000000000E+00 -0.00000000000E+00 -0.45012669762E+01  0.47199369054E+01  0.14200000000E+01 0.  1.
        -13    1    1    2    0    0 -0.10041842478E+02  0.24775549785E+01  0.45194973722E+02  0.46363495352E+02  0.10570000000E+00 0. -1.
         13    1    1    2    0    0  0.10041842478E+02 -0.24775549785E+01  0.25911612991E+01  0.10663121888E+02  0.10570000000E+00 0.  1.
<mgrwt>
<rscale>  0 0.31121060E+02</rscale>
<asrwt>0</asrwt>
<pdfrwt beam="1">  1        4 0.80625192E-02 0.31121060E+02</pdfrwt>
<pdfrwt beam="2">  1       -4 0.71080634E-03 0.31121060E+02</pdfrwt>
<totfact> 0.43519097E+05</totfact>
</mgrwt>
</event>
<event>
 4    1  0.5624886E-001  0.3348726E+02  0.7818608E-02  0.1562459E+00
         -4   -1    0    0    0  501 -0.00000000000E+00  0.00000000000E+00  0.20398627134E+01  0.24854456118E+01  0.14200000000E+01 0. -1.
          4   -1    0    0  501    0  0.00000000000E+00 -0.00000000000E+00 -0.12345273066E+03  0.12346089708E+03  0.14200000000E+01 0.  1.
        -13    1    1    2    0    0 -0.15894842331E+02  0.29643896381E+01 -0.44353816464E+02  0.47209170996E+02  0.10570000000E+00 0. -1.
         13    1    1    2    0    0  0.15894842331E+02 -0.29643896381E+01 -0.77059051481E+02  0.78737171694E+02  0.10570000000E+00 0.  1.
<mgrwt>
<rscale>  0 0.33487262E+02</rscale>
<asrwt>0</asrwt>
<pdfrwt beam="2">  1        4 0.19027626E-01 0.33487262E+02</pdfrwt>
<pdfrwt beam="1">  1       -4 0.34872892E-03 0.33487262E+02</pdfrwt>
<totfact> 0.30295534E+05</totfact>
</mgrwt>
</event>
<event>
 4    1  0.5624886E-001  0.2294020E+02  0.7818608E-02  0.1692481E+00
          4   -1    0    0  501    0  0.00000000000E+00  0.00000000000E+00  0.30836246859E+02  0.30868924833E+02  0.14200000000E+01 0. -1.
         -4   -1    0    0    0  501 -0.00000000000E+00 -0.00000000000E+00 -0.41123806186E+01  0.43506406830E+01  0.14200000000E+01 0.  1.
        -13    1    1    2    0    0  0.58910284170E+01  0.84386530249E+01  0.21135491804E+02  0.23508195741E+02  0.10570000000E+00 0. -1.
         13    1    1    2    0    0 -0.58910284170E+01 -0.84386530249E+01  0.55883744360E+01  0.11711369775E+02  0.10570000000E+00 0.  1.
<mgrwt>
<rscale>  0 0.22940200E+02</rscale>
<asrwt>0</asrwt>
<pdfrwt beam="1">  1        4 0.47648793E-02 0.22940200E+02</pdfrwt>
<pdfrwt beam="2">  1       -4 0.65351534E-03 0.22940200E+02</pdfrwt>
<totfact> 0.91722136E+05</totfact>
</mgrwt>
</event>
<event>
 4    1  0.5624886E-001  0.2056128E+02  0.7818608E-02  0.1734391E+00
          4   -1    0    0  501    0  0.00000000000E+00  0.00000000000E+00  0.41718688948E+02  0.41742848579E+02  0.14200000000E+01 0. -1.
         -4   -1    0    0    0  501 -0.00000000000E+00 -0.00000000000E+00 -0.23075244480E+01  0.27094407316E+01  0.14200000000E+01 0.  1.
        -13    1    1    2    0    0 -0.75548969518E+01  0.67358543019E+01  0.23592367231E+02  0.25672147654E+02  0.10570000000E+00 0. -1.
         13    1    1    2    0    0  0.75548969518E+01 -0.67358543019E+01  0.15818797269E+02  0.18780141657E+02  0.10570000000E+00 0.  1.
<mgrwt>
<rscale>  0 0.20561278E+02</rscale>
<asrwt>0</asrwt>
<pdfrwt beam="1">  1        4 0.64510348E-02 0.20561278E+02</pdfrwt>
<pdfrwt beam="2">  1       -4 0.38777884E-03 0.20561278E+02</pdfrwt>
<totfact> 0.11116213E+06</totfact>
</mgrwt>
</event>
<event>
 4    1  0.5624886E-001  0.4292182E+02  0.7818608E-02  0.1487749E+00
         -4   -1    0    0    0  501 -0.00000000000E+00  0.00000000000E+00  0.76363562168E+02  0.76376763658E+02  0.14200000000E+01 0. -1.
          4   -1    0    0  501    0  0.00000000000E+00 -0.00000000000E+00 -0.59337854484E+01  0.61013285231E+01  0.14200000000E+01 0.  1.
        -13    1    1    2    0    0 -0.19561193045E+02 -0.71776770757E+01  0.25341572466E+02  0.32808014098E+02  0.10570000000E+00 0.  1.
         13    1    1    2    0    0  0.19561193045E+02  0.71776770757E+01  0.45088204253E+02  0.49670078083E+02  0.10570000000E+00 0. -1.
<mgrwt>
<rscale>  0 0.42921815E+02</rscale>
<asrwt>0</asrwt>
<pdfrwt beam="2">  1        4 0.92679346E-03 0.42921815E+02</pdfrwt>
<pdfrwt beam="1">  1       -4 0.11762144E-01 0.42921815E+02</pdfrwt>
<totfact> 0.19035406E+05</totfact>
</mgrwt>
</event>
<event>
 4    1  0.5624886E-001  0.6798725E+02  0.7818608E-02  0.1367074E+00
         -4   -1    0    0    0  501 -0.00000000000E+00  0.00000000000E+00  0.10496979921E+02  0.10592591159E+02  0.14200000000E+01 0. -1.
          4   -1    0    0  501    0  0.00000000000E+00 -0.00000000000E+00 -0.10948629906E+03  0.10949550713E+03  0.14200000000E+01 0.  1.
        -13    1    1    2    0    0  0.64732643445E+01  0.29317371725E+02 -0.77653343027E+02  0.83255415991E+02  0.10570000000E+00 0.  1.
         13    1    1    2    0    0 -0.64732643445E+01 -0.29317371725E+02 -0.21335976108E+02  0.36832682296E+02  0.10570000000E+00 0. -1.
<mgrwt>
<rscale>  0 0.67987249E+02</rscale>
<asrwt>0</asrwt>
<pdfrwt beam="2">  1        4 0.16852108E-01 0.67987249E+02</pdfrwt>
<pdfrwt beam="1">  1       -4 0.16229831E-02 0.67987249E+02</pdfrwt>
<totfact> 0.54864427E+04</totfact>
</mgrwt>
</event>
<event>
 4    1  0.5624886E-001  0.3709564E+02  0.7818608E-02  0.1530741E+00
         -4   -1    0    0    0  501 -0.00000000000E+00  0.00000000000E+00  0.14090626205E+02  0.14161996570E+02  0.14200000000E+01 0. -1.
          4   -1    0    0  501    0  0.00000000000E+00 -0.00000000000E+00 -0.24261069391E+02  0.24302590150E+02  0.14200000000E+01 0.  1.
        -13    1    1    2    0    0  0.11616038172E+02 -0.12362134348E+02  0.26919495073E+01  0.17175927139E+02  0.10570000000E+00 0. -1.
         13    1    1    2    0    0 -0.11616038172E+02  0.12362134348E+02 -0.12862392693E+02  0.21288659581E+02  0.10570000000E+00 0.  1.
<mgrwt>
<rscale>  0 0.37095640E+02</rscale>
<asrwt>0</asrwt>
<pdfrwt beam="2">  1        4 0.37411561E-02 0.37095640E+02</pdfrwt>
<pdfrwt beam="1">  1       -4 0.21764726E-02 0.37095640E+02</pdfrwt>
<totfact> 0.30876839E+05</totfact>
</mgrwt>
</event>
<event>
 4    1  0.5624886E-001  0.2559329E+02  0.7818608E-02  0.1652624E+00
          4   -1    0    0  501    0  0.00000000000E+00  0.00000000000E+00  0.61489735595E+01  0.63108062746E+01  0.14200000000E+01 0.  1.
         -4   -1    0    0    0  501 -0.00000000000E+00 -0.00000000000E+00 -0.26103856025E+02  0.26142450141E+02  0.14200000000E+01 0. -1.
        -13    1    1    2    0    0  0.11707069836E+02  0.51114566417E+01 -0.10926763557E+02  0.16810348225E+02  0.10570000000E+00 0.  1.
         13    1    1    2    0    0 -0.11707069836E+02 -0.51114566417E+01 -0.90281189089E+01  0.15642908191E+02  0.10570000000E+00 0. -1.
<mgrwt>
<rscale>  0 0.25593290E+02</rscale>
<asrwt>0</asrwt>
<pdfrwt beam="1">  1        4 0.96141340E-03 0.25593290E+02</pdfrwt>
<pdfrwt beam="2">  1       -4 0.40313952E-02 0.25593290E+02</pdfrwt>
<totfact> 0.73321908E+05</totfact>
</mgrwt>
</event>
<event>
 4    1  0.5624886E-001  0.3120022E+02  0.7818608E-02  0.1585188E+00
         -4   -1    0    0    0  501 -0.00000000000E+00  0.00000000000E+00  0.10565611350E+03  0.10566565535E+03  0.14200000000E+01 0.  1.
          4   -1    0    0  501    0  0.00000000000E+00 -0.00000000000E+00 -0.20739228882E+01  0.25134749146E+01  0.14200000000E+01 0. -1.
        -13    1    1    2    0    0  0.31475935698E+01 -0.14929620181E+02  0.40528425393E+02  0.43305488582E+02  0.10570000000E+00 0.  1.
         13    1    1    2    0    0 -0.31475935698E+01  0.14929620181E+02  0.63053765220E+02  0.64873641681E+02  0.10570000000E+00 0. -1.
<mgrwt>
<rscale>  0 0.31200225E+02</rscale>
<asrwt>0</asrwt>
<pdfrwt beam="2">  1        4 0.35361071E-03 0.31200225E+02</pdfrwt>
<pdfrwt beam="1">  1       -4 0.16289334E-01 0.31200225E+02</pdfrwt>
<totfact> 0.37225726E+05</totfact>
</mgrwt>
</event>
<event>
 4    1  0.5624886E-001  0.2946747E+02  0.7818608E-02  0.1604051E+00
          4   -1    0    0  501    0  0.00000000000E+00  0.00000000000E+00  0.62040520966E+02  0.62056769508E+02  0.14200000000E+01 0. -1.
         -4   -1    0    0    0  501 -0.00000000000E+00 -0.00000000000E+00 -0.33375668482E+01  0.36270859469E+01  0.14200000000E+01 0.  1.
        -13    1    1    2    0    0 -0.53858715475E+00  0.14693369249E+02  0.31450392623E+02  0.34717769869E+02  0.10570000000E+00 0.  1.
         13    1    1    2    0    0  0.53858715475E+00 -0.14693369249E+02  0.27252561495E+02  0.30966085586E+02  0.10570000000E+00 0. -1.
<mgrwt>
<rscale>  0 0.29467474E+02</rscale>
<asrwt>0</asrwt>
<pdfrwt beam="1">  1        4 0.95682156E-02 0.29467474E+02</pdfrwt>
<pdfrwt beam="2">  1       -4 0.53699244E-03 0.29467474E+02</pdfrwt>
<totfact> 0.47860680E+05</totfact>
</mgrwt>
</event>
<event>
 4    1  0.5624886E-001  0.2260132E+02  0.7818608E-02  0.1698055E+00
          4   -1    0    0  501    0  0.00000000000E+00  0.00000000000E+00  0.29765407083E+02  0.29799259367E+02  0.14200000000E+01 0.  1.
         -4   -1    0    0    0  501 -0.00000000000E+00 -0.00000000000E+00 -0.41355210093E+01  0.43725203279E+01  0.14200000000E+01 0. -1.
        -13    1    1    2    0    0 -0.22045306308E+01 -0.11011043690E+02  0.10908069023E+02  0.15655675671E+02  0.10570000000E+00 0.  1.
         13    1    1    2    0    0  0.22045306308E+01  0.11011043690E+02  0.14721817051E+02  0.18516104024E+02  0.10570000000E+00 0. -1.
<mgrwt>
<rscale>  0 0.22601316E+02</rscale>
<asrwt>0</asrwt>
<pdfrwt beam="1">  1        4 0.46001280E-02 0.22601316E+02</pdfrwt>
<pdfrwt beam="2">  1       -4 0.65706875E-03 0.22601316E+02</pdfrwt>
<totfact> 0.95037670E+05</totfact>
</mgrwt>
</event>
<event>
 4    1  0.5624886E-001  0.2311193E+02  0.7818608E-02  0.1689702E+00
         -4   -1    0    0    0  501 -0.00000000000E+00  0.00000000000E+00  0.75764688288E+01  0.77083902285E+01  0.14200000000E+01 0.  1.
          4   -1    0    0  501    0  0.00000000000E+00 -0.00000000000E+00 -0.17312303089E+02  0.17370441510E+02  0.14200000000E+01 0. -1.
        -13    1    1    2    0    0 -0.41627225443E+01 -0.10572499683E+02 -0.25858048026E+01  0.11653478772E+02  0.10570000000E+00 0.  1.
         13    1    1    2    0    0  0.41627225443E+01  0.10572499683E+02 -0.71500294575E+01  0.13425352966E+02  0.10570000000E+00 0. -1.
<mgrwt>
<rscale>  0 0.23111931E+02</rscale>
<asrwt>0</asrwt>
<pdfrwt beam="2">  1        4 0.26780512E-02 0.23111931E+02</pdfrwt>
<pdfrwt beam="1">  1       -4 0.11802306E-02 0.23111931E+02</pdfrwt>
<totfact> 0.94093541E+05</totfact>
</mgrwt>
</event>
<event>
 4    1  0.5624886E-001  0.2677123E+02  0.7818608E-02  0.1636791E+00
          4   -1    0    0  501    0  0.00000000000E+00  0.00000000000E+00  0.20233367427E+02  0.20283134803E+02  0.14200000000E+01 0. -1.
         -4   -1    0    0    0  501 -0.00000000000E+00 -0.00000000000E+00 -0.87373696011E+01  0.88520069785E+01  0.14200000000E+01 0.  1.
        -13    1    1    2    0    0 -0.29853114696E+00 -0.12316779547E+02  0.54274758387E-01  0.12320969828E+02  0.10570000000E+00 0.  1.
         13    1    1    2    0    0  0.29853114696E+00  0.12316779547E+02  0.11441723068E+02  0.16814171954E+02  0.10570000000E+00 0. -1.
<mgrwt>
<rscale>  0 0.26771226E+02</rscale>
<asrwt>0</asrwt>
<pdfrwt beam="1">  1        4 0.31254722E-02 0.26771226E+02</pdfrwt>
<pdfrwt beam="2">  1       -4 0.13568572E-02 0.26771226E+02</pdfrwt>
<totfact> 0.67311641E+05</totfact>
</mgrwt>
</event>
<event>
 4    1  0.5624886E-001  0.4811084E+02  0.7818608E-02  0.1455806E+00
         -4   -1    0    0    0  501 -0.00000000000E+00  0.00000000000E+00  0.39166386429E+02  0.39192119436E+02  0.14200000000E+01 0.  1.
          4   -1    0    0  501    0  0.00000000000E+00 -0.00000000000E+00 -0.14709699623E+02  0.14778080491E+02  0.14200000000E+01 0. -1.
        -13    1    1    2    0    0  0.50916535422E+01  0.14528426436E+02 -0.85066088575E+01  0.17589021497E+02  0.10570000000E+00 0. -1.
         13    1    1    2    0    0 -0.50916535422E+01 -0.14528426436E+02  0.32963295663E+02  0.36381178430E+02  0.10570000000E+00 0.  1.
<mgrwt>
<rscale>  0 0.48110840E+02</rscale>
<asrwt>0</asrwt>
<pdfrwt beam="2">  1        4 0.22702703E-02 0.48110840E+02</pdfrwt>
<pdfrwt beam="1">  1       -4 0.60328373E-02 0.48110840E+02</pdfrwt>
<totfact> 0.15666598E+05</totfact>
</mgrwt>
</event>
<event>
 4    1  0.5624886E-001  0.2200147E+02  0.7818608E-02  0.1708227E+00
          4   -1    0    0  501    0  0.00000000000E+00  0.00000000000E+00  0.26671097887E+02  0.26708872356E+02  0.14200000000E+01 0.  1.
         -4   -1    0    0    0  501 -0.00000000000E+00 -0.00000000000E+00 -0.43841746556E+01  0.46084039983E+01  0.14200000000E+01 0. -1.
        -13    1    1    2    0    0 -0.98434061377E+01  0.49096730644E+01  0.11020138365E+02  0.15570875250E+02  0.10570000000E+00 0. -1.
         13    1    1    2    0    0  0.98434061377E+01 -0.49096730644E+01  0.11266784867E+02  0.15746401104E+02  0.10570000000E+00 0.  1.
<mgrwt>
<rscale>  0 0.22001474E+02</rscale>
<asrwt>0</asrwt>
<pdfrwt beam="1">  1        4 0.41234000E-02 0.22001474E+02</pdfrwt>
<pdfrwt beam="2">  1       -4 0.69464255E-03 0.22001474E+02</pdfrwt>
<totfact> 0.10171792E+06</totfact>
</mgrwt>
</event>
<event>
 4    1  0.5624886E-001  0.4397283E+02  0.7818608E-02  0.1480858E+00
         -4   -1    0    0    0  501 -0.00000000000E+00  0.00000000000E+00  0.17057116045E+03  0.17057707108E+03  0.14200000000E+01 0.  1.
          4   -1    0    0  501    0  0.00000000000E+00 -0.00000000000E+00 -0.26498098833E+01  0.30063087695E+01  0.14200000000E+01 0. -1.
        -13    1    1    2    0    0 -0.12747399350E+02  0.17807540168E+02  0.91642213908E+02  0.94222668289E+02  0.10570000000E+00 0. -1.
         13    1    1    2    0    0  0.12747399350E+02 -0.17807540168E+02  0.76279136657E+02  0.79360711556E+02  0.10570000000E+00 0.  1.
<mgrwt>
<rscale>  0 0.43972830E+02</rscale>
<asrwt>0</asrwt>
<pdfrwt beam="2">  1        4 0.43554087E-03 0.43972830E+02</pdfrwt>
<pdfrwt beam="1">  1       -4 0.26269585E-01 0.43972830E+02</pdfrwt>
<totfact> 0.14351139E+05</totfact>
</mgrwt>
</event>
<event>
 4    1  0.5624886E-001  0.2549186E+02  0.7818608E-02  0.1654036E+00
          4   -1    0    0  501    0  0.00000000000E+00  0.00000000000E+00  0.29301623025E+01  0.32561098137E+01  0.14200000000E+01 0. -1.
         -4   -1    0    0    0  501 -0.00000000000E+00 -0.00000000000E+00 -0.52186204347E+02  0.52205520054E+02  0.14200000000E+01 0.  1.
        -13    1    1    2    0    0  0.96782801946E+01 -0.69963873964E+01 -0.14939864356E+02  0.19126663682E+02  0.10570000000E+00 0. -1.
         13    1    1    2    0    0 -0.96782801946E+01  0.69963873964E+01 -0.34316177689E+02  0.36334966186E+02  0.10570000000E+00 0.  1.
<mgrwt>
<rscale>  0 0.25491856E+02</rscale>
<asrwt>0</asrwt>
<pdfrwt beam="1">  1        4 0.47735295E-03 0.25491856E+02</pdfrwt>
<pdfrwt beam="2">  1       -4 0.80552049E-02 0.25491856E+02</pdfrwt>
<totfact> 0.68018471E+05</totfact>
</mgrwt>
</event>
<event>
 4    1  0.5624886E-001  0.4529607E+02  0.7818608E-02  0.1472502E+00
         -4   -1    0    0    0  501 -0.00000000000E+00  0.00000000000E+00  0.80507775311E+01  0.81750485537E+01  0.14200000000E+01 0.  1.
          4   -1    0    0  501    0  0.00000000000E+00 -0.00000000000E+00 -0.63091995630E+02  0.63107973447E+02  0.14200000000E+01 0. -1.
        -13    1    1    2    0    0 -0.14013963290E+02  0.12952077707E+02 -0.46715701409E+02  0.50463010361E+02  0.10570000000E+00 0. -1.
         13    1    1    2    0    0  0.14013963290E+02 -0.12952077707E+02 -0.83255166893E+01  0.20820011639E+02  0.10570000000E+00 0.  1.
<mgrwt>
<rscale>  0 0.45296065E+02</rscale>
<asrwt>0</asrwt>
<pdfrwt beam="2">  1        4 0.97172489E-02 0.45296065E+02</pdfrwt>
<pdfrwt beam="1">  1       -4 0.12493696E-02 0.45296065E+02</pdfrwt>
<totfact> 0.17248727E+05</totfact>
</mgrwt>
</event>
<event>
 4    1  0.5624886E-001  0.2188409E+02  0.7818608E-02  0.1710264E+00
         -4   -1    0    0    0  501 -0.00000000000E+00  0.00000000000E+00  0.34433354754E+02  0.34462622065E+02  0.14200000000E+01 0.  1.
          4   -1    0    0  501    0  0.00000000000E+00 -0.00000000000E+00 -0.33000247363E+01  0.35925705644E+01  0.14200000000E+01 0. -1.
        -13    1    1    2    0    0 -0.53818616622E+01 -0.87985548460E+01  0.92157863857E+01  0.13831879609E+02  0.10570000000E+00 0.  1.
         13    1    1    2    0    0  0.53818616622E+01  0.87985548460E+01  0.21917543631E+02  0.24223313020E+02  0.10570000000E+00 0. -1.
<mgrwt>
<rscale>  0 0.21884091E+02</rscale>
<asrwt>0</asrwt>
<pdfrwt beam="2">  1        4 0.53245094E-03 0.21884091E+02</pdfrwt>
<pdfrwt beam="1">  1       -4 0.53221943E-02 0.21884091E+02</pdfrwt>
<totfact> 0.10014321E+06</totfact>
</mgrwt>
</event>
<event>
 4    1  0.5624886E-001  0.2999330E+02  0.7818608E-02  0.1598163E+00
         -4   -1    0    0    0  501 -0.00000000000E+00  0.00000000000E+00  0.33263941474E+02  0.33294236775E+02  0.14200000000E+01 0. -1.
          4   -1    0    0  501    0  0.00000000000E+00 -0.00000000000E+00 -0.66527243896E+01  0.68025834654E+01  0.14200000000E+01 0.  1.
        -13    1    1    2    0    0  0.13832582331E+02 -0.37604270093E+01  0.74162602567E+01  0.16139802785E+02  0.10570000000E+00 0.  1.
         13    1    1    2    0    0 -0.13832582331E+02  0.37604270093E+01  0.19194956828E+02  0.23957017456E+02  0.10570000000E+00 0. -1.
<mgrwt>
<rscale>  0 0.29993301E+02</rscale>
<asrwt>0</asrwt>
<pdfrwt beam="2">  1        4 0.10373541E-02 0.29993301E+02</pdfrwt>
<pdfrwt beam="1">  1       -4 0.51313874E-02 0.29993301E+02</pdfrwt>
<totfact> 0.50134929E+05</totfact>
</mgrwt>
</event>
<event>
 4    1  0.5624886E-001  0.2416498E+02  0.7818608E-02  0.1673294E+00
          4   -1    0    0  501    0  0.00000000000E+00  0.00000000000E+00  0.10109657868E+02  0.10208897208E+02  0.14200000000E+01 0.  1.
         -4   -1    0    0    0  501 -0.00000000000E+00 -0.00000000000E+00 -0.14235041502E+02  0.14305691404E+02  0.14200000000E+01 0. -1.
        -13    1    1    2    0    0 -0.39080968885E+01 -0.99977140362E+01 -0.76879932797E+01  0.13203935792E+02  0.10570000000E+00 0. -1.
         13    1    1    2    0    0  0.39080968885E+01  0.99977140362E+01  0.35626096456E+01  0.11310652820E+02  0.10570000000E+00 0.  1.
<mgrwt>
<rscale>  0 0.24164980E+02</rscale>
<asrwt>0</asrwt>
<pdfrwt beam="1">  1        4 0.15684004E-02 0.24164980E+02</pdfrwt>
<pdfrwt beam="2">  1       -4 0.22030748E-02 0.24164980E+02</pdfrwt>
<totfact> 0.85759219E+05</totfact>
</mgrwt>
</event>
<event>
 4    1  0.5624886E-001  0.1538616E+03  0.7818608E-02  0.1195807E+00
          4   -1    0    0  501    0  0.00000000000E+00  0.00000000000E+00  0.36115784343E+02  0.36143689334E+02  0.14200000000E+01 0. -1.
         -4   -1    0    0    0  501 -0.00000000000E+00 -0.00000000000E+00 -0.16377716838E+03  0.16378332419E+03  0.14200000000E+01 0.  1.
        -13    1    1    2    0    0  0.74332442209E+02  0.17693401550E+02 -0.52211027416E+02  0.92543886775E+02  0.10570000000E+00 0.  1.
         13    1    1    2    0    0 -0.74332442209E+02 -0.17693401550E+02 -0.75450356617E+02  0.10738312674E+03  0.10570000000E+00 0. -1.
<mgrwt>
<rscale>  0 0.15386157E+03</rscale>
<asrwt>0</asrwt>
<pdfrwt beam="1">  1        4 0.55588947E-02 0.15386157E+03</pdfrwt>
<pdfrwt beam="2">  1       -4 0.25199107E-01 0.15386157E+03</pdfrwt>
<totfact> 0.49977269E+03</totfact>
</mgrwt>
</event>
<event>
 4    1  0.5624886E-001  0.2514060E+02  0.7818608E-02  0.1658991E+00
         -4   -1    0    0    0  501 -0.00000000000E+00  0.00000000000E+00  0.19209235369E+01  0.23887961894E+01  0.14200000000E+01 0. -1.
          4   -1    0    0  501    0  0.00000000000E+00 -0.00000000000E+00 -0.72852842829E+02  0.72866680371E+02  0.14200000000E+01 0.  1.
        -13    1    1    2    0    0 -0.22391657899E+01  0.10957360872E+02 -0.18290190112E+02  0.21438746408E+02  0.10570000000E+00 0. -1.
         13    1    1    2    0    0  0.22391657899E+01 -0.10957360872E+02 -0.52641729180E+02  0.53816730152E+02  0.10570000000E+00 0.  1.
<mgrwt>
<rscale>  0 0.25140596E+02</rscale>
<asrwt>0</asrwt>
<pdfrwt beam="2">  1        4 0.11245182E-01 0.25140596E+02</pdfrwt>
<pdfrwt beam="1">  1       -4 0.33258138E-03 0.25140596E+02</pdfrwt>
<totfact> 0.65723505E+05</totfact>
</mgrwt>
</event>
<event>
 4    1  0.5624886E-001  0.2712237E+02  0.7818608E-02  0.1632265E+00
         -4   -1    0    0    0  501 -0.00000000000E+00  0.00000000000E+00  0.86434525656E+02  0.86446189190E+02  0.14200000000E+01 0.  1.
          4   -1    0    0  501    0  0.00000000000E+00 -0.00000000000E+00 -0.18776168857E+01  0.23541123952E+01  0.14200000000E+01 0. -1.
        -13    1    1    2    0    0 -0.89292236079E+01 -0.10103381622E+02  0.47006224800E+02  0.48902000950E+02  0.10570000000E+00 0. -1.
         13    1    1    2    0    0  0.89292236079E+01  0.10103381622E+02  0.37550683971E+02  0.39898300635E+02  0.10570000000E+00 0.  1.
<mgrwt>
<rscale>  0 0.27122366E+02</rscale>
<asrwt>0</asrwt>
<pdfrwt beam="2">  1        4 0.32641487E-03 0.27122366E+02</pdfrwt>
<pdfrwt beam="1">  1       -4 0.13335169E-01 0.27122366E+02</pdfrwt>
<totfact> 0.53557982E+05</totfact>
</mgrwt>
</event>
<event>
 4    1  0.5624886E-001  0.2551008E+02  0.7818608E-02  0.1653782E+00
         -4   -1    0    0    0  501 -0.00000000000E+00  0.00000000000E+00  0.78151893138E+01  0.79431469840E+01  0.14200000000E+01 0. -1.
          4   -1    0    0  501    0  0.00000000000E+00 -0.00000000000E+00 -0.20495522685E+02  0.20544655026E+02  0.14200000000E+01 0.  1.
        -13    1    1    2    0    0  0.76410081996E+01  0.97352753325E+01 -0.97856350279E+01  0.15777528878E+02  0.10570000000E+00 0.  1.
         13    1    1    2    0    0 -0.76410081996E+01 -0.97352753325E+01 -0.28946983437E+01  0.12710273132E+02  0.10570000000E+00 0. -1.
<mgrwt>
<rscale>  0 0.25510077E+02</rscale>
<asrwt>0</asrwt>
<pdfrwt beam="2">  1        4 0.31667796E-02 0.25510077E+02</pdfrwt>
<pdfrwt beam="1">  1       -4 0.12159591E-02 0.25510077E+02</pdfrwt>
<totfact> 0.75017659E+05</totfact>
</mgrwt>
</event>
<event>
 4    1  0.5624886E-001  0.2350929E+02  0.7818608E-02  0.1683385E+00
         -4   -1    0    0    0  501 -0.00000000000E+00  0.00000000000E+00  0.28973823050E+02  0.29008599107E+02  0.14200000000E+01 0. -1.
          4   -1    0    0  501    0  0.00000000000E+00 -0.00000000000E+00 -0.46245978182E+01  0.48376962472E+01  0.14200000000E+01 0.  1.
        -13    1    1    2    0    0 -0.11077692739E+02  0.91400155071E+00  0.66716701729E+01  0.12964298309E+02  0.10570000000E+00 0.  1.
         13    1    1    2    0    0  0.11077692739E+02 -0.91400155071E+00  0.17677555059E+02  0.20881997045E+02  0.10570000000E+00 0. -1.
<mgrwt>
<rscale>  0 0.23509295E+02</rscale>
<asrwt>0</asrwt>
<pdfrwt beam="2">  1        4 0.73054385E-03 0.23509295E+02</pdfrwt>
<pdfrwt beam="1">  1       -4 0.44765786E-02 0.23509295E+02</pdfrwt>
<totfact> 0.87554061E+05</totfact>
</mgrwt>
</event>
<event>
 4    1  0.5624886E-001  0.2454846E+02  0.7818608E-02  0.1667574E+00
         -4   -1    0    0    0  501 -0.00000000000E+00  0.00000000000E+00  0.17113152405E+01  0.22237355626E+01  0.14200000000E+01 0. -1.
          4   -1    0    0  501    0  0.00000000000E+00 -0.00000000000E+00 -0.76051750056E+02  0.76065005663E+02  0.14200000000E+01 0.  1.
        -13    1    1    2    0    0  0.10678340907E+02  0.18846312446E+01 -0.18831428880E+02  0.21730455255E+02  0.10570000000E+00 0. -1.
         13    1    1    2    0    0 -0.10678340907E+02 -0.18846312446E+01 -0.55509005936E+02  0.56558285971E+02  0.10570000000E+00 0.  1.
<mgrwt>
<rscale>  0 0.24548457E+02</rscale>
<asrwt>0</asrwt>
<pdfrwt beam="2">  1        4 0.11740704E-01 0.24548457E+02</pdfrwt>
<pdfrwt beam="1">  1       -4 0.30371594E-03 0.24548457E+02</pdfrwt>
<totfact> 0.68516613E+05</totfact>
</mgrwt>
</event>
<event>
 4    1  0.5624886E-001  0.2921330E+02  0.7818608E-02  0.1606951E+00
         -4   -1    0    0    0  501 -0.00000000000E+00  0.00000000000E+00  0.88866812324E+00  0.16751510479E+01  0.14200000000E+01 0. -1.
          4   -1    0    0  501    0  0.00000000000E+00 -0.00000000000E+00 -0.16564423698E+03  0.16565032341E+03  0.14200000000E+01 0.  1.
        -13    1    1    2    0    0 -0.69201264726E+01  0.12857883030E+02 -0.84440987795E+02  0.85694252425E+02  0.10570000000E+00 0.  1.
         13    1    1    2    0    0  0.69201264726E+01 -0.12857883030E+02 -0.80314581063E+02  0.81631222031E+02  0.10570000000E+00 0. -1.
<mgrwt>
<rscale>  0 0.29213301E+02</rscale>
<asrwt>0</asrwt>
<pdfrwt beam="2">  1        4 0.25544679E-01 0.29213301E+02</pdfrwt>
<pdfrwt beam="1">  1       -4 0.19768518E-03 0.29213301E+02</pdfrwt>
<totfact> 0.37190579E+05</totfact>
</mgrwt>
</event>
<event>
 4    1  0.5624886E-001  0.4506857E+02  0.7818608E-02  0.1473914E+00
          4   -1    0    0  501    0  0.00000000000E+00  0.00000000000E+00  0.94921097921E+02  0.94931718780E+02  0.14200000000E+01 0. -1.
         -4   -1    0    0    0  501 -0.00000000000E+00 -0.00000000000E+00 -0.52442940302E+01  0.54331408849E+01  0.14200000000E+01 0.  1.
        -13    1    1    2    0    0  0.11773415280E+01 -0.21620399311E+02  0.58737593333E+02  0.62601468373E+02  0.10570000000E+00 0. -1.
         13    1    1    2    0    0 -0.11773415280E+01  0.21620399311E+02  0.30939210557E+02  0.37763391291E+02  0.10570000000E+00 0.  1.
<mgrwt>
<rscale>  0 0.45068569E+02</rscale>
<asrwt>0</asrwt>
<pdfrwt beam="1">  1        4 0.14618588E-01 0.45068569E+02</pdfrwt>
<pdfrwt beam="2">  1       -4 0.82215819E-03 0.45068569E+02</pdfrwt>
<totfact> 0.16118951E+05</totfact>
</mgrwt>
</event>
<event>
 4    1  0.5624886E-001  0.2192639E+02  0.7818608E-02  0.1709528E+00
          4   -1    0    0  501    0  0.00000000000E+00  0.00000000000E+00  0.32470453371E+01  0.35439671868E+01  0.14200000000E+01 0.  1.
         -4   -1    0    0    0  501 -0.00000000000E+00 -0.00000000000E+00 -0.35085359068E+02  0.35114082943E+02  0.14200000000E+01 0. -1.
        -13    1    1    2    0    0 -0.10184148371E+02 -0.10543523704E+01 -0.22827191365E+02  0.25018400730E+02  0.10570000000E+00 0. -1.
         13    1    1    2    0    0  0.10184148371E+02  0.10543523704E+01 -0.90111223658E+01  0.13639649400E+02  0.10570000000E+00 0.  1.
<mgrwt>
<rscale>  0 0.21926391E+02</rscale>
<asrwt>0</asrwt>
<pdfrwt beam="1">  1        4 0.52459513E-03 0.21926391E+02</pdfrwt>
<pdfrwt beam="2">  1       -4 0.54227970E-02 0.21926391E+02</pdfrwt>
<totfact> 0.99508411E+05</totfact>
</mgrwt>
</event>
<event>
 4    1  0.5624886E-001  0.5085594E+02  0.7818608E-02  0.1440779E+00
          4   -1    0    0  501    0  0.00000000000E+00  0.00000000000E+00  0.17175449073E+02  0.17234049172E+02  0.14200000000E+01 0.  1.
         -4   -1    0    0    0  501 -0.00000000000E+00 -0.00000000000E+00 -0.37509522253E+02  0.37536391138E+02  0.14200000000E+01 0. -1.
        -13    1    1    2    0    0  0.18492383580E+01  0.15716234983E+02 -0.31602594520E+02  0.35343385200E+02  0.10570000000E+00 0. -1.
         13    1    1    2    0    0 -0.18492383580E+01 -0.15716234983E+02  0.11268521340E+02  0.19427055109E+02  0.10570000000E+00 0.  1.
<mgrwt>
<rscale>  0 0.50855940E+02</rscale>
<asrwt>0</asrwt>
<pdfrwt beam="1">  1        4 0.26489513E-02 0.50855940E+02</pdfrwt>
<pdfrwt beam="2">  1       -4 0.57772703E-02 0.50855940E+02</pdfrwt>
<totfact> 0.13621906E+05</totfact>
</mgrwt>
</event>
<event>
 4    1  0.5624886E-001  0.2501962E+02  0.7818608E-02  0.1660720E+00
          4   -1    0    0  501    0  0.00000000000E+00  0.00000000000E+00  0.12048812021E+01  0.18622939379E+01  0.14200000000E+01 0. -1.
         -4   -1    0    0    0  501 -0.00000000000E+00 -0.00000000000E+00 -0.10138179319E+03  0.10139173728E+03  0.14200000000E+01 0. -1.
        -13    1    1    2    0    0  0.12342411654E+02 -0.19278040212E+01 -0.52802801226E+02  0.54260469437E+02  0.10570000000E+00 0. -1.
         13    1    1    2    0    0 -0.12342411654E+02  0.19278040212E+01 -0.47374110758E+02  0.48993561785E+02  0.10570000000E+00 0.  1.
<mgrwt>
<rscale>  0 0.25019618E+02</rscale>
<asrwt>0</asrwt>
<pdfrwt beam="1">  1        4 0.23670156E-03 0.25019618E+02</pdfrwt>
<pdfrwt beam="2">  1       -4 0.15648529E-01 0.25019618E+02</pdfrwt>
<totfact> 0.61155516E+05</totfact>
</mgrwt>
</event>
<event>
 4    1  0.5624886E-001  0.4110568E+02  0.7818608E-02  0.1500229E+00
          4   -1    0    0  501    0  0.00000000000E+00  0.00000000000E+00  0.31572621535E+01  0.34618931679E+01  0.14200000000E+01 0.  1.
         -4   -1    0    0    0  501 -0.00000000000E+00 -0.00000000000E+00 -0.12732660205E+03  0.12733452003E+03  0.14200000000E+01 0. -1.
        -13    1    1    2    0    0  0.98456213725E+01 -0.17829932288E+02 -0.53332694261E+02  0.57089668026E+02  0.10570000000E+00 0.  1.
         13    1    1    2    0    0 -0.98456213725E+01  0.17829932288E+02 -0.70836645637E+02  0.73706745168E+02  0.10570000000E+00 0. -1.
<mgrwt>
<rscale>  0 0.41105678E+02</rscale>
<asrwt>0</asrwt>
<pdfrwt beam="1">  1        4 0.50977497E-03 0.41105678E+02</pdfrwt>
<pdfrwt beam="2">  1       -4 0.19612746E-01 0.41105678E+02</pdfrwt>
<totfact> 0.18601538E+05</totfact>
</mgrwt>
</event>
<event>
 4    1  0.5624886E-001  0.2652061E+02  0.7818608E-02  0.1640075E+00
         -4   -1    0    0    0  501 -0.00000000000E+00  0.00000000000E+00  0.82952852194E+01  0.84159465820E+01  0.14200000000E+01 0. -1.
          4   -1    0    0  501    0  0.00000000000E+00 -0.00000000000E+00 -0.20899078661E+02  0.20947264472E+02  0.14200000000E+01 0.  1.
        -13    1    1    2    0    0  0.79395030712E+01  0.99428981618E+01 -0.21699263282E+01  0.12908008585E+02  0.10570000000E+00 0. -1.
         13    1    1    2    0    0 -0.79395030712E+01 -0.99428981618E+01 -0.10433867113E+02  0.16455202469E+02  0.10570000000E+00 0.  1.
<mgrwt>
<rscale>  0 0.26520606E+02</rscale>
<asrwt>0</asrwt>
<pdfrwt beam="2">  1        4 0.32282311E-02 0.26520606E+02</pdfrwt>
<pdfrwt beam="1">  1       -4 0.12891860E-02 0.26520606E+02</pdfrwt>
<totfact> 0.68657210E+05</totfact>
</mgrwt>
</event>
<event>
 4    1  0.5624886E-001  0.3064688E+02  0.7818608E-02  0.1591046E+00
         -4   -1    0    0    0  501 -0.00000000000E+00  0.00000000000E+00  0.12938742832E+02  0.13016430620E+02  0.14200000000E+01 0. -1.
          4   -1    0    0  501    0  0.00000000000E+00 -0.00000000000E+00 -0.17987579734E+02  0.18043542465E+02  0.14200000000E+01 0.  1.
        -13    1    1    2    0    0 -0.22617186442E+01  0.13855346272E+02 -0.87480907372E+01  0.16541652142E+02  0.10570000000E+00 0.  1.
         13    1    1    2    0    0  0.22617186442E+01 -0.13855346272E+02  0.36992538355E+01  0.14518320942E+02  0.10570000000E+00 0. -1.
<mgrwt>
<rscale>  0 0.30646879E+02</rscale>
<asrwt>0</asrwt>
<pdfrwt beam="2">  1        4 0.27776008E-02 0.30646879E+02</pdfrwt>
<pdfrwt beam="1">  1       -4 0.20008566E-02 0.30646879E+02</pdfrwt>
<totfact> 0.49370809E+05</totfact>
</mgrwt>
</event>
<event>
 4    1  0.5624886E-001  0.2240870E+02  0.7818608E-02  0.1701278E+00
         -4   -1    0    0    0  501 -0.00000000000E+00  0.00000000000E+00  0.53524491168E+01  0.55376088295E+01  0.14200000000E+01 0.  1.
          4   -1    0    0  501    0  0.00000000000E+00 -0.00000000000E+00 -0.22847847466E+02  0.22891931631E+02  0.14200000000E+01 0. -1.
        -13    1    1    2    0    0 -0.92634025908E+01 -0.62592849810E+01 -0.96773967110E+01  0.14786901488E+02  0.10570000000E+00 0. -1.
         13    1    1    2    0    0  0.92634025908E+01  0.62592849810E+01 -0.78180016377E+01  0.13642638972E+02  0.10570000000E+00 0.  1.
<mgrwt>
<rscale>  0 0.22408699E+02</rscale>
<asrwt>0</asrwt>
<pdfrwt beam="2">  1        4 0.35326876E-02 0.22408699E+02</pdfrwt>
<pdfrwt beam="1">  1       -4 0.84108787E-03 0.22408699E+02</pdfrwt>
<totfact> 0.99044272E+05</totfact>
</mgrwt>
</event>
<event>
 4    1  0.5624886E-001  0.2497860E+02  0.7818608E-02  0.1661310E+00
         -4   -1    0    0    0  501 -0.00000000000E+00  0.00000000000E+00  0.92008295114E+01  0.93097617423E+01  0.14200000000E+01 0. -1.
          4   -1    0    0  501    0  0.00000000000E+00 -0.00000000000E+00 -0.16714115710E+02  0.16774327526E+02  0.14200000000E+01 0.  1.
        -13    1    1    2    0    0 -0.12163193104E+02 -0.26160032923E+01 -0.48932294718E+01  0.13369428068E+02  0.10570000000E+00 0. -1.
         13    1    1    2    0    0  0.12163193104E+02  0.26160032923E+01 -0.26200567266E+01  0.12714661201E+02  0.10570000000E+00 0.  1.
<mgrwt>
<rscale>  0 0.24978596E+02</rscale>
<asrwt>0</asrwt>
<pdfrwt beam="2">  1        4 0.25844135E-02 0.24978596E+02</pdfrwt>
<pdfrwt beam="1">  1       -4 0.14285233E-02 0.24978596E+02</pdfrwt>
<totfact> 0.79312126E+05</totfact>
</mgrwt>
</event>
<event>
 4    1  0.5624886E-001  0.2170551E+02  0.7818608E-02  0.1713395E+00
         -4   -1    0    0    0  501 -0.00000000000E+00  0.00000000000E+00  0.37407983094E+01  0.40012463048E+01  0.14200000000E+01 0.  1.
          4   -1    0    0  501    0  0.00000000000E+00 -0.00000000000E+00 -0.30148949754E+02  0.30182371863E+02  0.14200000000E+01 0. -1.
        -13    1    1    2    0    0  0.98278774030E+01  0.18569436757E+01 -0.65716471895E+01  0.11968004568E+02  0.10570000000E+00 0.  1.
         13    1    1    2    0    0 -0.98278774030E+01 -0.18569436757E+01 -0.19836504256E+02  0.22215613600E+02  0.10570000000E+00 0. -1.
<mgrwt>
<rscale>  0 0.21705513E+02</rscale>
<asrwt>0</asrwt>
<pdfrwt beam="2">  1        4 0.46609052E-02 0.21705513E+02</pdfrwt>
<pdfrwt beam="1">  1       -4 0.59811284E-03 0.21705513E+02</pdfrwt>
<totfact> 0.10343268E+06</totfact>
</mgrwt>
</event>
<event>
 4    1  0.5624886E-001  0.2225791E+02  0.7818608E-02  0.1703829E+00
         -4   -1    0    0    0  501 -0.00000000000E+00  0.00000000000E+00  0.18641090752E+02  0.18695097336E+02  0.14200000000E+01 0. -1.
          4   -1    0    0  501    0  0.00000000000E+00 -0.00000000000E+00 -0.65037828274E+01  0.66569956486E+01  0.14200000000E+01 0.  1.
        -13    1    1    2    0    0 -0.10926673173E+02 -0.20993063798E+01  0.63052495471E+01  0.12789316567E+02  0.10570000000E+00 0.  1.
         13    1    1    2    0    0  0.10926673173E+02  0.20993063798E+01  0.58320583773E+01  0.12562776418E+02  0.10570000000E+00 0. -1.
<mgrwt>
<rscale>  0 0.22257906E+02</rscale>
<asrwt>0</asrwt>
<pdfrwt beam="2">  1        4 0.10165219E-02 0.22257906E+02</pdfrwt>
<pdfrwt beam="1">  1       -4 0.28838001E-02 0.22257906E+02</pdfrwt>
<totfact> 0.10177204E+06</totfact>
</mgrwt>
</event>
<event>
 4    1  0.5624886E-001  0.3411833E+02  0.7818608E-02  0.1556572E+00
          4   -1    0    0  501    0  0.00000000000E+00  0.00000000000E+00  0.14059495655E+01  0.19982727994E+01  0.14200000000E+01 0. -1.
         -4   -1    0    0    0  501 -0.00000000000E+00 -0.00000000000E+00 -0.17037727362E+03  0.17038319098E+03  0.14200000000E+01 0.  1.
        -13    1    1    2    0    0  0.16912736842E+02 -0.20363290734E+01 -0.89051639045E+02  0.90666382373E+02  0.10570000000E+00 0.  1.
         13    1    1    2    0    0 -0.16912736842E+02  0.20363290734E+01 -0.79919685012E+02  0.81715081401E+02  0.10570000000E+00 0. -1.
<mgrwt>
<rscale>  0 0.34118334E+02</rscale>
<asrwt>0</asrwt>
<pdfrwt beam="1">  1        4 0.26231858E-03 0.34118334E+02</pdfrwt>
<pdfrwt beam="2">  1       -4 0.26257893E-01 0.34118334E+02</pdfrwt>
<totfact> 0.25989814E+05</totfact>
</mgrwt>
</event>
<event>
 4    1  0.5624886E-001  0.2579360E+02  0.7818608E-02  0.1649858E+00
         -4   -1    0    0    0  501 -0.00000000000E+00  0.00000000000E+00  0.92169052927E+01  0.93256497454E+01  0.14200000000E+01 0.  1.
          4   -1    0    0  501    0  0.00000000000E+00 -0.00000000000E+00 -0.17802899532E+02  0.17859440970E+02  0.14200000000E+01 0. -1.
        -13    1    1    2    0    0 -0.10841880396E+02 -0.31511355702E+01  0.22754076528E+01  0.11518015383E+02  0.10570000000E+00 0.  1.
         13    1    1    2    0    0  0.10841880396E+02  0.31511355702E+01 -0.10861401892E+02  0.15667075332E+02  0.10570000000E+00 0. -1.
<mgrwt>
<rscale>  0 0.25793601E+02</rscale>
<asrwt>0</asrwt>
<pdfrwt beam="2">  1        4 0.27516219E-02 0.25793601E+02</pdfrwt>
<pdfrwt beam="1">  1       -4 0.14306997E-02 0.25793601E+02</pdfrwt>
<totfact> 0.73616144E+05</totfact>
</mgrwt>
</event>
<event>
 4    1  0.5624886E-001  0.3356726E+02  0.7818608E-02  0.1561704E+00
          4   -1    0    0  501    0  0.00000000000E+00  0.00000000000E+00  0.57496540175E+02  0.57514072470E+02  0.14200000000E+01 0.  1.
         -4   -1    0    0    0  501 -0.00000000000E+00 -0.00000000000E+00 -0.47776826539E+01  0.49842403174E+01  0.14200000000E+01 0. -1.
        -13    1    1    2    0    0 -0.57051046222E+01 -0.12427559914E+02  0.82419924346E+01  0.15966655127E+02  0.10570000000E+00 0. -1.
         13    1    1    2    0    0  0.57051046222E+01  0.12427559914E+02  0.44476865086E+02  0.46531657660E+02  0.10570000000E+00 0.  1.
<mgrwt>
<rscale>  0 0.33567263E+02</rscale>
<asrwt>0</asrwt>
<pdfrwt beam="1">  1        4 0.88628592E-02 0.33567263E+02</pdfrwt>
<pdfrwt beam="2">  1       -4 0.75226580E-03 0.33567263E+02</pdfrwt>
<totfact> 0.35986359E+05</totfact>
</mgrwt>
</event>
<event>
 4    1  0.5624886E-001  0.5686711E+02  0.7818608E-02  0.1411470E+00
         -4   -1    0    0    0  501 -0.00000000000E+00  0.00000000000E+00  0.22108228081E+02  0.22153784075E+02  0.14200000000E+01 0.  1.
          4   -1    0    0  501    0  0.00000000000E+00 -0.00000000000E+00 -0.36471584263E+02  0.36499217233E+02  0.14200000000E+01 0. -1.
        -13    1    1    2    0    0  0.16366703312E+02  0.15958524427E+02 -0.24621643568E+02  0.33597321079E+02  0.10570000000E+00 0. -1.
         13    1    1    2    0    0 -0.16366703312E+02 -0.15958524427E+02  0.10258287386E+02  0.25055680230E+02  0.10570000000E+00 0.  1.
<mgrwt>
<rscale>  0 0.56867113E+02</rscale>
<asrwt>0</asrwt>
<pdfrwt beam="2">  1        4 0.56166429E-02 0.56867113E+02</pdfrwt>
<pdfrwt beam="1">  1       -4 0.34068958E-02 0.56867113E+02</pdfrwt>
<totfact> 0.10165948E+05</totfact>
</mgrwt>
</event>
<event>
 4    1  0.5624886E-001  0.2495051E+02  0.7818608E-02  0.1661714E+00
          4   -1    0    0  501    0  0.00000000000E+00  0.00000000000E+00  0.41782286903E+02  0.41806409782E+02  0.14200000000E+01 0. -1.
         -4   -1    0    0    0  501 -0.00000000000E+00 -0.00000000000E+00 -0.35633362629E+01  0.38358526200E+01  0.14200000000E+01 0.  1.
        -13    1    1    2    0    0 -0.99820500671E+01 -0.22746058186E+01  0.32148459819E+02  0.33739439776E+02  0.10570000000E+00 0. -1.
         13    1    1    2    0    0  0.99820500671E+01  0.22746058186E+01  0.60704908218E+01  0.11902822627E+02  0.10570000000E+00 0.  1.
<mgrwt>
<rscale>  0 0.24950510E+02</rscale>
<asrwt>0</asrwt>
<pdfrwt beam="1">  1        4 0.64508623E-02 0.24950510E+02</pdfrwt>
<pdfrwt beam="2">  1       -4 0.57102400E-03 0.24950510E+02</pdfrwt>
<totfact> 0.73737499E+05</totfact>
</mgrwt>
</event>
<event>
 4    1  0.5624886E-001  0.5960192E+02  0.7818608E-02  0.1399510E+00
         -4   -1    0    0    0  501 -0.00000000000E+00  0.00000000000E+00  0.36870293808E+02  0.36897628182E+02  0.14200000000E+01 0.  1.
          4   -1    0    0  501    0  0.00000000000E+00 -0.00000000000E+00 -0.24029835533E+02  0.24071755144E+02  0.14200000000E+01 0. -1.
        -13    1    1    2    0    0  0.12624480661E+02  0.99154562085E+01 -0.19263434593E+02  0.25075583116E+02  0.10570000000E+00 0. -1.
         13    1    1    2    0    0 -0.12624480661E+02 -0.99154562085E+01  0.32103892868E+02  0.35893800211E+02  0.10570000000E+00 0.  1.
<mgrwt>
<rscale>  0 0.59601916E+02</rscale>
<asrwt>0</asrwt>
<pdfrwt beam="2">  1        4 0.37022250E-02 0.59601916E+02</pdfrwt>
<pdfrwt beam="1">  1       -4 0.56776801E-02 0.59601916E+02</pdfrwt>
<totfact> 0.89605088E+04</totfact>
</mgrwt>
</event>
<event>
 4    1  0.5624886E-001  0.2859571E+02  0.7818608E-02  0.1614151E+00
         -4   -1    0    0    0  501 -0.00000000000E+00  0.00000000000E+00  0.18381467933E+02  0.18436235065E+02  0.14200000000E+01 0. -1.
          4   -1    0    0  501    0  0.00000000000E+00 -0.00000000000E+00 -0.11004456931E+02  0.11095696118E+02  0.14200000000E+01 0.  1.
        -13    1    1    2    0    0  0.42579620359E+01  0.12110995871E+02 -0.28112801831E+01  0.13142333524E+02  0.10570000000E+00 0.  1.
         13    1    1    2    0    0 -0.42579620359E+01 -0.12110995871E+02  0.10188291185E+02  0.16389597660E+02  0.10570000000E+00 0. -1.
<mgrwt>
<rscale>  0 0.28595711E+02</rscale>
<asrwt>0</asrwt>
<pdfrwt beam="2">  1        4 0.17042247E-02 0.28595711E+02</pdfrwt>
<pdfrwt beam="1">  1       -4 0.28391494E-02 0.28595711E+02</pdfrwt>
<totfact> 0.58061182E+05</totfact>
</mgrwt>
</event>
<event>
 4    1  0.5624886E-001  0.2689289E+02  0.7818608E-02  0.1635213E+00
          4   -1    0    0  501    0  0.00000000000E+00  0.00000000000E+00  0.11244211891E+02  0.11333521123E+02  0.14200000000E+01 0. -1.
         -4   -1    0    0    0  501 -0.00000000000E+00 -0.00000000000E+00 -0.15895304422E+02  0.15958605913E+02  0.14200000000E+01 0.  1.
        -13    1    1    2    0    0  0.74134673257E+01 -0.10421290305E+02 -0.65384290041E+01  0.14364018092E+02  0.10570000000E+00 0.  1.
         13    1    1    2    0    0 -0.74134673257E+01  0.10421290305E+02  0.18873364726E+01  0.12928108944E+02  0.10570000000E+00 0. -1.
<mgrwt>
<rscale>  0 0.26892890E+02</rscale>
<asrwt>0</asrwt>
<pdfrwt beam="1">  1        4 0.17416180E-02 0.26892890E+02</pdfrwt>
<pdfrwt beam="2">  1       -4 0.24571707E-02 0.26892890E+02</pdfrwt>
<totfact> 0.67134901E+05</totfact>
</mgrwt>
</event>
<event>
 4    1  0.5624886E-001  0.2339505E+02  0.7818608E-02  0.1685185E+00
         -4   -1    0    0    0  501 -0.00000000000E+00  0.00000000000E+00  0.14898997128E+01  0.20582033802E+01  0.14200000000E+01 0.  1.
          4   -1    0    0  501    0  0.00000000000E+00 -0.00000000000E+00 -0.76553799337E+02  0.76566968028E+02  0.14200000000E+01 0. -1.
        -13    1    1    2    0    0 -0.10123211141E+02 -0.35513161941E+01 -0.53198182349E+02  0.54269227267E+02  0.10570000000E+00 0. -1.
         13    1    1    2    0    0  0.10123211141E+02  0.35513161941E+01 -0.21865717276E+02  0.24355944141E+02  0.10570000000E+00 0.  1.
<mgrwt>
<rscale>  0 0.23395054E+02</rscale>
<asrwt>0</asrwt>
<pdfrwt beam="2">  1        4 0.11822234E-01 0.23395054E+02</pdfrwt>
<pdfrwt beam="1">  1       -4 0.27394404E-03 0.23395054E+02</pdfrwt>
<totfact> 0.75764588E+05</totfact>
</mgrwt>
</event>
<event>
 4    1  0.5624886E-001  0.3682813E+02  0.7818608E-02  0.1532941E+00
          4   -1    0    0  501    0  0.00000000000E+00  0.00000000000E+00  0.70813059048E+02  0.70827295104E+02  0.14200000000E+01 0. -1.
         -4   -1    0    0    0  501 -0.00000000000E+00 -0.00000000000E+00 -0.46680230890E+01  0.48792253032E+01  0.14200000000E+01 0.  1.
        -13    1    1    2    0    0  0.54304918475E+01  0.16902279243E+02  0.23025059139E+02  0.29074762358E+02  0.10570000000E+00 0.  1.
         13    1    1    2    0    0 -0.54304918475E+01 -0.16902279243E+02  0.43119976820E+02  0.46631758049E+02  0.10570000000E+00 0. -1.
<mgrwt>
<rscale>  0 0.36828134E+02</rscale>
<asrwt>0</asrwt>
<pdfrwt beam="1">  1        4 0.10911658E-01 0.36828134E+02</pdfrwt>
<pdfrwt beam="2">  1       -4 0.73549883E-03 0.36828134E+02</pdfrwt>
<totfact> 0.27892009E+05</totfact>
</mgrwt>
</event>
<event>
 4    1  0.5624886E-001  0.3882016E+02  0.7818608E-02  0.1517078E+00
         -4   -1    0    0    0  501 -0.00000000000E+00  0.00000000000E+00  0.15459425141E+03  0.15460077286E+03  0.14200000000E+01 0. -1.
          4   -1    0    0  501    0  0.00000000000E+00 -0.00000000000E+00 -0.22230454060E+01  0.26378648330E+01  0.14200000000E+01 0.  1.
        -13    1    1    2    0    0  0.57135636228E+01 -0.16946523133E+02  0.45629469339E+02  0.49009071612E+02  0.10570000000E+00 0.  1.
         13    1    1    2    0    0 -0.57135636228E+01  0.16946523133E+02  0.10674173667E+03  0.10822956608E+03  0.10570000000E+00 0. -1.
<mgrwt>
<rscale>  0 0.38820159E+02</rscale>
<asrwt>0</asrwt>
<pdfrwt beam="2">  1        4 0.37441779E-03 0.38820159E+02</pdfrwt>
<pdfrwt beam="1">  1       -4 0.23816144E-01 0.38820159E+02</pdfrwt>
<totfact> 0.19982840E+05</totfact>
</mgrwt>
</event>
<event>
 4    1  0.5624886E-001  0.3579012E+02  0.7818608E-02  0.1541694E+00
         -4   -1    0    0    0  501 -0.00000000000E+00  0.00000000000E+00  0.23122968983E+02  0.23166529619E+02  0.14200000000E+01 0.  1.
          4   -1    0    0  501    0  0.00000000000E+00 -0.00000000000E+00 -0.13755963190E+02  0.13829060824E+02  0.14200000000E+01 0. -1.
        -13    1    1    2    0    0 -0.11001651623E+02 -0.88898343794E+01  0.16014301436E+02  0.21366668357E+02  0.10570000000E+00 0.  1.
         13    1    1    2    0    0  0.11001651623E+02  0.88898343794E+01 -0.66472956419E+01  0.15628922086E+02  0.10570000000E+00 0. -1.
<mgrwt>
<rscale>  0 0.35790123E+02</rscale>
<asrwt>0</asrwt>
<pdfrwt beam="2">  1        4 0.21252758E-02 0.35790123E+02</pdfrwt>
<pdfrwt beam="1">  1       -4 0.35663535E-02 0.35790123E+02</pdfrwt>
<totfact> 0.33771155E+05</totfact>
</mgrwt>
</event>
<event>
 4    1  0.5624886E-001  0.4783829E+02  0.7818608E-02  0.1457363E+00
         -4   -1    0    0    0  501 -0.00000000000E+00  0.00000000000E+00  0.24141943858E+02  0.24183669144E+02  0.14200000000E+01 0. -1.
          4   -1    0    0  501    0  0.00000000000E+00 -0.00000000000E+00 -0.23614868044E+02  0.23657522962E+02  0.14200000000E+01 0.  1.
        -13    1    1    2    0    0  0.16827490108E+02  0.15581351167E+02  0.70589016347E+01  0.23995461911E+02  0.10570000000E+00 0.  1.
         13    1    1    2    0    0 -0.16827490108E+02 -0.15581351167E+02 -0.65318258202E+01  0.23845730196E+02  0.10570000000E+00 0. -1.
<mgrwt>
<rscale>  0 0.47838289E+02</rscale>
<asrwt>0</asrwt>
<pdfrwt beam="2">  1        4 0.36395474E-02 0.47838289E+02</pdfrwt>
<pdfrwt beam="1">  1       -4 0.37206360E-02 0.47838289E+02</pdfrwt>
<totfact> 0.16193460E+05</totfact>
</mgrwt>
</event>
<event>
 4    1  0.5624886E-001  0.6397034E+02  0.7818608E-02  0.1381887E+00
         -4   -1    0    0    0  501 -0.00000000000E+00  0.00000000000E+00  0.46281311408E+02  0.46303090455E+02  0.14200000000E+01 0. -1.
          4   -1    0    0  501    0  0.00000000000E+00 -0.00000000000E+00 -0.22055238714E+02  0.22100903935E+02  0.14200000000E+01 0.  1.
        -13    1    1    2    0    0 -0.20670538507E+02 -0.22091786427E+01 -0.13879907939E+02  0.24996292712E+02  0.10570000000E+00 0.  1.
         13    1    1    2    0    0  0.20670538507E+02  0.22091786427E+01  0.38105980633E+02  0.43407701678E+02  0.10570000000E+00 0. -1.
<mgrwt>
<rscale>  0 0.63970336E+02</rscale>
<asrwt>0</asrwt>
<pdfrwt beam="2">  1        4 0.33983017E-02 0.63970336E+02</pdfrwt>
<pdfrwt beam="1">  1       -4 0.71253897E-02 0.63970336E+02</pdfrwt>
<totfact> 0.73187525E+04</totfact>
</mgrwt>
</event>
<event>
 4    1  0.5624886E-001  0.5511421E+02  0.7818608E-02  0.1419560E+00
         -4   -1    0    0    0  501 -0.00000000000E+00  0.00000000000E+00  0.10008547884E+02  0.10108779884E+02  0.14200000000E+01 0.  1.
          4   -1    0    0  501    0  0.00000000000E+00 -0.00000000000E+00 -0.75389546902E+02  0.75402918923E+02  0.14200000000E+01 0. -1.
        -13    1    1    2    0    0  0.15512567633E+01 -0.22099630368E+02 -0.58117842312E+02  0.62197225239E+02  0.10570000000E+00 0. -1.
         13    1    1    2    0    0 -0.15512567633E+01  0.22099630368E+02 -0.72631567055E+01  0.23314473568E+02  0.10570000000E+00 0.  1.
<mgrwt>
<rscale>  0 0.55114205E+02</rscale>
<asrwt>0</asrwt>
<pdfrwt beam="2">  1        4 0.11607130E-01 0.55114205E+02</pdfrwt>
<pdfrwt beam="1">  1       -4 0.15485154E-02 0.55114205E+02</pdfrwt>
<totfact> 0.10210281E+05</totfact>
</mgrwt>
</event>
<event>
 4    1  0.5624886E-001  0.7542526E+02  0.7818608E-02  0.1342559E+00
         -4   -1    0    0    0  501 -0.00000000000E+00  0.00000000000E+00  0.12965218871E+02  0.13042748958E+02  0.14200000000E+01 0.  1.
          4   -1    0    0  501    0  0.00000000000E+00 -0.00000000000E+00 -0.10928759934E+03  0.10929682415E+03  0.14200000000E+01 0. -1.
        -13    1    1    2    0    0  0.20848882587E+02 -0.17789280374E+02 -0.90179905631E+02  0.94252644278E+02  0.10570000000E+00 0. -1.
         13    1    1    2    0    0 -0.20848882587E+02  0.17789280374E+02 -0.61424748342E+01  0.28086928827E+02  0.10570000000E+00 0.  1.
<mgrwt>
<rscale>  0 0.75425262E+02</rscale>
<asrwt>0</asrwt>
<pdfrwt beam="2">  1        4 0.16820150E-01 0.75425262E+02</pdfrwt>
<pdfrwt beam="1">  1       -4 0.20013226E-02 0.75425262E+02</pdfrwt>
<totfact> 0.41659041E+04</totfact>
</mgrwt>
</event>
<event>
 4    1  0.5624886E-001  0.8989134E+02  0.7818608E-02  0.1303115E+00
         -4   -1    0    0    0  501 -0.00000000000E+00  0.00000000000E+00  0.27787609650E+02  0.27823868352E+02  0.14200000000E+01 0.  1.
          4   -1    0    0  501    0  0.00000000000E+00 -0.00000000000E+00 -0.72607742445E+02  0.72621626689E+02  0.14200000000E+01 0. -1.
        -13    1    1    2    0    0 -0.41543401461E+02 -0.12995657693E+02 -0.98990245820E+01  0.44640152150E+02  0.10570000000E+00 0.  1.
         13    1    1    2    0    0  0.41543401461E+02  0.12995657693E+02 -0.34921108213E+02  0.55805342890E+02  0.10570000000E+00 0. -1.
<mgrwt>
<rscale>  0 0.89891341E+02</rscale>
<asrwt>0</asrwt>
<pdfrwt beam="2">  1        4 0.11174279E-01 0.89891341E+02</pdfrwt>
<pdfrwt beam="1">  1       -4 0.42788741E-02 0.89891341E+02</pdfrwt>
<totfact> 0.27464953E+04</totfact>
</mgrwt>
</event>
<event>
 4    1  0.5624886E-001  0.2184702E+02  0.7818608E-02  0.1710911E+00
          4   -1    0    0  501    0  0.00000000000E+00  0.00000000000E+00  0.37662947234E+01  0.40250932838E+01  0.14200000000E+01 0.  1.
         -4   -1    0    0    0  501 -0.00000000000E+00 -0.00000000000E+00 -0.30353514826E+02  0.30386711937E+02  0.14200000000E+01 0. -1.
        -13    1    1    2    0    0 -0.47656351469E-01  0.10700554251E+02 -0.16747309568E+02  0.19874297035E+02  0.10570000000E+00 0. -1.
         13    1    1    2    0    0  0.47656351469E-01 -0.10700554251E+02 -0.98399105351E+01  0.14537508185E+02  0.10570000000E+00 0.  1.
<mgrwt>
<rscale>  0 0.21847015E+02</rscale>
<asrwt>0</asrwt>
<pdfrwt beam="1">  1        4 0.60189118E-03 0.21847015E+02</pdfrwt>
<pdfrwt beam="2">  1       -4 0.46922326E-02 0.21847015E+02</pdfrwt>
<totfact> 0.10194772E+06</totfact>
</mgrwt>
</event>
<event>
 4    1  0.5624886E-001  0.2362155E+02  0.7818608E-02  0.1681629E+00
          4   -1    0    0  501    0  0.00000000000E+00  0.00000000000E+00  0.10840517162E+02  0.10933124546E+02  0.14200000000E+01 0.  1.
         -4   -1    0    0    0  501 -0.00000000000E+00 -0.00000000000E+00 -0.12680738117E+02  0.12759996834E+02  0.14200000000E+01 0. -1.
        -13    1    1    2    0    0 -0.74210206784E+01  0.88416373336E+01 -0.34251013747E+01  0.12041120818E+02  0.10570000000E+00 0. -1.
         13    1    1    2    0    0  0.74210206784E+01 -0.88416373336E+01  0.15848804201E+01  0.11652000561E+02  0.10570000000E+00 0.  1.
<mgrwt>
<rscale>  0 0.23621549E+02</rscale>
<asrwt>0</asrwt>
<pdfrwt beam="1">  1        4 0.16809923E-02 0.23621549E+02</pdfrwt>
<pdfrwt beam="2">  1       -4 0.19641033E-02 0.23621549E+02</pdfrwt>
<totfact> 0.90354080E+05</totfact>
</mgrwt>
</event>
<event>
 4    1  0.5624886E-001  0.4793040E+02  0.7818608E-02  0.1456835E+00
          4   -1    0    0  501    0  0.00000000000E+00  0.00000000000E+00  0.37195466910E+02  0.37222562494E+02  0.14200000000E+01 0. -1.
         -4   -1    0    0    0  501 -0.00000000000E+00 -0.00000000000E+00 -0.15375434287E+02  0.15440867188E+02  0.14200000000E+01 0.  1.
        -13    1    1    2    0    0 -0.11750205750E+02 -0.20547031764E+02  0.67883594454E+01  0.24623989237E+02  0.10570000000E+00 0. -1.
         13    1    1    2    0    0  0.11750205750E+02  0.20547031764E+02  0.15031673177E+02  0.28039440445E+02  0.10570000000E+00 0.  1.
<mgrwt>
<rscale>  0 0.47930397E+02</rscale>
<asrwt>0</asrwt>
<pdfrwt beam="1">  1        4 0.57294970E-02 0.47930397E+02</pdfrwt>
<pdfrwt beam="2">  1       -4 0.23725690E-02 0.47930397E+02</pdfrwt>
<totfact> 0.15876029E+05</totfact>
</mgrwt>
</event>
<event>
 4    1  0.5624886E-001  0.2058600E+02  0.7818608E-02  0.1733920E+00
          4   -1    0    0  501    0  0.00000000000E+00  0.00000000000E+00  0.44972992567E+02  0.44995404881E+02  0.14200000000E+01 0.  1.
         -4   -1    0    0    0  501 -0.00000000000E+00 -0.00000000000E+00 -0.21166137301E+01  0.25488141718E+01  0.14200000000E+01 0. -1.
        -13    1    1    2    0    0 -0.85915626283E+01  0.56089216273E+01  0.19552240871E+02  0.22081128726E+02  0.10570000000E+00 0.  1.
         13    1    1    2    0    0  0.85915626283E+01 -0.56089216273E+01  0.23304137966E+02  0.25463090327E+02  0.10570000000E+00 0. -1.
<mgrwt>
<rscale>  0 0.20586004E+02</rscale>
<asrwt>0</asrwt>
<pdfrwt beam="1">  1        4 0.69538922E-02 0.20586004E+02</pdfrwt>
<pdfrwt beam="2">  1       -4 0.36060309E-03 0.20586004E+02</pdfrwt>
<totfact> 0.10961940E+06</totfact>
</mgrwt>
</event>
<event>
 4    1  0.5624886E-001  0.5834361E+02  0.7818608E-02  0.1404917E+00
         -4   -1    0    0    0  501 -0.00000000000E+00  0.00000000000E+00  0.30945258666E+03  0.30945584465E+03  0.14200000000E+01 0. -1.
          4   -1    0    0  501    0  0.00000000000E+00 -0.00000000000E+00 -0.25631972042E+01  0.29302525331E+01  0.14200000000E+01 0.  1.
        -13    1    1    2    0    0 -0.27951401912E+02 -0.78442089980E+01  0.16874925855E+03  0.17122831518E+03  0.10570000000E+00 0. -1.
         13    1    1    2    0    0  0.27951401912E+02  0.78442089980E+01  0.13814013090E+03  0.14115778201E+03  0.10570000000E+00 0.  1.
<mgrwt>
<rscale>  0 0.58343606E+02</rscale>
<asrwt>0</asrwt>
<pdfrwt beam="2">  1        4 0.42282361E-03 0.58343606E+02</pdfrwt>
<pdfrwt beam="1">  1       -4 0.47636583E-01 0.58343606E+02</pdfrwt>
<totfact> 0.54981664E+04</totfact>
</mgrwt>
</event>
<event>
 4    1  0.5624886E-001  0.2151247E+02  0.7818608E-02  0.1716823E+00
          4   -1    0    0  501    0  0.00000000000E+00  0.00000000000E+00  0.10355590359E+01  0.17574932480E+01  0.14200000000E+01 0. -1.
         -4   -1    0    0    0  501 -0.00000000000E+00 -0.00000000000E+00 -0.82116305638E+02  0.82128582428E+02  0.14200000000E+01 0.  1.
        -13    1    1    2    0    0  0.20488288281E+01  0.10284867590E+02 -0.31223147463E+02  0.32937399881E+02  0.10570000000E+00 0. -1.
         13    1    1    2    0    0 -0.20488288281E+01 -0.10284867590E+02 -0.49857599139E+02  0.50948675795E+02  0.10570000000E+00 0.  1.
<mgrwt>
<rscale>  0 0.21512467E+02</rscale>
<asrwt>0</asrwt>
<pdfrwt beam="1">  1        4 0.21579461E-03 0.21512467E+02</pdfrwt>
<pdfrwt beam="2">  1       -4 0.12689752E-01 0.21512467E+02</pdfrwt>
<totfact> 0.88720141E+05</totfact>
</mgrwt>
</event>
<event>
 4    1  0.5624886E-001  0.3067050E+02  0.7818608E-02  0.1590793E+00
          4   -1    0    0  501    0  0.00000000000E+00  0.00000000000E+00  0.18158169795E+02  0.18213608382E+02  0.14200000000E+01 0. -1.
         -4   -1    0    0    0  501 -0.00000000000E+00 -0.00000000000E+00 -0.12836803767E+02  0.12915104760E+02  0.14200000000E+01 0.  1.
        -13    1    1    2    0    0 -0.13163059071E+02 -0.55618217480E+01  0.83078721385E+01  0.16529727681E+02  0.10570000000E+00 0. -1.
         13    1    1    2    0    0  0.13163059071E+02  0.55618217480E+01 -0.29865061106E+01  0.14598985461E+02  0.10570000000E+00 0.  1.
<mgrwt>
<rscale>  0 0.30670504E+02</rscale>
<asrwt>0</asrwt>
<pdfrwt beam="1">  1        4 0.28038522E-02 0.30670504E+02</pdfrwt>
<pdfrwt beam="2">  1       -4 0.19851806E-02 0.30670504E+02</pdfrwt>
<totfact> 0.49271394E+05</totfact>
</mgrwt>
</event>
<event>
 4    1  0.5624886E-001  0.4253083E+02  0.7818608E-02  0.1490372E+00
         -4   -1    0    0    0  501 -0.00000000000E+00  0.00000000000E+00  0.10181365108E+03  0.10182355301E+03  0.14200000000E+01 0.  1.
          4   -1    0    0  501    0  0.00000000000E+00 -0.00000000000E+00 -0.43177456199E+01  0.45452532645E+01  0.14200000000E+01 0. -1.
        -13    1    1    2    0    0 -0.19032308704E+02  0.49727656569E+01  0.28545736085E+02  0.34667382278E+02  0.10570000000E+00 0. -1.
         13    1    1    2    0    0  0.19032308704E+02 -0.49727656569E+01  0.68950169378E+02  0.71701423993E+02  0.10570000000E+00 0.  1.
<mgrwt>
<rscale>  0 0.42530828E+02</rscale>
<asrwt>0</asrwt>
<pdfrwt beam="2">  1        4 0.68253088E-03 0.42530828E+02</pdfrwt>
<pdfrwt beam="1">  1       -4 0.15681900E-01 0.42530828E+02</pdfrwt>
<totfact> 0.18243471E+05</totfact>
</mgrwt>
</event>
<event>
 4    1  0.5624886E-001  0.2737980E+02  0.7818608E-02  0.1628999E+00
          4   -1    0    0  501    0  0.00000000000E+00  0.00000000000E+00  0.78638575519E+01  0.79910359526E+01  0.14200000000E+01 0. -1.
         -4   -1    0    0    0  501 -0.00000000000E+00 -0.00000000000E+00 -0.23492288821E+02  0.23535165902E+02  0.14200000000E+01 0.  1.
        -13    1    1    2    0    0 -0.63694687644E+01  0.12101465518E+02 -0.85301599024E+01  0.16118014781E+02  0.10570000000E+00 0. -1.
         13    1    1    2    0    0  0.63694687644E+01 -0.12101465518E+02 -0.70982713666E+01  0.15408187074E+02  0.10570000000E+00 0.  1.
<mgrwt>
<rscale>  0 0.27379802E+02</rscale>
<asrwt>0</asrwt>
<pdfrwt beam="1">  1        4 0.12229054E-02 0.27379802E+02</pdfrwt>
<pdfrwt beam="2">  1       -4 0.36272794E-02 0.27379802E+02</pdfrwt>
<totfact> 0.63452453E+05</totfact>
</mgrwt>
</event>
<event>
 4    1  0.5624886E-001  0.2349099E+02  0.7818608E-02  0.1683673E+00
          4   -1    0    0  501    0  0.00000000000E+00  0.00000000000E+00  0.50207978208E+02  0.50228054668E+02  0.14200000000E+01 0.  1.
         -4   -1    0    0    0  501 -0.00000000000E+00 -0.00000000000E+00 -0.25421888698E+01  0.29118935849E+01  0.14200000000E+01 0. -1.
        -13    1    1    2    0    0 -0.61546421025E+01 -0.99929223147E+01  0.24863022640E+02  0.27493984489E+02  0.10570000000E+00 0. -1.
         13    1    1    2    0    0  0.61546421025E+01  0.99929223147E+01  0.22802766698E+02  0.25645963764E+02  0.10570000000E+00 0.  1.
<mgrwt>
<rscale>  0 0.23490990E+02</rscale>
<asrwt>0</asrwt>
<pdfrwt beam="1">  1        4 0.77542874E-02 0.23490990E+02</pdfrwt>
<pdfrwt beam="2">  1       -4 0.42108915E-03 0.23490990E+02</pdfrwt>
<totfact> 0.81655332E+05</totfact>
</mgrwt>
</event>
<event>
 4    1  0.5624886E-001  0.3180435E+02  0.7818608E-02  0.1578960E+00
          4   -1    0    0  501    0  0.00000000000E+00  0.00000000000E+00  0.54581733881E+01  0.56398631840E+01  0.14200000000E+01 0.  1.
         -4   -1    0    0    0  501 -0.00000000000E+00 -0.00000000000E+00 -0.45378901325E+02  0.45401113262E+02  0.14200000000E+01 0. -1.
        -13    1    1    2    0    0 -0.92334676911E+01 -0.83048504209E+01 -0.35899331187E+02  0.37986847964E+02  0.10570000000E+00 0. -1.
         13    1    1    2    0    0  0.92334676911E+01  0.83048504209E+01 -0.40213967504E+01  0.13054128482E+02  0.10570000000E+00 0.  1.
<mgrwt>
<rscale>  0 0.31804351E+02</rscale>
<asrwt>0</asrwt>
<pdfrwt beam="1">  1        4 0.85540376E-03 0.31804351E+02</pdfrwt>
<pdfrwt beam="2">  1       -4 0.69970539E-02 0.31804351E+02</pdfrwt>
<totfact> 0.42252401E+05</totfact>
</mgrwt>
</event>
<event>
 4    1  0.5624886E-001  0.2445541E+02  0.7818608E-02  0.1668950E+00
          4   -1    0    0  501    0  0.00000000000E+00  0.00000000000E+00  0.23552771589E+02  0.23595538763E+02  0.14200000000E+01 0. -1.
         -4   -1    0    0    0  501 -0.00000000000E+00 -0.00000000000E+00 -0.62195406369E+01  0.63795835079E+01  0.14200000000E+01 0.  1.
        -13    1    1    2    0    0  0.12905069901E+01 -0.10472501992E+02  0.16238942943E+02  0.19366288923E+02  0.10570000000E+00 0. -1.
         13    1    1    2    0    0 -0.12905069901E+01  0.10472501992E+02  0.10942880095E+01  0.10608833348E+02  0.10570000000E+00 0.  1.
<mgrwt>
<rscale>  0 0.24455410E+02</rscale>
<asrwt>0</asrwt>
<pdfrwt beam="1">  1        4 0.36391041E-02 0.24455410E+02</pdfrwt>
<pdfrwt beam="2">  1       -4 0.97245318E-03 0.24455410E+02</pdfrwt>
<totfact> 0.81725779E+05</totfact>
</mgrwt>
</event>
<event>
 4    1  0.5624886E-001  0.2685930E+02  0.7818608E-02  0.1635648E+00
          4   -1    0    0  501    0  0.00000000000E+00  0.00000000000E+00  0.50974411942E+02  0.50994186657E+02  0.14200000000E+01 0. -1.
         -4   -1    0    0    0  501 -0.00000000000E+00 -0.00000000000E+00 -0.33743634937E+01  0.36609737758E+01  0.14200000000E+01 0.  1.
        -13    1    1    2    0    0  0.21491524213E+00  0.12728850502E+02  0.32498820208E+02  0.34903499983E+02  0.10570000000E+00 0. -1.
         13    1    1    2    0    0 -0.21491524213E+00 -0.12728850502E+02  0.15101228240E+02  0.19751660449E+02  0.10570000000E+00 0.  1.
<mgrwt>
<rscale>  0 0.26859299E+02</rscale>
<asrwt>0</asrwt>
<pdfrwt beam="1">  1        4 0.78657857E-02 0.26859299E+02</pdfrwt>
<pdfrwt beam="2">  1       -4 0.54270089E-03 0.26859299E+02</pdfrwt>
<totfact> 0.60876264E+05</totfact>
</mgrwt>
</event>
<event>
 4    1  0.5624886E-001  0.2553457E+02  0.7818608E-02  0.1653440E+00
         -4   -1    0    0    0  501 -0.00000000000E+00  0.00000000000E+00  0.44056091845E+02  0.44078970368E+02  0.14200000000E+01 0. -1.
          4   -1    0    0  501    0  0.00000000000E+00 -0.00000000000E+00 -0.35389025583E+01  0.38131655245E+01  0.14200000000E+01 0. -1.
        -13    1    1    2    0    0  0.77132069402E+01 -0.10012923919E+02  0.16882479812E+02  0.21089843618E+02  0.10570000000E+00 0.  1.
         13    1    1    2    0    0 -0.77132069402E+01  0.10012923919E+02  0.23634709475E+02  0.26802292274E+02  0.10570000000E+00 0. -1.
<mgrwt>
<rscale>  0 0.25534566E+02</rscale>
<asrwt>0</asrwt>
<pdfrwt beam="2">  1        4 0.56730359E-03 0.25534566E+02</pdfrwt>
<pdfrwt beam="1">  1       -4 0.68007172E-02 0.25534566E+02</pdfrwt>
<totfact> 0.69575933E+05</totfact>
</mgrwt>
</event>
<event>
 4    1  0.5624886E-001  0.3205443E+02  0.7818608E-02  0.1576430E+00
         -4   -1    0    0    0  501 -0.00000000000E+00  0.00000000000E+00  0.45340713103E+01  0.47512316978E+01  0.14200000000E+01 0. -1.
          4   -1    0    0  501    0  0.00000000000E+00 -0.00000000000E+00 -0.55102117706E+02  0.55120411607E+02  0.14200000000E+01 0.  1.
        -13    1    1    2    0    0 -0.46302673078E+01  0.10155746603E+02 -0.38015993941E+01  0.11791602726E+02  0.10570000000E+00 0. -1.
         13    1    1    2    0    0  0.46302673078E+01 -0.10155746603E+02 -0.46766447002E+02  0.48080040579E+02  0.10570000000E+00 0.  1.
<mgrwt>
<rscale>  0 0.32054428E+02</rscale>
<asrwt>0</asrwt>
<pdfrwt beam="2">  1        4 0.84953603E-02 0.32054428E+02</pdfrwt>
<pdfrwt beam="1">  1       -4 0.71566134E-03 0.32054428E+02</pdfrwt>
<totfact> 0.40321682E+05</totfact>
</mgrwt>
</event>
<event>
 4    1  0.5624886E-001  0.4463484E+02  0.7818608E-02  0.1476634E+00
         -4   -1    0    0    0  501 -0.00000000000E+00  0.00000000000E+00  0.14668449902E+02  0.14737022173E+02  0.14200000000E+01 0. -1.
          4   -1    0    0  501    0  0.00000000000E+00 -0.00000000000E+00 -0.33792298402E+02  0.33822120443E+02  0.14200000000E+01 0.  1.
        -13    1    1    2    0    0  0.17931833085E+02  0.53547209236E+01  0.36656977530E+01  0.19070191044E+02  0.10570000000E+00 0. -1.
         13    1    1    2    0    0 -0.17931833085E+02 -0.53547209236E+01 -0.22789546252E+02  0.29488951572E+02  0.10570000000E+00 0.  1.
<mgrwt>
<rscale>  0 0.44634838E+02</rscale>
<asrwt>0</asrwt>
<pdfrwt beam="2">  1        4 0.52063839E-02 0.44634838E+02</pdfrwt>
<pdfrwt beam="1">  1       -4 0.22642534E-02 0.44634838E+02</pdfrwt>
<totfact> 0.19153372E+05</totfact>
</mgrwt>
</event>
<event>
 4    1  0.5624886E-001  0.2627291E+02  0.7818608E-02  0.1643364E+00
          4   -1    0    0  501    0  0.00000000000E+00  0.00000000000E+00  0.16299039908E+01  0.21617092819E+01  0.14200000000E+01 0.  1.
         -4   -1    0    0    0  501 -0.00000000000E+00 -0.00000000000E+00 -0.90487180738E+02  0.90498321962E+02  0.14200000000E+01 0. -1.
        -13    1    1    2    0    0 -0.11954580920E+02  0.54313836807E+01 -0.45763875289E+02  0.47610454605E+02  0.10570000000E+00 0. -1.
         13    1    1    2    0    0  0.11954580920E+02 -0.54313836807E+01 -0.43093401458E+02  0.45049576639E+02  0.10570000000E+00 0.  1.
<mgrwt>
<rscale>  0 0.26272909E+02</rscale>
<asrwt>0</asrwt>
<pdfrwt beam="1">  1        4 0.29251965E-03 0.26272909E+02</pdfrwt>
<pdfrwt beam="2">  1       -4 0.13962866E-01 0.26272909E+02</pdfrwt>
<totfact> 0.56746201E+05</totfact>
</mgrwt>
</event>
<event>
 4    1  0.5624886E-001  0.2266255E+02  0.7818608E-02  0.1697039E+00
          4   -1    0    0  501    0  0.00000000000E+00  0.00000000000E+00  0.11861558847E+02  0.11946253734E+02  0.14200000000E+01 0.  1.
         -4   -1    0    0    0  501 -0.00000000000E+00 -0.00000000000E+00 -0.10654223112E+02  0.10748435706E+02  0.14200000000E+01 0. -1.
        -13    1    1    2    0    0 -0.63752105172E+01  0.91972829952E+01 -0.11746096254E+01  0.11252742061E+02  0.10570000000E+00 0.  1.
         13    1    1    2    0    0  0.63752105172E+01 -0.91972829952E+01  0.23819453598E+01  0.11441947379E+02  0.10570000000E+00 0. -1.
<mgrwt>
<rscale>  0 0.22662552E+02</rscale>
<asrwt>0</asrwt>
<pdfrwt beam="1">  1        4 0.18386173E-02 0.22662552E+02</pdfrwt>
<pdfrwt beam="2">  1       -4 0.16528734E-02 0.22662552E+02</pdfrwt>
<totfact> 0.99102204E+05</totfact>
</mgrwt>
</event>
<event>
 4    1  0.5624886E-001  0.6981389E+02  0.7818608E-02  0.1360727E+00
         -4   -1    0    0    0  501 -0.00000000000E+00  0.00000000000E+00  0.11160361431E+03  0.11161264771E+03  0.14200000000E+01 0.  1.
          4   -1    0    0  501    0  0.00000000000E+00 -0.00000000000E+00 -0.10862369179E+02  0.10954791836E+02  0.14200000000E+01 0. -1.
        -13    1    1    2    0    0  0.24603817381E+02  0.13627586340E+02  0.14074265065E+02  0.31450835423E+02  0.10570000000E+00 0. -1.
         13    1    1    2    0    0 -0.24603817381E+02 -0.13627586340E+02  0.86666980071E+02  0.91116604120E+02  0.10570000000E+00 0.  1.
<mgrwt>
<rscale>  0 0.69813887E+02</rscale>
<asrwt>0</asrwt>
<pdfrwt beam="2">  1        4 0.16789380E-02 0.69813887E+02</pdfrwt>
<pdfrwt beam="1">  1       -4 0.17177591E-01 0.69813887E+02</pdfrwt>
<totfact> 0.50929064E+04</totfact>
</mgrwt>
</event>
<event>
 4    1  0.5624886E-001  0.3697590E+02  0.7818608E-02  0.1531723E+00
         -4   -1    0    0    0  501 -0.00000000000E+00  0.00000000000E+00  0.77602638001E+02  0.77615628740E+02  0.14200000000E+01 0. -1.
          4   -1    0    0  501    0  0.00000000000E+00 -0.00000000000E+00 -0.42763770071E+01  0.45059738467E+01  0.14200000000E+01 0.  1.
        -13    1    1    2    0    0 -0.36001895179E+01 -0.15571726931E+02  0.16024659562E+02  0.22632740240E+02  0.10570000000E+00 0.  1.
         13    1    1    2    0    0  0.36001895179E+01  0.15571726931E+02  0.57301601432E+02  0.59488862347E+02  0.10570000000E+00 0. -1.
<mgrwt>
<rscale>  0 0.36975898E+02</rscale>
<asrwt>0</asrwt>
<pdfrwt beam="2">  1        4 0.67656468E-03 0.36975898E+02</pdfrwt>
<pdfrwt beam="1">  1       -4 0.11957529E-01 0.36975898E+02</pdfrwt>
<totfact> 0.27123326E+05</totfact>
</mgrwt>
</event>
<event>
 4    1  0.5624886E-001  0.2541293E+02  0.7818608E-02  0.1655141E+00
         -4   -1    0    0    0  501 -0.00000000000E+00  0.00000000000E+00  0.18458426206E+02  0.18512965673E+02  0.14200000000E+01 0.  1.
          4   -1    0    0  501    0  0.00000000000E+00 -0.00000000000E+00 -0.86213054245E+01  0.87374657209E+01  0.14200000000E+01 0. -1.
        -13    1    1    2    0    0 -0.90358413121E+01 -0.49921555767E+01  0.12861953973E+02  0.16492697718E+02  0.10570000000E+00 0.  1.
         13    1    1    2    0    0  0.90358413121E+01  0.49921555767E+01 -0.30248331912E+01  0.10757733676E+02  0.10570000000E+00 0. -1.
<mgrwt>
<rscale>  0 0.25412931E+02</rscale>
<asrwt>0</asrwt>
<pdfrwt beam="2">  1        4 0.13394854E-02 0.25412931E+02</pdfrwt>
<pdfrwt beam="1">  1       -4 0.28528886E-02 0.25412931E+02</pdfrwt>
<totfact> 0.76026136E+05</totfact>
</mgrwt>
</event>
<event>
 4    1  0.5624886E-001  0.2488374E+02  0.7818608E-02  0.1662677E+00
          4   -1    0    0  501    0  0.00000000000E+00  0.00000000000E+00  0.28670461654E+01  0.31994302172E+01  0.14200000000E+01 0. -1.
         -4   -1    0    0    0  501 -0.00000000000E+00 -0.00000000000E+00 -0.50691748670E+02  0.50711633609E+02  0.14200000000E+01 0.  1.
        -13    1    1    2    0    0  0.42510619376E+01 -0.11635978021E+02 -0.21421823022E+02  0.24746175183E+02  0.10570000000E+00 0. -1.
         13    1    1    2    0    0 -0.42510619376E+01  0.11635978021E+02 -0.26402879483E+02  0.29164888643E+02  0.10570000000E+00 0.  1.
<mgrwt>
<rscale>  0 0.24883742E+02</rscale>
<asrwt>0</asrwt>
<pdfrwt beam="1">  1        4 0.46818168E-03 0.24883742E+02</pdfrwt>
<pdfrwt beam="2">  1       -4 0.78258276E-02 0.24883742E+02</pdfrwt>
<totfact> 0.72035641E+05</totfact>
</mgrwt>
</event>
<event>
 4    1  0.5624886E-001  0.2731834E+02  0.7818608E-02  0.1629775E+00
          4   -1    0    0  501    0  0.00000000000E+00  0.00000000000E+00  0.17891477843E+01  0.22841737661E+01  0.14200000000E+01 0. -1.
         -4   -1    0    0    0  501 -0.00000000000E+00 -0.00000000000E+00 -0.91106029561E+02  0.91117095116E+02  0.14200000000E+01 0.  1.
        -13    1    1    2    0    0 -0.99534462339E+01 -0.90266460695E+01 -0.36276454474E+02  0.38685187772E+02  0.10570000000E+00 0. -1.
         13    1    1    2    0    0  0.99534462339E+01  0.90266460695E+01 -0.53040427303E+02  0.54716081111E+02  0.10570000000E+00 0.  1.
<mgrwt>
<rscale>  0 0.27318339E+02</rscale>
<asrwt>0</asrwt>
<pdfrwt beam="1">  1        4 0.31418369E-03 0.27318339E+02</pdfrwt>
<pdfrwt beam="2">  1       -4 0.14055239E-01 0.27318339E+02</pdfrwt>
<totfact> 0.52028731E+05</totfact>
</mgrwt>
</event>
<event>
 4    1  0.5624886E-001  0.2824034E+02  0.7818608E-02  0.1618396E+00
          4   -1    0    0  501    0  0.00000000000E+00  0.00000000000E+00  0.79900800544E+01  0.81152806036E+01  0.14200000000E+01 0. -1.
         -4   -1    0    0    0  501 -0.00000000000E+00 -0.00000000000E+00 -0.24613529095E+02  0.24654456281E+02  0.14200000000E+01 0.  1.
        -13    1    1    2    0    0  0.11809446775E+02  0.32975013954E+01 -0.18640662095E+00  0.12263052985E+02  0.10570000000E+00 0.  1.
         13    1    1    2    0    0 -0.11809446775E+02 -0.32975013954E+01 -0.16437042420E+02  0.20506683900E+02  0.10570000000E+00 0. -1.
<mgrwt>
<rscale>  0 0.28240336E+02</rscale>
<asrwt>0</asrwt>
<pdfrwt beam="1">  1        4 0.12420222E-02 0.28240336E+02</pdfrwt>
<pdfrwt beam="2">  1       -4 0.37994758E-02 0.28240336E+02</pdfrwt>
<totfact> 0.58958515E+05</totfact>
</mgrwt>
</event>
<event>
 4    1  0.5624886E-001  0.2437839E+02  0.7818608E-02  0.1670094E+00
         -4   -1    0    0    0  501 -0.00000000000E+00  0.00000000000E+00  0.13255110320E+02  0.13330954564E+02  0.14200000000E+01 0.  1.
          4   -1    0    0  501    0  0.00000000000E+00 -0.00000000000E+00 -0.11055630786E+02  0.11146451097E+02  0.14200000000E+01 0. -1.
        -13    1    1    2    0    0 -0.51995506793E+01 -0.86513212295E+01 -0.57606230400E+01  0.11622247484E+02  0.10570000000E+00 0. -1.
         13    1    1    2    0    0  0.51995506793E+01  0.86513212295E+01  0.79601025744E+01  0.12855158177E+02  0.10570000000E+00 0.  1.
<mgrwt>
<rscale>  0 0.24378385E+02</rscale>
<asrwt>0</asrwt>
<pdfrwt beam="2">  1        4 0.17136866E-02 0.24378385E+02</pdfrwt>
<pdfrwt beam="1">  1       -4 0.20520681E-02 0.24378385E+02</pdfrwt>
<totfact> 0.84167929E+05</totfact>
</mgrwt>
</event>
<event>
 4    1  0.5624886E-001  0.2322186E+02  0.7818608E-02  0.1687939E+00
         -4   -1    0    0    0  501 -0.00000000000E+00  0.00000000000E+00  0.70873519763E+01  0.72282057273E+01  0.14200000000E+01 0.  1.
          4   -1    0    0  501    0  0.00000000000E+00 -0.00000000000E+00 -0.18666488554E+02  0.18720421868E+02  0.14200000000E+01 0. -1.
        -13    1    1    2    0    0  0.64321779218E+01  0.84300736545E+01 -0.50527213616E+00  0.10616285935E+02  0.10570000000E+00 0.  1.
         13    1    1    2    0    0 -0.64321779218E+01 -0.84300736545E+01 -0.11073864441E+02  0.15332341660E+02  0.10570000000E+00 0. -1.
<mgrwt>
<rscale>  0 0.23221862E+02</rscale>
<asrwt>0</asrwt>
<pdfrwt beam="2">  1        4 0.28867511E-02 0.23221862E+02</pdfrwt>
<pdfrwt beam="1">  1       -4 0.11053455E-02 0.23221862E+02</pdfrwt>
<totfact> 0.92808766E+05</totfact>
</mgrwt>
</event>
<event>
 4    1  0.5624886E-001  0.2067932E+02  0.7818608E-02  0.1732147E+00
         -4   -1    0    0    0  501 -0.00000000000E+00  0.00000000000E+00  0.87613221715E+02  0.87624728355E+02  0.14200000000E+01 0.  1.
          4   -1    0    0  501    0  0.00000000000E+00 -0.00000000000E+00 -0.79153122736E+00  0.16257065184E+01  0.14200000000E+01 0. -1.
        -13    1    1    2    0    0 -0.58242292059E+01  0.84848676654E+01  0.39132307122E+02  0.40463109845E+02  0.10570000000E+00 0. -1.
         13    1    1    2    0    0  0.58242292059E+01 -0.84848676654E+01  0.47689383365E+02  0.48787325028E+02  0.10570000000E+00 0.  1.
<mgrwt>
<rscale>  0 0.20679318E+02</rscale>
<asrwt>0</asrwt>
<pdfrwt beam="2">  1        4 0.18682648E-03 0.20679318E+02</pdfrwt>
<pdfrwt beam="1">  1       -4 0.13544010E-01 0.20679318E+02</pdfrwt>
<totfact> 0.94604557E+05</totfact>
</mgrwt>
</event>
<event>
 4    1  0.5624886E-001  0.3818509E+02  0.7818608E-02  0.1522008E+00
          4   -1    0    0  501    0  0.00000000000E+00  0.00000000000E+00  0.59092776451E+02  0.59109835296E+02  0.14200000000E+01 0. -1.
         -4   -1    0    0    0  501 -0.00000000000E+00 -0.00000000000E+00 -0.60687741339E+01  0.62326895870E+01  0.14200000000E+01 0.  1.
        -13    1    1    2    0    0 -0.51000019449E+01  0.13362538182E+02  0.48153613143E+02  0.50232948128E+02  0.10570000000E+00 0. -1.
         13    1    1    2    0    0  0.51000019449E+01 -0.13362538182E+02  0.48703891748E+01  0.15109576755E+02  0.10570000000E+00 0.  1.
<mgrwt>
<rscale>  0 0.38185085E+02</rscale>
<asrwt>0</asrwt>
<pdfrwt beam="1">  1        4 0.91051176E-02 0.38185085E+02</pdfrwt>
<pdfrwt beam="2">  1       -4 0.94757864E-03 0.38185085E+02</pdfrwt>
<totfact> 0.26425061E+05</totfact>
</mgrwt>
</event>
<event>
 4    1  0.5624886E-001  0.4709602E+02  0.7818608E-02  0.1461665E+00
          4   -1    0    0  501    0  0.00000000000E+00  0.00000000000E+00  0.81504981408E+01  0.82732714172E+01  0.14200000000E+01 0.  1.
         -4   -1    0    0    0  501 -0.00000000000E+00 -0.00000000000E+00 -0.67394854721E+02  0.67409812660E+02  0.14200000000E+01 0. -1.
        -13    1    1    2    0    0  0.19305228477E+02  0.12801569421E+02 -0.22818368851E+02  0.32515552520E+02  0.10570000000E+00 0.  1.
         13    1    1    2    0    0 -0.19305228477E+02 -0.12801569421E+02 -0.36425987729E+02  0.43167531557E+02  0.10570000000E+00 0. -1.
<mgrwt>
<rscale>  0 0.47096023E+02</rscale>
<asrwt>0</asrwt>
<pdfrwt beam="1">  1        4 0.12645175E-02 0.47096023E+02</pdfrwt>
<pdfrwt beam="2">  1       -4 0.10379034E-01 0.47096023E+02</pdfrwt>
<totfact> 0.15487689E+05</totfact>
</mgrwt>
</event>
<event>
 4    1  0.5624886E-001  0.3017111E+02  0.7818608E-02  0.1596205E+00
          4   -1    0    0  501    0  0.00000000000E+00  0.00000000000E+00  0.12301678174E+02  0.12383363271E+02  0.14200000000E+01 0. -1.
         -4   -1    0    0    0  501 -0.00000000000E+00 -0.00000000000E+00 -0.18328975449E+02  0.18383898962E+02  0.14200000000E+01 0.  1.
        -13    1    1    2    0    0  0.10601335906E+02 -0.26351982916E+00  0.79270428928E+01  0.13240352986E+02  0.10570000000E+00 0. -1.
         13    1    1    2    0    0 -0.10601335906E+02  0.26351982916E+00 -0.13954340168E+02  0.17526909246E+02  0.10570000000E+00 0.  1.
<mgrwt>
<rscale>  0 0.30171114E+02</rscale>
<asrwt>0</asrwt>
<pdfrwt beam="1">  1        4 0.19030742E-02 0.30171114E+02</pdfrwt>
<pdfrwt beam="2">  1       -4 0.28303507E-02 0.30171114E+02</pdfrwt>
<totfact> 0.51214874E+05</totfact>
</mgrwt>
</event>
<event>
 4    1  0.5624886E-001  0.2073578E+02  0.7818608E-02  0.1731080E+00
         -4   -1    0    0    0  501 -0.00000000000E+00  0.00000000000E+00  0.93799284993E+00  0.17018315388E+01  0.14200000000E+01 0. -1.
          4   -1    0    0  501    0  0.00000000000E+00 -0.00000000000E+00 -0.80667715379E+02  0.80680212596E+02  0.14200000000E+01 0.  1.
        -13    1    1    2    0    0  0.89485992936E+01  0.51026013856E+01 -0.44511662280E+02  0.45688217536E+02  0.10570000000E+00 0. -1.
         13    1    1    2    0    0 -0.89485992936E+01 -0.51026013856E+01 -0.35218060249E+02  0.36693826598E+02  0.10570000000E+00 0.  1.
<mgrwt>
<rscale>  0 0.20735779E+02</rscale>
<asrwt>0</asrwt>
<pdfrwt beam="2">  1        4 0.12470132E-01 0.20735779E+02</pdfrwt>
<pdfrwt beam="1">  1       -4 0.20402480E-03 0.20735779E+02</pdfrwt>
<totfact> 0.96076341E+05</totfact>
</mgrwt>
</event>
<event>
 4    1  0.5624886E-001  0.2196021E+02  0.7818608E-02  0.1708941E+00
          4   -1    0    0  501    0  0.00000000000E+00  0.00000000000E+00  0.31381416421E+02  0.31413527286E+02  0.14200000000E+01 0.  1.
         -4   -1    0    0    0  501 -0.00000000000E+00 -0.00000000000E+00 -0.36753162786E+01  0.39400951445E+01  0.14200000000E+01 0. -1.
        -13    1    1    2    0    0  0.64687849148E+01  0.78634048916E+01  0.72400904235E+01  0.12494334580E+02  0.10570000000E+00 0. -1.
         13    1    1    2    0    0 -0.64687849148E+01 -0.78634048916E+01  0.20466009719E+02  0.22859287851E+02  0.10570000000E+00 0.  1.
<mgrwt>
<rscale>  0 0.21960206E+02</rscale>
<asrwt>0</asrwt>
<pdfrwt beam="1">  1        4 0.48507479E-02 0.21960206E+02</pdfrwt>
<pdfrwt beam="2">  1       -4 0.58827094E-03 0.21960206E+02</pdfrwt>
<totfact> 0.10047734E+06</totfact>
</mgrwt>
</event>
<event>
 4    1  0.5624886E-001  0.2700595E+02  0.7818608E-02  0.1633756E+00
          4   -1    0    0  501    0  0.00000000000E+00  0.00000000000E+00  0.37623128808E+02  0.37649916618E+02  0.14200000000E+01 0. -1.
         -4   -1    0    0    0  501 -0.00000000000E+00 -0.00000000000E+00 -0.47130436446E+01  0.49223145365E+01  0.14200000000E+01 0.  1.
        -13    1    1    2    0    0 -0.45034919480E+01  0.11735489651E+02  0.24228473055E+02  0.27295296960E+02  0.10570000000E+00 0. -1.
         13    1    1    2    0    0  0.45034919480E+01 -0.11735489651E+02  0.86816121082E+01  0.15276934194E+02  0.10570000000E+00 0.  1.
<mgrwt>
<rscale>  0 0.27005947E+02</rscale>
<asrwt>0</asrwt>
<pdfrwt beam="1">  1        4 0.58063321E-02 0.27005947E+02</pdfrwt>
<pdfrwt beam="2">  1       -4 0.74324199E-03 0.27005947E+02</pdfrwt>
<totfact> 0.62751528E+05</totfact>
</mgrwt>
</event>
<event>
 4    1  0.5624886E-001  0.2000993E+02  0.7818608E-02  0.1745131E+00
          4   -1    0    0  501    0  0.00000000000E+00  0.00000000000E+00  0.52272126792E+02  0.52291410761E+02  0.14200000000E+01 0.  1.
         -4   -1    0    0    0  501 -0.00000000000E+00 -0.00000000000E+00 -0.16293019916E+01  0.21612554175E+01  0.14200000000E+01 0. -1.
        -13    1    1    2    0    0  0.42371413374E+01  0.90620757760E+01  0.25004865480E+02  0.26931933726E+02  0.10570000000E+00 0.  1.
         13    1    1    2    0    0 -0.42371413374E+01 -0.90620757760E+01  0.25637959320E+02  0.27520732452E+02  0.10570000000E+00 0. -1.
<mgrwt>
<rscale>  0 0.20009926E+02</rscale>
<asrwt>0</asrwt>
<pdfrwt beam="1">  1        4 0.80842673E-02 0.20009926E+02</pdfrwt>
<pdfrwt beam="2">  1       -4 0.29306477E-03 0.20009926E+02</pdfrwt>
<totfact> 0.11325586E+06</totfact>
</mgrwt>
</event>
<event>
 4    1  0.5624886E-001  0.2154513E+02  0.7818608E-02  0.1716240E+00
         -4   -1    0    0    0  501 -0.00000000000E+00  0.00000000000E+00  0.94402033973E+00  0.17051611073E+01  0.14200000000E+01 0. -1.
          4   -1    0    0  501    0  0.00000000000E+00 -0.00000000000E+00 -0.86841928910E+02  0.86853537733E+02  0.14200000000E+01 0.  1.
        -13    1    1    2    0    0  0.87752681985E+01  0.59278814721E+01 -0.51057799243E+02  0.52144560087E+02  0.10570000000E+00 0.  1.
         13    1    1    2    0    0 -0.87752681985E+01 -0.59278814721E+01 -0.34840109328E+02  0.36414138753E+02  0.10570000000E+00 0. -1.
<mgrwt>
<rscale>  0 0.21545126E+02</rscale>
<asrwt>0</asrwt>
<pdfrwt beam="2">  1        4 0.13419734E-01 0.21545126E+02</pdfrwt>
<pdfrwt beam="1">  1       -4 0.20467624E-03 0.21545126E+02</pdfrwt>
<totfact> 0.87200366E+05</totfact>
</mgrwt>
</event>
<event>
 4    1  0.5624886E-001  0.3735218E+02  0.7818608E-02  0.1528653E+00
          4   -1    0    0  501    0  0.00000000000E+00  0.00000000000E+00  0.50641446524E+02  0.50661351207E+02  0.14200000000E+01 0.  1.
         -4   -1    0    0    0  501 -0.00000000000E+00 -0.00000000000E+00 -0.67928793251E+01  0.69397124959E+01  0.14200000000E+01 0. -1.
        -13    1    1    2    0    0  0.70689173493E+01 -0.10923680131E+02  0.42584423552E+02  0.44527976395E+02  0.10570000000E+00 0.  1.
         13    1    1    2    0    0 -0.70689173493E+01  0.10923680131E+02  0.12641436476E+01  0.13073087308E+02  0.10570000000E+00 0. -1.
<mgrwt>
<rscale>  0 0.37352185E+02</rscale>
<asrwt>0</asrwt>
<pdfrwt beam="1">  1        4 0.78038175E-02 0.37352185E+02</pdfrwt>
<pdfrwt beam="2">  1       -4 0.10578844E-02 0.37352185E+02</pdfrwt>
<totfact> 0.28510032E+05</totfact>
</mgrwt>
</event>
<event>
 4    1  0.5624886E-001  0.2525001E+02  0.7818608E-02  0.1657437E+00
         -4   -1    0    0    0  501 -0.00000000000E+00  0.00000000000E+00  0.58132312178E+02  0.58149652786E+02  0.14200000000E+01 0. -1.
          4   -1    0    0  501    0  0.00000000000E+00 -0.00000000000E+00 -0.25390313540E+01  0.29091373664E+01  0.14200000000E+01 0.  1.
        -13    1    1    2    0    0  0.53307643626E+01  0.10994402626E+02  0.20117046126E+02  0.23537218509E+02  0.10570000000E+00 0.  1.
         13    1    1    2    0    0 -0.53307643626E+01 -0.10994402626E+02  0.35476234698E+02  0.37521571644E+02  0.10570000000E+00 0. -1.
<mgrwt>
<rscale>  0 0.25250010E+02</rscale>
<asrwt>0</asrwt>
<pdfrwt beam="2">  1        4 0.42042381E-03 0.25250010E+02</pdfrwt>
<pdfrwt beam="1">  1       -4 0.89732358E-02 0.25250010E+02</pdfrwt>
<totfact> 0.68142258E+05</totfact>
</mgrwt>
</event>
<event>
 4    1  0.5624886E-001  0.5879758E+02  0.7818608E-02  0.1402948E+00
          4   -1    0    0  501    0  0.00000000000E+00  0.00000000000E+00  0.10405844654E+02  0.10502285606E+02  0.14200000000E+01 0. -1.
         -4   -1    0    0    0  501 -0.00000000000E+00 -0.00000000000E+00 -0.82572329027E+02  0.82584538026E+02  0.14200000000E+01 0.  1.
        -13    1    1    2    0    0  0.95809857528E+01  0.20918245954E+02 -0.71103133224E+01  0.24081861013E+02  0.10570000000E+00 0. -1.
         13    1    1    2    0    0 -0.95809857528E+01 -0.20918245954E+02 -0.65056171051E+02  0.69004962620E+02  0.10570000000E+00 0.  1.
<mgrwt>
<rscale>  0 0.58797579E+02</rscale>
<asrwt>0</asrwt>
<pdfrwt beam="1">  1        4 0.16092569E-02 0.58797579E+02</pdfrwt>
<pdfrwt beam="2">  1       -4 0.12711793E-01 0.58797579E+02</pdfrwt>
<totfact> 0.85026315E+04</totfact>
</mgrwt>
</event>
<event>
 4    1  0.5624886E-001  0.2603498E+02  0.7818608E-02  0.1646566E+00
          4   -1    0    0  501    0  0.00000000000E+00  0.00000000000E+00  0.97475697411E+01  0.98504576471E+01  0.14200000000E+01 0. -1.
         -4   -1    0    0    0  501 -0.00000000000E+00 -0.00000000000E+00 -0.17160703634E+02  0.17219353914E+02  0.14200000000E+01 0.  1.
        -13    1    1    2    0    0  0.79634647165E+01  0.10266765517E+02 -0.45256737514E+01  0.13759220176E+02  0.10570000000E+00 0. -1.
         13    1    1    2    0    0 -0.79634647165E+01 -0.10266765517E+02 -0.28874601419E+01  0.13310591385E+02  0.10570000000E+00 0.  1.
<mgrwt>
<rscale>  0 0.26034979E+02</rscale>
<asrwt>0</asrwt>
<pdfrwt beam="1">  1        4 0.15120521E-02 0.26034979E+02</pdfrwt>
<pdfrwt beam="2">  1       -4 0.26525343E-02 0.26034979E+02</pdfrwt>
<totfact> 0.72163094E+05</totfact>
</mgrwt>
</event>
<event>
 4    1  0.5624886E-001  0.2580135E+02  0.7818608E-02  0.1649752E+00
         -4   -1    0    0    0  501 -0.00000000000E+00  0.00000000000E+00  0.17056937991E+02  0.17115943842E+02  0.14200000000E+01 0. -1.
          4   -1    0    0  501    0  0.00000000000E+00 -0.00000000000E+00 -0.96291560853E+01  0.97332957889E+01  0.14200000000E+01 0.  1.
        -13    1    1    2    0    0 -0.74067304541E+00  0.11647391028E+02  0.94330970826E+01  0.15006825360E+02  0.10570000000E+00 0. -1.
         13    1    1    2    0    0  0.74067304541E+00 -0.11647391028E+02 -0.20053151773E+01  0.11842414271E+02  0.10570000000E+00 0.  1.
<mgrwt>
<rscale>  0 0.25801351E+02</rscale>
<asrwt>0</asrwt>
<pdfrwt beam="2">  1        4 0.14939583E-02 0.25801351E+02</pdfrwt>
<pdfrwt beam="1">  1       -4 0.26366939E-02 0.25801351E+02</pdfrwt>
<totfact> 0.73668178E+05</totfact>
</mgrwt>
</event>
<event>
 4    1  0.5624886E-001  0.2509580E+02  0.7818608E-02  0.1659630E+00
          4   -1    0    0  501    0  0.00000000000E+00  0.00000000000E+00  0.11571078640E+02  0.11657884066E+02  0.14200000000E+01 0.  1.
         -4   -1    0    0    0  501 -0.00000000000E+00 -0.00000000000E+00 -0.13431966712E+02  0.13506817899E+02  0.14200000000E+01 0. -1.
        -13    1    1    2    0    0 -0.33247934116E+01  0.10929073449E+02 -0.61350464422E+01  0.12967222719E+02  0.10570000000E+00 0. -1.
         13    1    1    2    0    0  0.33247934116E+01 -0.10929073449E+02  0.42741583701E+01  0.12197479246E+02  0.10570000000E+00 0.  1.
<mgrwt>
<rscale>  0 0.25095803E+02</rscale>
<asrwt>0</asrwt>
<pdfrwt beam="1">  1        4 0.17926011E-02 0.25095803E+02</pdfrwt>
<pdfrwt beam="2">  1       -4 0.20788915E-02 0.25095803E+02</pdfrwt>
<totfact> 0.78808904E+05</totfact>
</mgrwt>
</event>
<event>
 4    1  0.5624886E-001  0.4793192E+02  0.7818608E-02  0.1456826E+00
          4   -1    0    0  501    0  0.00000000000E+00  0.00000000000E+00  0.75997637716E+02  0.76010902760E+02  0.14200000000E+01 0. -1.
         -4   -1    0    0    0  501 -0.00000000000E+00 -0.00000000000E+00 -0.74769458946E+01  0.76105926123E+01  0.14200000000E+01 0.  1.
        -13    1    1    2    0    0 -0.21440637295E+02  0.98585239272E+01  0.26969566443E+02  0.35836575007E+02  0.10570000000E+00 0. -1.
         13    1    1    2    0    0  0.21440637295E+02 -0.98585239272E+01  0.41551125378E+02  0.47784920365E+02  0.10570000000E+00 0.  1.
<mgrwt>
<rscale>  0 0.47931923E+02</rscale>
<asrwt>0</asrwt>
<pdfrwt beam="1">  1        4 0.11703245E-01 0.47931923E+02</pdfrwt>
<pdfrwt beam="2">  1       -4 0.11616003E-02 0.47931923E+02</pdfrwt>
<totfact> 0.14510578E+05</totfact>
</mgrwt>
</event>
<event>
 4    1  0.5624886E-001  0.4292822E+02  0.7818608E-02  0.1487706E+00
          4   -1    0    0  501    0  0.00000000000E+00  0.00000000000E+00  0.94729039996E+01  0.95787426203E+01  0.14200000000E+01 0.  1.
         -4   -1    0    0    0  501 -0.00000000000E+00 -0.00000000000E+00 -0.48247768650E+02  0.48268660430E+02  0.14200000000E+01 0. -1.
        -13    1    1    2    0    0 -0.78045558616E+01  0.12030350368E+02  0.21334019555E+01  0.14498379170E+02  0.10570000000E+00 0.  1.
         13    1    1    2    0    0  0.78045558616E+01 -0.12030350368E+02 -0.40908266606E+02  0.43349023880E+02  0.10570000000E+00 0. -1.
<mgrwt>
<rscale>  0 0.42928218E+02</rscale>
<asrwt>0</asrwt>
<pdfrwt beam="1">  1        4 0.14671184E-02 0.42928218E+02</pdfrwt>
<pdfrwt beam="2">  1       -4 0.74324820E-02 0.42928218E+02</pdfrwt>
<totfact> 0.20453372E+05</totfact>
</mgrwt>
</event>
<event>
 4    1  0.5624886E-001  0.2472280E+02  0.7818608E-02  0.1665016E+00
          4   -1    0    0  501    0  0.00000000000E+00  0.00000000000E+00  0.31174610932E+01  0.34256333236E+01  0.14200000000E+01 0.  1.
         -4   -1    0    0    0  501 -0.00000000000E+00 -0.00000000000E+00 -0.46387486977E+02  0.46409216197E+02  0.14200000000E+01 0. -1.
        -13    1    1    2    0    0 -0.11771612914E+02 -0.24864754587E+01 -0.27350516190E+02  0.29880015715E+02  0.10570000000E+00 0. -1.
         13    1    1    2    0    0  0.11771612914E+02  0.24864754587E+01 -0.15919509694E+02  0.19954833805E+02  0.10570000000E+00 0.  1.
<mgrwt>
<rscale>  0 0.24722805E+02</rscale>
<asrwt>0</asrwt>
<pdfrwt beam="1">  1        4 0.50498647E-03 0.24722805E+02</pdfrwt>
<pdfrwt beam="2">  1       -4 0.71619130E-02 0.24722805E+02</pdfrwt>
<totfact> 0.74092279E+05</totfact>
</mgrwt>
</event>
<event>
 4    1  0.5624886E-001  0.3138792E+02  0.7818608E-02  0.1583235E+00
          4   -1    0    0  501    0  0.00000000000E+00  0.00000000000E+00  0.13960028511E+02  0.14032063142E+02  0.14200000000E+01 0.  1.
         -4   -1    0    0    0  501 -0.00000000000E+00 -0.00000000000E+00 -0.17496986137E+02  0.17554512920E+02  0.14200000000E+01 0. -1.
        -13    1    1    2    0    0  0.67344827815E+01  0.94362635923E+01 -0.12413371579E+02  0.16985267009E+02  0.10570000000E+00 0. -1.
         13    1    1    2    0    0 -0.67344827815E+01 -0.94362635923E+01  0.88764139534E+01  0.14601309054E+02  0.10570000000E+00 0.  1.
<mgrwt>
<rscale>  0 0.31387923E+02</rscale>
<asrwt>0</asrwt>
<pdfrwt beam="1">  1        4 0.21576630E-02 0.31387923E+02</pdfrwt>
<pdfrwt beam="2">  1       -4 0.27018103E-02 0.31387923E+02</pdfrwt>
<totfact> 0.46658803E+05</totfact>
</mgrwt>
</event>
<event>
 4    1  0.5624886E-001  0.2381888E+02  0.7818608E-02  0.1678570E+00
         -4   -1    0    0    0  501 -0.00000000000E+00  0.00000000000E+00  0.37976287365E+02  0.38002826237E+02  0.14200000000E+01 0.  1.
          4   -1    0    0  501    0  0.00000000000E+00 -0.00000000000E+00 -0.35709460427E+01  0.38429227991E+01  0.14200000000E+01 0. -1.
        -13    1    1    2    0    0 -0.35602746121E+01 -0.98646107599E+01  0.27115545273E+02  0.29073184702E+02  0.10570000000E+00 0.  1.
         13    1    1    2    0    0  0.35602746121E+01  0.98646107599E+01  0.72897960492E+01  0.12772564335E+02  0.10570000000E+00 0. -1.
<mgrwt>
<rscale>  0 0.23818883E+02</rscale>
<asrwt>0</asrwt>
<pdfrwt beam="2">  1        4 0.57233899E-03 0.23818883E+02</pdfrwt>
<pdfrwt beam="1">  1       -4 0.58654691E-02 0.23818883E+02</pdfrwt>
<totfact> 0.82584187E+05</totfact>
</mgrwt>
</event>
<event>
 4    1  0.5624886E-001  0.3932118E+02  0.7818608E-02  0.1513267E+00
         -4   -1    0    0    0  501 -0.00000000000E+00  0.00000000000E+00  0.16533270878E+03  0.16533880668E+03  0.14200000000E+01 0.  1.
          4   -1    0    0  501    0  0.00000000000E+00 -0.00000000000E+00 -0.21156150136E+01  0.25479848677E+01  0.14200000000E+01 0. -1.
        -13    1    1    2    0    0  0.14686960390E+01 -0.18979735599E+02  0.60630738052E+02  0.63549075530E+02  0.10570000000E+00 0. -1.
         13    1    1    2    0    0 -0.14686960390E+01  0.18979735599E+02  0.10258635572E+03  0.10433771602E+03  0.10570000000E+00 0.  1.
<mgrwt>
<rscale>  0 0.39321178E+02</rscale>
<asrwt>0</asrwt>
<pdfrwt beam="2">  1        4 0.35920749E-03 0.39321178E+02</pdfrwt>
<pdfrwt beam="1">  1       -4 0.25469532E-01 0.39321178E+02</pdfrwt>
<totfact> 0.18927384E+05</totfact>
</mgrwt>
</event>
<event>
 4    1  0.5624886E-001  0.5454555E+02  0.7818608E-02  0.1422260E+00
         -4   -1    0    0    0  501 -0.00000000000E+00  0.00000000000E+00  0.15283795237E+02  0.15349618785E+02  0.14200000000E+01 0. -1.
          4   -1    0    0  501    0  0.00000000000E+00 -0.00000000000E+00 -0.48485384793E+02  0.48506174231E+02  0.14200000000E+01 0.  1.
        -13    1    1    2    0    0 -0.96767411001E+01  0.22853729518E+02 -0.29838405684E+02  0.38810744614E+02  0.10570000000E+00 0.  1.
         13    1    1    2    0    0  0.96767411001E+01 -0.22853729518E+02 -0.33631838721E+01  0.25045048402E+02  0.10570000000E+00 0. -1.
<mgrwt>
<rscale>  0 0.54545548E+02</rscale>
<asrwt>0</asrwt>
<pdfrwt beam="2">  1        4 0.74659524E-02 0.54545548E+02</pdfrwt>
<pdfrwt beam="1">  1       -4 0.23580157E-02 0.54545548E+02</pdfrwt>
<totfact> 0.11127025E+05</totfact>
</mgrwt>
</event>
<event>
 4    1  0.5624886E-001  0.2202515E+02  0.7818608E-02  0.1707817E+00
         -4   -1    0    0    0  501 -0.00000000000E+00  0.00000000000E+00  0.38433027326E+02  0.38459251026E+02  0.14200000000E+01 0. -1.
          4   -1    0    0  501    0  0.00000000000E+00 -0.00000000000E+00 -0.29670338715E+01  0.32893297181E+01  0.14200000000E+01 0.  1.
        -13    1    1    2    0    0 -0.10399948867E+02 -0.26575273947E+01  0.22393089389E+02  0.24833103172E+02  0.10570000000E+00 0. -1.
         13    1    1    2    0    0  0.10399948867E+02  0.26575273947E+01  0.13072904066E+02  0.16915477572E+02  0.10570000000E+00 0.  1.
<mgrwt>
<rscale>  0 0.22025152E+02</rscale>
<asrwt>0</asrwt>
<pdfrwt beam="2">  1        4 0.48327592E-03 0.22025152E+02</pdfrwt>
<pdfrwt beam="1">  1       -4 0.59395829E-02 0.22025152E+02</pdfrwt>
<totfact> 0.97424040E+05</totfact>
</mgrwt>
</event>
<event>
 4    1  0.5624886E-001  0.4210599E+02  0.7818608E-02  0.1493262E+00
         -4   -1    0    0    0  501 -0.00000000000E+00  0.00000000000E+00  0.53660930450E+01  0.55507976515E+01  0.14200000000E+01 0.  1.
          4   -1    0    0  501    0  0.00000000000E+00 -0.00000000000E+00 -0.81009476172E+02  0.81021920674E+02  0.14200000000E+01 0. -1.
        -13    1    1    2    0    0  0.19005407976E+02  0.36327511616E+01 -0.20765635925E+02  0.28383537856E+02  0.10570000000E+00 0.  1.
         13    1    1    2    0    0 -0.19005407976E+02 -0.36327511616E+01 -0.54877747201E+02  0.58189180469E+02  0.10570000000E+00 0. -1.
<mgrwt>
<rscale>  0 0.42105987E+02</rscale>
<asrwt>0</asrwt>
<pdfrwt beam="2">  1        4 0.12478161E-01 0.42105987E+02</pdfrwt>
<pdfrwt beam="1">  1       -4 0.84071815E-03 0.42105987E+02</pdfrwt>
<totfact> 0.19703964E+05</totfact>
</mgrwt>
</event>
<event>
 4    1  0.5624886E-001  0.2702154E+02  0.7818608E-02  0.1633556E+00
         -4   -1    0    0    0  501 -0.00000000000E+00  0.00000000000E+00  0.43923279931E+01  0.46161613055E+01  0.14200000000E+01 0.  1.
          4   -1    0    0  501    0  0.00000000000E+00 -0.00000000000E+00 -0.40289767310E+02  0.40314783268E+02  0.14200000000E+01 0. -1.
        -13    1    1    2    0    0 -0.11847943817E+02  0.36800914184E+01 -0.90543267553E+01  0.15359324563E+02  0.10570000000E+00 0.  1.
         13    1    1    2    0    0  0.11847943817E+02 -0.36800914184E+01 -0.26843112562E+02  0.29571620010E+02  0.10570000000E+00 0. -1.
<mgrwt>
<rscale>  0 0.27021540E+02</rscale>
<asrwt>0</asrwt>
<pdfrwt beam="2">  1        4 0.62175677E-02 0.27021540E+02</pdfrwt>
<pdfrwt beam="1">  1       -4 0.69488505E-03 0.27021540E+02</pdfrwt>
<totfact> 0.62143092E+05</totfact>
</mgrwt>
</event>
<event>
 4    1  0.5624886E-001  0.2205712E+02  0.7818608E-02  0.1707266E+00
          4   -1    0    0  501    0  0.00000000000E+00  0.00000000000E+00  0.84529836694E+02  0.84541763003E+02  0.14200000000E+01 0. -1.
         -4   -1    0    0    0  501 -0.00000000000E+00 -0.00000000000E+00 -0.10735390469E+01  0.17801365356E+01  0.14200000000E+01 0.  1.
        -13    1    1    2    0    0 -0.44379166715E+01 -0.91965260015E+01  0.58027936788E+02  0.58919638621E+02  0.10570000000E+00 0. -1.
         13    1    1    2    0    0  0.44379166715E+01  0.91965260015E+01  0.25428360860E+02  0.27402260918E+02  0.10570000000E+00 0.  1.
<mgrwt>
<rscale>  0 0.22057124E+02</rscale>
<asrwt>0</asrwt>
<pdfrwt beam="1">  1        4 0.13059865E-01 0.22057124E+02</pdfrwt>
<pdfrwt beam="2">  1       -4 0.22043085E-03 0.22057124E+02</pdfrwt>
<totfact> 0.83651116E+05</totfact>
</mgrwt>
</event>
<event>
 4    1  0.5624886E-001  0.7099127E+02  0.7818608E-02  0.1356754E+00
         -4   -1    0    0    0  501 -0.00000000000E+00  0.00000000000E+00  0.33175150705E+02  0.33205527014E+02  0.14200000000E+01 0. -1.
          4   -1    0    0  501    0  0.00000000000E+00 -0.00000000000E+00 -0.37917381439E+02  0.37943961512E+02  0.14200000000E+01 0.  1.
        -13    1    1    2    0    0 -0.34720752311E+02  0.70107038919E+00 -0.97296121637E+01  0.36065200208E+02  0.10570000000E+00 0. -1.
         13    1    1    2    0    0  0.34720752311E+02 -0.70107038919E+00  0.49873814288E+01  0.35084288317E+02  0.10570000000E+00 0.  1.
<mgrwt>
<rscale>  0 0.70991274E+02</rscale>
<asrwt>0</asrwt>
<pdfrwt beam="2">  1        4 0.58378245E-02 0.70991274E+02</pdfrwt>
<pdfrwt beam="1">  1       -4 0.51082506E-02 0.70991274E+02</pdfrwt>
<totfact> 0.55395543E+04</totfact>
</mgrwt>
</event>
<event>
 4    1  0.5624886E-001  0.2616749E+02  0.7818608E-02  0.1644778E+00
          4   -1    0    0  501    0  0.00000000000E+00  0.00000000000E+00  0.52915434233E+01  0.54787618857E+01  0.14200000000E+01 0.  1.
         -4   -1    0    0    0  501 -0.00000000000E+00 -0.00000000000E+00 -0.31584771894E+02  0.31616676226E+02  0.14200000000E+01 0. -1.
        -13    1    1    2    0    0 -0.11152147972E+01  0.12941291485E+02 -0.15366671551E+02  0.20121294600E+02  0.10570000000E+00 0. -1.
         13    1    1    2    0    0  0.11152147972E+01 -0.12941291485E+02 -0.10926556920E+02  0.16974143512E+02  0.10570000000E+00 0.  1.
<mgrwt>
<rscale>  0 0.26167493E+02</rscale>
<asrwt>0</asrwt>
<pdfrwt beam="1">  1        4 0.83093922E-03 0.26167493E+02</pdfrwt>
<pdfrwt beam="2">  1       -4 0.48760512E-02 0.26167493E+02</pdfrwt>
<totfact> 0.68618701E+05</totfact>
</mgrwt>
</event>
<event>
 4    1  0.5624886E-001  0.3457072E+02  0.7818608E-02  0.1552446E+00
         -4   -1    0    0    0  501 -0.00000000000E+00  0.00000000000E+00  0.71059811630E+01  0.72464728171E+01  0.14200000000E+01 0.  1.
          4   -1    0    0  501    0  0.00000000000E+00 -0.00000000000E+00 -0.41482449946E+02  0.41506747084E+02  0.14200000000E+01 0. -1.
        -13    1    1    2    0    0  0.15462434687E+02 -0.74401417451E+01 -0.20122746745E+02  0.26445769127E+02  0.10570000000E+00 0.  1.
         13    1    1    2    0    0 -0.15462434687E+02  0.74401417451E+01 -0.14253722038E+02  0.22307450775E+02  0.10570000000E+00 0. -1.
<mgrwt>
<rscale>  0 0.34570722E+02</rscale>
<asrwt>0</asrwt>
<pdfrwt beam="2">  1        4 0.63945913E-02 0.34570722E+02</pdfrwt>
<pdfrwt beam="1">  1       -4 0.11059040E-02 0.34570722E+02</pdfrwt>
<totfact> 0.35155794E+05</totfact>
</mgrwt>
</event>
<event>
 4    1  0.5624886E-001  0.3245969E+02  0.7818608E-02  0.1572390E+00
         -4   -1    0    0    0  501 -0.00000000000E+00  0.00000000000E+00  0.36819919187E+01  0.39463229074E+01  0.14200000000E+01 0.  1.
          4   -1    0    0  501    0  0.00000000000E+00 -0.00000000000E+00 -0.68788672414E+02  0.68803327335E+02  0.14200000000E+01 0. -1.
        -13    1    1    2    0    0 -0.15676617942E+02 -0.40480728025E+01 -0.30044037611E+02  0.34129146077E+02  0.10570000000E+00 0. -1.
         13    1    1    2    0    0  0.15676617942E+02  0.40480728025E+01 -0.35062642884E+02  0.38620504166E+02  0.10570000000E+00 0.  1.
<mgrwt>
<rscale>  0 0.32459694E+02</rscale>
<asrwt>0</asrwt>
<pdfrwt beam="2">  1        4 0.10604332E-01 0.32459694E+02</pdfrwt>
<pdfrwt beam="1">  1       -4 0.58792080E-03 0.32459694E+02</pdfrwt>
<totfact> 0.37645440E+05</totfact>
</mgrwt>
</event>
<event>
 4    1  0.5624886E-001  0.2883413E+02  0.7818608E-02  0.1611345E+00
          4   -1    0    0  501    0  0.00000000000E+00  0.00000000000E+00  0.81132812445E+01  0.82366092873E+01  0.14200000000E+01 0. -1.
         -4   -1    0    0    0  501 -0.00000000000E+00 -0.00000000000E+00 -0.25282063153E+02  0.25321909827E+02  0.14200000000E+01 0.  1.
        -13    1    1    2    0    0  0.98142809374E+01  0.52205188477E+01  0.20993626942E+01  0.11313373660E+02  0.10570000000E+00 0. -1.
         13    1    1    2    0    0 -0.98142809374E+01 -0.52205188477E+01 -0.19268144603E+02  0.22245145454E+02  0.10570000000E+00 0.  1.
<mgrwt>
<rscale>  0 0.28834131E+02</rscale>
<asrwt>0</asrwt>
<pdfrwt beam="1">  1        4 0.12607490E-02 0.28834131E+02</pdfrwt>
<pdfrwt beam="2">  1       -4 0.39021001E-02 0.28834131E+02</pdfrwt>
<totfact> 0.56116753E+05</totfact>
</mgrwt>
</event>
<event>
 4    1  0.5624886E-001  0.2568298E+02  0.7818608E-02  0.1651381E+00
         -4   -1    0    0    0  501 -0.00000000000E+00  0.00000000000E+00  0.28396433372E+02  0.28431915663E+02  0.14200000000E+01 0. -1.
          4   -1    0    0  501    0  0.00000000000E+00 -0.00000000000E+00 -0.56806462384E+01  0.58554369338E+01  0.14200000000E+01 0.  1.
        -13    1    1    2    0    0  0.10985375287E+02  0.64879767263E+00  0.25231816904E+01  0.11290572481E+02  0.10570000000E+00 0.  1.
         13    1    1    2    0    0 -0.10985375287E+02 -0.64879767263E+00  0.20192605443E+02  0.22996780116E+02  0.10570000000E+00 0. -1.
<mgrwt>
<rscale>  0 0.25682982E+02</rscale>
<asrwt>0</asrwt>
<pdfrwt beam="2">  1        4 0.89012040E-03 0.25682982E+02</pdfrwt>
<pdfrwt beam="1">  1       -4 0.43848570E-02 0.25682982E+02</pdfrwt>
<totfact> 0.72247704E+05</totfact>
</mgrwt>
</event>
<event>
 4    1  0.5624886E-001  0.3346288E+02  0.7818608E-02  0.1562690E+00
         -4   -1    0    0    0  501 -0.00000000000E+00  0.00000000000E+00  0.25851337292E+02  0.25890307835E+02  0.14200000000E+01 0. -1.
          4   -1    0    0  501    0  0.00000000000E+00 -0.00000000000E+00 -0.10734962646E+02  0.10828472793E+02  0.14200000000E+01 0.  1.
        -13    1    1    2    0    0  0.15587064585E+02  0.22998079857E+01  0.13816369762E+01  0.15816630247E+02  0.10570000000E+00 0. -1.
         13    1    1    2    0    0 -0.15587064585E+02 -0.22998079857E+01  0.13734737669E+02  0.20902150380E+02  0.10570000000E+00 0.  1.
<mgrwt>
<rscale>  0 0.33462876E+02</rscale>
<asrwt>0</asrwt>
<pdfrwt beam="2">  1        4 0.16617236E-02 0.33462876E+02</pdfrwt>
<pdfrwt beam="1">  1       -4 0.39873196E-02 0.33462876E+02</pdfrwt>
<totfact> 0.39521730E+05</totfact>
</mgrwt>
</event>
<event>
 4    1  0.5624886E-001  0.2866004E+02  0.7818608E-02  0.1613391E+00
          4   -1    0    0  501    0  0.00000000000E+00  0.00000000000E+00  0.32231692030E+01  0.35221044435E+01  0.14200000000E+01 0. -1.
         -4   -1    0    0    0  501 -0.00000000000E+00 -0.00000000000E+00 -0.60579303920E+02  0.60595944282E+02  0.14200000000E+01 0.  1.
        -13    1    1    2    0    0 -0.80704583913E+01  0.59649801794E+01 -0.57946284007E+01  0.11588881654E+02  0.10570000000E+00 0. -1.
         13    1    1    2    0    0  0.80704583913E+01 -0.59649801794E+01 -0.51561506316E+02  0.52529167072E+02  0.10570000000E+00 0.  1.
<mgrwt>
<rscale>  0 0.28660042E+02</rscale>
<asrwt>0</asrwt>
<pdfrwt beam="1">  1        4 0.52014728E-03 0.28660042E+02</pdfrwt>
<pdfrwt beam="2">  1       -4 0.93441671E-02 0.28660042E+02</pdfrwt>
<totfact> 0.51158474E+05</totfact>
</mgrwt>
</event>
<event>
 4    1  0.5624886E-001  0.3705276E+02  0.7818608E-02  0.1531092E+00
         -4   -1    0    0    0  501 -0.00000000000E+00  0.00000000000E+00  0.14022479009E+02  0.14094194463E+02  0.14200000000E+01 0. -1.
          4   -1    0    0  501    0  0.00000000000E+00 -0.00000000000E+00 -0.24321992496E+02  0.24363409429E+02  0.14200000000E+01 0.  1.
        -13    1    1    2    0    0 -0.86266469981E+01 -0.69525824725E+01 -0.20560541546E+02  0.23356037391E+02  0.10570000000E+00 0.  1.
         13    1    1    2    0    0  0.86266469981E+01  0.69525824725E+01  0.10261028058E+02  0.15101566500E+02  0.10570000000E+00 0. -1.
<mgrwt>
<rscale>  0 0.37052764E+02</rscale>
<asrwt>0</asrwt>
<pdfrwt beam="2">  1        4 0.37505475E-02 0.37052764E+02</pdfrwt>
<pdfrwt beam="1">  1       -4 0.21660069E-02 0.37052764E+02</pdfrwt>
<totfact> 0.30962099E+05</totfact>
</mgrwt>
</event>
<event>
 4    1  0.5624886E-001  0.3739932E+02  0.7818608E-02  0.1528271E+00
          4   -1    0    0  501    0  0.00000000000E+00  0.00000000000E+00  0.30920659165E+02  0.30953248024E+02  0.14200000000E+01 0.  1.
         -4   -1    0    0    0  501 -0.00000000000E+00 -0.00000000000E+00 -0.11225559636E+02  0.11315016091E+02  0.14200000000E+01 0. -1.
        -13    1    1    2    0    0  0.17722402912E+02 -0.28125517787E+01  0.39022756338E+01  0.18363903183E+02  0.10570000000E+00 0. -1.
         13    1    1    2    0    0 -0.17722402912E+02  0.28125517787E+01  0.15792823895E+02  0.23904360932E+02  0.10570000000E+00 0.  1.
<mgrwt>
<rscale>  0 0.37399321E+02</rscale>
<asrwt>0</asrwt>
<pdfrwt beam="1">  1        4 0.47664126E-02 0.37399321E+02</pdfrwt>
<pdfrwt beam="2">  1       -4 0.17363973E-02 0.37399321E+02</pdfrwt>
<totfact> 0.29892051E+05</totfact>
</mgrwt>
</event>
<event>
 4    1  0.5624886E-001  0.3055537E+02  0.7818608E-02  0.1592030E+00
         -4   -1    0    0    0  501 -0.00000000000E+00  0.00000000000E+00  0.41853496658E+02  0.41877578518E+02  0.14200000000E+01 0. -1.
          4   -1    0    0  501    0  0.00000000000E+00 -0.00000000000E+00 -0.54602552105E+01  0.56418779643E+01  0.14200000000E+01 0.  1.
        -13    1    1    2    0    0 -0.10060010451E+02  0.94194714803E+01  0.79434070638E+01  0.15907204076E+02  0.10570000000E+00 0.  1.
         13    1    1    2    0    0  0.10060010451E+02 -0.94194714803E+01  0.28449834384E+02  0.31612252406E+02  0.10570000000E+00 0. -1.
<mgrwt>
<rscale>  0 0.30555371E+02</rscale>
<asrwt>0</asrwt>
<pdfrwt beam="2">  1        4 0.85586270E-03 0.30555371E+02</pdfrwt>
<pdfrwt beam="1">  1       -4 0.64548229E-02 0.30555371E+02</pdfrwt>
<totfact> 0.46833355E+05</totfact>
</mgrwt>
</event>
<event>
 4    1  0.5624886E-001  0.2469723E+02  0.7818608E-02  0.1665389E+00
         -4   -1    0    0    0  501 -0.00000000000E+00  0.00000000000E+00  0.55837508210E+02  0.55855561255E+02  0.14200000000E+01 0.  1.
          4   -1    0    0  501    0  0.00000000000E+00 -0.00000000000E+00 -0.25265539182E+01  0.28982537332E+01  0.14200000000E+01 0. -1.
        -13    1    1    2    0    0 -0.10379734881E+02 -0.65565818275E+01  0.23508944546E+02  0.26521864708E+02  0.10570000000E+00 0. -1.
         13    1    1    2    0    0  0.10379734881E+02  0.65565818275E+01  0.29802009746E+02  0.32231950280E+02  0.10570000000E+00 0.  1.
<mgrwt>
<rscale>  0 0.24697225E+02</rscale>
<asrwt>0</asrwt>
<pdfrwt beam="2">  1        4 0.41868161E-03 0.24697225E+02</pdfrwt>
<pdfrwt beam="1">  1       -4 0.86203666E-02 0.24697225E+02</pdfrwt>
<totfact> 0.72014577E+05</totfact>
</mgrwt>
</event>
<event>
 4    1  0.5624886E-001  0.2299717E+02  0.7818608E-02  0.1691556E+00
          4   -1    0    0  501    0  0.00000000000E+00  0.00000000000E+00  0.92405684972E+01  0.93490377126E+01  0.14200000000E+01 0. -1.
         -4   -1    0    0    0  501 -0.00000000000E+00 -0.00000000000E+00 -0.14080485521E+02  0.14151907027E+02  0.14200000000E+01 0.  1.
        -13    1    1    2    0    0 -0.36081753744E+01 -0.10846505283E+02 -0.11515498994E+01  0.11489249151E+02  0.10570000000E+00 0. -1.
         13    1    1    2    0    0  0.36081753744E+01  0.10846505283E+02 -0.36883671244E+01  0.12011695589E+02  0.10570000000E+00 0.  1.
<mgrwt>
<rscale>  0 0.22997165E+02</rscale>
<asrwt>0</asrwt>
<pdfrwt beam="1">  1        4 0.14354637E-02 0.22997165E+02</pdfrwt>
<pdfrwt beam="2">  1       -4 0.21800663E-02 0.22997165E+02</pdfrwt>
<totfact> 0.95736804E+05</totfact>
</mgrwt>
</event>
<event>
 4    1  0.5624886E-001  0.2647039E+02  0.7818608E-02  0.1640738E+00
          4   -1    0    0  501    0  0.00000000000E+00  0.00000000000E+00  0.43114695849E+02  0.43138073649E+02  0.14200000000E+01 0. -1.
         -4   -1    0    0    0  501 -0.00000000000E+00 -0.00000000000E+00 -0.39135519316E+01  0.41632065432E+01  0.14200000000E+01 0.  1.
        -13    1    1    2    0    0 -0.86988507100E+01  0.52047759011E+01  0.34805358906E+02  0.36251674126E+02  0.10570000000E+00 0. -1.
         13    1    1    2    0    0  0.86988507100E+01 -0.52047759011E+01  0.43957850105E+01  0.11049606066E+02  0.10570000000E+00 0.  1.
<mgrwt>
<rscale>  0 0.26470388E+02</rscale>
<asrwt>0</asrwt>
<pdfrwt beam="1">  1        4 0.66540325E-02 0.26470388E+02</pdfrwt>
<pdfrwt beam="2">  1       -4 0.62308741E-03 0.26470388E+02</pdfrwt>
<totfact> 0.64467821E+05</totfact>
</mgrwt>
</event>
<event>
 4    1  0.5624886E-001  0.2294585E+02  0.7818608E-02  0.1692389E+00
          4   -1    0    0  501    0  0.00000000000E+00  0.00000000000E+00  0.61132101944E+01  0.62759651752E+01  0.14200000000E+01 0. -1.
         -4   -1    0    0    0  501 -0.00000000000E+00 -0.00000000000E+00 -0.21061900054E+02  0.21109714207E+02  0.14200000000E+01 0.  1.
        -13    1    1    2    0    0  0.21587686198E+00  0.10482051894E+02 -0.13033612484E+02  0.16727409889E+02  0.10570000000E+00 0.  1.
         13    1    1    2    0    0 -0.21587686198E+00 -0.10482051894E+02 -0.19150773757E+01  0.10658269493E+02  0.10570000000E+00 0. -1.
<mgrwt>
<rscale>  0 0.22945852E+02</rscale>
<asrwt>0</asrwt>
<pdfrwt beam="1">  1        4 0.95669151E-03 0.22945852E+02</pdfrwt>
<pdfrwt beam="2">  1       -4 0.32564899E-02 0.22945852E+02</pdfrwt>
<totfact> 0.94622155E+05</totfact>
</mgrwt>
</event>
<event>
 4    1  0.5624886E-001  0.2559133E+02  0.7818608E-02  0.1652651E+00
         -4   -1    0    0    0  501 -0.00000000000E+00  0.00000000000E+00  0.56476055664E+01  0.58233880717E+01  0.14200000000E+01 0.  1.
          4   -1    0    0  501    0  0.00000000000E+00 -0.00000000000E+00 -0.28352788384E+02  0.28388325226E+02  0.14200000000E+01 0. -1.
        -13    1    1    2    0    0 -0.27654889321E+00  0.11981542227E+02 -0.17343698268E+02  0.21081956160E+02  0.10570000000E+00 0.  1.
         13    1    1    2    0    0  0.27654889321E+00 -0.11981542227E+02 -0.53614845492E+01  0.13129757137E+02  0.10570000000E+00 0. -1.
<mgrwt>
<rscale>  0 0.25591327E+02</rscale>
<asrwt>0</asrwt>
<pdfrwt beam="2">  1        4 0.43782227E-02 0.25591327E+02</pdfrwt>
<pdfrwt beam="1">  1       -4 0.88511775E-03 0.25591327E+02</pdfrwt>
<totfact> 0.72834050E+05</totfact>
</mgrwt>
</event>
<event>
 4    1  0.5624886E-001  0.2245577E+02  0.7818608E-02  0.1700487E+00
          4   -1    0    0  501    0  0.00000000000E+00  0.00000000000E+00  0.47308234944E+01  0.49393411438E+01  0.14200000000E+01 0. -1.
         -4   -1    0    0    0  501 -0.00000000000E+00 -0.00000000000E+00 -0.25844634701E+02  0.25883615336E+02  0.14200000000E+01 0.  1.
        -13    1    1    2    0    0  0.42496319075E+01  0.10179037800E+02 -0.76835785583E+01  0.13443241195E+02  0.10570000000E+00 0. -1.
         13    1    1    2    0    0 -0.42496319075E+01 -0.10179037800E+02 -0.13430232649E+02  0.17379715284E+02  0.10570000000E+00 0.  1.
<mgrwt>
<rscale>  0 0.22455770E+02</rscale>
<asrwt>0</asrwt>
<pdfrwt beam="1">  1        4 0.74685734E-03 0.22455770E+02</pdfrwt>
<pdfrwt beam="2">  1       -4 0.39951359E-02 0.22455770E+02</pdfrwt>
<totfact> 0.97643134E+05</totfact>
</mgrwt>
</event>
<event>
 4    1  0.5624886E-001  0.3270547E+02  0.7818608E-02  0.1569975E+00
         -4   -1    0    0    0  501 -0.00000000000E+00  0.00000000000E+00  0.89293704333E+01  0.90415737754E+01  0.14200000000E+01 0. -1.
          4   -1    0    0  501    0  0.00000000000E+00 -0.00000000000E+00 -0.29631159724E+02  0.29665165204E+02  0.14200000000E+01 0.  1.
        -13    1    1    2    0    0 -0.35999011160E+01 -0.15823273228E+02 -0.12737171242E+02  0.20629638083E+02  0.10570000000E+00 0.  1.
         13    1    1    2    0    0  0.35999011160E+01  0.15823273228E+02 -0.79646180481E+01  0.18077100896E+02  0.10570000000E+00 0. -1.
<mgrwt>
<rscale>  0 0.32705467E+02</rscale>
<asrwt>0</asrwt>
<pdfrwt beam="2">  1        4 0.45698867E-02 0.32705467E+02</pdfrwt>
<pdfrwt beam="1">  1       -4 0.13849961E-02 0.32705467E+02</pdfrwt>
<totfact> 0.41365545E+05</totfact>
</mgrwt>
</event>
<event>
 4    1  0.5624886E-001  0.2588827E+02  0.7818608E-02  0.1648562E+00
          4   -1    0    0  501    0  0.00000000000E+00  0.00000000000E+00  0.42185934204E+01  0.44511718060E+01  0.14200000000E+01 0.  1.
         -4   -1    0    0    0  501 -0.00000000000E+00 -0.00000000000E+00 -0.38405655850E+02  0.38431898226E+02  0.14200000000E+01 0. -1.
        -13    1    1    2    0    0 -0.56397327844E+01 -0.11061798198E+02 -0.23150287041E+02  0.26270076662E+02  0.10570000000E+00 0. -1.
         13    1    1    2    0    0  0.56397327844E+01  0.11061798198E+02 -0.11036775388E+02  0.16612993370E+02  0.10570000000E+00 0.  1.
<mgrwt>
<rscale>  0 0.25888269E+02</rscale>
<asrwt>0</asrwt>
<pdfrwt beam="1">  1        4 0.66892369E-03 0.25888269E+02</pdfrwt>
<pdfrwt beam="2">  1       -4 0.59284715E-02 0.25888269E+02</pdfrwt>
<totfact> 0.68753673E+05</totfact>
</mgrwt>
</event>
<event>
 4    1  0.5624886E-001  0.2107678E+02  0.7818608E-02  0.1724726E+00
         -4   -1    0    0    0  501 -0.00000000000E+00  0.00000000000E+00  0.27863519541E+02  0.27899679590E+02  0.14200000000E+01 0.  1.
          4   -1    0    0  501    0  0.00000000000E+00 -0.00000000000E+00 -0.38192279787E+01  0.40746659192E+01  0.14200000000E+01 0. -1.
        -13    1    1    2    0    0  0.80314125024E+01  0.67352979479E+01  0.10375121394E+02  0.14748631857E+02  0.10570000000E+00 0.  1.
         13    1    1    2    0    0 -0.80314125024E+01 -0.67352979479E+01  0.13669170169E+02  0.17225713652E+02  0.10570000000E+00 0. -1.
<mgrwt>
<rscale>  0 0.21076784E+02</rscale>
<asrwt>0</asrwt>
<pdfrwt beam="2">  1        4 0.61000416E-03 0.21076784E+02</pdfrwt>
<pdfrwt beam="1">  1       -4 0.43091259E-02 0.21076784E+02</pdfrwt>
<totfact> 0.11092963E+06</totfact>
</mgrwt>
</event>
<event>
 4    1  0.5624886E-001  0.3050025E+02  0.7818608E-02  0.1592624E+00
          4   -1    0    0  501    0  0.00000000000E+00  0.00000000000E+00  0.58410476971E+02  0.58427735024E+02  0.14200000000E+01 0.  1.
         -4   -1    0    0    0  501 -0.00000000000E+00 -0.00000000000E+00 -0.38365424381E+01  0.40908993973E+01  0.14200000000E+01 0. -1.
        -13    1    1    2    0    0  0.95066794121E+01  0.85666483246E+01  0.44287833877E+02  0.46099759424E+02  0.10570000000E+00 0.  1.
         13    1    1    2    0    0 -0.95066794121E+01 -0.85666483246E+01  0.10286100656E+02  0.16418874997E+02  0.10570000000E+00 0. -1.
<mgrwt>
<rscale>  0 0.30500251E+02</rscale>
<asrwt>0</asrwt>
<pdfrwt beam="1">  1        4 0.90071199E-02 0.30500251E+02</pdfrwt>
<pdfrwt beam="2">  1       -4 0.61113082E-03 0.30500251E+02</pdfrwt>
<totfact> 0.44746602E+05</totfact>
</mgrwt>
</event>
<event>
 4    1  0.5624886E-001  0.2608492E+02  0.7818608E-02  0.1645891E+00
          4   -1    0    0  501    0  0.00000000000E+00  0.00000000000E+00  0.51026858008E+02  0.51046612406E+02  0.14200000000E+01 0.  1.
         -4   -1    0    0    0  501 -0.00000000000E+00 -0.00000000000E+00 -0.31610748968E+01  0.34653707598E+01  0.14200000000E+01 0. -1.
        -13    1    1    2    0    0 -0.12259925197E+01  0.12959132508E+02  0.25620884257E+02  0.28738181146E+02  0.10570000000E+00 0.  1.
         13    1    1    2    0    0  0.12259925197E+01 -0.12959132508E+02  0.22244898854E+02  0.25773802019E+02  0.10570000000E+00 0. -1.
<mgrwt>
<rscale>  0 0.26084921E+02</rscale>
<asrwt>0</asrwt>
<pdfrwt beam="1">  1        4 0.78752127E-02 0.26084921E+02</pdfrwt>
<pdfrwt beam="2">  1       -4 0.51124616E-03 0.26084921E+02</pdfrwt>
<totfact> 0.64918862E+05</totfact>
</mgrwt>
</event>
<event>
 4    1  0.5624886E-001  0.3892832E+02  0.7818608E-02  0.1516249E+00
          4   -1    0    0  501    0  0.00000000000E+00  0.00000000000E+00  0.27323786022E+02  0.27360659396E+02  0.14200000000E+01 0. -1.
         -4   -1    0    0    0  501 -0.00000000000E+00 -0.00000000000E+00 -0.13782615551E+02  0.13855572577E+02  0.14200000000E+01 0.  1.
        -13    1    1    2    0    0  0.79980444064E+01 -0.16088962039E+02 -0.11538875125E+01  0.18004611706E+02  0.10570000000E+00 0.  1.
         13    1    1    2    0    0 -0.79980444064E+01  0.16088962039E+02  0.14695057983E+02  0.23211620267E+02  0.10570000000E+00 0. -1.
<mgrwt>
<rscale>  0 0.38928325E+02</rscale>
<asrwt>0</asrwt>
<pdfrwt beam="1">  1        4 0.42121078E-02 0.38928325E+02</pdfrwt>
<pdfrwt beam="2">  1       -4 0.21288509E-02 0.38928325E+02</pdfrwt>
<totfact> 0.27279872E+05</totfact>
</mgrwt>
</event>
<event>
 4    1  0.5624886E-001  0.5034522E+02  0.7818608E-02  0.1443488E+00
          4   -1    0    0  501    0  0.00000000000E+00  0.00000000000E+00  0.66952074638E+02  0.66967131478E+02  0.14200000000E+01 0.  1.
         -4   -1    0    0    0  501 -0.00000000000E+00 -0.00000000000E+00 -0.93949072990E+01  0.95016147657E+01  0.14200000000E+01 0. -1.
        -13    1    1    2    0    0 -0.81557805066E+01  0.14530198783E+02  0.57437134578E+02  0.59805342849E+02  0.10570000000E+00 0.  1.
         13    1    1    2    0    0  0.81557805066E+01 -0.14530198783E+02  0.12003276201E+00  0.16663403395E+02  0.10570000000E+00 0. -1.
<mgrwt>
<rscale>  0 0.50345225E+02</rscale>
<asrwt>0</asrwt>
<pdfrwt beam="1">  1        4 0.10309685E-01 0.50345225E+02</pdfrwt>
<pdfrwt beam="2">  1       -4 0.14547369E-02 0.50345225E+02</pdfrwt>
<totfact> 0.13115238E+05</totfact>
</mgrwt>
</event>
<event>
 4    1  0.5624886E-001  0.3015132E+02  0.7818608E-02  0.1596422E+00
          4   -1    0    0  501    0  0.00000000000E+00  0.00000000000E+00  0.16383777081E+02  0.16445198431E+02  0.14200000000E+01 0. -1.
         -4   -1    0    0    0  501 -0.00000000000E+00 -0.00000000000E+00 -0.13747968405E+02  0.13821108322E+02  0.14200000000E+01 0.  1.
        -13    1    1    2    0    0  0.13045115887E+02  0.70542237486E+01  0.40351015789E+01  0.15369786545E+02  0.10570000000E+00 0.  1.
         13    1    1    2    0    0 -0.13045115887E+02 -0.70542237486E+01 -0.13992929028E+01  0.14896520208E+02  0.10570000000E+00 0. -1.
<mgrwt>
<rscale>  0 0.30151316E+02</rscale>
<asrwt>0</asrwt>
<pdfrwt beam="1">  1        4 0.25309320E-02 0.30151316E+02</pdfrwt>
<pdfrwt beam="2">  1       -4 0.21254229E-02 0.30151316E+02</pdfrwt>
<totfact> 0.51389627E+05</totfact>
</mgrwt>
</event>
<event>
 4    1  0.5624886E-001  0.2851645E+02  0.7818608E-02  0.1615091E+00
          4   -1    0    0  501    0  0.00000000000E+00  0.00000000000E+00  0.25469186946E+01  0.29160238060E+01  0.14200000000E+01 0. -1.
         -4   -1    0    0    0  501 -0.00000000000E+00 -0.00000000000E+00 -0.74051286918E+02  0.74064900554E+02  0.14200000000E+01 0.  1.
        -13    1    1    2    0    0  0.10551951882E+02  0.36330540123E+01 -0.11797315390E+02  0.16239784262E+02  0.10570000000E+00 0. -1.
         13    1    1    2    0    0 -0.10551951882E+02 -0.36330540123E+01 -0.59707052833E+02  0.60741140099E+02  0.10570000000E+00 0.  1.
<mgrwt>
<rscale>  0 0.28516452E+02</rscale>
<asrwt>0</asrwt>
<pdfrwt beam="1">  1        4 0.42127360E-03 0.28516452E+02</pdfrwt>
<pdfrwt beam="2">  1       -4 0.11421944E-01 0.28516452E+02</pdfrwt>
<totfact> 0.49700282E+05</totfact>
</mgrwt>
</event>
<event>
 4    1  0.5624886E-001  0.3865198E+02  0.7818608E-02  0.1518372E+00
          4   -1    0    0  501    0  0.00000000000E+00  0.00000000000E+00  0.36779155248E+02  0.36806557307E+02  0.14200000000E+01 0.  1.
         -4   -1    0    0    0  501 -0.00000000000E+00 -0.00000000000E+00 -0.10074044529E+02  0.10173631268E+02  0.14200000000E+01 0. -1.
        -13    1    1    2    0    0 -0.14245073589E+01  0.19258780936E+02  0.12448883735E+02  0.22976417107E+02  0.10570000000E+00 0. -1.
         13    1    1    2    0    0  0.14245073589E+01 -0.19258780936E+02  0.14256226984E+02  0.24003771467E+02  0.10570000000E+00 0.  1.
<mgrwt>
<rscale>  0 0.38651975E+02</rscale>
<asrwt>0</asrwt>
<pdfrwt beam="1">  1        4 0.56681000E-02 0.38651975E+02</pdfrwt>
<pdfrwt beam="2">  1       -4 0.15596213E-02 0.38651975E+02</pdfrwt>
<totfact> 0.27213727E+05</totfact>
</mgrwt>
</event>
<event>
 4    1  0.5624886E-001  0.2893899E+02  0.7818608E-02  0.1610122E+00
          4   -1    0    0  501    0  0.00000000000E+00  0.00000000000E+00  0.66766576867E+02  0.66781675530E+02  0.14200000000E+01 0. -1.
         -4   -1    0    0    0  501 -0.00000000000E+00 -0.00000000000E+00 -0.29587687222E+01  0.32818763461E+01  0.14200000000E+01 0.  1.
        -13    1    1    2    0    0  0.32289266542E+01  0.12601031800E+02  0.16564297300E+02  0.21061792120E+02  0.10570000000E+00 0.  1.
         13    1    1    2    0    0 -0.32289266542E+01 -0.12601031800E+02  0.47243510845E+02  0.49001759756E+02  0.10570000000E+00 0. -1.
<mgrwt>
<rscale>  0 0.28938986E+02</rscale>
<asrwt>0</asrwt>
<pdfrwt beam="1">  1        4 0.10297797E-01 0.28938986E+02</pdfrwt>
<pdfrwt beam="2">  1       -4 0.48121104E-03 0.28938986E+02</pdfrwt>
<totfact> 0.49142680E+05</totfact>
</mgrwt>
</event>
<event>
 4    1  0.5624886E-001  0.2849478E+02  0.7818608E-02  0.1615349E+00
          4   -1    0    0  501    0  0.00000000000E+00  0.00000000000E+00  0.27620760011E+02  0.27657237454E+02  0.14200000000E+01 0. -1.
         -4   -1    0    0    0  501 -0.00000000000E+00 -0.00000000000E+00 -0.72387607854E+01  0.73767240499E+01  0.14200000000E+01 0.  1.
        -13    1    1    2    0    0  0.91734282501E+00  0.13204994449E+02  0.37126915567E+01  0.13748041582E+02  0.10570000000E+00 0.  1.
         13    1    1    2    0    0 -0.91734282501E+00 -0.13204994449E+02  0.16669307669E+02  0.21285919921E+02  0.10570000000E+00 0. -1.
<mgrwt>
<rscale>  0 0.28494781E+02</rscale>
<asrwt>0</asrwt>
<pdfrwt beam="1">  1        4 0.42627662E-02 0.28494781E+02</pdfrwt>
<pdfrwt beam="2">  1       -4 0.11270740E-02 0.28494781E+02</pdfrwt>
<totfact> 0.57298417E+05</totfact>
</mgrwt>
</event>
<event>
 4    1  0.5624886E-001  0.2784125E+02  0.7818608E-02  0.1623255E+00
         -4   -1    0    0    0  501 -0.00000000000E+00  0.00000000000E+00  0.10490100054E+02  0.10585773432E+02  0.14200000000E+01 0.  1.
          4   -1    0    0  501    0  0.00000000000E+00 -0.00000000000E+00 -0.18265800065E+02  0.18320912969E+02  0.14200000000E+01 0. -1.
        -13    1    1    2    0    0  0.11700170085E+02  0.13076898897E+01  0.38239437569E+01  0.12378923670E+02  0.10570000000E+00 0.  1.
         13    1    1    2    0    0 -0.11700170085E+02 -0.13076898897E+01 -0.11599643768E+02  0.16527762732E+02  0.10570000000E+00 0. -1.
<mgrwt>
<rscale>  0 0.27841247E+02</rscale>
<asrwt>0</asrwt>
<pdfrwt beam="2">  1        4 0.28217220E-02 0.27841247E+02</pdfrwt>
<pdfrwt beam="1">  1       -4 0.16254605E-02 0.27841247E+02</pdfrwt>
<totfact> 0.61776131E+05</totfact>
</mgrwt>
</event>
<event>
 4    1  0.5624886E-001  0.2370583E+02  0.7818608E-02  0.1680318E+00
          4   -1    0    0  501    0  0.00000000000E+00  0.00000000000E+00  0.13503981834E+02  0.13578436043E+02  0.14200000000E+01 0.  1.
         -4   -1    0    0    0  501 -0.00000000000E+00 -0.00000000000E+00 -0.10251589130E+02  0.10349467605E+02  0.14200000000E+01 0. -1.
        -13    1    1    2    0    0 -0.31320212536E+01  0.10719413566E+02 -0.23815239924E+01  0.11419203709E+02  0.10570000000E+00 0. -1.
         13    1    1    2    0    0  0.31320212536E+01 -0.10719413566E+02  0.56339166965E+01  0.12508699939E+02  0.10570000000E+00 0.  1.
<mgrwt>
<rscale>  0 0.23705833E+02</rscale>
<asrwt>0</asrwt>
<pdfrwt beam="1">  1        4 0.20907920E-02 0.23705833E+02</pdfrwt>
<pdfrwt beam="2">  1       -4 0.15904239E-02 0.23705833E+02</pdfrwt>
<totfact> 0.89579225E+05</totfact>
</mgrwt>
</event>
<event>
 4    1  0.5624886E-001  0.5535732E+02  0.7818608E-02  0.1418417E+00
         -4   -1    0    0    0  501 -0.00000000000E+00  0.00000000000E+00  0.38061872178E+02  0.38088351417E+02  0.14200000000E+01 0. -1.
          4   -1    0    0  501    0  0.00000000000E+00 -0.00000000000E+00 -0.20069396612E+02  0.20119569587E+02  0.14200000000E+01 0.  1.
        -13    1    1    2    0    0 -0.22408762706E+02  0.15993071427E+02  0.59914514696E+01  0.28175160033E+02  0.10570000000E+00 0.  1.
         13    1    1    2    0    0  0.22408762706E+02 -0.15993071427E+02  0.12001024096E+02  0.30032760971E+02  0.10570000000E+00 0. -1.
<mgrwt>
<rscale>  0 0.55357320E+02</rscale>
<asrwt>0</asrwt>
<pdfrwt beam="2">  1        4 0.30934958E-02 0.55357320E+02</pdfrwt>
<pdfrwt beam="1">  1       -4 0.58615689E-02 0.55357320E+02</pdfrwt>
<totfact> 0.10897187E+05</totfact>
</mgrwt>
</event>
<event>
 4    1  0.5624886E-001  0.2882006E+02  0.7818608E-02  0.1611510E+00
          4   -1    0    0  501    0  0.00000000000E+00  0.00000000000E+00  0.36095722129E+02  0.36123642618E+02  0.14200000000E+01 0.  1.
         -4   -1    0    0    0  501 -0.00000000000E+00 -0.00000000000E+00 -0.56344611711E+01  0.58106413319E+01  0.14200000000E+01 0. -1.
        -13    1    1    2    0    0 -0.10076225582E+02 -0.69994399549E+01  0.42342300012E+01  0.12979304984E+02  0.10570000000E+00 0. -1.
         13    1    1    2    0    0  0.10076225582E+02  0.69994399549E+01  0.26227030957E+02  0.28954978967E+02  0.10570000000E+00 0.  1.
<mgrwt>
<rscale>  0 0.28820058E+02</rscale>
<asrwt>0</asrwt>
<pdfrwt beam="1">  1        4 0.55688882E-02 0.28820058E+02</pdfrwt>
<pdfrwt beam="2">  1       -4 0.88254021E-03 0.28820058E+02</pdfrwt>
<totfact> 0.54467525E+05</totfact>
</mgrwt>
</event>
<event>
 4    1  0.5624886E-001  0.2359447E+02  0.7818608E-02  0.1682051E+00
         -4   -1    0    0    0  501 -0.00000000000E+00  0.00000000000E+00  0.38511766889E+02  0.38537937009E+02  0.14200000000E+01 0.  1.
          4   -1    0    0  501    0  0.00000000000E+00 -0.00000000000E+00 -0.34458201880E+01  0.37269393298E+01  0.14200000000E+01 0. -1.
        -13    1    1    2    0    0 -0.10367706739E+02  0.50345801781E+01  0.22038833321E+02  0.24870819995E+02  0.10570000000E+00 0. -1.
         13    1    1    2    0    0  0.10367706739E+02 -0.50345801781E+01  0.13027113380E+02  0.17394056344E+02  0.10570000000E+00 0.  1.
<mgrwt>
<rscale>  0 0.23594473E+02</rscale>
<asrwt>0</asrwt>
<pdfrwt beam="2">  1        4 0.55376380E-03 0.23594473E+02</pdfrwt>
<pdfrwt beam="1">  1       -4 0.59485251E-02 0.23594473E+02</pdfrwt>
<totfact> 0.84129785E+05</totfact>
</mgrwt>
</event>
<event>
 4    1  0.5624886E-001  0.3154726E+02  0.7818608E-02  0.1581590E+00
          4   -1    0    0  501    0  0.00000000000E+00  0.00000000000E+00  0.79266477062E+01  0.80528345232E+01  0.14200000000E+01 0.  1.
         -4   -1    0    0    0  501 -0.00000000000E+00 -0.00000000000E+00 -0.30998299614E+02  0.31030806934E+02  0.14200000000E+01 0. -1.
        -13    1    1    2    0    0 -0.29451669868E+01 -0.10239891427E+02 -0.25944669011E+02  0.28047574006E+02  0.10570000000E+00 0. -1.
         13    1    1    2    0    0  0.29451669868E+01  0.10239891427E+02  0.28730171033E+01  0.11036067451E+02  0.10570000000E+00 0.  1.
<mgrwt>
<rscale>  0 0.31547265E+02</rscale>
<asrwt>0</asrwt>
<pdfrwt beam="1">  1        4 0.12316915E-02 0.31547265E+02</pdfrwt>
<pdfrwt beam="2">  1       -4 0.47811764E-02 0.31547265E+02</pdfrwt>
<totfact> 0.44864985E+05</totfact>
</mgrwt>
</event>
<event>
 4    1  0.5624886E-001  0.2370858E+02  0.7818608E-02  0.1680275E+00
         -4   -1    0    0    0  501 -0.00000000000E+00  0.00000000000E+00  0.32026102620E+01  0.35033002284E+01  0.14200000000E+01 0. -1.
          4   -1    0    0  501    0  0.00000000000E+00 -0.00000000000E+00 -0.41597214864E+02  0.41621445006E+02  0.14200000000E+01 0.  1.
        -13    1    1    2    0    0 -0.14022141034E+01  0.11229497334E+02 -0.25911761585E+02  0.28275402309E+02  0.10570000000E+00 0.  1.
         13    1    1    2    0    0  0.14022141034E+01 -0.11229497334E+02 -0.12482843017E+02  0.16849342926E+02  0.10570000000E+00 0. -1.
<mgrwt>
<rscale>  0 0.23708584E+02</rscale>
<asrwt>0</asrwt>
<pdfrwt beam="2">  1        4 0.64245650E-02 0.23708584E+02</pdfrwt>
<pdfrwt beam="1">  1       -4 0.51770316E-03 0.23708584E+02</pdfrwt>
<totfact> 0.82400331E+05</totfact>
</mgrwt>
</event>
<event>
 4    1  0.5624886E-001  0.3197086E+02  0.7818608E-02  0.1577272E+00
          4   -1    0    0  501    0  0.00000000000E+00  0.00000000000E+00  0.36516233528E+02  0.36543832737E+02  0.14200000000E+01 0.  1.
         -4   -1    0    0    0  501 -0.00000000000E+00 -0.00000000000E+00 -0.68951973374E+01  0.70398967550E+01  0.14200000000E+01 0. -1.
        -13    1    1    2    0    0  0.91336506120E+01  0.52072486698E+01 -0.16040613490E+01  0.10635938958E+02  0.10570000000E+00 0. -1.
         13    1    1    2    0    0 -0.91336506120E+01 -0.52072486698E+01  0.31225097540E+02  0.32947790534E+02  0.10570000000E+00 0.  1.
<mgrwt>
<rscale>  0 0.31970857E+02</rscale>
<asrwt>0</asrwt>
<pdfrwt beam="1">  1        4 0.56311357E-02 0.31970857E+02</pdfrwt>
<pdfrwt beam="2">  1       -4 0.10740534E-02 0.31970857E+02</pdfrwt>
<totfact> 0.42830856E+05</totfact>
</mgrwt>
</event>
<event>
 4    1  0.5624886E-001  0.2093008E+02  0.7818608E-02  0.1727441E+00
         -4   -1    0    0    0  501 -0.00000000000E+00  0.00000000000E+00  0.43329989308E+02  0.43353251013E+02  0.14200000000E+01 0.  1.
          4   -1    0    0  501    0  0.00000000000E+00 -0.00000000000E+00 -0.23021614174E+01  0.27048747091E+01  0.14200000000E+01 0. -1.
        -13    1    1    2    0    0  0.94795581156E+01 -0.36688456343E+01  0.25985972225E+02  0.27903483211E+02  0.10570000000E+00 0. -1.
         13    1    1    2    0    0 -0.94795581156E+01  0.36688456343E+01  0.15041855666E+02  0.18154642511E+02  0.10570000000E+00 0.  1.
<mgrwt>
<rscale>  0 0.20930081E+02</rscale>
<asrwt>0</asrwt>
<pdfrwt beam="2">  1        4 0.38694600E-03 0.20930081E+02</pdfrwt>
<pdfrwt beam="1">  1       -4 0.66989193E-02 0.20930081E+02</pdfrwt>
<totfact> 0.10654103E+06</totfact>
</mgrwt>
</event>
<event>
 4    1  0.5624886E-001  0.3613815E+02  0.7818608E-02  0.1538720E+00
         -4   -1    0    0    0  501 -0.00000000000E+00  0.00000000000E+00  0.31625646470E+02  0.31657509609E+02  0.14200000000E+01 0. -1.
          4   -1    0    0  501    0  0.00000000000E+00 -0.00000000000E+00 -0.10237541107E+02  0.10335552618E+02  0.14200000000E+01 0.  1.
        -13    1    1    2    0    0  0.61266288409E+01 -0.16202119099E+02  0.47194285481E+01  0.17953507250E+02  0.10570000000E+00 0.  1.
         13    1    1    2    0    0 -0.61266288409E+01  0.16202119099E+02  0.16668676815E+02  0.24039554977E+02  0.10570000000E+00 0. -1.
<mgrwt>
<rscale>  0 0.36138155E+02</rscale>
<asrwt>0</asrwt>
<pdfrwt beam="2">  1        4 0.15849967E-02 0.36138155E+02</pdfrwt>
<pdfrwt beam="1">  1       -4 0.48754744E-02 0.36138155E+02</pdfrwt>
<totfact> 0.32439753E+05</totfact>
</mgrwt>
</event>
<event>
 4    1  0.5624886E-001  0.2220665E+02  0.7818608E-02  0.1704702E+00
          4   -1    0    0  501    0  0.00000000000E+00  0.00000000000E+00  0.62680331667E+01  0.64268685827E+01  0.14200000000E+01 0. -1.
         -4   -1    0    0    0  501 -0.00000000000E+00 -0.00000000000E+00 -0.19237249567E+02  0.19289587111E+02  0.14200000000E+01 0.  1.
        -13    1    1    2    0    0  0.10005095458E+02  0.47700085395E+01 -0.57360813393E+01  0.12480733881E+02  0.10570000000E+00 0. -1.
         13    1    1    2    0    0 -0.10005095458E+02 -0.47700085395E+01 -0.72331350613E+01  0.13235721813E+02  0.10570000000E+00 0.  1.
<mgrwt>
<rscale>  0 0.22206655E+02</rscale>
<asrwt>0</asrwt>
<pdfrwt beam="1">  1        4 0.98055688E-03 0.22206655E+02</pdfrwt>
<pdfrwt beam="2">  1       -4 0.29758209E-02 0.22206655E+02</pdfrwt>
<totfact> 0.10210818E+06</totfact>
</mgrwt>
</event>
<event>
 4    1  0.5624886E-001  0.3836411E+02  0.7818608E-02  0.1520607E+00
         -4   -1    0    0    0  501 -0.00000000000E+00  0.00000000000E+00  0.36449385125E+01  0.39117741192E+01  0.14200000000E+01 0.  1.
          4   -1    0    0  501    0  0.00000000000E+00 -0.00000000000E+00 -0.97111748861E+02  0.97122130160E+02  0.14200000000E+01 0. -1.
        -13    1    1    2    0    0  0.48198740799E+01 -0.17656045278E+02 -0.61855822169E+02  0.64506751815E+02  0.10570000000E+00 0. -1.
         13    1    1    2    0    0 -0.48198740799E+01  0.17656045278E+02 -0.31610988180E+02  0.36527152465E+02  0.10570000000E+00 0.  1.
<mgrwt>
<rscale>  0 0.38364113E+02</rscale>
<asrwt>0</asrwt>
<pdfrwt beam="2">  1        4 0.14961592E-01 0.38364113E+02</pdfrwt>
<pdfrwt beam="1">  1       -4 0.58208422E-03 0.38364113E+02</pdfrwt>
<totfact> 0.23612415E+05</totfact>
</mgrwt>
</event>
<event>
 4    1  0.5624886E-001  0.2212714E+02  0.7818608E-02  0.1706062E+00
          4   -1    0    0  501    0  0.00000000000E+00  0.00000000000E+00  0.85458108441E+00  0.16573197730E+01  0.14200000000E+01 0.  1.
         -4   -1    0    0    0  501 -0.00000000000E+00 -0.00000000000E+00 -0.96648524758E+02  0.96658955808E+02  0.14200000000E+01 0. -1.
        -13    1    1    2    0    0  0.78486135578E+01 -0.77581538645E+01 -0.51343683780E+02  0.52516423362E+02  0.10570000000E+00 0.  1.
         13    1    1    2    0    0 -0.78486135578E+01  0.77581538645E+01 -0.44450259893E+02  0.45799852218E+02  0.10570000000E+00 0. -1.
<mgrwt>
<rscale>  0 0.22127142E+02</rscale>
<asrwt>0</asrwt>
<pdfrwt beam="1">  1        4 0.19402561E-03 0.22127142E+02</pdfrwt>
<pdfrwt beam="2">  1       -4 0.14931549E-01 0.22127142E+02</pdfrwt>
<totfact> 0.80213676E+05</totfact>
</mgrwt>
</event>
<event>
 4    1  0.5624886E-001  0.7338811E+02  0.7818608E-02  0.1348936E+00
          4   -1    0    0  501    0  0.00000000000E+00  0.00000000000E+00  0.35072129095E+02  0.35100863797E+02  0.14200000000E+01 0. -1.
         -4   -1    0    0    0  501 -0.00000000000E+00 -0.00000000000E+00 -0.38333377840E+02  0.38359669662E+02  0.14200000000E+01 0.  1.
        -13    1    1    2    0    0  0.34346015517E+02 -0.10443431370E+02 -0.92360398900E+01  0.37067905876E+02  0.10570000000E+00 0. -1.
         13    1    1    2    0    0 -0.34346015517E+02  0.10443431370E+02  0.59747911456E+01  0.36392627583E+02  0.10570000000E+00 0.  1.
<mgrwt>
<rscale>  0 0.73388107E+02</rscale>
<asrwt>0</asrwt>
<pdfrwt beam="1">  1        4 0.53999450E-02 0.73388107E+02</pdfrwt>
<pdfrwt beam="2">  1       -4 0.59016756E-02 0.73388107E+02</pdfrwt>
<totfact> 0.50461219E+04</totfact>
</mgrwt>
</event>
<event>
 4    1  0.5624886E-001  0.2539304E+02  0.7818608E-02  0.1655420E+00
         -4   -1    0    0    0  501 -0.00000000000E+00  0.00000000000E+00  0.22367406648E+01  0.26494166908E+01  0.14200000000E+01 0.  1.
          4   -1    0    0  501    0  0.00000000000E+00 -0.00000000000E+00 -0.65561959002E+02  0.65577335019E+02  0.14200000000E+01 0. -1.
        -13    1    1    2    0    0 -0.97762407326E+01  0.54364603647E+01 -0.47797109592E+02  0.49088744555E+02  0.10570000000E+00 0. -1.
         13    1    1    2    0    0  0.97762407326E+01 -0.54364603647E+01 -0.15528108745E+02  0.19138007155E+02  0.10570000000E+00 0.  1.
<mgrwt>
<rscale>  0 0.25393038E+02</rscale>
<asrwt>0</asrwt>
<pdfrwt beam="2">  1        4 0.10119381E-01 0.25393038E+02</pdfrwt>
<pdfrwt beam="1">  1       -4 0.37704108E-03 0.25393038E+02</pdfrwt>
<totfact> 0.65766474E+05</totfact>
</mgrwt>
</event>
<event>
 4    1  0.5624886E-001  0.2244046E+02  0.7818608E-02  0.1700744E+00
          4   -1    0    0  501    0  0.00000000000E+00  0.00000000000E+00  0.61949620994E+01  0.63556239201E+01  0.14200000000E+01 0. -1.
         -4   -1    0    0    0  501 -0.00000000000E+00 -0.00000000000E+00 -0.19875471616E+02  0.19926132890E+02  0.14200000000E+01 0.  1.
        -13    1    1    2    0    0 -0.80057457816E+01  0.65802177542E+01 -0.11876479194E+02  0.15762397081E+02  0.10570000000E+00 0.  1.
         13    1    1    2    0    0  0.80057457816E+01 -0.65802177542E+01 -0.18040303226E+01  0.10519359729E+02  0.10570000000E+00 0. -1.
<mgrwt>
<rscale>  0 0.22440463E+02</rscale>
<asrwt>0</asrwt>
<pdfrwt beam="1">  1        4 0.96932672E-03 0.22440463E+02</pdfrwt>
<pdfrwt beam="2">  1       -4 0.30740205E-02 0.22440463E+02</pdfrwt>
<totfact> 0.99642008E+05</totfact>
</mgrwt>
</event>
<event>
 4    1  0.5624886E-001  0.2705233E+02  0.7818608E-02  0.1633161E+00
         -4   -1    0    0    0  501 -0.00000000000E+00  0.00000000000E+00  0.79493272771E+02  0.79505954594E+02  0.14200000000E+01 0.  1.
          4   -1    0    0  501    0  0.00000000000E+00 -0.00000000000E+00 -0.20683988939E+01  0.25089188875E+01  0.14200000000E+01 0. -1.
        -13    1    1    2    0    0 -0.90804650513E+00 -0.13135837060E+02  0.29333140946E+02  0.32153057304E+02  0.10570000000E+00 0.  1.
         13    1    1    2    0    0  0.90804650513E+00  0.13135837060E+02  0.48091732931E+02  0.49861816177E+02  0.10570000000E+00 0. -1.
<mgrwt>
<rscale>  0 0.27052327E+02</rscale>
<asrwt>0</asrwt>
<pdfrwt beam="2">  1        4 0.35307696E-03 0.27052327E+02</pdfrwt>
<pdfrwt beam="1">  1       -4 0.12264594E-01 0.27052327E+02</pdfrwt>
<totfact> 0.54949157E+05</totfact>
</mgrwt>
</event>
<event>
 4    1  0.5624886E-001  0.3532732E+02  0.7818608E-02  0.1545713E+00
          4   -1    0    0  501    0  0.00000000000E+00  0.00000000000E+00  0.22955748533E+02  0.22999625882E+02  0.14200000000E+01 0.  1.
         -4   -1    0    0    0  501 -0.00000000000E+00 -0.00000000000E+00 -0.13497443902E+02  0.13571933977E+02  0.14200000000E+01 0. -1.
        -13    1    1    2    0    0 -0.62722182590E+01 -0.14990485986E+02 -0.24384537198E+01  0.16432060766E+02  0.10570000000E+00 0. -1.
         13    1    1    2    0    0  0.62722182590E+01  0.14990485986E+02  0.11896758351E+02  0.20139499093E+02  0.10570000000E+00 0.  1.
<mgrwt>
<rscale>  0 0.35327319E+02</rscale>
<asrwt>0</asrwt>
<pdfrwt beam="1">  1        4 0.35407587E-02 0.35327319E+02</pdfrwt>
<pdfrwt beam="2">  1       -4 0.20856351E-02 0.35327319E+02</pdfrwt>
<totfact> 0.34868331E+05</totfact>
</mgrwt>
</event>
<event>
 4    1  0.5624886E-001  0.3706518E+02  0.7818608E-02  0.1530990E+00
          4   -1    0    0  501    0  0.00000000000E+00  0.00000000000E+00  0.70573170271E+01  0.71987584778E+01  0.14200000000E+01 0.  1.
         -4   -1    0    0    0  501 -0.00000000000E+00 -0.00000000000E+00 -0.48031889228E+02  0.48052874865E+02  0.14200000000E+01 0. -1.
        -13    1    1    2    0    0 -0.16214962196E+02 -0.56100842485E+01 -0.30926987596E+02  0.35367891915E+02  0.10570000000E+00 0.  1.
         13    1    1    2    0    0  0.16214962196E+02  0.56100842485E+01 -0.10047584605E+02  0.19883741427E+02  0.10570000000E+00 0. -1.
<mgrwt>
<rscale>  0 0.37065178E+02</rscale>
<asrwt>0</asrwt>
<pdfrwt beam="1">  1        4 0.10982355E-02 0.37065178E+02</pdfrwt>
<pdfrwt beam="2">  1       -4 0.74020156E-02 0.37065178E+02</pdfrwt>
<totfact> 0.29249790E+05</totfact>
</mgrwt>
</event>
<event>
 4    1  0.5624886E-001  0.2185265E+02  0.7818608E-02  0.1710813E+00
          4   -1    0    0  501    0  0.00000000000E+00  0.00000000000E+00  0.28359505896E+02  0.28395034331E+02  0.14200000000E+01 0. -1.
         -4   -1    0    0    0  501 -0.00000000000E+00 -0.00000000000E+00 -0.40505990838E+01  0.42922899410E+01  0.14200000000E+01 0.  1.
        -13    1    1    2    0    0 -0.10634499061E+02  0.97424835507E+00  0.87005817629E+01  0.13775087137E+02  0.10570000000E+00 0.  1.
         13    1    1    2    0    0  0.10634499061E+02 -0.97424835507E+00  0.15608325050E+02  0.18912237135E+02  0.10570000000E+00 0. -1.
<mgrwt>
<rscale>  0 0.21852648E+02</rscale>
<asrwt>0</asrwt>
<pdfrwt beam="1">  1        4 0.43843255E-02 0.21852648E+02</pdfrwt>
<pdfrwt beam="2">  1       -4 0.64449364E-03 0.21852648E+02</pdfrwt>
<totfact> 0.10260032E+06</totfact>
</mgrwt>
</event>
<event>
 4    1  0.5624886E-001  0.2381928E+02  0.7818608E-02  0.1678564E+00
          4   -1    0    0  501    0  0.00000000000E+00  0.00000000000E+00  0.43443748803E+01  0.45705571980E+01  0.14200000000E+01 0. -1.
         -4   -1    0    0    0  501 -0.00000000000E+00 -0.00000000000E+00 -0.31578110037E+02  0.31610021093E+02  0.14200000000E+01 0.  1.
        -13    1    1    2    0    0 -0.79880290065E+01 -0.87740414007E+01 -0.15162851919E+02  0.19253977790E+02  0.10570000000E+00 0.  1.
         13    1    1    2    0    0  0.79880290065E+01  0.87740414007E+01 -0.12070883237E+02  0.16926600501E+02  0.10570000000E+00 0. -1.
<mgrwt>
<rscale>  0 0.23819276E+02</rscale>
<asrwt>0</asrwt>
<pdfrwt beam="1">  1        4 0.68821872E-03 0.23819276E+02</pdfrwt>
<pdfrwt beam="2">  1       -4 0.48780240E-02 0.23819276E+02</pdfrwt>
<totfact> 0.84374786E+05</totfact>
</mgrwt>
</event>
<event>
 4    1  0.5624886E-001  0.2831120E+02  0.7818608E-02  0.1617543E+00
         -4   -1    0    0    0  501 -0.00000000000E+00  0.00000000000E+00  0.76306371172E+02  0.76319582555E+02  0.14200000000E+01 0.  1.
          4   -1    0    0  501    0  0.00000000000E+00 -0.00000000000E+00 -0.24195984807E+01  0.28055047332E+01  0.14200000000E+01 0. -1.
        -13    1    1    2    0    0  0.53907300748E+01  0.11567798549E+02  0.19829521582E+02  0.23581667301E+02  0.10570000000E+00 0. -1.
         13    1    1    2    0    0 -0.53907300748E+01 -0.11567798549E+02  0.54057251109E+02  0.55543419988E+02  0.10570000000E+00 0.  1.
<mgrwt>
<rscale>  0 0.28311204E+02</rscale>
<asrwt>0</asrwt>
<pdfrwt beam="2">  1        4 0.40294734E-03 0.28311204E+02</pdfrwt>
<pdfrwt beam="1">  1       -4 0.11770141E-01 0.28311204E+02</pdfrwt>
<totfact> 0.50172139E+05</totfact>
</mgrwt>
</event>
<event>
 4    1  0.5624886E-001  0.3454243E+02  0.7818608E-02  0.1552702E+00
          4   -1    0    0  501    0  0.00000000000E+00  0.00000000000E+00  0.83543841908E+01  0.84742041047E+01  0.14200000000E+01 0. -1.
         -4   -1    0    0    0  501 -0.00000000000E+00 -0.00000000000E+00 -0.35316783488E+02  0.35345319293E+02  0.14200000000E+01 0.  1.
        -13    1    1    2    0    0  0.10775722949E+02 -0.10270996590E+01  0.35909836683E+01  0.11405151247E+02  0.10570000000E+00 0. -1.
         13    1    1    2    0    0 -0.10775722949E+02  0.10270996590E+01 -0.30553382966E+02  0.32414372151E+02  0.10570000000E+00 0.  1.
<mgrwt>
<rscale>  0 0.34542433E+02</rscale>
<asrwt>0</asrwt>
<pdfrwt beam="1">  1        4 0.12967019E-02 0.34542433E+02</pdfrwt>
<pdfrwt beam="2">  1       -4 0.54447632E-02 0.34542433E+02</pdfrwt>
<totfact> 0.35816486E+05</totfact>
</mgrwt>
</event>
<event>
 4    1  0.5624886E-001  0.2647993E+02  0.7818608E-02  0.1640612E+00
         -4   -1    0    0    0  501 -0.00000000000E+00  0.00000000000E+00  0.10802307991E+02  0.10895240150E+02  0.14200000000E+01 0. -1.
          4   -1    0    0  501    0  0.00000000000E+00 -0.00000000000E+00 -0.16033757330E+02  0.16096514347E+02  0.14200000000E+01 0.  1.
        -13    1    1    2    0    0  0.96041953757E+01 -0.89325516681E+01 -0.77684136094E+00  0.13139471188E+02  0.10570000000E+00 0. -1.
         13    1    1    2    0    0 -0.96041953757E+01  0.89325516681E+01 -0.44546079782E+01  0.13852283308E+02  0.10570000000E+00 0.  1.
<mgrwt>
<rscale>  0 0.26479931E+02</rscale>
<asrwt>0</asrwt>
<pdfrwt beam="2">  1        4 0.24787080E-02 0.26479931E+02</pdfrwt>
<pdfrwt beam="1">  1       -4 0.16738696E-02 0.26479931E+02</pdfrwt>
<totfact> 0.69548314E+05</totfact>
</mgrwt>
</event>
<event>
 4    1  0.5624886E-001  0.5104404E+02  0.7818608E-02  0.1439790E+00
         -4   -1    0    0    0  501 -0.00000000000E+00  0.00000000000E+00  0.92700028377E+01  0.93781316162E+01  0.14200000000E+01 0. -1.
          4   -1    0    0  501    0  0.00000000000E+00 -0.00000000000E+00 -0.69743972980E+02  0.69758427212E+02  0.14200000000E+01 0.  1.
        -13    1    1    2    0    0  0.88182069706E+01  0.10579297149E+02  0.30751647531E+01  0.14112055594E+02  0.10570000000E+00 0. -1.
         13    1    1    2    0    0 -0.88182069706E+01 -0.10579297149E+02 -0.63549134895E+02  0.65024503234E+02  0.10570000000E+00 0.  1.
<mgrwt>
<rscale>  0 0.51044039E+02</rscale>
<asrwt>0</asrwt>
<pdfrwt beam="2">  1        4 0.10739271E-01 0.51044039E+02</pdfrwt>
<pdfrwt beam="1">  1       -4 0.14355838E-02 0.51044039E+02</pdfrwt>
<totfact> 0.12582270E+05</totfact>
</mgrwt>
</event>
<event>
 4    1  0.5624886E-001  0.2052118E+02  0.7818608E-02  0.1735158E+00
          4   -1    0    0  501    0  0.00000000000E+00  0.00000000000E+00  0.14059294291E+02  0.14130822905E+02  0.14200000000E+01 0.  1.
         -4   -1    0    0    0  501 -0.00000000000E+00 -0.00000000000E+00 -0.73294164785E+01  0.74657046496E+01  0.14200000000E+01 0.  1.
        -13    1    1    2    0    0 -0.10253790799E+02  0.32204294705E+00  0.31999537806E+01  0.10746851358E+02  0.10570000000E+00 0.  1.
         13    1    1    2    0    0  0.10253790799E+02 -0.32204294705E+00  0.35299240320E+01  0.10849676197E+02  0.10570000000E+00 0. -1.
<mgrwt>
<rscale>  0 0.20521178E+02</rscale>
<asrwt>0</asrwt>
<pdfrwt beam="1">  1        4 0.21789542E-02 0.20521178E+02</pdfrwt>
<pdfrwt beam="2">  1       -4 0.11435885E-02 0.20521178E+02</pdfrwt>
<totfact> 0.12255168E+06</totfact>
</mgrwt>
</event>
<event>
 4    1  0.5624886E-001  0.3164108E+02  0.7818608E-02  0.1580626E+00
         -4   -1    0    0    0  501 -0.00000000000E+00  0.00000000000E+00  0.26588738830E+01  0.30143009680E+01  0.14200000000E+01 0.  1.
          4   -1    0    0  501    0  0.00000000000E+00 -0.00000000000E+00 -0.87874618489E+02  0.87886090905E+02  0.14200000000E+01 0. -1.
        -13    1    1    2    0    0  0.98943016411E+01  0.11813099724E+02 -0.32316846916E+02  0.35802741475E+02  0.10570000000E+00 0. -1.
         13    1    1    2    0    0 -0.98943016411E+01 -0.11813099724E+02 -0.52898897690E+02  0.55097650398E+02  0.10570000000E+00 0.  1.
<mgrwt>
<rscale>  0 0.31641083E+02</rscale>
<asrwt>0</asrwt>
<pdfrwt beam="2">  1        4 0.13547393E-01 0.31641083E+02</pdfrwt>
<pdfrwt beam="1">  1       -4 0.43728063E-03 0.31641083E+02</pdfrwt>
<totfact> 0.37827442E+05</totfact>
</mgrwt>
</event>
<event>
 4    1  0.5624886E-001  0.3977833E+02  0.7818608E-02  0.1509849E+00
          4   -1    0    0  501    0  0.00000000000E+00  0.00000000000E+00  0.49416772297E+01  0.51416508869E+01  0.14200000000E+01 0.  1.
         -4   -1    0    0    0  501 -0.00000000000E+00 -0.00000000000E+00 -0.78255437632E+02  0.78268320021E+02  0.14200000000E+01 0. -1.
        -13    1    1    2    0    0  0.18787355718E+02 -0.25691498528E+01 -0.24075225458E+02  0.30646254571E+02  0.10570000000E+00 0. -1.
         13    1    1    2    0    0 -0.18787355718E+02  0.25691498528E+01 -0.49238534944E+02  0.52763716338E+02  0.10570000000E+00 0.  1.
<mgrwt>
<rscale>  0 0.39778333E+02</rscale>
<asrwt>0</asrwt>
<pdfrwt beam="1">  1        4 0.77663163E-03 0.39778333E+02</pdfrwt>
<pdfrwt beam="2">  1       -4 0.12055671E-01 0.39778333E+02</pdfrwt>
<totfact> 0.22756426E+05</totfact>
</mgrwt>
</event>
<event>
 4    1  0.5624886E-001  0.2122054E+02  0.7818608E-02  0.1722092E+00
          4   -1    0    0  501    0  0.00000000000E+00  0.00000000000E+00  0.43055895246E+01  0.45337072198E+01  0.14200000000E+01 0.  1.
         -4   -1    0    0    0  501 -0.00000000000E+00 -0.00000000000E+00 -0.25223509028E+02  0.25263448056E+02  0.14200000000E+01 0. -1.
        -13    1    1    2    0    0 -0.56977464831E+01 -0.88555357199E+01 -0.86379906614E+01  0.13620237995E+02  0.10570000000E+00 0.  1.
         13    1    1    2    0    0  0.56977464831E+01  0.88555357199E+01 -0.12279928842E+02  0.16176917281E+02  0.10570000000E+00 0. -1.
<mgrwt>
<rscale>  0 0.21220535E+02</rscale>
<asrwt>0</asrwt>
<pdfrwt beam="1">  1        4 0.68301815E-03 0.21220535E+02</pdfrwt>
<pdfrwt beam="2">  1       -4 0.39011595E-02 0.21220535E+02</pdfrwt>
<totfact> 0.11036262E+06</totfact>
</mgrwt>
</event>
<event>
 4    1  0.5624886E-001  0.8540854E+02  0.7818608E-02  0.1314368E+00
          4   -1    0    0  501    0  0.00000000000E+00  0.00000000000E+00  0.17917104737E+03  0.17917667430E+03  0.14200000000E+01 0. -1.
         -4   -1    0    0    0  501 -0.00000000000E+00 -0.00000000000E+00 -0.10122947356E+02  0.10222057678E+02  0.14200000000E+01 0.  1.
        -13    1    1    2    0    0  0.20689059249E+02 -0.20555975708E+02  0.15369841775E+03  0.15644104353E+03  0.10570000000E+00 0. -1.
         13    1    1    2    0    0 -0.20689059249E+02  0.20555975708E+02  0.15349682261E+02  0.32957688449E+02  0.10570000000E+00 0.  1.
<mgrwt>
<rscale>  0 0.85408545E+02</rscale>
<asrwt>0</asrwt>
<pdfrwt beam="1">  1        4 0.27572831E-01 0.85408545E+02</pdfrwt>
<pdfrwt beam="2">  1       -4 0.15654333E-02 0.85408545E+02</pdfrwt>
<totfact> 0.25989355E+04</totfact>
</mgrwt>
</event>
<event>
 4    1  0.5624886E-001  0.3086889E+02  0.7818608E-02  0.1588678E+00
          4   -1    0    0  501    0  0.00000000000E+00  0.00000000000E+00  0.12176175236E+03  0.12177003218E+03  0.14200000000E+01 0.  1.
         -4   -1    0    0    0  501 -0.00000000000E+00 -0.00000000000E+00 -0.16893416754E+01  0.22068700225E+01  0.14200000000E+01 0. -1.
        -13    1    1    2    0    0 -0.15304805092E+01  0.15087919429E+02  0.71553270371E+02  0.73142801126E+02  0.10570000000E+00 0. -1.
         13    1    1    2    0    0  0.15304805092E+01 -0.15087919429E+02  0.48519140315E+02  0.50834101080E+02  0.10570000000E+00 0.  1.
<mgrwt>
<rscale>  0 0.30868892E+02</rscale>
<asrwt>0</asrwt>
<pdfrwt beam="1">  1        4 0.18773022E-01 0.30868892E+02</pdfrwt>
<pdfrwt beam="2">  1       -4 0.30034553E-03 0.30868892E+02</pdfrwt>
<totfact> 0.36580340E+05</totfact>
</mgrwt>
</event>
<event>
 4    1  0.5624886E-001  0.3183051E+02  0.7818608E-02  0.1578694E+00
          4   -1    0    0  501    0  0.00000000000E+00  0.00000000000E+00  0.16081331217E+02  0.16143903299E+02  0.14200000000E+01 0. -1.
         -4   -1    0    0    0  501 -0.00000000000E+00 -0.00000000000E+00 -0.15625476137E+02  0.15689866299E+02  0.14200000000E+01 0.  1.
        -13    1    1    2    0    0 -0.10940554032E+01  0.11280052290E+02  0.11402593873E+02  0.16076904441E+02  0.10570000000E+00 0. -1.
         13    1    1    2    0    0  0.10940554032E+01 -0.11280052290E+02 -0.10946738793E+02  0.15756865157E+02  0.10570000000E+00 0.  1.
<mgrwt>
<rscale>  0 0.31830506E+02</rscale>
<asrwt>0</asrwt>
<pdfrwt beam="1">  1        4 0.24838173E-02 0.31830506E+02</pdfrwt>
<pdfrwt beam="2">  1       -4 0.24136857E-02 0.31830506E+02</pdfrwt>
<totfact> 0.45144897E+05</totfact>
</mgrwt>
</event>
<event>
 4    1  0.5624886E-001  0.2145038E+02  0.7818608E-02  0.1717935E+00
          4   -1    0    0  501    0  0.00000000000E+00  0.00000000000E+00  0.46865929484E+01  0.48969943296E+01  0.14200000000E+01 0. -1.
         -4   -1    0    0    0  501 -0.00000000000E+00 -0.00000000000E+00 -0.23773501535E+02  0.23815872338E+02  0.14200000000E+01 0.  1.
        -13    1    1    2    0    0 -0.85455525972E+01  0.63594098727E+01 -0.11209921036E+02  0.15464218870E+02  0.10570000000E+00 0.  1.
         13    1    1    2    0    0  0.85455525972E+01 -0.63594098727E+01 -0.78769875496E+01  0.13248647798E+02  0.10570000000E+00 0. -1.
<mgrwt>
<rscale>  0 0.21450376E+02</rscale>
<asrwt>0</asrwt>
<pdfrwt beam="1">  1        4 0.74045833E-03 0.21450376E+02</pdfrwt>
<pdfrwt beam="2">  1       -4 0.36769057E-02 0.21450376E+02</pdfrwt>
<totfact> 0.10840694E+06</totfact>
</mgrwt>
</event>
<event>
 4    1  0.5624886E-001  0.2456656E+02  0.7818608E-02  0.1667307E+00
          4   -1    0    0  501    0  0.00000000000E+00  0.00000000000E+00  0.22765128949E+01  0.26830786349E+01  0.14200000000E+01 0. -1.
         -4   -1    0    0    0  501 -0.00000000000E+00 -0.00000000000E+00 -0.60427732348E+02  0.60444414438E+02  0.14200000000E+01 0.  1.
        -13    1    1    2    0    0  0.88930286302E+01  0.81530445531E+01 -0.23154391148E+02  0.26109291366E+02  0.10570000000E+00 0. -1.
         13    1    1    2    0    0 -0.88930286302E+01 -0.81530445531E+01 -0.34996828305E+02  0.37018201707E+02  0.10570000000E+00 0.  1.
<mgrwt>
<rscale>  0 0.24566564E+02</rscale>
<asrwt>0</asrwt>
<pdfrwt beam="1">  1        4 0.38279033E-03 0.24566564E+02</pdfrwt>
<pdfrwt beam="2">  1       -4 0.93291306E-02 0.24566564E+02</pdfrwt>
<totfact> 0.71786255E+05</totfact>
</mgrwt>
</event>
<event>
 4    1  0.5624886E-001  0.6511215E+02  0.7818608E-02  0.1377550E+00
          4   -1    0    0  501    0  0.00000000000E+00  0.00000000000E+00  0.17166229439E+02  0.17224860903E+02  0.14200000000E+01 0. -1.
         -4   -1    0    0    0  501 -0.00000000000E+00 -0.00000000000E+00 -0.61571108293E+02  0.61587480679E+02  0.14200000000E+01 0.  1.
        -13    1    1    2    0    0  0.83816732205E+01 -0.29935516410E+02 -0.10498388737E+02  0.32811810789E+02  0.10570000000E+00 0. -1.
         13    1    1    2    0    0 -0.83816732205E+01  0.29935516410E+02 -0.33906490117E+02  0.46000530793E+02  0.10570000000E+00 0.  1.
<mgrwt>
<rscale>  0 0.65112149E+02</rscale>
<asrwt>0</asrwt>
<pdfrwt beam="1">  1        4 0.26467279E-02 0.65112149E+02</pdfrwt>
<pdfrwt beam="2">  1       -4 0.94782476E-02 0.65112149E+02</pdfrwt>
<totfact> 0.67983881E+04</totfact>
</mgrwt>
</event>
<event>
 4    1  0.5624886E-001  0.2026899E+02  0.7818608E-02  0.1740031E+00
         -4   -1    0    0    0  501 -0.00000000000E+00  0.00000000000E+00  0.11392244523E+02  0.11480402226E+02  0.14200000000E+01 0.  1.
          4   -1    0    0  501    0  0.00000000000E+00 -0.00000000000E+00 -0.88357912524E+01  0.89491679533E+01  0.14200000000E+01 0. -1.
        -13    1    1    2    0    0 -0.40232162135E+00  0.10075202903E+02  0.22987811291E+01  0.10342492126E+02  0.10570000000E+00 0.  1.
         13    1    1    2    0    0  0.40232162135E+00 -0.10075202903E+02  0.25767214096E+00  0.10087078052E+02  0.10570000000E+00 0. -1.
<mgrwt>
<rscale>  0 0.20268988E+02</rscale>
<asrwt>0</asrwt>
<pdfrwt beam="2">  1        4 0.13748551E-02 0.20268988E+02</pdfrwt>
<pdfrwt beam="1">  1       -4 0.17681556E-02 0.20268988E+02</pdfrwt>
<totfact> 0.12638290E+06</totfact>
</mgrwt>
</event>
<event>
 4    1  0.5624886E-001  0.2744241E+02  0.7818608E-02  0.1628212E+00
         -4   -1    0    0    0  501 -0.00000000000E+00  0.00000000000E+00  0.66858011049E+01  0.68349349971E+01  0.14200000000E+01 0.  1.
          4   -1    0    0  501    0  0.00000000000E+00 -0.00000000000E+00 -0.27681749998E+02  0.27718147177E+02  0.14200000000E+01 0. -1.
        -13    1    1    2    0    0 -0.11930216859E+02  0.57823206430E+01 -0.14948706552E+02  0.19980998633E+02  0.10570000000E+00 0. -1.
         13    1    1    2    0    0  0.11930216859E+02 -0.57823206430E+01 -0.60472423412E+01  0.14572083541E+02  0.10570000000E+00 0.  1.
<mgrwt>
<rscale>  0 0.27442405E+02</rscale>
<asrwt>0</asrwt>
<pdfrwt beam="2">  1        4 0.42730023E-02 0.27442405E+02</pdfrwt>
<pdfrwt beam="1">  1       -4 0.10428564E-02 0.27442405E+02</pdfrwt>
<totfact> 0.62402617E+05</totfact>
</mgrwt>
</event>
<event>
 4    1  0.5624886E-001  0.3424182E+02  0.7818608E-02  0.1555438E+00
         -4   -1    0    0    0  501 -0.00000000000E+00  0.00000000000E+00  0.30854762710E+02  0.30887421095E+02  0.14200000000E+01 0.  1.
          4   -1    0    0  501    0  0.00000000000E+00 -0.00000000000E+00 -0.94091846722E+01  0.95157320368E+01  0.14200000000E+01 0. -1.
        -13    1    1    2    0    0  0.11405453176E+02 -0.90718845151E+01  0.21324556648E+02  0.25828885759E+02  0.10570000000E+00 0.  1.
         13    1    1    2    0    0 -0.11405453176E+02  0.90718845151E+01  0.12102138966E+00  0.14574267373E+02  0.10570000000E+00 0. -1.
<mgrwt>
<rscale>  0 0.34241816E+02</rscale>
<asrwt>0</asrwt>
<pdfrwt beam="2">  1        4 0.14582750E-02 0.34241816E+02</pdfrwt>
<pdfrwt beam="1">  1       -4 0.47575947E-02 0.34241816E+02</pdfrwt>
<totfact> 0.36985542E+05</totfact>
</mgrwt>
</event>
<event>
 4    1  0.5624886E-001  0.8099104E+02  0.7818608E-02  0.1326262E+00
          4   -1    0    0  501    0  0.00000000000E+00  0.00000000000E+00  0.70198083421E+02  0.70212444167E+02  0.14200000000E+01 0. -1.
         -4   -1    0    0    0  501 -0.00000000000E+00 -0.00000000000E+00 -0.23322507282E+02  0.23365695922E+02  0.14200000000E+01 0.  1.
        -13    1    1    2    0    0 -0.39824026213E+02  0.24819510829E+01  0.31422928168E+02  0.50789021768E+02  0.10570000000E+00 0. -1.
         13    1    1    2    0    0  0.39824026213E+02 -0.24819510829E+01  0.15452647970E+02  0.42789118322E+02  0.10570000000E+00 0.  1.
<mgrwt>
<rscale>  0 0.80991041E+02</rscale>
<asrwt>0</asrwt>
<pdfrwt beam="1">  1        4 0.10804132E-01 0.80991041E+02</pdfrwt>
<pdfrwt beam="2">  1       -4 0.35925050E-02 0.80991041E+02</pdfrwt>
<totfact> 0.36930374E+04</totfact>
</mgrwt>
</event>
<event>
 4    1  0.5624886E-001  0.2529091E+02  0.7818608E-02  0.1656858E+00
         -4   -1    0    0    0  501 -0.00000000000E+00  0.00000000000E+00  0.14726661665E+02  0.14794964136E+02  0.14200000000E+01 0.  1.
          4   -1    0    0  501    0  0.00000000000E+00 -0.00000000000E+00 -0.10718006088E+02  0.10811662892E+02  0.14200000000E+01 0. -1.
        -13    1    1    2    0    0  0.10330291876E+02 -0.72576729359E+01  0.27256737128E+01  0.12916238476E+02  0.10570000000E+00 0.  1.
         13    1    1    2    0    0 -0.10330291876E+02  0.72576729359E+01  0.12829818646E+01  0.12690388553E+02  0.10570000000E+00 0. -1.
<mgrwt>
<rscale>  0 0.25290908E+02</rscale>
<asrwt>0</asrwt>
<pdfrwt beam="2">  1        4 0.16613824E-02 0.25290908E+02</pdfrwt>
<pdfrwt beam="1">  1       -4 0.22780987E-02 0.25290908E+02</pdfrwt>
<totfact> 0.77348132E+05</totfact>
</mgrwt>
</event>
<event>
 4    1  0.5624886E-001  0.3131765E+02  0.7818608E-02  0.1583964E+00
          4   -1    0    0  501    0  0.00000000000E+00  0.00000000000E+00  0.27360468324E+02  0.27397292329E+02  0.14200000000E+01 0. -1.
         -4   -1    0    0    0  501 -0.00000000000E+00 -0.00000000000E+00 -0.88623799899E+01  0.89754208306E+01  0.14200000000E+01 0.  1.
        -13    1    1    2    0    0 -0.15511768655E+02 -0.16481385220E+01  0.10831401436E+02  0.18991096782E+02  0.10570000000E+00 0. -1.
         13    1    1    2    0    0  0.15511768655E+02  0.16481385220E+01  0.76666868986E+01  0.17381616378E+02  0.10570000000E+00 0.  1.
<mgrwt>
<rscale>  0 0.31317647E+02</rscale>
<asrwt>0</asrwt>
<pdfrwt beam="1">  1        4 0.42208308E-02 0.31317647E+02</pdfrwt>
<pdfrwt beam="2">  1       -4 0.13749712E-02 0.31317647E+02</pdfrwt>
<totfact> 0.46070847E+05</totfact>
</mgrwt>
</event>
<event>
 4    1  0.5624886E-001  0.2276252E+02  0.7818608E-02  0.1695389E+00
         -4   -1    0    0    0  501 -0.00000000000E+00  0.00000000000E+00  0.60188554426E+02  0.60205302788E+02  0.14200000000E+01 0.  1.
          4   -1    0    0  501    0  0.00000000000E+00 -0.00000000000E+00 -0.18989321981E+01  0.23711481382E+01  0.14200000000E+01 0.  1.
        -13    1    1    2    0    0  0.86982471530E+01 -0.71187340196E+01  0.34051773239E+02  0.35859033880E+02  0.10570000000E+00 0.  1.
         13    1    1    2    0    0 -0.86982471530E+01  0.71187340196E+01  0.24237848988E+02  0.26717417047E+02  0.10570000000E+00 0. -1.
<mgrwt>
<rscale>  0 0.22762516E+02</rscale>
<asrwt>0</asrwt>
<pdfrwt beam="2">  1        4 0.32975611E-03 0.22762516E+02</pdfrwt>
<pdfrwt beam="1">  1       -4 0.92973885E-02 0.22762516E+02</pdfrwt>
<totfact> 0.84480905E+05</totfact>
</mgrwt>
</event>
<event>
 4    1  0.5624886E-001  0.5313301E+02  0.7818608E-02  0.1429140E+00
         -4   -1    0    0    0  501 -0.00000000000E+00  0.00000000000E+00  0.11410194521E+02  0.11498214601E+02  0.14200000000E+01 0.  1.
          4   -1    0    0  501    0  0.00000000000E+00 -0.00000000000E+00 -0.61521231098E+02  0.61537616755E+02  0.14200000000E+01 0. -1.
        -13    1    1    2    0    0 -0.63181044472E+01 -0.24493834792E+02 -0.13896664821E+02  0.28861650199E+02  0.10570000000E+00 0. -1.
         13    1    1    2    0    0  0.63181044472E+01  0.24493834792E+02 -0.36214371757E+02  0.44174181156E+02  0.10570000000E+00 0.  1.
<mgrwt>
<rscale>  0 0.53133009E+02</rscale>
<asrwt>0</asrwt>
<pdfrwt beam="2">  1        4 0.94728358E-02 0.53133009E+02</pdfrwt>
<pdfrwt beam="1">  1       -4 0.17634458E-02 0.53133009E+02</pdfrwt>
<totfact> 0.11580013E+05</totfact>
</mgrwt>
</event>
<event>
 4    1  0.5624886E-001  0.5125124E+02  0.7818608E-02  0.1438707E+00
         -4   -1    0    0    0  501 -0.00000000000E+00  0.00000000000E+00  0.12434548085E+03  0.12435358864E+03  0.14200000000E+01 0. -1.
          4   -1    0    0  501    0  0.00000000000E+00 -0.00000000000E+00 -0.51771432934E+01  0.53683528834E+01  0.14200000000E+01 0.  1.
        -13    1    1    2    0    0 -0.14152736891E+02  0.17853108241E+02  0.89277716095E+02  0.92138782274E+02  0.10570000000E+00 0. -1.
         13    1    1    2    0    0  0.14152736891E+02 -0.17853108241E+02  0.29890621462E+02  0.37583159251E+02  0.10570000000E+00 0.  1.
<mgrwt>
<rscale>  0 0.51251238E+02</rscale>
<asrwt>0</asrwt>
<pdfrwt beam="2">  1        4 0.81181568E-03 0.51251238E+02</pdfrwt>
<pdfrwt beam="1">  1       -4 0.19145406E-01 0.51251238E+02</pdfrwt>
<totfact> 0.10945958E+05</totfact>
</mgrwt>
</event>
<event>
 4    1  0.5624886E-001  0.2369895E+02  0.7818608E-02  0.1680425E+00
         -4   -1    0    0    0  501 -0.00000000000E+00  0.00000000000E+00  0.40887835352E+01  0.43283427310E+01  0.14200000000E+01 0. -1.
          4   -1    0    0  501    0  0.00000000000E+00 -0.00000000000E+00 -0.33107722746E+02  0.33138160864E+02  0.14200000000E+01 0.  1.
        -13    1    1    2    0    0 -0.11031473214E+01  0.11780292090E+02 -0.15517588935E+02  0.19514070682E+02  0.10570000000E+00 0.  1.
         13    1    1    2    0    0  0.11031473214E+01 -0.11780292090E+02 -0.13501350277E+02  0.17952432914E+02  0.10570000000E+00 0. -1.
<mgrwt>
<rscale>  0 0.23698946E+02</rscale>
<asrwt>0</asrwt>
<pdfrwt beam="2">  1        4 0.51142647E-02 0.23698946E+02</pdfrwt>
<pdfrwt beam="1">  1       -4 0.64981267E-03 0.23698946E+02</pdfrwt>
<totfact> 0.84867645E+05</totfact>
</mgrwt>
</event>
<event>
 4    1  0.5624886E-001  0.2105659E+02  0.7818608E-02  0.1725098E+00
          4   -1    0    0  501    0  0.00000000000E+00  0.00000000000E+00  0.19275449751E+02  0.19327683853E+02  0.14200000000E+01 0. -1.
         -4   -1    0    0    0  501 -0.00000000000E+00 -0.00000000000E+00 -0.56018542051E+01  0.57790285114E+01  0.14200000000E+01 0.  1.
        -13    1    1    2    0    0 -0.65913825699E+01 -0.80505775761E+01  0.87503726652E+01  0.13595525652E+02  0.10570000000E+00 0.  1.
         13    1    1    2    0    0  0.65913825699E+01  0.80505775761E+01  0.49232228809E+01  0.11511186712E+02  0.10570000000E+00 0. -1.
<mgrwt>
<rscale>  0 0.21056585E+02</rscale>
<asrwt>0</asrwt>
<pdfrwt beam="1">  1        4 0.29831006E-02 0.21056585E+02</pdfrwt>
<pdfrwt beam="2">  1       -4 0.87947053E-03 0.21056585E+02</pdfrwt>
<totfact> 0.11440525E+06</totfact>
</mgrwt>
</event>
<event>
 4    1  0.5624886E-001  0.5233845E+02  0.7818608E-02  0.1433122E+00
         -4   -1    0    0    0  501 -0.00000000000E+00  0.00000000000E+00  0.14778710900E+03  0.14779393082E+03  0.14200000000E+01 0.  1.
          4   -1    0    0  501    0  0.00000000000E+00 -0.00000000000E+00 -0.45180034907E+01  0.47359007107E+01  0.14200000000E+01 0. -1.
        -13    1    1    2    0    0  0.22308696772E+02 -0.13509652334E+02  0.65364815972E+02  0.70375841006E+02  0.10570000000E+00 0. -1.
         13    1    1    2    0    0 -0.22308696772E+02  0.13509652334E+02  0.77904289536E+02  0.82153990520E+02  0.10570000000E+00 0.  1.
<mgrwt>
<rscale>  0 0.52338446E+02</rscale>
<asrwt>0</asrwt>
<pdfrwt beam="2">  1        4 0.71236364E-03 0.52338446E+02</pdfrwt>
<pdfrwt beam="1">  1       -4 0.22753761E-01 0.52338446E+02</pdfrwt>
<totfact> 0.98571330E+04</totfact>
</mgrwt>
</event>
<event>
 4    1  0.5624886E-001  0.3404511E+02  0.7818608E-02  0.1557247E+00
         -4   -1    0    0    0  501 -0.00000000000E+00  0.00000000000E+00  0.55193530027E+01  0.56990926969E+01  0.14200000000E+01 0. -1.
          4   -1    0    0  501    0  0.00000000000E+00 -0.00000000000E+00 -0.51469395837E+02  0.51488980450E+02  0.14200000000E+01 0.  1.
        -13    1    1    2    0    0 -0.10072815278E+02  0.11272870675E+01 -0.45947040162E+02  0.47051823088E+02  0.10570000000E+00 0.  1.
         13    1    1    2    0    0  0.10072815278E+02 -0.11272870675E+01 -0.30026716915E-02  0.10136250059E+02  0.10570000000E+00 0. -1.
<mgrwt>
<rscale>  0 0.34045106E+02</rscale>
<asrwt>0</asrwt>
<pdfrwt beam="2">  1        4 0.79337009E-02 0.34045106E+02</pdfrwt>
<pdfrwt beam="1">  1       -4 0.86446391E-03 0.34045106E+02</pdfrwt>
<totfact> 0.35428142E+05</totfact>
</mgrwt>
</event>
<event>
 4    1  0.5624886E-001  0.3578745E+02  0.7818608E-02  0.1541717E+00
          4   -1    0    0  501    0  0.00000000000E+00  0.00000000000E+00  0.91894136744E+01  0.92984796434E+01  0.14200000000E+01 0.  1.
         -4   -1    0    0    0  501 -0.00000000000E+00 -0.00000000000E+00 -0.34513546284E+02  0.34542745651E+02  0.14200000000E+01 0. -1.
        -13    1    1    2    0    0 -0.34530745912E+01 -0.16003891687E+02 -0.38174558382E+01  0.16811674956E+02  0.10570000000E+00 0.  1.
         13    1    1    2    0    0  0.34530745912E+01  0.16003891687E+02 -0.21506676772E+02  0.27029550339E+02  0.10570000000E+00 0. -1.
<mgrwt>
<rscale>  0 0.35787447E+02</rscale>
<asrwt>0</asrwt>
<pdfrwt beam="1">  1        4 0.14243918E-02 0.35787447E+02</pdfrwt>
<pdfrwt beam="2">  1       -4 0.53204121E-02 0.35787447E+02</pdfrwt>
<totfact> 0.32981422E+05</totfact>
</mgrwt>
</event>
<event>
 4    1  0.5624886E-001  0.2460071E+02  0.7818608E-02  0.1666804E+00
         -4   -1    0    0    0  501 -0.00000000000E+00  0.00000000000E+00  0.65359574815E+01  0.66884333143E+01  0.14200000000E+01 0.  1.
          4   -1    0    0  501    0  0.00000000000E+00 -0.00000000000E+00 -0.22706853189E+02  0.22751210556E+02  0.14200000000E+01 0. -1.
        -13    1    1    2    0    0  0.51769149585E+01  0.92374026307E+01 -0.15573903150E+02  0.18833153949E+02  0.10570000000E+00 0. -1.
         13    1    1    2    0    0 -0.51769149585E+01 -0.92374026307E+01 -0.59699255790E+00  0.10606489921E+02  0.10570000000E+00 0.  1.
<mgrwt>
<rscale>  0 0.24600707E+02</rscale>
<asrwt>0</asrwt>
<pdfrwt beam="2">  1        4 0.35085030E-02 0.24600707E+02</pdfrwt>
<pdfrwt beam="1">  1       -4 0.10206729E-02 0.24600707E+02</pdfrwt>
<totfact> 0.80860432E+05</totfact>
</mgrwt>
</event>
<event>
 4    1  0.5624886E-001  0.2603161E+02  0.7818608E-02  0.1646612E+00
          4   -1    0    0  501    0  0.00000000000E+00  0.00000000000E+00  0.14067708618E+01  0.19988507342E+01  0.14200000000E+01 0. -1.
         -4   -1    0    0    0  501 -0.00000000000E+00 -0.00000000000E+00 -0.98891047909E+02  0.98901242442E+02  0.14200000000E+01 0.  1.
        -13    1    1    2    0    0  0.50665922162E+00 -0.12882871531E+02 -0.41835700575E+02  0.43777415382E+02  0.10570000000E+00 0. -1.
         13    1    1    2    0    0 -0.50665922162E+00  0.12882871531E+02 -0.55648576472E+02  0.57122677794E+02  0.10570000000E+00 0.  1.
<mgrwt>
<rscale>  0 0.26031606E+02</rscale>
<asrwt>0</asrwt>
<pdfrwt beam="1">  1        4 0.26275516E-03 0.26031606E+02</pdfrwt>
<pdfrwt beam="2">  1       -4 0.15260332E-01 0.26031606E+02</pdfrwt>
<totfact> 0.56545703E+05</totfact>
</mgrwt>
</event>
<event>
 4    1  0.5624886E-001  0.3946123E+02  0.7818608E-02  0.1512214E+00
         -4   -1    0    0    0  501 -0.00000000000E+00  0.00000000000E+00  0.35099683180E+02  0.35128395343E+02  0.14200000000E+01 0. -1.
          4   -1    0    0  501    0  0.00000000000E+00 -0.00000000000E+00 -0.11012336746E+02  0.11103511184E+02  0.14200000000E+01 0.  1.
        -13    1    1    2    0    0  0.19325915263E+02  0.39593827866E+01  0.11640634397E+02  0.22905965478E+02  0.10570000000E+00 0.  1.
         13    1    1    2    0    0 -0.19325915263E+02 -0.39593827866E+01  0.12446712037E+02  0.23325941049E+02  0.10570000000E+00 0. -1.
<mgrwt>
<rscale>  0 0.39461233E+02</rscale>
<asrwt>0</asrwt>
<pdfrwt beam="2">  1        4 0.17034277E-02 0.39461233E+02</pdfrwt>
<pdfrwt beam="1">  1       -4 0.54091732E-02 0.39461233E+02</pdfrwt>
<totfact> 0.25969296E+05</totfact>
</mgrwt>
</event>
<event>
 4    1  0.5624886E-001  0.3796645E+02  0.7818608E-02  0.1523733E+00
          4   -1    0    0  501    0  0.00000000000E+00  0.00000000000E+00  0.65168632027E+02  0.65184100825E+02  0.14200000000E+01 0. -1.
         -4   -1    0    0    0  501 -0.00000000000E+00 -0.00000000000E+00 -0.54221339989E+01  0.56049921590E+01  0.14200000000E+01 0.  1.
        -13    1    1    2    0    0  0.84371497018E+01 -0.95001631813E+01  0.56169755170E+02  0.57588984744E+02  0.10570000000E+00 0. -1.
         13    1    1    2    0    0 -0.84371497018E+01  0.95001631813E+01  0.35767428586E+01  0.13200108239E+02  0.10570000000E+00 0.  1.
<mgrwt>
<rscale>  0 0.37966454E+02</rscale>
<asrwt>0</asrwt>
<pdfrwt beam="1">  1        4 0.10041200E-01 0.37966454E+02</pdfrwt>
<pdfrwt beam="2">  1       -4 0.84943034E-03 0.37966454E+02</pdfrwt>
<totfact> 0.26349230E+05</totfact>
</mgrwt>
</event>
<event>
 4    1  0.5624886E-001  0.5341535E+02  0.7818608E-02  0.1427745E+00
          4   -1    0    0  501    0  0.00000000000E+00  0.00000000000E+00  0.72684881529E+02  0.72698751041E+02  0.14200000000E+01 0. -1.
         -4   -1    0    0    0  501 -0.00000000000E+00 -0.00000000000E+00 -0.97473368071E+01  0.98502271462E+01  0.14200000000E+01 0.  1.
        -13    1    1    2    0    0 -0.64944286866E+01  0.12382808745E+02  0.66634294008E+02  0.68085621586E+02  0.10570000000E+00 0. -1.
         13    1    1    2    0    0  0.64944286866E+01 -0.12382808745E+02 -0.36967492862E+01  0.14463356600E+02  0.10570000000E+00 0.  1.
<mgrwt>
<rscale>  0 0.53415347E+02</rscale>
<asrwt>0</asrwt>
<pdfrwt beam="1">  1        4 0.11191271E-01 0.53415347E+02</pdfrwt>
<pdfrwt beam="2">  1       -4 0.15085718E-02 0.53415347E+02</pdfrwt>
<totfact> 0.11132350E+05</totfact>
</mgrwt>
</event>
<event>
 4    1  0.5624886E-001  0.2644225E+02  0.7818608E-02  0.1641111E+00
          4   -1    0    0  501    0  0.00000000000E+00  0.00000000000E+00  0.43525329301E+02  0.43548486664E+02  0.14200000000E+01 0.  1.
         -4   -1    0    0    0  501 -0.00000000000E+00 -0.00000000000E+00 -0.38654638448E+01  0.41180348147E+01  0.14200000000E+01 0. -1.
        -13    1    1    2    0    0  0.10762944770E+02 -0.47295664186E+01  0.30732278890E+02  0.32904314563E+02  0.10570000000E+00 0.  1.
         13    1    1    2    0    0 -0.10762944770E+02  0.47295664186E+01  0.89275865660E+01  0.14762206915E+02  0.10570000000E+00 0. -1.
<mgrwt>
<rscale>  0 0.26442245E+02</rscale>
<asrwt>0</asrwt>
<pdfrwt beam="1">  1        4 0.67174137E-02 0.26442245E+02</pdfrwt>
<pdfrwt beam="2">  1       -4 0.61589668E-03 0.26442245E+02</pdfrwt>
<totfact> 0.64534520E+05</totfact>
</mgrwt>
</event>
<event>
 4    1  0.5624886E-001  0.2460008E+02  0.7818608E-02  0.1666813E+00
         -4   -1    0    0    0  501 -0.00000000000E+00  0.00000000000E+00  0.17586642667E+01  0.22603760755E+01  0.14200000000E+01 0. -1.
          4   -1    0    0  501    0  0.00000000000E+00 -0.00000000000E+00 -0.74777814254E+02  0.74791295647E+02  0.14200000000E+01 0.  1.
        -13    1    1    2    0    0  0.55502909226E+01 -0.92631685246E+01 -0.54951596672E+02  0.56002688951E+02  0.10570000000E+00 0.  1.
         13    1    1    2    0    0 -0.55502909226E+01  0.92631685246E+01 -0.18067553315E+02  0.21048982772E+02  0.10570000000E+00 0. -1.
<mgrwt>
<rscale>  0 0.24600078E+02</rscale>
<asrwt>0</asrwt>
<pdfrwt beam="2">  1        4 0.11543907E-01 0.24600078E+02</pdfrwt>
<pdfrwt beam="1">  1       -4 0.31019404E-03 0.24600078E+02</pdfrwt>
<totfact> 0.68470741E+05</totfact>
</mgrwt>
</event>
<event>
 4    1  0.5624886E-001  0.2101462E+02  0.7818608E-02  0.1725873E+00
          4   -1    0    0  501    0  0.00000000000E+00  0.00000000000E+00  0.45854801268E+01  0.48003154056E+01  0.14200000000E+01 0.  1.
         -4   -1    0    0    0  501 -0.00000000000E+00 -0.00000000000E+00 -0.23288716664E+02  0.23331967852E+02  0.14200000000E+01 0. -1.
        -13    1    1    2    0    0  0.75650541930E+00  0.10461789083E+02 -0.10167097123E+02  0.14608297904E+02  0.10570000000E+00 0.  1.
         13    1    1    2    0    0 -0.75650541930E+00 -0.10461789083E+02 -0.85361394134E+01  0.13523985353E+02  0.10570000000E+00 0. -1.
<mgrwt>
<rscale>  0 0.21014621E+02</rscale>
<asrwt>0</asrwt>
<pdfrwt beam="1">  1        4 0.72531130E-03 0.21014621E+02</pdfrwt>
<pdfrwt beam="2">  1       -4 0.36027322E-02 0.21014621E+02</pdfrwt>
<totfact> 0.11340332E+06</totfact>
</mgrwt>
</event>
<event>
 4    1  0.5624886E-001  0.3191239E+02  0.7818608E-02  0.1577863E+00
          4   -1    0    0  501    0  0.00000000000E+00  0.00000000000E+00  0.93666480098E+01  0.94736737826E+01  0.14200000000E+01 0.  1.
         -4   -1    0    0    0  501 -0.00000000000E+00 -0.00000000000E+00 -0.26901293555E+02  0.26938745236E+02  0.14200000000E+01 0. -1.
        -13    1    1    2    0    0  0.14218992777E+01  0.15737077341E+02 -0.11296033814E+02  0.19423927338E+02  0.10570000000E+00 0. -1.
         13    1    1    2    0    0 -0.14218992777E+01 -0.15737077341E+02 -0.62386117306E+01  0.16988491681E+02  0.10570000000E+00 0.  1.
<mgrwt>
<rscale>  0 0.31912387E+02</rscale>
<asrwt>0</asrwt>
<pdfrwt beam="1">  1        4 0.14521364E-02 0.31912387E+02</pdfrwt>
<pdfrwt beam="2">  1       -4 0.41497742E-02 0.31912387E+02</pdfrwt>
<totfact> 0.44125718E+05</totfact>
</mgrwt>
</event>
<event>
 4    1  0.5624886E-001  0.8569412E+02  0.7818608E-02  0.1313627E+00
         -4   -1    0    0    0  501 -0.00000000000E+00  0.00000000000E+00  0.39651113220E+02  0.39676531849E+02  0.14200000000E+01 0.  1.
          4   -1    0    0  501    0  0.00000000000E+00 -0.00000000000E+00 -0.46249454011E+02  0.46271248052E+02  0.14200000000E+01 0. -1.
        -13    1    1    2    0    0  0.18875460192E+02 -0.38248044503E+02  0.79502174494E+00  0.42659572640E+02  0.10570000000E+00 0. -1.
         13    1    1    2    0    0 -0.18875460192E+02  0.38248044503E+02 -0.73933625358E+01  0.43288207261E+02  0.10570000000E+00 0.  1.
<mgrwt>
<rscale>  0 0.85694123E+02</rscale>
<asrwt>0</asrwt>
<pdfrwt beam="2">  1        4 0.71189323E-02 0.85694123E+02</pdfrwt>
<pdfrwt beam="1">  1       -4 0.61038030E-02 0.85694123E+02</pdfrwt>
<totfact> 0.32346842E+04</totfact>
</mgrwt>
</event>
<event>
 4    1  0.5624886E-001  0.4509393E+02  0.7818608E-02  0.1473756E+00
          4   -1    0    0  501    0  0.00000000000E+00  0.00000000000E+00  0.65856453037E+01  0.67369966652E+01  0.14200000000E+01 0.  1.
         -4   -1    0    0    0  501 -0.00000000000E+00 -0.00000000000E+00 -0.76158001298E+02  0.76171238415E+02  0.14200000000E+01 0. -1.
        -13    1    1    2    0    0  0.73802123523E+01 -0.11677416083E+02 -0.20243236359E+01  0.13962042809E+02  0.10570000000E+00 0.  1.
         13    1    1    2    0    0 -0.73802123523E+01  0.11677416083E+02 -0.67548032358E+02  0.68946192271E+02  0.10570000000E+00 0. -1.
<mgrwt>
<rscale>  0 0.45093932E+02</rscale>
<asrwt>0</asrwt>
<pdfrwt beam="1">  1        4 0.10258369E-02 0.45093932E+02</pdfrwt>
<pdfrwt beam="2">  1       -4 0.11729276E-01 0.45093932E+02</pdfrwt>
<totfact> 0.16872887E+05</totfact>
</mgrwt>
</event>
<event>
 4    1  0.5624886E-001  0.3816105E+02  0.7818608E-02  0.1522197E+00
         -4   -1    0    0    0  501 -0.00000000000E+00  0.00000000000E+00  0.54688250286E+02  0.54706682584E+02  0.14200000000E+01 0. -1.
          4   -1    0    0  501    0  0.00000000000E+00 -0.00000000000E+00 -0.65616109021E+01  0.67135041246E+01  0.14200000000E+01 0.  1.
        -13    1    1    2    0    0 -0.58090336862E+01 -0.18173470986E+02  0.24366088198E+02  0.30947331817E+02  0.10570000000E+00 0.  1.
         13    1    1    2    0    0  0.58090336862E+01  0.18173470986E+02  0.23760551186E+02  0.30472854891E+02  0.10570000000E+00 0. -1.
<mgrwt>
<rscale>  0 0.38161052E+02</rscale>
<asrwt>0</asrwt>
<pdfrwt beam="2">  1        4 0.10225805E-02 0.38161052E+02</pdfrwt>
<pdfrwt beam="1">  1       -4 0.84266792E-02 0.38161052E+02</pdfrwt>
<totfact> 0.26784486E+05</totfact>
</mgrwt>
</event>
<event>
 4    1  0.5624886E-001  0.3562443E+02  0.7818608E-02  0.1543124E+00
          4   -1    0    0  501    0  0.00000000000E+00  0.00000000000E+00  0.19055109718E+03  0.19055638807E+03  0.14200000000E+01 0.  1.
         -4   -1    0    0    0  501 -0.00000000000E+00 -0.00000000000E+00 -0.13559950316E+01  0.19634465935E+01  0.14200000000E+01 0. -1.
        -13    1    1    2    0    0  0.17688382430E+02  0.11213349646E+01  0.85040329524E+02  0.86867744779E+02  0.10570000000E+00 0. -1.
         13    1    1    2    0    0 -0.17688382430E+02 -0.11213349646E+01  0.10415477262E+03  0.10565208989E+03  0.10570000000E+00 0.  1.
<mgrwt>
<rscale>  0 0.35624431E+02</rscale>
<asrwt>0</asrwt>
<pdfrwt beam="1">  1        4 0.29362696E-01 0.35624431E+02</pdfrwt>
<pdfrwt beam="2">  1       -4 0.25574858E-03 0.35624431E+02</pdfrwt>
<totfact> 0.22528807E+05</totfact>
</mgrwt>
</event>
<event>
 4    1  0.5624886E-001  0.2295279E+02  0.7818608E-02  0.1692277E+00
         -4   -1    0    0    0  501 -0.00000000000E+00  0.00000000000E+00  0.17855129644E+02  0.17911506207E+02  0.14200000000E+01 0. -1.
          4   -1    0    0  501    0  0.00000000000E+00 -0.00000000000E+00 -0.72393711700E+01  0.73773230197E+01  0.14200000000E+01 0.  1.
        -13    1    1    2    0    0  0.19938244051E+01  0.11049291142E+02  0.79231284046E+01  0.13742245330E+02  0.10570000000E+00 0. -1.
         13    1    1    2    0    0 -0.19938244051E+01 -0.11049291142E+02  0.26926300690E+01  0.11546583897E+02  0.10570000000E+00 0.  1.
<mgrwt>
<rscale>  0 0.22952790E+02</rscale>
<asrwt>0</asrwt>
<pdfrwt beam="2">  1        4 0.11286978E-02 0.22952790E+02</pdfrwt>
<pdfrwt beam="1">  1       -4 0.27618913E-02 0.22952790E+02</pdfrwt>
<totfact> 0.95398496E+05</totfact>
</mgrwt>
</event>
<event>
 4    1  0.5624886E-001  0.5440278E+02  0.7818608E-02  0.1422944E+00
         -4   -1    0    0    0  501 -0.00000000000E+00  0.00000000000E+00  0.11997181139E+02  0.12080925266E+02  0.14200000000E+01 0. -1.
          4   -1    0    0  501    0  0.00000000000E+00 -0.00000000000E+00 -0.61367630446E+02  0.61384057104E+02  0.14200000000E+01 0.  1.
        -13    1    1    2    0    0 -0.44808444662E+01  0.21230689078E+02 -0.46836741391E+02  0.51618907800E+02  0.10570000000E+00 0.  1.
         13    1    1    2    0    0  0.44808444662E+01 -0.21230689078E+02 -0.25337079168E+01  0.21846074570E+02  0.10570000000E+00 0. -1.
<mgrwt>
<rscale>  0 0.54402779E+02</rscale>
<asrwt>0</asrwt>
<pdfrwt beam="2">  1        4 0.94488792E-02 0.54402779E+02</pdfrwt>
<pdfrwt beam="1">  1       -4 0.18534257E-02 0.54402779E+02</pdfrwt>
<totfact> 0.10900707E+05</totfact>
</mgrwt>
</event>
<event>
 4    1  0.5624886E-001  0.2820816E+02  0.7818608E-02  0.1618784E+00
         -4   -1    0    0    0  501 -0.00000000000E+00  0.00000000000E+00  0.42324797542E+02  0.42348611394E+02  0.14200000000E+01 0.  1.
          4   -1    0    0  501    0  0.00000000000E+00 -0.00000000000E+00 -0.45669663726E+01  0.47826333592E+01  0.14200000000E+01 0. -1.
        -13    1    1    2    0    0  0.82433969346E+01  0.10754690043E+02  0.12344045185E+02  0.18330400295E+02  0.10570000000E+00 0. -1.
         13    1    1    2    0    0 -0.82433969346E+01 -0.10754690043E+02  0.25413785985E+02  0.28800844458E+02  0.10570000000E+00 0.  1.
<mgrwt>
<rscale>  0 0.28208162E+02</rscale>
<asrwt>0</asrwt>
<pdfrwt beam="2">  1        4 0.72103183E-03 0.28208162E+02</pdfrwt>
<pdfrwt beam="1">  1       -4 0.65299287E-02 0.28208162E+02</pdfrwt>
<totfact> 0.56084375E+05</totfact>
</mgrwt>
</event>
<event>
 4    1  0.5624886E-001  0.3137168E+02  0.7818608E-02  0.1583403E+00
         -4   -1    0    0    0  501 -0.00000000000E+00  0.00000000000E+00  0.12293272097E+01  0.18782027016E+01  0.14200000000E+01 0. -1.
          4   -1    0    0  501    0  0.00000000000E+00 -0.00000000000E+00 -0.15770170986E+03  0.15770810281E+03  0.14200000000E+01 0.  1.
        -13    1    1    2    0    0  0.15478322487E+02 -0.22646047282E+01 -0.84097280512E+02  0.85539877622E+02  0.10570000000E+00 0.  1.
         13    1    1    2    0    0 -0.15478322487E+02  0.22646047282E+01 -0.72375102134E+02  0.74046427888E+02  0.10570000000E+00 0. -1.
<mgrwt>
<rscale>  0 0.31371681E+02</rscale>
<asrwt>0</asrwt>
<pdfrwt beam="2">  1        4 0.24312194E-01 0.31371681E+02</pdfrwt>
<pdfrwt beam="1">  1       -4 0.23953265E-03 0.31371681E+02</pdfrwt>
<totfact> 0.32334597E+05</totfact>
</mgrwt>
</event>
<event>
 4    1  0.5624886E-001  0.5860371E+02  0.7818608E-02  0.1403786E+00
          4   -1    0    0  501    0  0.00000000000E+00  0.00000000000E+00  0.77429255603E+02  0.77442275426E+02  0.14200000000E+01 0.  1.
         -4   -1    0    0    0  501 -0.00000000000E+00 -0.00000000000E+00 -0.11029343660E+02  0.11120378661E+02  0.14200000000E+01 0. -1.
        -13    1    1    2    0    0 -0.21515426760E+02  0.18084280065E+02  0.45719590665E+02  0.53667931925E+02  0.10570000000E+00 0.  1.
         13    1    1    2    0    0  0.21515426760E+02 -0.18084280065E+02  0.20680321278E+02  0.34894722162E+02  0.10570000000E+00 0. -1.
<mgrwt>
<rscale>  0 0.58603715E+02</rscale>
<asrwt>0</asrwt>
<pdfrwt beam="1">  1        4 0.11920197E-01 0.58603715E+02</pdfrwt>
<pdfrwt beam="2">  1       -4 0.17048263E-02 0.58603715E+02</pdfrwt>
<totfact> 0.86752485E+04</totfact>
</mgrwt>
</event>
<event>
 4    1  0.5624886E-001  0.2375776E+02  0.7818608E-02  0.1679514E+00
         -4   -1    0    0    0  501 -0.00000000000E+00  0.00000000000E+00  0.30785820730E+01  0.33902901911E+01  0.14200000000E+01 0. -1.
          4   -1    0    0  501    0  0.00000000000E+00 -0.00000000000E+00 -0.43302780728E+02  0.43326057042E+02  0.14200000000E+01 0.  1.
        -13    1    1    2    0    0  0.87623954787E+00 -0.11842667223E+02 -0.20668270969E+02  0.23837054349E+02  0.10570000000E+00 0.  1.
         13    1    1    2    0    0 -0.87623954787E+00  0.11842667223E+02 -0.19555927686E+02  0.22879292884E+02  0.10570000000E+00 0. -1.
<mgrwt>
<rscale>  0 0.23757755E+02</rscale>
<asrwt>0</asrwt>
<pdfrwt beam="2">  1        4 0.66877339E-02 0.23757755E+02</pdfrwt>
<pdfrwt beam="1">  1       -4 0.49939607E-03 0.23757755E+02</pdfrwt>
<totfact> 0.81565844E+05</totfact>
</mgrwt>
</event>
<event>
 4    1  0.5624886E-001  0.2925271E+02  0.7818608E-02  0.1606499E+00
          4   -1    0    0  501    0  0.00000000000E+00  0.00000000000E+00  0.42489444249E+02  0.42513165874E+02  0.14200000000E+01 0. -1.
         -4   -1    0    0    0  501 -0.00000000000E+00 -0.00000000000E+00 -0.49091239197E+01  0.51103715774E+01  0.14200000000E+01 0.  1.
        -13    1    1    2    0    0  0.10436280930E+02 -0.99841363438E+01  0.15035112104E+02  0.20848614022E+02  0.10570000000E+00 0.  1.
         13    1    1    2    0    0 -0.10436280930E+02  0.99841363438E+01  0.22545208226E+02  0.26774923429E+02  0.10570000000E+00 0. -1.
<mgrwt>
<rscale>  0 0.29252707E+02</rscale>
<asrwt>0</asrwt>
<pdfrwt beam="1">  1        4 0.65541428E-02 0.29252707E+02</pdfrwt>
<pdfrwt beam="2">  1       -4 0.77255518E-03 0.29252707E+02</pdfrwt>
<totfact> 0.51640647E+05</totfact>
</mgrwt>
</event>
<event>
 4    1  0.5624886E-001  0.2138047E+02  0.7818608E-02  0.1719192E+00
          4   -1    0    0  501    0  0.00000000000E+00  0.00000000000E+00  0.29921967236E+02  0.29955642595E+02  0.14200000000E+01 0.  1.
         -4   -1    0    0    0  501 -0.00000000000E+00 -0.00000000000E+00 -0.36501653786E+01  0.39166449023E+01  0.14200000000E+01 0. -1.
        -13    1    1    2    0    0  0.92258508869E+01 -0.41419401353E+01  0.76483303513E+01  0.12679910186E+02  0.10570000000E+00 0. -1.
         13    1    1    2    0    0 -0.92258508869E+01  0.41419401353E+01  0.18623471506E+02  0.21192377311E+02  0.10570000000E+00 0.  1.
<mgrwt>
<rscale>  0 0.21380465E+02</rscale>
<asrwt>0</asrwt>
<pdfrwt beam="1">  1        4 0.46264682E-02 0.21380465E+02</pdfrwt>
<pdfrwt beam="2">  1       -4 0.58465276E-03 0.21380465E+02</pdfrwt>
<totfact> 0.10686311E+06</totfact>
</mgrwt>
</event>
<event>
 4    1  0.5624886E-001  0.4209628E+02  0.7818608E-02  0.1493328E+00
          4   -1    0    0  501    0  0.00000000000E+00  0.00000000000E+00  0.13277962027E+03  0.13278721308E+03  0.14200000000E+01 0. -1.
         -4   -1    0    0    0  501 -0.00000000000E+00 -0.00000000000E+00 -0.31774116784E+01  0.34802794390E+01  0.14200000000E+01 0.  1.
        -13    1    1    2    0    0  0.15824026911E+02 -0.96776460693E+01  0.97002190316E+02  0.98759772983E+02  0.10570000000E+00 0. -1.
         13    1    1    2    0    0 -0.15824026911E+02  0.96776460693E+01  0.32600018273E+02  0.37507719539E+02  0.10570000000E+00 0.  1.
<mgrwt>
<rscale>  0 0.42096283E+02</rscale>
<asrwt>0</asrwt>
<pdfrwt beam="1">  1        4 0.20451513E-01 0.42096283E+02</pdfrwt>
<pdfrwt beam="2">  1       -4 0.51271421E-03 0.42096283E+02</pdfrwt>
<totfact> 0.17349830E+05</totfact>
</mgrwt>
</event>
<event>
 4    1  0.5624886E-001  0.2444190E+02  0.7818608E-02  0.1669150E+00
          4   -1    0    0  501    0  0.00000000000E+00  0.00000000000E+00  0.16766331037E+02  0.16826356006E+02  0.14200000000E+01 0. -1.
         -4   -1    0    0    0  501 -0.00000000000E+00 -0.00000000000E+00 -0.87747082839E+01  0.88888641270E+01  0.14200000000E+01 0.  1.
        -13    1    1    2    0    0  0.35684276363E+01 -0.10154447260E+02 -0.20930859742E+01  0.10965338861E+02  0.10570000000E+00 0.  1.
         13    1    1    2    0    0 -0.35684276363E+01  0.10154447260E+02  0.10084708727E+02  0.14749881272E+02  0.10570000000E+00 0. -1.
<mgrwt>
<rscale>  0 0.24441901E+02</rscale>
<asrwt>0</asrwt>
<pdfrwt beam="1">  1        4 0.25928340E-02 0.24441901E+02</pdfrwt>
<pdfrwt beam="2">  1       -4 0.13633537E-02 0.24441901E+02</pdfrwt>
<totfact> 0.83264199E+05</totfact>
</mgrwt>
</event>
<event>
 4    1  0.5624886E-001  0.2301056E+02  0.7818608E-02  0.1691339E+00
         -4   -1    0    0    0  501 -0.00000000000E+00  0.00000000000E+00  0.11697813409E+02  0.11783685271E+02  0.14200000000E+01 0.  1.
          4   -1    0    0  501    0  0.00000000000E+00 -0.00000000000E+00 -0.11143445288E+02  0.11233555665E+02  0.14200000000E+01 0. -1.
        -13    1    1    2    0    0 -0.10184714352E+02 -0.48101762783E+01 -0.20674541246E+01  0.11452150074E+02  0.10570000000E+00 0.  1.
         13    1    1    2    0    0  0.10184714352E+02  0.48101762783E+01  0.26218222457E+01  0.11565090862E+02  0.10570000000E+00 0. -1.
<mgrwt>
<rscale>  0 0.23010564E+02</rscale>
<asrwt>0</asrwt>
<pdfrwt beam="2">  1        4 0.17279133E-02 0.23010564E+02</pdfrwt>
<pdfrwt beam="1">  1       -4 0.18132007E-02 0.23010564E+02</pdfrwt>
<totfact> 0.95817753E+05</totfact>
</mgrwt>
</event>
<event>
 4    1  0.5624886E-001  0.3421475E+02  0.7818608E-02  0.1555686E+00
          4   -1    0    0  501    0  0.00000000000E+00  0.00000000000E+00  0.42212386788E+02  0.42236264020E+02  0.14200000000E+01 0. -1.
         -4   -1    0    0    0  501 -0.00000000000E+00 -0.00000000000E+00 -0.68342499956E+01  0.69802129625E+01  0.14200000000E+01 0.  1.
        -13    1    1    2    0    0 -0.68151687222E+01  0.15369226851E+02  0.22235922135E+02  0.27876640120E+02  0.10570000000E+00 0. -1.
         13    1    1    2    0    0  0.68151687222E+01 -0.15369226851E+02  0.13142214658E+02  0.21339836863E+02  0.10570000000E+00 0.  1.
<mgrwt>
<rscale>  0 0.34214749E+02</rscale>
<asrwt>0</asrwt>
<pdfrwt beam="1">  1        4 0.65072780E-02 0.34214749E+02</pdfrwt>
<pdfrwt beam="2">  1       -4 0.10644877E-02 0.34214749E+02</pdfrwt>
<totfact> 0.35951567E+05</totfact>
</mgrwt>
</event>
<event>
 4    1  0.5624886E-001  0.2698355E+02  0.7818608E-02  0.1634044E+00
          4   -1    0    0  501    0  0.00000000000E+00  0.00000000000E+00  0.27886491664E+02  0.27922621964E+02  0.14200000000E+01 0.  1.
         -4   -1    0    0    0  501 -0.00000000000E+00 -0.00000000000E+00 -0.64093454122E+01  0.65647626471E+01  0.14200000000E+01 0. -1.
        -13    1    1    2    0    0  0.11581891192E+02  0.65936893597E+01  0.80576742289E+01  0.15574152607E+02  0.10570000000E+00 0. -1.
         13    1    1    2    0    0 -0.11581891192E+02 -0.65936893597E+01  0.13419472023E+02  0.18913232004E+02  0.10570000000E+00 0.  1.
<mgrwt>
<rscale>  0 0.26983548E+02</rscale>
<asrwt>0</asrwt>
<pdfrwt beam="1">  1        4 0.43049639E-02 0.26983548E+02</pdfrwt>
<pdfrwt beam="2">  1       -4 0.10007876E-02 0.26983548E+02</pdfrwt>
<totfact> 0.64784882E+05</totfact>
</mgrwt>
</event>
<event>
 4    1  0.5624886E-001  0.4117545E+02  0.7818608E-02  0.1499735E+00
         -4   -1    0    0    0  501 -0.00000000000E+00  0.00000000000E+00  0.14798071266E+02  0.14866045647E+02  0.14200000000E+01 0. -1.
          4   -1    0    0  501    0  0.00000000000E+00 -0.00000000000E+00 -0.28491211196E+02  0.28526575599E+02  0.14200000000E+01 0.  1.
        -13    1    1    2    0    0 -0.11679927076E+02 -0.18362418577E+01  0.10914760849E+02  0.16091477792E+02  0.10570000000E+00 0. -1.
         13    1    1    2    0    0  0.11679927076E+02  0.18362418577E+01 -0.24607900779E+02  0.27301143454E+02  0.10570000000E+00 0.  1.
<mgrwt>
<rscale>  0 0.41175448E+02</rscale>
<asrwt>0</asrwt>
<pdfrwt beam="2">  1        4 0.43912124E-02 0.41175448E+02</pdfrwt>
<pdfrwt beam="1">  1       -4 0.22845755E-02 0.41175448E+02</pdfrwt>
<totfact> 0.23680337E+05</totfact>
</mgrwt>
</event>
<event>
 4    1  0.5624886E-001  0.3216369E+02  0.7818608E-02  0.1575334E+00
          4   -1    0    0  501    0  0.00000000000E+00  0.00000000000E+00  0.23107501989E+01  0.27121885041E+01  0.14200000000E+01 0.  1.
         -4   -1    0    0    0  501 -0.00000000000E+00 -0.00000000000E+00 -0.10257108772E+03  0.10258091653E+03  0.14200000000E+01 0. -1.
        -13    1    1    2    0    0  0.20602933132E+01  0.15293305018E+02 -0.35313623969E+02  0.38538204385E+02  0.10570000000E+00 0.  1.
         13    1    1    2    0    0 -0.20602933132E+01 -0.15293305018E+02 -0.64946713551E+02  0.66754900648E+02  0.10570000000E+00 0. -1.
<mgrwt>
<rscale>  0 0.32163686E+02</rscale>
<asrwt>0</asrwt>
<pdfrwt beam="1">  1        4 0.38713604E-03 0.32163686E+02</pdfrwt>
<pdfrwt beam="2">  1       -4 0.15811800E-01 0.32163686E+02</pdfrwt>
<totfact> 0.35031583E+05</totfact>
</mgrwt>
</event>
<event>
 4    1  0.5624886E-001  0.2592498E+02  0.7818608E-02  0.1648061E+00
         -4   -1    0    0    0  501 -0.00000000000E+00  0.00000000000E+00  0.13869412571E+01  0.19849448482E+01  0.14200000000E+01 0. -1.
          4   -1    0    0  501    0  0.00000000000E+00 -0.00000000000E+00 -0.99058997481E+02  0.99069174732E+02  0.14200000000E+01 0.  1.
        -13    1    1    2    0    0  0.19305411105E+01 -0.12707557348E+02 -0.42306588769E+02  0.44216146694E+02  0.10570000000E+00 0. -1.
         13    1    1    2    0    0 -0.19305411105E+01  0.12707557348E+02 -0.55365467455E+02  0.56837972886E+02  0.10570000000E+00 0.  1.
<mgrwt>
<rscale>  0 0.25924979E+02</rscale>
<asrwt>0</asrwt>
<pdfrwt beam="2">  1        4 0.15286624E-01 0.25924979E+02</pdfrwt>
<pdfrwt beam="1">  1       -4 0.26015880E-03 0.25924979E+02</pdfrwt>
<totfact> 0.57022733E+05</totfact>
</mgrwt>
</event>
<event>
 4    1  0.5624886E-001  0.2254541E+02  0.7818608E-02  0.1698987E+00
          4   -1    0    0  501    0  0.00000000000E+00  0.00000000000E+00  0.49824386374E+01  0.51808391961E+01  0.14200000000E+01 0. -1.
         -4   -1    0    0    0  501 -0.00000000000E+00 -0.00000000000E+00 -0.24787359996E+02  0.24828000636E+02  0.14200000000E+01 0.  1.
        -13    1    1    2    0    0  0.10441598583E+02  0.42382271336E+01 -0.10262498520E+02  0.15242033938E+02  0.10570000000E+00 0. -1.
         13    1    1    2    0    0 -0.10441598583E+02 -0.42382271336E+01 -0.95424228392E+01  0.14766805895E+02  0.10570000000E+00 0.  1.
<mgrwt>
<rscale>  0 0.22545411E+02</rscale>
<asrwt>0</asrwt>
<pdfrwt beam="1">  1        4 0.78491682E-03 0.22545411E+02</pdfrwt>
<pdfrwt beam="2">  1       -4 0.38318277E-02 0.22545411E+02</pdfrwt>
<totfact> 0.97149462E+05</totfact>
</mgrwt>
</event>
<event>
 4    1  0.5624886E-001  0.4251567E+02  0.7818608E-02  0.1490475E+00
         -4   -1    0    0    0  501 -0.00000000000E+00  0.00000000000E+00  0.28296304209E+02  0.28331911900E+02  0.14200000000E+01 0.  1.
          4   -1    0    0  501    0  0.00000000000E+00 -0.00000000000E+00 -0.15892798601E+02  0.15956110032E+02  0.14200000000E+01 0. -1.
        -13    1    1    2    0    0  0.14193653707E+02 -0.27002983929E+01 -0.10040981767E+02  0.17594996570E+02  0.10570000000E+00 0. -1.
         13    1    1    2    0    0 -0.14193653707E+02  0.27002983929E+01  0.22444487375E+02  0.26693025362E+02  0.10570000000E+00 0.  1.
<mgrwt>
<rscale>  0 0.42515667E+02</rscale>
<asrwt>0</asrwt>
<pdfrwt beam="2">  1        4 0.24526551E-02 0.42515667E+02</pdfrwt>
<pdfrwt beam="1">  1       -4 0.43608867E-02 0.42515667E+02</pdfrwt>
<totfact> 0.21858509E+05</totfact>
</mgrwt>
</event>
<event>
 4    1  0.5624886E-001  0.2465651E+02  0.7818608E-02  0.1665985E+00
         -4   -1    0    0    0  501 -0.00000000000E+00  0.00000000000E+00  0.31925991650E+02  0.31957555332E+02  0.14200000000E+01 0.  1.
          4   -1    0    0  501    0  0.00000000000E+00 -0.00000000000E+00 -0.46199495327E+01  0.48332529092E+01  0.14200000000E+01 0. -1.
        -13    1    1    2    0    0 -0.25152783457E+01 -0.10155279634E+02  0.23382647392E+02  0.25616707461E+02  0.10570000000E+00 0.  1.
         13    1    1    2    0    0  0.25152783457E+01  0.10155279634E+02  0.39233947251E+01  0.11174100781E+02  0.10570000000E+00 0. -1.
<mgrwt>
<rscale>  0 0.24656513E+02</rscale>
<asrwt>0</asrwt>
<pdfrwt beam="2">  1        4 0.72959738E-03 0.24656513E+02</pdfrwt>
<pdfrwt beam="1">  1       -4 0.49305270E-02 0.24656513E+02</pdfrwt>
<totfact> 0.78174414E+05</totfact>
</mgrwt>
</event>
<event>
 4    1  0.5624886E-001  0.3958324E+02  0.7818608E-02  0.1511301E+00
         -4   -1    0    0    0  501 -0.00000000000E+00  0.00000000000E+00  0.41651236510E+02  0.41675435244E+02  0.14200000000E+01 0.  1.
          4   -1    0    0  501    0  0.00000000000E+00 -0.00000000000E+00 -0.93237787040E+01  0.94312909679E+01  0.14200000000E+01 0. -1.
        -13    1    1    2    0    0 -0.10413851113E+02 -0.70322327987E+01 -0.35780229684E+01  0.13065757307E+02  0.10570000000E+00 0. -1.
         13    1    1    2    0    0  0.10413851113E+02  0.70322327987E+01  0.35905480774E+02  0.38040968905E+02  0.10570000000E+00 0.  1.
<mgrwt>
<rscale>  0 0.39583241E+02</rscale>
<asrwt>0</asrwt>
<pdfrwt beam="2">  1        4 0.14445591E-02 0.39583241E+02</pdfrwt>
<pdfrwt beam="1">  1       -4 0.64180142E-02 0.39583241E+02</pdfrwt>
<totfact> 0.25372228E+05</totfact>
</mgrwt>
</event>
<event>
 4    1  0.5624886E-001  0.3122479E+02  0.7818608E-02  0.1584932E+00
          4   -1    0    0  501    0  0.00000000000E+00  0.00000000000E+00  0.33228516107E+02  0.33258843677E+02  0.14200000000E+01 0. -1.
         -4   -1    0    0    0  501 -0.00000000000E+00 -0.00000000000E+00 -0.72327282386E+01  0.73708044183E+01  0.14200000000E+01 0.  1.
        -13    1    1    2    0    0 -0.24353514346E+01 -0.11117080436E+02 -0.90821449210E+00  0.11417374483E+02  0.10570000000E+00 0.  1.
         13    1    1    2    0    0  0.24353514346E+01  0.11117080436E+02  0.26904002361E+02  0.29212273612E+02  0.10570000000E+00 0. -1.
<mgrwt>
<rscale>  0 0.31224787E+02</rscale>
<asrwt>0</asrwt>
<pdfrwt beam="1">  1        4 0.51250336E-02 0.31224787E+02</pdfrwt>
<pdfrwt beam="2">  1       -4 0.11256816E-02 0.31224787E+02</pdfrwt>
<totfact> 0.45674392E+05</totfact>
</mgrwt>
</event>
<event>
 4    1  0.5624886E-001  0.2608953E+02  0.7818608E-02  0.1645828E+00
          4   -1    0    0  501    0  0.00000000000E+00  0.00000000000E+00  0.10048414034E+02  0.10148252293E+02  0.14200000000E+01 0. -1.
         -4   -1    0    0    0  501 -0.00000000000E+00 -0.00000000000E+00 -0.16720805017E+02  0.16780992832E+02  0.14200000000E+01 0.  1.
        -13    1    1    2    0    0  0.93311916501E+01 -0.42896687192E+01 -0.11637582654E+02  0.15521497926E+02  0.10570000000E+00 0.  1.
         13    1    1    2    0    0 -0.93311916501E+01  0.42896687192E+01  0.49651916712E+01  0.11407747199E+02  0.10570000000E+00 0. -1.
<mgrwt>
<rscale>  0 0.26089527E+02</rscale>
<asrwt>0</asrwt>
<pdfrwt beam="1">  1        4 0.15582195E-02 0.26089527E+02</pdfrwt>
<pdfrwt beam="2">  1       -4 0.25847412E-02 0.26089527E+02</pdfrwt>
<totfact> 0.71873563E+05</totfact>
</mgrwt>
</event>
<event>
 4    1  0.5624886E-001  0.3886643E+02  0.7818608E-02  0.1516723E+00
          4   -1    0    0  501    0  0.00000000000E+00  0.00000000000E+00  0.86485748386E+01  0.87643737220E+01  0.14200000000E+01 0. -1.
         -4   -1    0    0    0  501 -0.00000000000E+00 -0.00000000000E+00 -0.43248218230E+02  0.43271523893E+02  0.14200000000E+01 0.  1.
        -13    1    1    2    0    0  0.15466526767E+02  0.10942505664E+02 -0.11512260388E+02  0.22169690845E+02  0.10570000000E+00 0. -1.
         13    1    1    2    0    0 -0.15466526767E+02 -0.10942505664E+02 -0.23087383003E+02  0.29866206770E+02  0.10570000000E+00 0.  1.
<mgrwt>
<rscale>  0 0.38866429E+02</rscale>
<asrwt>0</asrwt>
<pdfrwt beam="1">  1        4 0.13412503E-02 0.38866429E+02</pdfrwt>
<pdfrwt beam="2">  1       -4 0.66642723E-02 0.38866429E+02</pdfrwt>
<totfact> 0.26419257E+05</totfact>
</mgrwt>
</event>
<event>
 4    1  0.5624886E-001  0.2476313E+02  0.7818608E-02  0.1664428E+00
         -4   -1    0    0    0  501 -0.00000000000E+00  0.00000000000E+00  0.29858103000E+01  0.33062763266E+01  0.14200000000E+01 0. -1.
          4   -1    0    0  501    0  0.00000000000E+00 -0.00000000000E+00 -0.48397471532E+02  0.48418298718E+02  0.14200000000E+01 0.  1.
        -13    1    1    2    0    0 -0.24178304746E+01 -0.11699725487E+02 -0.29494350772E+02  0.31822278055E+02  0.10570000000E+00 0.  1.
         13    1    1    2    0    0  0.24178304746E+01  0.11699725487E+02 -0.15917310461E+02  0.19902296989E+02  0.10570000000E+00 0. -1.
<mgrwt>
<rscale>  0 0.24763132E+02</rscale>
<asrwt>0</asrwt>
<pdfrwt beam="2">  1        4 0.74720176E-02 0.24763132E+02</pdfrwt>
<pdfrwt beam="1">  1       -4 0.48560879E-03 0.24763132E+02</pdfrwt>
<totfact> 0.73345636E+05</totfact>
</mgrwt>
</event>
<event>
 4    1  0.5624886E-001  0.2787338E+02  0.7818608E-02  0.1622860E+00
         -4   -1    0    0    0  501 -0.00000000000E+00  0.00000000000E+00  0.40535586474E+02  0.40560450821E+02  0.14200000000E+01 0.  1.
          4   -1    0    0  501    0  0.00000000000E+00 -0.00000000000E+00 -0.46594733296E+01  0.48710462643E+01  0.14200000000E+01 0. -1.
        -13    1    1    2    0    0  0.64267617654E+01  0.11596090595E+02  0.10937423136E+02  0.17187523999E+02  0.10570000000E+00 0. -1.
         13    1    1    2    0    0 -0.64267617654E+01 -0.11596090595E+02  0.24938690008E+02  0.28243973086E+02  0.10570000000E+00 0.  1.
<mgrwt>
<rscale>  0 0.27873382E+02</rscale>
<asrwt>0</asrwt>
<pdfrwt beam="2">  1        4 0.73502956E-03 0.27873382E+02</pdfrwt>
<pdfrwt beam="1">  1       -4 0.62544313E-02 0.27873382E+02</pdfrwt>
<totfact> 0.57931571E+05</totfact>
</mgrwt>
</event>
<event>
 4    1  0.5624886E-001  0.2630669E+02  0.7818608E-02  0.1642913E+00
          4   -1    0    0  501    0  0.00000000000E+00  0.00000000000E+00  0.72130698823E+02  0.72144674874E+02  0.14200000000E+01 0.  1.
         -4   -1    0    0    0  501 -0.00000000000E+00 -0.00000000000E+00 -0.21729193006E+01  0.25957616006E+01  0.14200000000E+01 0. -1.
        -13    1    1    2    0    0  0.34079537970E+01  0.11528392649E+02  0.19816435303E+02  0.23178012572E+02  0.10570000000E+00 0. -1.
         13    1    1    2    0    0 -0.34079537970E+01 -0.11528392649E+02  0.50141344219E+02  0.51562423903E+02  0.10570000000E+00 0.  1.
<mgrwt>
<rscale>  0 0.26306690E+02</rscale>
<asrwt>0</asrwt>
<pdfrwt beam="1">  1        4 0.11130631E-01 0.26306690E+02</pdfrwt>
<pdfrwt beam="2">  1       -4 0.36789674E-03 0.26306690E+02</pdfrwt>
<totfact> 0.59695090E+05</totfact>
</mgrwt>
</event>
<event>
 4    1  0.5624886E-001  0.2575644E+02  0.7818608E-02  0.1650369E+00
         -4   -1    0    0    0  501 -0.00000000000E+00  0.00000000000E+00  0.57353523842E+02  0.57371099843E+02  0.14200000000E+01 0.  1.
          4   -1    0    0  501    0  0.00000000000E+00 -0.00000000000E+00 -0.26982202146E+01  0.30490641722E+01  0.14200000000E+01 0. -1.
        -13    1    1    2    0    0 -0.50718392039E+01 -0.11138464739E+02  0.17930165197E+02  0.21709236424E+02  0.10570000000E+00 0. -1.
         13    1    1    2    0    0  0.50718392039E+01  0.11138464739E+02  0.36725138431E+02  0.38710927591E+02  0.10570000000E+00 0.  1.
<mgrwt>
<rscale>  0 0.25756436E+02</rscale>
<asrwt>0</asrwt>
<pdfrwt beam="2">  1        4 0.44345080E-03 0.25756436E+02</pdfrwt>
<pdfrwt beam="1">  1       -4 0.88519591E-02 0.25756436E+02</pdfrwt>
<totfact> 0.65419542E+05</totfact>
</mgrwt>
</event>
<event>
 4    1  0.5624886E-001  0.2268478E+02  0.7818608E-02  0.1696671E+00
          4   -1    0    0  501    0  0.00000000000E+00  0.00000000000E+00  0.49749856260E+01  0.51736720015E+01  0.14200000000E+01 0. -1.
         -4   -1    0    0    0  501 -0.00000000000E+00 -0.00000000000E+00 -0.25133946675E+02  0.25174027795E+02  0.14200000000E+01 0.  1.
        -13    1    1    2    0    0  0.81932536794E+01  0.75860308390E+01 -0.12742123227E+02  0.16942554310E+02  0.10570000000E+00 0. -1.
         13    1    1    2    0    0 -0.81932536794E+01 -0.75860308390E+01 -0.74168378220E+01  0.13405145486E+02  0.10570000000E+00 0.  1.
<mgrwt>
<rscale>  0 0.22684778E+02</rscale>
<asrwt>0</asrwt>
<pdfrwt beam="1">  1        4 0.78374915E-03 0.22684778E+02</pdfrwt>
<pdfrwt beam="2">  1       -4 0.38851277E-02 0.22684778E+02</pdfrwt>
<totfact> 0.95762814E+05</totfact>
</mgrwt>
</event>
<event>
 4    1  0.5624886E-001  0.3937572E+02  0.7818608E-02  0.1512856E+00
          4   -1    0    0  501    0  0.00000000000E+00  0.00000000000E+00  0.17096009791E+02  0.17154881252E+02  0.14200000000E+01 0.  1.
         -4   -1    0    0    0  501 -0.00000000000E+00 -0.00000000000E+00 -0.22552436381E+02  0.22597096865E+02  0.14200000000E+01 0. -1.
        -13    1    1    2    0    0 -0.13224823213E+02  0.14567947505E+02 -0.34273458827E+01  0.19971953230E+02  0.10570000000E+00 0. -1.
         13    1    1    2    0    0  0.13224823213E+02 -0.14567947505E+02 -0.20290807078E+01  0.19780024887E+02  0.10570000000E+00 0.  1.
<mgrwt>
<rscale>  0 0.39375718E+02</rscale>
<asrwt>0</asrwt>
<pdfrwt beam="1">  1        4 0.26381194E-02 0.39375718E+02</pdfrwt>
<pdfrwt beam="2">  1       -4 0.34775696E-02 0.39375718E+02</pdfrwt>
<totfact> 0.26679764E+05</totfact>
</mgrwt>
</event>
<event>
 4    1  0.5624886E-001  0.2400371E+02  0.7818608E-02  0.1675739E+00
         -4   -1    0    0    0  501 -0.00000000000E+00  0.00000000000E+00  0.68211465055E+01  0.69673839889E+01  0.14200000000E+01 0.  1.
          4   -1    0    0  501    0  0.00000000000E+00 -0.00000000000E+00 -0.20722586032E+02  0.20771181282E+02  0.14200000000E+01 0. -1.
        -13    1    1    2    0    0 -0.85797679640E+01  0.73326302219E+01 -0.22348953341E+01  0.11505903438E+02  0.10570000000E+00 0.  1.
         13    1    1    2    0    0  0.85797679640E+01 -0.73326302219E+01 -0.11666544192E+02  0.16232661832E+02  0.10570000000E+00 0. -1.
<mgrwt>
<rscale>  0 0.24003708E+02</rscale>
<asrwt>0</asrwt>
<pdfrwt beam="2">  1        4 0.32030773E-02 0.24003708E+02</pdfrwt>
<pdfrwt beam="1">  1       -4 0.10643943E-02 0.24003708E+02</pdfrwt>
<totfact> 0.85837946E+05</totfact>
</mgrwt>
</event>
<event>
 4    1  0.5624886E-001  0.4920058E+02  0.7818608E-02  0.1449702E+00
          4   -1    0    0  501    0  0.00000000000E+00  0.00000000000E+00  0.28445908354E+03  0.28446262779E+03  0.14200000000E+01 0.  1.
         -4   -1    0    0    0  501 -0.00000000000E+00 -0.00000000000E+00 -0.18865507319E+01  0.23612440924E+01  0.14200000000E+01 0. -1.
        -13    1    1    2    0    0 -0.82080045968E+01  0.23165670650E+02  0.13505235370E+03  0.13727042306E+03  0.10570000000E+00 0. -1.
         13    1    1    2    0    0  0.82080045968E+01 -0.23165670650E+02  0.14752017911E+03  0.14955344881E+03  0.10570000000E+00 0.  1.
<mgrwt>
<rscale>  0 0.49200581E+02</rscale>
<asrwt>0</asrwt>
<pdfrwt beam="1">  1        4 0.43799729E-01 0.49200581E+02</pdfrwt>
<pdfrwt beam="2">  1       -4 0.32702604E-03 0.49200581E+02</pdfrwt>
<totfact> 0.87395100E+04</totfact>
</mgrwt>
</event>
<event>
 4    1  0.5624886E-001  0.2758044E+02  0.7818608E-02  0.1626485E+00
          4   -1    0    0  501    0  0.00000000000E+00  0.00000000000E+00  0.16601058032E+02  0.16661678420E+02  0.14200000000E+01 0.  1.
         -4   -1    0    0    0  501 -0.00000000000E+00 -0.00000000000E+00 -0.11329401471E+02  0.11418044390E+02  0.14200000000E+01 0. -1.
        -13    1    1    2    0    0  0.10281766184E+02  0.91586411827E+01  0.18715584896E+01  0.13896378227E+02  0.10570000000E+00 0.  1.
         13    1    1    2    0    0 -0.10281766184E+02 -0.91586411827E+01  0.34000980718E+01  0.14183344583E+02  0.10570000000E+00 0. -1.
<mgrwt>
<rscale>  0 0.27580436E+02</rscale>
<asrwt>0</asrwt>
<pdfrwt beam="1">  1        4 0.25654907E-02 0.27580436E+02</pdfrwt>
<pdfrwt beam="2">  1       -4 0.17544666E-02 0.27580436E+02</pdfrwt>
<totfact> 0.63287496E+05</totfact>
</mgrwt>
</event>
<event>
 4    1  0.5624886E-001  0.3558476E+02  0.7818608E-02  0.1543468E+00
          4   -1    0    0  501    0  0.00000000000E+00  0.00000000000E+00  0.59128873110E+02  0.59145921544E+02  0.14200000000E+01 0. -1.
         -4   -1    0    0    0  501 -0.00000000000E+00 -0.00000000000E+00 -0.52415740708E+01  0.54305155133E+01  0.14200000000E+01 0.  1.
        -13    1    1    2    0    0 -0.12092486026E+02  0.11897020703E+01  0.50529029599E+02  0.51969583547E+02  0.10570000000E+00 0. -1.
         13    1    1    2    0    0  0.12092486026E+02 -0.11897020703E+01  0.33582694403E+01  0.12606853510E+02  0.10570000000E+00 0.  1.
<mgrwt>
<rscale>  0 0.35584761E+02</rscale>
<asrwt>0</asrwt>
<pdfrwt beam="1">  1        4 0.91125952E-02 0.35584761E+02</pdfrwt>
<pdfrwt beam="2">  1       -4 0.82224137E-03 0.35584761E+02</pdfrwt>
<totfact> 0.31250277E+05</totfact>
</mgrwt>
</event>
<event>
 4    1  0.5624886E-001  0.2641420E+02  0.7818608E-02  0.1641482E+00
          4   -1    0    0  501    0  0.00000000000E+00  0.00000000000E+00  0.33485049294E+02  0.33515144729E+02  0.14200000000E+01 0.  1.
         -4   -1    0    0    0  501 -0.00000000000E+00 -0.00000000000E+00 -0.50792573045E+01  0.52740169478E+01  0.14200000000E+01 0. -1.
        -13    1    1    2    0    0  0.10044108573E+01  0.12214532839E+02  0.21428836524E+02  0.24686228163E+02  0.10570000000E+00 0.  1.
         13    1    1    2    0    0 -0.10044108573E+01 -0.12214532839E+02  0.69769554654E+01  0.14102933514E+02  0.10570000000E+00 0. -1.
<mgrwt>
<rscale>  0 0.26414202E+02</rscale>
<asrwt>0</asrwt>
<pdfrwt beam="1">  1        4 0.51688424E-02 0.26414202E+02</pdfrwt>
<pdfrwt beam="2">  1       -4 0.79872077E-03 0.26414202E+02</pdfrwt>
<totfact> 0.66798285E+05</totfact>
</mgrwt>
</event>
<event>
 4    1  0.5624886E-001  0.2123586E+02  0.7818608E-02  0.1721813E+00
         -4   -1    0    0    0  501 -0.00000000000E+00  0.00000000000E+00  0.97673606359E+02  0.97683927947E+02  0.14200000000E+01 0. -1.
          4   -1    0    0  501    0  0.00000000000E+00 -0.00000000000E+00 -0.70314701040E+00  0.15845553693E+01  0.14200000000E+01 0.  1.
        -13    1    1    2    0    0 -0.94415366055E+01 -0.40051925281E+01  0.61325491385E+02  0.62177256668E+02  0.10570000000E+00 0. -1.
         13    1    1    2    0    0  0.94415366055E+01  0.40051925281E+01  0.35644967963E+02  0.37091226648E+02  0.10570000000E+00 0.  1.
<mgrwt>
<rscale>  0 0.21235861E+02</rscale>
<asrwt>0</asrwt>
<pdfrwt beam="2">  1        4 0.17677112E-03 0.21235861E+02</pdfrwt>
<pdfrwt beam="1">  1       -4 0.15095299E-01 0.21235861E+02</pdfrwt>
<totfact> 0.87023770E+05</totfact>
</mgrwt>
</event>
<event>
 4    1  0.5624886E-001  0.3720048E+02  0.7818608E-02  0.1529885E+00
          4   -1    0    0  501    0  0.00000000000E+00  0.00000000000E+00  0.47017369990E+02  0.47038808242E+02  0.14200000000E+01 0.  1.
         -4   -1    0    0    0  501 -0.00000000000E+00 -0.00000000000E+00 -0.72664667743E+01  0.74039137881E+01  0.14200000000E+01 0. -1.
        -13    1    1    2    0    0  0.11038874824E+02 -0.53253219044E+01 -0.59998788268E+00  0.12271388215E+02  0.10570000000E+00 0. -1.
         13    1    1    2    0    0 -0.11038874824E+02  0.53253219044E+01  0.40350891099E+02  0.42171333815E+02  0.10570000000E+00 0.  1.
<mgrwt>
<rscale>  0 0.37200480E+02</rscale>
<asrwt>0</asrwt>
<pdfrwt beam="1">  1        4 0.72456636E-02 0.37200480E+02</pdfrwt>
<pdfrwt beam="2">  1       -4 0.11301399E-02 0.37200480E+02</pdfrwt>
<totfact> 0.29075321E+05</totfact>
</mgrwt>
</event>
<event>
 4    1  0.5624886E-001  0.2225528E+02  0.7818608E-02  0.1703874E+00
          4   -1    0    0  501    0  0.00000000000E+00  0.00000000000E+00  0.12292977465E+03  0.12293797581E+03  0.14200000000E+01 0. -1.
         -4   -1    0    0    0  501 -0.00000000000E+00 -0.00000000000E+00 -0.49443362444E+00  0.15036171750E+01  0.14200000000E+01 0.  1.
        -13    1    1    2    0    0  0.31332339026E+01  0.10644002029E+02  0.65899997717E+02  0.66827635043E+02  0.10570000000E+00 0. -1.
         13    1    1    2    0    0 -0.31332339026E+01 -0.10644002029E+02  0.56535343313E+02  0.57613957943E+02  0.10570000000E+00 0.  1.
<mgrwt>
<rscale>  0 0.22255276E+02</rscale>
<asrwt>0</asrwt>
<pdfrwt beam="1">  1        4 0.18990540E-01 0.22255276E+02</pdfrwt>
<pdfrwt beam="2">  1       -4 0.15432702E-03 0.22255276E+02</pdfrwt>
<totfact> 0.73743634E+05</totfact>
</mgrwt>
</event>
<event>
 4    1  0.5624886E-001  0.2305651E+02  0.7818608E-02  0.1690596E+00
          4   -1    0    0  501    0  0.00000000000E+00  0.00000000000E+00  0.38811360712E+02  0.38837328955E+02  0.14200000000E+01 0. -1.
         -4   -1    0    0    0  501 -0.00000000000E+00 -0.00000000000E+00 -0.32487175108E+01  0.35454993252E+01  0.14200000000E+01 0.  1.
        -13    1    1    2    0    0  0.44768391740E+01 -0.10621373723E+02  0.18119244092E+02  0.21474958620E+02  0.10570000000E+00 0. -1.
         13    1    1    2    0    0 -0.44768391740E+01  0.10621373723E+02  0.17443399109E+02  0.20907869660E+02  0.10570000000E+00 0.  1.
<mgrwt>
<rscale>  0 0.23056508E+02</rscale>
<asrwt>0</asrwt>
<pdfrwt beam="1">  1        4 0.59958053E-02 0.23056508E+02</pdfrwt>
<pdfrwt beam="2">  1       -4 0.52462964E-03 0.23056508E+02</pdfrwt>
<totfact> 0.88296812E+05</totfact>
</mgrwt>
</event>
<event>
 4    1  0.5624886E-001  0.3694579E+02  0.7818608E-02  0.1531970E+00
         -4   -1    0    0    0  501 -0.00000000000E+00  0.00000000000E+00  0.55986715002E+02  0.56004719950E+02  0.14200000000E+01 0.  1.
          4   -1    0    0  501    0  0.00000000000E+00 -0.00000000000E+00 -0.59931973358E+01  0.61591244756E+01  0.14200000000E+01 0. -1.
        -13    1    1    2    0    0 -0.15737691693E+02  0.96506430218E+01  0.23897391888E+02  0.30197787370E+02  0.10570000000E+00 0. -1.
         13    1    1    2    0    0  0.15737691693E+02 -0.96506430218E+01  0.26096125778E+02  0.31966057055E+02  0.10570000000E+00 0.  1.
<mgrwt>
<rscale>  0 0.36945795E+02</rscale>
<asrwt>0</asrwt>
<pdfrwt beam="2">  1        4 0.93617897E-03 0.36945795E+02</pdfrwt>
<pdfrwt beam="1">  1       -4 0.86274895E-02 0.36945795E+02</pdfrwt>
<totfact> 0.28838309E+05</totfact>
</mgrwt>
</event>
<event>
 4    1  0.5624886E-001  0.3797135E+02  0.7818608E-02  0.1523694E+00
          4   -1    0    0  501    0  0.00000000000E+00  0.00000000000E+00  0.26590171088E+02  0.26628060360E+02  0.14200000000E+01 0. -1.
         -4   -1    0    0    0  501 -0.00000000000E+00 -0.00000000000E+00 -0.13471098318E+02  0.13545733273E+02  0.14200000000E+01 0.  1.
        -13    1    1    2    0    0 -0.18293509587E+02  0.24267668863E+00  0.11926577567E+02  0.21839546926E+02  0.10570000000E+00 0. -1.
         13    1    1    2    0    0  0.18293509587E+02 -0.24267668863E+00  0.11924952039E+01  0.18334246706E+02  0.10570000000E+00 0.  1.
<mgrwt>
<rscale>  0 0.37971353E+02</rscale>
<asrwt>0</asrwt>
<pdfrwt beam="1">  1        4 0.40994512E-02 0.37971353E+02</pdfrwt>
<pdfrwt beam="2">  1       -4 0.20811324E-02 0.37971353E+02</pdfrwt>
<totfact> 0.29045217E+05</totfact>
</mgrwt>
</event>
<event>
 4    1  0.5624886E-001  0.3368053E+02  0.7818608E-02  0.1560640E+00
          4   -1    0    0  501    0  0.00000000000E+00  0.00000000000E+00  0.30533768950E+02  0.30566770295E+02  0.14200000000E+01 0.  1.
         -4   -1    0    0    0  501 -0.00000000000E+00 -0.00000000000E+00 -0.91953501937E+01  0.93043465748E+01  0.14200000000E+01 0. -1.
        -13    1    1    2    0    0  0.93679069128E+01 -0.67542075700E+01  0.25177745375E+02  0.27700307480E+02  0.10570000000E+00 0.  1.
         13    1    1    2    0    0 -0.93679069128E+01  0.67542075700E+01 -0.38393266191E+01  0.12170809390E+02  0.10570000000E+00 0. -1.
<mgrwt>
<rscale>  0 0.33680526E+02</rscale>
<asrwt>0</asrwt>
<pdfrwt beam="1">  1        4 0.47084259E-02 0.33680526E+02</pdfrwt>
<pdfrwt beam="2">  1       -4 0.14255921E-02 0.33680526E+02</pdfrwt>
<totfact> 0.38498787E+05</totfact>
</mgrwt>
</event>
<event>
 4    1  0.5624886E-001  0.3011381E+02  0.7818608E-02  0.1596834E+00
          4   -1    0    0  501    0  0.00000000000E+00  0.00000000000E+00  0.62389638906E+02  0.62405796548E+02  0.14200000000E+01 0.  1.
         -4   -1    0    0    0  501 -0.00000000000E+00 -0.00000000000E+00 -0.34777717483E+01  0.37565005435E+01  0.14200000000E+01 0. -1.
        -13    1    1    2    0    0 -0.48936402422E+01  0.13445390171E+02  0.19157072688E+02  0.23910893713E+02  0.10570000000E+00 0. -1.
         13    1    1    2    0    0  0.48936402422E+01 -0.13445390171E+02  0.39754794470E+02  0.42251403379E+02  0.10570000000E+00 0.  1.
<mgrwt>
<rscale>  0 0.30113809E+02</rscale>
<asrwt>0</asrwt>
<pdfrwt beam="1">  1        4 0.96210896E-02 0.30113809E+02</pdfrwt>
<pdfrwt beam="2">  1       -4 0.55772538E-03 0.30113809E+02</pdfrwt>
<totfact> 0.45520076E+05</totfact>
</mgrwt>
</event>
<event>
 4    1  0.5624886E-001  0.3629635E+03  0.7818608E-02  0.1057417E+00
         -4   -1    0    0    0  501 -0.00000000000E+00  0.00000000000E+00  0.11062200688E+03  0.11063112043E+03  0.14200000000E+01 0.  1.
          4   -1    0    0  501    0  0.00000000000E+00 -0.00000000000E+00 -0.29770823336E+03  0.29771161988E+03  0.14200000000E+01 0. -1.
        -13    1    1    2    0    0 -0.29904592407E+02  0.57999636777E+02  0.96972936310E+02  0.11688457581E+03  0.10570000000E+00 0.  1.
         13    1    1    2    0    0  0.29904592407E+02 -0.57999636777E+02 -0.28405916279E+03  0.29145816450E+03  0.10570000000E+00 0. -1.
<mgrwt>
<rscale>  0 0.36296355E+03</rscale>
<asrwt>0</asrwt>
<pdfrwt beam="2">  1        4 0.45802228E-01 0.36296355E+03</pdfrwt>
<pdfrwt beam="1">  1       -4 0.17019732E-01 0.36296355E+03</pdfrwt>
<totfact> 0.26963135E+02</totfact>
</mgrwt>
</event>
<event>
 4    1  0.5624886E-001  0.2034681E+02  0.7818608E-02  0.1738518E+00
         -4   -1    0    0    0  501 -0.00000000000E+00  0.00000000000E+00  0.20770461841E+02  0.20818945340E+02  0.14200000000E+01 0. -1.
          4   -1    0    0  501    0  0.00000000000E+00 -0.00000000000E+00 -0.48262565835E+01  0.50308202721E+01  0.14200000000E+01 0.  1.
        -13    1    1    2    0    0 -0.62102157945E+01  0.80503148608E+01  0.75456881182E+01  0.12661869184E+02  0.10570000000E+00 0.  1.
         13    1    1    2    0    0  0.62102157945E+01 -0.80503148608E+01  0.83985171392E+01  0.13187896428E+02  0.10570000000E+00 0. -1.
<mgrwt>
<rscale>  0 0.20346811E+02</rscale>
<asrwt>0</asrwt>
<pdfrwt beam="2">  1        4 0.76196619E-03 0.20346811E+02</pdfrwt>
<pdfrwt beam="1">  1       -4 0.32149208E-02 0.20346811E+02</pdfrwt>
<totfact> 0.12240715E+06</totfact>
</mgrwt>
</event>
<event>
 4    1  0.5624886E-001  0.2723498E+02  0.7818608E-02  0.1630831E+00
          4   -1    0    0  501    0  0.00000000000E+00  0.00000000000E+00  0.98876284863E+01  0.99890738851E+01  0.14200000000E+01 0.  1.
         -4   -1    0    0    0  501 -0.00000000000E+00 -0.00000000000E+00 -0.18529884186E+02  0.18584213945E+02  0.14200000000E+01 0. -1.
        -13    1    1    2    0    0 -0.41261024556E+01  0.11013699988E+02  0.28789465717E+01  0.12108914681E+02  0.10570000000E+00 0.  1.
         13    1    1    2    0    0  0.41261024556E+01 -0.11013699988E+02 -0.11521202271E+02  0.16464373149E+02  0.10570000000E+00 0. -1.
<mgrwt>
<rscale>  0 0.27234981E+02</rscale>
<asrwt>0</asrwt>
<pdfrwt beam="1">  1        4 0.15331563E-02 0.27234981E+02</pdfrwt>
<pdfrwt beam="2">  1       -4 0.28627341E-02 0.27234981E+02</pdfrwt>
<totfact> 0.64952175E+05</totfact>
</mgrwt>
</event>
<event>
 4    1  0.5624886E-001  0.2084894E+02  0.7818608E-02  0.1728954E+00
          4   -1    0    0  501    0  0.00000000000E+00  0.00000000000E+00  0.27949143947E+02  0.27985193359E+02  0.14200000000E+01 0.  1.
         -4   -1    0    0    0  501 -0.00000000000E+00 -0.00000000000E+00 -0.37185263206E+01  0.39804318857E+01  0.14200000000E+01 0. -1.
        -13    1    1    2    0    0 -0.81427357416E+01 -0.59887223140E+01  0.82095618633E+01  0.13022174119E+02  0.10570000000E+00 0. -1.
         13    1    1    2    0    0  0.81427357416E+01  0.59887223140E+01  0.16021055763E+02  0.18943451126E+02  0.10570000000E+00 0.  1.
<mgrwt>
<rscale>  0 0.20848942E+02</rscale>
<asrwt>0</asrwt>
<pdfrwt beam="1">  1        4 0.43227880E-02 0.20848942E+02</pdfrwt>
<pdfrwt beam="2">  1       -4 0.59500057E-03 0.20848942E+02</pdfrwt>
<totfact> 0.11345361E+06</totfact>
</mgrwt>
</event>
<event>
 4    1  0.5624886E-001  0.2413883E+02  0.7818608E-02  0.1673688E+00
          4   -1    0    0  501    0  0.00000000000E+00  0.00000000000E+00  0.21973170618E+01  0.26162190791E+01  0.14200000000E+01 0.  1.
         -4   -1    0    0    0  501 -0.00000000000E+00 -0.00000000000E+00 -0.60097473615E+02  0.60114247354E+02  0.14200000000E+01 0. -1.
        -13    1    1    2    0    0 -0.36285142519E+01 -0.99271671937E+01 -0.13809257764E+02  0.17390271322E+02  0.10570000000E+00 0.  1.
         13    1    1    2    0    0  0.36285142519E+01  0.99271671937E+01 -0.44090898789E+02  0.45340195111E+02  0.10570000000E+00 0. -1.
<mgrwt>
<rscale>  0 0.24138834E+02</rscale>
<asrwt>0</asrwt>
<pdfrwt beam="1">  1        4 0.37156234E-03 0.24138834E+02</pdfrwt>
<pdfrwt beam="2">  1       -4 0.92792775E-02 0.24138834E+02</pdfrwt>
<totfact> 0.74618626E+05</totfact>
</mgrwt>
</event>
<event>
 4    1  0.5624886E-001  0.2727011E+02  0.7818608E-02  0.1630385E+00
          4   -1    0    0  501    0  0.00000000000E+00  0.00000000000E+00  0.55592964379E+01  0.57377850156E+01  0.14200000000E+01 0.  1.
         -4   -1    0    0    0  501 -0.00000000000E+00 -0.00000000000E+00 -0.32719639949E+02  0.32750438751E+02  0.14200000000E+01 0. -1.
        -13    1    1    2    0    0  0.11760826054E+02 -0.39212940039E+01 -0.55700987694E+01  0.13591569039E+02  0.10570000000E+00 0.  1.
         13    1    1    2    0    0 -0.11760826054E+02  0.39212940039E+01 -0.21590244741E+02  0.24896654728E+02  0.10570000000E+00 0. -1.
<mgrwt>
<rscale>  0 0.27270114E+02</rscale>
<asrwt>0</asrwt>
<pdfrwt beam="1">  1        4 0.87137542E-03 0.27270114E+02</pdfrwt>
<pdfrwt beam="2">  1       -4 0.50498897E-02 0.27270114E+02</pdfrwt>
<totfact> 0.62347069E+05</totfact>
</mgrwt>
</event>
<event>
 4    1  0.5624886E-001  0.9071645E+02  0.7818608E-02  0.1301126E+00
          4   -1    0    0  501    0  0.00000000000E+00  0.00000000000E+00  0.57366289561E+02  0.57383861651E+02  0.14200000000E+01 0. -1.
         -4   -1    0    0    0  501 -0.00000000000E+00 -0.00000000000E+00 -0.35826587034E+02  0.35854717103E+02  0.14200000000E+01 0.  1.
        -13    1    1    2    0    0  0.21032258074E+02  0.36138725673E+02  0.28836789713E+02  0.50793060416E+02  0.10570000000E+00 0. -1.
         13    1    1    2    0    0 -0.21032258074E+02 -0.36138725673E+02 -0.72970871868E+01  0.42445518337E+02  0.10570000000E+00 0.  1.
<mgrwt>
<rscale>  0 0.90716447E+02</rscale>
<asrwt>0</asrwt>
<pdfrwt beam="1">  1        4 0.88290985E-02 0.90716447E+02</pdfrwt>
<pdfrwt beam="2">  1       -4 0.55152982E-02 0.90716447E+02</pdfrwt>
<totfact> 0.27255612E+04</totfact>
</mgrwt>
</event>
<event>
 4    1  0.5624886E-001  0.2329813E+02  0.7818608E-02  0.1686723E+00
         -4   -1    0    0    0  501 -0.00000000000E+00  0.00000000000E+00  0.46078682166E+02  0.46100556939E+02  0.14200000000E+01 0. -1.
          4   -1    0    0  501    0  0.00000000000E+00 -0.00000000000E+00 -0.27498672755E+01  0.30948618762E+01  0.14200000000E+01 0.  1.
        -13    1    1    2    0    0  0.13174808441E+01 -0.10440939238E+02  0.32209663571E+02  0.33885432974E+02  0.10570000000E+00 0. -1.
         13    1    1    2    0    0 -0.13174808441E+01  0.10440939238E+02  0.11119151319E+02  0.15309985842E+02  0.10570000000E+00 0.  1.
<mgrwt>
<rscale>  0 0.23298134E+02</rscale>
<asrwt>0</asrwt>
<pdfrwt beam="2">  1        4 0.45127722E-03 0.23298134E+02</pdfrwt>
<pdfrwt beam="1">  1       -4 0.71172488E-02 0.23298134E+02</pdfrwt>
<totfact> 0.84253878E+05</totfact>
</mgrwt>
</event>
<event>
 4    1  0.5624886E-001  0.2028055E+02  0.7818608E-02  0.1739806E+00
         -4   -1    0    0    0  501 -0.00000000000E+00  0.00000000000E+00  0.30237027637E+01  0.33405356461E+01  0.14200000000E+01 0. -1.
          4   -1    0    0  501    0  0.00000000000E+00 -0.00000000000E+00 -0.31980068589E+02  0.32011578952E+02  0.14200000000E+01 0. -1.
        -13    1    1    2    0    0  0.77009116507E+01 -0.64771509050E+01 -0.12303411741E+02  0.15894736143E+02  0.10570000000E+00 0.  1.
         13    1    1    2    0    0 -0.77009116507E+01  0.64771509050E+01 -0.16652954085E+02  0.19457378455E+02  0.10570000000E+00 0. -1.
<mgrwt>
<rscale>  0 0.20280554E+02</rscale>
<asrwt>0</asrwt>
<pdfrwt beam="2">  1        4 0.49468060E-02 0.20280554E+02</pdfrwt>
<pdfrwt beam="1">  1       -4 0.49198070E-03 0.20280554E+02</pdfrwt>
<totfact> 0.11844442E+06</totfact>
</mgrwt>
</event>
<event>
 4    1  0.5624886E-001  0.3741128E+02  0.7818608E-02  0.1528174E+00
         -4   -1    0    0    0  501 -0.00000000000E+00  0.00000000000E+00  0.82421223929E+02  0.82433455308E+02  0.14200000000E+01 0.  1.
          4   -1    0    0  501    0  0.00000000000E+00 -0.00000000000E+00 -0.41136266168E+01  0.43518184639E+01  0.14200000000E+01 0. -1.
        -13    1    1    2    0    0  0.15093248110E+01  0.16853594909E+02  0.20658427760E+02  0.26703998442E+02  0.10570000000E+00 0.  1.
         13    1    1    2    0    0 -0.15093248110E+01 -0.16853594909E+02  0.57649169552E+02  0.60081275330E+02  0.10570000000E+00 0. -1.
<mgrwt>
<rscale>  0 0.37411281E+02</rscale>
<asrwt>0</asrwt>
<pdfrwt beam="2">  1        4 0.65212898E-03 0.37411281E+02</pdfrwt>
<pdfrwt beam="1">  1       -4 0.12699451E-01 0.37411281E+02</pdfrwt>
<totfact> 0.26043953E+05</totfact>
</mgrwt>
</event>
<event>
 4    1  0.5624886E-001  0.4467387E+02  0.7818608E-02  0.1476388E+00
          4   -1    0    0  501    0  0.00000000000E+00  0.00000000000E+00  0.12050712618E+03  0.12051549220E+03  0.14200000000E+01 0.  1.
         -4   -1    0    0    0  501 -0.00000000000E+00 -0.00000000000E+00 -0.40098066438E+01  0.42538158541E+01  0.14200000000E+01 0. -1.
        -13    1    1    2    0    0 -0.16206578603E+02  0.70247312178E+01  0.96433480526E+02  0.98037887460E+02  0.10570000000E+00 0.  1.
         13    1    1    2    0    0  0.16206578603E+02 -0.70247312178E+01  0.20063839013E+02  0.26731420597E+02  0.10570000000E+00 0. -1.
<mgrwt>
<rscale>  0 0.44673871E+02</rscale>
<asrwt>0</asrwt>
<pdfrwt beam="1">  1        4 0.18558967E-01 0.44673871E+02</pdfrwt>
<pdfrwt beam="2">  1       -4 0.63630695E-03 0.44673871E+02</pdfrwt>
<totfact> 0.15476714E+05</totfact>
</mgrwt>
</event>
<event>
 4    1  0.5624886E-001  0.2301425E+02  0.7818608E-02  0.1691279E+00
          4   -1    0    0  501    0  0.00000000000E+00  0.00000000000E+00  0.28474590347E+02  0.28509975367E+02  0.14200000000E+01 0.  1.
         -4   -1    0    0    0  501 -0.00000000000E+00 -0.00000000000E+00 -0.45026031460E+01  0.47212111889E+01  0.14200000000E+01 0. -1.
        -13    1    1    2    0    0 -0.11314210402E+02 -0.55818887513E+00  0.14902534933E+02  0.18719499239E+02  0.10570000000E+00 0.  1.
         13    1    1    2    0    0  0.11314210402E+02  0.55818887513E+00  0.90694522681E+01  0.14511687317E+02  0.10570000000E+00 0. -1.
<mgrwt>
<rscale>  0 0.23014248E+02</rscale>
<asrwt>0</asrwt>
<pdfrwt beam="1">  1        4 0.44002443E-02 0.23014248E+02</pdfrwt>
<pdfrwt beam="2">  1       -4 0.71224608E-03 0.23014248E+02</pdfrwt>
<totfact> 0.91818293E+05</totfact>
</mgrwt>
</event>
<event>
 4    1  0.5624886E-001  0.5869357E+02  0.7818608E-02  0.1403397E+00
          4   -1    0    0  501    0  0.00000000000E+00  0.00000000000E+00  0.76111815414E+01  0.77425115083E+01  0.14200000000E+01 0. -1.
         -4   -1    0    0    0  501 -0.00000000000E+00 -0.00000000000E+00 -0.11205001619E+03  0.11205901360E+03  0.14200000000E+01 0.  1.
        -13    1    1    2    0    0 -0.11970684193E+02  0.24105926504E+02 -0.28343396694E+02  0.39086471845E+02  0.10570000000E+00 0. -1.
         13    1    1    2    0    0  0.11970684193E+02 -0.24105926504E+02 -0.76095437957E+02  0.80715053262E+02  0.10570000000E+00 0.  1.
<mgrwt>
<rscale>  0 0.58693571E+02</rscale>
<asrwt>0</asrwt>
<pdfrwt beam="1">  1        4 0.11817455E-02 0.58693571E+02</pdfrwt>
<pdfrwt beam="2">  1       -4 0.17249257E-01 0.58693571E+02</pdfrwt>
<totfact> 0.79915267E+04</totfact>
</mgrwt>
</event>
<event>
 4    1  0.5624886E-001  0.3053332E+02  0.7818608E-02  0.1592267E+00
         -4   -1    0    0    0  501 -0.00000000000E+00  0.00000000000E+00  0.94051485497E+01  0.95117411256E+01  0.14200000000E+01 0.  1.
          4   -1    0    0  501    0  0.00000000000E+00 -0.00000000000E+00 -0.24514314654E+02  0.24555407204E+02  0.14200000000E+01 0. -1.
        -13    1    1    2    0    0 -0.11960256533E+02 -0.66457042602E+01 -0.15109252124E+02  0.20384155457E+02  0.10570000000E+00 0. -1.
         13    1    1    2    0    0  0.11960256533E+02  0.66457042602E+01  0.86019481076E-04  0.13682992873E+02  0.10570000000E+00 0.  1.
<mgrwt>
<rscale>  0 0.30533321E+02</rscale>
<asrwt>0</asrwt>
<pdfrwt beam="2">  1        4 0.37827934E-02 0.30533321E+02</pdfrwt>
<pdfrwt beam="1">  1       -4 0.14583063E-02 0.30533321E+02</pdfrwt>
<totfact> 0.49226633E+05</totfact>
</mgrwt>
</event>
<event>
 4    1  0.5624886E-001  0.2406076E+02  0.7818608E-02  0.1674871E+00
          4   -1    0    0  501    0  0.00000000000E+00  0.00000000000E+00  0.45632557741E+02  0.45654646270E+02  0.14200000000E+01 0. -1.
         -4   -1    0    0    0  501 -0.00000000000E+00 -0.00000000000E+00 -0.29886484761E+01  0.33088396326E+01  0.14200000000E+01 0.  1.
        -13    1    1    2    0    0  0.10502194084E+02 -0.54107398847E+01  0.16705330494E+02  0.20460973244E+02  0.10570000000E+00 0. -1.
         13    1    1    2    0    0 -0.10502194084E+02  0.54107398847E+01  0.25938578771E+02  0.28502512658E+02  0.10570000000E+00 0.  1.
<mgrwt>
<rscale>  0 0.24060755E+02</rscale>
<asrwt>0</asrwt>
<pdfrwt beam="1">  1        4 0.70467229E-02 0.24060755E+02</pdfrwt>
<pdfrwt beam="2">  1       -4 0.48612127E-03 0.24060755E+02</pdfrwt>
<totfact> 0.78762172E+05</totfact>
</mgrwt>
</event>
<event>
 4    1  0.5624886E-001  0.1298268E+03  0.7818608E-02  0.1227713E+00
          4   -1    0    0  501    0  0.00000000000E+00  0.00000000000E+00  0.53638837134E+02  0.53657629924E+02  0.14200000000E+01 0. -1.
         -4   -1    0    0    0  501 -0.00000000000E+00 -0.00000000000E+00 -0.78518862986E+02  0.78531702163E+02  0.14200000000E+01 0.  1.
        -13    1    1    2    0    0  0.46828686815E+02 -0.23858608292E+00 -0.58210867528E+02  0.74709431152E+02  0.10570000000E+00 0.  1.
         13    1    1    2    0    0 -0.46828686815E+02  0.23858608292E+00  0.33330841676E+02  0.57479900935E+02  0.10570000000E+00 0. -1.
<mgrwt>
<rscale>  0 0.12982682E+03</rscale>
<asrwt>0</asrwt>
<pdfrwt beam="1">  1        4 0.82545620E-02 0.12982682E+03</pdfrwt>
<pdfrwt beam="2">  1       -4 0.12082258E-01 0.12982682E+03</pdfrwt>
<totfact> 0.92519339E+03</totfact>
</mgrwt>
</event>
<event>
 4    1  0.5624886E-001  0.4523547E+02  0.7818608E-02  0.1472877E+00
          4   -1    0    0  501    0  0.00000000000E+00  0.00000000000E+00  0.48881226806E+02  0.48901847961E+02  0.14200000000E+01 0.  1.
         -4   -1    0    0    0  501 -0.00000000000E+00 -0.00000000000E+00 -0.10394297418E+02  0.10490844523E+02  0.14200000000E+01 0. -1.
        -13    1    1    2    0    0 -0.11191789631E+02  0.15184219096E+02  0.35628443029E+02  0.40313940391E+02  0.10570000000E+00 0.  1.
         13    1    1    2    0    0  0.11191789631E+02 -0.15184219096E+02  0.28584863589E+01  0.19078752094E+02  0.10570000000E+00 0. -1.
<mgrwt>
<rscale>  0 0.45235475E+02</rscale>
<asrwt>0</asrwt>
<pdfrwt beam="1">  1        4 0.75292016E-02 0.45235475E+02</pdfrwt>
<pdfrwt beam="2">  1       -4 0.16081356E-02 0.45235475E+02</pdfrwt>
<totfact> 0.17924515E+05</totfact>
</mgrwt>
</event>
<event>
 4    1  0.5624886E-001  0.2370006E+02  0.7818608E-02  0.1680407E+00
         -4   -1    0    0    0  501 -0.00000000000E+00  0.00000000000E+00  0.31295437494E+01  0.34366326658E+01  0.14200000000E+01 0. -1.
          4   -1    0    0  501    0  0.00000000000E+00 -0.00000000000E+00 -0.42452184505E+02  0.42475926938E+02  0.14200000000E+01 0.  1.
        -13    1    1    2    0    0 -0.10023282985E+02 -0.49446233443E+01 -0.12035263557E+02  0.16424805727E+02  0.10570000000E+00 0. -1.
         13    1    1    2    0    0  0.10023282985E+02  0.49446233443E+01 -0.27287377199E+02  0.29487753877E+02  0.10570000000E+00 0.  1.
<mgrwt>
<rscale>  0 0.23700064E+02</rscale>
<asrwt>0</asrwt>
<pdfrwt beam="2">  1        4 0.65565535E-02 0.23700064E+02</pdfrwt>
<pdfrwt beam="1">  1       -4 0.50691686E-03 0.23700064E+02</pdfrwt>
<totfact> 0.82226806E+05</totfact>
</mgrwt>
</event>
<event>
 4    1  0.5624886E-001  0.2025159E+02  0.7818608E-02  0.1740371E+00
         -4   -1    0    0    0  501 -0.00000000000E+00  0.00000000000E+00  0.83810006407E+01  0.85004453848E+01  0.14200000000E+01 0. -1.
          4   -1    0    0  501    0  0.00000000000E+00 -0.00000000000E+00 -0.11985619423E+02  0.12069443771E+02  0.14200000000E+01 0.  1.
        -13    1    1    2    0    0 -0.12926136077E+01 -0.99355752493E+01 -0.32861214148E+01  0.10544964292E+02  0.10570000000E+00 0. -1.
         13    1    1    2    0    0  0.12926136077E+01  0.99355752493E+01 -0.31849736744E+00  0.10024924864E+02  0.10570000000E+00 0.  1.
<mgrwt>
<rscale>  0 0.20251594E+02</rscale>
<asrwt>0</asrwt>
<pdfrwt beam="2">  1        4 0.18595775E-02 0.20251594E+02</pdfrwt>
<pdfrwt beam="1">  1       -4 0.13050208E-02 0.20251594E+02</pdfrwt>
<totfact> 0.12652557E+06</totfact>
</mgrwt>
</event>
<event>
 4    1  0.5624886E-001  0.2339712E+02  0.7818608E-02  0.1685153E+00
          4   -1    0    0  501    0  0.00000000000E+00  0.00000000000E+00  0.22561127390E+02  0.22605770704E+02  0.14200000000E+01 0. -1.
         -4   -1    0    0    0  501 -0.00000000000E+00 -0.00000000000E+00 -0.59314969956E+01  0.60991029348E+01  0.14200000000E+01 0.  1.
        -13    1    1    2    0    0 -0.44198668974E+01  0.94650327919E+01  0.18550942212E+01  0.10610118576E+02  0.10570000000E+00 0.  1.
         13    1    1    2    0    0  0.44198668974E+01 -0.94650327919E+01  0.14774536174E+02  0.18094755063E+02  0.10570000000E+00 0. -1.
<mgrwt>
<rscale>  0 0.23397119E+02</rscale>
<asrwt>0</asrwt>
<pdfrwt beam="1">  1        4 0.34872695E-02 0.23397119E+02</pdfrwt>
<pdfrwt beam="2">  1       -4 0.92886487E-03 0.23397119E+02</pdfrwt>
<totfact> 0.90296413E+05</totfact>
</mgrwt>
</event>
<event>
 4    1  0.5624886E-001  0.4307913E+02  0.7818608E-02  0.1486702E+00
          4   -1    0    0  501    0  0.00000000000E+00  0.00000000000E+00  0.36587300128E+01  0.39246280469E+01  0.14200000000E+01 0. -1.
         -4   -1    0    0    0  501 -0.00000000000E+00 -0.00000000000E+00 -0.12209063608E+03  0.12209889360E+03  0.14200000000E+01 0.  1.
        -13    1    1    2    0    0 -0.13889391210E+02 -0.11712994521E+02 -0.25373241866E+02  0.31207723469E+02  0.10570000000E+00 0. -1.
         13    1    1    2    0    0  0.13889391210E+02  0.11712994521E+02 -0.93058664200E+02  0.94815798177E+02  0.10570000000E+00 0.  1.
<mgrwt>
<rscale>  0 0.43079132E+02</rscale>
<asrwt>0</asrwt>
<pdfrwt beam="1">  1        4 0.58397052E-03 0.43079132E+02</pdfrwt>
<pdfrwt beam="2">  1       -4 0.18804261E-01 0.43079132E+02</pdfrwt>
<totfact> 0.16837070E+05</totfact>
</mgrwt>
</event>
<event>
 4    1  0.5624886E-001  0.2363269E+02  0.7818608E-02  0.1681455E+00
          4   -1    0    0  501    0  0.00000000000E+00  0.00000000000E+00  0.63886176083E+01  0.65445270986E+01  0.14200000000E+01 0. -1.
         -4   -1    0    0    0  501 -0.00000000000E+00 -0.00000000000E+00 -0.21412248956E+02  0.21459282499E+02  0.14200000000E+01 0.  1.
        -13    1    1    2    0    0  0.93549508808E+01  0.43938414267E+01 -0.72602933021E+00  0.10361430381E+02  0.10570000000E+00 0. -1.
         13    1    1    2    0    0 -0.93549508808E+01 -0.43938414267E+01 -0.14297602018E+02  0.17642379216E+02  0.10570000000E+00 0.  1.
<mgrwt>
<rscale>  0 0.23632686E+02</rscale>
<asrwt>0</asrwt>
<pdfrwt beam="1">  1        4 0.99847526E-03 0.23632686E+02</pdfrwt>
<pdfrwt beam="2">  1       -4 0.33098031E-02 0.23632686E+02</pdfrwt>
<totfact> 0.88645691E+05</totfact>
</mgrwt>
</event>
<event>
 4    1  0.5624886E-001  0.4159306E+02  0.7818608E-02  0.1496805E+00
         -4   -1    0    0    0  501 -0.00000000000E+00  0.00000000000E+00  0.39739058063E+02  0.39764420475E+02  0.14200000000E+01 0.  1.
          4   -1    0    0  501    0  0.00000000000E+00 -0.00000000000E+00 -0.10808097893E+02  0.10900980693E+02  0.14200000000E+01 0. -1.
        -13    1    1    2    0    0  0.10222848431E+02 -0.15544474052E+02  0.31463098593E+01  0.18869227378E+02  0.10570000000E+00 0. -1.
         13    1    1    2    0    0 -0.10222848431E+02  0.15544474052E+02  0.25784650310E+02  0.31796173790E+02  0.10570000000E+00 0.  1.
<mgrwt>
<rscale>  0 0.41593057E+02</rscale>
<asrwt>0</asrwt>
<pdfrwt beam="2">  1        4 0.16718800E-02 0.41593057E+02</pdfrwt>
<pdfrwt beam="1">  1       -4 0.61227971E-02 0.41593057E+02</pdfrwt>
<totfact> 0.22571310E+05</totfact>
</mgrwt>
</event>
<event>
 4    1  0.5624886E-001  0.2373537E+02  0.7818608E-02  0.1679860E+00
         -4   -1    0    0    0  501 -0.00000000000E+00  0.00000000000E+00  0.66460227739E+01  0.67960296284E+01  0.14200000000E+01 0. -1.
          4   -1    0    0  501    0  0.00000000000E+00 -0.00000000000E+00 -0.20780922381E+02  0.20829381532E+02  0.14200000000E+01 0.  1.
        -13    1    1    2    0    0  0.88268093127E+01 -0.72352500417E+01 -0.32835636467E+01  0.11876631194E+02  0.10570000000E+00 0. -1.
         13    1    1    2    0    0 -0.88268093127E+01  0.72352500417E+01 -0.10851335960E+02  0.15748779966E+02  0.10570000000E+00 0.  1.
<mgrwt>
<rscale>  0 0.23735373E+02</rscale>
<asrwt>0</asrwt>
<pdfrwt beam="2">  1        4 0.32123316E-02 0.23735373E+02</pdfrwt>
<pdfrwt beam="1">  1       -4 0.10377317E-02 0.23735373E+02</pdfrwt>
<totfact> 0.87966658E+05</totfact>
</mgrwt>
</event>
<event>
 4    1  0.5624886E-001  0.2055321E+02  0.7818608E-02  0.1734545E+00
         -4   -1    0    0    0  501 -0.00000000000E+00  0.00000000000E+00  0.44279854929E+01  0.46501027435E+01  0.14200000000E+01 0.  1.
          4   -1    0    0  501    0  0.00000000000E+00 -0.00000000000E+00 -0.23022178515E+02  0.23065929497E+02  0.14200000000E+01 0. -1.
        -13    1    1    2    0    0  0.77512552504E+01  0.67380031501E+01 -0.88402144419E+01  0.13551502067E+02  0.10570000000E+00 0. -1.
         13    1    1    2    0    0 -0.77512552504E+01 -0.67380031501E+01 -0.97539785799E+01  0.14164530173E+02  0.10570000000E+00 0.  1.
<mgrwt>
<rscale>  0 0.20553210E+02</rscale>
<asrwt>0</asrwt>
<pdfrwt beam="2">  1        4 0.35623249E-02 0.20553210E+02</pdfrwt>
<pdfrwt beam="1">  1       -4 0.70167995E-03 0.20553210E+02</pdfrwt>
<totfact> 0.11893436E+06</totfact>
</mgrwt>
</event>
<event>
 4    1  0.5624886E-001  0.3638901E+02  0.7818608E-02  0.1536601E+00
         -4   -1    0    0    0  501 -0.00000000000E+00  0.00000000000E+00  0.23264020850E+01  0.27255360319E+01  0.14200000000E+01 0. -1.
          4   -1    0    0  501    0  0.00000000000E+00 -0.00000000000E+00 -0.13065137970E+03  0.13065909620E+03  0.14200000000E+01 0.  1.
        -13    1    1    2    0    0 -0.13825743720E+02  0.11723626743E+02 -0.69881489068E+02  0.72194378592E+02  0.10570000000E+00 0.  1.
         13    1    1    2    0    0  0.13825743720E+02 -0.11723626743E+02 -0.58443488551E+02  0.61190253635E+02  0.10570000000E+00 0. -1.
<mgrwt>
<rscale>  0 0.36389013E+02</rscale>
<asrwt>0</asrwt>
<pdfrwt beam="2">  1        4 0.20131503E-01 0.36389013E+02</pdfrwt>
<pdfrwt beam="1">  1       -4 0.38920430E-03 0.36389013E+02</pdfrwt>
<totfact> 0.24583776E+05</totfact>
</mgrwt>
</event>
<event>
 4    1  0.5624886E-001  0.4418246E+02  0.7818608E-02  0.1479511E+00
          4   -1    0    0  501    0  0.00000000000E+00  0.00000000000E+00  0.37001664649E+02  0.37028902046E+02  0.14200000000E+01 0. -1.
         -4   -1    0    0    0  501 -0.00000000000E+00 -0.00000000000E+00 -0.13118786411E+02  0.13195414237E+02  0.14200000000E+01 0.  1.
        -13    1    1    2    0    0  0.13873976818E+02 -0.10262712005E+01  0.31448205568E+02  0.34388097814E+02  0.10570000000E+00 0. -1.
         13    1    1    2    0    0 -0.13873976818E+02  0.10262712005E+01 -0.75653273305E+01  0.15836218470E+02  0.10570000000E+00 0.  1.
<mgrwt>
<rscale>  0 0.44182463E+02</rscale>
<asrwt>0</asrwt>
<pdfrwt beam="1">  1        4 0.57005533E-02 0.44182463E+02</pdfrwt>
<pdfrwt beam="2">  1       -4 0.20262645E-02 0.44182463E+02</pdfrwt>
<totfact> 0.19531727E+05</totfact>
</mgrwt>
</event>
<event>
 4    1  0.5624886E-001  0.2013522E+02  0.7818608E-02  0.1742652E+00
          4   -1    0    0  501    0  0.00000000000E+00  0.00000000000E+00  0.42517695399E+02  0.42541401270E+02  0.14200000000E+01 0. -1.
         -4   -1    0    0    0  501 -0.00000000000E+00 -0.00000000000E+00 -0.21457912861E+01  0.25730954594E+01  0.14200000000E+01 0.  1.
        -13    1    1    2    0    0 -0.55626699473E+00 -0.10048026961E+02  0.19579164941E+02  0.22014248819E+02  0.10570000000E+00 0.  1.
         13    1    1    2    0    0  0.55626699473E+00  0.10048026961E+02  0.20792739171E+02  0.23100247910E+02  0.10570000000E+00 0. -1.
<mgrwt>
<rscale>  0 0.20135222E+02</rscale>
<asrwt>0</asrwt>
<pdfrwt beam="1">  1        4 0.65758768E-02 0.20135222E+02</pdfrwt>
<pdfrwt beam="2">  1       -4 0.36481483E-03 0.20135222E+02</pdfrwt>
<totfact> 0.11571967E+06</totfact>
</mgrwt>
</event>
<event>
 4    1  0.5624886E-001  0.4599375E+02  0.7818608E-02  0.1468232E+00
          4   -1    0    0  501    0  0.00000000000E+00  0.00000000000E+00  0.75338765225E+02  0.75352146257E+02  0.14200000000E+01 0. -1.
         -4   -1    0    0    0  501 -0.00000000000E+00 -0.00000000000E+00 -0.69337427577E+01  0.70776541756E+01  0.14200000000E+01 0.  1.
        -13    1    1    2    0    0  0.19002263730E+02  0.12294410247E+02  0.26899120607E+02  0.35154123686E+02  0.10570000000E+00 0. -1.
         13    1    1    2    0    0 -0.19002263730E+02 -0.12294410247E+02  0.41505901860E+02  0.47275676747E+02  0.10570000000E+00 0.  1.
<mgrwt>
<rscale>  0 0.45993748E+02</rscale>
<asrwt>0</asrwt>
<pdfrwt beam="1">  1        4 0.11602679E-01 0.45993748E+02</pdfrwt>
<pdfrwt beam="2">  1       -4 0.10788291E-02 0.45993748E+02</pdfrwt>
<totfact> 0.16102746E+05</totfact>
</mgrwt>
</event>
<event>
 4    1  0.5624886E-001  0.2137525E+02  0.7818608E-02  0.1719286E+00
          4   -1    0    0  501    0  0.00000000000E+00  0.00000000000E+00  0.37813493430E+01  0.40391834390E+01  0.14200000000E+01 0. -1.
         -4   -1    0    0    0  501 -0.00000000000E+00 -0.00000000000E+00 -0.28935838085E+02  0.28970659738E+02  0.14200000000E+01 0.  1.
        -13    1    1    2    0    0  0.45163325115E+01 -0.96585663275E+01 -0.13700478866E+02  0.17360859901E+02  0.10570000000E+00 0.  1.
         13    1    1    2    0    0 -0.45163325115E+01  0.96585663275E+01 -0.11454009876E+02  0.15648983276E+02  0.10570000000E+00 0. -1.
<mgrwt>
<rscale>  0 0.21375253E+02</rscale>
<asrwt>0</asrwt>
<pdfrwt beam="1">  1        4 0.60425805E-03 0.21375253E+02</pdfrwt>
<pdfrwt beam="2">  1       -4 0.44741792E-02 0.21375253E+02</pdfrwt>
<totfact> 0.10728974E+06</totfact>
</mgrwt>
</event>
<event>
 4    1  0.5624886E-001  0.3277498E+02  0.7818608E-02  0.1569296E+00
         -4   -1    0    0    0  501 -0.00000000000E+00  0.00000000000E+00  0.65171582164E+02  0.65187050262E+02  0.14200000000E+01 0. -1.
          4   -1    0    0  501    0  0.00000000000E+00 -0.00000000000E+00 -0.39818767227E+01  0.42274983424E+01  0.14200000000E+01 0.  1.
        -13    1    1    2    0    0  0.11285866899E+02 -0.64185552153E+00  0.54678095536E+01  0.12557503095E+02  0.10570000000E+00 0.  1.
         13    1    1    2    0    0 -0.11285866899E+02  0.64185552153E+00  0.55721895888E+02  0.56857045509E+02  0.10570000000E+00 0. -1.
<mgrwt>
<rscale>  0 0.32774983E+02</rscale>
<asrwt>0</asrwt>
<pdfrwt beam="2">  1        4 0.63268025E-03 0.32774983E+02</pdfrwt>
<pdfrwt beam="1">  1       -4 0.10046481E-01 0.32774983E+02</pdfrwt>
<totfact> 0.37200931E+05</totfact>
</mgrwt>
</event>
<event>
 4    1  0.5624886E-001  0.2285124E+02  0.7818608E-02  0.1693933E+00
         -4   -1    0    0    0  501 -0.00000000000E+00  0.00000000000E+00  0.53648499889E+02  0.53667289295E+02  0.14200000000E+01 0. -1.
          4   -1    0    0  501    0  0.00000000000E+00 -0.00000000000E+00 -0.22052674044E+01  0.26228999838E+01  0.14200000000E+01 0.  1.
        -13    1    1    2    0    0  0.94481683391E+01 -0.44227647980E+01  0.14245317499E+02  0.17656980958E+02  0.10570000000E+00 0.  1.
         13    1    1    2    0    0 -0.94481683391E+01  0.44227647980E+01  0.37197914985E+02  0.38633208321E+02  0.10570000000E+00 0. -1.
<mgrwt>
<rscale>  0 0.22851242E+02</rscale>
<asrwt>0</asrwt>
<pdfrwt beam="2">  1        4 0.37284288E-03 0.22851242E+02</pdfrwt>
<pdfrwt beam="1">  1       -4 0.82871852E-02 0.22851242E+02</pdfrwt>
<totfact> 0.85600213E+05</totfact>
</mgrwt>
</event>
<event>
 4    1  0.5624886E-001  0.2445094E+02  0.7818608E-02  0.1669016E+00
         -4   -1    0    0    0  501 -0.00000000000E+00  0.00000000000E+00  0.18173318700E+02  0.18228711215E+02  0.14200000000E+01 0. -1.
          4   -1    0    0  501    0  0.00000000000E+00 -0.00000000000E+00 -0.80944545147E+01  0.82180650941E+01  0.14200000000E+01 0.  1.
        -13    1    1    2    0    0 -0.55044873869E+01 -0.97845777783E+01  0.10273161896E+02  0.15217962134E+02  0.10570000000E+00 0. -1.
         13    1    1    2    0    0  0.55044873869E+01  0.97845777783E+01 -0.19429771034E+00  0.11228814175E+02  0.10570000000E+00 0.  1.
<mgrwt>
<rscale>  0 0.24450940E+02</rscale>
<asrwt>0</asrwt>
<pdfrwt beam="2">  1        4 0.12590702E-02 0.24450940E+02</pdfrwt>
<pdfrwt beam="1">  1       -4 0.28096647E-02 0.24450940E+02</pdfrwt>
<totfact> 0.82945301E+05</totfact>
</mgrwt>
</event>
<event>
 4    1  0.5624886E-001  0.2553431E+02  0.7818608E-02  0.1653444E+00
          4   -1    0    0  501    0  0.00000000000E+00  0.00000000000E+00  0.96449235399E+01  0.97488948138E+01  0.14200000000E+01 0. -1.
         -4   -1    0    0    0  501 -0.00000000000E+00 -0.00000000000E+00 -0.16675198857E+02  0.16735550690E+02  0.14200000000E+01 0.  1.
        -13    1    1    2    0    0 -0.32682680597E+01 -0.11864912796E+02 -0.70372816920E+01  0.14177173127E+02  0.10570000000E+00 0.  1.
         13    1    1    2    0    0  0.32682680597E+01  0.11864912796E+02  0.70063753453E-02  0.12307272377E+02  0.10570000000E+00 0. -1.
<mgrwt>
<rscale>  0 0.25534312E+02</rscale>
<asrwt>0</asrwt>
<pdfrwt beam="1">  1        4 0.14964746E-02 0.25534312E+02</pdfrwt>
<pdfrwt beam="2">  1       -4 0.25780554E-02 0.25534312E+02</pdfrwt>
<totfact> 0.75475213E+05</totfact>
</mgrwt>
</event>
<event>
 4    1  0.5624886E-001  0.4357434E+02  0.7818608E-02  0.1483443E+00
          4   -1    0    0  501    0  0.00000000000E+00  0.00000000000E+00  0.51471784293E+01  0.53394611884E+01  0.14200000000E+01 0. -1.
         -4   -1    0    0    0  501 -0.00000000000E+00 -0.00000000000E+00 -0.90332614192E+02  0.90343774477E+02  0.14200000000E+01 0.  1.
        -13    1    1    2    0    0  0.27228416703E+01 -0.14737003668E+02 -0.78677827075E+01  0.16926497602E+02  0.10570000000E+00 0. -1.
         13    1    1    2    0    0 -0.27228416703E+01  0.14737003668E+02 -0.77317653055E+02  0.78756738063E+02  0.10570000000E+00 0.  1.
<mgrwt>
<rscale>  0 0.43574340E+02</rscale>
<asrwt>0</asrwt>
<pdfrwt beam="1">  1        4 0.80752314E-03 0.43574340E+02</pdfrwt>
<pdfrwt beam="2">  1       -4 0.13912974E-01 0.43574340E+02</pdfrwt>
<totfact> 0.17704786E+05</totfact>
</mgrwt>
</event>
<event>
 4    1  0.5624886E-001  0.5465039E+02  0.7818608E-02  0.1421759E+00
         -4   -1    0    0    0  501 -0.00000000000E+00  0.00000000000E+00  0.46665492573E+02  0.46687092403E+02  0.14200000000E+01 0.  1.
          4   -1    0    0  501    0  0.00000000000E+00 -0.00000000000E+00 -0.15943531688E+02  0.16006642455E+02  0.14200000000E+01 0. -1.
        -13    1    1    2    0    0  0.17196906098E+02  0.12625256711E+02 -0.42260407369E+01  0.21748592579E+02  0.10570000000E+00 0. -1.
         13    1    1    2    0    0 -0.17196906098E+02 -0.12625256711E+02  0.34948001622E+02  0.40945142279E+02  0.10570000000E+00 0.  1.
<mgrwt>
<rscale>  0 0.54650394E+02</rscale>
<asrwt>0</asrwt>
<pdfrwt beam="2">  1        4 0.24593672E-02 0.54650394E+02</pdfrwt>
<pdfrwt beam="1">  1       -4 0.71858228E-02 0.54650394E+02</pdfrwt>
<totfact> 0.11110449E+05</totfact>
</mgrwt>
</event>
<event>
 4    1  0.5624886E-001  0.3344872E+02  0.7818608E-02  0.1562824E+00
         -4   -1    0    0    0  501 -0.00000000000E+00  0.00000000000E+00  0.42768599498E+02  0.42792166375E+02  0.14200000000E+01 0. -1.
          4   -1    0    0  501    0  0.00000000000E+00 -0.00000000000E+00 -0.64371721212E+01  0.65919333217E+01  0.14200000000E+01 0.  1.
        -13    1    1    2    0    0  0.66224514870E+01  0.89516702611E+01 -0.25715211408E+00  0.11138517130E+02  0.10570000000E+00 0.  1.
         13    1    1    2    0    0 -0.66224514870E+01 -0.89516702611E+01  0.36588579491E+02  0.38245582566E+02  0.10570000000E+00 0. -1.
<mgrwt>
<rscale>  0 0.33448717E+02</rscale>
<asrwt>0</asrwt>
<pdfrwt beam="2">  1        4 0.10040517E-02 0.33448717E+02</pdfrwt>
<pdfrwt beam="1">  1       -4 0.65935023E-02 0.33448717E+02</pdfrwt>
<totfact> 0.37856868E+05</totfact>
</mgrwt>
</event>
<event>
 4    1  0.5624886E-001  0.3948877E+02  0.7818608E-02  0.1512008E+00
         -4   -1    0    0    0  501 -0.00000000000E+00  0.00000000000E+00  0.61480399949E+01  0.63098966536E+01  0.14200000000E+01 0. -1.
          4   -1    0    0  501    0  0.00000000000E+00 -0.00000000000E+00 -0.62415089728E+02  0.62431240783E+02  0.14200000000E+01 0.  1.
        -13    1    1    2    0    0  0.65673257660E+01 -0.18477315586E+02 -0.32136797229E+02  0.37647388589E+02  0.10570000000E+00 0. -1.
         13    1    1    2    0    0 -0.65673257660E+01  0.18477315586E+02 -0.24130252504E+02  0.31093748847E+02  0.10570000000E+00 0.  1.
<mgrwt>
<rscale>  0 0.39488772E+02</rscale>
<asrwt>0</asrwt>
<pdfrwt beam="2">  1        4 0.96160140E-02 0.39488772E+02</pdfrwt>
<pdfrwt beam="1">  1       -4 0.95954525E-03 0.39488772E+02</pdfrwt>
<totfact> 0.24159626E+05</totfact>
</mgrwt>
</event>
<event>
 4    1  0.5624886E-001  0.3172356E+02  0.7818608E-02  0.1579783E+00
          4   -1    0    0  501    0  0.00000000000E+00  0.00000000000E+00  0.67157328181E+02  0.67172339013E+02  0.14200000000E+01 0.  1.
         -4   -1    0    0    0  501 -0.00000000000E+00 -0.00000000000E+00 -0.35958099525E+01  0.38660379220E+01  0.14200000000E+01 0. -1.
        -13    1    1    2    0    0  0.22040588496E+00 -0.15523701901E+02  0.24507007599E+02  0.29011006418E+02  0.10570000000E+00 0.  1.
         13    1    1    2    0    0 -0.22040588496E+00  0.15523701901E+02  0.39054510630E+02  0.42027370516E+02  0.10570000000E+00 0. -1.
<mgrwt>
<rscale>  0 0.31723562E+02</rscale>
<asrwt>0</asrwt>
<pdfrwt beam="1">  1        4 0.10353838E-01 0.31723562E+02</pdfrwt>
<pdfrwt beam="2">  1       -4 0.57514299E-03 0.31723562E+02</pdfrwt>
<totfact> 0.39865839E+05</totfact>
</mgrwt>
</event>
<event>
 4    1  0.5624886E-001  0.2071563E+02  0.7818608E-02  0.1731460E+00
          4   -1    0    0  501    0  0.00000000000E+00  0.00000000000E+00  0.21371551612E+01  0.25658979292E+01  0.14200000000E+01 0. -1.
         -4   -1    0    0    0  501 -0.00000000000E+00 -0.00000000000E+00 -0.45182347821E+02  0.45204656338E+02  0.14200000000E+01 0.  1.
        -13    1    1    2    0    0 -0.83917049598E+01 -0.59955865830E+01 -0.19328403889E+02  0.21908129541E+02  0.10570000000E+00 0. -1.
         13    1    1    2    0    0  0.83917049598E+01  0.59955865830E+01 -0.23716788771E+02  0.25862424726E+02  0.10570000000E+00 0.  1.
<mgrwt>
<rscale>  0 0.20715628E+02</rscale>
<asrwt>0</asrwt>
<pdfrwt beam="1">  1        4 0.36348939E-03 0.20715628E+02</pdfrwt>
<pdfrwt beam="2">  1       -4 0.69858260E-02 0.20715628E+02</pdfrwt>
<totfact> 0.10812998E+06</totfact>
</mgrwt>
</event>
<event>
 4    1  0.5624886E-001  0.2119010E+02  0.7818608E-02  0.1722647E+00
          4   -1    0    0  501    0  0.00000000000E+00  0.00000000000E+00  0.91214723802E+01  0.92313410934E+01  0.14200000000E+01 0. -1.
         -4   -1    0    0    0  501 -0.00000000000E+00 -0.00000000000E+00 -0.12081310753E+02  0.12164475719E+02  0.14200000000E+01 0.  1.
        -13    1    1    2    0    0  0.46475500780E+01  0.93639022032E+01  0.25769579407E+00  0.10457531535E+02  0.10570000000E+00 0. -1.
         13    1    1    2    0    0 -0.46475500780E+01 -0.93639022032E+01 -0.32175341672E+01  0.10938285277E+02  0.10570000000E+00 0.  1.
<mgrwt>
<rscale>  0 0.21190100E+02</rscale>
<asrwt>0</asrwt>
<pdfrwt beam="1">  1        4 0.14181522E-02 0.21190100E+02</pdfrwt>
<pdfrwt beam="2">  1       -4 0.18735119E-02 0.21190100E+02</pdfrwt>
<totfact> 0.11476885E+06</totfact>
</mgrwt>
</event>
<event>
 4    1  0.5624886E-001  0.2161611E+02  0.7818608E-02  0.1714977E+00
         -4   -1    0    0    0  501 -0.00000000000E+00  0.00000000000E+00  0.70925839309E+02  0.70940052732E+02  0.14200000000E+01 0. -1.
          4   -1    0    0  501    0  0.00000000000E+00 -0.00000000000E+00 -0.13238032628E+01  0.19413539292E+01  0.14200000000E+01 0.  1.
        -13    1    1    2    0    0  0.10346953045E+02 -0.27595675502E+01  0.29882394654E+02  0.31743398261E+02  0.10570000000E+00 0.  1.
         13    1    1    2    0    0 -0.10346953045E+02  0.27595675502E+01  0.39719641392E+02  0.41138008401E+02  0.10570000000E+00 0. -1.
<mgrwt>
<rscale>  0 0.21616105E+02</rscale>
<asrwt>0</asrwt>
<pdfrwt beam="2">  1        4 0.25225926E-03 0.21616105E+02</pdfrwt>
<pdfrwt beam="1">  1       -4 0.10960266E-01 0.21616105E+02</pdfrwt>
<totfact> 0.90925231E+05</totfact>
</mgrwt>
</event>
<event>
 4    1  0.5624886E-001  0.4140966E+02  0.7818608E-02  0.1498087E+00
         -4   -1    0    0    0  501 -0.00000000000E+00  0.00000000000E+00  0.54323508687E+02  0.54342064702E+02  0.14200000000E+01 0.  1.
          4   -1    0    0  501    0  0.00000000000E+00 -0.00000000000E+00 -0.78074726062E+01  0.79355547062E+01  0.14200000000E+01 0. -1.
        -13    1    1    2    0    0  0.13760968330E+02 -0.86101600532E+01  0.39290463389E+01  0.16701726951E+02  0.10570000000E+00 0. -1.
         13    1    1    2    0    0 -0.13760968330E+02  0.86101600532E+01  0.42586989742E+02  0.45575892457E+02  0.10570000000E+00 0.  1.
<mgrwt>
<rscale>  0 0.41409664E+02</rscale>
<asrwt>0</asrwt>
<pdfrwt beam="2">  1        4 0.12124295E-02 0.41409664E+02</pdfrwt>
<pdfrwt beam="1">  1       -4 0.83687426E-02 0.41409664E+02</pdfrwt>
<totfact> 0.21999919E+05</totfact>
</mgrwt>
</event>
<event>
 4    1  0.5624886E-001  0.4711552E+02  0.7818608E-02  0.1461551E+00
         -4   -1    0    0    0  501 -0.00000000000E+00  0.00000000000E+00  0.34342046458E+01  0.37162025711E+01  0.14200000000E+01 0. -1.
          4   -1    0    0  501    0  0.00000000000E+00 -0.00000000000E+00 -0.15494160405E+03  0.15494811088E+03  0.14200000000E+01 0.  1.
        -13    1    1    2    0    0 -0.21397109319E+02  0.66022275243E+01 -0.51114944151E+02  0.55804788178E+02  0.10570000000E+00 0.  1.
         13    1    1    2    0    0  0.21397109319E+02 -0.66022275243E+01 -0.10039245525E+03  0.10285952527E+03  0.10570000000E+00 0. -1.
<mgrwt>
<rscale>  0 0.47115521E+02</rscale>
<asrwt>0</asrwt>
<pdfrwt beam="2">  1        4 0.23859357E-01 0.47115521E+02</pdfrwt>
<pdfrwt beam="1">  1       -4 0.55053197E-03 0.47115521E+02</pdfrwt>
<totfact> 0.12566384E+05</totfact>
</mgrwt>
</event>
<event>
 4    1  0.5624886E-001  0.2411653E+02  0.7818608E-02  0.1674026E+00
          4   -1    0    0  501    0  0.00000000000E+00  0.00000000000E+00  0.31166004897E+01  0.34248501591E+01  0.14200000000E+01 0.  1.
         -4   -1    0    0    0  501 -0.00000000000E+00 -0.00000000000E+00 -0.44135283715E+02  0.44158121208E+02  0.14200000000E+01 0. -1.
        -13    1    1    2    0    0  0.72008606067E+01 -0.96709348962E+01 -0.20717681517E+02  0.23971084147E+02  0.10570000000E+00 0. -1.
         13    1    1    2    0    0 -0.72008606067E+01  0.96709348962E+01 -0.20301001708E+02  0.23611887220E+02  0.10570000000E+00 0.  1.
<mgrwt>
<rscale>  0 0.24116525E+02</rscale>
<asrwt>0</asrwt>
<pdfrwt beam="1">  1        4 0.50494527E-03 0.24116525E+02</pdfrwt>
<pdfrwt beam="2">  1       -4 0.68155114E-02 0.24116525E+02</pdfrwt>
<totfact> 0.78762741E+05</totfact>
</mgrwt>
</event>
<event>
 4    1  0.5624886E-001  0.2569313E+02  0.7818608E-02  0.1651241E+00
         -4   -1    0    0    0  501 -0.00000000000E+00  0.00000000000E+00  0.10277404389E+02  0.10375039324E+02  0.14200000000E+01 0.  1.
          4   -1    0    0  501    0  0.00000000000E+00 -0.00000000000E+00 -0.15852537993E+02  0.15916009576E+02  0.14200000000E+01 0. -1.
        -13    1    1    2    0    0 -0.74786224423E+01 -0.78935240842E+01 -0.97867427689E+01  0.14629730777E+02  0.10570000000E+00 0. -1.
         13    1    1    2    0    0  0.74786224423E+01  0.78935240842E+01  0.42116091645E+01  0.11661318122E+02  0.10570000000E+00 0.  1.
<mgrwt>
<rscale>  0 0.25693134E+02</rscale>
<asrwt>0</asrwt>
<pdfrwt beam="2">  1        4 0.24512448E-02 0.25693134E+02</pdfrwt>
<pdfrwt beam="1">  1       -4 0.15935319E-02 0.25693134E+02</pdfrwt>
<totfact> 0.74518324E+05</totfact>
</mgrwt>
</event>
<event>
 4    1  0.5624886E-001  0.2499500E+02  0.7818608E-02  0.1661074E+00
          4   -1    0    0  501    0  0.00000000000E+00  0.00000000000E+00  0.76678190363E+02  0.76691337694E+02  0.14200000000E+01 0.  1.
         -4   -1    0    0    0  501 -0.00000000000E+00 -0.00000000000E+00 -0.17744659011E+01  0.22726920676E+01  0.14200000000E+01 0. -1.
        -13    1    1    2    0    0 -0.99489029184E+01 -0.19662341789E+01  0.14381187441E+02  0.17597626852E+02  0.10570000000E+00 0. -1.
         13    1    1    2    0    0  0.99489029184E+01  0.19662341789E+01  0.60522537021E+02  0.61366402910E+02  0.10570000000E+00 0.  1.
<mgrwt>
<rscale>  0 0.24995001E+02</rscale>
<asrwt>0</asrwt>
<pdfrwt beam="1">  1        4 0.11835980E-01 0.24995001E+02</pdfrwt>
<pdfrwt beam="2">  1       -4 0.31233121E-03 0.24995001E+02</pdfrwt>
<totfact> 0.65791149E+05</totfact>
</mgrwt>
</event>
<event>
 4    1  0.5624886E-001  0.2581460E+02  0.7818608E-02  0.1649570E+00
          4   -1    0    0  501    0  0.00000000000E+00  0.00000000000E+00  0.98439944613E+01  0.99458849256E+01  0.14200000000E+01 0.  1.
         -4   -1    0    0    0  501 -0.00000000000E+00 -0.00000000000E+00 -0.16704560217E+02  0.16764806352E+02  0.14200000000E+01 0. -1.
        -13    1    1    2    0    0  0.11954758323E+01  0.10949554822E+02  0.35312126205E+01  0.11567305145E+02  0.10570000000E+00 0.  1.
         13    1    1    2    0    0 -0.11954758323E+01 -0.10949554822E+02 -0.10391778376E+02  0.15143386133E+02  0.10570000000E+00 0. -1.
<mgrwt>
<rscale>  0 0.25814602E+02</rscale>
<asrwt>0</asrwt>
<pdfrwt beam="1">  1        4 0.15269327E-02 0.25814602E+02</pdfrwt>
<pdfrwt beam="2">  1       -4 0.25824044E-02 0.25814602E+02</pdfrwt>
<totfact> 0.73626955E+05</totfact>
</mgrwt>
</event>
<event>
 4    1  0.5624886E-001  0.5735081E+02  0.7818608E-02  0.1409298E+00
         -4   -1    0    0    0  501 -0.00000000000E+00  0.00000000000E+00  0.54470444004E+02  0.54488949980E+02  0.14200000000E+01 0. -1.
          4   -1    0    0  501    0  0.00000000000E+00 -0.00000000000E+00 -0.15041358697E+02  0.15108238529E+02  0.14200000000E+01 0.  1.
        -13    1    1    2    0    0 -0.28247299678E+02  0.49018075439E+01  0.19017270953E+02  0.34403567014E+02  0.10570000000E+00 0.  1.
         13    1    1    2    0    0  0.28247299678E+02 -0.49018075439E+01  0.20411814354E+02  0.35193621496E+02  0.10570000000E+00 0. -1.
<mgrwt>
<rscale>  0 0.57350814E+02</rscale>
<asrwt>0</asrwt>
<pdfrwt beam="2">  1        4 0.23206233E-02 0.57350814E+02</pdfrwt>
<pdfrwt beam="1">  1       -4 0.83866365E-02 0.57350814E+02</pdfrwt>
<totfact> 0.96446774E+04</totfact>
</mgrwt>
</event>
<event>
 4    1  0.5624886E-001  0.2462549E+02  0.7818608E-02  0.1666440E+00
         -4   -1    0    0    0  501 -0.00000000000E+00  0.00000000000E+00  0.19074144955E+02  0.19126928812E+02  0.14200000000E+01 0.  1.
          4   -1    0    0  501    0  0.00000000000E+00 -0.00000000000E+00 -0.78203330967E+01  0.79482079579E+01  0.14200000000E+01 0. -1.
        -13    1    1    2    0    0  0.99484081575E+01  0.46087348915E+01 -0.53224603744E+00  0.10977509759E+02  0.10570000000E+00 0. -1.
         13    1    1    2    0    0 -0.99484081575E+01 -0.46087348915E+01  0.11786057896E+02  0.16097627011E+02  0.10570000000E+00 0.  1.
<mgrwt>
<rscale>  0 0.24625490E+02</rscale>
<asrwt>0</asrwt>
<pdfrwt beam="2">  1        4 0.12170250E-02 0.24625490E+02</pdfrwt>
<pdfrwt beam="1">  1       -4 0.29483807E-02 0.24625490E+02</pdfrwt>
<totfact> 0.81466729E+05</totfact>
</mgrwt>
</event>
<event>
 4    1  0.5624886E-001  0.3117765E+02  0.7818608E-02  0.1585425E+00
         -4   -1    0    0    0  501 -0.00000000000E+00  0.00000000000E+00  0.19491951850E+01  0.24115890755E+01  0.14200000000E+01 0.  1.
          4   -1    0    0  501    0  0.00000000000E+00 -0.00000000000E+00 -0.11098564878E+03  0.11099473246E+03  0.14200000000E+01 0. -1.
        -13    1    1    2    0    0  0.14767156663E+02 -0.49897482319E+01 -0.53850361649E+02  0.56061030365E+02  0.10570000000E+00 0.  1.
         13    1    1    2    0    0 -0.14767156663E+02  0.49897482319E+01 -0.55186091941E+02  0.57345291171E+02  0.10570000000E+00 0. -1.
<mgrwt>
<rscale>  0 0.31177645E+02</rscale>
<asrwt>0</asrwt>
<pdfrwt beam="2">  1        4 0.17110978E-01 0.31177645E+02</pdfrwt>
<pdfrwt beam="1">  1       -4 0.33614378E-03 0.31177645E+02</pdfrwt>
<totfact> 0.36771254E+05</totfact>
</mgrwt>
</event>
<event>
 4    1  0.5624886E-001  0.4374599E+02  0.7818608E-02  0.1482325E+00
         -4   -1    0    0    0  501 -0.00000000000E+00  0.00000000000E+00  0.30198290232E+02  0.30231657793E+02  0.14200000000E+01 0.  1.
          4   -1    0    0  501    0  0.00000000000E+00 -0.00000000000E+00 -0.15768843360E+02  0.15832650470E+02  0.14200000000E+01 0. -1.
        -13    1    1    2    0    0 -0.10093174373E+02  0.24537186076E+01 -0.13054372410E+02  0.16682946845E+02  0.10570000000E+00 0. -1.
         13    1    1    2    0    0  0.10093174373E+02 -0.24537186076E+01  0.27483819283E+02  0.29381361418E+02  0.10570000000E+00 0.  1.
<mgrwt>
<rscale>  0 0.43745989E+02</rscale>
<asrwt>0</asrwt>
<pdfrwt beam="2">  1        4 0.24334509E-02 0.43745989E+02</pdfrwt>
<pdfrwt beam="1">  1       -4 0.46533658E-02 0.43745989E+02</pdfrwt>
<totfact> 0.20278497E+05</totfact>
</mgrwt>
</event>
<event>
 4    1  0.5624886E-001  0.2580706E+02  0.7818608E-02  0.1649673E+00
         -4   -1    0    0    0  501 -0.00000000000E+00  0.00000000000E+00  0.36475584524E+01  0.39142154595E+01  0.14200000000E+01 0. -1.
          4   -1    0    0  501    0  0.00000000000E+00 -0.00000000000E+00 -0.43758981254E+02  0.43782015034E+02  0.14200000000E+01 0.  1.
        -13    1    1    2    0    0  0.10145758130E+02  0.47794071616E+01 -0.82633707111E+01  0.13931030430E+02  0.10570000000E+00 0. -1.
         13    1    1    2    0    0 -0.10145758130E+02 -0.47794071616E+01 -0.31848052091E+02  0.33765200063E+02  0.10570000000E+00 0.  1.
<mgrwt>
<rscale>  0 0.25807056E+02</rscale>
<asrwt>0</asrwt>
<pdfrwt beam="2">  1        4 0.67544345E-02 0.25807056E+02</pdfrwt>
<pdfrwt beam="1">  1       -4 0.58344678E-03 0.25807056E+02</pdfrwt>
<totfact> 0.68038541E+05</totfact>
</mgrwt>
</event>
<event>
 4    1  0.5624886E-001  0.4618780E+02  0.7818608E-02  0.1467060E+00
         -4   -1    0    0    0  501 -0.00000000000E+00  0.00000000000E+00  0.10092759998E+03  0.10093758883E+03  0.14200000000E+01 0. -1.
          4   -1    0    0  501    0  0.00000000000E+00 -0.00000000000E+00 -0.51784282766E+01  0.53695921089E+01  0.14200000000E+01 0.  1.
        -13    1    1    2    0    0 -0.55175102541E+01 -0.15496436190E+02  0.10567274747E+02  0.19551494114E+02  0.10570000000E+00 0.  1.
         13    1    1    2    0    0  0.55175102541E+01  0.15496436190E+02  0.85181896959E+02  0.86755686823E+02  0.10570000000E+00 0. -1.
<mgrwt>
<rscale>  0 0.46187800E+02</rscale>
<asrwt>0</asrwt>
<pdfrwt beam="2">  1        4 0.81215455E-03 0.46187800E+02</pdfrwt>
<pdfrwt beam="1">  1       -4 0.15542797E-01 0.46187800E+02</pdfrwt>
<totfact> 0.14955648E+05</totfact>
</mgrwt>
</event>
<event>
 4    1  0.5624886E-001  0.8940830E+02  0.7818608E-02  0.1304291E+00
          4   -1    0    0  501    0  0.00000000000E+00  0.00000000000E+00  0.66297900090E+02  0.66313105464E+02  0.14200000000E+01 0. -1.
         -4   -1    0    0    0  501 -0.00000000000E+00 -0.00000000000E+00 -0.30108258505E+02  0.30141725734E+02  0.14200000000E+01 0.  1.
        -13    1    1    2    0    0 -0.37102916303E+02 -0.12042018809E+02  0.41651839009E+02  0.57065957282E+02  0.10570000000E+00 0. -1.
         13    1    1    2    0    0  0.37102916303E+02  0.12042018809E+02 -0.54621974252E+01  0.39388873916E+02  0.10570000000E+00 0.  1.
<mgrwt>
<rscale>  0 0.89408301E+02</rscale>
<asrwt>0</asrwt>
<pdfrwt beam="1">  1        4 0.10203421E-01 0.89408301E+02</pdfrwt>
<pdfrwt beam="2">  1       -4 0.46357839E-02 0.89408301E+02</pdfrwt>
<totfact> 0.28130518E+04</totfact>
</mgrwt>
</event>
<event>
 4    1  0.5624886E-001  0.2382674E+02  0.7818608E-02  0.1678449E+00
          4   -1    0    0  501    0  0.00000000000E+00  0.00000000000E+00  0.34990380023E+01  0.37761974182E+01  0.14200000000E+01 0.  1.
         -4   -1    0    0    0  501 -0.00000000000E+00 -0.00000000000E+00 -0.38726167053E+02  0.38752192385E+02  0.14200000000E+01 0. -1.
        -13    1    1    2    0    0  0.56981375520E+00  0.10056549343E+02 -0.28966760416E+02  0.30668277648E+02  0.10570000000E+00 0. -1.
         13    1    1    2    0    0 -0.56981375520E+00 -0.10056549343E+02 -0.62603686350E+01  0.11860112155E+02  0.10570000000E+00 0.  1.
<mgrwt>
<rscale>  0 0.23826735E+02</rscale>
<asrwt>0</asrwt>
<pdfrwt beam="1">  1        4 0.56163547E-03 0.23826735E+02</pdfrwt>
<pdfrwt beam="2">  1       -4 0.59811935E-02 0.23826735E+02</pdfrwt>
<totfact> 0.82317528E+05</totfact>
</mgrwt>
</event>
<event>
 4    1  0.5624886E-001  0.2218983E+02  0.7818608E-02  0.1704989E+00
         -4   -1    0    0    0  501 -0.00000000000E+00  0.00000000000E+00  0.65619579524E+01  0.67138433232E+01  0.14200000000E+01 0.  1.
          4   -1    0    0  501    0  0.00000000000E+00 -0.00000000000E+00 -0.18364985736E+02  0.18419801874E+02  0.14200000000E+01 0. -1.
        -13    1    1    2    0    0  0.32258829570E+01 -0.10091967905E+02 -0.96293161672E+01  0.14317438297E+02  0.10570000000E+00 0. -1.
         13    1    1    2    0    0 -0.32258829570E+01  0.10091967905E+02 -0.21737116165E+01  0.10816206901E+02  0.10570000000E+00 0.  1.
<mgrwt>
<rscale>  0 0.22189832E+02</rscale>
<asrwt>0</asrwt>
<pdfrwt beam="2">  1        4 0.28412825E-02 0.22189832E+02</pdfrwt>
<pdfrwt beam="1">  1       -4 0.10254321E-02 0.22189832E+02</pdfrwt>
<totfact> 0.10252538E+06</totfact>
</mgrwt>
</event>
<event>
 4    1  0.5624886E-001  0.3921592E+02  0.7818608E-02  0.1514062E+00
          4   -1    0    0  501    0  0.00000000000E+00  0.00000000000E+00  0.23566728678E+01  0.27514190894E+01  0.14200000000E+01 0. -1.
         -4   -1    0    0    0  501 -0.00000000000E+00 -0.00000000000E+00 -0.15013618809E+03  0.15014290318E+03  0.14200000000E+01 0.  1.
        -13    1    1    2    0    0 -0.18766128018E+02  0.46836244627E+00 -0.51809408340E+02  0.55105470593E+02  0.10570000000E+00 0. -1.
         13    1    1    2    0    0  0.18766128018E+02 -0.46836244627E+00 -0.95970106885E+02  0.97788851676E+02  0.10570000000E+00 0.  1.
<mgrwt>
<rscale>  0 0.39215924E+02</rscale>
<asrwt>0</asrwt>
<pdfrwt beam="1">  1        4 0.39344681E-03 0.39215924E+02</pdfrwt>
<pdfrwt beam="2">  1       -4 0.23128750E-01 0.39215924E+02</pdfrwt>
<totfact> 0.19712207E+05</totfact>
</mgrwt>
</event>
<event>
 4    1  0.5624886E-001  0.4912841E+02  0.7818608E-02  0.1450100E+00
          4   -1    0    0  501    0  0.00000000000E+00  0.00000000000E+00  0.23416685054E+02  0.23459700316E+02  0.14200000000E+01 0.  1.
         -4   -1    0    0    0  501 -0.00000000000E+00 -0.00000000000E+00 -0.25681665067E+02  0.25720892687E+02  0.14200000000E+01 0. -1.
        -13    1    1    2    0    0  0.20114660120E+02  0.62287488789E+01  0.11529744258E+02  0.24007145592E+02  0.10570000000E+00 0.  1.
         13    1    1    2    0    0 -0.20114660120E+02 -0.62287488789E+01 -0.13794724271E+02  0.25173447411E+02  0.10570000000E+00 0. -1.
<mgrwt>
<rscale>  0 0.49128409E+02</rscale>
<asrwt>0</asrwt>
<pdfrwt beam="1">  1        4 0.36088933E-02 0.49128409E+02</pdfrwt>
<pdfrwt beam="2">  1       -4 0.39573518E-02 0.49128409E+02</pdfrwt>
<totfact> 0.15098708E+05</totfact>
</mgrwt>
</event>
<event>
 4    1  0.5624886E-001  0.9151962E+02  0.7818608E-02  0.1299213E+00
          4   -1    0    0  501    0  0.00000000000E+00  0.00000000000E+00  0.12552982183E+02  0.12633042456E+02  0.14200000000E+01 0.  1.
         -4   -1    0    0    0  501 -0.00000000000E+00 -0.00000000000E+00 -0.16619643572E+03  0.16620250192E+03  0.14200000000E+01 0. -1.
        -13    1    1    2    0    0 -0.28489022471E+02 -0.27298982489E+02 -0.12210765400E+03  0.12832439045E+03  0.10570000000E+00 0. -1.
         13    1    1    2    0    0  0.28489022471E+02  0.27298982489E+02 -0.31535799530E+02  0.50511153925E+02  0.10570000000E+00 0.  1.
<mgrwt>
<rscale>  0 0.91519621E+02</rscale>
<asrwt>0</asrwt>
<pdfrwt beam="1">  1        4 0.19378533E-02 0.91519621E+02</pdfrwt>
<pdfrwt beam="2">  1       -4 0.25575306E-01 0.91519621E+02</pdfrwt>
<totfact> 0.22079771E+04</totfact>
</mgrwt>
</event>
<event>
 4    1  0.5624886E-001  0.2218060E+02  0.7818608E-02  0.1705147E+00
          4   -1    0    0  501    0  0.00000000000E+00  0.00000000000E+00  0.12706980917E+01  0.19055376250E+01  0.14200000000E+01 0.  1.
         -4   -1    0    0    0  501 -0.00000000000E+00 -0.00000000000E+00 -0.76804153748E+02  0.76817279520E+02  0.14200000000E+01 0. -1.
        -13    1    1    2    0    0 -0.15936354025E+01  0.10822846230E+02 -0.31309661525E+02  0.33165942646E+02  0.10570000000E+00 0.  1.
         13    1    1    2    0    0  0.15936354025E+01 -0.10822846230E+02 -0.44223794131E+02  0.45556874499E+02  0.10570000000E+00 0. -1.
<mgrwt>
<rscale>  0 0.22180600E+02</rscale>
<asrwt>0</asrwt>
<pdfrwt beam="1">  1        4 0.24533556E-03 0.22180600E+02</pdfrwt>
<pdfrwt beam="2">  1       -4 0.11865864E-01 0.22180600E+02</pdfrwt>
<totfact> 0.84639379E+05</totfact>
</mgrwt>
</event>
<event>
 4    1  0.5624886E-001  0.1082867E+03  0.7818608E-02  0.1263776E+00
          4   -1    0    0  501    0  0.00000000000E+00  0.00000000000E+00  0.35372398868E+02  0.35400889843E+02  0.14200000000E+01 0. -1.
         -4   -1    0    0    0  501 -0.00000000000E+00 -0.00000000000E+00 -0.82807409836E+02  0.82819584180E+02  0.14200000000E+01 0.  1.
        -13    1    1    2    0    0  0.30025306031E+02 -0.13744364776E+02 -0.70561291862E+02  0.77905928189E+02  0.10570000000E+00 0.  1.
         13    1    1    2    0    0 -0.30025306031E+02  0.13744364776E+02  0.23126280893E+02  0.40314545834E+02  0.10570000000E+00 0. -1.
<mgrwt>
<rscale>  0 0.10828666E+03</rscale>
<asrwt>0</asrwt>
<pdfrwt beam="1">  1        4 0.54450356E-02 0.10828666E+03</pdfrwt>
<pdfrwt beam="2">  1       -4 0.12742730E-01 0.10828666E+03</pdfrwt>
<totfact> 0.15848441E+04</totfact>
</mgrwt>
</event>
<event>
 4    1  0.5624886E-001  0.4432558E+02  0.7818608E-02  0.1478596E+00
          4   -1    0    0  501    0  0.00000000000E+00  0.00000000000E+00  0.11051627072E+02  0.11142480017E+02  0.14200000000E+01 0.  1.
         -4   -1    0    0    0  501 -0.00000000000E+00 -0.00000000000E+00 -0.44160714734E+02  0.44183539082E+02  0.14200000000E+01 0. -1.
        -13    1    1    2    0    0 -0.14685662550E+01  0.17899645682E+02 -0.32762741615E+02  0.37362580384E+02  0.10570000000E+00 0. -1.
         13    1    1    2    0    0  0.14685662550E+01 -0.17899645682E+02 -0.34634604825E+00  0.17963438715E+02  0.10570000000E+00 0.  1.
<mgrwt>
<rscale>  0 0.44325576E+02</rscale>
<asrwt>0</asrwt>
<pdfrwt beam="1">  1        4 0.17089947E-02 0.44325576E+02</pdfrwt>
<pdfrwt beam="2">  1       -4 0.68027004E-02 0.44325576E+02</pdfrwt>
<totfact> 0.19070854E+05</totfact>
</mgrwt>
</event>
<event>
 4    1  0.5624886E-001  0.2079536E+02  0.7818608E-02  0.1729959E+00
         -4   -1    0    0    0  501 -0.00000000000E+00  0.00000000000E+00  0.20121589668E+02  0.20171632824E+02  0.14200000000E+01 0.  1.
          4   -1    0    0  501    0  0.00000000000E+00 -0.00000000000E+00 -0.52212634545E+01  0.54109141613E+01  0.14200000000E+01 0. -1.
        -13    1    1    2    0    0 -0.82783558914E+01  0.61187639833E+01  0.56546856017E+01  0.11745513641E+02  0.10570000000E+00 0. -1.
         13    1    1    2    0    0  0.82783558914E+01 -0.61187639833E+01  0.92456406120E+01  0.13837033344E+02  0.10570000000E+00 0.  1.
<mgrwt>
<rscale>  0 0.20795360E+02</rscale>
<asrwt>0</asrwt>
<pdfrwt beam="2">  1        4 0.82170930E-03 0.20795360E+02</pdfrwt>
<pdfrwt beam="1">  1       -4 0.31140671E-02 0.20795360E+02</pdfrwt>
<totfact> 0.11716084E+06</totfact>
</mgrwt>
</event>
<event>
 4    1  0.5624886E-001  0.2870716E+02  0.7818608E-02  0.1612835E+00
          4   -1    0    0  501    0  0.00000000000E+00  0.00000000000E+00  0.15115858160E+02  0.15182409819E+02  0.14200000000E+01 0.  1.
         -4   -1    0    0    0  501 -0.00000000000E+00 -0.00000000000E+00 -0.13495925799E+02  0.13570424207E+02  0.14200000000E+01 0. -1.
        -13    1    1    2    0    0  0.10039499145E+02 -0.80675434003E+01 -0.55355170921E+01  0.14018912995E+02  0.10570000000E+00 0.  1.
         13    1    1    2    0    0 -0.10039499145E+02  0.80675434003E+01  0.71554494535E+01  0.14733921032E+02  0.10570000000E+00 0. -1.
<mgrwt>
<rscale>  0 0.28707164E+02</rscale>
<asrwt>0</asrwt>
<pdfrwt beam="1">  1        4 0.23363667E-02 0.28707164E+02</pdfrwt>
<pdfrwt beam="2">  1       -4 0.20871463E-02 0.28707164E+02</pdfrwt>
<totfact> 0.57734705E+05</totfact>
</mgrwt>
</event>
<event>
 4    1  0.5624886E-001  0.9656383E+02  0.7818608E-02  0.1287692E+00
          4   -1    0    0  501    0  0.00000000000E+00  0.00000000000E+00  0.55360534672E+03  0.55360716787E+03  0.14200000000E+01 0. -1.
         -4   -1    0    0    0  501 -0.00000000000E+00 -0.00000000000E+00 -0.40892440611E+01  0.43287777711E+01  0.14200000000E+01 0.  1.
        -13    1    1    2    0    0 -0.45511598415E+02  0.15988828343E+02  0.26293989116E+03  0.26732816117E+03  0.10570000000E+00 0.  1.
         13    1    1    2    0    0  0.45511598415E+02 -0.15988828343E+02  0.28657621151E+03  0.29060778447E+03  0.10570000000E+00 0. -1.
<mgrwt>
<rscale>  0 0.96563825E+02</rscale>
<asrwt>0</asrwt>
<pdfrwt beam="1">  1        4 0.85188596E-01 0.96563825E+02</pdfrwt>
<pdfrwt beam="2">  1       -4 0.64768041E-03 0.96563825E+02</pdfrwt>
<totfact> 0.10364249E+04</totfact>
</mgrwt>
</event>
<event>
 4    1  0.5624886E-001  0.4914096E+02  0.7818608E-02  0.1450031E+00
         -4   -1    0    0    0  501 -0.00000000000E+00  0.00000000000E+00  0.10512265766E+03  0.10513224793E+03  0.14200000000E+01 0.  1.
          4   -1    0    0  501    0  0.00000000000E+00 -0.00000000000E+00 -0.56451105999E+01  0.58209684490E+01  0.14200000000E+01 0. -1.
        -13    1    1    2    0    0  0.25298184885E+01 -0.18124399117E+02  0.12720709634E+02  0.22287248620E+02  0.10570000000E+00 0. -1.
         13    1    1    2    0    0 -0.25298184885E+01  0.18124399117E+02  0.86756837428E+02  0.88665967755E+02  0.10570000000E+00 0.  1.
<mgrwt>
<rscale>  0 0.49140959E+02</rscale>
<asrwt>0</asrwt>
<pdfrwt beam="2">  1        4 0.88274388E-03 0.49140959E+02</pdfrwt>
<pdfrwt beam="1">  1       -4 0.16186980E-01 0.49140959E+02</pdfrwt>
<totfact> 0.12706772E+05</totfact>
</mgrwt>
</event>
<event>
 4    1  0.5624886E-001  0.2447695E+02  0.7818608E-02  0.1668630E+00
          4   -1    0    0  501    0  0.00000000000E+00  0.00000000000E+00  0.67772649559E+01  0.69244292387E+01  0.14200000000E+01 0.  1.
         -4   -1    0    0    0  501 -0.00000000000E+00 -0.00000000000E+00 -0.21692394336E+02  0.21738821772E+02  0.14200000000E+01 0. -1.
        -13    1    1    2    0    0  0.98527543847E+01 -0.59505176597E+01 -0.25891727605E+01  0.11798322654E+02  0.10570000000E+00 0.  1.
         13    1    1    2    0    0 -0.98527543847E+01  0.59505176597E+01 -0.12325956620E+02  0.16864928356E+02  0.10570000000E+00 0. -1.
<mgrwt>
<rscale>  0 0.24476946E+02</rscale>
<asrwt>0</asrwt>
<pdfrwt beam="1">  1        4 0.10575478E-02 0.24476946E+02</pdfrwt>
<pdfrwt beam="2">  1       -4 0.33521831E-02 0.24476946E+02</pdfrwt>
<totfact> 0.82004700E+05</totfact>
</mgrwt>
</event>
<event>
 4    1  0.5624886E-001  0.2522192E+02  0.7818608E-02  0.1657835E+00
         -4   -1    0    0    0  501 -0.00000000000E+00  0.00000000000E+00  0.11669744165E+01  0.18379959980E+01  0.14200000000E+01 0.  1.
          4   -1    0    0  501    0  0.00000000000E+00 -0.00000000000E+00 -0.10517192472E+03  0.10518151049E+03  0.14200000000E+01 0. -1.
        -13    1    1    2    0    0 -0.11510190040E+02 -0.51218137688E+01 -0.49648991877E+02  0.51222563562E+02  0.10570000000E+00 0. -1.
         13    1    1    2    0    0  0.11510190040E+02  0.51218137688E+01 -0.54355958429E+02  0.55796942929E+02  0.10570000000E+00 0.  1.
<mgrwt>
<rscale>  0 0.25221917E+02</rscale>
<asrwt>0</asrwt>
<pdfrwt beam="2">  1        4 0.16232645E-01 0.25221917E+02</pdfrwt>
<pdfrwt beam="1">  1       -4 0.23188902E-03 0.25221917E+02</pdfrwt>
<totfact> 0.59487984E+05</totfact>
</mgrwt>
</event>
<event>
 4    1  0.5624886E-001  0.3848450E+02  0.7818608E-02  0.1519670E+00
         -4   -1    0    0    0  501 -0.00000000000E+00  0.00000000000E+00  0.10236069356E+02  0.10334094825E+02  0.14200000000E+01 0.  1.
          4   -1    0    0  501    0  0.00000000000E+00 -0.00000000000E+00 -0.35887980598E+02  0.35916062583E+02  0.14200000000E+01 0. -1.
        -13    1    1    2    0    0 -0.15830944110E+02  0.10829135886E+02 -0.10978179901E+02  0.22100239407E+02  0.10570000000E+00 0. -1.
         13    1    1    2    0    0  0.15830944110E+02 -0.10829135886E+02 -0.14673731342E+02  0.24149918000E+02  0.10570000000E+00 0.  1.
<mgrwt>
<rscale>  0 0.38484497E+02</rscale>
<asrwt>0</asrwt>
<pdfrwt beam="2">  1        4 0.55309283E-02 0.38484497E+02</pdfrwt>
<pdfrwt beam="1">  1       -4 0.15844805E-02 0.38484497E+02</pdfrwt>
<totfact> 0.27562184E+05</totfact>
</mgrwt>
</event>
<event>
 4    1  0.5624886E-001  0.2854050E+02  0.7818608E-02  0.1614805E+00
         -4   -1    0    0    0  501 -0.00000000000E+00  0.00000000000E+00  0.48620947808E+02  0.48641679307E+02  0.14200000000E+01 0. -1.
          4   -1    0    0  501    0  0.00000000000E+00 -0.00000000000E+00 -0.40456860402E+01  0.42876538498E+01  0.14200000000E+01 0.  1.
        -13    1    1    2    0    0  0.84091993206E+01 -0.10449111731E+02  0.31321770882E+02  0.34072908195E+02  0.10570000000E+00 0. -1.
         13    1    1    2    0    0 -0.84091993206E+01  0.10449111731E+02  0.13253490886E+02  0.18856424962E+02  0.10570000000E+00 0.  1.
<mgrwt>
<rscale>  0 0.28540504E+02</rscale>
<asrwt>0</asrwt>
<pdfrwt beam="2">  1        4 0.64262083E-03 0.28540504E+02</pdfrwt>
<pdfrwt beam="1">  1       -4 0.75003540E-02 0.28540504E+02</pdfrwt>
<totfact> 0.53568269E+05</totfact>
</mgrwt>
</event>
<event>
 4    1  0.5624886E-001  0.2033078E+02  0.7818608E-02  0.1738829E+00
          4   -1    0    0  501    0  0.00000000000E+00  0.00000000000E+00  0.56855496894E+01  0.58601941325E+01  0.14200000000E+01 0.  1.
         -4   -1    0    0    0  501 -0.00000000000E+00 -0.00000000000E+00 -0.17696616694E+02  0.17753496625E+02  0.14200000000E+01 0. -1.
        -13    1    1    2    0    0 -0.66216415542E+01  0.75637186602E+01 -0.77547068298E+01  0.12696559666E+02  0.10570000000E+00 0.  1.
         13    1    1    2    0    0  0.66216415542E+01 -0.75637186602E+01 -0.42563601746E+01  0.10917131091E+02  0.10570000000E+00 0. -1.
<mgrwt>
<rscale>  0 0.20330781E+02</rscale>
<asrwt>0</asrwt>
<pdfrwt beam="1">  1        4 0.89250952E-03 0.20330781E+02</pdfrwt>
<pdfrwt beam="2">  1       -4 0.27403660E-02 0.20330781E+02</pdfrwt>
<totfact> 0.12381152E+06</totfact>
</mgrwt>
</event>
<event>
 4    1  0.5624886E-001  0.3682758E+02  0.7818608E-02  0.1532945E+00
          4   -1    0    0  501    0  0.00000000000E+00  0.00000000000E+00  0.17436433057E+02  0.17494158961E+02  0.14200000000E+01 0. -1.
         -4   -1    0    0    0  501 -0.00000000000E+00 -0.00000000000E+00 -0.19329985828E+02  0.19382072957E+02  0.14200000000E+01 0.  1.
        -13    1    1    2    0    0 -0.16071207852E+02  0.89865263924E+01 -0.10701612857E+01  0.18444451634E+02  0.10570000000E+00 0. -1.
         13    1    1    2    0    0  0.16071207852E+02 -0.89865263924E+01 -0.82339148513E+00  0.18431780284E+02  0.10570000000E+00 0.  1.
<mgrwt>
<rscale>  0 0.36827584E+02</rscale>
<asrwt>0</asrwt>
<pdfrwt beam="1">  1        4 0.26909753E-02 0.36827584E+02</pdfrwt>
<pdfrwt beam="2">  1       -4 0.29822911E-02 0.36827584E+02</pdfrwt>
<totfact> 0.31586549E+05</totfact>
</mgrwt>
</event>
<event>
 4    1  0.5624886E-001  0.3307144E+02  0.7818608E-02  0.1566425E+00
          4   -1    0    0  501    0  0.00000000000E+00  0.00000000000E+00  0.41958294946E+01  0.44296032720E+01  0.14200000000E+01 0. -1.
         -4   -1    0    0    0  501 -0.00000000000E+00 -0.00000000000E+00 -0.63158896158E+02  0.63174857055E+02  0.14200000000E+01 0.  1.
        -13    1    1    2    0    0 -0.94160275949E+01 -0.45312942612E+01 -0.55677919789E+02  0.56650120282E+02  0.10570000000E+00 0.  1.
         13    1    1    2    0    0  0.94160275949E+01  0.45312942612E+01 -0.32851468738E+01  0.10954340045E+02  0.10570000000E+00 0. -1.
<mgrwt>
<rscale>  0 0.33071435E+02</rscale>
<asrwt>0</asrwt>
<pdfrwt beam="1">  1        4 0.66472264E-03 0.33071435E+02</pdfrwt>
<pdfrwt beam="2">  1       -4 0.97359629E-02 0.33071435E+02</pdfrwt>
<totfact> 0.36646950E+05</totfact>
</mgrwt>
</event>
<event>
 4    1  0.5624886E-001  0.2501277E+02  0.7818608E-02  0.1660819E+00
         -4   -1    0    0    0  501 -0.00000000000E+00  0.00000000000E+00  0.76948577920E+01  0.78247834756E+01  0.14200000000E+01 0.  1.
          4   -1    0    0  501    0  0.00000000000E+00 -0.00000000000E+00 -0.20001045994E+02  0.20051389999E+02  0.14200000000E+01 0. -1.
        -13    1    1    2    0    0  0.16474873232E+01 -0.10036455321E+02 -0.14263081718E+02  0.17518313917E+02  0.10570000000E+00 0. -1.
         13    1    1    2    0    0 -0.16474873232E+01  0.10036455321E+02  0.19568935158E+01  0.10357859557E+02  0.10570000000E+00 0.  1.
<mgrwt>
<rscale>  0 0.25012772E+02</rscale>
<asrwt>0</asrwt>
<pdfrwt beam="2">  1        4 0.30909509E-02 0.25012772E+02</pdfrwt>
<pdfrwt beam="1">  1       -4 0.11976912E-02 0.25012772E+02</pdfrwt>
<totfact> 0.78497253E+05</totfact>
</mgrwt>
</event>
<event>
 4    1  0.5624886E-001  0.4646209E+02  0.7818608E-02  0.1465415E+00
          4   -1    0    0  501    0  0.00000000000E+00  0.00000000000E+00  0.63031831197E+01  0.64611544975E+01  0.14200000000E+01 0.  1.
         -4   -1    0    0    0  501 -0.00000000000E+00 -0.00000000000E+00 -0.84396805808E+02  0.84408750912E+02  0.14200000000E+01 0. -1.
        -13    1    1    2    0    0 -0.34984080611E+01 -0.21004994157E+02 -0.20886241381E+02  0.29827753687E+02  0.10570000000E+00 0.  1.
         13    1    1    2    0    0  0.34984080611E+01  0.21004994157E+02 -0.57207381307E+02  0.61042151723E+02  0.10570000000E+00 0. -1.
<mgrwt>
<rscale>  0 0.46462090E+02</rscale>
<asrwt>0</asrwt>
<pdfrwt beam="1">  1        4 0.98279104E-03 0.46462090E+02</pdfrwt>
<pdfrwt beam="2">  1       -4 0.12997194E-01 0.46462090E+02</pdfrwt>
<totfact> 0.15352811E+05</totfact>
</mgrwt>
</event>
<event>
 4    1  0.5624886E-001  0.2468051E+02  0.7818608E-02  0.1665634E+00
         -4   -1    0    0    0  501 -0.00000000000E+00  0.00000000000E+00  0.97099353208E+01  0.98132178175E+01  0.14200000000E+01 0.  1.
          4   -1    0    0  501    0  0.00000000000E+00 -0.00000000000E+00 -0.15464154373E+02  0.15529213453E+02  0.14200000000E+01 0. -1.
        -13    1    1    2    0    0 -0.34553886221E+00 -0.10803104816E+02 -0.89902910724E+01  0.14059266582E+02  0.10570000000E+00 0. -1.
         13    1    1    2    0    0  0.34553886221E+00  0.10803104816E+02  0.32360720207E+01  0.11283164688E+02  0.10570000000E+00 0.  1.
<mgrwt>
<rscale>  0 0.24680514E+02</rscale>
<asrwt>0</asrwt>
<pdfrwt beam="2">  1        4 0.23920500E-02 0.24680514E+02</pdfrwt>
<pdfrwt beam="1">  1       -4 0.15067856E-02 0.24680514E+02</pdfrwt>
<totfact> 0.81657107E+05</totfact>
</mgrwt>
</event>
<event>
 4    1  0.5624886E-001  0.3389824E+02  0.7818608E-02  0.1558608E+00
          4   -1    0    0  501    0  0.00000000000E+00  0.00000000000E+00  0.66084090226E+01  0.67592506841E+01  0.14200000000E+01 0. -1.
         -4   -1    0    0    0  501 -0.00000000000E+00 -0.00000000000E+00 -0.42817515645E+02  0.42841055613E+02  0.14200000000E+01 0.  1.
        -13    1    1    2    0    0 -0.50980652152E+01  0.16100448176E+02 -0.16011151646E+02  0.23271932664E+02  0.10570000000E+00 0. -1.
         13    1    1    2    0    0  0.50980652152E+01 -0.16100448176E+02 -0.20197954976E+02  0.26328373633E+02  0.10570000000E+00 0.  1.
<mgrwt>
<rscale>  0 0.33898245E+02</rscale>
<asrwt>0</asrwt>
<pdfrwt beam="1">  1        4 0.10300923E-02 0.33898245E+02</pdfrwt>
<pdfrwt beam="2">  1       -4 0.66007239E-02 0.33898245E+02</pdfrwt>
<totfact> 0.36683945E+05</totfact>
</mgrwt>
</event>
<event>
 4    1  0.5624886E-001  0.2775558E+02  0.7818608E-02  0.1624311E+00
          4   -1    0    0  501    0  0.00000000000E+00  0.00000000000E+00  0.55794691232E+02  0.55812758126E+02  0.14200000000E+01 0.  1.
         -4   -1    0    0    0  501 -0.00000000000E+00 -0.00000000000E+00 -0.32863339073E+01  0.35799986802E+01  0.14200000000E+01 0. -1.
        -13    1    1    2    0    0 -0.16757366144E+01  0.13616676808E+02  0.21786123501E+02  0.25746229437E+02  0.10570000000E+00 0. -1.
         13    1    1    2    0    0  0.16757366144E+01 -0.13616676808E+02  0.30722233823E+02  0.33646527370E+02  0.10570000000E+00 0.  1.
<mgrwt>
<rscale>  0 0.27755576E+02</rscale>
<asrwt>0</asrwt>
<pdfrwt beam="1">  1        4 0.86077772E-02 0.27755576E+02</pdfrwt>
<pdfrwt beam="2">  1       -4 0.52956924E-03 0.27755576E+02</pdfrwt>
<totfact> 0.55757969E+05</totfact>
</mgrwt>
</event>
<event>
 4    1  0.5624886E-001  0.2238991E+02  0.7818608E-02  0.1701595E+00
          4   -1    0    0  501    0  0.00000000000E+00  0.00000000000E+00  0.14893463608E+01  0.20578028532E+01  0.14200000000E+01 0. -1.
         -4   -1    0    0    0  501 -0.00000000000E+00 -0.00000000000E+00 -0.70086691271E+02  0.70101074837E+02  0.14200000000E+01 0.  1.
        -13    1    1    2    0    0  0.23654172508E+01 -0.10360170942E+02 -0.45641691535E+02  0.46862602567E+02  0.10570000000E+00 0.  1.
         13    1    1    2    0    0 -0.23654172508E+01  0.10360170942E+02 -0.22955653375E+02  0.25296275123E+02  0.10570000000E+00 0. -1.
<mgrwt>
<rscale>  0 0.22389906E+02</rscale>
<asrwt>0</asrwt>
<pdfrwt beam="1">  1        4 0.27396411E-03 0.22389906E+02</pdfrwt>
<pdfrwt beam="2">  1       -4 0.10827400E-01 0.22389906E+02</pdfrwt>
<totfact> 0.84742925E+05</totfact>
</mgrwt>
</event>
<event>
 4    1  0.5624886E-001  0.2320488E+02  0.7818608E-02  0.1688210E+00
          4   -1    0    0  501    0  0.00000000000E+00  0.00000000000E+00  0.52736224278E+01  0.54614552558E+01  0.14200000000E+01 0. -1.
         -4   -1    0    0    0  501 -0.00000000000E+00 -0.00000000000E+00 -0.24871331487E+02  0.24911835138E+02  0.14200000000E+01 0.  1.
        -13    1    1    2    0    0  0.36908149267E+01 -0.10943352309E+02 -0.83493229306E+01  0.14251366267E+02  0.10570000000E+00 0.  1.
         13    1    1    2    0    0 -0.36908149267E+01  0.10943352309E+02 -0.11248386129E+02  0.16121924128E+02  0.10570000000E+00 0. -1.
<mgrwt>
<rscale>  0 0.23204882E+02</rscale>
<asrwt>0</asrwt>
<pdfrwt beam="1">  1        4 0.82889088E-03 0.23204882E+02</pdfrwt>
<pdfrwt beam="2">  1       -4 0.38439230E-02 0.23204882E+02</pdfrwt>
<totfact> 0.91269219E+05</totfact>
</mgrwt>
</event>
<event>
 4    1  0.5624886E-001  0.3924616E+02  0.7818608E-02  0.1513833E+00
          4   -1    0    0  501    0  0.00000000000E+00  0.00000000000E+00  0.12665458397E+02  0.12744812136E+02  0.14200000000E+01 0.  1.
         -4   -1    0    0    0  501 -0.00000000000E+00 -0.00000000000E+00 -0.30211759430E+02  0.30245112132E+02  0.14200000000E+01 0. -1.
        -13    1    1    2    0    0 -0.18009632677E+02 -0.76715853573E+01 -0.10264639789E+02  0.22103712212E+02  0.10570000000E+00 0.  1.
         13    1    1    2    0    0  0.18009632677E+02  0.76715853573E+01 -0.72816612442E+01  0.20886212056E+02  0.10570000000E+00 0. -1.
<mgrwt>
<rscale>  0 0.39246158E+02</rscale>
<asrwt>0</asrwt>
<pdfrwt beam="1">  1        4 0.19572018E-02 0.39246158E+02</pdfrwt>
<pdfrwt beam="2">  1       -4 0.46566327E-02 0.39246158E+02</pdfrwt>
<totfact> 0.26596178E+05</totfact>
</mgrwt>
</event>
<event>
 4    1  0.5624886E-001  0.3533430E+02  0.7818608E-02  0.1545652E+00
          4   -1    0    0  501    0  0.00000000000E+00  0.00000000000E+00  0.66246269318E+01  0.67751075257E+01  0.14200000000E+01 0. -1.
         -4   -1    0    0    0  501 -0.00000000000E+00 -0.00000000000E+00 -0.46425768661E+02  0.46447479972E+02  0.14200000000E+01 0.  1.
        -13    1    1    2    0    0 -0.94649109769E+01 -0.12309390676E+02 -0.72075916327E+01  0.17119176039E+02  0.10570000000E+00 0. -1.
         13    1    1    2    0    0  0.94649109769E+01  0.12309390676E+02 -0.32593550096E+02  0.36103411459E+02  0.10570000000E+00 0.  1.
<mgrwt>
<rscale>  0 0.35334303E+02</rscale>
<asrwt>0</asrwt>
<pdfrwt beam="1">  1        4 0.10324189E-02 0.35334303E+02</pdfrwt>
<pdfrwt beam="2">  1       -4 0.71556713E-02 0.35334303E+02</pdfrwt>
<totfact> 0.32930260E+05</totfact>
</mgrwt>
</event>
<event>
 4    1  0.5624886E-001  0.4287131E+02  0.7818608E-02  0.1488086E+00
          4   -1    0    0  501    0  0.00000000000E+00  0.00000000000E+00  0.54616409183E+01  0.56432190743E+01  0.14200000000E+01 0.  1.
         -4   -1    0    0    0  501 -0.00000000000E+00 -0.00000000000E+00 -0.82566499092E+02  0.82578708953E+02  0.14200000000E+01 0. -1.
        -13    1    1    2    0    0  0.11136609351E+02  0.11478922907E+02 -0.67921542155E+02  0.69779200340E+02  0.10570000000E+00 0. -1.
         13    1    1    2    0    0 -0.11136609351E+02 -0.11478922907E+02 -0.91833160189E+01  0.18442727687E+02  0.10570000000E+00 0.  1.
<mgrwt>
<rscale>  0 0.42871312E+02</rscale>
<asrwt>0</asrwt>
<pdfrwt beam="1">  1        4 0.85515928E-03 0.42871312E+02</pdfrwt>
<pdfrwt beam="2">  1       -4 0.12717444E-01 0.42871312E+02</pdfrwt>
<totfact> 0.18787867E+05</totfact>
</mgrwt>
</event>
<event>
 4    1  0.5624886E-001  0.3702356E+02  0.7818608E-02  0.1531332E+00
          4   -1    0    0  501    0  0.00000000000E+00  0.00000000000E+00  0.14989137486E+02  0.15056249286E+02  0.14200000000E+01 0.  1.
         -4   -1    0    0    0  501 -0.00000000000E+00 -0.00000000000E+00 -0.22721900876E+02  0.22766228924E+02  0.14200000000E+01 0. -1.
        -13    1    1    2    0    0  0.58207804455E+01  0.10908765014E+02 -0.17940169554E+02  0.21788609300E+02  0.10570000000E+00 0. -1.
         13    1    1    2    0    0 -0.58207804455E+01 -0.10908765014E+02  0.10207406164E+02  0.16033868910E+02  0.10570000000E+00 0.  1.
<mgrwt>
<rscale>  0 0.37023563E+02</rscale>
<asrwt>0</asrwt>
<pdfrwt beam="1">  1        4 0.23145934E-02 0.37023563E+02</pdfrwt>
<pdfrwt beam="2">  1       -4 0.35042494E-02 0.37023563E+02</pdfrwt>
<totfact> 0.31088792E+05</totfact>
</mgrwt>
</event>
<event>
 4    1  0.5624886E-001  0.1250664E+03  0.7818608E-02  0.1234966E+00
         -4   -1    0    0    0  501 -0.00000000000E+00  0.00000000000E+00  0.24266100700E+03  0.24266516173E+03  0.14200000000E+01 0. -1.
          4   -1    0    0  501    0  0.00000000000E+00 -0.00000000000E+00 -0.16079082462E+02  0.16141663261E+02  0.14200000000E+01 0.  1.
        -13    1    1    2    0    0  0.15440206025E+02 -0.52322492468E+02  0.17654512381E+03  0.18478158754E+03  0.10570000000E+00 0. -1.
         13    1    1    2    0    0 -0.15440206025E+02  0.52322492468E+02  0.50036800724E+02  0.74025237449E+02  0.10570000000E+00 0.  1.
<mgrwt>
<rscale>  0 0.12506640E+03</rscale>
<asrwt>0</asrwt>
<pdfrwt beam="2">  1        4 0.24788385E-02 0.12506640E+03</pdfrwt>
<pdfrwt beam="1">  1       -4 0.37337596E-01 0.12506640E+03</pdfrwt>
<totfact> 0.80954074E+03</totfact>
</mgrwt>
</event>
<event>
 4    1  0.5624886E-001  0.2265298E+02  0.7818608E-02  0.1697198E+00
          4   -1    0    0  501    0  0.00000000000E+00  0.00000000000E+00  0.18085943886E+01  0.22994376839E+01  0.14200000000E+01 0.  1.
         -4   -1    0    0    0  501 -0.00000000000E+00 -0.00000000000E+00 -0.61957856182E+02  0.61974126397E+02  0.14200000000E+01 0. -1.
        -13    1    1    2    0    0  0.10661671893E+02 -0.33656104236E+01 -0.24936366983E+02  0.27328229944E+02  0.10570000000E+00 0. -1.
         13    1    1    2    0    0 -0.10661671893E+02  0.33656104236E+01 -0.35212894811E+02  0.36945334137E+02  0.10570000000E+00 0.  1.
<mgrwt>
<rscale>  0 0.22652977E+02</rscale>
<asrwt>0</asrwt>
<pdfrwt beam="1">  1        4 0.31725407E-03 0.22652977E+02</pdfrwt>
<pdfrwt beam="2">  1       -4 0.95709852E-02 0.22652977E+02</pdfrwt>
<totfact> 0.84856191E+05</totfact>
</mgrwt>
</event>
<event>
 4    1  0.5624886E-001  0.2601167E+02  0.7818608E-02  0.1646882E+00
         -4   -1    0    0    0  501 -0.00000000000E+00  0.00000000000E+00  0.84803555353E+01  0.85984202040E+01  0.14200000000E+01 0. -1.
          4   -1    0    0  501    0  0.00000000000E+00 -0.00000000000E+00 -0.19664565736E+02  0.19715768957E+02  0.14200000000E+01 0.  1.
        -13    1    1    2    0    0  0.94721829409E+01  0.80811689022E+01 -0.15028401985E+01  0.12541819710E+02  0.10570000000E+00 0. -1.
         13    1    1    2    0    0 -0.94721829409E+01 -0.80811689022E+01 -0.96813700018E+01  0.15772369451E+02  0.10570000000E+00 0.  1.
<mgrwt>
<rscale>  0 0.26011666E+02</rscale>
<asrwt>0</asrwt>
<pdfrwt beam="2">  1        4 0.30383384E-02 0.26011666E+02</pdfrwt>
<pdfrwt beam="1">  1       -4 0.13176907E-02 0.26011666E+02</pdfrwt>
<totfact> 0.71942156E+05</totfact>
</mgrwt>
</event>
<event>
 4    1  0.5624886E-001  0.4747073E+02  0.7818608E-02  0.1459482E+00
         -4   -1    0    0    0  501 -0.00000000000E+00  0.00000000000E+00  0.13604847068E+02  0.13678752273E+02  0.14200000000E+01 0.  1.
          4   -1    0    0  501    0  0.00000000000E+00 -0.00000000000E+00 -0.41210997449E+02  0.41235454535E+02  0.14200000000E+01 0. -1.
        -13    1    1    2    0    0  0.21267041598E+01  0.21126760863E+02 -0.26072455515E+02  0.33625094859E+02  0.10570000000E+00 0. -1.
         13    1    1    2    0    0 -0.21267041598E+01 -0.21126760863E+02 -0.15336948651E+01  0.21289111949E+02  0.10570000000E+00 0.  1.
<mgrwt>
<rscale>  0 0.47470734E+02</rscale>
<asrwt>0</asrwt>
<pdfrwt beam="2">  1        4 0.63477197E-02 0.47470734E+02</pdfrwt>
<pdfrwt beam="1">  1       -4 0.21006197E-02 0.47470734E+02</pdfrwt>
<totfact> 0.16145454E+05</totfact>
</mgrwt>
</event>
<event>
 4    1  0.5624886E-001  0.2458160E+02  0.7818608E-02  0.1667085E+00
         -4   -1    0    0    0  501 -0.00000000000E+00  0.00000000000E+00  0.16807629371E+02  0.16867507376E+02  0.14200000000E+01 0. -1.
          4   -1    0    0  501    0  0.00000000000E+00 -0.00000000000E+00 -0.88552853449E+01  0.89684156093E+01  0.14200000000E+01 0.  1.
        -13    1    1    2    0    0 -0.64687000185E+01 -0.10079074166E+02  0.10747293379E+01  0.12024892167E+02  0.10570000000E+00 0.  1.
         13    1    1    2    0    0  0.64687000185E+01  0.10079074166E+02  0.68776146881E+01  0.13811030818E+02  0.10570000000E+00 0. -1.
<mgrwt>
<rscale>  0 0.24581602E+02</rscale>
<asrwt>0</asrwt>
<pdfrwt beam="2">  1        4 0.13756600E-02 0.24581602E+02</pdfrwt>
<pdfrwt beam="1">  1       -4 0.25990974E-02 0.24581602E+02</pdfrwt>
<totfact> 0.82202093E+05</totfact>
</mgrwt>
</event>
<event>
 4    1  0.5624886E-001  0.2740788E+02  0.7818608E-02  0.1628646E+00
          4   -1    0    0  501    0  0.00000000000E+00  0.00000000000E+00  0.10360537397E+02  0.10457396194E+02  0.14200000000E+01 0. -1.
         -4   -1    0    0    0  501 -0.00000000000E+00 -0.00000000000E+00 -0.17916857954E+02  0.17973040893E+02  0.14200000000E+01 0.  1.
        -13    1    1    2    0    0  0.73082989490E+01 -0.99404485633E+01 -0.99641250031E+01  0.15859341434E+02  0.10570000000E+00 0.  1.
         13    1    1    2    0    0 -0.73082989490E+01  0.99404485633E+01  0.24078044460E+01  0.12571095653E+02  0.10570000000E+00 0. -1.
<mgrwt>
<rscale>  0 0.27407878E+02</rscale>
<asrwt>0</asrwt>
<pdfrwt beam="1">  1        4 0.16057013E-02 0.27407878E+02</pdfrwt>
<pdfrwt beam="2">  1       -4 0.27682121E-02 0.27407878E+02</pdfrwt>
<totfact> 0.64084819E+05</totfact>
</mgrwt>
</event>
<event>
 4    1  0.5624886E-001  0.2386371E+02  0.7818608E-02  0.1677880E+00
         -4   -1    0    0    0  501 -0.00000000000E+00  0.00000000000E+00  0.95602487472E+01  0.96651309410E+01  0.14200000000E+01 0.  1.
          4   -1    0    0  501    0  0.00000000000E+00 -0.00000000000E+00 -0.14671195064E+02  0.14739754564E+02  0.14200000000E+01 0. -1.
        -13    1    1    2    0    0  0.11253097827E+02  0.20114272221E+01 -0.60505697075E+01  0.12934396641E+02  0.10570000000E+00 0. -1.
         13    1    1    2    0    0 -0.11253097827E+02 -0.20114272221E+01  0.93962339078E+00  0.11470488864E+02  0.10570000000E+00 0.  1.
<mgrwt>
<rscale>  0 0.23863710E+02</rscale>
<asrwt>0</asrwt>
<pdfrwt beam="2">  1        4 0.22704486E-02 0.23863710E+02</pdfrwt>
<pdfrwt beam="1">  1       -4 0.14841492E-02 0.23863710E+02</pdfrwt>
<totfact> 0.88137438E+05</totfact>
</mgrwt>
</event>
<event>
 4    1  0.5624886E-001  0.4530864E+02  0.7818608E-02  0.1472424E+00
          4   -1    0    0  501    0  0.00000000000E+00  0.00000000000E+00  0.54717138241E+02  0.54735560811E+02  0.14200000000E+01 0.  1.
         -4   -1    0    0    0  501 -0.00000000000E+00 -0.00000000000E+00 -0.93056060816E+01  0.94133259025E+01  0.14200000000E+01 0. -1.
        -13    1    1    2    0    0  0.13747496148E+02  0.17849177527E+02  0.26062228550E+02  0.34450511145E+02  0.10570000000E+00 0.  1.
         13    1    1    2    0    0 -0.13747496148E+02 -0.17849177527E+02  0.19349303610E+02  0.29698375568E+02  0.10570000000E+00 0. -1.
<mgrwt>
<rscale>  0 0.45308635E+02</rscale>
<asrwt>0</asrwt>
<pdfrwt beam="1">  1        4 0.84277242E-02 0.45308635E+02</pdfrwt>
<pdfrwt beam="2">  1       -4 0.14413350E-02 0.45308635E+02</pdfrwt>
<totfact> 0.17601246E+05</totfact>
</mgrwt>
</event>
<event>
 4    1  0.5624886E-001  0.2078476E+02  0.7818608E-02  0.1730158E+00
         -4   -1    0    0    0  501 -0.00000000000E+00  0.00000000000E+00  0.65995841371E+01  0.67506229921E+01  0.14200000000E+01 0.  1.
          4   -1    0    0  501    0  0.00000000000E+00 -0.00000000000E+00 -0.15996912653E+02  0.16059813649E+02  0.14200000000E+01 0. -1.
        -13    1    1    2    0    0  0.99912044395E+01  0.28550683071E+01 -0.48322005599E+01  0.11460231932E+02  0.10570000000E+00 0. -1.
         13    1    1    2    0    0 -0.99912044395E+01 -0.28550683071E+01 -0.45651279560E+01  0.11350204709E+02  0.10570000000E+00 0.  1.
<mgrwt>
<rscale>  0 0.20784760E+02</rscale>
<asrwt>0</asrwt>
<pdfrwt beam="2">  1        4 0.24775204E-02 0.20784760E+02</pdfrwt>
<pdfrwt beam="1">  1       -4 0.10317776E-02 0.20784760E+02</pdfrwt>
<totfact> 0.11871496E+06</totfact>
</mgrwt>
</event>
<event>
 4    1  0.5624886E-001  0.2784551E+02  0.7818608E-02  0.1623202E+00
          4   -1    0    0  501    0  0.00000000000E+00  0.00000000000E+00  0.28159452492E+02  0.28195233013E+02  0.14200000000E+01 0.  1.
         -4   -1    0    0    0  501 -0.00000000000E+00 -0.00000000000E+00 -0.67699103297E+01  0.69172310842E+01  0.14200000000E+01 0. -1.
        -13    1    1    2    0    0 -0.27623438863E+01 -0.13604355726E+02  0.93585288713E+01  0.16742230245E+02  0.10570000000E+00 0.  1.
         13    1    1    2    0    0  0.27623438863E+01  0.13604355726E+02  0.12031013291E+02  0.18370233852E+02  0.10570000000E+00 0. -1.
<mgrwt>
<rscale>  0 0.27845513E+02</rscale>
<asrwt>0</asrwt>
<pdfrwt beam="1">  1        4 0.43463082E-02 0.27845513E+02</pdfrwt>
<pdfrwt beam="2">  1       -4 0.10556094E-02 0.27845513E+02</pdfrwt>
<totfact> 0.60291944E+05</totfact>
</mgrwt>
</event>
<event>
 4    1  0.5624886E-001  0.4536504E+02  0.7818608E-02  0.1472076E+00
         -4   -1    0    0    0  501 -0.00000000000E+00  0.00000000000E+00  0.10099573872E+02  0.10198911334E+02  0.14200000000E+01 0. -1.
          4   -1    0    0  501    0  0.00000000000E+00 -0.00000000000E+00 -0.50583762606E+02  0.50603689978E+02  0.14200000000E+01 0.  1.
        -13    1    1    2    0    0  0.18205314130E+02  0.14908635087E+01 -0.22187502278E+01  0.18400819591E+02  0.10570000000E+00 0. -1.
         13    1    1    2    0    0 -0.18205314130E+02 -0.14908635087E+01 -0.38265438506E+02  0.42401781721E+02  0.10570000000E+00 0.  1.
<mgrwt>
<rscale>  0 0.45365039E+02</rscale>
<asrwt>0</asrwt>
<pdfrwt beam="2">  1        4 0.77912914E-02 0.45365039E+02</pdfrwt>
<pdfrwt beam="1">  1       -4 0.15629548E-02 0.45365039E+02</pdfrwt>
<totfact> 0.17724218E+05</totfact>
</mgrwt>
</event>
<event>
 4    1  0.5624886E-001  0.2734037E+02  0.7818608E-02  0.1629496E+00
         -4   -1    0    0    0  501 -0.00000000000E+00  0.00000000000E+00  0.44202994541E+02  0.44225797069E+02  0.14200000000E+01 0. -1.
          4   -1    0    0  501    0  0.00000000000E+00 -0.00000000000E+00 -0.40837909990E+01  0.43236268252E+01  0.14200000000E+01 0.  1.
        -13    1    1    2    0    0 -0.11800664393E+02  0.68257004860E+01  0.21850352866E+02  0.25754513393E+02  0.10570000000E+00 0. -1.
         13    1    1    2    0    0  0.11800664393E+02 -0.68257004860E+01  0.18268850676E+02  0.22794910501E+02  0.10570000000E+00 0.  1.
<mgrwt>
<rscale>  0 0.27340374E+02</rscale>
<asrwt>0</asrwt>
<pdfrwt beam="2">  1        4 0.64847851E-03 0.27340374E+02</pdfrwt>
<pdfrwt beam="1">  1       -4 0.68206634E-02 0.27340374E+02</pdfrwt>
<totfact> 0.59792292E+05</totfact>
</mgrwt>
</event>
<event>
 4    1  0.5624886E-001  0.8106520E+02  0.7818608E-02  0.1326055E+00
          4   -1    0    0  501    0  0.00000000000E+00  0.00000000000E+00  0.67096113814E+02  0.67111138337E+02  0.14200000000E+01 0.  1.
         -4   -1    0    0    0  501 -0.00000000000E+00 -0.00000000000E+00 -0.24447272808E+02  0.24488477857E+02  0.14200000000E+01 0. -1.
        -13    1    1    2    0    0 -0.27213640987E+01  0.16671956530E+02  0.62956911315E+02  0.65183922956E+02  0.10570000000E+00 0.  1.
         13    1    1    2    0    0  0.27213640987E+01 -0.16671956530E+02 -0.20308070309E+02  0.26415693238E+02  0.10570000000E+00 0. -1.
<mgrwt>
<rscale>  0 0.81065196E+02</rscale>
<asrwt>0</asrwt>
<pdfrwt beam="1">  1        4 0.10326804E-01 0.81065196E+02</pdfrwt>
<pdfrwt beam="2">  1       -4 0.37654443E-02 0.81065196E+02</pdfrwt>
<totfact> 0.37018693E+04</totfact>
</mgrwt>
</event>
<event>
 4    1  0.5624886E-001  0.4745409E+02  0.7818608E-02  0.1459578E+00
          4   -1    0    0  501    0  0.00000000000E+00  0.00000000000E+00  0.19422058011E+02  0.19473898875E+02  0.14200000000E+01 0.  1.
         -4   -1    0    0    0  501 -0.00000000000E+00 -0.00000000000E+00 -0.28878304851E+02  0.28913195794E+02  0.14200000000E+01 0. -1.
        -13    1    1    2    0    0  0.35935330945E+01  0.22240563006E+02 -0.12317944355E+02  0.25676819284E+02  0.10570000000E+00 0. -1.
         13    1    1    2    0    0 -0.35935330945E+01 -0.22240563006E+02  0.28616975149E+01  0.22710275385E+02  0.10570000000E+00 0.  1.
<mgrwt>
<rscale>  0 0.47454087E+02</rscale>
<asrwt>0</asrwt>
<pdfrwt beam="1">  1        4 0.29946806E-02 0.47454087E+02</pdfrwt>
<pdfrwt beam="2">  1       -4 0.44494878E-02 0.47454087E+02</pdfrwt>
<totfact> 0.16490585E+05</totfact>
</mgrwt>
</event>
<event>
 4    1  0.5624886E-001  0.2096403E+02  0.7818608E-02  0.1726810E+00
         -4   -1    0    0    0  501 -0.00000000000E+00  0.00000000000E+00  0.65660240746E+02  0.65675593753E+02  0.14200000000E+01 0.  1.
          4   -1    0    0  501    0  0.00000000000E+00 -0.00000000000E+00 -0.13536823779E+01  0.19618501422E+01  0.14200000000E+01 0. -1.
        -13    1    1    2    0    0  0.10031428947E+02  0.25959587148E+01  0.27059258914E+02  0.28975562701E+02  0.10570000000E+00 0. -1.
         13    1    1    2    0    0 -0.10031428947E+02 -0.25959587148E+01  0.37247299454E+02  0.38661881195E+02  0.10570000000E+00 0.  1.
<mgrwt>
<rscale>  0 0.20964026E+02</rscale>
<asrwt>0</asrwt>
<pdfrwt beam="2">  1        4 0.25622201E-03 0.20964026E+02</pdfrwt>
<pdfrwt beam="1">  1       -4 0.10149537E-01 0.20964026E+02</pdfrwt>
<totfact> 0.98484367E+05</totfact>
</mgrwt>
</event>
<event>
 4    1  0.5624886E-001  0.5852491E+02  0.7818608E-02  0.1404128E+00
         -4   -1    0    0    0  501 -0.00000000000E+00  0.00000000000E+00  0.14556361158E+02  0.14625458973E+02  0.14200000000E+01 0.  1.
          4   -1    0    0  501    0  0.00000000000E+00 -0.00000000000E+00 -0.58608901066E+02  0.58626100708E+02  0.14200000000E+01 0. -1.
        -13    1    1    2    0    0 -0.28864203843E+02  0.46765505743E+01 -0.23435463383E+02  0.37473250529E+02  0.10570000000E+00 0. -1.
         13    1    1    2    0    0  0.28864203843E+02 -0.46765505743E+01 -0.20617076525E+02  0.35778309151E+02  0.10570000000E+00 0.  1.
<mgrwt>
<rscale>  0 0.58524907E+02</rscale>
<asrwt>0</asrwt>
<pdfrwt beam="2">  1        4 0.90233921E-02 0.58524907E+02</pdfrwt>
<pdfrwt beam="1">  1       -4 0.22460785E-02 0.58524907E+02</pdfrwt>
<totfact> 0.90692931E+04</totfact>
</mgrwt>
</event>
<event>
 4    1  0.5624886E-001  0.2666056E+02  0.7818608E-02  0.1638236E+00
          4   -1    0    0  501    0  0.00000000000E+00  0.00000000000E+00  0.10296898570E+02  0.10394350397E+02  0.14200000000E+01 0. -1.
         -4   -1    0    0    0  501 -0.00000000000E+00 -0.00000000000E+00 -0.17048883588E+02  0.17107917220E+02  0.14200000000E+01 0.  1.
        -13    1    1    2    0    0  0.11110354579E+01  0.11075047151E+02 -0.10941997559E+02  0.15608637104E+02  0.10570000000E+00 0. -1.
         13    1    1    2    0    0 -0.11110354579E+01 -0.11075047151E+02  0.41900125410E+01  0.11893630512E+02  0.10570000000E+00 0.  1.
<mgrwt>
<rscale>  0 0.26660559E+02</rscale>
<asrwt>0</asrwt>
<pdfrwt beam="1">  1        4 0.15961756E-02 0.26660559E+02</pdfrwt>
<pdfrwt beam="2">  1       -4 0.26349425E-02 0.26660559E+02</pdfrwt>
<totfact> 0.68373999E+05</totfact>
</mgrwt>
</event>
<event>
 4    1  0.5624886E-001  0.3552665E+02  0.7818608E-02  0.1543973E+00
         -4   -1    0    0    0  501 -0.00000000000E+00  0.00000000000E+00  0.23958865720E+02  0.24000909287E+02  0.14200000000E+01 0.  1.
          4   -1    0    0  501    0  0.00000000000E+00 -0.00000000000E+00 -0.13077837752E+02  0.13154704111E+02  0.14200000000E+01 0. -1.
        -13    1    1    2    0    0  0.69370212840E+01  0.16255707108E+02  0.35830566180E+01  0.18033849980E+02  0.10570000000E+00 0. -1.
         13    1    1    2    0    0 -0.69370212840E+01 -0.16255707108E+02  0.72979713506E+01  0.19121763418E+02  0.10570000000E+00 0.  1.
<mgrwt>
<rscale>  0 0.35526650E+02</rscale>
<asrwt>0</asrwt>
<pdfrwt beam="2">  1        4 0.20211220E-02 0.35526650E+02</pdfrwt>
<pdfrwt beam="1">  1       -4 0.36951262E-02 0.35526650E+02</pdfrwt>
<totfact> 0.34342316E+05</totfact>
</mgrwt>
</event>
<event>
 4    1  0.5624886E-001  0.2385969E+02  0.7818608E-02  0.1677942E+00
          4   -1    0    0  501    0  0.00000000000E+00  0.00000000000E+00  0.53881295691E+02  0.53900003946E+02  0.14200000000E+01 0. -1.
         -4   -1    0    0    0  501 -0.00000000000E+00 -0.00000000000E+00 -0.24299393558E+01  0.28144280543E+01  0.14200000000E+01 0.  1.
        -13    1    1    2    0    0 -0.11659362201E+02 -0.46977042051E+00  0.19831586522E+02  0.23010093604E+02  0.10570000000E+00 0. -1.
         13    1    1    2    0    0  0.11659362201E+02  0.46977042051E+00  0.31619769814E+02  0.33704338397E+02  0.10570000000E+00 0.  1.
<mgrwt>
<rscale>  0 0.23859688E+02</rscale>
<asrwt>0</asrwt>
<pdfrwt beam="1">  1        4 0.83204448E-02 0.23859688E+02</pdfrwt>
<pdfrwt beam="2">  1       -4 0.40485200E-03 0.23859688E+02</pdfrwt>
<totfact> 0.78041514E+05</totfact>
</mgrwt>
</event>
<event>
 4    1  0.5624886E-001  0.6696495E+02  0.7818608E-02  0.1370729E+00
          4   -1    0    0  501    0  0.00000000000E+00  0.00000000000E+00  0.90396223056E+02  0.90407375489E+02  0.14200000000E+01 0. -1.
         -4   -1    0    0    0  501 -0.00000000000E+00 -0.00000000000E+00 -0.12349195641E+02  0.12430568490E+02  0.14200000000E+01 0.  1.
        -13    1    1    2    0    0  0.31337475344E+02  0.10486958669E+02  0.30746225842E+02  0.45137071672E+02  0.10570000000E+00 0. -1.
         13    1    1    2    0    0 -0.31337475344E+02 -0.10486958669E+02  0.47300801572E+02  0.57700872307E+02  0.10570000000E+00 0.  1.
<mgrwt>
<rscale>  0 0.66964948E+02</rscale>
<asrwt>0</asrwt>
<pdfrwt beam="1">  1        4 0.13914229E-01 0.66964948E+02</pdfrwt>
<pdfrwt beam="2">  1       -4 0.19069935E-02 0.66964948E+02</pdfrwt>
<totfact> 0.59472767E+04</totfact>
</mgrwt>
</event>
<event>
 4    1  0.5624886E-001  0.3592272E+02  0.7818608E-02  0.1540556E+00
          4   -1    0    0  501    0  0.00000000000E+00  0.00000000000E+00  0.43339770874E+01  0.45606751029E+01  0.14200000000E+01 0. -1.
         -4   -1    0    0    0  501 -0.00000000000E+00 -0.00000000000E+00 -0.72306484689E+02  0.72320426769E+02  0.14200000000E+01 0.  1.
        -13    1    1    2    0    0 -0.59191870380E+01 -0.11465628018E+02 -0.72466793095E+01  0.14799423453E+02  0.10570000000E+00 0. -1.
         13    1    1    2    0    0  0.59191870380E+01  0.11465628018E+02 -0.60725828292E+02  0.62081678418E+02  0.10570000000E+00 0.  1.
<mgrwt>
<rscale>  0 0.35922723E+02</rscale>
<asrwt>0</asrwt>
<pdfrwt beam="1">  1        4 0.68527653E-03 0.35922723E+02</pdfrwt>
<pdfrwt beam="2">  1       -4 0.11142584E-01 0.35922723E+02</pdfrwt>
<totfact> 0.29458982E+05</totfact>
</mgrwt>
</event>
<event>
 4    1  0.5624886E-001  0.2044326E+02  0.7818608E-02  0.1736654E+00
         -4   -1    0    0    0  501 -0.00000000000E+00  0.00000000000E+00  0.10804816073E+02  0.10897726845E+02  0.14200000000E+01 0.  1.
          4   -1    0    0  501    0  0.00000000000E+00 -0.00000000000E+00 -0.94825179389E+01  0.95882504380E+01  0.14200000000E+01 0. -1.
        -13    1    1    2    0    0  0.10158789900E+02  0.85142583509E-02 -0.46790006660E+00  0.10170112471E+02  0.10570000000E+00 0. -1.
         13    1    1    2    0    0 -0.10158789900E+02 -0.85142583509E-02  0.17901982010E+01  0.10315864811E+02  0.10570000000E+00 0.  1.
<mgrwt>
<rscale>  0 0.20443258E+02</rscale>
<asrwt>0</asrwt>
<pdfrwt beam="2">  1        4 0.14741292E-02 0.20443258E+02</pdfrwt>
<pdfrwt beam="1">  1       -4 0.16775596E-02 0.20443258E+02</pdfrwt>
<totfact> 0.12413952E+06</totfact>
</mgrwt>
</event>
<event>
 4    1  0.5624886E-001  0.6297768E+02  0.7818608E-02  0.1385744E+00
          4   -1    0    0  501    0  0.00000000000E+00  0.00000000000E+00  0.34409498195E+02  0.34438785781E+02  0.14200000000E+01 0.  1.
         -4   -1    0    0    0  501 -0.00000000000E+00 -0.00000000000E+00 -0.28757017479E+02  0.28792055402E+02  0.14200000000E+01 0. -1.
        -13    1    1    2    0    0 -0.21719173121E+02 -0.22476923354E+02  0.66627847475E+01  0.31958386030E+02  0.10570000000E+00 0. -1.
         13    1    1    2    0    0  0.21719173121E+02  0.22476923354E+02 -0.10103040310E+01  0.31272455153E+02  0.10570000000E+00 0.  1.
<mgrwt>
<rscale>  0 0.62977684E+02</rscale>
<asrwt>0</asrwt>
<pdfrwt beam="1">  1        4 0.52987170E-02 0.62977684E+02</pdfrwt>
<pdfrwt beam="2">  1       -4 0.44291047E-02 0.62977684E+02</pdfrwt>
<totfact> 0.77307315E+04</totfact>
</mgrwt>
</event>
<event>
 4    1  0.5624886E-001  0.8461776E+02  0.7818608E-02  0.1316435E+00
         -4   -1    0    0    0  501 -0.00000000000E+00  0.00000000000E+00  0.82696565619E+01  0.83906864827E+01  0.14200000000E+01 0.  1.
          4   -1    0    0  501    0  0.00000000000E+00 -0.00000000000E+00 -0.21476308678E+03  0.21476778120E+03  0.14200000000E+01 0. -1.
        -13    1    1    2    0    0 -0.24061837086E+02 -0.22010459297E+02 -0.17433513814E+03  0.17735891262E+03  0.10570000000E+00 0. -1.
         13    1    1    2    0    0  0.24061837086E+02  0.22010459297E+02 -0.32158292072E+02  0.45799555062E+02  0.10570000000E+00 0.  1.
<mgrwt>
<rscale>  0 0.84617758E+02</rscale>
<asrwt>0</asrwt>
<pdfrwt beam="2">  1        4 0.33050142E-01 0.84617758E+02</pdfrwt>
<pdfrwt beam="1">  1       -4 0.12819261E-02 0.84617758E+02</pdfrwt>
<totfact> 0.24939337E+04</totfact>
</mgrwt>
</event>
<event>
 4    1  0.5624886E-001  0.2882380E+02  0.7818608E-02  0.1611466E+00
         -4   -1    0    0    0  501 -0.00000000000E+00  0.00000000000E+00  0.21924690789E+01  0.26121486676E+01  0.14200000000E+01 0.  1.
          4   -1    0    0  501    0  0.00000000000E+00 -0.00000000000E+00 -0.86033650834E+02  0.86045368706E+02  0.14200000000E+01 0. -1.
        -13    1    1    2    0    0  0.13654913377E+02  0.23009810337E+01 -0.54201092087E+02  0.55942119454E+02  0.10570000000E+00 0. -1.
         13    1    1    2    0    0 -0.13654913377E+02 -0.23009810337E+01 -0.29640089668E+02  0.32715397920E+02  0.10570000000E+00 0.  1.
<mgrwt>
<rscale>  0 0.28823803E+02</rscale>
<asrwt>0</asrwt>
<pdfrwt beam="2">  1        4 0.13269128E-01 0.28823803E+02</pdfrwt>
<pdfrwt beam="1">  1       -4 0.37048742E-03 0.28823803E+02</pdfrwt>
<totfact> 0.46891992E+05</totfact>
</mgrwt>
</event>
<event>
 4    1  0.5624886E-001  0.2705869E+02  0.7818608E-02  0.1633079E+00
         -4   -1    0    0    0  501 -0.00000000000E+00  0.00000000000E+00  0.82833213104E+01  0.84041544447E+01  0.14200000000E+01 0.  1.
          4   -1    0    0  501    0  0.00000000000E+00 -0.00000000000E+00 -0.21793681702E+02  0.21839893821E+02  0.14200000000E+01 0. -1.
        -13    1    1    2    0    0 -0.35695351344E+01 -0.12485704052E+02 -0.25140836424E+01  0.13227478059E+02  0.10570000000E+00 0. -1.
         13    1    1    2    0    0  0.35695351344E+01  0.12485704052E+02 -0.10996276749E+02  0.17016570207E+02  0.10570000000E+00 0.  1.
<mgrwt>
<rscale>  0 0.27058688E+02</rscale>
<asrwt>0</asrwt>
<pdfrwt beam="2">  1        4 0.33657237E-02 0.27058688E+02</pdfrwt>
<pdfrwt beam="1">  1       -4 0.12872068E-02 0.27058688E+02</pdfrwt>
<totfact> 0.65456178E+05</totfact>
</mgrwt>
</event>
<event>
 4    1  0.5624886E-001  0.3050353E+02  0.7818608E-02  0.1592589E+00
         -4   -1    0    0    0  501 -0.00000000000E+00  0.00000000000E+00  0.35408297738E+01  0.38149541920E+01  0.14200000000E+01 0.  1.
          4   -1    0    0  501    0  0.00000000000E+00 -0.00000000000E+00 -0.62964771082E+02  0.62980781175E+02  0.14200000000E+01 0. -1.
        -13    1    1    2    0    0 -0.99634115987E+01  0.24444278835E+01 -0.54424420734E+02  0.55382971599E+02  0.10570000000E+00 0. -1.
         13    1    1    2    0    0  0.99634115987E+01 -0.24444278835E+01 -0.49995205734E+01  0.11412763768E+02  0.10570000000E+00 0.  1.
<mgrwt>
<rscale>  0 0.30503532E+02</rscale>
<asrwt>0</asrwt>
<pdfrwt beam="2">  1        4 0.97092051E-02 0.30503532E+02</pdfrwt>
<pdfrwt beam="1">  1       -4 0.56706113E-03 0.30503532E+02</pdfrwt>
<totfact> 0.44134720E+05</totfact>
</mgrwt>
</event>
<event>
 4    1  0.5624886E-001  0.3015904E+02  0.7818608E-02  0.1596337E+00
          4   -1    0    0  501    0  0.00000000000E+00  0.00000000000E+00  0.23441265396E+02  0.23484235635E+02  0.14200000000E+01 0. -1.
         -4   -1    0    0    0  501 -0.00000000000E+00 -0.00000000000E+00 -0.95963513470E+01  0.97008432198E+01  0.14200000000E+01 0.  1.
        -13    1    1    2    0    0  0.41955269409E+01  0.10631490332E+02  0.17745521188E+02  0.21107954134E+02  0.10570000000E+00 0. -1.
         13    1    1    2    0    0 -0.41955269409E+01 -0.10631490332E+02 -0.39006071390E+01  0.12077124721E+02  0.10570000000E+00 0.  1.
<mgrwt>
<rscale>  0 0.30159042E+02</rscale>
<asrwt>0</asrwt>
<pdfrwt beam="1">  1        4 0.36176918E-02 0.30159042E+02</pdfrwt>
<pdfrwt beam="2">  1       -4 0.14877050E-02 0.30159042E+02</pdfrwt>
<totfact> 0.50791729E+05</totfact>
</mgrwt>
</event>
<event>
 4    1  0.5624886E-001  0.2728016E+02  0.7818608E-02  0.1630258E+00
          4   -1    0    0  501    0  0.00000000000E+00  0.00000000000E+00  0.34398095458E+02  0.34427392743E+02  0.14200000000E+01 0.  1.
         -4   -1    0    0    0  501 -0.00000000000E+00 -0.00000000000E+00 -0.52833933215E+01  0.54708906944E+01  0.14200000000E+01 0. -1.
        -13    1    1    2    0    0  0.37325242663E+00  0.12291238942E+02  0.23188402618E+02  0.26247420074E+02  0.10570000000E+00 0.  1.
         13    1    1    2    0    0 -0.37325242663E+00 -0.12291238942E+02  0.59262995185E+01  0.13650863364E+02  0.10570000000E+00 0. -1.
<mgrwt>
<rscale>  0 0.27280160E+02</rscale>
<asrwt>0</asrwt>
<pdfrwt beam="1">  1        4 0.53086912E-02 0.27280160E+02</pdfrwt>
<pdfrwt beam="2">  1       -4 0.82950625E-03 0.27280160E+02</pdfrwt>
<totfact> 0.61972867E+05</totfact>
</mgrwt>
</event>
<event>
 4    1  0.5624886E-001  0.5705387E+02  0.7818608E-02  0.1410628E+00
          4   -1    0    0  501    0  0.00000000000E+00  0.00000000000E+00  0.28085708974E+02  0.28121583323E+02  0.14200000000E+01 0.  1.
         -4   -1    0    0    0  501 -0.00000000000E+00 -0.00000000000E+00 -0.28903284087E+02  0.28938144913E+02  0.14200000000E+01 0. -1.
        -13    1    1    2    0    0 -0.16848800846E+02  0.68897222781E+01 -0.22375206643E+02  0.28844607951E+02  0.10570000000E+00 0. -1.
         13    1    1    2    0    0  0.16848800846E+02 -0.68897222781E+01  0.21557631530E+02  0.28215120285E+02  0.10570000000E+00 0.  1.
<mgrwt>
<rscale>  0 0.57053871E+02</rscale>
<asrwt>0</asrwt>
<pdfrwt beam="1">  1        4 0.43263194E-02 0.57053871E+02</pdfrwt>
<pdfrwt beam="2">  1       -4 0.44521003E-02 0.57053871E+02</pdfrwt>
<totfact> 0.10128823E+05</totfact>
</mgrwt>
</event>
<event>
 4    1  0.5624886E-001  0.2893971E+02  0.7818608E-02  0.1610113E+00
         -4   -1    0    0    0  501 -0.00000000000E+00  0.00000000000E+00  0.31254123529E+01  0.34328708650E+01  0.14200000000E+01 0.  1.
          4   -1    0    0  501    0  0.00000000000E+00 -0.00000000000E+00 -0.63535286294E+02  0.63551152661E+02  0.14200000000E+01 0. -1.
        -13    1    1    2    0    0  0.58938038589E+01 -0.10113856149E+02 -0.49891129710E+02  0.51246102353E+02  0.10570000000E+00 0. -1.
         13    1    1    2    0    0 -0.58938038589E+01  0.10113856149E+02 -0.10518744231E+02  0.15737921172E+02  0.10570000000E+00 0.  1.
<mgrwt>
<rscale>  0 0.28939705E+02</rscale>
<asrwt>0</asrwt>
<pdfrwt beam="2">  1        4 0.97995297E-02 0.28939705E+02</pdfrwt>
<pdfrwt beam="1">  1       -4 0.50570386E-03 0.28939705E+02</pdfrwt>
<totfact> 0.49616219E+05</totfact>
</mgrwt>
</event>
<event>
 4    1  0.5624886E-001  0.2429611E+02  0.7818608E-02  0.1671323E+00
         -4   -1    0    0    0  501 -0.00000000000E+00  0.00000000000E+00  0.84085980866E+01  0.85276562889E+01  0.14200000000E+01 0.  1.
          4   -1    0    0  501    0  0.00000000000E+00 -0.00000000000E+00 -0.17278749680E+02  0.17337000621E+02  0.14200000000E+01 0. -1.
        -13    1    1    2    0    0  0.92708568515E+00 -0.12027132028E+02 -0.29098709715E+01  0.12409267273E+02  0.10570000000E+00 0.  1.
         13    1    1    2    0    0 -0.92708568515E+00  0.12027132028E+02 -0.59602806224E+01  0.13455389637E+02  0.10570000000E+00 0. -1.
<mgrwt>
<rscale>  0 0.24296108E+02</rscale>
<asrwt>0</asrwt>
<pdfrwt beam="2">  1        4 0.26719084E-02 0.24296108E+02</pdfrwt>
<pdfrwt beam="1">  1       -4 0.13072696E-02 0.24296108E+02</pdfrwt>
<totfact> 0.84290140E+05</totfact>
</mgrwt>
</event>
<event>
 4    1  0.5624886E-001  0.3031774E+03  0.7818608E-02  0.1083663E+00
          4   -1    0    0  501    0  0.00000000000E+00  0.00000000000E+00  0.83305393588E+02  0.83317495167E+02  0.14200000000E+01 0. -1.
         -4   -1    0    0    0  501 -0.00000000000E+00 -0.00000000000E+00 -0.27580809232E+03  0.27581174774E+03  0.14200000000E+01 0.  1.
        -13    1    1    2    0    0 -0.19909161098E+02  0.99754655928E+02 -0.22938437418E+03  0.25092741653E+03  0.10570000000E+00 0.  1.
         13    1    1    2    0    0  0.19909161098E+02 -0.99754655928E+02  0.36881675447E+02  0.10820182638E+03  0.10570000000E+00 0. -1.
<mgrwt>
<rscale>  0 0.30317738E+03</rscale>
<asrwt>0</asrwt>
<pdfrwt beam="1">  1        4 0.12817427E-01 0.30317738E+03</pdfrwt>
<pdfrwt beam="2">  1       -4 0.42433226E-01 0.30317738E+03</pdfrwt>
<totfact> 0.50863917E+02</totfact>
</mgrwt>
</event>
<event>
 4    1  0.5624886E-001  0.1372403E+03  0.7818608E-02  0.1217091E+00
          4   -1    0    0  501    0  0.00000000000E+00  0.00000000000E+00  0.70768151317E+02  0.70782396405E+02  0.14200000000E+01 0.  1.
         -4   -1    0    0    0  501 -0.00000000000E+00 -0.00000000000E+00 -0.66508865636E+02  0.66524022790E+02  0.14200000000E+01 0. -1.
        -13    1    1    2    0    0  0.28365348088E+02  0.37186259243E+02 -0.48107139238E+02  0.67094849779E+02  0.10570000000E+00 0. -1.
         13    1    1    2    0    0 -0.28365348088E+02 -0.37186259243E+02  0.52366424919E+02  0.70211569417E+02  0.10570000000E+00 0.  1.
<mgrwt>
<rscale>  0 0.13724034E+03</rscale>
<asrwt>0</asrwt>
<pdfrwt beam="1">  1        4 0.10889670E-01 0.13724034E+03</pdfrwt>
<pdfrwt beam="2">  1       -4 0.10234395E-01 0.13724034E+03</pdfrwt>
<totfact> 0.78167429E+03</totfact>
</mgrwt>
</event>
<event>
 4    1  0.5624886E-001  0.3201867E+02  0.7818608E-02  0.1576790E+00
         -4   -1    0    0    0  501 -0.00000000000E+00  0.00000000000E+00  0.56124489514E+02  0.56142450278E+02  0.14200000000E+01 0. -1.
          4   -1    0    0  501    0  0.00000000000E+00 -0.00000000000E+00 -0.44370609957E+01  0.46587455694E+01  0.14200000000E+01 0.  1.
        -13    1    1    2    0    0  0.10478812434E+02 -0.10757507346E+02  0.36375181678E+02  0.39353455871E+02  0.10570000000E+00 0. -1.
         13    1    1    2    0    0 -0.10478812434E+02  0.10757507346E+02  0.15312246840E+02  0.21447739977E+02  0.10570000000E+00 0.  1.
<mgrwt>
<rscale>  0 0.32018669E+02</rscale>
<asrwt>0</asrwt>
<pdfrwt beam="2">  1        4 0.70105895E-03 0.32018669E+02</pdfrwt>
<pdfrwt beam="1">  1       -4 0.86529720E-02 0.32018669E+02</pdfrwt>
<totfact> 0.40304368E+05</totfact>
</mgrwt>
</event>
<event>
 4    1  0.5624886E-001  0.2935081E+02  0.7818608E-02  0.1605377E+00
         -4   -1    0    0    0  501 -0.00000000000E+00  0.00000000000E+00  0.24050134881E+01  0.27929357096E+01  0.14200000000E+01 0.  1.
          4   -1    0    0  501    0  0.00000000000E+00 -0.00000000000E+00 -0.82471828233E+02  0.82484052107E+02  0.14200000000E+01 0. -1.
        -13    1    1    2    0    0 -0.43439212976E+01 -0.11621433144E+02 -0.62805255030E+02  0.64019048668E+02  0.10570000000E+00 0. -1.
         13    1    1    2    0    0  0.43439212976E+01  0.11621433144E+02 -0.17261559715E+02  0.21257939149E+02  0.10570000000E+00 0.  1.
<mgrwt>
<rscale>  0 0.29350806E+02</rscale>
<asrwt>0</asrwt>
<pdfrwt beam="2">  1        4 0.12718752E-01 0.29350806E+02</pdfrwt>
<pdfrwt beam="1">  1       -4 0.40078261E-03 0.29350806E+02</pdfrwt>
<totfact> 0.45496064E+05</totfact>
</mgrwt>
</event>
<event>
 4    1  0.5624886E-001  0.3498350E+02  0.7818608E-02  0.1548747E+00
         -4   -1    0    0    0  501 -0.00000000000E+00  0.00000000000E+00  0.15568535268E+02  0.15633159962E+02  0.14200000000E+01 0. -1.
          4   -1    0    0  501    0  0.00000000000E+00 -0.00000000000E+00 -0.19521377757E+02  0.19572955564E+02  0.14200000000E+01 0.  1.
        -13    1    1    2    0    0  0.12896442458E+02 -0.91902998568E+01  0.54985206116E+01  0.16763792558E+02  0.10570000000E+00 0.  1.
         13    1    1    2    0    0 -0.12896442458E+02  0.91902998568E+01 -0.94513631000E+01  0.18442322968E+02  0.10570000000E+00 0. -1.
<mgrwt>
<rscale>  0 0.34983505E+02</rscale>
<asrwt>0</asrwt>
<pdfrwt beam="2">  1        4 0.30122276E-02 0.34983505E+02</pdfrwt>
<pdfrwt beam="1">  1       -4 0.24040979E-02 0.34983505E+02</pdfrwt>
<totfact> 0.35847394E+05</totfact>
</mgrwt>
</event>
<event>
 4    1  0.5624886E-001  0.3746191E+02  0.7818608E-02  0.1527765E+00
         -4   -1    0    0    0  501 -0.00000000000E+00  0.00000000000E+00  0.43273168763E+02  0.43296460996E+02  0.14200000000E+01 0. -1.
          4   -1    0    0  501    0  0.00000000000E+00 -0.00000000000E+00 -0.80199031229E+01  0.81446452410E+01  0.14200000000E+01 0.  1.
        -13    1    1    2    0    0  0.13524432386E+02 -0.82637146184E+01  0.31333349072E+02  0.35113945765E+02  0.10570000000E+00 0. -1.
         13    1    1    2    0    0 -0.13524432386E+02  0.82637146184E+01  0.39199165678E+01  0.16327160471E+02  0.10570000000E+00 0.  1.
<mgrwt>
<rscale>  0 0.37461910E+02</rscale>
<asrwt>0</asrwt>
<pdfrwt beam="2">  1        4 0.12452185E-02 0.37461910E+02</pdfrwt>
<pdfrwt beam="1">  1       -4 0.66687979E-02 0.37461910E+02</pdfrwt>
<totfact> 0.28878320E+05</totfact>
</mgrwt>
</event>
<event>
 4    1  0.5624886E-001  0.4277617E+02  0.7818608E-02  0.1488722E+00
         -4   -1    0    0    0  501 -0.00000000000E+00  0.00000000000E+00  0.92619862649E+02  0.92630747364E+02  0.14200000000E+01 0.  1.
          4   -1    0    0  501    0  0.00000000000E+00 -0.00000000000E+00 -0.48255292141E+01  0.50301224832E+01  0.14200000000E+01 0. -1.
        -13    1    1    2    0    0 -0.14844818025E+02 -0.14496725073E+01  0.89007322190E+01  0.17369639579E+02  0.10570000000E+00 0. -1.
         13    1    1    2    0    0  0.14844818025E+02  0.14496725073E+01  0.78893601216E+02  0.80291230268E+02  0.10570000000E+00 0.  1.
<mgrwt>
<rscale>  0 0.42776168E+02</rscale>
<asrwt>0</asrwt>
<pdfrwt beam="2">  1        4 0.75896436E-03 0.42776168E+02</pdfrwt>
<pdfrwt beam="1">  1       -4 0.14265785E-01 0.42776168E+02</pdfrwt>
<totfact> 0.18411739E+05</totfact>
</mgrwt>
</event>
<event>
 4    1  0.5624886E-001  0.3762067E+02  0.7818608E-02  0.1526488E+00
         -4   -1    0    0    0  501 -0.00000000000E+00  0.00000000000E+00  0.88095667581E+02  0.88107111215E+02  0.14200000000E+01 0.  1.
          4   -1    0    0  501    0  0.00000000000E+00 -0.00000000000E+00 -0.38788242141E+01  0.41305783232E+01  0.14200000000E+01 0. -1.
        -13    1    1    2    0    0 -0.15593271737E+02 -0.10492354160E+02  0.43972218751E+02  0.47820568939E+02  0.10570000000E+00 0. -1.
         13    1    1    2    0    0  0.15593271737E+02  0.10492354160E+02  0.40244624616E+02  0.44417120599E+02  0.10570000000E+00 0.  1.
<mgrwt>
<rscale>  0 0.37620668E+02</rscale>
<asrwt>0</asrwt>
<pdfrwt beam="2">  1        4 0.61698821E-03 0.37620668E+02</pdfrwt>
<pdfrwt beam="1">  1       -4 0.13573425E-01 0.37620668E+02</pdfrwt>
<totfact> 0.25318422E+05</totfact>
</mgrwt>
</event>
<event>
 4    1  0.5624886E-001  0.3926498E+02  0.7818608E-02  0.1513691E+00
         -4   -1    0    0    0  501 -0.00000000000E+00  0.00000000000E+00  0.79536899615E+01  0.80794544373E+01  0.14200000000E+01 0. -1.
          4   -1    0    0  501    0  0.00000000000E+00 -0.00000000000E+00 -0.47943382288E+02  0.47964406649E+02  0.14200000000E+01 0. -1.
        -13    1    1    2    0    0  0.96220171054E+01 -0.17080357660E+02 -0.21493002843E+02  0.29090929422E+02  0.10570000000E+00 0.  1.
         13    1    1    2    0    0 -0.96220171054E+01  0.17080357660E+02 -0.18496689483E+02  0.26952931664E+02  0.10570000000E+00 0. -1.
<mgrwt>
<rscale>  0 0.39264983E+02</rscale>
<asrwt>0</asrwt>
<pdfrwt beam="2">  1        4 0.73871963E-02 0.39264983E+02</pdfrwt>
<pdfrwt beam="1">  1       -4 0.12349361E-02 0.39264983E+02</pdfrwt>
<totfact> 0.25459515E+05</totfact>
</mgrwt>
</event>
<event>
 4    1  0.5624886E-001  0.6908527E+02  0.7818608E-02  0.1363232E+00
         -4   -1    0    0    0  501 -0.00000000000E+00  0.00000000000E+00  0.59562850708E+01  0.61232125428E+01  0.14200000000E+01 0. -1.
          4   -1    0    0  501    0  0.00000000000E+00 -0.00000000000E+00 -0.19738730885E+03  0.19739241651E+03  0.14200000000E+01 0.  1.
        -13    1    1    2    0    0  0.16419048426E+02  0.29676358657E+02 -0.76418205097E+02  0.83606367324E+02  0.10570000000E+00 0.  1.
         13    1    1    2    0    0 -0.16419048426E+02 -0.29676358657E+02 -0.11501281868E+03  0.11990926173E+03  0.10570000000E+00 0. -1.
<mgrwt>
<rscale>  0 0.69085269E+02</rscale>
<asrwt>0</asrwt>
<pdfrwt beam="2">  1        4 0.30380507E-01 0.69085269E+02</pdfrwt>
<pdfrwt beam="1">  1       -4 0.92958517E-03 0.69085269E+02</pdfrwt>
<totfact> 0.43957675E+04</totfact>
</mgrwt>
</event>
<event>
 4    1  0.5624886E-001  0.3285907E+02  0.7818608E-02  0.1568478E+00
          4   -1    0    0  501    0  0.00000000000E+00  0.00000000000E+00  0.44907285863E+01  0.47098878157E+01  0.14200000000E+01 0.  1.
         -4   -1    0    0    0  501 -0.00000000000E+00 -0.00000000000E+00 -0.58448442924E+02  0.58465689770E+02  0.14200000000E+01 0. -1.
        -13    1    1    2    0    0  0.14338637885E+02 -0.21282377776E+01 -0.12112057249E+02  0.18890183581E+02  0.10570000000E+00 0.  1.
         13    1    1    2    0    0 -0.14338637885E+02  0.21282377776E+01 -0.41845657089E+02  0.44285394005E+02  0.10570000000E+00 0. -1.
<mgrwt>
<rscale>  0 0.32859073E+02</rscale>
<asrwt>0</asrwt>
<pdfrwt beam="1">  1        4 0.70906645E-03 0.32859073E+02</pdfrwt>
<pdfrwt beam="2">  1       -4 0.90102527E-02 0.32859073E+02</pdfrwt>
<totfact> 0.37707113E+05</totfact>
</mgrwt>
</event>
<event>
 4    1  0.5624886E-001  0.2577877E+02  0.7818608E-02  0.1650062E+00
          4   -1    0    0  501    0  0.00000000000E+00  0.00000000000E+00  0.24450137797E+01  0.28274533388E+01  0.14200000000E+01 0. -1.
         -4   -1    0    0    0  501 -0.00000000000E+00 -0.00000000000E+00 -0.62629216897E+02  0.62645312747E+02  0.14200000000E+01 0.  1.
        -13    1    1    2    0    0 -0.40430472134E+01 -0.10648441883E+02 -0.14771123583E+02  0.18652957130E+02  0.10570000000E+00 0.  1.
         13    1    1    2    0    0  0.40430472134E+01  0.10648441883E+02 -0.45413079535E+02  0.46819808955E+02  0.10570000000E+00 0. -1.
<mgrwt>
<rscale>  0 0.25778766E+02</rscale>
<asrwt>0</asrwt>
<pdfrwt beam="1">  1        4 0.40681258E-03 0.25778766E+02</pdfrwt>
<pdfrwt beam="2">  1       -4 0.96659196E-02 0.25778766E+02</pdfrwt>
<totfact> 0.64226847E+05</totfact>
</mgrwt>
</event>
<event>
 4    1  0.5624886E-001  0.3509430E+02  0.7818608E-02  0.1547765E+00
         -4   -1    0    0    0  501 -0.00000000000E+00  0.00000000000E+00  0.11324967478E+03  0.11325857689E+03  0.14200000000E+01 0. -1.
          4   -1    0    0  501    0  0.00000000000E+00 -0.00000000000E+00 -0.25237466874E+01  0.28958068551E+01  0.14200000000E+01 0.  1.
        -13    1    1    2    0    0  0.21984625988E+01 -0.15656536052E+02  0.30171455463E+02  0.34063004216E+02  0.10570000000E+00 0.  1.
         13    1    1    2    0    0 -0.21984625988E+01  0.15656536052E+02  0.80554472632E+02  0.82091379526E+02  0.10570000000E+00 0. -1.
<mgrwt>
<rscale>  0 0.35094297E+02</rscale>
<asrwt>0</asrwt>
<pdfrwt beam="2">  1        4 0.41757339E-03 0.35094297E+02</pdfrwt>
<pdfrwt beam="1">  1       -4 0.17452337E-01 0.35094297E+02</pdfrwt>
<totfact> 0.27911793E+05</totfact>
</mgrwt>
</event>
<event>
 4    1  0.5624886E-001  0.2220458E+02  0.7818608E-02  0.1704738E+00
          4   -1    0    0  501    0  0.00000000000E+00  0.00000000000E+00  0.10032377596E+03  0.10033382492E+03  0.14200000000E+01 0.  1.
         -4   -1    0    0    0  501 -0.00000000000E+00 -0.00000000000E+00 -0.80479391875E+00  0.16322050275E+01  0.14200000000E+01 0. -1.
        -13    1    1    2    0    0  0.10699504902E+02  0.27757360334E+01  0.45019187710E+02  0.46356472582E+02  0.10570000000E+00 0.  1.
         13    1    1    2    0    0 -0.10699504902E+02 -0.27757360334E+01  0.54499794336E+02  0.55609557369E+02  0.10570000000E+00 0. -1.
<mgrwt>
<rscale>  0 0.22204582E+02</rscale>
<asrwt>0</asrwt>
<pdfrwt beam="1">  1        4 0.15498844E-01 0.22204582E+02</pdfrwt>
<pdfrwt beam="2">  1       -4 0.18823449E-03 0.22204582E+02</pdfrwt>
<totfact> 0.78808729E+05</totfact>
</mgrwt>
</event>
<event>
 4    1  0.5624886E-001  0.2330220E+02  0.7818608E-02  0.1686658E+00
         -4   -1    0    0    0  501 -0.00000000000E+00  0.00000000000E+00  0.21051888268E+01  0.25393345578E+01  0.14200000000E+01 0. -1.
          4   -1    0    0  501    0  0.00000000000E+00 -0.00000000000E+00 -0.58011496213E+02  0.58028872924E+02  0.14200000000E+01 0.  1.
        -13    1    1    2    0    0 -0.74681597698E+01  0.79158000375E+01 -0.38765422471E+02  0.40264158409E+02  0.10570000000E+00 0.  1.
         13    1    1    2    0    0  0.74681597698E+01 -0.79158000375E+01 -0.17140884915E+02  0.20304049073E+02  0.10570000000E+00 0. -1.
<mgrwt>
<rscale>  0 0.23302201E+02</rscale>
<asrwt>0</asrwt>
<pdfrwt beam="2">  1        4 0.89595770E-02 0.23302201E+02</pdfrwt>
<pdfrwt beam="1">  1       -4 0.35860774E-03 0.23302201E+02</pdfrwt>
<totfact> 0.80972339E+05</totfact>
</mgrwt>
</event>
<event>
 4    1  0.5624886E-001  0.3115120E+02  0.7818608E-02  0.1585701E+00
          4   -1    0    0  501    0  0.00000000000E+00  0.00000000000E+00  0.96783993841E+01  0.97820148557E+01  0.14200000000E+01 0.  1.
         -4   -1    0    0    0  501 -0.00000000000E+00 -0.00000000000E+00 -0.24808574503E+02  0.24849180446E+02  0.14200000000E+01 0. -1.
        -13    1    1    2    0    0 -0.10412749935E+02  0.47154788565E+01 -0.19326521422E+02  0.22454102182E+02  0.10570000000E+00 0. -1.
         13    1    1    2    0    0  0.10412749935E+02 -0.47154788565E+01  0.41963463037E+01  0.12177093119E+02  0.10570000000E+00 0.  1.
<mgrwt>
<rscale>  0 0.31151204E+02</rscale>
<asrwt>0</asrwt>
<pdfrwt beam="1">  1        4 0.15000785E-02 0.31151204E+02</pdfrwt>
<pdfrwt beam="2">  1       -4 0.38277977E-02 0.31151204E+02</pdfrwt>
<totfact> 0.46933804E+05</totfact>
</mgrwt>
</event>
<event>
 4    1  0.5624886E-001  0.2695360E+02  0.7818608E-02  0.1634430E+00
         -4   -1    0    0    0  501 -0.00000000000E+00  0.00000000000E+00  0.11277754426E+02  0.11366800117E+02  0.14200000000E+01 0. -1.
          4   -1    0    0  501    0  0.00000000000E+00 -0.00000000000E+00 -0.15920541980E+02  0.15983743521E+02  0.14200000000E+01 0.  1.
        -13    1    1    2    0    0  0.57197081963E+01  0.11291848407E+02 -0.70146686325E+01  0.14471960849E+02  0.10570000000E+00 0.  1.
         13    1    1    2    0    0 -0.57197081963E+01 -0.11291848407E+02  0.23718810787E+01  0.12878582789E+02  0.10570000000E+00 0. -1.
<mgrwt>
<rscale>  0 0.26953604E+02</rscale>
<asrwt>0</asrwt>
<pdfrwt beam="2">  1        4 0.24610255E-02 0.26953604E+02</pdfrwt>
<pdfrwt beam="1">  1       -4 0.17467505E-02 0.26953604E+02</pdfrwt>
<totfact> 0.66785771E+05</totfact>
</mgrwt>
</event>
<event>
 4    1  0.5624886E-001  0.4804851E+02  0.7818608E-02  0.1456161E+00
         -4   -1    0    0    0  501 -0.00000000000E+00  0.00000000000E+00  0.11038406726E+02  0.11129367594E+02  0.14200000000E+01 0. -1.
          4   -1    0    0  501    0  0.00000000000E+00 -0.00000000000E+00 -0.51971712475E+02  0.51991107871E+02  0.14200000000E+01 0.  1.
        -13    1    1    2    0    0 -0.16466060637E+02  0.68097932195E+01 -0.41634846549E+02  0.45287703146E+02  0.10570000000E+00 0.  1.
         13    1    1    2    0    0  0.16466060637E+02 -0.68097932195E+01  0.70154079926E+00  0.17832772319E+02  0.10570000000E+00 0. -1.
<mgrwt>
<rscale>  0 0.48048506E+02</rscale>
<asrwt>0</asrwt>
<pdfrwt beam="2">  1        4 0.80041369E-02 0.48048506E+02</pdfrwt>
<pdfrwt beam="1">  1       -4 0.17067054E-02 0.48048506E+02</pdfrwt>
<totfact> 0.15289779E+05</totfact>
</mgrwt>
</event>
<event>
 4    1  0.5624886E-001  0.2051498E+02  0.7818608E-02  0.1735277E+00
         -4   -1    0    0    0  501 -0.00000000000E+00  0.00000000000E+00  0.16126480052E+02  0.16188877629E+02  0.14200000000E+01 0.  1.
          4   -1    0    0  501    0  0.00000000000E+00 -0.00000000000E+00 -0.63711194490E+01  0.65274469001E+01  0.14200000000E+01 0. -1.
        -13    1    1    2    0    0  0.31953531148E+00 -0.10024917373E+02  0.72535748985E+01  0.12378472945E+02  0.10570000000E+00 0.  1.
         13    1    1    2    0    0 -0.31953531148E+00  0.10024917373E+02  0.25017857048E+01  0.10337851584E+02  0.10570000000E+00 0. -1.
<mgrwt>
<rscale>  0 0.20514978E+02</rscale>
<asrwt>0</asrwt>
<pdfrwt beam="2">  1        4 0.99699723E-03 0.20514978E+02</pdfrwt>
<pdfrwt beam="1">  1       -4 0.24978219E-02 0.20514978E+02</pdfrwt>
<totfact> 0.12201568E+06</totfact>
</mgrwt>
</event>
<event>
 4    1  0.5624886E-001  0.4224828E+02  0.7818608E-02  0.1492290E+00
         -4   -1    0    0    0  501 -0.00000000000E+00  0.00000000000E+00  0.24121523488E+02  0.24163284035E+02  0.14200000000E+01 0. -1.
          4   -1    0    0  501    0  0.00000000000E+00 -0.00000000000E+00 -0.18414095830E+02  0.18468766208E+02  0.14200000000E+01 0.  1.
        -13    1    1    2    0    0 -0.10806536422E+02 -0.12351047656E+02 -0.10567041674E+02  0.19519301982E+02  0.10570000000E+00 0.  1.
         13    1    1    2    0    0  0.10806536422E+02  0.12351047656E+02  0.16274469332E+02  0.23112748261E+02  0.10570000000E+00 0. -1.
<mgrwt>
<rscale>  0 0.42248278E+02</rscale>
<asrwt>0</asrwt>
<pdfrwt beam="2">  1        4 0.28403556E-02 0.42248278E+02</pdfrwt>
<pdfrwt beam="1">  1       -4 0.37184214E-02 0.42248278E+02</pdfrwt>
<totfact> 0.22315661E+05</totfact>
</mgrwt>
</event>
<event>
 4    1  0.5624886E-001  0.3328823E+02  0.7818608E-02  0.1564349E+00
         -4   -1    0    0    0  501 -0.00000000000E+00  0.00000000000E+00  0.14714652895E+01  0.20448985545E+01  0.14200000000E+01 0. -1.
          4   -1    0    0  501    0  0.00000000000E+00 -0.00000000000E+00 -0.15698707948E+03  0.15699350153E+03  0.14200000000E+01 0.  1.
        -13    1    1    2    0    0  0.25439997630E+00 -0.16199923377E+02 -0.59556906452E+02  0.61721459115E+02  0.10570000000E+00 0. -1.
         13    1    1    2    0    0 -0.25439997630E+00  0.16199923377E+02 -0.95958707736E+02  0.97316940970E+02  0.10570000000E+00 0.  1.
<mgrwt>
<rscale>  0 0.33288233E+02</rscale>
<asrwt>0</asrwt>
<pdfrwt beam="2">  1        4 0.24196452E-01 0.33288233E+02</pdfrwt>
<pdfrwt beam="1">  1       -4 0.27098365E-03 0.33288233E+02</pdfrwt>
<totfact> 0.28336241E+05</totfact>
</mgrwt>
</event>
<event>
 4    1  0.5624886E-001  0.2373210E+02  0.7818608E-02  0.1679911E+00
         -4   -1    0    0    0  501 -0.00000000000E+00  0.00000000000E+00  0.39889666349E+01  0.42341769938E+01  0.14200000000E+01 0.  1.
          4   -1    0    0  501    0  0.00000000000E+00 -0.00000000000E+00 -0.33985101336E+02  0.34014754340E+02  0.14200000000E+01 0. -1.
        -13    1    1    2    0    0  0.11276586567E+02  0.56988445688E+00 -0.20877073096E+02  0.23734985284E+02  0.10570000000E+00 0. -1.
         13    1    1    2    0    0 -0.11276586567E+02 -0.56988445688E+00 -0.91190616050E+01  0.14513946050E+02  0.10570000000E+00 0.  1.
<mgrwt>
<rscale>  0 0.23732102E+02</rscale>
<asrwt>0</asrwt>
<pdfrwt beam="2">  1        4 0.52496203E-02 0.23732102E+02</pdfrwt>
<pdfrwt beam="1">  1       -4 0.63483053E-03 0.23732102E+02</pdfrwt>
<totfact> 0.84362801E+05</totfact>
</mgrwt>
</event>
<event>
 4    1  0.5624886E-001  0.3012453E+02  0.7818608E-02  0.1596716E+00
          4   -1    0    0  501    0  0.00000000000E+00  0.00000000000E+00  0.63035898869E+01  0.64615513201E+01  0.14200000000E+01 0. -1.
         -4   -1    0    0    0  501 -0.00000000000E+00 -0.00000000000E+00 -0.35373153513E+02  0.35401643881E+02  0.14200000000E+01 0.  1.
        -13    1    1    2    0    0 -0.17932305979E+01 -0.11848019362E+02 -0.18537391095E+01  0.12125953981E+02  0.10570000000E+00 0. -1.
         13    1    1    2    0    0  0.17932305979E+01  0.11848019362E+02 -0.27215824517E+02  0.29737241220E+02  0.10570000000E+00 0.  1.
<mgrwt>
<rscale>  0 0.30124535E+02</rscale>
<asrwt>0</asrwt>
<pdfrwt beam="1">  1        4 0.98412552E-03 0.30124535E+02</pdfrwt>
<pdfrwt beam="2">  1       -4 0.54563660E-02 0.30124535E+02</pdfrwt>
<totfact> 0.49329356E+05</totfact>
</mgrwt>
</event>
<event>
 4    1  0.5624886E-001  0.3528988E+02  0.7818608E-02  0.1546041E+00
          4   -1    0    0  501    0  0.00000000000E+00  0.00000000000E+00  0.25853775033E+02  0.25892741907E+02  0.14200000000E+01 0.  1.
         -4   -1    0    0    0  501 -0.00000000000E+00 -0.00000000000E+00 -0.11952399037E+02  0.12036454741E+02  0.14200000000E+01 0. -1.
        -13    1    1    2    0    0 -0.10639891646E+02 -0.94500935694E+01 -0.42612370759E+01  0.14855331589E+02  0.10570000000E+00 0. -1.
         13    1    1    2    0    0  0.10639891646E+02  0.94500935694E+01  0.18162613072E+02  0.23073865060E+02  0.10570000000E+00 0.  1.
<mgrwt>
<rscale>  0 0.35289881E+02</rscale>
<asrwt>0</asrwt>
<pdfrwt beam="1">  1        4 0.39869671E-02 0.35289881E+02</pdfrwt>
<pdfrwt beam="2">  1       -4 0.18482939E-02 0.35289881E+02</pdfrwt>
<totfact> 0.34786279E+05</totfact>
</mgrwt>
</event>
<event>
 4    1  0.5624886E-001  0.7779191E+02  0.7818608E-02  0.1335437E+00
          4   -1    0    0  501    0  0.00000000000E+00  0.00000000000E+00  0.65103562551E+02  0.65119046805E+02  0.14200000000E+01 0.  1.
         -4   -1    0    0    0  501 -0.00000000000E+00 -0.00000000000E+00 -0.23198329734E+02  0.23241749126E+02  0.14200000000E+01 0. -1.
        -13    1    1    2    0    0  0.27652688159E+02 -0.13981437990E+02  0.47657006507E+02  0.56844992852E+02  0.10570000000E+00 0.  1.
         13    1    1    2    0    0 -0.27652688159E+02  0.13981437990E+02 -0.57517736896E+01  0.31515803079E+02  0.10570000000E+00 0. -1.
<mgrwt>
<rscale>  0 0.77791913E+02</rscale>
<asrwt>0</asrwt>
<pdfrwt beam="1">  1        4 0.10020464E-01 0.77791913E+02</pdfrwt>
<pdfrwt beam="2">  1       -4 0.35735048E-02 0.77791913E+02</pdfrwt>
<totfact> 0.41642263E+04</totfact>
</mgrwt>
</event>
<event>
 4    1  0.5624886E-001  0.3501341E+02  0.7818608E-02  0.1548482E+00
          4   -1    0    0  501    0  0.00000000000E+00  0.00000000000E+00  0.29537619621E+02  0.29571732666E+02  0.14200000000E+01 0.  1.
         -4   -1    0    0    0  501 -0.00000000000E+00 -0.00000000000E+00 -0.10287177008E+02  0.10384720063E+02  0.14200000000E+01 0. -1.
        -13    1    1    2    0    0 -0.22271948667E+00 -0.11271206616E+02 -0.56590290141E+01  0.12614495012E+02  0.10570000000E+00 0. -1.
         13    1    1    2    0    0  0.22271948667E+00  0.11271206616E+02  0.24909471627E+02  0.27341957717E+02  0.10570000000E+00 0.  1.
<mgrwt>
<rscale>  0 0.35013406E+02</rscale>
<asrwt>0</asrwt>
<pdfrwt beam="1">  1        4 0.45543766E-02 0.35013406E+02</pdfrwt>
<pdfrwt beam="2">  1       -4 0.15927700E-02 0.35013406E+02</pdfrwt>
<totfact> 0.35176634E+05</totfact>
</mgrwt>
</event>
<event>
 4    1  0.5624886E-001  0.2679033E+02  0.7818608E-02  0.1636543E+00
         -4   -1    0    0    0  501 -0.00000000000E+00  0.00000000000E+00  0.42467149666E+02  0.42490883737E+02  0.14200000000E+01 0.  1.
          4   -1    0    0  501    0  0.00000000000E+00 -0.00000000000E+00 -0.40801914657E+01  0.43202271233E+01  0.14200000000E+01 0. -1.
        -13    1    1    2    0    0 -0.10606493154E+02  0.68153150099E+01  0.27099567514E+02  0.29888859926E+02  0.10570000000E+00 0.  1.
         13    1    1    2    0    0  0.10606493154E+02 -0.68153150099E+01  0.11287390686E+02  0.16922250935E+02  0.10570000000E+00 0. -1.
<mgrwt>
<rscale>  0 0.26790325E+02</rscale>
<asrwt>0</asrwt>
<pdfrwt beam="2">  1        4 0.64801176E-03 0.26790325E+02</pdfrwt>
<pdfrwt beam="1">  1       -4 0.65536974E-02 0.26790325E+02</pdfrwt>
<totfact> 0.62903935E+05</totfact>
</mgrwt>
</event>
<event>
 4    1  0.5624886E-001  0.2913368E+02  0.7818608E-02  0.1607867E+00
         -4   -1    0    0    0  501 -0.00000000000E+00  0.00000000000E+00  0.44360034587E+01  0.46577383659E+01  0.14200000000E+01 0. -1.
          4   -1    0    0  501    0  0.00000000000E+00 -0.00000000000E+00 -0.46435012325E+02  0.46456719316E+02  0.14200000000E+01 0.  1.
        -13    1    1    2    0    0 -0.11575853330E+02 -0.55312174234E+01 -0.33102473331E+02  0.35501826144E+02  0.10570000000E+00 0.  1.
         13    1    1    2    0    0  0.11575853330E+02  0.55312174234E+01 -0.88965355355E+01  0.15612631537E+02  0.10570000000E+00 0. -1.
<mgrwt>
<rscale>  0 0.29133675E+02</rscale>
<asrwt>0</asrwt>
<pdfrwt beam="2">  1        4 0.71625740E-02 0.29133675E+02</pdfrwt>
<pdfrwt beam="1">  1       -4 0.70118840E-03 0.29133675E+02</pdfrwt>
<totfact> 0.51490806E+05</totfact>
</mgrwt>
</event>
<event>
 4    1  0.5624886E-001  0.3989067E+02  0.7818608E-02  0.1509018E+00
          4   -1    0    0  501    0  0.00000000000E+00  0.00000000000E+00  0.13541125259E+02  0.13615376354E+02  0.14200000000E+01 0.  1.
         -4   -1    0    0    0  501 -0.00000000000E+00 -0.00000000000E+00 -0.29206514897E+02  0.29241014216E+02  0.14200000000E+01 0. -1.
        -13    1    1    2    0    0 -0.18118623598E+02  0.67416843919E+01 -0.25617766772E+01  0.19501505115E+02  0.10570000000E+00 0.  1.
         13    1    1    2    0    0  0.18118623598E+02 -0.67416843919E+01 -0.13103612961E+02  0.23354885455E+02  0.10570000000E+00 0. -1.
<mgrwt>
<rscale>  0 0.39890673E+02</rscale>
<asrwt>0</asrwt>
<pdfrwt beam="1">  1        4 0.20916155E-02 0.39890673E+02</pdfrwt>
<pdfrwt beam="2">  1       -4 0.45016754E-02 0.39890673E+02</pdfrwt>
<totfact> 0.25594028E+05</totfact>
</mgrwt>
</event>
<event>
 4    1  0.5624886E-001  0.8252134E+02  0.7818608E-02  0.1322045E+00
          4   -1    0    0  501    0  0.00000000000E+00  0.00000000000E+00  0.70686602051E+02  0.70700863570E+02  0.14200000000E+01 0. -1.
         -4   -1    0    0    0  501 -0.00000000000E+00 -0.00000000000E+00 -0.24046740368E+02  0.24088630561E+02  0.14200000000E+01 0.  1.
        -13    1    1    2    0    0 -0.26862556335E+02  0.14203635884E+02  0.55381750584E+02  0.63170322743E+02  0.10570000000E+00 0. -1.
         13    1    1    2    0    0  0.26862556335E+02 -0.14203635884E+02 -0.87418889014E+01  0.31619171387E+02  0.10570000000E+00 0.  1.
<mgrwt>
<rscale>  0 0.82521340E+02</rscale>
<asrwt>0</asrwt>
<pdfrwt beam="1">  1        4 0.10879181E-01 0.82521340E+02</pdfrwt>
<pdfrwt beam="2">  1       -4 0.37038180E-02 0.82521340E+02</pdfrwt>
<totfact> 0.35027208E+04</totfact>
</mgrwt>
</event>
<event>
 4    1  0.5624886E-001  0.3797697E+02  0.7818608E-02  0.1523649E+00
         -4   -1    0    0    0  501 -0.00000000000E+00  0.00000000000E+00  0.68224026605E+02  0.68238802790E+02  0.14200000000E+01 0. -1.
          4   -1    0    0  501    0  0.00000000000E+00 -0.00000000000E+00 -0.51739587978E+01  0.53652818790E+01  0.14200000000E+01 0.  1.
        -13    1    1    2    0    0  0.36827577158E+00  0.17338259167E+02  0.46512703589E+02  0.49640644896E+02  0.10570000000E+00 0. -1.
         13    1    1    2    0    0 -0.36827577158E+00 -0.17338259167E+02  0.16537364218E+02  0.23963439773E+02  0.10570000000E+00 0.  1.
<mgrwt>
<rscale>  0 0.37976970E+02</rscale>
<asrwt>0</asrwt>
<pdfrwt beam="2">  1        4 0.81184740E-03 0.37976970E+02</pdfrwt>
<pdfrwt beam="1">  1       -4 0.10511859E-01 0.37976970E+02</pdfrwt>
<totfact> 0.26113449E+05</totfact>
</mgrwt>
</event>
<event>
 4    1  0.5624886E-001  0.3240096E+02  0.7818608E-02  0.1572971E+00
          4   -1    0    0  501    0  0.00000000000E+00  0.00000000000E+00  0.13830487420E+02  0.13903193240E+02  0.14200000000E+01 0. -1.
         -4   -1    0    0    0  501 -0.00000000000E+00 -0.00000000000E+00 -0.18827335820E+02  0.18880809678E+02  0.14200000000E+01 0.  1.
        -13    1    1    2    0    0  0.16043431674E+02 -0.17903411193E+01 -0.11231670464E+01  0.16182388510E+02  0.10570000000E+00 0. -1.
         13    1    1    2    0    0 -0.16043431674E+02  0.17903411193E+01 -0.38736813539E+01  0.16601614407E+02  0.10570000000E+00 0.  1.
<mgrwt>
<rscale>  0 0.32400962E+02</rscale>
<asrwt>0</asrwt>
<pdfrwt beam="1">  1        4 0.21374734E-02 0.32400962E+02</pdfrwt>
<pdfrwt beam="2">  1       -4 0.29062193E-02 0.32400962E+02</pdfrwt>
<totfact> 0.43188386E+05</totfact>
</mgrwt>
</event>
<event>
 4    1  0.5624886E-001  0.3648980E+02  0.7818608E-02  0.1535755E+00
         -4   -1    0    0    0  501 -0.00000000000E+00  0.00000000000E+00  0.54320741436E+01  0.56146085796E+01  0.14200000000E+01 0.  1.
          4   -1    0    0  501    0  0.00000000000E+00 -0.00000000000E+00 -0.60076140414E+02  0.60092920108E+02  0.14200000000E+01 0. -1.
        -13    1    1    2    0    0  0.11704154426E+02  0.12651947844E+01 -0.52420928686E+02  0.53726649676E+02  0.10570000000E+00 0. -1.
         13    1    1    2    0    0 -0.11704154426E+02 -0.12651947844E+01 -0.22231375845E+01  0.11980879011E+02  0.10570000000E+00 0.  1.
<mgrwt>
<rscale>  0 0.36489798E+02</rscale>
<asrwt>0</asrwt>
<pdfrwt beam="2">  1        4 0.92578146E-02 0.36489798E+02</pdfrwt>
<pdfrwt beam="1">  1       -4 0.85103561E-03 0.36489798E+02</pdfrwt>
<totfact> 0.29367681E+05</totfact>
</mgrwt>
</event>
<event>
 4    1  0.5624886E-001  0.2627158E+02  0.7818608E-02  0.1643382E+00
         -4   -1    0    0    0  501 -0.00000000000E+00  0.00000000000E+00  0.30793658652E+01  0.33910019363E+01  0.14200000000E+01 0.  1.
          4   -1    0    0  501    0  0.00000000000E+00 -0.00000000000E+00 -0.53013545174E+02  0.53032559545E+02  0.14200000000E+01 0. -1.
        -13    1    1    2    0    0  0.90497262158E+01 -0.89491544744E+01 -0.17990219014E+02  0.22037333392E+02  0.10570000000E+00 0.  1.
         13    1    1    2    0    0 -0.90497262158E+01  0.89491544744E+01 -0.31943960295E+02  0.34386228089E+02  0.10570000000E+00 0. -1.
<mgrwt>
<rscale>  0 0.26271582E+02</rscale>
<asrwt>0</asrwt>
<pdfrwt beam="2">  1        4 0.81813640E-02 0.26271582E+02</pdfrwt>
<pdfrwt beam="1">  1       -4 0.49918328E-03 0.26271582E+02</pdfrwt>
<totfact> 0.63507631E+05</totfact>
</mgrwt>
</event>
<event>
 4    1  0.5624886E-001  0.2835401E+02  0.7818608E-02  0.1617030E+00
          4   -1    0    0  501    0  0.00000000000E+00  0.00000000000E+00  0.37118393614E+02  0.37145545419E+02  0.14200000000E+01 0. -1.
         -4   -1    0    0    0  501 -0.00000000000E+00 -0.00000000000E+00 -0.52919989379E+01  0.54792018359E+01  0.14200000000E+01 0.  1.
        -13    1    1    2    0    0  0.60739241291E+01 -0.12664165314E+02  0.13020510760E+02  0.19152506634E+02  0.10570000000E+00 0. -1.
         13    1    1    2    0    0 -0.60739241291E+01  0.12664165314E+02  0.18805883916E+02  0.23472240621E+02  0.10570000000E+00 0.  1.
<mgrwt>
<rscale>  0 0.28354006E+02</rscale>
<asrwt>0</asrwt>
<pdfrwt beam="1">  1        4 0.57270110E-02 0.28354006E+02</pdfrwt>
<pdfrwt beam="2">  1       -4 0.83064250E-03 0.28354006E+02</pdfrwt>
<totfact> 0.56338929E+05</totfact>
</mgrwt>
</event>
<event>
 4    1  0.5624886E-001  0.2881262E+02  0.7818608E-02  0.1611597E+00
         -4   -1    0    0    0  501 -0.00000000000E+00  0.00000000000E+00  0.11553068636E+01  0.18306102668E+01  0.14200000000E+01 0.  1.
          4   -1    0    0  501    0  0.00000000000E+00 -0.00000000000E+00 -0.13833398916E+03  0.13834127713E+03  0.14200000000E+01 0. -1.
        -13    1    1    2    0    0 -0.13833547620E+02 -0.29430959204E+01 -0.81914110541E+02  0.83126178377E+02  0.10570000000E+00 0.  1.
         13    1    1    2    0    0  0.13833547620E+02  0.29430959204E+01 -0.55264571759E+02  0.57045709020E+02  0.10570000000E+00 0. -1.
<mgrwt>
<rscale>  0 0.28812621E+02</rscale>
<asrwt>0</asrwt>
<pdfrwt beam="2">  1        4 0.21334649E-01 0.28812621E+02</pdfrwt>
<pdfrwt beam="1">  1       -4 0.23024666E-03 0.28812621E+02</pdfrwt>
<totfact> 0.40909337E+05</totfact>
</mgrwt>
</event>
<event>
 4    1  0.5624886E-001  0.5199294E+02  0.7818608E-02  0.1434879E+00
         -4   -1    0    0    0  501 -0.00000000000E+00  0.00000000000E+00  0.62987889133E+01  0.64568677991E+01  0.14200000000E+01 0. -1.
          4   -1    0    0  501    0  0.00000000000E+00 -0.00000000000E+00 -0.10580051348E+03  0.10581004230E+03  0.14200000000E+01 0.  1.
        -13    1    1    2    0    0 -0.15605409091E+02  0.12178453848E+02 -0.13364609979E+02  0.23884461547E+02  0.10570000000E+00 0. -1.
         13    1    1    2    0    0  0.15605409091E+02 -0.12178453848E+02 -0.86137114585E+02  0.88382448555E+02  0.10570000000E+00 0.  1.
<mgrwt>
<rscale>  0 0.51992941E+02</rscale>
<asrwt>0</asrwt>
<pdfrwt beam="2">  1        4 0.16289894E-01 0.51992941E+02</pdfrwt>
<pdfrwt beam="1">  1       -4 0.98193743E-03 0.51992941E+02</pdfrwt>
<totfact> 0.11023895E+05</totfact>
</mgrwt>
</event>
<event>
 4    1  0.5624886E-001  0.2529302E+02  0.7818608E-02  0.1656829E+00
         -4   -1    0    0    0  501 -0.00000000000E+00  0.00000000000E+00  0.34829649579E+02  0.34858584162E+02  0.14200000000E+01 0.  1.
          4   -1    0    0  501    0  0.00000000000E+00 -0.00000000000E+00 -0.44504860552E+01  0.46715335948E+01  0.14200000000E+01 0. -1.
        -13    1    1    2    0    0  0.86957409502E+00 -0.11426575805E+02  0.68313968850E+01  0.13341737129E+02  0.10570000000E+00 0. -1.
         13    1    1    2    0    0 -0.86957409502E+00  0.11426575805E+02  0.23547766639E+02  0.26188380628E+02  0.10570000000E+00 0.  1.
<mgrwt>
<rscale>  0 0.25293016E+02</rscale>
<asrwt>0</asrwt>
<pdfrwt beam="2">  1        4 0.70391955E-03 0.25293016E+02</pdfrwt>
<pdfrwt beam="1">  1       -4 0.53776371E-02 0.25293016E+02</pdfrwt>
<totfact> 0.73218204E+05</totfact>
</mgrwt>
</event>
<event>
 4    1  0.5624886E-001  0.2046627E+02  0.7818608E-02  0.1736212E+00
          4   -1    0    0  501    0  0.00000000000E+00  0.00000000000E+00  0.49918559923E+01  0.51898965546E+01  0.14200000000E+01 0. -1.
         -4   -1    0    0    0  501 -0.00000000000E+00 -0.00000000000E+00 -0.20346276584E+02  0.20395768454E+02  0.14200000000E+01 0.  1.
        -13    1    1    2    0    0 -0.79529597162E+01  0.62330588106E+01 -0.56593913346E+01  0.11581902830E+02  0.10570000000E+00 0. -1.
         13    1    1    2    0    0  0.79529597162E+01 -0.62330588106E+01 -0.96950292570E+01  0.14003762179E+02  0.10570000000E+00 0.  1.
<mgrwt>
<rscale>  0 0.20466265E+02</rscale>
<asrwt>0</asrwt>
<pdfrwt beam="1">  1        4 0.78701881E-03 0.20466265E+02</pdfrwt>
<pdfrwt beam="2">  1       -4 0.31492373E-02 0.20466265E+02</pdfrwt>
<totfact> 0.12108029E+06</totfact>
</mgrwt>
</event>
<event>
 4    1  0.5624886E-001  0.4877518E+02  0.7818608E-02  0.1452062E+00
         -4   -1    0    0    0  501 -0.00000000000E+00  0.00000000000E+00  0.54733357711E+02  0.54751774823E+02  0.14200000000E+01 0. -1.
          4   -1    0    0  501    0  0.00000000000E+00 -0.00000000000E+00 -0.10799670001E+02  0.10892624667E+02  0.14200000000E+01 0.  1.
        -13    1    1    2    0    0 -0.63089706243E+01  0.10450940713E+02  0.50380618884E+02  0.51838626561E+02  0.10570000000E+00 0. -1.
         13    1    1    2    0    0  0.63089706243E+01 -0.10450940713E+02 -0.64469311743E+01  0.13805772929E+02  0.10570000000E+00 0.  1.
<mgrwt>
<rscale>  0 0.48775181E+02</rscale>
<asrwt>0</asrwt>
<pdfrwt beam="2">  1        4 0.16700548E-02 0.48775181E+02</pdfrwt>
<pdfrwt beam="1">  1       -4 0.84290836E-02 0.48775181E+02</pdfrwt>
<totfact> 0.14626240E+05</totfact>
</mgrwt>
</event>
<event>
 4    1  0.5624886E-001  0.3712326E+02  0.7818608E-02  0.1530515E+00
          4   -1    0    0  501    0  0.00000000000E+00  0.00000000000E+00  0.40259943004E+02  0.40284977482E+02  0.14200000000E+01 0. -1.
         -4   -1    0    0    0  501 -0.00000000000E+00 -0.00000000000E+00 -0.84709279981E+01  0.85891222571E+01  0.14200000000E+01 0.  1.
        -13    1    1    2    0    0 -0.99145155047E+01 -0.77456220917E+01 -0.20717745320E+01  0.12751301952E+02  0.10570000000E+00 0.  1.
         13    1    1    2    0    0  0.99145155047E+01  0.77456220917E+01  0.33860789538E+02  0.36122797787E+02  0.10570000000E+00 0. -1.
<mgrwt>
<rscale>  0 0.37123256E+02</rscale>
<asrwt>0</asrwt>
<pdfrwt beam="1">  1        4 0.62048549E-02 0.37123256E+02</pdfrwt>
<pdfrwt beam="2">  1       -4 0.13142373E-02 0.37123256E+02</pdfrwt>
<totfact> 0.29752731E+05</totfact>
</mgrwt>
</event>
<event>
 4    1  0.5624886E-001  0.9061841E+02  0.7818608E-02  0.1301361E+00
         -4   -1    0    0    0  501 -0.00000000000E+00  0.00000000000E+00  0.42459190973E+02  0.42482929490E+02  0.14200000000E+01 0.  1.
          4   -1    0    0  501    0  0.00000000000E+00 -0.00000000000E+00 -0.48302830623E+02  0.48323698598E+02  0.14200000000E+01 0. -1.
        -13    1    1    2    0    0  0.40107676755E+02 -0.11979448898E+02  0.14457207106E+02  0.44284929043E+02  0.10570000000E+00 0.  1.
         13    1    1    2    0    0 -0.40107676755E+02  0.11979448898E+02 -0.20300846757E+02  0.46521699046E+02  0.10570000000E+00 0. -1.
<mgrwt>
<rscale>  0 0.90618406E+02</rscale>
<asrwt>0</asrwt>
<pdfrwt beam="2">  1        4 0.74346360E-02 0.90618406E+02</pdfrwt>
<pdfrwt beam="1">  1       -4 0.65356145E-02 0.90618406E+02</pdfrwt>
<totfact> 0.27494310E+04</totfact>
</mgrwt>
</event>
<event>
 4    1  0.5624886E-001  0.5553973E+02  0.7818608E-02  0.1417564E+00
         -4   -1    0    0    0  501 -0.00000000000E+00  0.00000000000E+00  0.22461244679E+02  0.22506086122E+02  0.14200000000E+01 0. -1.
          4   -1    0    0  501    0  0.00000000000E+00 -0.00000000000E+00 -0.34239346534E+02  0.34268779538E+02  0.14200000000E+01 0.  1.
        -13    1    1    2    0    0  0.65158963551E+01 -0.25916396340E+02  0.18312373711E+01  0.26785837813E+02  0.10570000000E+00 0. -1.
         13    1    1    2    0    0 -0.65158963551E+01  0.25916396340E+02 -0.13609339226E+02  0.29989027847E+02  0.10570000000E+00 0.  1.
<mgrwt>
<rscale>  0 0.55539731E+02</rscale>
<asrwt>0</asrwt>
<pdfrwt beam="2">  1        4 0.52733052E-02 0.55539731E+02</pdfrwt>
<pdfrwt beam="1">  1       -4 0.34612895E-02 0.55539731E+02</pdfrwt>
<totfact> 0.10852314E+05</totfact>
</mgrwt>
</event>
<event>
 4    1  0.5624886E-001  0.2023255E+02  0.7818608E-02  0.1740743E+00
          4   -1    0    0  501    0  0.00000000000E+00  0.00000000000E+00  0.21190912248E+02  0.21238435957E+02  0.14200000000E+01 0. -1.
         -4   -1    0    0    0  501 -0.00000000000E+00 -0.00000000000E+00 -0.46707915796E+01  0.48818740233E+01  0.14200000000E+01 0.  1.
        -13    1    1    2    0    0 -0.89498608968E+01  0.47143135335E+01  0.81879835632E+01  0.13014569124E+02  0.10570000000E+00 0.  1.
         13    1    1    2    0    0  0.89498608968E+01 -0.47143135335E+01  0.83321371055E+01  0.13105740857E+02  0.10570000000E+00 0. -1.
<mgrwt>
<rscale>  0 0.20232553E+02</rscale>
<asrwt>0</asrwt>
<pdfrwt beam="1">  1        4 0.32800332E-02 0.20232553E+02</pdfrwt>
<pdfrwt beam="2">  1       -4 0.73847609E-03 0.20232553E+02</pdfrwt>
<totfact> 0.12368604E+06</totfact>
</mgrwt>
</event>
<event>
 4    1  0.5624886E-001  0.4032490E+02  0.7818608E-02  0.1505834E+00
          4   -1    0    0  501    0  0.00000000000E+00  0.00000000000E+00  0.59534840695E+01  0.61204879353E+01  0.14200000000E+01 0. -1.
         -4   -1    0    0    0  501 -0.00000000000E+00 -0.00000000000E+00 -0.67164337341E+02  0.67179346606E+02  0.14200000000E+01 0.  1.
        -13    1    1    2    0    0 -0.40251908444E+01  0.17872143821E+02 -0.15300014962E+02  0.23868751882E+02  0.10570000000E+00 0. -1.
         13    1    1    2    0    0  0.40251908444E+01 -0.17872143821E+02 -0.45910838310E+02  0.49431082659E+02  0.10570000000E+00 0.  1.
<mgrwt>
<rscale>  0 0.40324895E+02</rscale>
<asrwt>0</asrwt>
<pdfrwt beam="1">  1        4 0.92992168E-03 0.40324895E+02</pdfrwt>
<pdfrwt beam="2">  1       -4 0.10346975E-01 0.40324895E+02</pdfrwt>
<totfact> 0.22680094E+05</totfact>
</mgrwt>
</event>
<event>
 4    1  0.5624886E-001  0.1251531E+03  0.7818608E-02  0.1234830E+00
         -4   -1    0    0    0  501 -0.00000000000E+00  0.00000000000E+00  0.13092211453E+02  0.13168993914E+02  0.14200000000E+01 0.  1.
          4   -1    0    0  501    0  0.00000000000E+00 -0.00000000000E+00 -0.29814294934E+03  0.29814633092E+03  0.14200000000E+01 0. -1.
        -13    1    1    2    0    0  0.59323323472E+02  0.16913238479E+02 -0.16867363875E+03  0.17959989400E+03  0.10570000000E+00 0.  1.
         13    1    1    2    0    0 -0.59323323472E+02 -0.16913238479E+02 -0.11637709914E+03  0.13171543084E+03  0.10570000000E+00 0. -1.
<mgrwt>
<rscale>  0 0.12515314E+03</rscale>
<asrwt>0</asrwt>
<pdfrwt beam="2">  1        4 0.45874307E-01 0.12515314E+03</pdfrwt>
<pdfrwt beam="1">  1       -4 0.20203531E-02 0.12515314E+03</pdfrwt>
<totfact> 0.73949532E+03</totfact>
</mgrwt>
</event>
<event>
 4    1  0.5624886E-001  0.2447087E+02  0.7818608E-02  0.1668720E+00
          4   -1    0    0  501    0  0.00000000000E+00  0.00000000000E+00  0.17909499745E+01  0.22855856604E+01  0.14200000000E+01 0.  1.
         -4   -1    0    0    0  501 -0.00000000000E+00 -0.00000000000E+00 -0.72945191455E+02  0.72959011482E+02  0.14200000000E+01 0. -1.
        -13    1    1    2    0    0 -0.59045957146E+01 -0.10367920322E+02 -0.27248474439E+02  0.29746404054E+02  0.10570000000E+00 0.  1.
         13    1    1    2    0    0  0.59045957146E+01  0.10367920322E+02 -0.43905767041E+02  0.45498193089E+02  0.10570000000E+00 0. -1.
<mgrwt>
<rscale>  0 0.24470867E+02</rscale>
<asrwt>0</asrwt>
<pdfrwt beam="1">  1        4 0.31464280E-03 0.24470867E+02</pdfrwt>
<pdfrwt beam="2">  1       -4 0.11261447E-01 0.24470867E+02</pdfrwt>
<totfact> 0.69633467E+05</totfact>
</mgrwt>
</event>
<event>
 4    1  0.5624886E-001  0.2543136E+02  0.7818608E-02  0.1654882E+00
          4   -1    0    0  501    0  0.00000000000E+00  0.00000000000E+00  0.52747873607E+02  0.52766983712E+02  0.14200000000E+01 0. -1.
         -4   -1    0    0    0  501 -0.00000000000E+00 -0.00000000000E+00 -0.28800959788E+01  0.32111295282E+01  0.14200000000E+01 0.  1.
        -13    1    1    2    0    0 -0.10016946363E+02  0.53294923625E+01  0.37565970960E+02  0.39242273761E+02  0.10570000000E+00 0. -1.
         13    1    1    2    0    0  0.10016946363E+02 -0.53294923625E+01  0.12301806668E+02  0.16735839479E+02  0.10570000000E+00 0.  1.
<mgrwt>
<rscale>  0 0.25431357E+02</rscale>
<asrwt>0</asrwt>
<pdfrwt beam="1">  1        4 0.81419912E-02 0.25431357E+02</pdfrwt>
<pdfrwt beam="2">  1       -4 0.47002584E-03 0.25431357E+02</pdfrwt>
<totfact> 0.68249031E+05</totfact>
</mgrwt>
</event>
<event>
 4    1  0.5624886E-001  0.4056362E+02  0.7818608E-02  0.1504104E+00
          4   -1    0    0  501    0  0.00000000000E+00  0.00000000000E+00  0.38509708745E+02  0.38535880263E+02  0.14200000000E+01 0.  1.
         -4   -1    0    0    0  501 -0.00000000000E+00 -0.00000000000E+00 -0.10604628224E+02  0.10699277535E+02  0.14200000000E+01 0. -1.
        -13    1    1    2    0    0 -0.97506129764E+01 -0.69075254530E+01  0.33843376936E+02  0.35891136736E+02  0.10570000000E+00 0.  1.
         13    1    1    2    0    0  0.97506129764E+01  0.69075254530E+01 -0.59382964145E+01  0.13344021062E+02  0.10570000000E+00 0. -1.
<mgrwt>
<rscale>  0 0.40563620E+02</rscale>
<asrwt>0</asrwt>
<pdfrwt beam="1">  1        4 0.59338645E-02 0.40563620E+02</pdfrwt>
<pdfrwt beam="2">  1       -4 0.16407752E-02 0.40563620E+02</pdfrwt>
<totfact> 0.24078644E+05</totfact>
</mgrwt>
</event>
<event>
 4    1  0.5624886E-001  0.2393455E+02  0.7818608E-02  0.1676794E+00
         -4   -1    0    0    0  501 -0.00000000000E+00  0.00000000000E+00  0.11676525263E+02  0.11762552539E+02  0.14200000000E+01 0.  1.
          4   -1    0    0  501    0  0.00000000000E+00 -0.00000000000E+00 -0.12092520303E+02  0.12175608702E+02  0.14200000000E+01 0. -1.
        -13    1    1    2    0    0 -0.11811971876E+02  0.12199423890E+01 -0.16892736716E+01  0.11994822093E+02  0.10570000000E+00 0.  1.
         13    1    1    2    0    0  0.11811971876E+02 -0.12199423890E+01  0.12732786320E+01  0.11943339147E+02  0.10570000000E+00 0. -1.
<mgrwt>
<rscale>  0 0.23934546E+02</rscale>
<asrwt>0</asrwt>
<pdfrwt beam="2">  1        4 0.18733966E-02 0.23934546E+02</pdfrwt>
<pdfrwt beam="1">  1       -4 0.18093974E-02 0.23934546E+02</pdfrwt>
<totfact> 0.87753612E+05</totfact>
</mgrwt>
</event>
<event>
 4    1  0.5624886E-001  0.2603477E+02  0.7818608E-02  0.1646569E+00
          4   -1    0    0  501    0  0.00000000000E+00  0.00000000000E+00  0.16438892376E+02  0.16500108562E+02  0.14200000000E+01 0. -1.
         -4   -1    0    0    0  501 -0.00000000000E+00 -0.00000000000E+00 -0.10178258513E+02  0.10276835426E+02  0.14200000000E+01 0.  1.
        -13    1    1    2    0    0  0.12073045664E+02 -0.29218026189E+01 -0.87238148808E+00  0.12452613545E+02  0.10570000000E+00 0.  1.
         13    1    1    2    0    0 -0.12073045664E+02  0.29218026189E+01  0.71330153508E+01  0.14324330443E+02  0.10570000000E+00 0. -1.
<mgrwt>
<rscale>  0 0.26034769E+02</rscale>
<asrwt>0</asrwt>
<pdfrwt beam="1">  1        4 0.25413521E-02 0.26034769E+02</pdfrwt>
<pdfrwt beam="2">  1       -4 0.15781777E-02 0.26034769E+02</pdfrwt>
<totfact> 0.72250224E+05</totfact>
</mgrwt>
</event>
<event>
 4    1  0.5624886E-001  0.3792217E+02  0.7818608E-02  0.1524083E+00
          4   -1    0    0  501    0  0.00000000000E+00  0.00000000000E+00  0.93988585118E+01  0.95055216229E+01  0.14200000000E+01 0. -1.
         -4   -1    0    0    0  501 -0.00000000000E+00 -0.00000000000E+00 -0.37915896647E+02  0.37942477760E+02  0.14200000000E+01 0.  1.
        -13    1    1    2    0    0 -0.13305603623E+02 -0.22480392918E+01  0.24072200501E+01  0.13707612822E+02  0.10570000000E+00 0. -1.
         13    1    1    2    0    0  0.13305603623E+02  0.22480392918E+01 -0.30924258185E+02  0.33740386560E+02  0.10570000000E+00 0.  1.
<mgrwt>
<rscale>  0 0.37922173E+02</rscale>
<asrwt>0</asrwt>
<pdfrwt beam="1">  1        4 0.14562278E-02 0.37922173E+02</pdfrwt>
<pdfrwt beam="2">  1       -4 0.58434643E-02 0.37922173E+02</pdfrwt>
<totfact> 0.28427423E+05</totfact>
</mgrwt>
</event>
<event>
 4    1  0.5624886E-001  0.4561883E+02  0.7818608E-02  0.1470515E+00
          4   -1    0    0  501    0  0.00000000000E+00  0.00000000000E+00  0.42328843829E+02  0.42352655406E+02  0.14200000000E+01 0.  1.
         -4   -1    0    0    0  501 -0.00000000000E+00 -0.00000000000E+00 -0.12222750461E+02  0.12304959521E+02  0.14200000000E+01 0. -1.
        -13    1    1    2    0    0  0.23695866388E+00 -0.18517718360E+02  0.31006559206E+02  0.36116200367E+02  0.10570000000E+00 0.  1.
         13    1    1    2    0    0 -0.23695866388E+00  0.18517718360E+02 -0.90046583689E+00  0.18541414560E+02  0.10570000000E+00 0. -1.
<mgrwt>
<rscale>  0 0.45618834E+02</rscale>
<asrwt>0</asrwt>
<pdfrwt beam="1">  1        4 0.65202854E-02 0.45618834E+02</pdfrwt>
<pdfrwt beam="2">  1       -4 0.18885785E-02 0.45618834E+02</pdfrwt>
<totfact> 0.17815216E+05</totfact>
</mgrwt>
</event>
<event>
 4    1  0.5624886E-001  0.3234679E+02  0.7818608E-02  0.1573508E+00
          4   -1    0    0  501    0  0.00000000000E+00  0.00000000000E+00  0.67332338147E+01  0.68813398116E+01  0.14200000000E+01 0. -1.
         -4   -1    0    0    0  501 -0.00000000000E+00 -0.00000000000E+00 -0.38264860069E+02  0.38291198938E+02  0.14200000000E+01 0.  1.
        -13    1    1    2    0    0  0.97451054389E+01 -0.11782265602E+02 -0.23126172225E+02  0.27723994608E+02  0.10570000000E+00 0. -1.
         13    1    1    2    0    0 -0.97451054389E+01  0.11782265602E+02 -0.84054540299E+01  0.17448544142E+02  0.10570000000E+00 0.  1.
<mgrwt>
<rscale>  0 0.32346790E+02</rscale>
<asrwt>0</asrwt>
<pdfrwt beam="1">  1        4 0.10493010E-02 0.32346790E+02</pdfrwt>
<pdfrwt beam="2">  1       -4 0.59003203E-02 0.32346790E+02</pdfrwt>
<totfact> 0.41471807E+05</totfact>
</mgrwt>
</event>
<event>
 4    1  0.5624886E-001  0.5819797E+02  0.7818608E-02  0.1405553E+00
         -4   -1    0    0    0  501 -0.00000000000E+00  0.00000000000E+00  0.45064437135E+02  0.45086803993E+02  0.14200000000E+01 0.  1.
          4   -1    0    0  501    0  0.00000000000E+00 -0.00000000000E+00 -0.18735881101E+02  0.18789615234E+02  0.14200000000E+01 0. -1.
        -13    1    1    2    0    0 -0.18916534914E+02 -0.21132535926E+02  0.20304438643E+02  0.34881238064E+02  0.10570000000E+00 0. -1.
         13    1    1    2    0    0  0.18916534914E+02  0.21132535926E+02  0.60241173914E+01  0.28995181163E+02  0.10570000000E+00 0.  1.
<mgrwt>
<rscale>  0 0.58197973E+02</rscale>
<asrwt>0</asrwt>
<pdfrwt beam="2">  1        4 0.28882972E-02 0.58197973E+02</pdfrwt>
<pdfrwt beam="1">  1       -4 0.69388442E-02 0.58197973E+02</pdfrwt>
<totfact> 0.94431305E+04</totfact>
</mgrwt>
</event>
<event>
 4    1  0.5624886E-001  0.2458537E+02  0.7818608E-02  0.1667030E+00
         -4   -1    0    0    0  501 -0.00000000000E+00  0.00000000000E+00  0.29714801121E+02  0.29748710992E+02  0.14200000000E+01 0.  1.
          4   -1    0    0  501    0  0.00000000000E+00 -0.00000000000E+00 -0.49486309639E+01  0.51483345284E+01  0.14200000000E+01 0. -1.
        -13    1    1    2    0    0 -0.48403438684E+01 -0.11292776410E+02  0.11845856178E+02  0.17067255458E+02  0.10570000000E+00 0.  1.
         13    1    1    2    0    0  0.48403438684E+01  0.11292776410E+02  0.12920313980E+02  0.17829790061E+02  0.10570000000E+00 0. -1.
<mgrwt>
<rscale>  0 0.24585374E+02</rscale>
<asrwt>0</asrwt>
<pdfrwt beam="2">  1        4 0.77929810E-03 0.24585374E+02</pdfrwt>
<pdfrwt beam="1">  1       -4 0.45894782E-02 0.24585374E+02</pdfrwt>
<totfact> 0.79239702E+05</totfact>
</mgrwt>
</event>
<event>
 4    1  0.5624886E-001  0.2998740E+02  0.7818608E-02  0.1598228E+00
          4   -1    0    0  501    0  0.00000000000E+00  0.00000000000E+00  0.22537213417E+02  0.22581904007E+02  0.14200000000E+01 0.  1.
         -4   -1    0    0    0  501 -0.00000000000E+00 -0.00000000000E+00 -0.98696695969E+01  0.99712977065E+01  0.14200000000E+01 0. -1.
        -13    1    1    2    0    0 -0.11781134814E+02 -0.91720857014E+01  0.78212710533E+01  0.16855436719E+02  0.10570000000E+00 0. -1.
         13    1    1    2    0    0  0.11781134814E+02  0.91720857014E+01  0.48462727667E+01  0.15697764995E+02  0.10570000000E+00 0.  1.
<mgrwt>
<rscale>  0 0.29987402E+02</rscale>
<asrwt>0</asrwt>
<pdfrwt beam="1">  1        4 0.34785188E-02 0.29987402E+02</pdfrwt>
<pdfrwt beam="2">  1       -4 0.15296660E-02 0.29987402E+02</pdfrwt>
<totfact> 0.51575884E+05</totfact>
</mgrwt>
</event>
<event>
 4    1  0.5624886E-001  0.4342912E+02  0.7818608E-02  0.1484393E+00
          4   -1    0    0  501    0  0.00000000000E+00  0.00000000000E+00  0.57049813505E+01  0.58790485803E+01  0.14200000000E+01 0.  1.
         -4   -1    0    0    0  501 -0.00000000000E+00 -0.00000000000E+00 -0.81228645771E+02  0.81241056701E+02  0.14200000000E+01 0. -1.
        -13    1    1    2    0    0 -0.20316097718E+02  0.43993649074E+01 -0.25168055712E+02  0.32642616912E+02  0.10570000000E+00 0.  1.
         13    1    1    2    0    0  0.20316097718E+02 -0.43993649074E+01 -0.50355608709E+02  0.54477488369E+02  0.10570000000E+00 0. -1.
<mgrwt>
<rscale>  0 0.43429125E+02</rscale>
<asrwt>0</asrwt>
<pdfrwt beam="1">  1        4 0.89203397E-03 0.43429125E+02</pdfrwt>
<pdfrwt beam="2">  1       -4 0.12511058E-01 0.43429125E+02</pdfrwt>
<totfact> 0.18267228E+05</totfact>
</mgrwt>
</event>
<event>
 4    1  0.5624886E-001  0.3638245E+02  0.7818608E-02  0.1536656E+00
         -4   -1    0    0    0  501 -0.00000000000E+00  0.00000000000E+00  0.96627757522E+01  0.97665569797E+01  0.14200000000E+01 0.  1.
          4   -1    0    0  501    0  0.00000000000E+00 -0.00000000000E+00 -0.33945325601E+02  0.33975013321E+02  0.14200000000E+01 0. -1.
        -13    1    1    2    0    0 -0.93423399223E+01  0.41697933166E+01 -0.30225088153E+02  0.31909773078E+02  0.10570000000E+00 0. -1.
         13    1    1    2    0    0  0.93423399223E+01 -0.41697933166E+01  0.59425383045E+01  0.11831797223E+02  0.10570000000E+00 0.  1.
<mgrwt>
<rscale>  0 0.36382451E+02</rscale>
<asrwt>0</asrwt>
<pdfrwt beam="2">  1        4 0.52326246E-02 0.36382451E+02</pdfrwt>
<pdfrwt beam="1">  1       -4 0.14968477E-02 0.36382451E+02</pdfrwt>
<totfact> 0.31739452E+05</totfact>
</mgrwt>
</event>
<event>
 4    1  0.5624886E-001  0.2556353E+02  0.7818608E-02  0.1653037E+00
         -4   -1    0    0    0  501 -0.00000000000E+00  0.00000000000E+00  0.62578717568E+02  0.62594826404E+02  0.14200000000E+01 0. -1.
          4   -1    0    0  501    0  0.00000000000E+00 -0.00000000000E+00 -0.23999011802E+01  0.27885346824E+01  0.14200000000E+01 0.  1.
        -13    1    1    2    0    0 -0.37413963852E+01 -0.12175725942E+02  0.32791329148E+02  0.35178527384E+02  0.10570000000E+00 0. -1.
         13    1    1    2    0    0  0.37413963852E+01  0.12175725942E+02  0.27387487240E+02  0.30204833702E+02  0.10570000000E+00 0.  1.
<mgrwt>
<rscale>  0 0.25563528E+02</rscale>
<asrwt>0</asrwt>
<pdfrwt beam="2">  1        4 0.40034958E-03 0.25563528E+02</pdfrwt>
<pdfrwt beam="1">  1       -4 0.96586294E-02 0.25563528E+02</pdfrwt>
<totfact> 0.65419912E+05</totfact>
</mgrwt>
</event>
<event>
 4    1  0.5624886E-001  0.5092896E+02  0.7818608E-02  0.1440394E+00
          4   -1    0    0  501    0  0.00000000000E+00  0.00000000000E+00  0.12115361866E+02  0.12198294682E+02  0.14200000000E+01 0. -1.
         -4   -1    0    0    0  501 -0.00000000000E+00 -0.00000000000E+00 -0.53247115838E+02  0.53266046832E+02  0.14200000000E+01 0.  1.
        -13    1    1    2    0    0  0.64251681614E+01 -0.10825510644E+02  0.78864434728E+01  0.14855356938E+02  0.10570000000E+00 0. -1.
         13    1    1    2    0    0 -0.64251681614E+01  0.10825510644E+02 -0.49018197445E+02  0.50608984576E+02  0.10570000000E+00 0.  1.
<mgrwt>
<rscale>  0 0.50928959E+02</rscale>
<asrwt>0</asrwt>
<pdfrwt beam="1">  1        4 0.18717375E-02 0.50928959E+02</pdfrwt>
<pdfrwt beam="2">  1       -4 0.81996995E-02 0.50928959E+02</pdfrwt>
<totfact> 0.13150857E+05</totfact>
</mgrwt>
</event>
<event>
 4    1  0.5624886E-001  0.2161634E+02  0.7818608E-02  0.1714973E+00
         -4   -1    0    0    0  501 -0.00000000000E+00  0.00000000000E+00  0.59290109168E+01  0.60966852019E+01  0.14200000000E+01 0. -1.
          4   -1    0    0  501    0  0.00000000000E+00 -0.00000000000E+00 -0.19233600365E+02  0.19285947812E+02  0.14200000000E+01 0.  1.
        -13    1    1    2    0    0  0.10562648026E+02 -0.74924932347E+00 -0.91910332000E+01  0.14022024520E+02  0.10570000000E+00 0. -1.
         13    1    1    2    0    0 -0.10562648026E+02  0.74924932347E+00 -0.41135562487E+01  0.11360608494E+02  0.10570000000E+00 0.  1.
<mgrwt>
<rscale>  0 0.21616335E+02</rscale>
<asrwt>0</asrwt>
<pdfrwt beam="2">  1        4 0.29759402E-02 0.21616335E+02</pdfrwt>
<pdfrwt beam="1">  1       -4 0.92908028E-03 0.21616335E+02</pdfrwt>
<totfact> 0.10819449E+06</totfact>
</mgrwt>
</event>
<event>
 4    1  0.5624886E-001  0.2495887E+02  0.7818608E-02  0.1661593E+00
          4   -1    0    0  501    0  0.00000000000E+00  0.00000000000E+00  0.46561455614E+02  0.46583103685E+02  0.14200000000E+01 0.  1.
         -4   -1    0    0    0  501 -0.00000000000E+00 -0.00000000000E+00 -0.31705526553E+01  0.34740184427E+01  0.14200000000E+01 0. -1.
        -13    1    1    2    0    0 -0.12397298766E+02  0.40822426675E+00  0.18956217844E+02  0.22654117313E+02  0.10570000000E+00 0. -1.
         13    1    1    2    0    0  0.12397298766E+02 -0.40822426675E+00  0.24434685114E+02  0.27403004815E+02  0.10570000000E+00 0.  1.
<mgrwt>
<rscale>  0 0.24958866E+02</rscale>
<asrwt>0</asrwt>
<pdfrwt beam="1">  1        4 0.71883094E-02 0.24958866E+02</pdfrwt>
<pdfrwt beam="2">  1       -4 0.51278610E-03 0.24958866E+02</pdfrwt>
<totfact> 0.72534978E+05</totfact>
</mgrwt>
</event>
<event>
 4    1  0.5624886E-001  0.2296567E+02  0.7818608E-02  0.1692067E+00
          4   -1    0    0  501    0  0.00000000000E+00  0.00000000000E+00  0.25975770899E+01  0.29603727364E+01  0.14200000000E+01 0.  1.
         -4   -1    0    0    0  501 -0.00000000000E+00 -0.00000000000E+00 -0.47073318460E+02  0.47094731243E+02  0.14200000000E+01 0. -1.
        -13    1    1    2    0    0  0.41819962591E+01  0.98141641047E+01 -0.12981173105E+02  0.16802646740E+02  0.10570000000E+00 0.  1.
         13    1    1    2    0    0 -0.41819962591E+01 -0.98141641047E+01 -0.31494568265E+02  0.33252457240E+02  0.10570000000E+00 0. -1.
<mgrwt>
<rscale>  0 0.22965667E+02</rscale>
<asrwt>0</asrwt>
<pdfrwt beam="1">  1        4 0.42918177E-03 0.22965667E+02</pdfrwt>
<pdfrwt beam="2">  1       -4 0.72716029E-02 0.22965667E+02</pdfrwt>
<totfact> 0.86577372E+05</totfact>
</mgrwt>
</event>
<event>
 4    1  0.5624886E-001  0.2936301E+02  0.7818608E-02  0.1605238E+00
         -4   -1    0    0    0  501 -0.00000000000E+00  0.00000000000E+00  0.43250207995E+01  0.45521648603E+01  0.14200000000E+01 0. -1.
          4   -1    0    0  501    0  0.00000000000E+00 -0.00000000000E+00 -0.48324093112E+02  0.48344951909E+02  0.14200000000E+01 0.  1.
        -13    1    1    2    0    0 -0.20027431261E+01 -0.10246822706E+02 -0.34060226828E+01  0.10982737300E+02  0.10570000000E+00 0. -1.
         13    1    1    2    0    0  0.20027431261E+01  0.10246822706E+02 -0.40593049630E+02  0.41914379470E+02  0.10570000000E+00 0.  1.
<mgrwt>
<rscale>  0 0.29363014E+02</rscale>
<asrwt>0</asrwt>
<pdfrwt beam="2">  1        4 0.74535526E-02 0.29363014E+02</pdfrwt>
<pdfrwt beam="1">  1       -4 0.68446499E-03 0.29363014E+02</pdfrwt>
<totfact> 0.50294475E+05</totfact>
</mgrwt>
</event>
<event>
 4    1  0.5624886E-001  0.2356878E+02  0.7818608E-02  0.1682453E+00
         -4   -1    0    0    0  501 -0.00000000000E+00  0.00000000000E+00  0.12287413895E+02  0.12369193192E+02  0.14200000000E+01 0. -1.
          4   -1    0    0  501    0  0.00000000000E+00 -0.00000000000E+00 -0.11137467373E+02  0.11227625727E+02  0.14200000000E+01 0.  1.
        -13    1    1    2    0    0  0.18229305845E+01  0.98894126865E+01 -0.55753906102E+01  0.11498683061E+02  0.10570000000E+00 0.  1.
         13    1    1    2    0    0 -0.18229305845E+01 -0.98894126865E+01  0.67253371322E+01  0.12098135858E+02  0.10570000000E+00 0. -1.
<mgrwt>
<rscale>  0 0.23568782E+02</rscale>
<asrwt>0</asrwt>
<pdfrwt beam="2">  1        4 0.17266825E-02 0.23568782E+02</pdfrwt>
<pdfrwt beam="1">  1       -4 0.19035973E-02 0.23568782E+02</pdfrwt>
<totfact> 0.90823822E+05</totfact>
</mgrwt>
</event>
<event>
 4    1  0.5624886E-001  0.2092082E+02  0.7818608E-02  0.1727613E+00
         -4   -1    0    0    0  501 -0.00000000000E+00  0.00000000000E+00  0.10205564044E+02  0.10303879729E+02  0.14200000000E+01 0. -1.
          4   -1    0    0  501    0  0.00000000000E+00 -0.00000000000E+00 -0.10524000273E+02  0.10619368237E+02  0.14200000000E+01 0.  1.
        -13    1    1    2    0    0  0.20032140794E+01 -0.99792937203E+01  0.22514311109E+01  0.10424935700E+02  0.10570000000E+00 0.  1.
         13    1    1    2    0    0 -0.20032140794E+01  0.99792937203E+01 -0.25698673398E+01  0.10498312266E+02  0.10570000000E+00 0. -1.
<mgrwt>
<rscale>  0 0.20920825E+02</rscale>
<asrwt>0</asrwt>
<pdfrwt beam="2">  1        4 0.16339757E-02 0.20920825E+02</pdfrwt>
<pdfrwt beam="1">  1       -4 0.15849855E-02 0.20920825E+02</pdfrwt>
<totfact> 0.11811096E+06</totfact>
</mgrwt>
</event>
<event>
 4    1  0.5624886E-001  0.3985648E+02  0.7818608E-02  0.1509270E+00
          4   -1    0    0  501    0  0.00000000000E+00  0.00000000000E+00  0.29603568495E+02  0.29637605632E+02  0.14200000000E+01 0.  1.
         -4   -1    0    0    0  501 -0.00000000000E+00 -0.00000000000E+00 -0.13335638489E+02  0.13411027325E+02  0.14200000000E+01 0. -1.
        -13    1    1    2    0    0  0.39313420348E+01 -0.18861891384E+02  0.13630476781E+02  0.23601429333E+02  0.10570000000E+00 0. -1.
         13    1    1    2    0    0 -0.39313420348E+01  0.18861891384E+02  0.26374532249E+01  0.19447203624E+02  0.10570000000E+00 0.  1.
<mgrwt>
<rscale>  0 0.39856483E+02</rscale>
<asrwt>0</asrwt>
<pdfrwt beam="1">  1        4 0.45628126E-02 0.39856483E+02</pdfrwt>
<pdfrwt beam="2">  1       -4 0.20600541E-02 0.39856483E+02</pdfrwt>
<totfact> 0.25629944E+05</totfact>
</mgrwt>
</event>
<event>
 4    1  0.5624886E-001  0.3172258E+02  0.7818608E-02  0.1579793E+00
         -4   -1    0    0    0  501 -0.00000000000E+00  0.00000000000E+00  0.16984084318E+02  0.17043342398E+02  0.14200000000E+01 0. -1.
          4   -1    0    0  501    0  0.00000000000E+00 -0.00000000000E+00 -0.14693376370E+02  0.14761832852E+02  0.14200000000E+01 0.  1.
        -13    1    1    2    0    0  0.10839893739E+02 -0.10186840373E+02 -0.43730006434E+01  0.15505138509E+02  0.10570000000E+00 0. -1.
         13    1    1    2    0    0 -0.10839893739E+02  0.10186840373E+02  0.66637085914E+01  0.16300036741E+02  0.10570000000E+00 0.  1.
<mgrwt>
<rscale>  0 0.31722576E+02</rscale>
<asrwt>0</asrwt>
<pdfrwt beam="2">  1        4 0.22703436E-02 0.31722576E+02</pdfrwt>
<pdfrwt beam="1">  1       -4 0.26227603E-02 0.31722576E+02</pdfrwt>
<totfact> 0.45502567E+05</totfact>
</mgrwt>
</event>
<event>
 4    1  0.5624886E-001  0.2120979E+02  0.7818608E-02  0.1722288E+00
          4   -1    0    0  501    0  0.00000000000E+00  0.00000000000E+00  0.47545297819E+02  0.47566498134E+02  0.14200000000E+01 0.  1.
         -4   -1    0    0    0  501 -0.00000000000E+00 -0.00000000000E+00 -0.21285333633E+01  0.25587212194E+01  0.14200000000E+01 0. -1.
        -13    1    1    2    0    0  0.10191738066E+02  0.75653412213E+00  0.29396470982E+02  0.31122460496E+02  0.10570000000E+00 0. -1.
         13    1    1    2    0    0 -0.10191738066E+02 -0.75653412213E+00  0.16020293475E+02  0.19002758857E+02  0.10570000000E+00 0.  1.
<mgrwt>
<rscale>  0 0.21209788E+02</rscale>
<asrwt>0</asrwt>
<pdfrwt beam="1">  1        4 0.73493829E-02 0.21209788E+02</pdfrwt>
<pdfrwt beam="2">  1       -4 0.36218886E-03 0.21209788E+02</pdfrwt>
<totfact> 0.10213831E+06</totfact>
</mgrwt>
</event>
<event>
 4    1  0.5624886E-001  0.4269726E+02  0.7818608E-02  0.1489251E+00
          4   -1    0    0  501    0  0.00000000000E+00  0.00000000000E+00  0.35144431217E+02  0.35173106851E+02  0.14200000000E+01 0. -1.
         -4   -1    0    0    0  501 -0.00000000000E+00 -0.00000000000E+00 -0.12895357811E+02  0.12973305402E+02  0.14200000000E+01 0.  1.
        -13    1    1    2    0    0 -0.11402904764E+02  0.91412971409E+01 -0.64230760322E+01  0.15964229662E+02  0.10570000000E+00 0.  1.
         13    1    1    2    0    0  0.11402904764E+02 -0.91412971409E+01  0.28672149438E+02  0.32182182592E+02  0.10570000000E+00 0. -1.
<mgrwt>
<rscale>  0 0.42697257E+02</rscale>
<asrwt>0</asrwt>
<pdfrwt beam="1">  1        4 0.54150373E-02 0.42697257E+02</pdfrwt>
<pdfrwt beam="2">  1       -4 0.19921030E-02 0.42697257E+02</pdfrwt>
<totfact> 0.21364544E+05</totfact>
</mgrwt>
</event>
<event>
 4    1  0.5624886E-001  0.5306458E+02  0.7818608E-02  0.1429480E+00
         -4   -1    0    0    0  501 -0.00000000000E+00  0.00000000000E+00  0.46291712442E+01  0.48420684018E+01  0.14200000000E+01 0. -1.
          4   -1    0    0  501    0  0.00000000000E+00 -0.00000000000E+00 -0.14843630181E+03  0.14844309380E+03  0.14200000000E+01 0.  1.
        -13    1    1    2    0    0 -0.30612416174E+01 -0.23933729498E+02 -0.10377795538E+03  0.10654609239E+03  0.10570000000E+00 0.  1.
         13    1    1    2    0    0  0.30612416174E+01  0.23933729498E+02 -0.40029175187E+02  0.46739069809E+02  0.10570000000E+00 0. -1.
<mgrwt>
<rscale>  0 0.53064585E+02</rscale>
<asrwt>0</asrwt>
<pdfrwt beam="2">  1        4 0.22853250E-01 0.53064585E+02</pdfrwt>
<pdfrwt beam="1">  1       -4 0.72907947E-03 0.53064585E+02</pdfrwt>
<totfact> 0.95104955E+04</totfact>
</mgrwt>
</event>
<event>
 4    1  0.5624886E-001  0.2258087E+02  0.7818608E-02  0.1698396E+00
          4   -1    0    0  501    0  0.00000000000E+00  0.00000000000E+00  0.28170723596E+01  0.31547260863E+01  0.14200000000E+01 0. -1.
         -4   -1    0    0    0  501 -0.00000000000E+00 -0.00000000000E+00 -0.42341732071E+02  0.42365536404E+02  0.14200000000E+01 0.  1.
        -13    1    1    2    0    0  0.10509965227E+02 -0.40566018004E+01 -0.21253715815E+02  0.24055082533E+02  0.10570000000E+00 0. -1.
         13    1    1    2    0    0 -0.10509965227E+02  0.40566018004E+01 -0.18270943896E+02  0.21465179957E+02  0.10570000000E+00 0.  1.
<mgrwt>
<rscale>  0 0.22580867E+02</rscale>
<asrwt>0</asrwt>
<pdfrwt beam="1">  1        4 0.46120024E-03 0.22580867E+02</pdfrwt>
<pdfrwt beam="2">  1       -4 0.65419167E-02 0.22580867E+02</pdfrwt>
<totfact> 0.91187578E+05</totfact>
</mgrwt>
</event>
<event>
 4    1  0.5624886E-001  0.2209878E+02  0.7818608E-02  0.1706549E+00
          4   -1    0    0  501    0  0.00000000000E+00  0.00000000000E+00  0.10397337963E+01  0.17599563538E+01  0.14200000000E+01 0.  1.
         -4   -1    0    0    0  501 -0.00000000000E+00 -0.00000000000E+00 -0.86488568811E+02  0.86500225058E+02  0.14200000000E+01 0. -1.
        -13    1    1    2    0    0 -0.18857598323E+01 -0.10136809380E+02 -0.58583185179E+02  0.59483709978E+02  0.10570000000E+00 0. -1.
         13    1    1    2    0    0  0.18857598323E+01  0.10136809380E+02 -0.26865649836E+02  0.28776471433E+02  0.10570000000E+00 0.  1.
<mgrwt>
<rscale>  0 0.22098783E+02</rscale>
<asrwt>0</asrwt>
<pdfrwt beam="1">  1        4 0.21625748E-03 0.22098783E+02</pdfrwt>
<pdfrwt beam="2">  1       -4 0.13362228E-01 0.22098783E+02</pdfrwt>
<totfact> 0.82841398E+05</totfact>
</mgrwt>
</event>
<event>
 4    1  0.5624886E-001  0.2495609E+02  0.7818608E-02  0.1661633E+00
          4   -1    0    0  501    0  0.00000000000E+00  0.00000000000E+00  0.39565693118E+01  0.42036699108E+01  0.14200000000E+01 0.  1.
         -4   -1    0    0    0  501 -0.00000000000E+00 -0.00000000000E+00 -0.37900245310E+02  0.37926837392E+02  0.14200000000E+01 0. -1.
        -13    1    1    2    0    0  0.10132178346E+02  0.71658145657E+01 -0.19160313194E+02  0.22828462730E+02  0.10570000000E+00 0. -1.
         13    1    1    2    0    0 -0.10132178346E+02 -0.71658145657E+01 -0.14783362804E+02  0.19302044573E+02  0.10570000000E+00 0.  1.
<mgrwt>
<rscale>  0 0.24956092E+02</rscale>
<asrwt>0</asrwt>
<pdfrwt beam="1">  1        4 0.62975628E-03 0.24956092E+02</pdfrwt>
<pdfrwt beam="2">  1       -4 0.58518600E-02 0.24956092E+02</pdfrwt>
<totfact> 0.74651347E+05</totfact>
</mgrwt>
</event>
<event>
 4    1  0.5624886E-001  0.2842971E+02  0.7818608E-02  0.1616124E+00
          4   -1    0    0  501    0  0.00000000000E+00  0.00000000000E+00  0.48039860231E+01  0.50094592234E+01  0.14200000000E+01 0.  1.
         -4   -1    0    0    0  501 -0.00000000000E+00 -0.00000000000E+00 -0.40962618064E+02  0.40987223359E+02  0.14200000000E+01 0. -1.
        -13    1    1    2    0    0 -0.10289992469E+02 -0.87253324688E+01 -0.25321242976E+02  0.28691320813E+02  0.10570000000E+00 0. -1.
         13    1    1    2    0    0  0.10289992469E+02  0.87253324688E+01 -0.10837389066E+02  0.17305361769E+02  0.10570000000E+00 0.  1.
<mgrwt>
<rscale>  0 0.28429705E+02</rscale>
<asrwt>0</asrwt>
<pdfrwt beam="1">  1        4 0.75677314E-03 0.28429705E+02</pdfrwt>
<pdfrwt beam="2">  1       -4 0.63196394E-02 0.28429705E+02</pdfrwt>
<totfact> 0.55339906E+05</totfact>
</mgrwt>
</event>
<event>
 4    1  0.5624886E-001  0.2471450E+02  0.7818608E-02  0.1665137E+00
          4   -1    0    0  501    0  0.00000000000E+00  0.00000000000E+00  0.12962522465E+02  0.13040068583E+02  0.14200000000E+01 0.  1.
         -4   -1    0    0    0  501 -0.00000000000E+00 -0.00000000000E+00 -0.11624230749E+02  0.11710642191E+02  0.14200000000E+01 0. -1.
        -13    1    1    2    0    0 -0.66332917936E+01  0.97777491751E+01 -0.29535497084E+01  0.12179473196E+02  0.10570000000E+00 0. -1.
         13    1    1    2    0    0  0.66332917936E+01 -0.97777491751E+01  0.42918414237E+01  0.12571237578E+02  0.10570000000E+00 0.  1.
<mgrwt>
<rscale>  0 0.24714503E+02</rscale>
<asrwt>0</asrwt>
<pdfrwt beam="1">  1        4 0.20068463E-02 0.24714503E+02</pdfrwt>
<pdfrwt beam="2">  1       -4 0.18009553E-02 0.24714503E+02</pdfrwt>
<totfact> 0.81616121E+05</totfact>
</mgrwt>
</event>
<event>
 4    1  0.5624886E-001  0.3878682E+02  0.7818608E-02  0.1517334E+00
         -4   -1    0    0    0  501 -0.00000000000E+00  0.00000000000E+00  0.88261262430E+02  0.88272684595E+02  0.14200000000E+01 0. -1.
          4   -1    0    0  501    0  0.00000000000E+00 -0.00000000000E+00 -0.41309325744E+01  0.43681808495E+01  0.14200000000E+01 0.  1.
        -13    1    1    2    0    0  0.23009693376E+01 -0.18969048362E+02  0.49977416288E+02  0.53505818067E+02  0.10570000000E+00 0.  1.
         13    1    1    2    0    0 -0.23009693376E+01  0.18969048362E+02  0.34152913567E+02  0.39135047378E+02  0.10570000000E+00 0. -1.
<mgrwt>
<rscale>  0 0.38786822E+02</rscale>
<asrwt>0</asrwt>
<pdfrwt beam="2">  1        4 0.65465658E-03 0.38786822E+02</pdfrwt>
<pdfrwt beam="1">  1       -4 0.13597784E-01 0.38786822E+02</pdfrwt>
<totfact> 0.23541466E+05</totfact>
</mgrwt>
</event>
<event>
 4    1  0.5624886E-001  0.9934993E+02  0.7818608E-02  0.1281669E+00
         -4   -1    0    0    0  501 -0.00000000000E+00  0.00000000000E+00  0.44464153733E+02  0.44486822399E+02  0.14200000000E+01 0.  1.
          4   -1    0    0  501    0  0.00000000000E+00 -0.00000000000E+00 -0.55450530671E+02  0.55468709663E+02  0.14200000000E+01 0. -1.
        -13    1    1    2    0    0  0.36593227124E+02 -0.29858212566E+02  0.99959045627E+01  0.48275318844E+02  0.10570000000E+00 0.  1.
         13    1    1    2    0    0 -0.36593227124E+02  0.29858212566E+02 -0.20982281501E+02  0.51680213219E+02  0.10570000000E+00 0. -1.
<mgrwt>
<rscale>  0 0.99349927E+02</rscale>
<asrwt>0</asrwt>
<pdfrwt beam="2">  1        4 0.85339930E-02 0.99349927E+02</pdfrwt>
<pdfrwt beam="1">  1       -4 0.68437812E-02 0.99349927E+02</pdfrwt>
<totfact> 0.20932304E+04</totfact>
</mgrwt>
</event>
<event>
 4    1  0.5624886E-001  0.2871158E+02  0.7818608E-02  0.1612783E+00
         -4   -1    0    0    0  501 -0.00000000000E+00  0.00000000000E+00  0.50353129229E+01  0.52317087296E+01  0.14200000000E+01 0.  1.
          4   -1    0    0  501    0  0.00000000000E+00 -0.00000000000E+00 -0.39936497469E+02  0.39961734573E+02  0.14200000000E+01 0. -1.
        -13    1    1    2    0    0  0.12362785186E+02  0.62792836405E+00 -0.28893048252E+02  0.31433297017E+02  0.10570000000E+00 0.  1.
         13    1    1    2    0    0 -0.12362785186E+02 -0.62792836405E+00 -0.60081362942E+01  0.13760146286E+02  0.10570000000E+00 0. -1.
<mgrwt>
<rscale>  0 0.28711577E+02</rscale>
<asrwt>0</asrwt>
<pdfrwt beam="2">  1        4 0.61611250E-02 0.28711577E+02</pdfrwt>
<pdfrwt beam="1">  1       -4 0.79171223E-03 0.28711577E+02</pdfrwt>
<totfact> 0.54293610E+05</totfact>
</mgrwt>
</event>
<event>
 4    1  0.5624886E-001  0.2556599E+02  0.7818608E-02  0.1653003E+00
          4   -1    0    0  501    0  0.00000000000E+00  0.00000000000E+00  0.43023447721E+02  0.43046875076E+02  0.14200000000E+01 0.  1.
         -4   -1    0    0    0  501 -0.00000000000E+00 -0.00000000000E+00 -0.36399598841E+01  0.39071355182E+01  0.14200000000E+01 0. -1.
        -13    1    1    2    0    0 -0.13363801302E+01  0.10954050998E+02  0.78437792053E+01  0.13539320139E+02  0.10570000000E+00 0. -1.
         13    1    1    2    0    0  0.13363801302E+01 -0.10954050998E+02  0.31539708631E+02  0.33414690454E+02  0.10570000000E+00 0.  1.
<mgrwt>
<rscale>  0 0.25565993E+02</rscale>
<asrwt>0</asrwt>
<pdfrwt beam="1">  1        4 0.66413464E-02 0.25565993E+02</pdfrwt>
<pdfrwt beam="2">  1       -4 0.58234787E-03 0.25565993E+02</pdfrwt>
<totfact> 0.69622418E+05</totfact>
</mgrwt>
</event>
<event>
 4    1  0.5624886E-001  0.2970397E+02  0.7818608E-02  0.1601384E+00
         -4   -1    0    0    0  501 -0.00000000000E+00  0.00000000000E+00  0.45392846945E+01  0.47562070537E+01  0.14200000000E+01 0. -1.
          4   -1    0    0  501    0  0.00000000000E+00 -0.00000000000E+00 -0.47232048739E+02  0.47253389593E+02  0.14200000000E+01 0.  1.
        -13    1    1    2    0    0 -0.13208516631E+02 -0.64734085100E+01 -0.24934896534E+02  0.28950477836E+02  0.10570000000E+00 0.  1.
         13    1    1    2    0    0  0.13208516631E+02  0.64734085100E+01 -0.17757867510E+02  0.23059118811E+02  0.10570000000E+00 0. -1.
<mgrwt>
<rscale>  0 0.29703973E+02</rscale>
<asrwt>0</asrwt>
<pdfrwt beam="2">  1        4 0.72847966E-02 0.29703973E+02</pdfrwt>
<pdfrwt beam="1">  1       -4 0.71667946E-03 0.29703973E+02</pdfrwt>
<totfact> 0.49156810E+05</totfact>
</mgrwt>
</event>
<event>
 4    1  0.5624886E-001  0.2318830E+02  0.7818608E-02  0.1688476E+00
         -4   -1    0    0    0  501 -0.00000000000E+00  0.00000000000E+00  0.12909882265E+02  0.12987742687E+02  0.14200000000E+01 0.  1.
          4   -1    0    0  501    0  0.00000000000E+00 -0.00000000000E+00 -0.10254274717E+02  0.10352127799E+02  0.14200000000E+01 0. -1.
        -13    1    1    2    0    0  0.88204218335E+01 -0.61138244447E+01  0.57421819991E+01  0.12172202646E+02  0.10570000000E+00 0.  1.
         13    1    1    2    0    0 -0.88204218335E+01  0.61138244447E+01 -0.30865744509E+01  0.11167667840E+02  0.10570000000E+00 0. -1.
<mgrwt>
<rscale>  0 0.23188301E+02</rscale>
<asrwt>0</asrwt>
<pdfrwt beam="2">  1        4 0.15910972E-02 0.23188301E+02</pdfrwt>
<pdfrwt beam="1">  1       -4 0.19996521E-02 0.23188301E+02</pdfrwt>
<totfact> 0.94133101E+05</totfact>
</mgrwt>
</event>
<event>
 4    1  0.5624886E-001  0.2793919E+02  0.7818608E-02  0.1622053E+00
          4   -1    0    0  501    0  0.00000000000E+00  0.00000000000E+00  0.32925885522E+02  0.32956491582E+02  0.14200000000E+01 0.  1.
         -4   -1    0    0    0  501 -0.00000000000E+00 -0.00000000000E+00 -0.58079995769E+01  0.59790684128E+01  0.14200000000E+01 0. -1.
        -13    1    1    2    0    0 -0.66345955371E+01  0.83380747874E+01  0.26147321198E+02  0.28235348898E+02  0.10570000000E+00 0. -1.
         13    1    1    2    0    0  0.66345955371E+01 -0.83380747874E+01  0.97056474768E+00  0.10700211097E+02  0.10570000000E+00 0.  1.
<mgrwt>
<rscale>  0 0.27939186E+02</rscale>
<asrwt>0</asrwt>
<pdfrwt beam="1">  1        4 0.50810343E-02 0.27939186E+02</pdfrwt>
<pdfrwt beam="2">  1       -4 0.90905186E-03 0.27939186E+02</pdfrwt>
<totfact> 0.58996795E+05</totfact>
</mgrwt>
</event>
<event>
 4    1  0.5624886E-001  0.3905483E+02  0.7818608E-02  0.1515284E+00
         -4   -1    0    0    0  501 -0.00000000000E+00  0.00000000000E+00  0.30598515211E+01  0.33732908755E+01  0.14200000000E+01 0.  1.
          4   -1    0    0  501    0  0.00000000000E+00 -0.00000000000E+00 -0.11823068846E+03  0.11823921555E+03  0.14200000000E+01 0. -1.
        -13    1    1    2    0    0 -0.17132570485E+02  0.10937882269E-01 -0.86760394015E+02  0.88435865084E+02  0.10570000000E+00 0. -1.
         13    1    1    2    0    0  0.17132570485E+02 -0.10937882269E-01 -0.28410442926E+02  0.33176641343E+02  0.10570000000E+00 0.  1.
<mgrwt>
<rscale>  0 0.39054834E+02</rscale>
<asrwt>0</asrwt>
<pdfrwt beam="2">  1        4 0.18214100E-01 0.39054834E+02</pdfrwt>
<pdfrwt beam="1">  1       -4 0.49551313E-03 0.39054834E+02</pdfrwt>
<totfact> 0.21468205E+05</totfact>
</mgrwt>
</event>
<event>
 4    1  0.5624886E-001  0.2144128E+02  0.7818608E-02  0.1718098E+00
         -4   -1    0    0    0  501 -0.00000000000E+00  0.00000000000E+00  0.22387630940E+02  0.22432619532E+02  0.14200000000E+01 0. -1.
          4   -1    0    0  501    0  0.00000000000E+00 -0.00000000000E+00 -0.49843280006E+01  0.51826562319E+01  0.14200000000E+01 0.  1.
        -13    1    1    2    0    0 -0.19611478477E+01  0.10438781696E+02  0.10571036992E+02  0.14985735209E+02  0.10570000000E+00 0. -1.
         13    1    1    2    0    0  0.19611478477E+01 -0.10438781696E+02  0.68322659473E+01  0.12629540556E+02  0.10570000000E+00 0.  1.
<mgrwt>
<rscale>  0 0.21441280E+02</rscale>
<asrwt>0</asrwt>
<pdfrwt beam="2">  1        4 0.78553636E-03 0.21441280E+02</pdfrwt>
<pdfrwt beam="1">  1       -4 0.34629676E-02 0.21441280E+02</pdfrwt>
<totfact> 0.10900378E+06</totfact>
</mgrwt>
</event>
<event>
 4    1  0.5624886E-001  0.3273268E+02  0.7818608E-02  0.1569709E+00
          4   -1    0    0  501    0  0.00000000000E+00  0.00000000000E+00  0.26958422228E+02  0.26995794654E+02  0.14200000000E+01 0.  1.
         -4   -1    0    0    0  501 -0.00000000000E+00 -0.00000000000E+00 -0.98406798090E+01  0.99426042415E+01  0.14200000000E+01 0. -1.
        -13    1    1    2    0    0  0.16055817891E+02 -0.31675402104E+01  0.87310542237E+01  0.18548991333E+02  0.10570000000E+00 0.  1.
         13    1    1    2    0    0 -0.16055817891E+02  0.31675402104E+01  0.83866881950E+01  0.18389407562E+02  0.10570000000E+00 0. -1.
<mgrwt>
<rscale>  0 0.32732678E+02</rscale>
<asrwt>0</asrwt>
<pdfrwt beam="1">  1        4 0.41581647E-02 0.32732678E+02</pdfrwt>
<pdfrwt beam="2">  1       -4 0.15246659E-02 0.32732678E+02</pdfrwt>
<totfact> 0.41550147E+05</totfact>
</mgrwt>
</event>
<event>
 4    1  0.5624886E-001  0.3858637E+02  0.7818608E-02  0.1518880E+00
         -4   -1    0    0    0  501 -0.00000000000E+00  0.00000000000E+00  0.51025555004E+01  0.52964584993E+01  0.14200000000E+01 0.  1.
          4   -1    0    0  501    0  0.00000000000E+00 -0.00000000000E+00 -0.71387802471E+02  0.71401923935E+02  0.14200000000E+01 0. -1.
        -13    1    1    2    0    0 -0.18254195662E+02 -0.60703589363E+01 -0.30227472865E+02  0.35829822846E+02  0.10570000000E+00 0. -1.
         13    1    1    2    0    0  0.18254195662E+02  0.60703589363E+01 -0.36057774105E+02  0.40868559588E+02  0.10570000000E+00 0.  1.
<mgrwt>
<rscale>  0 0.38586369E+02</rscale>
<asrwt>0</asrwt>
<pdfrwt beam="2">  1        4 0.10998740E-01 0.38586369E+02</pdfrwt>
<pdfrwt beam="1">  1       -4 0.80101047E-03 0.38586369E+02</pdfrwt>
<totfact> 0.24925990E+05</totfact>
</mgrwt>
</event>
<event>
 4    1  0.5624886E-001  0.3365018E+02  0.7818608E-02  0.1560925E+00
         -4   -1    0    0    0  501 -0.00000000000E+00  0.00000000000E+00  0.20918878853E+02  0.20967019161E+02  0.14200000000E+01 0. -1.
          4   -1    0    0  501    0  0.00000000000E+00 -0.00000000000E+00 -0.13431281684E+02  0.13506136667E+02  0.14200000000E+01 0.  1.
        -13    1    1    2    0    0 -0.46687113885E+00 -0.10135562243E+02  0.17493095413E+02  0.20222936242E+02  0.10570000000E+00 0. -1.
         13    1    1    2    0    0  0.46687113885E+00  0.10135562243E+02 -0.10005498244E+02  0.14250219586E+02  0.10570000000E+00 0.  1.
<mgrwt>
<rscale>  0 0.33650176E+02</rscale>
<asrwt>0</asrwt>
<pdfrwt beam="2">  1        4 0.20758122E-02 0.33650176E+02</pdfrwt>
<pdfrwt beam="1">  1       -4 0.32277502E-02 0.33650176E+02</pdfrwt>
<totfact> 0.39334839E+05</totfact>
</mgrwt>
</event>
<event>
 4    1  0.5624886E-001  0.2274474E+02  0.7818608E-02  0.1695681E+00
         -4   -1    0    0    0  501 -0.00000000000E+00  0.00000000000E+00  0.35881564093E+02  0.35909651095E+02  0.14200000000E+01 0. -1.
          4   -1    0    0  501    0  0.00000000000E+00 -0.00000000000E+00 -0.34338145347E+01  0.37158420659E+01  0.14200000000E+01 0.  1.
        -13    1    1    2    0    0 -0.20751184341E+01 -0.10015380129E+02  0.24883361253E+02  0.26903657658E+02  0.10570000000E+00 0. -1.
         13    1    1    2    0    0  0.20751184341E+01  0.10015380129E+02  0.75643883054E+01  0.12721835503E+02  0.10570000000E+00 0.  1.
<mgrwt>
<rscale>  0 0.22744741E+02</rscale>
<asrwt>0</asrwt>
<pdfrwt beam="2">  1        4 0.55213410E-03 0.22744741E+02</pdfrwt>
<pdfrwt beam="1">  1       -4 0.55440959E-02 0.22744741E+02</pdfrwt>
<totfact> 0.91814595E+05</totfact>
</mgrwt>
</event>
<event>
 4    1  0.5624886E-001  0.2906667E+02  0.7818608E-02  0.1608641E+00
         -4   -1    0    0    0  501 -0.00000000000E+00  0.00000000000E+00  0.11796317731E+03  0.11797172374E+03  0.14200000000E+01 0.  1.
          4   -1    0    0  501    0  0.00000000000E+00 -0.00000000000E+00 -0.14990218017E+01  0.20648163022E+01  0.14200000000E+01 0. -1.
        -13    1    1    2    0    0 -0.12580087481E+02 -0.62873811179E+01  0.43105363633E+02  0.45341739145E+02  0.10570000000E+00 0. -1.
         13    1    1    2    0    0  0.12580087481E+02  0.62873811179E+01  0.73358791879E+02  0.74694800896E+02  0.10570000000E+00 0.  1.
<mgrwt>
<rscale>  0 0.29066672E+02</rscale>
<asrwt>0</asrwt>
<pdfrwt beam="2">  1        4 0.27479878E-03 0.29066672E+02</pdfrwt>
<pdfrwt beam="1">  1       -4 0.18192363E-01 0.29066672E+02</pdfrwt>
<totfact> 0.42236584E+05</totfact>
</mgrwt>
</event>
<event>
 4    1  0.5624886E-001  0.2801135E+02  0.7818608E-02  0.1621171E+00
          4   -1    0    0  501    0  0.00000000000E+00  0.00000000000E+00  0.61374168294E+01  0.62995464391E+01  0.14200000000E+01 0. -1.
         -4   -1    0    0    0  501 -0.00000000000E+00 -0.00000000000E+00 -0.31366098493E+02  0.31398225025E+02  0.14200000000E+01 0.  1.
        -13    1    1    2    0    0 -0.38891202835E+01  0.13330748670E+02 -0.10164531187E+02  0.17209386492E+02  0.10570000000E+00 0. -1.
         13    1    1    2    0    0  0.38891202835E+01 -0.13330748670E+02 -0.15064150477E+02  0.20488384972E+02  0.10570000000E+00 0.  1.
<mgrwt>
<rscale>  0 0.28011348E+02</rscale>
<asrwt>0</asrwt>
<pdfrwt beam="1">  1        4 0.95916077E-03 0.28011348E+02</pdfrwt>
<pdfrwt beam="2">  1       -4 0.48404963E-02 0.28011348E+02</pdfrwt>
<totfact> 0.58929575E+05</totfact>
</mgrwt>
</event>
<event>
 4    1  0.5624886E-001  0.3245811E+02  0.7818608E-02  0.1572406E+00
          4   -1    0    0  501    0  0.00000000000E+00  0.00000000000E+00  0.68431608800E+01  0.69889377469E+01  0.14200000000E+01 0.  1.
         -4   -1    0    0    0  501 -0.00000000000E+00 -0.00000000000E+00 -0.37923551679E+02  0.37950127430E+02  0.14200000000E+01 0. -1.
        -13    1    1    2    0    0 -0.13019623915E+02 -0.84565416584E+01 -0.89951331492E+01  0.17942889861E+02  0.10570000000E+00 0.  1.
         13    1    1    2    0    0  0.13019623915E+02  0.84565416584E+01 -0.22085257650E+02  0.26996175316E+02  0.10570000000E+00 0. -1.
<mgrwt>
<rscale>  0 0.32458110E+02</rscale>
<asrwt>0</asrwt>
<pdfrwt beam="1">  1        4 0.10660519E-02 0.32458110E+02</pdfrwt>
<pdfrwt beam="2">  1       -4 0.58476503E-02 0.32458110E+02</pdfrwt>
<totfact> 0.41179972E+05</totfact>
</mgrwt>
</event>
<event>
 4    1  0.5624886E-001  0.6274627E+02  0.7818608E-02  0.1386655E+00
          4   -1    0    0  501    0  0.00000000000E+00  0.00000000000E+00  0.46276073644E+02  0.46297855154E+02  0.14200000000E+01 0.  1.
         -4   -1    0    0    0  501 -0.00000000000E+00 -0.00000000000E+00 -0.21219078118E+02  0.21266538885E+02  0.14200000000E+01 0. -1.
        -13    1    1    2    0    0 -0.24220225149E+02 -0.15084914399E+02  0.26571740373E+02  0.38990287350E+02  0.10570000000E+00 0.  1.
         13    1    1    2    0    0  0.24220225149E+02  0.15084914399E+02 -0.15147448467E+01  0.28574106690E+02  0.10570000000E+00 0. -1.
<mgrwt>
<rscale>  0 0.62746269E+02</rscale>
<asrwt>0</asrwt>
<pdfrwt beam="1">  1        4 0.71247223E-02 0.62746269E+02</pdfrwt>
<pdfrwt beam="2">  1       -4 0.32697999E-02 0.62746269E+02</pdfrwt>
<totfact> 0.77110418E+04</totfact>
</mgrwt>
</event>
<event>
 4    1  0.5624886E-001  0.5300001E+02  0.7818608E-02  0.1429801E+00
         -4   -1    0    0    0  501 -0.00000000000E+00  0.00000000000E+00  0.24015807628E+02  0.24057751682E+02  0.14200000000E+01 0. -1.
          4   -1    0    0  501    0  0.00000000000E+00 -0.00000000000E+00 -0.29156419597E+02  0.29190978122E+02  0.14200000000E+01 0.  1.
        -13    1    1    2    0    0 -0.24506854319E+02  0.97761828853E+01 -0.93070823632E-01  0.26385213569E+02  0.10570000000E+00 0.  1.
         13    1    1    2    0    0  0.24506854319E+02 -0.97761828853E+01 -0.50475411455E+01  0.26863516235E+02  0.10570000000E+00 0. -1.
<mgrwt>
<rscale>  0 0.53000013E+02</rscale>
<asrwt>0</asrwt>
<pdfrwt beam="2">  1        4 0.44914878E-02 0.53000013E+02</pdfrwt>
<pdfrwt beam="1">  1       -4 0.37006245E-02 0.53000013E+02</pdfrwt>
<totfact> 0.12341579E+05</totfact>
</mgrwt>
</event>
<event>
 4    1  0.5624886E-001  0.2223874E+02  0.7818608E-02  0.1704156E+00
          4   -1    0    0  501    0  0.00000000000E+00  0.00000000000E+00  0.81051593357E+00  0.16350339686E+01  0.14200000000E+01 0.  1.
         -4   -1    0    0    0  501 -0.00000000000E+00 -0.00000000000E+00 -0.10028331961E+03  0.10029337263E+03  0.14200000000E+01 0. -1.
        -13    1    1    2    0    0 -0.10441423752E+02  0.21913148714E+01 -0.64087544368E+02  0.64969606020E+02  0.10570000000E+00 0.  1.
         13    1    1    2    0    0  0.10441423752E+02 -0.21913148714E+01 -0.35385259311E+02  0.36958800574E+02  0.10570000000E+00 0. -1.
<mgrwt>
<rscale>  0 0.22238736E+02</rscale>
<asrwt>0</asrwt>
<pdfrwt beam="1">  1        4 0.18889261E-03 0.22238736E+02</pdfrwt>
<pdfrwt beam="2">  1       -4 0.15492394E-01 0.22238736E+02</pdfrwt>
<totfact> 0.78567854E+05</totfact>
</mgrwt>
</event>
<event>
 4    1  0.5624886E-001  0.3701609E+02  0.7818608E-02  0.1531393E+00
          4   -1    0    0  501    0  0.00000000000E+00  0.00000000000E+00  0.11282823860E+02  0.11371829855E+02  0.14200000000E+01 0.  1.
         -4   -1    0    0    0  501 -0.00000000000E+00 -0.00000000000E+00 -0.30135036543E+02  0.30168474066E+02  0.14200000000E+01 0. -1.
        -13    1    1    2    0    0  0.11701811654E+02 -0.13460313866E+01  0.65942834317E+01  0.13499627512E+02  0.10570000000E+00 0.  1.
         13    1    1    2    0    0 -0.11701811654E+02  0.13460313866E+01 -0.25446496115E+02  0.28040676409E+02  0.10570000000E+00 0. -1.
<mgrwt>
<rscale>  0 0.37016090E+02</rscale>
<asrwt>0</asrwt>
<pdfrwt beam="1">  1        4 0.17452378E-02 0.37016090E+02</pdfrwt>
<pdfrwt beam="2">  1       -4 0.46455782E-02 0.37016090E+02</pdfrwt>
<totfact> 0.30704691E+05</totfact>
</mgrwt>
</event>
<event>
 4    1  0.5624886E-001  0.2300431E+02  0.7818608E-02  0.1691440E+00
         -4   -1    0    0    0  501 -0.00000000000E+00  0.00000000000E+00  0.28692589993E+01  0.32014133137E+01  0.14200000000E+01 0. -1.
          4   -1    0    0  501    0  0.00000000000E+00 -0.00000000000E+00 -0.43242001600E+02  0.43265310612E+02  0.14200000000E+01 0.  1.
        -13    1    1    2    0    0  0.20439057155E+01 -0.10139742349E+02 -0.30345640914E+02  0.32060271684E+02  0.10570000000E+00 0.  1.
         13    1    1    2    0    0 -0.20439057155E+01  0.10139742349E+02 -0.10027101687E+02  0.14406452242E+02  0.10570000000E+00 0. -1.
<mgrwt>
<rscale>  0 0.23004306E+02</rscale>
<asrwt>0</asrwt>
<pdfrwt beam="2">  1        4 0.66799585E-02 0.23004306E+02</pdfrwt>
<pdfrwt beam="1">  1       -4 0.46876782E-03 0.23004306E+02</pdfrwt>
<totfact> 0.87394043E+05</totfact>
</mgrwt>
</event>
<event>
 4    1  0.5624886E-001  0.3530725E+02  0.7818608E-02  0.1545889E+00
          4   -1    0    0  501    0  0.00000000000E+00  0.00000000000E+00  0.33954779715E+02  0.33984459176E+02  0.14200000000E+01 0.  1.
         -4   -1    0    0    0  501 -0.00000000000E+00 -0.00000000000E+00 -0.90895616385E+01  0.91998114535E+01  0.14200000000E+01 0. -1.
        -13    1    1    2    0    0  0.16483325976E+02 -0.33368478195E+00  0.20151516388E+02  0.26036631234E+02  0.10570000000E+00 0. -1.
         13    1    1    2    0    0 -0.16483325976E+02  0.33368478195E+00  0.47137016878E+01  0.17147639396E+02  0.10570000000E+00 0.  1.
<mgrwt>
<rscale>  0 0.35307254E+02</rscale>
<asrwt>0</asrwt>
<pdfrwt beam="1">  1        4 0.52345761E-02 0.35307254E+02</pdfrwt>
<pdfrwt beam="2">  1       -4 0.14091579E-02 0.35307254E+02</pdfrwt>
<totfact> 0.34115127E+05</totfact>
</mgrwt>
</event>
<event>
 4    1  0.5624886E-001  0.6008262E+02  0.7818608E-02  0.1397485E+00
         -4   -1    0    0    0  501 -0.00000000000E+00  0.00000000000E+00  0.11925387172E+02  0.12009631935E+02  0.14200000000E+01 0.  1.
          4   -1    0    0  501    0  0.00000000000E+00 -0.00000000000E+00 -0.75319911985E+02  0.75333296367E+02  0.14200000000E+01 0. -1.
        -13    1    1    2    0    0 -0.21003696262E+02 -0.18822224917E+02 -0.46737246545E+02  0.54587661560E+02  0.10570000000E+00 0. -1.
         13    1    1    2    0    0  0.21003696262E+02  0.18822224917E+02 -0.16657278268E+02  0.32755266741E+02  0.10570000000E+00 0.  1.
<mgrwt>
<rscale>  0 0.60082621E+02</rscale>
<asrwt>0</asrwt>
<pdfrwt beam="2">  1        4 0.11595188E-01 0.60082621E+02</pdfrwt>
<pdfrwt beam="1">  1       -4 0.18421849E-02 0.60082621E+02</pdfrwt>
<totfact> 0.81695988E+04</totfact>
</mgrwt>
</event>
<event>
 4    1  0.5624886E-001  0.2566697E+02  0.7818608E-02  0.1651603E+00
          4   -1    0    0  501    0  0.00000000000E+00  0.00000000000E+00  0.60689573823E+01  0.62328680163E+01  0.14200000000E+01 0.  1.
         -4   -1    0    0    0  501 -0.00000000000E+00 -0.00000000000E+00 -0.26593144879E+02  0.26631029919E+02  0.14200000000E+01 0. -1.
        -13    1    1    2    0    0  0.10668285709E+02 -0.68009277323E+01 -0.75093106655E+01  0.14712778703E+02  0.10570000000E+00 0.  1.
         13    1    1    2    0    0 -0.10668285709E+02  0.68009277323E+01 -0.13014876831E+02  0.18151119233E+02  0.10570000000E+00 0. -1.
<mgrwt>
<rscale>  0 0.25666973E+02</rscale>
<asrwt>0</asrwt>
<pdfrwt beam="1">  1        4 0.94920851E-03 0.25666973E+02</pdfrwt>
<pdfrwt beam="2">  1       -4 0.41067757E-02 0.25666973E+02</pdfrwt>
<totfact> 0.72747046E+05</totfact>
</mgrwt>
</event>
<event>
 4    1  0.5624886E-001  0.2646610E+02  0.7818608E-02  0.1640795E+00
         -4   -1    0    0    0  501 -0.00000000000E+00  0.00000000000E+00  0.12284258423E+02  0.12366058588E+02  0.14200000000E+01 0. -1.
          4   -1    0    0  501    0  0.00000000000E+00 -0.00000000000E+00 -0.14090209372E+02  0.14161581837E+02  0.14200000000E+01 0.  1.
        -13    1    1    2    0    0 -0.59972164750E+01  0.10315997402E+02 -0.66360648620E+01  0.13654117957E+02  0.10570000000E+00 0.  1.
         13    1    1    2    0    0  0.59972164750E+01 -0.10315997402E+02  0.48301139131E+01  0.12873522468E+02  0.10570000000E+00 0. -1.
<mgrwt>
<rscale>  0 0.26466096E+02</rscale>
<asrwt>0</asrwt>
<pdfrwt beam="2">  1        4 0.21795070E-02 0.26466096E+02</pdfrwt>
<pdfrwt beam="1">  1       -4 0.19016684E-02 0.26466096E+02</pdfrwt>
<totfact> 0.69760234E+05</totfact>
</mgrwt>
</event>
<event>
 4    1  0.5624886E-001  0.2140015E+02  0.7818608E-02  0.1718837E+00
         -4   -1    0    0    0  501 -0.00000000000E+00  0.00000000000E+00  0.71760745029E+02  0.71774793118E+02  0.14200000000E+01 0. -1.
          4   -1    0    0  501    0  0.00000000000E+00 -0.00000000000E+00 -0.12624250448E+01  0.19000307876E+01  0.14200000000E+01 0.  1.
        -13    1    1    2    0    0  0.87732804717E+01 -0.58672328653E+01  0.41296601628E+02  0.42624117003E+02  0.10570000000E+00 0. -1.
         13    1    1    2    0    0 -0.87732804717E+01  0.58672328653E+01  0.29201718356E+02  0.31050706903E+02  0.10570000000E+00 0.  1.
<mgrwt>
<rscale>  0 0.21400153E+02</rscale>
<asrwt>0</asrwt>
<pdfrwt beam="2">  1        4 0.24434649E-03 0.21400153E+02</pdfrwt>
<pdfrwt beam="1">  1       -4 0.11090240E-01 0.21400153E+02</pdfrwt>
<totfact> 0.92585605E+05</totfact>
</mgrwt>
</event>
<event>
 4    1  0.5624886E-001  0.4221586E+02  0.7818608E-02  0.1492511E+00
         -4   -1    0    0    0  501 -0.00000000000E+00  0.00000000000E+00  0.19420351556E+03  0.19420870695E+03  0.14200000000E+01 0. -1.
          4   -1    0    0  501    0  0.00000000000E+00 -0.00000000000E+00 -0.20687625292E+01  0.25092186836E+01  0.14200000000E+01 0.  1.
        -13    1    1    2    0    0 -0.20620830593E+02  0.24934870121E+01  0.78571396184E+02  0.81270607249E+02  0.10570000000E+00 0.  1.
         13    1    1    2    0    0  0.20620830593E+02 -0.24934870121E+01  0.11356335685E+03  0.11544731838E+03  0.10570000000E+00 0. -1.
<mgrwt>
<rscale>  0 0.42215861E+02</rscale>
<asrwt>0</asrwt>
<pdfrwt beam="2">  1        4 0.35255169E-03 0.42215861E+02</pdfrwt>
<pdfrwt beam="1">  1       -4 0.29911748E-01 0.42215861E+02</pdfrwt>
<totfact> 0.15040040E+05</totfact>
</mgrwt>
</event>
<event>
 4    1  0.5624886E-001  0.2304030E+02  0.7818608E-02  0.1690858E+00
         -4   -1    0    0    0  501 -0.00000000000E+00  0.00000000000E+00  0.42821751235E+02  0.42845288876E+02  0.14200000000E+01 0.  1.
          4   -1    0    0  501    0  0.00000000000E+00 -0.00000000000E+00 -0.29108343971E+01  0.32387276649E+01  0.14200000000E+01 0. -1.
        -13    1    1    2    0    0  0.37090934840E+01  0.10850926952E+02  0.22148940010E+02  0.24941666067E+02  0.10570000000E+00 0.  1.
         13    1    1    2    0    0 -0.37090934840E+01 -0.10850926952E+02  0.17761976829E+02  0.21142350473E+02  0.10570000000E+00 0. -1.
<mgrwt>
<rscale>  0 0.23040297E+02</rscale>
<asrwt>0</asrwt>
<pdfrwt beam="2">  1        4 0.47485384E-03 0.23040297E+02</pdfrwt>
<pdfrwt beam="1">  1       -4 0.66149947E-02 0.23040297E+02</pdfrwt>
<totfact> 0.87228391E+05</totfact>
</mgrwt>
</event>
<event>
 4    1  0.5624886E-001  0.2538252E+02  0.7818608E-02  0.1655568E+00
          4   -1    0    0  501    0  0.00000000000E+00  0.00000000000E+00  0.38470735041E+02  0.38496933054E+02  0.14200000000E+01 0. -1.
         -4   -1    0    0    0  501 -0.00000000000E+00 -0.00000000000E+00 -0.40379021547E+01  0.42803100134E+01  0.14200000000E+01 0.  1.
        -13    1    1    2    0    0 -0.93834441019E+01 -0.77938352443E+01  0.11314469061E+02  0.16637946798E+02  0.10570000000E+00 0. -1.
         13    1    1    2    0    0  0.93834441019E+01  0.77938352443E+01  0.23118363825E+02  0.26139296270E+02  0.10570000000E+00 0.  1.
<mgrwt>
<rscale>  0 0.25382524E+02</rscale>
<asrwt>0</asrwt>
<pdfrwt beam="1">  1        4 0.59392367E-02 0.25382524E+02</pdfrwt>
<pdfrwt beam="2">  1       -4 0.64187769E-03 0.25382524E+02</pdfrwt>
<totfact> 0.71792973E+05</totfact>
</mgrwt>
</event>
<event>
 4    1  0.5624886E-001  0.5605533E+02  0.7818608E-02  0.1415173E+00
          4   -1    0    0  501    0  0.00000000000E+00  0.00000000000E+00  0.12034108643E+03  0.12034946399E+03  0.14200000000E+01 0. -1.
         -4   -1    0    0    0  501 -0.00000000000E+00 -0.00000000000E+00 -0.64417613242E+01  0.65964148564E+01  0.14200000000E+01 0.  1.
        -13    1    1    2    0    0 -0.15539871066E+02  0.12841492804E+02  0.10104631981E+03  0.10303767005E+03  0.10570000000E+00 0. -1.
         13    1    1    2    0    0  0.15539871066E+02 -0.12841492804E+02  0.12853005295E+02  0.23908208795E+02  0.10570000000E+00 0.  1.
<mgrwt>
<rscale>  0 0.56055329E+02</rscale>
<asrwt>0</asrwt>
<pdfrwt beam="1">  1        4 0.18526555E-01 0.56055329E+02</pdfrwt>
<pdfrwt beam="2">  1       -4 0.10035810E-02 0.56055329E+02</pdfrwt>
<totfact> 0.88187423E+04</totfact>
</mgrwt>
</event>
<event>
 4    1  0.5624886E-001  0.2846072E+02  0.7818608E-02  0.1615754E+00
         -4   -1    0    0    0  501 -0.00000000000E+00  0.00000000000E+00  0.82764946572E+02  0.82777127161E+02  0.14200000000E+01 0. -1.
          4   -1    0    0  501    0  0.00000000000E+00 -0.00000000000E+00 -0.22272715998E+01  0.26414274132E+01  0.14200000000E+01 0.  1.
        -13    1    1    2    0    0 -0.12641074582E+02  0.64388791193E+01  0.36932162053E+02  0.39563261965E+02  0.10570000000E+00 0.  1.
         13    1    1    2    0    0  0.12641074582E+02 -0.64388791193E+01  0.43605512919E+02  0.45855292610E+02  0.10570000000E+00 0. -1.
<mgrwt>
<rscale>  0 0.28460716E+02</rscale>
<asrwt>0</asrwt>
<pdfrwt beam="2">  1        4 0.37545228E-03 0.28460716E+02</pdfrwt>
<pdfrwt beam="1">  1       -4 0.12765864E-01 0.28460716E+02</pdfrwt>
<totfact> 0.48676960E+05</totfact>
</mgrwt>
</event>
<event>
 4    1  0.5624886E-001  0.3012042E+02  0.7818608E-02  0.1596761E+00
          4   -1    0    0  501    0  0.00000000000E+00  0.00000000000E+00  0.18355342384E+02  0.18410187235E+02  0.14200000000E+01 0.  1.
         -4   -1    0    0    0  501 -0.00000000000E+00 -0.00000000000E+00 -0.12242239091E+02  0.12324318154E+02  0.14200000000E+01 0. -1.
        -13    1    1    2    0    0  0.11614433278E+02  0.84413851802E+01 -0.15799544099E+01  0.14445050105E+02  0.10570000000E+00 0. -1.
         13    1    1    2    0    0 -0.11614433278E+02 -0.84413851802E+01  0.76930577026E+01  0.16289455283E+02  0.10570000000E+00 0.  1.
<mgrwt>
<rscale>  0 0.30120421E+02</rscale>
<asrwt>0</asrwt>
<pdfrwt beam="1">  1        4 0.28344314E-02 0.30120421E+02</pdfrwt>
<pdfrwt beam="2">  1       -4 0.18939540E-02 0.30120421E+02</pdfrwt>
<totfact> 0.51417084E+05</totfact>
</mgrwt>
</event>
<event>
 4    1  0.5624886E-001  0.1630290E+03  0.7818608E-02  0.1185319E+00
          4   -1    0    0  501    0  0.00000000000E+00  0.00000000000E+00  0.19861139815E+02  0.19911837553E+02  0.14200000000E+01 0. -1.
         -4   -1    0    0    0  501 -0.00000000000E+00 -0.00000000000E+00 -0.33407475333E+03  0.33407777120E+03  0.14200000000E+01 0.  1.
        -13    1    1    2    0    0 -0.71578754703E+02  0.35368130489E+01 -0.72771589145E+02  0.10213590226E+03  0.10570000000E+00 0.  1.
         13    1    1    2    0    0  0.71578754703E+02 -0.35368130489E+01 -0.24144202437E+03  0.25185370649E+03  0.10570000000E+00 0. -1.
<mgrwt>
<rscale>  0 0.16302898E+03</rscale>
<asrwt>0</asrwt>
<pdfrwt beam="1">  1        4 0.30596922E-02 0.16302898E+03</pdfrwt>
<pdfrwt beam="2">  1       -4 0.51400244E-01 0.16302898E+03</pdfrwt>
<totfact> 0.32787188E+03</totfact>
</mgrwt>
</event>
<event>
 4    1  0.5624886E-001  0.3064540E+02  0.7818608E-02  0.1591062E+00
          4   -1    0    0  501    0  0.00000000000E+00  0.00000000000E+00  0.22027300695E+02  0.22073023715E+02  0.14200000000E+01 0. -1.
         -4   -1    0    0    0  501 -0.00000000000E+00 -0.00000000000E+00 -0.10554450402E+02  0.10649545685E+02  0.14200000000E+01 0.  1.
        -13    1    1    2    0    0  0.58260240466E+01 -0.11768645889E+02  0.14166507335E+02  0.19316953301E+02  0.10570000000E+00 0. -1.
         13    1    1    2    0    0 -0.58260240466E+01  0.11768645889E+02 -0.26936570420E+01  0.13405616099E+02  0.10570000000E+00 0.  1.
<mgrwt>
<rscale>  0 0.30645395E+02</rscale>
<asrwt>0</asrwt>
<pdfrwt beam="1">  1        4 0.33996477E-02 0.30645395E+02</pdfrwt>
<pdfrwt beam="2">  1       -4 0.16345938E-02 0.30645395E+02</pdfrwt>
<totfact> 0.49065174E+05</totfact>
</mgrwt>
</event>
<event>
 4    1  0.5624886E-001  0.2406118E+02  0.7818608E-02  0.1674865E+00
         -4   -1    0    0    0  501 -0.00000000000E+00  0.00000000000E+00  0.28515366773E+01  0.31855394240E+01  0.14200000000E+01 0.  1.
          4   -1    0    0  501    0  0.00000000000E+00 -0.00000000000E+00 -0.47603553540E+02  0.47624727922E+02  0.14200000000E+01 0. -1.
        -13    1    1    2    0    0  0.17583733053E+01 -0.10644235501E+02 -0.11135776975E+02  0.15505106494E+02  0.10570000000E+00 0. -1.
         13    1    1    2    0    0 -0.17583733053E+01  0.10644235501E+02 -0.33616239888E+02  0.35305160852E+02  0.10570000000E+00 0.  1.
<mgrwt>
<rscale>  0 0.24061177E+02</rscale>
<asrwt>0</asrwt>
<pdfrwt beam="2">  1        4 0.73509444E-02 0.24061177E+02</pdfrwt>
<pdfrwt beam="1">  1       -4 0.46601930E-03 0.24061177E+02</pdfrwt>
<totfact> 0.78246061E+05</totfact>
</mgrwt>
</event>
<event>
 4    1  0.5624886E-001  0.2212241E+02  0.7818608E-02  0.1706144E+00
          4   -1    0    0  501    0  0.00000000000E+00  0.00000000000E+00  0.11503555066E+02  0.11590866195E+02  0.14200000000E+01 0.  1.
         -4   -1    0    0    0  501 -0.00000000000E+00 -0.00000000000E+00 -0.10460190907E+02  0.10556135363E+02  0.14200000000E+01 0. -1.
        -13    1    1    2    0    0 -0.30627283730E+01 -0.10207661829E+02  0.34851126278E+01  0.11213110523E+02  0.10570000000E+00 0. -1.
         13    1    1    2    0    0  0.30627283730E+01  0.10207661829E+02 -0.24417484689E+01  0.10933891035E+02  0.10570000000E+00 0.  1.
<mgrwt>
<rscale>  0 0.22122411E+02</rscale>
<asrwt>0</asrwt>
<pdfrwt beam="1">  1        4 0.17838743E-02 0.22122411E+02</pdfrwt>
<pdfrwt beam="2">  1       -4 0.16233567E-02 0.22122411E+02</pdfrwt>
<totfact> 0.10452737E+06</totfact>
</mgrwt>
</event>
<event>
 4    1  0.5624886E-001  0.2796761E+02  0.7818608E-02  0.1621705E+00
          4   -1    0    0  501    0  0.00000000000E+00  0.00000000000E+00  0.10798670165E+02  0.10891633364E+02  0.14200000000E+01 0.  1.
         -4   -1    0    0    0  501 -0.00000000000E+00 -0.00000000000E+00 -0.17909611202E+02  0.17965816803E+02  0.14200000000E+01 0. -1.
        -13    1    1    2    0    0 -0.22301736025E+01 -0.98892827146E+01 -0.13493318590E+02  0.16877571092E+02  0.10570000000E+00 0. -1.
         13    1    1    2    0    0  0.22301736025E+01  0.98892827146E+01  0.63823775543E+01  0.11979879075E+02  0.10570000000E+00 0.  1.
<mgrwt>
<rscale>  0 0.27967605E+02</rscale>
<asrwt>0</asrwt>
<pdfrwt beam="1">  1        4 0.16728084E-02 0.27967605E+02</pdfrwt>
<pdfrwt beam="2">  1       -4 0.27667993E-02 0.27967605E+02</pdfrwt>
<totfact> 0.61169210E+05</totfact>
</mgrwt>
</event>
<event>
 4    1  0.5624886E-001  0.2129495E+02  0.7818608E-02  0.1720739E+00
          4   -1    0    0  501    0  0.00000000000E+00  0.00000000000E+00  0.68737350333E+01  0.70188769264E+01  0.14200000000E+01 0.  1.
         -4   -1    0    0    0  501 -0.00000000000E+00 -0.00000000000E+00 -0.16144095338E+02  0.16206425093E+02  0.14200000000E+01 0. -1.
        -13    1    1    2    0    0  0.36083083522E+01 -0.97830828244E+01 -0.22886392961E+01  0.10676031146E+02  0.10570000000E+00 0.  1.
         13    1    1    2    0    0 -0.36083083522E+01  0.97830828244E+01 -0.69817210085E+01  0.12549270873E+02  0.10570000000E+00 0. -1.
<mgrwt>
<rscale>  0 0.21294954E+02</rscale>
<asrwt>0</asrwt>
<pdfrwt beam="1">  1        4 0.10734571E-02 0.21294954E+02</pdfrwt>
<pdfrwt beam="2">  1       -4 0.24996663E-02 0.21294954E+02</pdfrwt>
<totfact> 0.11267757E+06</totfact>
</mgrwt>
</event>
<event>
 4    1  0.5624886E-001  0.2062000E+02  0.7818608E-02  0.1733272E+00
          4   -1    0    0  501    0  0.00000000000E+00  0.00000000000E+00  0.44070884890E+02  0.44093755737E+02  0.14200000000E+01 0. -1.
         -4   -1    0    0    0  501 -0.00000000000E+00 -0.00000000000E+00 -0.21773195991E+01  0.25994462173E+01  0.14200000000E+01 0.  1.
        -13    1    1    2    0    0  0.27998954565E+01 -0.98463979817E+01  0.23714557205E+02  0.25829873474E+02  0.10570000000E+00 0. -1.
         13    1    1    2    0    0 -0.27998954565E+01  0.98463979817E+01  0.18179008086E+02  0.20863328480E+02  0.10570000000E+00 0.  1.
<mgrwt>
<rscale>  0 0.20619997E+02</rscale>
<asrwt>0</asrwt>
<pdfrwt beam="1">  1        4 0.68143665E-02 0.20619997E+02</pdfrwt>
<pdfrwt beam="2">  1       -4 0.36920283E-03 0.20619997E+02</pdfrwt>
<totfact> 0.10959432E+06</totfact>
</mgrwt>
</event>
<event>
 4    1  0.5624886E-001  0.2533209E+02  0.7818608E-02  0.1656277E+00
          4   -1    0    0  501    0  0.00000000000E+00  0.00000000000E+00  0.34129750742E+01  0.36965928714E+01  0.14200000000E+01 0.  1.
         -4   -1    0    0    0  501 -0.00000000000E+00 -0.00000000000E+00 -0.44835055110E+02  0.44857536342E+02  0.14200000000E+01 0. -1.
        -13    1    1    2    0    0 -0.11817264124E+02  0.43844074521E+01 -0.23094818458E+02  0.26310693114E+02  0.10570000000E+00 0. -1.
         13    1    1    2    0    0  0.11817264124E+02 -0.43844074521E+01 -0.18327261578E+02  0.22243436099E+02  0.10570000000E+00 0.  1.
<mgrwt>
<rscale>  0 0.25332089E+02</rscale>
<asrwt>0</asrwt>
<pdfrwt beam="1">  1        4 0.54861920E-03 0.25332089E+02</pdfrwt>
<pdfrwt beam="2">  1       -4 0.69212464E-02 0.25332089E+02</pdfrwt>
<totfact> 0.70620160E+05</totfact>
</mgrwt>
</event>
<event>
 4    1  0.5624886E-001  0.7765668E+02  0.7818608E-02  0.1335836E+00
         -4   -1    0    0    0  501 -0.00000000000E+00  0.00000000000E+00  0.45438439063E+02  0.45460621910E+02  0.14200000000E+01 0. -1.
          4   -1    0    0  501    0  0.00000000000E+00 -0.00000000000E+00 -0.33134343386E+02  0.33164757072E+02  0.14200000000E+01 0.  1.
        -13    1    1    2    0    0 -0.14131788206E+02 -0.22995336198E+02 -0.22109147085E+02  0.34890091460E+02  0.10570000000E+00 0.  1.
         13    1    1    2    0    0  0.14131788206E+02  0.22995336198E+02  0.34413242762E+02  0.43735287522E+02  0.10570000000E+00 0. -1.
<mgrwt>
<rscale>  0 0.77656677E+02</rscale>
<asrwt>0</asrwt>
<pdfrwt beam="2">  1        4 0.51016372E-02 0.77656677E+02</pdfrwt>
<pdfrwt beam="1">  1       -4 0.69945750E-02 0.77656677E+02</pdfrwt>
<totfact> 0.42873682E+04</totfact>
</mgrwt>
</event>
<event>
 4    1  0.5624886E-001  0.8157643E+02  0.7818608E-02  0.1324636E+00
          4   -1    0    0  501    0  0.00000000000E+00  0.00000000000E+00  0.97975192332E+01  0.98998880360E+01  0.14200000000E+01 0. -1.
         -4   -1    0    0    0  501 -0.00000000000E+00 -0.00000000000E+00 -0.16881823283E+03  0.16882420482E+03  0.14200000000E+01 0.  1.
        -13    1    1    2    0    0  0.10840741426E+02  0.27593304645E+02 -0.18136205015E+02  0.34754067974E+02  0.10570000000E+00 0. -1.
         13    1    1    2    0    0 -0.10840741426E+02 -0.27593304645E+02 -0.14088450858E+03  0.14397002489E+03  0.10570000000E+00 0.  1.
<mgrwt>
<rscale>  0 0.81576431E+02</rscale>
<asrwt>0</asrwt>
<pdfrwt beam="1">  1        4 0.15156447E-02 0.81576431E+02</pdfrwt>
<pdfrwt beam="2">  1       -4 0.25980368E-01 0.81576431E+02</pdfrwt>
<totfact> 0.29986585E+04</totfact>
</mgrwt>
</event>
<event>
 4    1  0.5624886E-001  0.2776943E+02  0.7818608E-02  0.1624140E+00
          4   -1    0    0  501    0  0.00000000000E+00  0.00000000000E+00  0.83513143106E+01  0.84711776463E+01  0.14200000000E+01 0. -1.
         -4   -1    0    0    0  501 -0.00000000000E+00 -0.00000000000E+00 -0.22777810296E+02  0.22822029749E+02  0.14200000000E+01 0.  1.
        -13    1    1    2    0    0 -0.35187090131E+01 -0.11585678304E+02 -0.14869898168E+02  0.19176399529E+02  0.10570000000E+00 0.  1.
         13    1    1    2    0    0  0.35187090131E+01  0.11585678304E+02  0.44340218349E+00  0.12116807866E+02  0.10570000000E+00 0. -1.
<mgrwt>
<rscale>  0 0.27769426E+02</rscale>
<asrwt>0</asrwt>
<pdfrwt beam="1">  1        4 0.12974394E-02 0.27769426E+02</pdfrwt>
<pdfrwt beam="2">  1       -4 0.35169002E-02 0.27769426E+02</pdfrwt>
<totfact> 0.61552734E+05</totfact>
</mgrwt>
</event>
<event>
 4    1  0.5624886E-001  0.5495368E+02  0.7818608E-02  0.1420318E+00
          4   -1    0    0  501    0  0.00000000000E+00  0.00000000000E+00  0.49694399597E+02  0.49714683458E+02  0.14200000000E+01 0. -1.
         -4   -1    0    0    0  501 -0.00000000000E+00 -0.00000000000E+00 -0.15135766494E+02  0.15202230999E+02  0.14200000000E+01 0.  1.
        -13    1    1    2    0    0  0.14990398526E+02 -0.95224323133E+01  0.42046604601E+02  0.45643366398E+02  0.10570000000E+00 0. -1.
         13    1    1    2    0    0 -0.14990398526E+02  0.95224323133E+01 -0.74879714982E+01  0.19273548059E+02  0.10570000000E+00 0.  1.
<mgrwt>
<rscale>  0 0.54953677E+02</rscale>
<asrwt>0</asrwt>
<pdfrwt beam="1">  1        4 0.76519654E-02 0.54953677E+02</pdfrwt>
<pdfrwt beam="2">  1       -4 0.23352524E-02 0.54953677E+02</pdfrwt>
<totfact> 0.10886747E+05</totfact>
</mgrwt>
</event>
<event>
 4    1  0.5624886E-001  0.3007142E+02  0.7818608E-02  0.1597301E+00
          4   -1    0    0  501    0  0.00000000000E+00  0.00000000000E+00  0.22645166542E+02  0.22689644504E+02  0.14200000000E+01 0.  1.
         -4   -1    0    0    0  501 -0.00000000000E+00 -0.00000000000E+00 -0.98781677127E+01  0.99797092824E+01  0.14200000000E+01 0. -1.
        -13    1    1    2    0    0 -0.10291611376E+02 -0.73399312688E+01 -0.24603975902E+01  0.12878531925E+02  0.10570000000E+00 0. -1.
         13    1    1    2    0    0  0.10291611376E+02  0.73399312688E+01  0.15227396419E+02  0.19790821861E+02  0.10570000000E+00 0.  1.
<mgrwt>
<rscale>  0 0.30071422E+02</rscale>
<asrwt>0</asrwt>
<pdfrwt beam="1">  1        4 0.34951040E-02 0.30071422E+02</pdfrwt>
<pdfrwt beam="2">  1       -4 0.15309504E-02 0.30071422E+02</pdfrwt>
<totfact> 0.51227435E+05</totfact>
</mgrwt>
</event>
<event>
 4    1  0.5624886E-001  0.3481163E+02  0.7818608E-02  0.1550280E+00
          4   -1    0    0  501    0  0.00000000000E+00  0.00000000000E+00  0.30280784777E+01  0.33444968631E+01  0.14200000000E+01 0.  1.
         -4   -1    0    0    0  501 -0.00000000000E+00 -0.00000000000E+00 -0.94761206638E+02  0.94771845416E+02  0.14200000000E+01 0. -1.
        -13    1    1    2    0    0  0.10572296004E+02  0.13244923009E+02 -0.34681068835E+02  0.38600377412E+02  0.10570000000E+00 0. -1.
         13    1    1    2    0    0 -0.10572296004E+02 -0.13244923009E+02 -0.57052059325E+02  0.59515964867E+02  0.10570000000E+00 0.  1.
<mgrwt>
<rscale>  0 0.34811633E+02</rscale>
<asrwt>0</asrwt>
<pdfrwt beam="1">  1        4 0.49101654E-03 0.34811633E+02</pdfrwt>
<pdfrwt beam="2">  1       -4 0.14603803E-01 0.34811633E+02</pdfrwt>
<totfact> 0.29830174E+05</totfact>
</mgrwt>
</event>
<event>
 4    1  0.5624886E-001  0.3012503E+02  0.7818608E-02  0.1596711E+00
          4   -1    0    0  501    0  0.00000000000E+00  0.00000000000E+00  0.85304731048E+01  0.86478535714E+01  0.14200000000E+01 0.  1.
         -4   -1    0    0    0  501 -0.00000000000E+00 -0.00000000000E+00 -0.26277918773E+02  0.26316257619E+02  0.14200000000E+01 0. -1.
        -13    1    1    2    0    0  0.12900407548E+02  0.77183091767E+01 -0.99595987406E+01  0.18033235734E+02  0.10570000000E+00 0. -1.
         13    1    1    2    0    0 -0.12900407548E+02 -0.77183091767E+01 -0.77878469280E+01  0.16930875457E+02  0.10570000000E+00 0.  1.
<mgrwt>
<rscale>  0 0.30125027E+02</rscale>
<asrwt>0</asrwt>
<pdfrwt beam="1">  1        4 0.13243589E-02 0.30125027E+02</pdfrwt>
<pdfrwt beam="2">  1       -4 0.40547351E-02 0.30125027E+02</pdfrwt>
<totfact> 0.50583811E+05</totfact>
</mgrwt>
</event>
<event>
 4    1  0.5624886E-001  0.6489202E+02  0.7818608E-02  0.1378378E+00
         -4   -1    0    0    0  501 -0.00000000000E+00  0.00000000000E+00  0.23417574107E+02  0.23460587739E+02  0.14200000000E+01 0. -1.
          4   -1    0    0  501    0  0.00000000000E+00 -0.00000000000E+00 -0.44859766464E+02  0.44882235319E+02  0.14200000000E+01 0.  1.
        -13    1    1    2    0    0 -0.23057206751E+02  0.10063664656E+02 -0.32300194179E+02  0.40941737212E+02  0.10570000000E+00 0.  1.
         13    1    1    2    0    0  0.23057206751E+02 -0.10063664656E+02  0.10858001822E+02  0.27401085845E+02  0.10570000000E+00 0. -1.
<mgrwt>
<rscale>  0 0.64892017E+02</rscale>
<asrwt>0</asrwt>
<pdfrwt beam="2">  1        4 0.69065396E-02 0.64892017E+02</pdfrwt>
<pdfrwt beam="1">  1       -4 0.36077408E-02 0.64892017E+02</pdfrwt>
<totfact> 0.70538901E+04</totfact>
</mgrwt>
</event>
<event>
 4    1  0.5624886E-001  0.5546801E+02  0.7818608E-02  0.1417898E+00
         -4   -1    0    0    0  501 -0.00000000000E+00  0.00000000000E+00  0.57420375964E+01  0.59150144344E+01  0.14200000000E+01 0.  1.
          4   -1    0    0  501    0  0.00000000000E+00 -0.00000000000E+00 -0.13179049705E+03  0.13179814685E+03  0.14200000000E+01 0. -1.
        -13    1    1    2    0    0 -0.60971802086E+00  0.21778487972E+02 -0.10562994679E+03  0.10785347062E+03  0.10570000000E+00 0. -1.
         13    1    1    2    0    0  0.60971802086E+00 -0.21778487972E+02 -0.20418512668E+02  0.29859690663E+02  0.10570000000E+00 0.  1.
<mgrwt>
<rscale>  0 0.55468015E+02</rscale>
<asrwt>0</asrwt>
<pdfrwt beam="2">  1        4 0.20289353E-01 0.55468015E+02</pdfrwt>
<pdfrwt beam="1">  1       -4 0.89728485E-03 0.55468015E+02</pdfrwt>
<totfact> 0.88277728E+04</totfact>
</mgrwt>
</event>
<event>
 4    1  0.5624886E-001  0.2085030E+02  0.7818608E-02  0.1728929E+00
         -4   -1    0    0    0  501 -0.00000000000E+00  0.00000000000E+00  0.39674279182E+02  0.39699682979E+02  0.14200000000E+01 0.  1.
          4   -1    0    0  501    0  0.00000000000E+00 -0.00000000000E+00 -0.25272548402E+01  0.28988647825E+01  0.14200000000E+01 0. -1.
        -13    1    1    2    0    0 -0.83422381478E+01  0.59114174661E+01  0.22727900079E+02  0.24922006505E+02  0.10570000000E+00 0.  1.
         13    1    1    2    0    0  0.83422381478E+01 -0.59114174661E+01  0.14419124263E+02  0.17676541256E+02  0.10570000000E+00 0. -1.
<mgrwt>
<rscale>  0 0.20850296E+02</rscale>
<asrwt>0</asrwt>
<pdfrwt beam="2">  1        4 0.41934792E-03 0.20850296E+02</pdfrwt>
<pdfrwt beam="1">  1       -4 0.61342754E-02 0.20850296E+02</pdfrwt>
<totfact> 0.10878459E+06</totfact>
</mgrwt>
</event>
<event>
 4    1  0.5624886E-001  0.4377071E+02  0.7818608E-02  0.1482165E+00
         -4   -1    0    0    0  501 -0.00000000000E+00  0.00000000000E+00  0.61439659678E+02  0.61456067083E+02  0.14200000000E+01 0.  1.
          4   -1    0    0  501    0  0.00000000000E+00 -0.00000000000E+00 -0.77134948720E+01  0.78431118277E+01  0.14200000000E+01 0. -1.
        -13    1    1    2    0    0 -0.20341563812E+02 -0.77691210487E+01  0.23387457830E+02  0.31955012384E+02  0.10570000000E+00 0. -1.
         13    1    1    2    0    0  0.20341563812E+02  0.77691210487E+01  0.30338706975E+02  0.37344166527E+02  0.10570000000E+00 0.  1.
<mgrwt>
<rscale>  0 0.43770714E+02</rscale>
<asrwt>0</asrwt>
<pdfrwt beam="2">  1        4 0.11979242E-02 0.43770714E+02</pdfrwt>
<pdfrwt beam="1">  1       -4 0.94634877E-02 0.43770714E+02</pdfrwt>
<totfact> 0.18853587E+05</totfact>
</mgrwt>
</event>
<event>
 4    1  0.5624886E-001  0.4412256E+02  0.7818608E-02  0.1479895E+00
          4   -1    0    0  501    0  0.00000000000E+00  0.00000000000E+00  0.18706926522E+02  0.18760743586E+02  0.14200000000E+01 0.  1.
         -4   -1    0    0    0  501 -0.00000000000E+00 -0.00000000000E+00 -0.25906450646E+02  0.25945338407E+02  0.14200000000E+01 0. -1.
        -13    1    1    2    0    0  0.51514666594E+01 -0.20389286854E+02  0.31538481314E+01  0.21265431048E+02  0.10570000000E+00 0.  1.
         13    1    1    2    0    0 -0.51514666594E+01  0.20389286854E+02 -0.10353372255E+02  0.23440650944E+02  0.10570000000E+00 0. -1.
<mgrwt>
<rscale>  0 0.44122564E+02</rscale>
<asrwt>0</asrwt>
<pdfrwt beam="1">  1        4 0.28851198E-02 0.44122564E+02</pdfrwt>
<pdfrwt beam="2">  1       -4 0.39927389E-02 0.44122564E+02</pdfrwt>
<totfact> 0.19947433E+05</totfact>
</mgrwt>
</event>
<event>
 4    1  0.5624886E-001  0.4801646E+02  0.7818608E-02  0.1456344E+00
          4   -1    0    0  501    0  0.00000000000E+00  0.00000000000E+00  0.11391929118E+03  0.11392814096E+03  0.14200000000E+01 0. -1.
         -4   -1    0    0    0  501 -0.00000000000E+00 -0.00000000000E+00 -0.49508200303E+01  0.51504387165E+01  0.14200000000E+01 0.  1.
        -13    1    1    2    0    0 -0.14954612217E+02 -0.17866884094E+02  0.68841850777E+02  0.72677902864E+02  0.10570000000E+00 0.  1.
         13    1    1    2    0    0  0.14954612217E+02  0.17866884094E+02  0.40126620372E+02  0.46400676813E+02  0.10570000000E+00 0. -1.
<mgrwt>
<rscale>  0 0.48016460E+02</rscale>
<asrwt>0</asrwt>
<pdfrwt beam="1">  1        4 0.17542079E-01 0.48016460E+02</pdfrwt>
<pdfrwt beam="2">  1       -4 0.77770074E-03 0.48016460E+02</pdfrwt>
<totfact> 0.13176630E+05</totfact>
</mgrwt>
</event>
<event>
 4    1  0.5624886E-001  0.4136147E+02  0.7818608E-02  0.1498425E+00
          4   -1    0    0  501    0  0.00000000000E+00  0.00000000000E+00  0.94888298067E+02  0.94898922597E+02  0.14200000000E+01 0.  1.
         -4   -1    0    0    0  501 -0.00000000000E+00 -0.00000000000E+00 -0.43843349400E+01  0.46085564840E+01  0.14200000000E+01 0. -1.
        -13    1    1    2    0    0  0.14148517146E+02  0.51477834533E+01  0.11143742720E+02  0.18731641311E+02  0.10570000000E+00 0. -1.
         13    1    1    2    0    0 -0.14148517146E+02 -0.51477834533E+01  0.79360220408E+02  0.80775837771E+02  0.10570000000E+00 0.  1.
<mgrwt>
<rscale>  0 0.41361468E+02</rscale>
<asrwt>0</asrwt>
<pdfrwt beam="1">  1        4 0.14616266E-01 0.41361468E+02</pdfrwt>
<pdfrwt beam="2">  1       -4 0.69257808E-03 0.41361468E+02</pdfrwt>
<totfact> 0.19850202E+05</totfact>
</mgrwt>
</event>
<event>
 4    1  0.5624886E-001  0.2436239E+02  0.7818608E-02  0.1670333E+00
          4   -1    0    0  501    0  0.00000000000E+00  0.00000000000E+00  0.15781201130E+02  0.15844958476E+02  0.14200000000E+01 0. -1.
         -4   -1    0    0    0  501 -0.00000000000E+00 -0.00000000000E+00 -0.92655080298E+01  0.93736886576E+01  0.14200000000E+01 0.  1.
        -13    1    1    2    0    0 -0.11892174702E+02 -0.74163983301E+00  0.58758585504E+01  0.13285734265E+02  0.10570000000E+00 0. -1.
         13    1    1    2    0    0  0.11892174702E+02  0.74163983301E+00  0.63983454957E+00  0.11932912868E+02  0.10570000000E+00 0.  1.
<mgrwt>
<rscale>  0 0.24362387E+02</rscale>
<asrwt>0</asrwt>
<pdfrwt beam="1">  1        4 0.24411031E-02 0.24362387E+02</pdfrwt>
<pdfrwt beam="2">  1       -4 0.14386888E-02 0.24362387E+02</pdfrwt>
<totfact> 0.84024468E+05</totfact>
</mgrwt>
</event>
<event>
 4    1  0.5624886E-001  0.7380048E+02  0.7818608E-02  0.1347626E+00
          4   -1    0    0  501    0  0.00000000000E+00  0.00000000000E+00  0.89867959832E+01  0.90982911606E+01  0.14200000000E+01 0. -1.
         -4   -1    0    0    0  501 -0.00000000000E+00 -0.00000000000E+00 -0.15046530287E+03  0.15047200327E+03  0.14200000000E+01 0.  1.
        -13    1    1    2    0    0  0.23900338441E+02 -0.27979809559E+02 -0.64809721533E+02  0.74527894765E+02  0.10570000000E+00 0. -1.
         13    1    1    2    0    0 -0.23900338441E+02  0.27979809559E+02 -0.76668785359E+02  0.85042399669E+02  0.10570000000E+00 0.  1.
<mgrwt>
<rscale>  0 0.73800481E+02</rscale>
<asrwt>0</asrwt>
<pdfrwt beam="1">  1        4 0.13916761E-02 0.73800481E+02</pdfrwt>
<pdfrwt beam="2">  1       -4 0.23157598E-01 0.73800481E+02</pdfrwt>
<totfact> 0.40594709E+04</totfact>
</mgrwt>
</event>
<event>
 4    1  0.5624886E-001  0.3850549E+02  0.7818608E-02  0.1519507E+00
          4   -1    0    0  501    0  0.00000000000E+00  0.00000000000E+00  0.40816628269E+01  0.43216167615E+01  0.14200000000E+01 0. -1.
         -4   -1    0    0    0  501 -0.00000000000E+00 -0.00000000000E+00 -0.87974048866E+02  0.87985508318E+02  0.14200000000E+01 0.  1.
        -13    1    1    2    0    0  0.13684372495E+02  0.13533807305E+02 -0.40793860639E+02  0.45106277047E+02  0.10570000000E+00 0. -1.
         13    1    1    2    0    0 -0.13684372495E+02 -0.13533807305E+02 -0.43098525401E+02  0.47200848032E+02  0.10570000000E+00 0.  1.
<mgrwt>
<rscale>  0 0.38505492E+02</rscale>
<asrwt>0</asrwt>
<pdfrwt beam="1">  1        4 0.64728768E-03 0.38505492E+02</pdfrwt>
<pdfrwt beam="2">  1       -4 0.13553807E-01 0.38505492E+02</pdfrwt>
<totfact> 0.23969985E+05</totfact>
</mgrwt>
</event>
<event>
 4    1  0.5624886E-001  0.5414724E+02  0.7818608E-02  0.1424175E+00
         -4   -1    0    0    0  501 -0.00000000000E+00  0.00000000000E+00  0.61875371874E+01  0.63483869168E+01  0.14200000000E+01 0. -1.
          4   -1    0    0  501    0  0.00000000000E+00 -0.00000000000E+00 -0.11677564074E+03  0.11678427407E+03  0.14200000000E+01 0.  1.
        -13    1    1    2    0    0 -0.61561691506E+01  0.23264159468E+02 -0.83500340732E+02  0.86899008102E+02  0.10570000000E+00 0.  1.
         13    1    1    2    0    0  0.61561691506E+01 -0.23264159468E+02 -0.27087762825E+02  0.36233652889E+02  0.10570000000E+00 0. -1.
<mgrwt>
<rscale>  0 0.54147240E+02</rscale>
<asrwt>0</asrwt>
<pdfrwt beam="2">  1        4 0.17978519E-01 0.54147240E+02</pdfrwt>
<pdfrwt beam="1">  1       -4 0.96496604E-03 0.54147240E+02</pdfrwt>
<totfact> 0.97036958E+04</totfact>
</mgrwt>
</event>
<event>
 4    1  0.5624886E-001  0.2665553E+02  0.7818608E-02  0.1638302E+00
          4   -1    0    0  501    0  0.00000000000E+00  0.00000000000E+00  0.10493816850E+02  0.10589456647E+02  0.14200000000E+01 0. -1.
         -4   -1    0    0    0  501 -0.00000000000E+00 -0.00000000000E+00 -0.16724392058E+02  0.16784567010E+02  0.14200000000E+01 0.  1.
        -13    1    1    2    0    0 -0.10499277489E+02 -0.37053635929E+01  0.44070119954E+01  0.11974868449E+02  0.10570000000E+00 0. -1.
         13    1    1    2    0    0  0.10499277489E+02  0.37053635929E+01 -0.10637587203E+02  0.15399155209E+02  0.10570000000E+00 0.  1.
<mgrwt>
<rscale>  0 0.26655527E+02</rscale>
<asrwt>0</asrwt>
<pdfrwt beam="1">  1        4 0.16264191E-02 0.26655527E+02</pdfrwt>
<pdfrwt beam="2">  1       -4 0.25849692E-02 0.26655527E+02</pdfrwt>
<totfact> 0.68437755E+05</totfact>
</mgrwt>
</event>
<event>
 4    1  0.5624886E-001  0.3767330E+02  0.7818608E-02  0.1526067E+00
          4   -1    0    0  501    0  0.00000000000E+00  0.00000000000E+00  0.71812478264E+02  0.71826516235E+02  0.14200000000E+01 0.  1.
         -4   -1    0    0    0  501 -0.00000000000E+00 -0.00000000000E+00 -0.48240569298E+01  0.50287100992E+01  0.14200000000E+01 0. -1.
        -13    1    1    2    0    0  0.35976380909E+01  0.17200612852E+02  0.19657341766E+02  0.26367145088E+02  0.10570000000E+00 0. -1.
         13    1    1    2    0    0 -0.35976380909E+01 -0.17200612852E+02  0.47331079568E+02  0.50488081246E+02  0.10570000000E+00 0.  1.
<mgrwt>
<rscale>  0 0.37673296E+02</rscale>
<asrwt>0</asrwt>
<pdfrwt beam="1">  1        4 0.11064895E-01 0.37673296E+02</pdfrwt>
<pdfrwt beam="2">  1       -4 0.75898504E-03 0.37673296E+02</pdfrwt>
<totfact> 0.26358832E+05</totfact>
</mgrwt>
</event>
<event>
 4    1  0.5624886E-001  0.3852873E+02  0.7818608E-02  0.1519326E+00
          4   -1    0    0  501    0  0.00000000000E+00  0.00000000000E+00  0.47452620580E+01  0.49531719130E+01  0.14200000000E+01 0.  1.
         -4   -1    0    0    0  501 -0.00000000000E+00 -0.00000000000E+00 -0.76316399173E+02  0.76329608821E+02  0.14200000000E+01 0. -1.
        -13    1    1    2    0    0 -0.17229055927E+01  0.15954501031E+02 -0.13301030235E+02  0.20843298314E+02  0.10570000000E+00 0.  1.
         13    1    1    2    0    0  0.17229055927E+01 -0.15954501031E+02 -0.58270106880E+02  0.60439482420E+02  0.10570000000E+00 0. -1.
<mgrwt>
<rscale>  0 0.38528727E+02</rscale>
<asrwt>0</asrwt>
<pdfrwt beam="1">  1        4 0.74704956E-03 0.38528727E+02</pdfrwt>
<pdfrwt beam="2">  1       -4 0.11757993E-01 0.38528727E+02</pdfrwt>
<totfact> 0.24686183E+05</totfact>
</mgrwt>
</event>
<event>
 4    1  0.5624886E-001  0.2583543E+02  0.7818608E-02  0.1649284E+00
          4   -1    0    0  501    0  0.00000000000E+00  0.00000000000E+00  0.35489248695E+02  0.35517645938E+02  0.14200000000E+01 0. -1.
         -4   -1    0    0    0  501 -0.00000000000E+00 -0.00000000000E+00 -0.45636857656E+01  0.47795007864E+01  0.14200000000E+01 0.  1.
        -13    1    1    2    0    0  0.52040926107E+01 -0.10449941006E+02  0.24087067814E+02  0.26767178695E+02  0.10570000000E+00 0. -1.
         13    1    1    2    0    0 -0.52040926107E+01  0.10449941006E+02  0.68384951159E+01  0.13529968029E+02  0.10570000000E+00 0.  1.
<mgrwt>
<rscale>  0 0.25835433E+02</rscale>
<asrwt>0</asrwt>
<pdfrwt beam="1">  1        4 0.54786698E-02 0.25835433E+02</pdfrwt>
<pdfrwt beam="2">  1       -4 0.72089108E-03 0.25835433E+02</pdfrwt>
<totfact> 0.69718801E+05</totfact>
</mgrwt>
</event>
<event>
 4    1  0.5624886E-001  0.6379936E+02  0.7818608E-02  0.1382546E+00
          4   -1    0    0  501    0  0.00000000000E+00  0.00000000000E+00  0.12126194424E+02  0.12209053657E+02  0.14200000000E+01 0. -1.
         -4   -1    0    0    0  501 -0.00000000000E+00 -0.00000000000E+00 -0.83542017425E+02  0.83554084732E+02  0.14200000000E+01 0.  1.
        -13    1    1    2    0    0 -0.27196802421E+02 -0.92595867679E+01 -0.14900038560E+02  0.32363997445E+02  0.10570000000E+00 0. -1.
         13    1    1    2    0    0  0.27196802421E+02  0.92595867679E+01 -0.56515784441E+02  0.63399140944E+02  0.10570000000E+00 0.  1.
<mgrwt>
<rscale>  0 0.63799364E+02</rscale>
<asrwt>0</asrwt>
<pdfrwt beam="1">  1        4 0.18728705E-02 0.63799364E+02</pdfrwt>
<pdfrwt beam="2">  1       -4 0.12859920E-01 0.63799364E+02</pdfrwt>
<totfact> 0.68582362E+04</totfact>
</mgrwt>
</event>
<event>
 4    1  0.5624886E-001  0.3607511E+02  0.7818608E-02  0.1539255E+00
         -4   -1    0    0    0  501 -0.00000000000E+00  0.00000000000E+00  0.81790420005E+01  0.83013931389E+01  0.14200000000E+01 0. -1.
          4   -1    0    0  501    0  0.00000000000E+00 -0.00000000000E+00 -0.39348328949E+02  0.39373943047E+02  0.14200000000E+01 0.  1.
        -13    1    1    2    0    0  0.99802971537E+01  0.26136981071E+01 -0.35137642884E+02  0.36621071380E+02  0.10570000000E+00 0.  1.
         13    1    1    2    0    0 -0.99802971537E+01 -0.26136981071E+01  0.39683559360E+01  0.11054264806E+02  0.10570000000E+00 0. -1.
<mgrwt>
<rscale>  0 0.36075105E+02</rscale>
<asrwt>0</asrwt>
<pdfrwt beam="2">  1        4 0.60649709E-02 0.36075105E+02</pdfrwt>
<pdfrwt beam="1">  1       -4 0.12696961E-02 0.36075105E+02</pdfrwt>
<totfact> 0.31951991E+05</totfact>
</mgrwt>
</event>
<event>
 4    1  0.5624886E-001  0.2508791E+02  0.7818608E-02  0.1659742E+00
          4   -1    0    0  501    0  0.00000000000E+00  0.00000000000E+00  0.30620185266E+01  0.33752566506E+01  0.14200000000E+01 0. -1.
         -4   -1    0    0    0  501 -0.00000000000E+00 -0.00000000000E+00 -0.48563275398E+02  0.48584031506E+02  0.14200000000E+01 0.  1.
        -13    1    1    2    0    0  0.82942321937E+00 -0.11416001079E+02 -0.12123982184E+02  0.16673786013E+02  0.10570000000E+00 0. -1.
         13    1    1    2    0    0 -0.82942321937E+00  0.11416001079E+02 -0.33377274687E+02  0.35285502144E+02  0.10570000000E+00 0.  1.
<mgrwt>
<rscale>  0 0.25087910E+02</rscale>
<asrwt>0</asrwt>
<pdfrwt beam="1">  1        4 0.49677167E-03 0.25087910E+02</pdfrwt>
<pdfrwt beam="2">  1       -4 0.74969645E-02 0.25087910E+02</pdfrwt>
<totfact> 0.71257864E+05</totfact>
</mgrwt>
</event>
<event>
 4    1  0.5624886E-001  0.2124879E+02  0.7818608E-02  0.1721577E+00
         -4   -1    0    0    0  501 -0.00000000000E+00  0.00000000000E+00  0.96210468221E+00  0.17152391727E+01  0.14200000000E+01 0. -1.
          4   -1    0    0  501    0  0.00000000000E+00 -0.00000000000E+00 -0.83559827563E+02  0.83571892298E+02  0.14200000000E+01 0.  1.
        -13    1    1    2    0    0  0.26468360235E+01 -0.10288077891E+02 -0.41811022617E+02  0.43139576637E+02  0.10570000000E+00 0.  1.
         13    1    1    2    0    0 -0.26468360235E+01  0.10288077891E+02 -0.40786700263E+02  0.42147554834E+02  0.10570000000E+00 0. -1.
<mgrwt>
<rscale>  0 0.21248787E+02</rscale>
<asrwt>0</asrwt>
<pdfrwt beam="2">  1        4 0.12914215E-01 0.21248787E+02</pdfrwt>
<pdfrwt beam="1">  1       -4 0.20687765E-03 0.21248787E+02</pdfrwt>
<totfact> 0.90599808E+05</totfact>
</mgrwt>
</event>
<event>
 4    1  0.5624886E-001  0.2881568E+02  0.7818608E-02  0.1611561E+00
          4   -1    0    0  501    0  0.00000000000E+00  0.00000000000E+00  0.34412222763E+01  0.37226886459E+01  0.14200000000E+01 0. -1.
         -4   -1    0    0    0  501 -0.00000000000E+00 -0.00000000000E+00 -0.57662674597E+02  0.57680156394E+02  0.14200000000E+01 0.  1.
        -13    1    1    2    0    0  0.11208540531E+02  0.89538418279E+01 -0.29947310837E+02  0.33206253374E+02  0.10570000000E+00 0.  1.
         13    1    1    2    0    0 -0.11208540531E+02 -0.89538418279E+01 -0.24274141484E+02  0.28196591666E+02  0.10570000000E+00 0. -1.
<mgrwt>
<rscale>  0 0.28815681E+02</rscale>
<asrwt>0</asrwt>
<pdfrwt beam="1">  1        4 0.55241487E-03 0.28815681E+02</pdfrwt>
<pdfrwt beam="2">  1       -4 0.88941760E-02 0.28815681E+02</pdfrwt>
<totfact> 0.50992243E+05</totfact>
</mgrwt>
</event>
<event>
 4    1  0.5624886E-001  0.3234059E+02  0.7818608E-02  0.1573570E+00
          4   -1    0    0  501    0  0.00000000000E+00  0.00000000000E+00  0.30323825488E+01  0.33483942304E+01  0.14200000000E+01 0. -1.
         -4   -1    0    0    0  501 -0.00000000000E+00 -0.00000000000E+00 -0.81635670678E+02  0.81648019738E+02  0.14200000000E+01 0.  1.
        -13    1    1    2    0    0  0.11599607783E+02  0.43851110477E+01 -0.66574747539E+02  0.67719925296E+02  0.10570000000E+00 0.  1.
         13    1    1    2    0    0 -0.11599607783E+02 -0.43851110477E+01 -0.12028540590E+02  0.17276488672E+02  0.10570000000E+00 0. -1.
<mgrwt>
<rscale>  0 0.32340586E+02</rscale>
<asrwt>0</asrwt>
<pdfrwt beam="1">  1        4 0.49177897E-03 0.32340586E+02</pdfrwt>
<pdfrwt beam="2">  1       -4 0.12584591E-01 0.32340586E+02</pdfrwt>
<totfact> 0.36613653E+05</totfact>
</mgrwt>
</event>
<event>
 4    1  0.5624886E-001  0.2505153E+02  0.7818608E-02  0.1660263E+00
         -4   -1    0    0    0  501 -0.00000000000E+00  0.00000000000E+00  0.40845893243E+02  0.40870568810E+02  0.14200000000E+01 0. -1.
          4   -1    0    0  501    0  0.00000000000E+00 -0.00000000000E+00 -0.36831365395E+01  0.39473908812E+01  0.14200000000E+01 0.  1.
        -13    1    1    2    0    0 -0.12110486444E+02  0.30936063551E+01  0.20022966171E+02  0.23604334961E+02  0.10570000000E+00 0. -1.
         13    1    1    2    0    0  0.12110486444E+02 -0.30936063551E+01  0.17139790533E+02  0.21213624730E+02  0.10570000000E+00 0.  1.
<mgrwt>
<rscale>  0 0.25051527E+02</rscale>
<asrwt>0</asrwt>
<pdfrwt beam="2">  1        4 0.58886176E-03 0.25051527E+02</pdfrwt>
<pdfrwt beam="1">  1       -4 0.63062090E-02 0.25051527E+02</pdfrwt>
<totfact> 0.73315236E+05</totfact>
</mgrwt>
</event>
<event>
 4    1  0.5624886E-001  0.2897663E+02  0.7818608E-02  0.1609684E+00
         -4   -1    0    0    0  501 -0.00000000000E+00  0.00000000000E+00  0.26370280550E+01  0.29950487413E+01  0.14200000000E+01 0.  1.
          4   -1    0    0  501    0  0.00000000000E+00 -0.00000000000E+00 -0.74176070048E+02  0.74189660788E+02  0.14200000000E+01 0. -1.
        -13    1    1    2    0    0  0.58104658932E+01 -0.10139623559E+02 -0.12960107475E+02  0.17451333418E+02  0.10570000000E+00 0.  1.
         13    1    1    2    0    0 -0.58104658932E+01  0.10139623559E+02 -0.58578934519E+02  0.59733376111E+02  0.10570000000E+00 0. -1.
<mgrwt>
<rscale>  0 0.28976626E+02</rscale>
<asrwt>0</asrwt>
<pdfrwt beam="2">  1        4 0.11440287E-01 0.28976626E+02</pdfrwt>
<pdfrwt beam="1">  1       -4 0.43428217E-03 0.28976626E+02</pdfrwt>
<totfact> 0.47944154E+05</totfact>
</mgrwt>
</event>
<event>
 4    1  0.5624886E-001  0.2057909E+02  0.7818608E-02  0.1734051E+00
          4   -1    0    0  501    0  0.00000000000E+00  0.00000000000E+00  0.27600165747E+01  0.31038832924E+01  0.14200000000E+01 0.  1.
         -4   -1    0    0    0  501 -0.00000000000E+00 -0.00000000000E+00 -0.35751912260E+02  0.35780101037E+02  0.14200000000E+01 0. -1.
        -13    1    1    2    0    0  0.95033711611E+01  0.39280616504E+01 -0.15841791693E+02  0.18886960271E+02  0.10570000000E+00 0.  1.
         13    1    1    2    0    0 -0.95033711611E+01 -0.39280616504E+01 -0.17150103992E+02  0.19997024058E+02  0.10570000000E+00 0. -1.
<mgrwt>
<rscale>  0 0.20579093E+02</rscale>
<asrwt>0</asrwt>
<pdfrwt beam="1">  1        4 0.45323761E-03 0.20579093E+02</pdfrwt>
<pdfrwt beam="2">  1       -4 0.55289135E-02 0.20579093E+02</pdfrwt>
<totfact> 0.11335630E+06</totfact>
</mgrwt>
</event>
<event>
 4    1  0.5624886E-001  0.4775657E+02  0.7818608E-02  0.1457832E+00
          4   -1    0    0  501    0  0.00000000000E+00  0.00000000000E+00  0.52419654549E+02  0.52438884266E+02  0.14200000000E+01 0. -1.
         -4   -1    0    0    0  501 -0.00000000000E+00 -0.00000000000E+00 -0.10809406547E+02  0.10902278197E+02  0.14200000000E+01 0.  1.
        -13    1    1    2    0    0 -0.14000916471E+02  0.18197485277E+01 -0.47358191000E+01  0.14892155713E+02  0.10570000000E+00 0. -1.
         13    1    1    2    0    0  0.14000916471E+02 -0.18197485277E+01  0.46346067103E+02  0.48449006751E+02  0.10570000000E+00 0.  1.
<mgrwt>
<rscale>  0 0.47756572E+02</rscale>
<asrwt>0</asrwt>
<pdfrwt beam="1">  1        4 0.80731854E-02 0.47756572E+02</pdfrwt>
<pdfrwt beam="2">  1       -4 0.16716088E-02 0.47756572E+02</pdfrwt>
<totfact> 0.15510586E+05</totfact>
</mgrwt>
</event>
<event>
 4    1  0.5624886E-001  0.2828200E+02  0.7818608E-02  0.1617894E+00
         -4   -1    0    0    0  501 -0.00000000000E+00  0.00000000000E+00  0.29755231567E+01  0.32969892411E+01  0.14200000000E+01 0.  1.
          4   -1    0    0  501    0  0.00000000000E+00 -0.00000000000E+00 -0.63430256026E+02  0.63446148658E+02  0.14200000000E+01 0. -1.
        -13    1    1    2    0    0  0.10093471812E+02 -0.69602367120E+01 -0.46853250077E+02  0.48430995071E+02  0.10570000000E+00 0. -1.
         13    1    1    2    0    0 -0.10093471812E+02  0.69602367120E+01 -0.13601482792E+02  0.18312142828E+02  0.10570000000E+00 0.  1.
<mgrwt>
<rscale>  0 0.28282004E+02</rscale>
<asrwt>0</asrwt>
<pdfrwt beam="2">  1        4 0.97844507E-02 0.28282004E+02</pdfrwt>
<pdfrwt beam="1">  1       -4 0.48372351E-03 0.28282004E+02</pdfrwt>
<totfact> 0.52243129E+05</totfact>
</mgrwt>
</event>
<event>
 4    1  0.5624886E-001  0.2332294E+02  0.7818608E-02  0.1686328E+00
         -4   -1    0    0    0  501 -0.00000000000E+00  0.00000000000E+00  0.15119131763E+02  0.15185669076E+02  0.14200000000E+01 0. -1.
          4   -1    0    0  501    0  0.00000000000E+00 -0.00000000000E+00 -0.88515541758E+01  0.89647315256E+01  0.14200000000E+01 0.  1.
        -13    1    1    2    0    0 -0.10933139211E+01  0.99936976502E+01 -0.29842451463E+01  0.10487431508E+02  0.10570000000E+00 0.  1.
         13    1    1    2    0    0  0.10933139211E+01 -0.99936976502E+01  0.92518227339E+01  0.13662969093E+02  0.10570000000E+00 0. -1.
<mgrwt>
<rscale>  0 0.23322936E+02</rscale>
<asrwt>0</asrwt>
<pdfrwt beam="2">  1        4 0.13756018E-02 0.23322936E+02</pdfrwt>
<pdfrwt beam="1">  1       -4 0.23398445E-02 0.23322936E+02</pdfrwt>
<totfact> 0.92657879E+05</totfact>
</mgrwt>
</event>
<event>
 4    1  0.5624886E-001  0.2738364E+02  0.7818608E-02  0.1628951E+00
          4   -1    0    0  501    0  0.00000000000E+00  0.00000000000E+00  0.13911062722E+03  0.13911787450E+03  0.14200000000E+01 0.  1.
         -4   -1    0    0    0  501 -0.00000000000E+00 -0.00000000000E+00 -0.96420436872E+00  0.17164178001E+01  0.14200000000E+01 0. -1.
        -13    1    1    2    0    0  0.11389432079E+02 -0.75467989638E+01  0.73619541115E+02  0.74876707621E+02  0.10570000000E+00 0.  1.
         13    1    1    2    0    0 -0.11389432079E+02  0.75467989638E+01  0.64526881738E+02  0.65957584682E+02  0.10570000000E+00 0. -1.
<mgrwt>
<rscale>  0 0.27383640E+02</rscale>
<asrwt>0</asrwt>
<pdfrwt beam="1">  1        4 0.21460057E-01 0.27383640E+02</pdfrwt>
<pdfrwt beam="2">  1       -4 0.20675917E-03 0.27383640E+02</pdfrwt>
<totfact> 0.45627420E+05</totfact>
</mgrwt>
</event>
<event>
 4    1  0.5624886E-001  0.3989095E+02  0.7818608E-02  0.1509015E+00
          4   -1    0    0  501    0  0.00000000000E+00  0.00000000000E+00  0.30545241072E+01  0.33684592207E+01  0.14200000000E+01 0. -1.
         -4   -1    0    0    0  501 -0.00000000000E+00 -0.00000000000E+00 -0.12355632839E+03  0.12356448796E+03  0.14200000000E+01 0.  1.
        -13    1    1    2    0    0 -0.19323960154E+02 -0.32140392231E+01 -0.72184627849E+02  0.74795569083E+02  0.10570000000E+00 0.  1.
         13    1    1    2    0    0  0.19323960154E+02  0.32140392231E+01 -0.48317176436E+02  0.52137378103E+02  0.10570000000E+00 0. -1.
<mgrwt>
<rscale>  0 0.39890954E+02</rscale>
<asrwt>0</asrwt>
<pdfrwt beam="1">  1        4 0.49470340E-03 0.39890954E+02</pdfrwt>
<pdfrwt beam="2">  1       -4 0.19033439E-01 0.39890954E+02</pdfrwt>
<totfact> 0.20156251E+05</totfact>
</mgrwt>
</event>
<event>
 4    1  0.5624886E-001  0.5927671E+02  0.7818608E-02  0.1400892E+00
          4   -1    0    0  501    0  0.00000000000E+00  0.00000000000E+00  0.19051690432E+02  0.19104536328E+02  0.14200000000E+01 0.  1.
         -4   -1    0    0    0  501 -0.00000000000E+00 -0.00000000000E+00 -0.45980154490E+02  0.46002076115E+02  0.14200000000E+01 0. -1.
        -13    1    1    2    0    0 -0.17961913993E+02 -0.75676447779E+01  0.11059292913E+02  0.22410237259E+02  0.10570000000E+00 0.  1.
         13    1    1    2    0    0  0.17961913993E+02  0.75676447779E+01 -0.37987756971E+02  0.42696375185E+02  0.10570000000E+00 0. -1.
<mgrwt>
<rscale>  0 0.59276714E+02</rscale>
<asrwt>0</asrwt>
<pdfrwt beam="1">  1        4 0.29367807E-02 0.59276714E+02</pdfrwt>
<pdfrwt beam="2">  1       -4 0.70796212E-02 0.59276714E+02</pdfrwt>
<totfact> 0.89805212E+04</totfact>
</mgrwt>
</event>
<event>
 4    1  0.5624886E-001  0.5824204E+02  0.7818608E-02  0.1405361E+00
          4   -1    0    0  501    0  0.00000000000E+00  0.00000000000E+00  0.32540328426E+01  0.35503703667E+01  0.14200000000E+01 0.  1.
         -4   -1    0    0    0  501 -0.00000000000E+00 -0.00000000000E+00 -0.24896182582E+03  0.24896587540E+03  0.14200000000E+01 0. -1.
        -13    1    1    2    0    0  0.16151962004E+02  0.23925186413E+02 -0.13948947538E+03  0.14244516607E+03  0.10570000000E+00 0.  1.
         13    1    1    2    0    0 -0.16151962004E+02 -0.23925186413E+02 -0.10621831760E+03  0.11007107970E+03  0.10570000000E+00 0. -1.
<mgrwt>
<rscale>  0 0.58242037E+02</rscale>
<asrwt>0</asrwt>
<pdfrwt beam="1">  1        4 0.52372733E-03 0.58242037E+02</pdfrwt>
<pdfrwt beam="2">  1       -4 0.38324912E-01 0.58242037E+02</pdfrwt>
<totfact> 0.61553903E+04</totfact>
</mgrwt>
</event>
<event>
 4    1  0.5624886E-001  0.4613820E+02  0.7818608E-02  0.1467359E+00
          4   -1    0    0  501    0  0.00000000000E+00  0.00000000000E+00  0.76194704792E+01  0.77506599966E+01  0.14200000000E+01 0. -1.
         -4   -1    0    0    0  501 -0.00000000000E+00 -0.00000000000E+00 -0.69110506436E+02  0.69125093127E+02  0.14200000000E+01 0.  1.
        -13    1    1    2    0    0 -0.17568942181E+02  0.11748611573E+02 -0.15341021967E+02  0.26116196713E+02  0.10570000000E+00 0. -1.
         13    1    1    2    0    0  0.17568942181E+02 -0.11748611573E+02 -0.46150013990E+02  0.50759556411E+02  0.10570000000E+00 0.  1.
<mgrwt>
<rscale>  0 0.46138205E+02</rscale>
<asrwt>0</asrwt>
<pdfrwt beam="1">  1        4 0.11834398E-02 0.46138205E+02</pdfrwt>
<pdfrwt beam="2">  1       -4 0.10643599E-01 0.46138205E+02</pdfrwt>
<totfact> 0.16230175E+05</totfact>
</mgrwt>
</event>
<event>
 4    1  0.5624886E-001  0.5029441E+02  0.7818608E-02  0.1443760E+00
         -4   -1    0    0    0  501 -0.00000000000E+00  0.00000000000E+00  0.20645283976E+02  0.20694060753E+02  0.14200000000E+01 0. -1.
          4   -1    0    0  501    0  0.00000000000E+00 -0.00000000000E+00 -0.30529374106E+02  0.30562380197E+02  0.14200000000E+01 0.  1.
        -13    1    1    2    0    0 -0.15783341282E+02 -0.10067446355E+02  0.12169092158E+02  0.22328576188E+02  0.10570000000E+00 0. -1.
         13    1    1    2    0    0  0.15783341282E+02  0.10067446355E+02 -0.22053182289E+02  0.28927864762E+02  0.10570000000E+00 0.  1.
<mgrwt>
<rscale>  0 0.50294408E+02</rscale>
<asrwt>0</asrwt>
<pdfrwt beam="2">  1        4 0.47031177E-02 0.50294408E+02</pdfrwt>
<pdfrwt beam="1">  1       -4 0.31824885E-02 0.50294408E+02</pdfrwt>
<totfact> 0.14153876E+05</totfact>
</mgrwt>
</event>
<event>
 4    1  0.5624886E-001  0.3904056E+02  0.7818608E-02  0.1515393E+00
         -4   -1    0    0    0  501 -0.00000000000E+00  0.00000000000E+00  0.49888062342E+02  0.49908267494E+02  0.14200000000E+01 0. -1.
          4   -1    0    0  501    0  0.00000000000E+00 -0.00000000000E+00 -0.75499731410E+01  0.76823495384E+01  0.14200000000E+01 0.  1.
        -13    1    1    2    0    0 -0.14023137644E+02  0.12683851156E+02  0.28320350188E+02  0.34052633919E+02  0.10570000000E+00 0. -1.
         13    1    1    2    0    0  0.14023137644E+02 -0.12683851156E+02  0.14017739013E+02  0.23537983114E+02  0.10570000000E+00 0.  1.
<mgrwt>
<rscale>  0 0.39040561E+02</rscale>
<asrwt>0</asrwt>
<pdfrwt beam="2">  1        4 0.11732714E-02 0.39040561E+02</pdfrwt>
<pdfrwt beam="1">  1       -4 0.76868233E-02 0.39040561E+02</pdfrwt>
<totfact> 0.25682952E+05</totfact>
</mgrwt>
</event>
<event>
 4    1  0.5624886E-001  0.4654524E+02  0.7818608E-02  0.1464919E+00
         -4   -1    0    0    0  501 -0.00000000000E+00  0.00000000000E+00  0.80305438675E+01  0.81551232245E+01  0.14200000000E+01 0.  1.
          4   -1    0    0  501    0  0.00000000000E+00 -0.00000000000E+00 -0.66793071911E+02  0.66808164586E+02  0.14200000000E+01 0. -1.
        -13    1    1    2    0    0 -0.92811021595E+00 -0.18531806457E+02 -0.52004402532E+02  0.55215562066E+02  0.10570000000E+00 0. -1.
         13    1    1    2    0    0  0.92811021595E+00  0.18531806457E+02 -0.67581255120E+01  0.19747725744E+02  0.10570000000E+00 0.  1.
<mgrwt>
<rscale>  0 0.46545245E+02</rscale>
<asrwt>0</asrwt>
<pdfrwt beam="2">  1        4 0.10286601E-01 0.46545245E+02</pdfrwt>
<pdfrwt beam="1">  1       -4 0.12462123E-02 0.46545245E+02</pdfrwt>
<totfact> 0.15972156E+05</totfact>
</mgrwt>
</event>
<event>
 4    1  0.5624886E-001  0.2410949E+02  0.7818608E-02  0.1674132E+00
         -4   -1    0    0    0  501 -0.00000000000E+00  0.00000000000E+00  0.41587623528E+01  0.43945084261E+01  0.14200000000E+01 0. -1.
          4   -1    0    0  501    0  0.00000000000E+00 -0.00000000000E+00 -0.33728151776E+02  0.33758030485E+02  0.14200000000E+01 0.  1.
        -13    1    1    2    0    0  0.75023121492E+01 -0.86495927564E+01 -0.88203274454E+01  0.14453701642E+02  0.10570000000E+00 0. -1.
         13    1    1    2    0    0 -0.75023121492E+01  0.86495927564E+01 -0.20749061978E+02  0.23698837268E+02  0.10570000000E+00 0.  1.
<mgrwt>
<rscale>  0 0.24109488E+02</rscale>
<asrwt>0</asrwt>
<pdfrwt beam="2">  1        4 0.52093789E-02 0.24109488E+02</pdfrwt>
<pdfrwt beam="1">  1       -4 0.66024229E-03 0.24109488E+02</pdfrwt>
<totfact> 0.81604277E+05</totfact>
</mgrwt>
</event>
<event>
 4    1  0.5624886E-001  0.7489609E+02  0.7818608E-02  0.1344193E+00
         -4   -1    0    0    0  501 -0.00000000000E+00  0.00000000000E+00  0.11697731533E+02  0.11783603991E+02  0.14200000000E+01 0.  1.
          4   -1    0    0  501    0  0.00000000000E+00 -0.00000000000E+00 -0.11935420709E+03  0.11936265392E+03  0.14200000000E+01 0. -1.
        -13    1    1    2    0    0  0.12813370950E+02  0.16450060556E+02 -0.10829546231E+03  0.11028465576E+03  0.10570000000E+00 0. -1.
         13    1    1    2    0    0 -0.12813370950E+02 -0.16450060556E+02  0.63898675447E+00  0.20861602143E+02  0.10570000000E+00 0.  1.
<mgrwt>
<rscale>  0 0.74896090E+02</rscale>
<asrwt>0</asrwt>
<pdfrwt beam="2">  1        4 0.18369440E-01 0.74896090E+02</pdfrwt>
<pdfrwt beam="1">  1       -4 0.18069064E-02 0.74896090E+02</pdfrwt>
<totfact> 0.41588867E+04</totfact>
</mgrwt>
</event>
<event>
 4    1  0.5624886E-001  0.2789268E+02  0.7818608E-02  0.1622623E+00
          4   -1    0    0  501    0  0.00000000000E+00  0.00000000000E+00  0.28939136770E+02  0.28973954459E+02  0.14200000000E+01 0. -1.
         -4   -1    0    0    0  501 -0.00000000000E+00 -0.00000000000E+00 -0.66066716554E+01  0.67575520984E+01  0.14200000000E+01 0.  1.
        -13    1    1    2    0    0  0.71956569694E+01 -0.73869526091E+01  0.23193282700E+02  0.25382751682E+02  0.10570000000E+00 0. -1.
         13    1    1    2    0    0 -0.71956569694E+01  0.73869526091E+01 -0.86081758503E+00  0.10348754876E+02  0.10570000000E+00 0.  1.
<mgrwt>
<rscale>  0 0.27892679E+02</rscale>
<asrwt>0</asrwt>
<pdfrwt beam="1">  1        4 0.44664593E-02 0.27892679E+02</pdfrwt>
<pdfrwt beam="2">  1       -4 0.10306955E-02 0.27892679E+02</pdfrwt>
<totfact> 0.59925915E+05</totfact>
</mgrwt>
</event>
<event>
 4    1  0.5624886E-001  0.2463715E+02  0.7818608E-02  0.1666269E+00
         -4   -1    0    0    0  501 -0.00000000000E+00  0.00000000000E+00  0.30165527169E+01  0.33340651304E+01  0.14200000000E+01 0. -1.
          4   -1    0    0  501    0  0.00000000000E+00 -0.00000000000E+00 -0.47461128296E+02  0.47482366192E+02  0.14200000000E+01 0.  1.
        -13    1    1    2    0    0 -0.61898024839E+01 -0.10588859094E+02 -0.24572725149E+02  0.27463932447E+02  0.10570000000E+00 0. -1.
         13    1    1    2    0    0  0.61898024839E+01  0.10588859094E+02 -0.19871850430E+02  0.23352498875E+02  0.10570000000E+00 0.  1.
<mgrwt>
<rscale>  0 0.24637155E+02</rscale>
<asrwt>0</asrwt>
<pdfrwt beam="2">  1        4 0.73277692E-02 0.24637155E+02</pdfrwt>
<pdfrwt beam="1">  1       -4 0.49014279E-03 0.24637155E+02</pdfrwt>
<totfact> 0.74389914E+05</totfact>
</mgrwt>
</event>
<event>
 4    1  0.5624886E-001  0.2374343E+02  0.7818608E-02  0.1679735E+00
         -4   -1    0    0    0  501 -0.00000000000E+00  0.00000000000E+00  0.25821239011E+02  0.25860254911E+02  0.14200000000E+01 0. -1.
          4   -1    0    0  501    0  0.00000000000E+00 -0.00000000000E+00 -0.53219027851E+01  0.55080894377E+01  0.14200000000E+01 0.  1.
        -13    1    1    2    0    0  0.10062851538E+02 -0.37277368781E+01  0.16956234836E+02  0.20066939867E+02  0.10570000000E+00 0. -1.
         13    1    1    2    0    0 -0.10062851538E+02  0.37277368781E+01  0.35431013902E+01  0.11301404482E+02  0.10570000000E+00 0.  1.
<mgrwt>
<rscale>  0 0.23743425E+02</rscale>
<asrwt>0</asrwt>
<pdfrwt beam="2">  1        4 0.83607754E-03 0.23743425E+02</pdfrwt>
<pdfrwt beam="1">  1       -4 0.39898216E-02 0.23743425E+02</pdfrwt>
<totfact> 0.86575168E+05</totfact>
</mgrwt>
</event>
<event>
 4    1  0.5624886E-001  0.2893157E+02  0.7818608E-02  0.1610208E+00
         -4   -1    0    0    0  501 -0.00000000000E+00  0.00000000000E+00  0.13085195751E+02  0.13162019140E+02  0.14200000000E+01 0.  1.
          4   -1    0    0  501    0  0.00000000000E+00 -0.00000000000E+00 -0.15836547536E+02  0.15900082952E+02  0.14200000000E+01 0. -1.
        -13    1    1    2    0    0  0.13073864613E+02 -0.36119387067E+01  0.36745060935E+01  0.14052942918E+02  0.10570000000E+00 0.  1.
         13    1    1    2    0    0 -0.13073864613E+02  0.36119387067E+01 -0.64258578784E+01  0.15009159174E+02  0.10570000000E+00 0. -1.
<mgrwt>
<rscale>  0 0.28931572E+02</rscale>
<asrwt>0</asrwt>
<pdfrwt beam="2">  1        4 0.24471887E-02 0.28931572E+02</pdfrwt>
<pdfrwt beam="1">  1       -4 0.20239039E-02 0.28931572E+02</pdfrwt>
<totfact> 0.56668896E+05</totfact>
</mgrwt>
</event>
<event>
 4    1  0.5624886E-001  0.2393045E+02  0.7818608E-02  0.1676857E+00
         -4   -1    0    0    0  501 -0.00000000000E+00  0.00000000000E+00  0.20660743700E+01  0.25070028525E+01  0.14200000000E+01 0. -1.
          4   -1    0    0  501    0  0.00000000000E+00 -0.00000000000E+00 -0.62163001852E+02  0.62179218387E+02  0.14200000000E+01 0.  1.
        -13    1    1    2    0    0  0.76590002218E+01 -0.84781860501E+01 -0.39649403237E+02  0.41262892200E+02  0.10570000000E+00 0.  1.
         13    1    1    2    0    0 -0.76590002218E+01  0.84781860501E+01 -0.20447524244E+02  0.23423329040E+02  0.10570000000E+00 0. -1.
<mgrwt>
<rscale>  0 0.23930452E+02</rscale>
<asrwt>0</asrwt>
<pdfrwt beam="2">  1        4 0.95987025E-02 0.23930452E+02</pdfrwt>
<pdfrwt beam="1">  1       -4 0.35302264E-03 0.23930452E+02</pdfrwt>
<totfact> 0.75513541E+05</totfact>
</mgrwt>
</event>
<event>
 4    1  0.5624886E-001  0.2578408E+02  0.7818608E-02  0.1649989E+00
          4   -1    0    0  501    0  0.00000000000E+00  0.00000000000E+00  0.52927836724E+01  0.54799597629E+01  0.14200000000E+01 0.  1.
         -4   -1    0    0    0  501 -0.00000000000E+00 -0.00000000000E+00 -0.30652616560E+02  0.30685490089E+02  0.14200000000E+01 0. -1.
        -13    1    1    2    0    0 -0.26527649052E+01  0.11679632270E+02 -0.19368921574E+02  0.22773169894E+02  0.10570000000E+00 0. -1.
         13    1    1    2    0    0  0.26527649052E+01 -0.11679632270E+02 -0.59909113133E+01  0.13392279957E+02  0.10570000000E+00 0.  1.
<mgrwt>
<rscale>  0 0.25784077E+02</rscale>
<asrwt>0</asrwt>
<pdfrwt beam="1">  1        4 0.83120132E-03 0.25784077E+02</pdfrwt>
<pdfrwt beam="2">  1       -4 0.47327139E-02 0.25784077E+02</pdfrwt>
<totfact> 0.71116872E+05</totfact>
</mgrwt>
</event>
<event>
 4    1  0.5624886E-001  0.2968310E+02  0.7818608E-02  0.1601618E+00
         -4   -1    0    0    0  501 -0.00000000000E+00  0.00000000000E+00  0.74337795112E+01  0.75681885429E+01  0.14200000000E+01 0. -1.
          4   -1    0    0  501    0  0.00000000000E+00 -0.00000000000E+00 -0.29213876889E+02  0.29248367526E+02  0.14200000000E+01 0.  1.
        -13    1    1    2    0    0 -0.80718712578E+01  0.71457253715E+01 -0.23541554562E+02  0.25892710565E+02  0.10570000000E+00 0.  1.
         13    1    1    2    0    0  0.80718712578E+01 -0.71457253715E+01  0.17614571842E+01  0.10923845504E+02  0.10570000000E+00 0. -1.
<mgrwt>
<rscale>  0 0.29683096E+02</rscale>
<asrwt>0</asrwt>
<pdfrwt beam="2">  1        4 0.45074348E-02 0.29683096E+02</pdfrwt>
<pdfrwt beam="1">  1       -4 0.11566507E-02 0.29683096E+02</pdfrwt>
<totfact> 0.51944324E+05</totfact>
</mgrwt>
</event>
<event>
 4    1  0.5624886E-001  0.2419237E+02  0.7818608E-02  0.1672881E+00
         -4   -1    0    0    0  501 -0.00000000000E+00  0.00000000000E+00  0.28139574182E+01  0.31519448522E+01  0.14200000000E+01 0. -1.
          4   -1    0    0  501    0  0.00000000000E+00 -0.00000000000E+00 -0.48702393906E+02  0.48723090749E+02  0.14200000000E+01 0.  1.
        -13    1    1    2    0    0  0.91116972488E+00 -0.11531040808E+02 -0.15359621185E+02  0.19228215409E+02  0.10570000000E+00 0. -1.
         13    1    1    2    0    0 -0.91116972488E+00  0.11531040808E+02 -0.30528815303E+02  0.32646820193E+02  0.10570000000E+00 0.  1.
<mgrwt>
<rscale>  0 0.24192369E+02</rscale>
<asrwt>0</asrwt>
<pdfrwt beam="2">  1        4 0.75202665E-02 0.24192369E+02</pdfrwt>
<pdfrwt beam="1">  1       -4 0.46050766E-03 0.24192369E+02</pdfrwt>
<totfact> 0.77058139E+05</totfact>
</mgrwt>
</event>
<event>
 4    1  0.5624886E-001  0.2074819E+02  0.7818608E-02  0.1730846E+00
          4   -1    0    0  501    0  0.00000000000E+00  0.00000000000E+00  0.95572059147E+00  0.17116663953E+01  0.14200000000E+01 0.  1.
         -4   -1    0    0    0  501 -0.00000000000E+00 -0.00000000000E+00 -0.79930556912E+02  0.79943169366E+02  0.14200000000E+01 0. -1.
        -13    1    1    2    0    0  0.10347793759E+02  0.64593532367E+00 -0.40831367921E+02  0.42127257766E+02  0.10570000000E+00 0. -1.
         13    1    1    2    0    0 -0.10347793759E+02 -0.64593532367E+00 -0.38143468400E+02  0.39527577995E+02  0.10570000000E+00 0.  1.
<mgrwt>
<rscale>  0 0.20748191E+02</rscale>
<asrwt>0</asrwt>
<pdfrwt beam="1">  1        4 0.20615387E-03 0.20748191E+02</pdfrwt>
<pdfrwt beam="2">  1       -4 0.12356125E-01 0.20748191E+02</pdfrwt>
<totfact> 0.96176050E+05</totfact>
</mgrwt>
</event>
<event>
 4    1  0.5624886E-001  0.3888703E+02  0.7818608E-02  0.1516565E+00
          4   -1    0    0  501    0  0.00000000000E+00  0.00000000000E+00  0.98401545744E+02  0.98411790985E+02  0.14200000000E+01 0. -1.
         -4   -1    0    0    0  501 -0.00000000000E+00 -0.00000000000E+00 -0.36998932862E+01  0.39630304476E+01  0.14200000000E+01 0.  1.
        -13    1    1    2    0    0 -0.13082509011E+02  0.86647644947E+01  0.17126211487E+02  0.23228182842E+02  0.10570000000E+00 0.  1.
         13    1    1    2    0    0  0.13082509011E+02 -0.86647644947E+01  0.77575440971E+02  0.79146638590E+02  0.10570000000E+00 0. -1.
<mgrwt>
<rscale>  0 0.38887030E+02</rscale>
<asrwt>0</asrwt>
<pdfrwt beam="1">  1        4 0.15159728E-01 0.38887030E+02</pdfrwt>
<pdfrwt beam="2">  1       -4 0.59024381E-03 0.38887030E+02</pdfrwt>
<totfact> 0.22791781E+05</totfact>
</mgrwt>
</event>
<event>
 4    1  0.5624886E-001  0.2197891E+02  0.7818608E-02  0.1708617E+00
          4   -1    0    0  501    0  0.00000000000E+00  0.00000000000E+00  0.16601873911E+01  0.21846331897E+01  0.14200000000E+01 0. -1.
         -4   -1    0    0    0  501 -0.00000000000E+00 -0.00000000000E+00 -0.62287545879E+02  0.62303729997E+02  0.14200000000E+01 0.  1.
        -13    1    1    2    0    0 -0.94505664904E+01 -0.42000017282E+01 -0.19412510685E+02  0.21995680601E+02  0.10570000000E+00 0. -1.
         13    1    1    2    0    0  0.94505664904E+01  0.42000017282E+01 -0.41214847802E+02  0.42492682586E+02  0.10570000000E+00 0.  1.
<mgrwt>
<rscale>  0 0.21978908E+02</rscale>
<asrwt>0</asrwt>
<pdfrwt beam="1">  1        4 0.29700041E-03 0.21978908E+02</pdfrwt>
<pdfrwt beam="2">  1       -4 0.96242847E-02 0.21978908E+02</pdfrwt>
<totfact> 0.90292683E+05</totfact>
</mgrwt>
</event>
<event>
 4    1  0.5624886E-001  0.2888037E+02  0.7818608E-02  0.1610805E+00
         -4   -1    0    0    0  501 -0.00000000000E+00  0.00000000000E+00  0.13243123180E+01  0.19417010881E+01  0.14200000000E+01 0.  1.
          4   -1    0    0  501    0  0.00000000000E+00 -0.00000000000E+00 -0.12706805002E+03  0.12707598410E+03  0.14200000000E+01 0.  1.
        -13    1    1    2    0    0  0.56503156145E+01  0.13031206769E+02 -0.51248870912E+02  0.53180789376E+02  0.10570000000E+00 0. -1.
         13    1    1    2    0    0 -0.56503156145E+01 -0.13031206769E+02 -0.74494866787E+02  0.75836895813E+02  0.10570000000E+00 0.  1.
<mgrwt>
<rscale>  0 0.28880366E+02</rscale>
<asrwt>0</asrwt>
<pdfrwt beam="2">  1        4 0.19597025E-01 0.28880366E+02</pdfrwt>
<pdfrwt beam="1">  1       -4 0.25184222E-03 0.28880366E+02</pdfrwt>
<totfact> 0.41856243E+05</totfact>
</mgrwt>
</event>
<event>
 4    1  0.5624886E-001  0.5281108E+02  0.7818608E-02  0.1430743E+00
          4   -1    0    0  501    0  0.00000000000E+00  0.00000000000E+00  0.47331262427E+02  0.47352558568E+02  0.14200000000E+01 0. -1.
         -4   -1    0    0    0  501 -0.00000000000E+00 -0.00000000000E+00 -0.14672436706E+02  0.14740990431E+02  0.14200000000E+01 0.  1.
        -13    1    1    2    0    0 -0.15292664842E+02  0.12560519294E+02  0.36883801803E+02  0.41857594901E+02  0.10570000000E+00 0. -1.
         13    1    1    2    0    0  0.15292664842E+02 -0.12560519294E+02 -0.42249760829E+01  0.20235954099E+02  0.10570000000E+00 0.  1.
<mgrwt>
<rscale>  0 0.52811078E+02</rscale>
<asrwt>0</asrwt>
<pdfrwt beam="1">  1        4 0.72886441E-02 0.52811078E+02</pdfrwt>
<pdfrwt beam="2">  1       -4 0.22642095E-02 0.52811078E+02</pdfrwt>
<totfact> 0.12130457E+05</totfact>
</mgrwt>
</event>
<event>
 4    1  0.5624886E-001  0.8627905E+02  0.7818608E-02  0.1312121E+00
         -4   -1    0    0    0  501 -0.00000000000E+00  0.00000000000E+00  0.13224702840E+02  0.13300720477E+02  0.14200000000E+01 0.  1.
          4   -1    0    0  501    0  0.00000000000E+00 -0.00000000000E+00 -0.14023998656E+03  0.14024717548E+03  0.14200000000E+01 0. -1.
        -13    1    1    2    0    0 -0.17894635481E+01  0.42989466716E+02 -0.57961786319E+02  0.72186399510E+02  0.10570000000E+00 0. -1.
         13    1    1    2    0    0  0.17894635481E+01 -0.42989466716E+02 -0.69053497396E+02  0.81361496443E+02  0.10570000000E+00 0.  1.
<mgrwt>
<rscale>  0 0.86279048E+02</rscale>
<asrwt>0</asrwt>
<pdfrwt beam="2">  1        4 0.21581782E-01 0.86279048E+02</pdfrwt>
<pdfrwt beam="1">  1       -4 0.20409703E-02 0.86279048E+02</pdfrwt>
<totfact> 0.27236311E+04</totfact>
</mgrwt>
</event>
<event>
 4    1  0.5624886E-001  0.4337972E+02  0.7818608E-02  0.1484718E+00
         -4   -1    0    0    0  501 -0.00000000000E+00  0.00000000000E+00  0.31465919403E+02  0.31497944121E+02  0.14200000000E+01 0.  1.
          4   -1    0    0  501    0  0.00000000000E+00 -0.00000000000E+00 -0.14877646711E+02  0.14945259170E+02  0.14200000000E+01 0. -1.
        -13    1    1    2    0    0  0.13480328671E+02  0.15250854198E+01 -0.98241523408E+01  0.16750232486E+02  0.10570000000E+00 0. -1.
         13    1    1    2    0    0 -0.13480328671E+02 -0.15250854198E+01  0.26412425033E+02  0.29692970805E+02  0.10570000000E+00 0.  1.
<mgrwt>
<rscale>  0 0.43379723E+02</rscale>
<asrwt>0</asrwt>
<pdfrwt beam="2">  1        4 0.22965332E-02 0.43379723E+02</pdfrwt>
<pdfrwt beam="1">  1       -4 0.48485750E-02 0.43379723E+02</pdfrwt>
<totfact> 0.20672266E+05</totfact>
</mgrwt>
</event>
<event>
 4    1  0.5624886E-001  0.2346564E+02  0.7818608E-02  0.1684072E+00
          4   -1    0    0  501    0  0.00000000000E+00  0.00000000000E+00  0.33277662073E+02  0.33307944894E+02  0.14200000000E+01 0. -1.
         -4   -1    0    0    0  501 -0.00000000000E+00 -0.00000000000E+00 -0.39816425931E+01  0.42272778167E+01  0.14200000000E+01 0.  1.
        -13    1    1    2    0    0  0.44064477201E+01  0.10236028684E+02  0.87806137721E+01  0.14188143481E+02  0.10570000000E+00 0.  1.
         13    1    1    2    0    0 -0.44064477201E+01 -0.10236028684E+02  0.20515405708E+02  0.23347079230E+02  0.10570000000E+00 0. -1.
<mgrwt>
<rscale>  0 0.23465638E+02</rscale>
<asrwt>0</asrwt>
<pdfrwt beam="1">  1        4 0.51408648E-02 0.23465638E+02</pdfrwt>
<pdfrwt beam="2">  1       -4 0.63378486E-03 0.23465638E+02</pdfrwt>
<totfact> 0.86646922E+05</totfact>
</mgrwt>
</event>
<event>
 4    1  0.5624886E-001  0.4038297E+02  0.7818608E-02  0.1505412E+00
          4   -1    0    0  501    0  0.00000000000E+00  0.00000000000E+00  0.31828852378E+02  0.31860512295E+02  0.14200000000E+01 0.  1.
         -4   -1    0    0    0  501 -0.00000000000E+00 -0.00000000000E+00 -0.12731486977E+02  0.12810431712E+02  0.14200000000E+01 0. -1.
        -13    1    1    2    0    0 -0.23060568743E+01  0.12195683209E+02  0.27165568050E+02  0.29866902203E+02  0.10570000000E+00 0.  1.
         13    1    1    2    0    0  0.23060568743E+01 -0.12195683209E+02 -0.80682026497E+01  0.14804041804E+02  0.10570000000E+00 0. -1.
<mgrwt>
<rscale>  0 0.40382965E+02</rscale>
<asrwt>0</asrwt>
<pdfrwt beam="1">  1        4 0.49052545E-02 0.40382965E+02</pdfrwt>
<pdfrwt beam="2">  1       -4 0.19671984E-02 0.40382965E+02</pdfrwt>
<totfact> 0.24704116E+05</totfact>
</mgrwt>
</event>
<event>
 4    1  0.5624886E-001  0.2268123E+02  0.7818608E-02  0.1696730E+00
         -4   -1    0    0    0  501 -0.00000000000E+00  0.00000000000E+00  0.79201324265E+02  0.79214052827E+02  0.14200000000E+01 0.  1.
          4   -1    0    0  501    0  0.00000000000E+00 -0.00000000000E+00 -0.12980248652E+01  0.19238681220E+01  0.14200000000E+01 0. -1.
        -13    1    1    2    0    0 -0.55241746668E+01  0.91040028529E+01  0.52898132702E+02  0.53959456906E+02  0.10570000000E+00 0.  1.
         13    1    1    2    0    0  0.55241746668E+01 -0.91040028529E+01  0.25005166697E+02  0.27178464043E+02  0.10570000000E+00 0. -1.
<mgrwt>
<rscale>  0 0.22681229E+02</rscale>
<asrwt>0</asrwt>
<pdfrwt beam="2">  1        4 0.24881706E-03 0.22681229E+02</pdfrwt>
<pdfrwt beam="1">  1       -4 0.12233939E-01 0.22681229E+02</pdfrwt>
<totfact> 0.80208178E+05</totfact>
</mgrwt>
</event>
<event>
 4    1  0.5624886E-001  0.8361261E+02  0.7818608E-02  0.1319101E+00
         -4   -1    0    0    0  501 -0.00000000000E+00  0.00000000000E+00  0.48882168832E+02  0.48902789590E+02  0.14200000000E+01 0.  1.
          4   -1    0    0  501    0  0.00000000000E+00 -0.00000000000E+00 -0.35712419704E+02  0.35740639629E+02  0.14200000000E+01 0. -1.
        -13    1    1    2    0    0  0.25283328573E+02 -0.13053967075E+02 -0.24421198055E+02  0.37497451207E+02  0.10570000000E+00 0.  1.
         13    1    1    2    0    0 -0.25283328573E+02  0.13053967075E+02  0.37590947183E+02  0.47145978012E+02  0.10570000000E+00 0. -1.
<mgrwt>
<rscale>  0 0.83612606E+02</rscale>
<asrwt>0</asrwt>
<pdfrwt beam="2">  1        4 0.54979754E-02 0.83612606E+02</pdfrwt>
<pdfrwt beam="1">  1       -4 0.75240906E-02 0.83612606E+02</pdfrwt>
<totfact> 0.34666046E+04</totfact>
</mgrwt>
</event>
<event>
 4    1  0.5624886E-001  0.6469198E+02  0.7818608E-02  0.1379134E+00
         -4   -1    0    0    0  501 -0.00000000000E+00  0.00000000000E+00  0.48984783995E+01  0.51001461381E+01  0.14200000000E+01 0.  1.
          4   -1    0    0  501    0  0.00000000000E+00 -0.00000000000E+00 -0.20907730376E+03  0.20908212585E+03  0.14200000000E+01 0. -1.
        -13    1    1    2    0    0 -0.21513789895E+02 -0.24037799274E+02 -0.94259453305E+02  0.99626877194E+02  0.10570000000E+00 0. -1.
         13    1    1    2    0    0  0.21513789895E+02  0.24037799274E+02 -0.10991937206E+03  0.11455539479E+03  0.10570000000E+00 0.  1.
<mgrwt>
<rscale>  0 0.64691985E+02</rscale>
<asrwt>0</asrwt>
<pdfrwt beam="2">  1        4 0.32181616E-01 0.64691985E+02</pdfrwt>
<pdfrwt beam="1">  1       -4 0.76949606E-03 0.64691985E+02</pdfrwt>
<totfact> 0.50901295E+04</totfact>
</mgrwt>
</event>
<event>
 4    1  0.5624886E-001  0.7182091E+02  0.7818608E-02  0.1354008E+00
         -4   -1    0    0    0  501 -0.00000000000E+00  0.00000000000E+00  0.40426375700E+01  0.42847775348E+01  0.14200000000E+01 0. -1.
          4   -1    0    0  501    0  0.00000000000E+00 -0.00000000000E+00 -0.30947075075E+03  0.30947400855E+03  0.14200000000E+01 0.  1.
        -13    1    1    2    0    0 -0.25789834463E+02  0.23956554567E+02 -0.18376440698E+03  0.18710531931E+03  0.10570000000E+00 0.  1.
         13    1    1    2    0    0  0.25789834463E+02 -0.23956554567E+02 -0.12166370620E+03  0.12665346678E+03  0.10570000000E+00 0. -1.
<mgrwt>
<rscale>  0 0.71820913E+02</rscale>
<asrwt>0</asrwt>
<pdfrwt beam="2">  1        4 0.47629743E-01 0.71820913E+02</pdfrwt>
<pdfrwt beam="1">  1       -4 0.64082124E-03 0.71820913E+02</pdfrwt>
<totfact> 0.32454207E+04</totfact>
</mgrwt>
</event>
<event>
 4    1  0.5624886E-001  0.5334621E+02  0.7818608E-02  0.1428086E+00
          4   -1    0    0  501    0  0.00000000000E+00  0.00000000000E+00  0.83928955413E+02  0.83940967094E+02  0.14200000000E+01 0. -1.
         -4   -1    0    0    0  501 -0.00000000000E+00 -0.00000000000E+00 -0.84046880634E+01  0.85238008800E+01  0.14200000000E+01 0.  1.
        -13    1    1    2    0    0  0.23508274203E+02  0.11770018343E+02  0.29958234200E+02  0.39858239508E+02  0.10570000000E+00 0. -1.
         13    1    1    2    0    0 -0.23508274203E+02 -0.11770018343E+02  0.45566033149E+02  0.52606528466E+02  0.10570000000E+00 0.  1.
<mgrwt>
<rscale>  0 0.53346212E+02</rscale>
<asrwt>0</asrwt>
<pdfrwt beam="1">  1        4 0.12922234E-01 0.53346212E+02</pdfrwt>
<pdfrwt beam="2">  1       -4 0.13031154E-02 0.53346212E+02</pdfrwt>
<totfact> 0.10877639E+05</totfact>
</mgrwt>
</event>
<event>
 4    1  0.5624886E-001  0.3239756E+02  0.7818608E-02  0.1573005E+00
          4   -1    0    0  501    0  0.00000000000E+00  0.00000000000E+00  0.96346300896E+02  0.96356764663E+02  0.14200000000E+01 0. -1.
         -4   -1    0    0    0  501 -0.00000000000E+00 -0.00000000000E+00 -0.25270754604E+01  0.28987083990E+01  0.14200000000E+01 0.  1.
        -13    1    1    2    0    0 -0.12558233272E+02 -0.89537808086E+01  0.62077069731E+02  0.63964468047E+02  0.10570000000E+00 0. -1.
         13    1    1    2    0    0  0.12558233272E+02  0.89537808086E+01  0.31742155705E+02  0.35291005015E+02  0.10570000000E+00 0.  1.
<mgrwt>
<rscale>  0 0.32397560E+02</rscale>
<asrwt>0</asrwt>
<pdfrwt beam="1">  1        4 0.14851900E-01 0.32397560E+02</pdfrwt>
<pdfrwt beam="2">  1       -4 0.41817290E-03 0.32397560E+02</pdfrwt>
<totfact> 0.35033062E+05</totfact>
</mgrwt>
</event>
<event>
 4    1  0.5624886E-001  0.2806497E+02  0.7818608E-02  0.1620519E+00
          4   -1    0    0  501    0  0.00000000000E+00  0.00000000000E+00  0.74904493994E+01  0.76238594036E+01  0.14200000000E+01 0.  1.
         -4   -1    0    0    0  501 -0.00000000000E+00 -0.00000000000E+00 -0.25903159229E+02  0.25942051924E+02  0.14200000000E+01 0. -1.
        -13    1    1    2    0    0  0.11250411701E+02  0.50513673012E+01 -0.17212584461E+02  0.21174803692E+02  0.10570000000E+00 0. -1.
         13    1    1    2    0    0 -0.11250411701E+02 -0.50513673012E+01 -0.12001253683E+01  0.12391107636E+02  0.10570000000E+00 0.  1.
<mgrwt>
<rscale>  0 0.28064970E+02</rscale>
<asrwt>0</asrwt>
<pdfrwt beam="1">  1        4 0.11656309E-02 0.28064970E+02</pdfrwt>
<pdfrwt beam="2">  1       -4 0.39983554E-02 0.28064970E+02</pdfrwt>
<totfact> 0.59599291E+05</totfact>
</mgrwt>
</event>
<event>
 4    1  0.5624886E-001  0.3930830E+02  0.7818608E-02  0.1513364E+00
         -4   -1    0    0    0  501 -0.00000000000E+00  0.00000000000E+00  0.23139509652E+02  0.23183039208E+02  0.14200000000E+01 0.  1.
          4   -1    0    0  501    0  0.00000000000E+00 -0.00000000000E+00 -0.16604216516E+02  0.16664825415E+02  0.14200000000E+01 0. -1.
        -13    1    1    2    0    0 -0.46606107167E+01 -0.17153651775E+02 -0.52322755374E+01  0.18529893180E+02  0.10570000000E+00 0. -1.
         13    1    1    2    0    0  0.46606107167E+01  0.17153651775E+02  0.11767568674E+02  0.21317971443E+02  0.10570000000E+00 0.  1.
<mgrwt>
<rscale>  0 0.39308298E+02</rscale>
<asrwt>0</asrwt>
<pdfrwt beam="2">  1        4 0.25625055E-02 0.39308298E+02</pdfrwt>
<pdfrwt beam="1">  1       -4 0.35679352E-02 0.39308298E+02</pdfrwt>
<totfact> 0.26780210E+05</totfact>
</mgrwt>
</event>
<event>
 4    1  0.5624886E-001  0.2489456E+02  0.7818608E-02  0.1662521E+00
         -4   -1    0    0    0  501 -0.00000000000E+00  0.00000000000E+00  0.18953278070E+02  0.19006397597E+02  0.14200000000E+01 0. -1.
          4   -1    0    0  501    0  0.00000000000E+00 -0.00000000000E+00 -0.80477601787E+01  0.81720770856E+01  0.14200000000E+01 0.  1.
        -13    1    1    2    0    0 -0.10921627431E+02  0.58825377426E+01  0.43407750035E+01  0.13143047446E+02  0.10570000000E+00 0.  1.
         13    1    1    2    0    0  0.10921627431E+02 -0.58825377426E+01  0.65647428882E+01  0.14035427237E+02  0.10570000000E+00 0. -1.
<mgrwt>
<rscale>  0 0.24894561E+02</rscale>
<asrwt>0</asrwt>
<pdfrwt beam="2">  1        4 0.12517659E-02 0.24894561E+02</pdfrwt>
<pdfrwt beam="1">  1       -4 0.29295379E-02 0.24894561E+02</pdfrwt>
<totfact> 0.79535986E+05</totfact>
</mgrwt>
</event>
<event>
 4    1  0.5624886E-001  0.2249271E+02  0.7818608E-02  0.1699868E+00
         -4   -1    0    0    0  501 -0.00000000000E+00  0.00000000000E+00  0.16118802859E+02  0.16181230040E+02  0.14200000000E+01 0.  1.
          4   -1    0    0  501    0  0.00000000000E+00 -0.00000000000E+00 -0.77041616848E+01  0.78339330649E+01  0.14200000000E+01 0. -1.
        -13    1    1    2    0    0  0.39913193863E+01  0.96757532074E+01 -0.18429475099E+00  0.10468809274E+02  0.10570000000E+00 0. -1.
         13    1    1    2    0    0 -0.39913193863E+01 -0.96757532074E+01  0.85989359256E+01  0.13546353831E+02  0.10570000000E+00 0.  1.
<mgrwt>
<rscale>  0 0.22492707E+02</rscale>
<asrwt>0</asrwt>
<pdfrwt beam="2">  1        4 0.12000402E-02 0.22492707E+02</pdfrwt>
<pdfrwt beam="1">  1       -4 0.24946003E-02 0.22492707E+02</pdfrwt>
<totfact> 0.10011666E+06</totfact>
</mgrwt>
</event>
<event>
 4    1  0.5624886E-001  0.3237404E+02  0.7818608E-02  0.1573238E+00
         -4   -1    0    0    0  501 -0.00000000000E+00  0.00000000000E+00  0.14830597147E+02  0.14898423129E+02  0.14200000000E+01 0.  1.
          4   -1    0    0  501    0  0.00000000000E+00 -0.00000000000E+00 -0.17530598600E+02  0.17588015445E+02  0.14200000000E+01 0. -1.
        -13    1    1    2    0    0 -0.10632872352E+02 -0.72165950507E+01  0.85264903958E+01  0.15422367831E+02  0.10570000000E+00 0.  1.
         13    1    1    2    0    0  0.10632872352E+02  0.72165950507E+01 -0.11226491849E+02  0.17064070742E+02  0.10570000000E+00 0. -1.
<mgrwt>
<rscale>  0 0.32374043E+02</rscale>
<asrwt>0</asrwt>
<pdfrwt beam="2">  1        4 0.27066492E-02 0.32374043E+02</pdfrwt>
<pdfrwt beam="1">  1       -4 0.22912644E-02 0.32374043E+02</pdfrwt>
<totfact> 0.43318543E+05</totfact>
</mgrwt>
</event>
<event>
 4    1  0.5624886E-001  0.3198763E+02  0.7818608E-02  0.1577103E+00
          4   -1    0    0  501    0  0.00000000000E+00  0.00000000000E+00  0.14799191650E+03  0.14799872888E+03  0.14200000000E+01 0. -1.
         -4   -1    0    0    0  501 -0.00000000000E+00 -0.00000000000E+00 -0.14288238978E+01  0.20144323595E+01  0.14200000000E+01 0.  1.
        -13    1    1    2    0    0 -0.12045112819E+02 -0.99807404963E+01  0.57663277669E+02  0.59747507795E+02  0.10570000000E+00 0. -1.
         13    1    1    2    0    0  0.12045112819E+02  0.99807404963E+01  0.88899814937E+02  0.90265653445E+02  0.10570000000E+00 0.  1.
<mgrwt>
<rscale>  0 0.31987629E+02</rscale>
<asrwt>0</asrwt>
<pdfrwt beam="1">  1        4 0.22813553E-01 0.31987629E+02</pdfrwt>
<pdfrwt beam="2">  1       -4 0.26538995E-03 0.31987629E+02</pdfrwt>
<totfact> 0.31666504E+05</totfact>
</mgrwt>
</event>
<event>
 4    1  0.5624886E-001  0.2880363E+02  0.7818608E-02  0.1611702E+00
         -4   -1    0    0    0  501 -0.00000000000E+00  0.00000000000E+00  0.34500747557E+02  0.34529957746E+02  0.14200000000E+01 0.  1.
          4   -1    0    0  501    0  0.00000000000E+00 -0.00000000000E+00 -0.58957311600E+01  0.60643256765E+01  0.14200000000E+01 0. -1.
        -13    1    1    2    0    0  0.10785747793E+02 -0.54496641677E+01  0.25343173794E+02  0.28077015964E+02  0.10570000000E+00 0.  1.
         13    1    1    2    0    0 -0.10785747793E+02  0.54496641677E+01  0.32618426029E+01  0.12517267459E+02  0.10570000000E+00 0. -1.
<mgrwt>
<rscale>  0 0.28803626E+02</rscale>
<asrwt>0</asrwt>
<pdfrwt beam="2">  1        4 0.92225133E-03 0.28803626E+02</pdfrwt>
<pdfrwt beam="1">  1       -4 0.53230229E-02 0.28803626E+02</pdfrwt>
<totfact> 0.54801082E+05</totfact>
</mgrwt>
</event>
<event>
 4    1  0.5624886E-001  0.3480002E+02  0.7818608E-02  0.1550384E+00
         -4   -1    0    0    0  501 -0.00000000000E+00  0.00000000000E+00  0.10837855274E+02  0.10930485210E+02  0.14200000000E+01 0.  1.
          4   -1    0    0  501    0  0.00000000000E+00 -0.00000000000E+00 -0.27705686766E+02  0.27742052540E+02  0.14200000000E+01 0. -1.
        -13    1    1    2    0    0 -0.37157030753E+01  0.14897507494E+02 -0.17530603403E+02  0.23303978352E+02  0.10570000000E+00 0. -1.
         13    1    1    2    0    0  0.37157030753E+01 -0.14897507494E+02  0.66277191118E+00  0.15368559398E+02  0.10570000000E+00 0.  1.
<mgrwt>
<rscale>  0 0.34800021E+02</rscale>
<asrwt>0</asrwt>
<pdfrwt beam="2">  1        4 0.42723361E-02 0.34800021E+02</pdfrwt>
<pdfrwt beam="1">  1       -4 0.16772851E-02 0.34800021E+02</pdfrwt>
<totfact> 0.35841984E+05</totfact>
</mgrwt>
</event>
<event>
 4    1  0.5624886E-001  0.2057448E+02  0.7818608E-02  0.1734139E+00
          4   -1    0    0  501    0  0.00000000000E+00  0.00000000000E+00  0.67616454046E+01  0.69091423909E+01  0.14200000000E+01 0.  1.
         -4   -1    0    0    0  501 -0.00000000000E+00 -0.00000000000E+00 -0.15301522747E+02  0.15367270362E+02  0.14200000000E+01 0. -1.
        -13    1    1    2    0    0  0.81813019176E+01 -0.62345270823E+01 -0.43936891172E+01  0.11185647302E+02  0.10570000000E+00 0.  1.
         13    1    1    2    0    0 -0.81813019176E+01  0.62345270823E+01 -0.41461882255E+01  0.11090765451E+02  0.10570000000E+00 0. -1.
<mgrwt>
<rscale>  0 0.20574476E+02</rscale>
<asrwt>0</asrwt>
<pdfrwt beam="1">  1        4 0.10566566E-02 0.20574476E+02</pdfrwt>
<pdfrwt beam="2">  1       -4 0.23704838E-02 0.20574476E+02</pdfrwt>
<totfact> 0.12152610E+06</totfact>
</mgrwt>
</event>
<event>
 4    1  0.5624886E-001  0.4028367E+02  0.7818608E-02  0.1506134E+00
         -4   -1    0    0    0  501 -0.00000000000E+00  0.00000000000E+00  0.20493113019E+02  0.20542251123E+02  0.14200000000E+01 0.  1.
          4   -1    0    0  501    0  0.00000000000E+00 -0.00000000000E+00 -0.19698146254E+02  0.19749262412E+02  0.14200000000E+01 0. -1.
        -13    1    1    2    0    0 -0.40214894069E+01 -0.19660477415E+02  0.21228122816E+01  0.20179798158E+02  0.10570000000E+00 0. -1.
         13    1    1    2    0    0  0.40214894069E+01  0.19660477415E+02 -0.13278455166E+01  0.20111715378E+02  0.10570000000E+00 0.  1.
<mgrwt>
<rscale>  0 0.40283670E+02</rscale>
<asrwt>0</asrwt>
<pdfrwt beam="2">  1        4 0.30381959E-02 0.40283670E+02</pdfrwt>
<pdfrwt beam="1">  1       -4 0.31604985E-02 0.40283670E+02</pdfrwt>
<totfact> 0.25218652E+05</totfact>
</mgrwt>
</event>
<event>
 4    1  0.5624886E-001  0.2626571E+02  0.7818608E-02  0.1643460E+00
          4   -1    0    0  501    0  0.00000000000E+00  0.00000000000E+00  0.15947686937E+02  0.16010781325E+02  0.14200000000E+01 0.  1.
         -4   -1    0    0    0  501 -0.00000000000E+00 -0.00000000000E+00 -0.10683335609E+02  0.10777293711E+02  0.14200000000E+01 0. -1.
        -13    1    1    2    0    0 -0.11947708403E+02  0.91733805327E+00  0.81122548002E+01  0.14470974246E+02  0.10570000000E+00 0.  1.
         13    1    1    2    0    0  0.11947708403E+02 -0.91733805327E+00 -0.28479034727E+01  0.12317100790E+02  0.10570000000E+00 0. -1.
<mgrwt>
<rscale>  0 0.26265711E+02</rscale>
<asrwt>0</asrwt>
<pdfrwt beam="1">  1        4 0.24655713E-02 0.26265711E+02</pdfrwt>
<pdfrwt beam="2">  1       -4 0.16556711E-02 0.26265711E+02</pdfrwt>
<totfact> 0.70860063E+05</totfact>
</mgrwt>
</event>
<event>
 4    1  0.5624886E-001  0.2623889E+02  0.7818608E-02  0.1643819E+00
          4   -1    0    0  501    0  0.00000000000E+00  0.00000000000E+00  0.87759649937E+02  0.87771137381E+02  0.14200000000E+01 0.  1.
         -4   -1    0    0    0  501 -0.00000000000E+00 -0.00000000000E+00 -0.16910691029E+01  0.22081926344E+01  0.14200000000E+01 0. -1.
        -13    1    1    2    0    0 -0.99870065838E+01  0.74893287862E+01  0.56870007982E+02  0.58224044231E+02  0.10570000000E+00 0.  1.
         13    1    1    2    0    0  0.99870065838E+01 -0.74893287862E+01  0.29198572852E+02  0.31755285784E+02  0.10570000000E+00 0. -1.
<mgrwt>
<rscale>  0 0.26238888E+02</rscale>
<asrwt>0</asrwt>
<pdfrwt beam="1">  1        4 0.13542145E-01 0.26238888E+02</pdfrwt>
<pdfrwt beam="2">  1       -4 0.30082691E-03 0.26238888E+02</pdfrwt>
<totfact> 0.57349245E+05</totfact>
</mgrwt>
</event>
<event>
 4    1  0.5624886E-001  0.3831938E+02  0.7818608E-02  0.1520956E+00
          4   -1    0    0  501    0  0.00000000000E+00  0.00000000000E+00  0.95883412725E+01  0.96929194961E+01  0.14200000000E+01 0. -1.
         -4   -1    0    0    0  501 -0.00000000000E+00 -0.00000000000E+00 -0.37959853842E+02  0.37986404196E+02  0.14200000000E+01 0.  1.
        -13    1    1    2    0    0 -0.15436617682E+02  0.65995850116E+01 -0.26981226427E+01  0.17003962070E+02  0.10570000000E+00 0. -1.
         13    1    1    2    0    0  0.15436617682E+02 -0.65995850116E+01 -0.25673389927E+02  0.30675361622E+02  0.10570000000E+00 0.  1.
<mgrwt>
<rscale>  0 0.38319384E+02</rscale>
<asrwt>0</asrwt>
<pdfrwt beam="1">  1        4 0.14852163E-02 0.38319384E+02</pdfrwt>
<pdfrwt beam="2">  1       -4 0.58500642E-02 0.38319384E+02</pdfrwt>
<totfact> 0.27713362E+05</totfact>
</mgrwt>
</event>
<event>
 4    1  0.5624886E-001  0.4114765E+02  0.7818608E-02  0.1499932E+00
         -4   -1    0    0    0  501 -0.00000000000E+00  0.00000000000E+00  0.49211134887E+01  0.51218900777E+01  0.14200000000E+01 0. -1.
          4   -1    0    0  501    0  0.00000000000E+00 -0.00000000000E+00 -0.84087080239E+02  0.84099069336E+02  0.14200000000E+01 0.  1.
        -13    1    1    2    0    0 -0.10235933693E+02  0.17143562603E+02 -0.50336386298E+02  0.54151999366E+02  0.10570000000E+00 0.  1.
         13    1    1    2    0    0  0.10235933693E+02 -0.17143562603E+02 -0.28829580452E+02  0.35068960048E+02  0.10570000000E+00 0. -1.
<mgrwt>
<rscale>  0 0.41147653E+02</rscale>
<asrwt>0</asrwt>
<pdfrwt beam="2">  1        4 0.12952839E-01 0.41147653E+02</pdfrwt>
<pdfrwt beam="1">  1       -4 0.77346104E-03 0.41147653E+02</pdfrwt>
<totfact> 0.20663699E+05</totfact>
</mgrwt>
</event>
<event>
 4    1  0.5624886E-001  0.4867187E+02  0.7818608E-02  0.1452640E+00
          4   -1    0    0  501    0  0.00000000000E+00  0.00000000000E+00  0.70838867444E+01  0.72248080533E+01  0.14200000000E+01 0. -1.
         -4   -1    0    0    0  501 -0.00000000000E+00 -0.00000000000E+00 -0.82633034111E+02  0.82645234142E+02  0.14200000000E+01 0.  1.
        -13    1    1    2    0    0  0.22207833682E+02 -0.80901602060E+01 -0.27073465512E+02  0.35939146850E+02  0.10570000000E+00 0. -1.
         13    1    1    2    0    0 -0.22207833682E+02  0.80901602060E+01 -0.48475681854E+02  0.53930895345E+02  0.10570000000E+00 0.  1.
<mgrwt>
<rscale>  0 0.48671869E+02</rscale>
<asrwt>0</asrwt>
<pdfrwt beam="1">  1        4 0.11016074E-02 0.48671869E+02</pdfrwt>
<pdfrwt beam="2">  1       -4 0.12724552E-01 0.48671869E+02</pdfrwt>
<totfact> 0.13741155E+05</totfact>
</mgrwt>
</event>
<event>
 4    1  0.5624886E-001  0.2904779E+02  0.7818608E-02  0.1608859E+00
          4   -1    0    0  501    0  0.00000000000E+00  0.00000000000E+00  0.22248034382E+02  0.22293304686E+02  0.14200000000E+01 0. -1.
         -4   -1    0    0    0  501 -0.00000000000E+00 -0.00000000000E+00 -0.93730065713E+01  0.94799605583E+01  0.14200000000E+01 0.  1.
        -13    1    1    2    0    0 -0.92607800362E+01  0.11147721820E+02  0.54006315759E+01  0.15466471562E+02  0.10570000000E+00 0.  1.
         13    1    1    2    0    0  0.92607800362E+01 -0.11147721820E+02  0.74743962343E+01  0.16306793683E+02  0.10570000000E+00 0. -1.
<mgrwt>
<rscale>  0 0.29047789E+02</rscale>
<asrwt>0</asrwt>
<pdfrwt beam="1">  1        4 0.34344840E-02 0.29047789E+02</pdfrwt>
<pdfrwt beam="2">  1       -4 0.14537106E-02 0.29047789E+02</pdfrwt>
<totfact> 0.55575114E+05</totfact>
</mgrwt>
</event>
<event>
 4    1  0.5624886E-001  0.2961533E+02  0.7818608E-02  0.1602380E+00
          4   -1    0    0  501    0  0.00000000000E+00  0.00000000000E+00  0.27861241798E+02  0.27897404799E+02  0.14200000000E+01 0.  1.
         -4   -1    0    0    0  501 -0.00000000000E+00 -0.00000000000E+00 -0.77642616689E+01  0.78930449931E+01  0.14200000000E+01 0. -1.
        -13    1    1    2    0    0  0.43778797797E+01  0.13778788854E+02  0.13914761179E+02  0.20066205541E+02  0.10570000000E+00 0.  1.
         13    1    1    2    0    0 -0.43778797797E+01 -0.13778788854E+02  0.61822189500E+01  0.15724244251E+02  0.10570000000E+00 0. -1.
<mgrwt>
<rscale>  0 0.29615329E+02</rscale>
<asrwt>0</asrwt>
<pdfrwt beam="1">  1        4 0.42990331E-02 0.29615329E+02</pdfrwt>
<pdfrwt beam="2">  1       -4 0.12071900E-02 0.29615329E+02</pdfrwt>
<totfact> 0.52412157E+05</totfact>
</mgrwt>
</event>
<event>
 4    1  0.5624886E-001  0.4869002E+02  0.7818608E-02  0.1452538E+00
          4   -1    0    0  501    0  0.00000000000E+00  0.00000000000E+00  0.51609043332E+01  0.53526940447E+01  0.14200000000E+01 0. -1.
         -4   -1    0    0    0  501 -0.00000000000E+00 -0.00000000000E+00 -0.11254896557E+03  0.11255792310E+03  0.14200000000E+01 0.  1.
        -13    1    1    2    0    0  0.14095544193E+02  0.18824590909E+02 -0.38451284869E+02  0.45072852911E+02  0.10570000000E+00 0. -1.
         13    1    1    2    0    0 -0.14095544193E+02 -0.18824590909E+02 -0.68936776372E+02  0.72837764230E+02  0.10570000000E+00 0.  1.
<mgrwt>
<rscale>  0 0.48690019E+02</rscale>
<asrwt>0</asrwt>
<pdfrwt beam="1">  1        4 0.80942746E-03 0.48690019E+02</pdfrwt>
<pdfrwt beam="2">  1       -4 0.17330666E-01 0.48690019E+02</pdfrwt>
<totfact> 0.12772938E+05</totfact>
</mgrwt>
</event>
<event>
 4    1  0.5624886E-001  0.3888398E+02  0.7818608E-02  0.1516588E+00
         -4   -1    0    0    0  501 -0.00000000000E+00  0.00000000000E+00  0.95495475732E+01  0.96545460200E+01  0.14200000000E+01 0. -1.
          4   -1    0    0  501    0  0.00000000000E+00 -0.00000000000E+00 -0.39247766318E+02  0.39273446003E+02  0.14200000000E+01 0.  1.
        -13    1    1    2    0    0 -0.79196198460E+01  0.13697815398E+02 -0.29064602294E+02  0.33092488637E+02  0.10570000000E+00 0.  1.
         13    1    1    2    0    0  0.79196198460E+01 -0.13697815398E+02 -0.63361645037E+00  0.15835503386E+02  0.10570000000E+00 0. -1.
<mgrwt>
<rscale>  0 0.38883984E+02</rscale>
<asrwt>0</asrwt>
<pdfrwt beam="2">  1        4 0.60481700E-02 0.38883984E+02</pdfrwt>
<pdfrwt beam="1">  1       -4 0.14792133E-02 0.38883984E+02</pdfrwt>
<totfact> 0.26658689E+05</totfact>
</mgrwt>
</event>
<event>
 4    1  0.5624886E-001  0.3695498E+02  0.7818608E-02  0.1531895E+00
          4   -1    0    0  501    0  0.00000000000E+00  0.00000000000E+00  0.14118989480E+02  0.14190217191E+02  0.14200000000E+01 0.  1.
         -4   -1    0    0    0  501 -0.00000000000E+00 -0.00000000000E+00 -0.24028371106E+02  0.24070293268E+02  0.14200000000E+01 0. -1.
        -13    1    1    2    0    0 -0.14417612104E+02 -0.33542454091E+00 -0.16913798185E+02  0.22227635725E+02  0.10570000000E+00 0.  1.
         13    1    1    2    0    0  0.14417612104E+02  0.33542454091E+00  0.70044165591E+01  0.16032874734E+02  0.10570000000E+00 0. -1.
<mgrwt>
<rscale>  0 0.36954984E+02</rscale>
<asrwt>0</asrwt>
<pdfrwt beam="1">  1        4 0.21808561E-02 0.36954984E+02</pdfrwt>
<pdfrwt beam="2">  1       -4 0.37053763E-02 0.36954984E+02</pdfrwt>
<totfact> 0.31177435E+05</totfact>
</mgrwt>
</event>
<event>
 4    1  0.5624886E-001  0.4591212E+02  0.7818608E-02  0.1468727E+00
         -4   -1    0    0    0  501 -0.00000000000E+00  0.00000000000E+00  0.49329190850E+01  0.51332339416E+01  0.14200000000E+01 0. -1.
          4   -1    0    0  501    0  0.00000000000E+00 -0.00000000000E+00 -0.10449825619E+03  0.10450790375E+03  0.14200000000E+01 0.  1.
        -13    1    1    2    0    0 -0.21335569198E+02  0.71055628052E+01 -0.60797313048E+02  0.64822989611E+02  0.10570000000E+00 0. -1.
         13    1    1    2    0    0  0.21335569198E+02 -0.71055628052E+01 -0.38768024057E+02  0.44818148083E+02  0.10570000000E+00 0.  1.
<mgrwt>
<rscale>  0 0.45912120E+02</rscale>
<asrwt>0</asrwt>
<pdfrwt beam="2">  1        4 0.16092804E-01 0.45912120E+02</pdfrwt>
<pdfrwt beam="1">  1       -4 0.77506166E-03 0.45912120E+02</pdfrwt>
<totfact> 0.15045517E+05</totfact>
</mgrwt>
</event>
<event>
 4    1  0.5624886E-001  0.3419159E+02  0.7818608E-02  0.1555899E+00
         -4   -1    0    0    0  501 -0.00000000000E+00  0.00000000000E+00  0.26393218764E+02  0.26431390367E+02  0.14200000000E+01 0.  1.
          4   -1    0    0  501    0  0.00000000000E+00 -0.00000000000E+00 -0.10981610958E+02  0.11073038392E+02  0.14200000000E+01 0. -1.
        -13    1    1    2    0    0 -0.97005126665E+01 -0.89227214397E+01  0.19648321088E+02  0.23659725230E+02  0.10570000000E+00 0.  1.
         13    1    1    2    0    0  0.97005126665E+01  0.89227214397E+01 -0.42367132826E+01  0.13844703529E+02  0.10570000000E+00 0. -1.
<mgrwt>
<rscale>  0 0.34191586E+02</rscale>
<asrwt>0</asrwt>
<pdfrwt beam="2">  1        4 0.16994478E-02 0.34191586E+02</pdfrwt>
<pdfrwt beam="1">  1       -4 0.40704643E-02 0.34191586E+02</pdfrwt>
<totfact> 0.37494731E+05</totfact>
</mgrwt>
</event>
<event>
 4    1  0.5624886E-001  0.3739556E+02  0.7818608E-02  0.1528301E+00
         -4   -1    0    0    0  501 -0.00000000000E+00  0.00000000000E+00  0.81992272226E+02  0.82004567585E+02  0.14200000000E+01 0. -1.
          4   -1    0    0  501    0  0.00000000000E+00 -0.00000000000E+00 -0.41327009575E+01  0.43698532245E+01  0.14200000000E+01 0.  1.
        -13    1    1    2    0    0 -0.14790630864E+02 -0.11410429682E+02  0.37089081367E+02  0.41527964025E+02  0.10570000000E+00 0.  1.
         13    1    1    2    0    0  0.14790630864E+02  0.11410429682E+02  0.40770489901E+02  0.44846456785E+02  0.10570000000E+00 0. -1.
<mgrwt>
<rscale>  0 0.37395558E+02</rscale>
<asrwt>0</asrwt>
<pdfrwt beam="2">  1        4 0.65498854E-03 0.37395558E+02</pdfrwt>
<pdfrwt beam="1">  1       -4 0.12633382E-01 0.37395558E+02</pdfrwt>
<totfact> 0.26099725E+05</totfact>
</mgrwt>
</event>
<event>
 4    1  0.5624886E-001  0.3690966E+02  0.7818608E-02  0.1532268E+00
         -4   -1    0    0    0  501 -0.00000000000E+00  0.00000000000E+00  0.51660039251E+01  0.53576110865E+01  0.14200000000E+01 0. -1.
          4   -1    0    0  501    0  0.00000000000E+00 -0.00000000000E+00 -0.64527405845E+02  0.64543028323E+02  0.14200000000E+01 0.  1.
        -13    1    1    2    0    0 -0.78432181667E+01 -0.16410726438E+02 -0.23769750017E+02  0.29930589733E+02  0.10570000000E+00 0.  1.
         13    1    1    2    0    0  0.78432181667E+01  0.16410726438E+02 -0.35591651903E+02  0.39970049676E+02  0.10570000000E+00 0. -1.
<mgrwt>
<rscale>  0 0.36909665E+02</rscale>
<asrwt>0</asrwt>
<pdfrwt beam="2">  1        4 0.99432334E-02 0.36909665E+02</pdfrwt>
<pdfrwt beam="1">  1       -4 0.81071062E-03 0.36909665E+02</pdfrwt>
<totfact> 0.28230175E+05</totfact>
</mgrwt>
</event>
<event>
 4    1  0.5624886E-001  0.2300777E+02  0.7818608E-02  0.1691384E+00
         -4   -1    0    0    0  501 -0.00000000000E+00  0.00000000000E+00  0.77199761736E+01  0.78494861055E+01  0.14200000000E+01 0. -1.
          4   -1    0    0  501    0  0.00000000000E+00 -0.00000000000E+00 -0.16840219509E+02  0.16899982045E+02  0.14200000000E+01 0.  1.
        -13    1    1    2    0    0  0.93734548535E+01  0.66680056758E+01 -0.44903607380E+01  0.12349026991E+02  0.10570000000E+00 0.  1.
         13    1    1    2    0    0 -0.93734548535E+01 -0.66680056758E+01 -0.46298825975E+01  0.12400441159E+02  0.10570000000E+00 0. -1.
<mgrwt>
<rscale>  0 0.23007767E+02</rscale>
<asrwt>0</asrwt>
<pdfrwt beam="2">  1        4 0.26053624E-02 0.23007767E+02</pdfrwt>
<pdfrwt beam="1">  1       -4 0.12022481E-02 0.23007767E+02</pdfrwt>
<totfact> 0.95133052E+05</totfact>
</mgrwt>
</event>
<event>
 4    1  0.5624886E-001  0.2425557E+02  0.7818608E-02  0.1671931E+00
          4   -1    0    0  501    0  0.00000000000E+00  0.00000000000E+00  0.99242608462E+01  0.10025335573E+02  0.14200000000E+01 0. -1.
         -4   -1    0    0    0  501 -0.00000000000E+00 -0.00000000000E+00 -0.14609801588E+02  0.14678647841E+02  0.14200000000E+01 0.  1.
        -13    1    1    2    0    0 -0.93968681750E+01 -0.48653021012E+01  0.36912532424E+01  0.11207534030E+02  0.10570000000E+00 0. -1.
         13    1    1    2    0    0  0.93968681750E+01  0.48653021012E+01 -0.83767939846E+01  0.13496449384E+02  0.10570000000E+00 0.  1.
<mgrwt>
<rscale>  0 0.24255566E+02</rscale>
<asrwt>0</asrwt>
<pdfrwt beam="1">  1        4 0.15398802E-02 0.24255566E+02</pdfrwt>
<pdfrwt beam="2">  1       -4 0.22607326E-02 0.24255566E+02</pdfrwt>
<totfact> 0.85005038E+05</totfact>
</mgrwt>
</event>
<event>
 4    1  0.5624886E-001  0.5707208E+02  0.7818608E-02  0.1410546E+00
         -4   -1    0    0    0  501 -0.00000000000E+00  0.00000000000E+00  0.89803510205E+02  0.89814736236E+02  0.14200000000E+01 0.  1.
          4   -1    0    0  501    0  0.00000000000E+00 -0.00000000000E+00 -0.90001742821E+01  0.91115057542E+01  0.14200000000E+01 0. -1.
        -13    1    1    2    0    0  0.84298964070E+00 -0.27688841779E+02  0.52273804142E+02  0.59160327607E+02  0.10570000000E+00 0. -1.
         13    1    1    2    0    0 -0.84298964070E+00  0.27688841779E+02  0.28529531782E+02  0.39765914384E+02  0.10570000000E+00 0.  1.
<mgrwt>
<rscale>  0 0.57072079E+02</rscale>
<asrwt>0</asrwt>
<pdfrwt beam="2">  1        4 0.13940697E-02 0.57072079E+02</pdfrwt>
<pdfrwt beam="1">  1       -4 0.13825352E-01 0.57072079E+02</pdfrwt>
<totfact> 0.90307791E+04</totfact>
</mgrwt>
</event>
<event>
 4    1  0.5624886E-001  0.3193966E+02  0.7818608E-02  0.1577587E+00
          4   -1    0    0  501    0  0.00000000000E+00  0.00000000000E+00  0.97848760915E+01  0.98873757958E+01  0.14200000000E+01 0.  1.
         -4   -1    0    0    0  501 -0.00000000000E+00 -0.00000000000E+00 -0.25806332243E+02  0.25845370646E+02  0.14200000000E+01 0. -1.
        -13    1    1    2    0    0  0.13421077970E+02 -0.54064319137E+01 -0.45024994777E+00  0.14476489127E+02  0.10570000000E+00 0.  1.
         13    1    1    2    0    0 -0.13421077970E+02  0.54064319137E+01 -0.15571206203E+02  0.21256257315E+02  0.10570000000E+00 0. -1.
<mgrwt>
<rscale>  0 0.31939664E+02</rscale>
<asrwt>0</asrwt>
<pdfrwt beam="1">  1        4 0.15162531E-02 0.31939664E+02</pdfrwt>
<pdfrwt beam="2">  1       -4 0.39810925E-02 0.31939664E+02</pdfrwt>
<totfact> 0.44148770E+05</totfact>
</mgrwt>
</event>
<event>
 4    1  0.5624886E-001  0.3476996E+02  0.7818608E-02  0.1550653E+00
         -4   -1    0    0    0  501 -0.00000000000E+00  0.00000000000E+00  0.21684913013E+01  0.25920560418E+01  0.14200000000E+01 0.  1.
          4   -1    0    0  501    0  0.00000000000E+00 -0.00000000000E+00 -0.12654806419E+03  0.12655603087E+03  0.14200000000E+01 0. -1.
        -13    1    1    2    0    0  0.46744436606E+01  0.16407546745E+02 -0.74602837897E+02  0.76528769809E+02  0.10570000000E+00 0.  1.
         13    1    1    2    0    0 -0.46744436606E+01 -0.16407546745E+02 -0.49776734993E+02  0.52619317107E+02  0.10570000000E+00 0. -1.
<mgrwt>
<rscale>  0 0.34769961E+02</rscale>
<asrwt>0</asrwt>
<pdfrwt beam="2">  1        4 0.19502123E-01 0.34769961E+02</pdfrwt>
<pdfrwt beam="1">  1       -4 0.36680887E-03 0.34769961E+02</pdfrwt>
<totfact> 0.27585701E+05</totfact>
</mgrwt>
</event>
<event>
 4    1  0.5624886E-001  0.3196541E+02  0.7818608E-02  0.1577327E+00
         -4   -1    0    0    0  501 -0.00000000000E+00  0.00000000000E+00  0.17375023612E+01  0.22439506357E+01  0.14200000000E+01 0.  1.
          4   -1    0    0  501    0  0.00000000000E+00 -0.00000000000E+00 -0.12780755051E+03  0.12781543869E+03  0.14200000000E+01 0. -1.
        -13    1    1    2    0    0  0.13462120458E+02 -0.75656988073E+01 -0.46275281097E+02  0.48784027087E+02  0.10570000000E+00 0. -1.
         13    1    1    2    0    0 -0.13462120458E+02  0.75656988073E+01 -0.79794767050E+02  0.81275362236E+02  0.10570000000E+00 0.  1.
<mgrwt>
<rscale>  0 0.31965414E+02</rscale>
<asrwt>0</asrwt>
<pdfrwt beam="2">  1        4 0.19702258E-01 0.31965414E+02</pdfrwt>
<pdfrwt beam="1">  1       -4 0.30687250E-03 0.31965414E+02</pdfrwt>
<totfact> 0.33306775E+05</totfact>
</mgrwt>
</event>
<event>
 4    1  0.5624886E-001  0.2046442E+02  0.7818608E-02  0.1736247E+00
          4   -1    0    0  501    0  0.00000000000E+00  0.00000000000E+00  0.22006981426E+01  0.26190594333E+01  0.14200000000E+01 0. -1.
         -4   -1    0    0    0  501 -0.00000000000E+00 -0.00000000000E+00 -0.43014305563E+02  0.43037737894E+02  0.14200000000E+01 0.  1.
        -13    1    1    2    0    0  0.24084622117E+01  0.98679852112E+01 -0.17666033718E+02  0.20378364560E+02  0.10570000000E+00 0. -1.
         13    1    1    2    0    0 -0.24084622117E+01 -0.98679852112E+01 -0.23147573703E+02  0.25278432767E+02  0.10570000000E+00 0.  1.
<mgrwt>
<rscale>  0 0.20464423E+02</rscale>
<asrwt>0</asrwt>
<pdfrwt beam="1">  1        4 0.37255310E-03 0.20464423E+02</pdfrwt>
<pdfrwt beam="2">  1       -4 0.66515690E-02 0.20464423E+02</pdfrwt>
<totfact> 0.11173476E+06</totfact>
</mgrwt>
</event>
<event>
 4    1  0.5624886E-001  0.4006391E+02  0.7818608E-02  0.1507742E+00
          4   -1    0    0  501    0  0.00000000000E+00  0.00000000000E+00  0.50857923344E+02  0.50877743335E+02  0.14200000000E+01 0. -1.
         -4   -1    0    0    0  501 -0.00000000000E+00 -0.00000000000E+00 -0.78047688064E+01  0.79328945613E+01  0.14200000000E+01 0.  1.
        -13    1    1    2    0    0  0.58774783931E+01  0.19129271854E+02  0.22834828932E+02  0.30363042977E+02  0.10570000000E+00 0. -1.
         13    1    1    2    0    0 -0.58774783931E+01 -0.19129271854E+02  0.20218325605E+02  0.28447594919E+02  0.10570000000E+00 0.  1.
<mgrwt>
<rscale>  0 0.40063912E+02</rscale>
<asrwt>0</asrwt>
<pdfrwt beam="1">  1        4 0.78356763E-02 0.40063912E+02</pdfrwt>
<pdfrwt beam="2">  1       -4 0.12121141E-02 0.40063912E+02</pdfrwt>
<totfact> 0.24059606E+05</totfact>
</mgrwt>
</event>
<event>
 4    1  0.5624886E-001  0.1416257E+03  0.7818608E-02  0.1211158E+00
          4   -1    0    0  501    0  0.00000000000E+00  0.00000000000E+00  0.34231970607E+02  0.34261409948E+02  0.14200000000E+01 0. -1.
         -4   -1    0    0    0  501 -0.00000000000E+00 -0.00000000000E+00 -0.14638880554E+03  0.14639569251E+03  0.14200000000E+01 0.  1.
        -13    1    1    2    0    0  0.12315366619E+02 -0.45713370209E+02 -0.12325117635E+03  0.13203122401E+03  0.10570000000E+00 0.  1.
         13    1    1    2    0    0 -0.12315366619E+02  0.45713370209E+02  0.11094341419E+02  0.48625878448E+02  0.10570000000E+00 0. -1.
<mgrwt>
<rscale>  0 0.14162568E+03</rscale>
<asrwt>0</asrwt>
<pdfrwt beam="1">  1        4 0.52692514E-02 0.14162568E+03</pdfrwt>
<pdfrwt beam="2">  1       -4 0.22524149E-01 0.14162568E+03</pdfrwt>
<totfact> 0.65669773E+03</totfact>
</mgrwt>
</event>
<event>
 4    1  0.5624886E-001  0.2190610E+02  0.7818608E-02  0.1709881E+00
         -4   -1    0    0    0  501 -0.00000000000E+00  0.00000000000E+00  0.81890092226E+01  0.83112136326E+01  0.14200000000E+01 0.  1.
          4   -1    0    0  501    0  0.00000000000E+00 -0.00000000000E+00 -0.14384112533E+02  0.14454033810E+02  0.14200000000E+01 0. -1.
        -13    1    1    2    0    0 -0.96736113402E+01 -0.42200504687E+01 -0.61399176610E+01  0.12210542318E+02  0.10570000000E+00 0. -1.
         13    1    1    2    0    0  0.96736113402E+01  0.42200504687E+01 -0.55185649726E-01  0.10554705125E+02  0.10570000000E+00 0.  1.
<mgrwt>
<rscale>  0 0.21906099E+02</rscale>
<asrwt>0</asrwt>
<pdfrwt beam="2">  1        4 0.22277193E-02 0.21906099E+02</pdfrwt>
<pdfrwt beam="1">  1       -4 0.12746265E-02 0.21906099E+02</pdfrwt>
<totfact> 0.10641940E+06</totfact>
</mgrwt>
</event>
<event>
 4    1  0.5624886E-001  0.2382776E+02  0.7818608E-02  0.1678433E+00
         -4   -1    0    0    0  501 -0.00000000000E+00  0.00000000000E+00  0.37058586254E+01  0.39686002761E+01  0.14200000000E+01 0. -1.
          4   -1    0    0  501    0  0.00000000000E+00 -0.00000000000E+00 -0.36713434522E+02  0.36740885596E+02  0.14200000000E+01 0.  1.
        -13    1    1    2    0    0 -0.11358176784E+02 -0.62903354824E+00 -0.10457204355E+02  0.15452124723E+02  0.10570000000E+00 0. -1.
         13    1    1    2    0    0  0.11358176784E+02  0.62903354824E+00 -0.22550371542E+02  0.25257361149E+02  0.10570000000E+00 0.  1.
<mgrwt>
<rscale>  0 0.23827761E+02</rscale>
<asrwt>0</asrwt>
<pdfrwt beam="2">  1        4 0.56705430E-02 0.23827761E+02</pdfrwt>
<pdfrwt beam="1">  1       -4 0.59245464E-03 0.23827761E+02</pdfrwt>
<totfact> 0.82869607E+05</totfact>
</mgrwt>
</event>
<event>
 4    1  0.5624886E-001  0.2518985E+02  0.7818608E-02  0.1658290E+00
         -4   -1    0    0    0  501 -0.00000000000E+00  0.00000000000E+00  0.47789834778E+01  0.49854872461E+01  0.14200000000E+01 0.  1.
          4   -1    0    0  501    0  0.00000000000E+00 -0.00000000000E+00 -0.32269255104E+02  0.32300483355E+02  0.14200000000E+01 0. -1.
        -13    1    1    2    0    0 -0.62369185969E+01 -0.82057413236E+01 -0.24458706024E+02  0.26541906810E+02  0.10570000000E+00 0. -1.
         13    1    1    2    0    0  0.62369185969E+01  0.82057413236E+01 -0.30315656021E+01  0.10744063791E+02  0.10570000000E+00 0.  1.
<mgrwt>
<rscale>  0 0.25189851E+02</rscale>
<asrwt>0</asrwt>
<pdfrwt beam="2">  1        4 0.49827877E-02 0.25189851E+02</pdfrwt>
<pdfrwt beam="1">  1       -4 0.75351532E-03 0.25189851E+02</pdfrwt>
<totfact> 0.74497057E+05</totfact>
</mgrwt>
</event>
<event>
 4    1  0.5624886E-001  0.2581552E+02  0.7818608E-02  0.1649557E+00
          4   -1    0    0  501    0  0.00000000000E+00  0.00000000000E+00  0.45229079045E+01  0.47405797022E+01  0.14200000000E+01 0.  1.
         -4   -1    0    0    0  501 -0.00000000000E+00 -0.00000000000E+00 -0.35739275808E+02  0.35767474545E+02  0.14200000000E+01 0. -1.
        -13    1    1    2    0    0 -0.11275323042E+02 -0.62749830300E+01 -0.15135579012E+02  0.19889827708E+02  0.10570000000E+00 0.  1.
         13    1    1    2    0    0  0.11275323042E+02  0.62749830300E+01 -0.16080788892E+02  0.20618226539E+02  0.10570000000E+00 0. -1.
<mgrwt>
<rscale>  0 0.25815515E+02</rscale>
<asrwt>0</asrwt>
<pdfrwt beam="1">  1        4 0.71474513E-03 0.25815515E+02</pdfrwt>
<pdfrwt beam="2">  1       -4 0.55172631E-02 0.25815515E+02</pdfrwt>
<totfact> 0.69781553E+05</totfact>
</mgrwt>
</event>
<event>
 4    1  0.5624886E-001  0.4551260E+02  0.7818608E-02  0.1471167E+00
          4   -1    0    0  501    0  0.00000000000E+00  0.00000000000E+00  0.16588947235E+02  0.16649611718E+02  0.14200000000E+01 0.  1.
         -4   -1    0    0    0  501 -0.00000000000E+00 -0.00000000000E+00 -0.31082647481E+02  0.31115066679E+02  0.14200000000E+01 0. -1.
        -13    1    1    2    0    0  0.17425286184E+02  0.12280521620E+02 -0.15602358780E+02  0.26417732337E+02  0.10570000000E+00 0. -1.
         13    1    1    2    0    0 -0.17425286184E+02 -0.12280521620E+02  0.11086585327E+01  0.21346946060E+02  0.10570000000E+00 0.  1.
<mgrwt>
<rscale>  0 0.45512604E+02</rscale>
<asrwt>0</asrwt>
<pdfrwt beam="1">  1        4 0.25593060E-02 0.45512604E+02</pdfrwt>
<pdfrwt beam="2">  1       -4 0.47891061E-02 0.45512604E+02</pdfrwt>
<totfact> 0.18308960E+05</totfact>
</mgrwt>
</event>
<event>
 4    1  0.5624886E-001  0.3959958E+02  0.7818608E-02  0.1511179E+00
         -4   -1    0    0    0  501 -0.00000000000E+00  0.00000000000E+00  0.49223369993E+01  0.51230656383E+01  0.14200000000E+01 0. -1.
          4   -1    0    0  501    0  0.00000000000E+00 -0.00000000000E+00 -0.77844635225E+02  0.77857585587E+02  0.14200000000E+01 0.  1.
        -13    1    1    2    0    0  0.16295423659E+02 -0.35748315931E+01 -0.14116834374E+02  0.21854437498E+02  0.10570000000E+00 0. -1.
         13    1    1    2    0    0 -0.16295423659E+02  0.35748315931E+01 -0.58805463852E+02  0.61126213727E+02  0.10570000000E+00 0.  1.
<mgrwt>
<rscale>  0 0.39599582E+02</rscale>
<asrwt>0</asrwt>
<pdfrwt beam="2">  1        4 0.11992534E-01 0.39599582E+02</pdfrwt>
<pdfrwt beam="1">  1       -4 0.77371952E-03 0.39599582E+02</pdfrwt>
<totfact> 0.23028113E+05</totfact>
</mgrwt>
</event>
<event>
 4    1  0.5624886E-001  0.2810370E+02  0.7818608E-02  0.1620048E+00
         -4   -1    0    0    0  501 -0.00000000000E+00  0.00000000000E+00  0.46969853684E+01  0.49069411603E+01  0.14200000000E+01 0. -1.
          4   -1    0    0  501    0  0.00000000000E+00 -0.00000000000E+00 -0.40896999901E+02  0.40921644651E+02  0.14200000000E+01 0.  1.
        -13    1    1    2    0    0 -0.29540859780E+01 -0.10496555159E+02 -0.32551603257E+02  0.34329613183E+02  0.10570000000E+00 0.  1.
         13    1    1    2    0    0  0.29540859780E+01  0.10496555159E+02 -0.36484112759E+01  0.11498972628E+02  0.10570000000E+00 0. -1.
<mgrwt>
<rscale>  0 0.28103705E+02</rscale>
<asrwt>0</asrwt>
<pdfrwt beam="2">  1        4 0.63098921E-02 0.28103705E+02</pdfrwt>
<pdfrwt beam="1">  1       -4 0.74065936E-03 0.28103705E+02</pdfrwt>
<totfact> 0.56806578E+05</totfact>
</mgrwt>
</event>
<event>
 4    1  0.5624886E-001  0.2716682E+02  0.7818608E-02  0.1631698E+00
          4   -1    0    0  501    0  0.00000000000E+00  0.00000000000E+00  0.60627483659E+02  0.60644110801E+02  0.14200000000E+01 0. -1.
         -4   -1    0    0    0  501 -0.00000000000E+00 -0.00000000000E+00 -0.28596811313E+01  0.31928319988E+01  0.14200000000E+01 0.  1.
        -13    1    1    2    0    0 -0.87455058701E+01 -0.94681903534E+01  0.18813263877E+02  0.22805275084E+02  0.10570000000E+00 0.  1.
         13    1    1    2    0    0  0.87455058701E+01  0.94681903534E+01  0.38954538652E+02  0.41031667716E+02  0.10570000000E+00 0. -1.
<mgrwt>
<rscale>  0 0.27166823E+02</rscale>
<asrwt>0</asrwt>
<pdfrwt beam="1">  1        4 0.93542114E-02 0.27166823E+02</pdfrwt>
<pdfrwt beam="2">  1       -4 0.46685693E-03 0.27166823E+02</pdfrwt>
<totfact> 0.57604405E+05</totfact>
</mgrwt>
</event>
<event>
 4    1  0.5624886E-001  0.2437250E+02  0.7818608E-02  0.1670182E+00
         -4   -1    0    0    0  501 -0.00000000000E+00  0.00000000000E+00  0.47877770117E+01  0.49939171713E+01  0.14200000000E+01 0.  1.
          4   -1    0    0  501    0  0.00000000000E+00 -0.00000000000E+00 -0.30140584488E+02  0.30174015862E+02  0.14200000000E+01 0. -1.
        -13    1    1    2    0    0  0.10510595142E+02 -0.18535478162E+01 -0.21162192615E+02  0.23701430727E+02  0.10570000000E+00 0. -1.
         13    1    1    2    0    0 -0.10510595142E+02  0.18535478162E+01 -0.41906148610E+01  0.11466502307E+02  0.10570000000E+00 0.  1.
<mgrwt>
<rscale>  0 0.24372498E+02</rscale>
<asrwt>0</asrwt>
<pdfrwt beam="2">  1        4 0.46554415E-02 0.24372498E+02</pdfrwt>
<pdfrwt beam="1">  1       -4 0.75500968E-03 0.24372498E+02</pdfrwt>
<totfact> 0.80652650E+05</totfact>
</mgrwt>
</event>
<event>
 4    1  0.5624886E-001  0.2278934E+02  0.7818608E-02  0.1694948E+00
         -4   -1    0    0    0  501 -0.00000000000E+00  0.00000000000E+00  0.45396696893E+01  0.47565744910E+01  0.14200000000E+01 0. -1.
          4   -1    0    0  501    0  0.00000000000E+00 -0.00000000000E+00 -0.27698010814E+02  0.27734386653E+02  0.14200000000E+01 0.  1.
        -13    1    1    2    0    0 -0.80247809767E+01 -0.62846809835E+01 -0.43188319932E+01  0.11070582960E+02  0.10570000000E+00 0. -1.
         13    1    1    2    0    0  0.80247809767E+01  0.62846809835E+01 -0.18839509131E+02  0.21420378185E+02  0.10570000000E+00 0.  1.
<mgrwt>
<rscale>  0 0.22789335E+02</rscale>
<asrwt>0</asrwt>
<pdfrwt beam="2">  1        4 0.42807155E-02 0.22789335E+02</pdfrwt>
<pdfrwt beam="1">  1       -4 0.71789387E-03 0.22789335E+02</pdfrwt>
<totfact> 0.94020861E+05</totfact>
</mgrwt>
</event>
<event>
 4    1  0.5624886E-001  0.2298446E+02  0.7818608E-02  0.1691762E+00
          4   -1    0    0  501    0  0.00000000000E+00  0.00000000000E+00  0.45028129244E+01  0.47214112543E+01  0.14200000000E+01 0. -1.
         -4   -1    0    0    0  501 -0.00000000000E+00 -0.00000000000E+00 -0.28399009763E+02  0.28434488839E+02  0.14200000000E+01 0.  1.
        -13    1    1    2    0    0  0.11320150081E+02  0.75226325462E+00 -0.14587781174E+02  0.18480428294E+02  0.10570000000E+00 0.  1.
         13    1    1    2    0    0 -0.11320150081E+02 -0.75226325462E+00 -0.93084156645E+01  0.14675471799E+02  0.10570000000E+00 0. -1.
<mgrwt>
<rscale>  0 0.22984462E+02</rscale>
<asrwt>0</asrwt>
<pdfrwt beam="1">  1        4 0.71228488E-03 0.22984462E+02</pdfrwt>
<pdfrwt beam="2">  1       -4 0.43886227E-02 0.22984462E+02</pdfrwt>
<totfact> 0.92097683E+05</totfact>
</mgrwt>
</event>
<event>
 4    1  0.5624886E-001  0.3366464E+02  0.7818608E-02  0.1560789E+00
         -4   -1    0    0    0  501 -0.00000000000E+00  0.00000000000E+00  0.28749067181E+01  0.32064760467E+01  0.14200000000E+01 0.  1.
          4   -1    0    0  501    0  0.00000000000E+00 -0.00000000000E+00 -0.92841194602E+02  0.92852053370E+02  0.14200000000E+01 0. -1.
        -13    1    1    2    0    0 -0.16433021715E+02 -0.36429439075E+01 -0.45053852175E+02  0.48095488472E+02  0.10570000000E+00 0. -1.
         13    1    1    2    0    0  0.16433021715E+02  0.36429439075E+01 -0.44912435708E+02  0.47963040945E+02  0.10570000000E+00 0.  1.
<mgrwt>
<rscale>  0 0.33664642E+02</rscale>
<asrwt>0</asrwt>
<pdfrwt beam="2">  1        4 0.14309599E-01 0.33664642E+02</pdfrwt>
<pdfrwt beam="1">  1       -4 0.46863403E-03 0.33664642E+02</pdfrwt>
<totfact> 0.32390649E+05</totfact>
</mgrwt>
</event>
<event>
 4    1  0.5624886E-001  0.3794955E+02  0.7818608E-02  0.1523866E+00
         -4   -1    0    0    0  501 -0.00000000000E+00  0.00000000000E+00  0.13757091252E+02  0.13830182924E+02  0.14200000000E+01 0. -1.
          4   -1    0    0  501    0  0.00000000000E+00 -0.00000000000E+00 -0.26009537001E+02  0.26048270864E+02  0.14200000000E+01 0.  1.
        -13    1    1    2    0    0 -0.18360967377E+02 -0.38622332290E+01 -0.90963731772E+01  0.20851789995E+02  0.10570000000E+00 0.  1.
         13    1    1    2    0    0  0.18360967377E+02  0.38622332290E+01 -0.31560725713E+01  0.19026663793E+02  0.10570000000E+00 0. -1.
<mgrwt>
<rscale>  0 0.37949554E+02</rscale>
<asrwt>0</asrwt>
<pdfrwt beam="2">  1        4 0.40100692E-02 0.37949554E+02</pdfrwt>
<pdfrwt beam="1">  1       -4 0.21250775E-02 0.37949554E+02</pdfrwt>
<totfact> 0.29114306E+05</totfact>
</mgrwt>
</event>
<event>
 4    1  0.5624886E-001  0.3875465E+02  0.7818608E-02  0.1517581E+00
          4   -1    0    0  501    0  0.00000000000E+00  0.00000000000E+00  0.56220832895E+01  0.57986395399E+01  0.14200000000E+01 0.  1.
         -4   -1    0    0    0  501 -0.00000000000E+00 -0.00000000000E+00 -0.65569929602E+02  0.65585303750E+02  0.14200000000E+01 0. -1.
        -13    1    1    2    0    0 -0.61412018159E+01  0.17133199750E+02 -0.42220947581E+02  0.45976955973E+02  0.10570000000E+00 0. -1.
         13    1    1    2    0    0  0.61412018159E+01 -0.17133199750E+02 -0.17726898732E+02  0.25406987317E+02  0.10570000000E+00 0.  1.
<mgrwt>
<rscale>  0 0.38754652E+02</rscale>
<asrwt>0</asrwt>
<pdfrwt beam="1">  1        4 0.87969981E-03 0.38754652E+02</pdfrwt>
<pdfrwt beam="2">  1       -4 0.10102445E-01 0.38754652E+02</pdfrwt>
<totfact> 0.25058760E+05</totfact>
</mgrwt>
</event>
<event>
 4    1  0.5624886E-001  0.4519981E+02  0.7818608E-02  0.1473098E+00
         -4   -1    0    0    0  501 -0.00000000000E+00  0.00000000000E+00  0.18238168112E+03  0.18238720901E+03  0.14200000000E+01 0.  1.
          4   -1    0    0  501    0  0.00000000000E+00 -0.00000000000E+00 -0.26145397343E+01  0.29752677228E+01  0.14200000000E+01 0. -1.
        -13    1    1    2    0    0  0.22395406763E+02  0.63651501795E-01  0.77454087086E+02  0.80626950050E+02  0.10570000000E+00 0. -1.
         13    1    1    2    0    0 -0.22395406763E+02 -0.63651501795E-01  0.10231305430E+03  0.10473552668E+03  0.10570000000E+00 0.  1.
<mgrwt>
<rscale>  0 0.45199808E+02</rscale>
<asrwt>0</asrwt>
<pdfrwt beam="2">  1        4 0.43041043E-03 0.45199808E+02</pdfrwt>
<pdfrwt beam="1">  1       -4 0.28086893E-01 0.45199808E+02</pdfrwt>
<totfact> 0.13095136E+05</totfact>
</mgrwt>
</event>
<event>
 4    1  0.5624886E-001  0.4169737E+02  0.7818608E-02  0.1496080E+00
         -4   -1    0    0    0  501 -0.00000000000E+00  0.00000000000E+00  0.14139683506E+02  0.14210807495E+02  0.14200000000E+01 0.  1.
          4   -1    0    0  501    0  0.00000000000E+00 -0.00000000000E+00 -0.30576206114E+02  0.30609161706E+02  0.14200000000E+01 0. -1.
        -13    1    1    2    0    0 -0.16626639756E+02 -0.84621352002E+01 -0.18221272205E+02  0.26078320785E+02  0.10570000000E+00 0. -1.
         13    1    1    2    0    0  0.16626639756E+02  0.84621352002E+01  0.17847495965E+01  0.18741648416E+02  0.10570000000E+00 0.  1.
<mgrwt>
<rscale>  0 0.41697366E+02</rscale>
<asrwt>0</asrwt>
<pdfrwt beam="2">  1        4 0.47120378E-02 0.41697366E+02</pdfrwt>
<pdfrwt beam="1">  1       -4 0.21833421E-02 0.41697366E+02</pdfrwt>
<totfact> 0.22865873E+05</totfact>
</mgrwt>
</event>
<event>
 4    1  0.5624886E-001  0.2905397E+02  0.7818608E-02  0.1608787E+00
         -4   -1    0    0    0  501 -0.00000000000E+00  0.00000000000E+00  0.62889905677E+01  0.64473096995E+01  0.14200000000E+01 0.  1.
          4   -1    0    0  501    0  0.00000000000E+00 -0.00000000000E+00 -0.32965071084E+02  0.32995640797E+02  0.14200000000E+01 0. -1.
        -13    1    1    2    0    0 -0.11210429196E+02 -0.35980139408E+01 -0.17864647031E+01  0.11908906570E+02  0.10570000000E+00 0.  1.
         13    1    1    2    0    0  0.11210429196E+02  0.35980139408E+01 -0.24889615813E+02  0.27534043926E+02  0.10570000000E+00 0. -1.
<mgrwt>
<rscale>  0 0.29053968E+02</rscale>
<asrwt>0</asrwt>
<pdfrwt beam="2">  1        4 0.50860792E-02 0.29053968E+02</pdfrwt>
<pdfrwt beam="1">  1       -4 0.98206694E-03 0.29053968E+02</pdfrwt>
<totfact> 0.53978625E+05</totfact>
</mgrwt>
</event>
